LAMMPS Description

22 atoms
23 bonds
36 angles
52 dihedrals
10 impropers

7 atom types
4 bond types
6 angle types
3 dihedral types
1 improper types

-50.00000  50.00000 xlo xhi
-50.00000  50.00000 ylo yhi
-50.00000  50.00000 zlo zhi

Masses

1  12.01000 # CP
2  12.01000 # CA0
3  12.01000 # CA1
4  12.01000 # CA2
5   1.00800 # HA0
6   1.00800 # HA1
7   1.00800 # HA2

Atoms

1 1 1   0.03676  -0.75426   0.00000  -0.00000
2 1 2  -0.09613  -1.48081  -1.15680   0.38199
3 1 2  -0.09613  -1.48081   1.15681  -0.38200
4 1 3  -0.10735  -2.88047  -1.14749   0.38363
5 1 5   0.08494  -0.96496  -2.06187   0.69418
6 1 1   0.03676   0.75426   0.00000   0.00000
7 1 3  -0.10735  -2.88047   1.14750  -0.38363
8 1 5   0.08494  -0.96496   2.06187  -0.69418
9 1 4  -0.07910  -3.57939   0.00000  -0.00000
10 1 6   0.09685  -3.42727  -2.03742   0.68671
11 1 2  -0.09613   1.48081  -1.15680  -0.38199
12 1 2  -0.09613   1.48081   1.15681   0.38200
13 1 6   0.09685  -3.42727   2.03742  -0.68672
14 1 7   0.08571  -4.66707   0.00000  -0.00000
15 1 3  -0.10735   2.88047  -1.14749  -0.38363
16 1 5   0.08494   0.96496  -2.06187  -0.69418
17 1 3  -0.10735   2.88047   1.14750   0.38363
18 1 5   0.08494   0.96496   2.06187   0.69418
19 1 4  -0.07910   3.57939   0.00000   0.00000
20 1 6   0.09685   3.42727  -2.03742  -0.68671
21 1 6   0.09685   3.42727   2.03742   0.68672
22 1 7   0.08571   4.66707   0.00000   0.00000

Bonds

1 2 1 2
2 2 1 3
3 4 1 6
4 3 2 4
5 1 2 5
6 3 3 7
7 1 3 8
8 3 4 9
9 1 4 10
10 2 6 11
11 2 6 12
12 3 7 9
13 1 7 13
14 1 9 14
15 3 11 15
16 1 11 16
17 3 12 17
18 1 12 18
19 3 15 19
20 1 15 20
21 3 17 19
22 1 17 21
23 1 19 22

Angles

1 1 2 4 9
2 1 3 7 9
3 1 4 9 7
4 1 11 15 19
5 1 12 17 19
6 1 15 19 17
7 5 1 2 4
8 5 1 3 7
9 5 6 11 15
10 5 6 12 17
11 6 2 4 10
12 6 3 7 13
13 6 4 2 5
14 6 4 9 14
15 6 7 3 8
16 6 7 9 14
17 6 9 4 10
18 6 9 7 13
19 6 11 15 20
20 6 12 17 21
21 6 15 11 16
22 6 15 19 22
23 6 17 12 18
24 6 17 19 22
25 6 19 15 20
26 6 19 17 21
27 2 1 2 5
28 2 1 3 8
29 2 6 11 16
30 2 6 12 18
31 3 2 1 3
32 3 11 6 12
33 4 2 1 6
34 4 3 1 6
35 4 1 6 11
36 4 1 6 12

Dihedrals

1 1 1 2 4 9
2 1 1 3 7 9
3 1 6 11 15 19
4 1 6 12 17 19
5 1 1 2 4 10
6 1 1 3 7 13
7 1 6 11 15 20
8 1 6 12 17 21
9 1 2 4 9 7
10 1 3 7 9 4
11 1 11 15 19 17
12 1 12 17 19 15
13 1 2 4 9 14
14 1 3 7 9 14
15 1 4 9 7 13
16 1 7 9 4 10
17 1 5 2 4 9
18 1 8 3 7 9
19 1 11 15 19 22
20 1 12 17 19 22
21 1 15 19 17 21
22 1 17 19 15 20
23 1 16 11 15 19
24 1 18 12 17 19
25 1 5 2 4 10
26 1 8 3 7 13
27 1 10 4 9 14
28 1 13 7 9 14
29 1 16 11 15 20
30 1 18 12 17 21
31 1 20 15 19 22
32 1 21 17 19 22
33 2 3 1 2 4
34 2 2 1 3 7
35 2 12 6 11 15
36 2 11 6 12 17
37 2 4 2 1 6
38 2 6 1 3 7
39 2 1 6 11 15
40 2 1 6 12 17
41 2 3 1 2 5
42 2 2 1 3 8
43 2 12 6 11 16
44 2 11 6 12 18
45 2 5 2 1 6
46 2 6 1 3 8
47 2 1 6 11 16
48 2 1 6 12 18
49 3 2 1 6 11
50 3 2 1 6 12
51 3 3 1 6 11
52 3 3 1 6 12

Impropers

1 1 1 4 2 5
2 1 1 7 3 8
3 1 6 15 11 16
4 1 6 17 12 18
5 1 2 9 4 10
6 1 3 9 7 13
7 1 4 7 9 14
8 1 11 19 15 20
9 1 12 19 17 21
10 1 15 17 19 22

