LAMMPS Description

44 atoms
46 bonds
72 angles
104 dihedrals
20 impropers

7 atom types
4 bond types
6 angle types
3 dihedral types
1 improper types

-50.00000  50.00000 xlo xhi
-50.00000  50.00000 ylo yhi
-50.00000  50.00000 zlo zhi

Masses

1  12.01000 # CP
2  12.01000 # CA0
3  12.01000 # CA1
4  12.01000 # CA2
5   1.00800 # HA0
6   1.00800 # HA1
7   1.00800 # HA2

Atoms

1 1 1   0.03676   3.89170   2.76668  -0.76306
2 1 2  -0.09613   3.12019   1.69289  -1.28828
3 1 2  -0.09613   4.21307   3.82688  -1.65790
4 1 3  -0.10735   2.69630   1.68941  -2.62018
5 1 5   0.08494   2.83367   0.84269  -0.68185
6 1 1   0.03676   4.35197   2.77803   0.69184
7 1 3  -0.10735   3.78797   3.80564  -2.99097
8 1 5   0.08494   4.79782   4.68276  -1.34410
9 1 4  -0.07910   3.02928   2.73994  -3.47225
10 1 6   0.09685   2.10145   0.86152  -2.99230
11 1 2  -0.09613   5.12498   3.85053   1.21768
12 1 2  -0.09613   4.02770   1.71860   1.58645
13 1 6   0.09685   4.05134   4.62455  -3.65630
14 1 7   0.08571   2.69634   2.72672  -4.50565
15 1 3  -0.10735   5.54620   3.85380   2.55071
16 1 5   0.08494   5.41458   4.69946   0.61070
17 1 3  -0.10735   4.45058   1.73909   2.92004
18 1 5   0.08494   3.44203   0.86375   1.27218
19 1 4  -0.07910   5.20960   2.80394   3.40251
20 1 6   0.09685   6.14196   4.68077   2.92405
21 1 6   0.09685   4.18476   0.92037   3.58470
22 1 7   0.08571   5.53985   2.81675   4.43677
23 2 1   0.03676   7.82977   0.05922  -0.69230
24 2 2  -0.09613   7.06340   1.13899  -1.21286
25 2 2  -0.09613   8.15100  -0.99569  -1.59326
26 2 3  -0.10735   6.64620   1.15383  -2.54700
27 2 5   0.08494   6.77666   1.98547  -0.60116
28 2 1   0.03676   8.28663   0.03608   0.76356
29 2 3  -0.10735   7.73225  -0.96351  -2.92802
30 2 5   0.08494   8.73178  -1.85539  -1.28315
31 2 4  -0.07910   6.98021   0.10855  -3.40540
32 2 6   0.09685   6.05652   1.98691  -2.91606
33 2 2  -0.09613   9.05275  -1.04402   1.28382
34 2 2  -0.09613   7.96764   1.09193   1.66418
35 2 6   0.09685   7.99646  -1.77835  -3.59796
36 2 7   0.08571   6.65431   0.13084  -4.44098
37 2 3  -0.10735   9.47172  -1.05851   2.61732
38 2 5   0.08494   9.33879  -1.89066   0.67215
39 2 3  -0.10735   8.38737   1.05968   2.99863
40 2 5   0.08494   7.38909   1.95301   1.35364
41 2 4  -0.07910   9.13919  -0.01277   3.47555
42 2 6   0.09685  10.06232  -1.89116   2.98588
43 2 6   0.09685   8.12526   1.87540   3.66836
44 2 7   0.08571   9.46735  -0.03462   4.51029

Bonds

1 2 1 2
2 2 1 3
3 4 1 6
4 3 2 4
5 1 2 5
6 3 3 7
7 1 3 8
8 3 4 9
9 1 4 10
10 2 6 11
11 2 6 12
12 3 7 9
13 1 7 13
14 1 9 14
15 3 11 15
16 1 11 16
17 3 12 17
18 1 12 18
19 3 15 19
20 1 15 20
21 3 17 19
22 1 17 21
23 1 19 22
1 2 23 24
2 2 23 25
3 4 23 28
4 3 24 26
5 1 24 27
6 3 25 29
7 1 25 30
8 3 26 31
9 1 26 32
10 2 28 33
11 2 28 34
12 3 29 31
13 1 29 35
14 1 31 36
15 3 33 37
16 1 33 38
17 3 34 39
18 1 34 40
19 3 37 41
20 1 37 42
21 3 39 41
22 1 39 43
23 1 41 44

Angles

1 1 2 4 9
2 1 3 7 9
3 1 4 9 7
4 1 11 15 19
5 1 12 17 19
6 1 15 19 17
7 5 1 2 4
8 5 1 3 7
9 5 6 11 15
10 5 6 12 17
11 6 2 4 10
12 6 3 7 13
13 6 4 2 5
14 6 4 9 14
15 6 7 3 8
16 6 7 9 14
17 6 9 4 10
18 6 9 7 13
19 6 11 15 20
20 6 12 17 21
21 6 15 11 16
22 6 15 19 22
23 6 17 12 18
24 6 17 19 22
25 6 19 15 20
26 6 19 17 21
27 2 1 2 5
28 2 1 3 8
29 2 6 11 16
30 2 6 12 18
31 3 2 1 3
32 3 11 6 12
33 4 2 1 6
34 4 3 1 6
35 4 1 6 11
36 4 1 6 12
1 1 24 26 31
2 1 25 29 31
3 1 26 31 29
4 1 33 37 41
5 1 34 39 41
6 1 37 41 39
7 5 23 24 26
8 5 23 25 29
9 5 28 33 37
10 5 28 34 39
11 6 24 26 32
12 6 25 29 35
13 6 26 24 27
14 6 26 31 36
15 6 29 25 30
16 6 29 31 36
17 6 31 26 32
18 6 31 29 35
19 6 33 37 42
20 6 34 39 43
21 6 37 33 38
22 6 37 41 44
23 6 39 34 40
24 6 39 41 44
25 6 41 37 42
26 6 41 39 43
27 2 23 24 27
28 2 23 25 30
29 2 28 33 38
30 2 28 34 40
31 3 24 23 25
32 3 33 28 34
33 4 24 23 28
34 4 25 23 28
35 4 23 28 33
36 4 23 28 34

Dihedrals

1 1 1 2 4 9
2 1 1 3 7 9
3 1 6 11 15 19
4 1 6 12 17 19
5 1 1 2 4 10
6 1 1 3 7 13
7 1 6 11 15 20
8 1 6 12 17 21
9 1 2 4 9 7
10 1 3 7 9 4
11 1 11 15 19 17
12 1 12 17 19 15
13 1 2 4 9 14
14 1 3 7 9 14
15 1 4 9 7 13
16 1 7 9 4 10
17 1 5 2 4 9
18 1 8 3 7 9
19 1 11 15 19 22
20 1 12 17 19 22
21 1 15 19 17 21
22 1 17 19 15 20
23 1 16 11 15 19
24 1 18 12 17 19
25 1 5 2 4 10
26 1 8 3 7 13
27 1 10 4 9 14
28 1 13 7 9 14
29 1 16 11 15 20
30 1 18 12 17 21
31 1 20 15 19 22
32 1 21 17 19 22
33 2 3 1 2 4
34 2 2 1 3 7
35 2 12 6 11 15
36 2 11 6 12 17
37 2 4 2 1 6
38 2 6 1 3 7
39 2 1 6 11 15
40 2 1 6 12 17
41 2 3 1 2 5
42 2 2 1 3 8
43 2 12 6 11 16
44 2 11 6 12 18
45 2 5 2 1 6
46 2 6 1 3 8
47 2 1 6 11 16
48 2 1 6 12 18
49 3 2 1 6 11
50 3 2 1 6 12
51 3 3 1 6 11
52 3 3 1 6 12
1 1 23 24 26 31
2 1 23 25 29 31
3 1 28 33 37 41
4 1 28 34 39 41
5 1 23 24 26 32
6 1 23 25 29 35
7 1 28 33 37 42
8 1 28 34 39 43
9 1 24 26 31 29
10 1 25 29 31 26
11 1 33 37 41 39
12 1 34 39 41 37
13 1 24 26 31 36
14 1 25 29 31 36
15 1 26 31 29 35
16 1 29 31 26 32
17 1 27 24 26 31
18 1 30 25 29 31
19 1 33 37 41 44
20 1 34 39 41 44
21 1 37 41 39 43
22 1 39 41 37 42
23 1 38 33 37 41
24 1 40 34 39 41
25 1 27 24 26 32
26 1 30 25 29 35
27 1 32 26 31 36
28 1 35 29 31 36
29 1 38 33 37 42
30 1 40 34 39 43
31 1 42 37 41 44
32 1 43 39 41 44
33 2 25 23 24 26
34 2 24 23 25 29
35 2 34 28 33 37
36 2 33 28 34 39
37 2 26 24 23 28
38 2 28 23 25 29
39 2 23 28 33 37
40 2 23 28 34 39
41 2 25 23 24 27
42 2 24 23 25 30
43 2 34 28 33 38
44 2 33 28 34 40
45 2 27 24 23 28
46 2 28 23 25 30
47 2 23 28 33 38
48 2 23 28 34 40
49 3 24 23 28 33
50 3 24 23 28 34
51 3 25 23 28 33
52 3 25 23 28 34

Impropers

1 1 1 4 2 5
2 1 1 7 3 8
3 1 6 15 11 16
4 1 6 17 12 18
5 1 2 9 4 10
6 1 3 9 7 13
7 1 4 7 9 14
8 1 11 19 15 20
9 1 12 19 17 21
10 1 15 17 19 22
1 1 23 26 24 27
2 1 23 29 25 30
3 1 28 37 33 38
4 1 28 39 34 40
5 1 24 31 26 32
6 1 25 31 29 35
7 1 26 29 31 36
8 1 33 41 37 42
9 1 34 41 39 43
10 1 37 39 41 44

