LAMMPS Description

19 atoms
19 bonds
30 angles
38 dihedrals
7 impropers

13 atom types
8 bond types
11 angle types
6 dihedral types
3 improper types

-50.00000  50.00000 xlo xhi
-50.00000  50.00000 ylo yhi
-50.00000  50.00000 zlo zhi

Masses

1  12.01000 # CA0
2  12.01000 # CA1
3  12.01000 # CA2
4  12.01000 # CA3
5   1.00800 # HA0
6   1.00800 # HA1
7   1.00800 # HA2
8  14.01000 # N
9   1.00800 # HN
10  12.01000 # C
11  16.00000 # O
12  12.01000 # C3
13   1.00800 # HC

Atoms

1 1 1   0.49781  -0.25622  -0.30311  -0.06913
2 1 2  -0.35097  -0.74335   0.99566  -0.03640
3 1 2  -0.35097  -1.20178  -1.31346  -0.01721
4 1 3  -0.04394  -2.10654   1.27136  -0.00655
5 1 5   0.18300  -0.04829   1.82194  -0.08116
6 1 8  -0.80501   1.11781  -0.62897  -0.07221
7 1 3  -0.04394  -2.56695  -1.04695   0.00818
8 1 5   0.18300  -0.87608  -2.34305  -0.05178
9 1 4  -0.19027  -3.04084   0.25212   0.03336
10 1 6   0.09003  -2.44068   2.30083   0.01426
11 1 10   0.85734   2.16728   0.22429   0.19521
12 1 9   0.42484   1.15583  -1.55001   0.31612
13 1 6   0.09003  -3.26951  -1.86996   0.03645
14 1 7   0.10172  -4.10232   0.46249   0.04570
15 1 12  -0.47247   3.48058  -0.53687   0.04380
16 1 11  -0.67570   2.17327   1.32170  -0.29289
17 1 13   0.16851   3.89514  -0.73253   1.03503
18 1 13   0.16851   4.11684  -0.02120  -0.68068
19 1 13   0.16851   3.27762  -1.52855  -0.37298

Bonds

1 8 1 2
2 8 1 3
3 6 1 6
4 8 2 4
5 4 2 5
6 8 3 7
7 4 3 8
8 8 4 9
9 4 4 10
10 3 6 11
11 2 6 12
12 8 7 9
13 4 7 13
14 4 9 14
15 5 11 15
16 7 11 16
17 1 15 17
18 1 15 18
19 1 15 19

Angles

1 5 11 15 17
2 5 11 15 18
3 5 11 15 19
4 4 17 15 18
5 4 17 15 19
6 4 18 15 19
7 2 1 2 4
8 2 1 3 7
9 2 2 1 3
10 2 2 4 9
11 2 3 7 9
12 2 4 9 7
13 7 1 2 5
14 7 1 3 8
15 7 2 4 10
16 7 3 7 13
17 7 4 2 5
18 7 4 9 14
19 7 7 3 8
20 7 7 9 14
21 7 9 4 10
22 7 9 7 13
23 8 2 1 6
24 8 3 1 6
25 9 6 11 15
26 10 15 11 16
27 3 6 11 16
28 11 1 6 12
29 6 1 6 11
30 1 11 6 12

Dihedrals

1 4 6 11 15 17
2 4 6 11 15 18
3 4 6 11 15 19
4 5 1 6 11 15
5 5 12 6 11 15
6 5 1 6 11 16
7 2 1 2 4 9
8 2 1 3 7 9
9 2 2 1 3 7
10 2 2 4 9 7
11 2 3 1 2 4
12 2 3 7 9 4
13 2 1 2 4 10
14 2 1 3 7 13
15 2 2 1 3 8
16 2 2 4 9 14
17 2 3 1 2 5
18 2 3 7 9 14
19 2 4 9 7 13
20 2 7 9 4 10
21 2 5 2 4 9
22 2 8 3 7 9
23 2 4 2 1 6
24 2 6 1 3 7
25 2 5 2 1 6
26 2 6 1 3 8
27 2 5 2 4 10
28 2 8 3 7 13
29 2 10 4 9 14
30 2 13 7 9 14
31 3 2 1 6 11
32 3 3 1 6 11
33 3 2 1 6 12
34 3 3 1 6 12
35 6 12 6 11 16
36 1 16 11 15 17
37 1 16 11 15 18
38 1 16 11 15 19

Impropers

1 1 6 15 11 16
2 2 1 4 2 5
3 2 1 7 3 8
4 2 2 9 4 10
5 2 3 9 7 13
6 2 4 7 9 14
7 3 1 11 6 12

