LAMMPS Description

152 atoms
152 bonds
240 angles
304 dihedrals
56 impropers

13 atom types
8 bond types
11 angle types
6 dihedral types
3 improper types

-50.00000  50.00000 xlo xhi
-50.00000  50.00000 ylo yhi
-50.00000  50.00000 zlo zhi

Masses

1  12.01000 # CA0
2  12.01000 # CA1
3  12.01000 # CA2
4  12.01000 # CA3
5   1.00800 # HA0
6   1.00800 # HA1
7   1.00800 # HA2
8  14.01000 # N
9   1.00800 # HN
10  12.01000 # C
11  16.00000 # O
12  12.01000 # C3
13   1.00800 # HC

Atoms

1 1 1   0.49781  11.37752   5.38955   2.73426
2 1 2  -0.35097  11.67910   6.49785   3.51172
3 1 2  -0.35097  12.42980   4.53663   2.44945
4 1 3  -0.04394  12.96134   6.72987   3.99373
5 1 5   0.18300  10.89002   7.17903   3.79076
6 1 8  -0.80501  10.09959   5.14180   2.19413
7 1 3  -0.04394  13.71162   4.75873   2.93884
8 1 5   0.18300  12.24988   3.65136   1.85839
9 1 4  -0.19027  14.00431   5.87385   3.69897
10 1 6   0.09003  13.15589   7.61860   4.57761
11 1 10   0.85734   9.11737   6.07460   1.95023
12 1 9   0.42484  10.24927   4.42173   1.51132
13 1 6   0.09003  14.50515   4.07312   2.67508
14 1 7   0.10172  15.00314   6.05594   4.07221
15 1 12  -0.47247   7.88052   5.36967   1.40808
16 1 11  -0.67570   8.88982   6.91562   2.78007
17 1 13   0.16851   7.79564   5.57140   0.33796
18 1 13   0.16851   7.01902   5.60471   2.03877
19 1 13   0.16851   8.02417   4.28611   1.47605
20 2 1   0.49781  11.36878   8.64899   6.74655
21 2 2  -0.35097  11.67585   7.53034   7.50703
22 2 2  -0.35097  12.41702   9.51101   6.47477
23 2 3  -0.04394  12.95920   7.29739   7.98589
24 2 5   0.18300  10.89055   6.84004   7.77404
25 2 8  -0.80501  10.08945   8.89986   6.21086
26 2 3  -0.04394  13.70020   9.28725   6.95950
27 2 5   0.18300  12.23289  10.40455   5.89796
28 2 4  -0.19027  13.99836   8.16197   7.70234
29 2 6   0.09003  13.15805   6.40101   8.55669
30 2 10   0.85734   9.10855   7.96785   5.95867
31 2 9   0.42484  10.23659   9.62786   5.53601
32 2 6   0.09003  14.49028   9.98027   6.70508
33 2 7   0.10172  14.99874   7.97796   8.07036
34 2 12  -0.47247   7.86908   8.67544   5.42637
35 2 11  -0.67570   8.88407   7.11767   6.77996
36 2 13   0.16851   7.78268   8.48488   4.35433
37 2 13   0.16851   7.00940   8.43131   6.05613
38 2 13   0.16851   8.01012   9.75858   5.50567
39 3 1   0.49781   8.13182  10.01291   1.04783
40 3 2  -0.35097   7.82337  11.13412   0.29161
41 3 2  -0.35097   7.08417   9.14964   1.31783
42 3 3  -0.04394   6.53989  11.36740  -0.18637
43 3 5   0.18300   8.60795  11.82551   0.02557
44 3 8  -0.80501   9.41085   9.76331   1.58495
45 3 3  -0.04394   5.80049   9.37496   0.83533
46 3 5   0.18300   7.26949   8.25278   1.88914
47 3 4  -0.19027   5.50093  10.50293   0.09738
48 3 6   0.09003   6.33978  12.26603  -0.75318
49 3 10   0.85734  10.39131  10.69641   1.83551
50 3 9   0.42484   9.26342   9.03680   2.26132
51 3 6   0.09003   5.01047   8.68203   1.08985
52 3 7   0.10172   4.50019  10.68790  -0.26914
53 3 12  -0.47247  11.63130   9.99127   2.36991
54 3 11  -0.67570  10.61582  11.54477   1.01234
55 3 13   0.16851  11.71710  10.18471   3.44145
56 3 13   0.16851  12.49076  10.23473   1.73957
57 3 13   0.16851  11.49109   8.90785   2.29312
58 4 1   0.49781   8.12400   4.04300   5.02263
59 4 2  -0.35097   7.82327   2.93305   4.24719
60 4 2  -0.35097   7.07100   4.89541   5.30620
61 4 3  -0.04394   6.54178   2.70037   3.76378
62 4 5   0.18300   8.61242   2.25099   3.97070
63 4 8  -0.80501   9.40180   4.29271   5.56198
64 4 3  -0.04394   5.78951   4.67135   4.81709
65 4 5   0.18300   7.24992   5.78199   5.89558
66 4 4  -0.19027   5.49780   3.55493   4.05871
67 4 6   0.09003   6.34764   1.81025   3.18182
68 4 10   0.85734  10.38429   3.36081   5.80826
69 4 9   0.42484   9.25188   5.01475   6.24270
70 4 6   0.09003   4.99505   5.35564   5.08128
71 4 7   0.10172   4.49920   3.37147   3.68561
72 4 12  -0.47247  11.62140   4.06708   6.34824
73 4 11  -0.67570  10.61170   2.51770   4.98052
74 4 13   0.16851  11.70658   3.86827   7.41887
75 4 13   0.16851  12.48258   3.83012   5.71786
76 4 13   0.16851  11.47759   5.15043   6.27728
77 5 1   0.49781  17.88474  10.00455   2.75580
78 5 2  -0.35097  17.58350  11.11578   3.52917
79 5 2  -0.35097  16.83214   9.15095   2.47405
80 5 3  -0.04394  16.30155  11.34963   4.01102
81 5 5   0.18300  18.37262  11.79831   3.80477
82 5 8  -0.80501  19.16263   9.75466   2.21653
83 5 3  -0.04394  15.55038   9.37512   2.96268
84 5 5   0.18300  17.01168   8.26347   1.88626
85 5 4  -0.19027  15.25816  10.49317   3.71873
86 5 6   0.09003  16.10734  12.24084   4.59140
87 5 10   0.85734  20.14507  10.68642   1.96952
88 5 9   0.42484  19.01272   9.03226   1.53619
89 5 6   0.09003  14.75661   8.68879   2.70139
90 5 7   0.10172  14.25927  10.67729   4.09075
91 5 12  -0.47247  21.38180   9.97968   1.42945
92 5 11  -0.67570  20.37279  11.52996   2.79676
93 5 13   0.16851  21.46666  10.17795   0.35869
94 5 13   0.16851  22.24335  10.21678   2.05931
95 5 13   0.16851  21.23811   8.89634   1.50087
96 6 1   0.49781  21.12911   5.39810   1.02941
97 6 2  -0.35097  21.43462   6.51556   0.26652
98 6 2  -0.35097  22.17842   4.53792   1.30266
99 6 3  -0.04394  22.71715   6.74821  -0.21439
100 6 5   0.18300  20.64861   7.20457  -0.00156
101 6 8  -0.80501  19.85052   5.14739   1.56671
102 6 3  -0.04394  23.46102   4.76246   0.81701
103 6 5   0.18300  21.99564   3.64504   1.88098
104 6 4  -0.19027  23.75766   5.88637   0.07177
105 6 6   0.09003  22.91510   7.64365  -0.78685
106 6 10   0.85734  18.87028   6.07974   1.82019
107 6 9   0.42484  19.99839   4.41928   2.24128
108 6 6   0.09003  24.25241   4.07211   1.07423
109 6 7   0.10172  24.75751   6.07052  -0.29758
110 6 12  -0.47247  17.63091   5.37283   2.35375
111 6 11  -0.67570  18.64524   6.93009   0.99926
112 6 13   0.16851  17.54582   5.56331   3.42589
113 6 13   0.16851  16.77081   5.61763   1.72487
114 6 13   0.16851  17.77150   4.28968   2.27401
115 7 1   0.49781  17.89327   4.03491   6.73089
116 7 2  -0.35097  17.58458   2.91272   7.48549
117 7 2  -0.35097  16.84627   4.90002   6.46403
118 7 3  -0.04394  16.30090   2.67884   7.96289
119 7 5   0.18300  18.36901   2.22034   7.74961
120 7 8  -0.80501  19.17228   4.28506   6.19392
121 7 3  -0.04394  15.56270   4.67521   6.94723
122 7 5   0.18300  17.03199   5.79745   5.89383
123 7 4  -0.19027  15.26281   3.54597   7.68334
124 7 6   0.09003  16.10094   1.77967   8.52894
125 7 10   0.85734  20.15283   3.35248   5.94194
126 7 9   0.42484  19.02477   5.01242   5.51848
127 7 6   0.09003  14.77367   5.37089   6.69695
128 7 7   0.10172  14.26212   3.36115   8.05012
129 7 12  -0.47247  21.39215   4.05908   5.40806
130 7 11  -0.67570  20.37783   2.50308   6.76391
131 7 13   0.16851  21.47773   3.86721   4.33622
132 7 13   0.16851  22.25208   3.81538   6.03769
133 7 13   0.16851  21.25158   5.14237   5.48625
134 8 1   0.49781  21.13742   8.65714   5.04236
135 8 2  -0.35097  21.43785   7.54958   4.26335
136 8 2  -0.35097  22.19066   9.50825   5.32878
137 8 3  -0.04394  22.71939   7.31795   3.77951
138 8 5   0.18300  20.64828   6.86940   3.98345
139 8 8  -0.80501  19.86026   8.90441   5.58438
140 8 3  -0.04394  23.47211   9.28535   4.83898
141 8 5   0.18300  22.01168  10.39335   5.92041
142 8 4  -0.19027  23.76360   8.17122   4.07717
143 8 6   0.09003  22.91338   6.42973   3.19475
144 8 10   0.85734  18.87841   7.97122   5.82831
145 8 9   0.42484  20.01085   9.62365   6.26786
146 8 6   0.09003  24.26691   9.96815   5.10592
147 8 7   0.10172  24.76208   7.98874   3.70326
148 8 12  -0.47247  17.64184   8.67501   6.37269
149 8 11  -0.67570  18.65014   7.13120   4.99768
150 8 13   0.16851  17.55827   8.47187   7.44264
151 8 13   0.16851  16.77982   8.44039   5.74258
152 8 13   0.16851  17.78528   9.75865   6.30581

Bonds

1 8 1 2
2 8 1 3
3 6 1 6
4 8 2 4
5 4 2 5
6 8 3 7
7 4 3 8
8 8 4 9
9 4 4 10
10 3 6 11
11 2 6 12
12 8 7 9
13 4 7 13
14 4 9 14
15 5 11 15
16 7 11 16
17 1 15 17
18 1 15 18
19 1 15 19
1 8 20 21
2 8 20 22
3 6 20 25
4 8 21 23
5 4 21 24
6 8 22 26
7 4 22 27
8 8 23 28
9 4 23 29
10 3 25 30
11 2 25 31
12 8 26 28
13 4 26 32
14 4 28 33
15 5 30 34
16 7 30 35
17 1 34 36
18 1 34 37
19 1 34 38
1 8 39 40
2 8 39 41
3 6 39 44
4 8 40 42
5 4 40 43
6 8 41 45
7 4 41 46
8 8 42 47
9 4 42 48
10 3 44 49
11 2 44 50
12 8 45 47
13 4 45 51
14 4 47 52
15 5 49 53
16 7 49 54
17 1 53 55
18 1 53 56
19 1 53 57
1 8 58 59
2 8 58 60
3 6 58 63
4 8 59 61
5 4 59 62
6 8 60 64
7 4 60 65
8 8 61 66
9 4 61 67
10 3 63 68
11 2 63 69
12 8 64 66
13 4 64 70
14 4 66 71
15 5 68 72
16 7 68 73
17 1 72 74
18 1 72 75
19 1 72 76
1 8 77 78
2 8 77 79
3 6 77 82
4 8 78 80
5 4 78 81
6 8 79 83
7 4 79 84
8 8 80 85
9 4 80 86
10 3 82 87
11 2 82 88
12 8 83 85
13 4 83 89
14 4 85 90
15 5 87 91
16 7 87 92
17 1 91 93
18 1 91 94
19 1 91 95
1 8 96 97
2 8 96 98
3 6 96 101
4 8 97 99
5 4 97 100
6 8 98 102
7 4 98 103
8 8 99 104
9 4 99 105
10 3 101 106
11 2 101 107
12 8 102 104
13 4 102 108
14 4 104 109
15 5 106 110
16 7 106 111
17 1 110 112
18 1 110 113
19 1 110 114
1 8 115 116
2 8 115 117
3 6 115 120
4 8 116 118
5 4 116 119
6 8 117 121
7 4 117 122
8 8 118 123
9 4 118 124
10 3 120 125
11 2 120 126
12 8 121 123
13 4 121 127
14 4 123 128
15 5 125 129
16 7 125 130
17 1 129 131
18 1 129 132
19 1 129 133
1 8 134 135
2 8 134 136
3 6 134 139
4 8 135 137
5 4 135 138
6 8 136 140
7 4 136 141
8 8 137 142
9 4 137 143
10 3 139 144
11 2 139 145
12 8 140 142
13 4 140 146
14 4 142 147
15 5 144 148
16 7 144 149
17 1 148 150
18 1 148 151
19 1 148 152

Angles

1 5 11 15 17
2 5 11 15 18
3 5 11 15 19
4 4 17 15 18
5 4 17 15 19
6 4 18 15 19
7 2 1 2 4
8 2 1 3 7
9 2 2 1 3
10 2 2 4 9
11 2 3 7 9
12 2 4 9 7
13 7 1 2 5
14 7 1 3 8
15 7 2 4 10
16 7 3 7 13
17 7 4 2 5
18 7 4 9 14
19 7 7 3 8
20 7 7 9 14
21 7 9 4 10
22 7 9 7 13
23 8 2 1 6
24 8 3 1 6
25 9 6 11 15
26 10 15 11 16
27 3 6 11 16
28 11 1 6 12
29 6 1 6 11
30 1 11 6 12
1 5 30 34 36
2 5 30 34 37
3 5 30 34 38
4 4 36 34 37
5 4 36 34 38
6 4 37 34 38
7 2 20 21 23
8 2 20 22 26
9 2 21 20 22
10 2 21 23 28
11 2 22 26 28
12 2 23 28 26
13 7 20 21 24
14 7 20 22 27
15 7 21 23 29
16 7 22 26 32
17 7 23 21 24
18 7 23 28 33
19 7 26 22 27
20 7 26 28 33
21 7 28 23 29
22 7 28 26 32
23 8 21 20 25
24 8 22 20 25
25 9 25 30 34
26 10 34 30 35
27 3 25 30 35
28 11 20 25 31
29 6 20 25 30
30 1 30 25 31
1 5 49 53 55
2 5 49 53 56
3 5 49 53 57
4 4 55 53 56
5 4 55 53 57
6 4 56 53 57
7 2 39 40 42
8 2 39 41 45
9 2 40 39 41
10 2 40 42 47
11 2 41 45 47
12 2 42 47 45
13 7 39 40 43
14 7 39 41 46
15 7 40 42 48
16 7 41 45 51
17 7 42 40 43
18 7 42 47 52
19 7 45 41 46
20 7 45 47 52
21 7 47 42 48
22 7 47 45 51
23 8 40 39 44
24 8 41 39 44
25 9 44 49 53
26 10 53 49 54
27 3 44 49 54
28 11 39 44 50
29 6 39 44 49
30 1 49 44 50
1 5 68 72 74
2 5 68 72 75
3 5 68 72 76
4 4 74 72 75
5 4 74 72 76
6 4 75 72 76
7 2 58 59 61
8 2 58 60 64
9 2 59 58 60
10 2 59 61 66
11 2 60 64 66
12 2 61 66 64
13 7 58 59 62
14 7 58 60 65
15 7 59 61 67
16 7 60 64 70
17 7 61 59 62
18 7 61 66 71
19 7 64 60 65
20 7 64 66 71
21 7 66 61 67
22 7 66 64 70
23 8 59 58 63
24 8 60 58 63
25 9 63 68 72
26 10 72 68 73
27 3 63 68 73
28 11 58 63 69
29 6 58 63 68
30 1 68 63 69
1 5 87 91 93
2 5 87 91 94
3 5 87 91 95
4 4 93 91 94
5 4 93 91 95
6 4 94 91 95
7 2 77 78 80
8 2 77 79 83
9 2 78 77 79
10 2 78 80 85
11 2 79 83 85
12 2 80 85 83
13 7 77 78 81
14 7 77 79 84
15 7 78 80 86
16 7 79 83 89
17 7 80 78 81
18 7 80 85 90
19 7 83 79 84
20 7 83 85 90
21 7 85 80 86
22 7 85 83 89
23 8 78 77 82
24 8 79 77 82
25 9 82 87 91
26 10 91 87 92
27 3 82 87 92
28 11 77 82 88
29 6 77 82 87
30 1 87 82 88
1 5 106 110 112
2 5 106 110 113
3 5 106 110 114
4 4 112 110 113
5 4 112 110 114
6 4 113 110 114
7 2 96 97 99
8 2 96 98 102
9 2 97 96 98
10 2 97 99 104
11 2 98 102 104
12 2 99 104 102
13 7 96 97 100
14 7 96 98 103
15 7 97 99 105
16 7 98 102 108
17 7 99 97 100
18 7 99 104 109
19 7 102 98 103
20 7 102 104 109
21 7 104 99 105
22 7 104 102 108
23 8 97 96 101
24 8 98 96 101
25 9 101 106 110
26 10 110 106 111
27 3 101 106 111
28 11 96 101 107
29 6 96 101 106
30 1 106 101 107
1 5 125 129 131
2 5 125 129 132
3 5 125 129 133
4 4 131 129 132
5 4 131 129 133
6 4 132 129 133
7 2 115 116 118
8 2 115 117 121
9 2 116 115 117
10 2 116 118 123
11 2 117 121 123
12 2 118 123 121
13 7 115 116 119
14 7 115 117 122
15 7 116 118 124
16 7 117 121 127
17 7 118 116 119
18 7 118 123 128
19 7 121 117 122
20 7 121 123 128
21 7 123 118 124
22 7 123 121 127
23 8 116 115 120
24 8 117 115 120
25 9 120 125 129
26 10 129 125 130
27 3 120 125 130
28 11 115 120 126
29 6 115 120 125
30 1 125 120 126
1 5 144 148 150
2 5 144 148 151
3 5 144 148 152
4 4 150 148 151
5 4 150 148 152
6 4 151 148 152
7 2 134 135 137
8 2 134 136 140
9 2 135 134 136
10 2 135 137 142
11 2 136 140 142
12 2 137 142 140
13 7 134 135 138
14 7 134 136 141
15 7 135 137 143
16 7 136 140 146
17 7 137 135 138
18 7 137 142 147
19 7 140 136 141
20 7 140 142 147
21 7 142 137 143
22 7 142 140 146
23 8 135 134 139
24 8 136 134 139
25 9 139 144 148
26 10 148 144 149
27 3 139 144 149
28 11 134 139 145
29 6 134 139 144
30 1 144 139 145

Dihedrals

1 4 6 11 15 17
2 4 6 11 15 18
3 4 6 11 15 19
4 5 1 6 11 15
5 5 12 6 11 15
6 5 1 6 11 16
7 2 1 2 4 9
8 2 1 3 7 9
9 2 2 1 3 7
10 2 2 4 9 7
11 2 3 1 2 4
12 2 3 7 9 4
13 2 1 2 4 10
14 2 1 3 7 13
15 2 2 1 3 8
16 2 2 4 9 14
17 2 3 1 2 5
18 2 3 7 9 14
19 2 4 9 7 13
20 2 7 9 4 10
21 2 5 2 4 9
22 2 8 3 7 9
23 2 4 2 1 6
24 2 6 1 3 7
25 2 5 2 1 6
26 2 6 1 3 8
27 2 5 2 4 10
28 2 8 3 7 13
29 2 10 4 9 14
30 2 13 7 9 14
31 3 2 1 6 11
32 3 3 1 6 11
33 3 2 1 6 12
34 3 3 1 6 12
35 6 12 6 11 16
36 1 16 11 15 17
37 1 16 11 15 18
38 1 16 11 15 19
1 4 25 30 34 36
2 4 25 30 34 37
3 4 25 30 34 38
4 5 20 25 30 34
5 5 31 25 30 34
6 5 20 25 30 35
7 2 20 21 23 28
8 2 20 22 26 28
9 2 21 20 22 26
10 2 21 23 28 26
11 2 22 20 21 23
12 2 22 26 28 23
13 2 20 21 23 29
14 2 20 22 26 32
15 2 21 20 22 27
16 2 21 23 28 33
17 2 22 20 21 24
18 2 22 26 28 33
19 2 23 28 26 32
20 2 26 28 23 29
21 2 24 21 23 28
22 2 27 22 26 28
23 2 23 21 20 25
24 2 25 20 22 26
25 2 24 21 20 25
26 2 25 20 22 27
27 2 24 21 23 29
28 2 27 22 26 32
29 2 29 23 28 33
30 2 32 26 28 33
31 3 21 20 25 30
32 3 22 20 25 30
33 3 21 20 25 31
34 3 22 20 25 31
35 6 31 25 30 35
36 1 35 30 34 36
37 1 35 30 34 37
38 1 35 30 34 38
1 4 44 49 53 55
2 4 44 49 53 56
3 4 44 49 53 57
4 5 39 44 49 53
5 5 50 44 49 53
6 5 39 44 49 54
7 2 39 40 42 47
8 2 39 41 45 47
9 2 40 39 41 45
10 2 40 42 47 45
11 2 41 39 40 42
12 2 41 45 47 42
13 2 39 40 42 48
14 2 39 41 45 51
15 2 40 39 41 46
16 2 40 42 47 52
17 2 41 39 40 43
18 2 41 45 47 52
19 2 42 47 45 51
20 2 45 47 42 48
21 2 43 40 42 47
22 2 46 41 45 47
23 2 42 40 39 44
24 2 44 39 41 45
25 2 43 40 39 44
26 2 44 39 41 46
27 2 43 40 42 48
28 2 46 41 45 51
29 2 48 42 47 52
30 2 51 45 47 52
31 3 40 39 44 49
32 3 41 39 44 49
33 3 40 39 44 50
34 3 41 39 44 50
35 6 50 44 49 54
36 1 54 49 53 55
37 1 54 49 53 56
38 1 54 49 53 57
1 4 63 68 72 74
2 4 63 68 72 75
3 4 63 68 72 76
4 5 58 63 68 72
5 5 69 63 68 72
6 5 58 63 68 73
7 2 58 59 61 66
8 2 58 60 64 66
9 2 59 58 60 64
10 2 59 61 66 64
11 2 60 58 59 61
12 2 60 64 66 61
13 2 58 59 61 67
14 2 58 60 64 70
15 2 59 58 60 65
16 2 59 61 66 71
17 2 60 58 59 62
18 2 60 64 66 71
19 2 61 66 64 70
20 2 64 66 61 67
21 2 62 59 61 66
22 2 65 60 64 66
23 2 61 59 58 63
24 2 63 58 60 64
25 2 62 59 58 63
26 2 63 58 60 65
27 2 62 59 61 67
28 2 65 60 64 70
29 2 67 61 66 71
30 2 70 64 66 71
31 3 59 58 63 68
32 3 60 58 63 68
33 3 59 58 63 69
34 3 60 58 63 69
35 6 69 63 68 73
36 1 73 68 72 74
37 1 73 68 72 75
38 1 73 68 72 76
1 4 82 87 91 93
2 4 82 87 91 94
3 4 82 87 91 95
4 5 77 82 87 91
5 5 88 82 87 91
6 5 77 82 87 92
7 2 77 78 80 85
8 2 77 79 83 85
9 2 78 77 79 83
10 2 78 80 85 83
11 2 79 77 78 80
12 2 79 83 85 80
13 2 77 78 80 86
14 2 77 79 83 89
15 2 78 77 79 84
16 2 78 80 85 90
17 2 79 77 78 81
18 2 79 83 85 90
19 2 80 85 83 89
20 2 83 85 80 86
21 2 81 78 80 85
22 2 84 79 83 85
23 2 80 78 77 82
24 2 82 77 79 83
25 2 81 78 77 82
26 2 82 77 79 84
27 2 81 78 80 86
28 2 84 79 83 89
29 2 86 80 85 90
30 2 89 83 85 90
31 3 78 77 82 87
32 3 79 77 82 87
33 3 78 77 82 88
34 3 79 77 82 88
35 6 88 82 87 92
36 1 92 87 91 93
37 1 92 87 91 94
38 1 92 87 91 95
1 4 101 106 110 112
2 4 101 106 110 113
3 4 101 106 110 114
4 5 96 101 106 110
5 5 107 101 106 110
6 5 96 101 106 111
7 2 96 97 99 104
8 2 96 98 102 104
9 2 97 96 98 102
10 2 97 99 104 102
11 2 98 96 97 99
12 2 98 102 104 99
13 2 96 97 99 105
14 2 96 98 102 108
15 2 97 96 98 103
16 2 97 99 104 109
17 2 98 96 97 100
18 2 98 102 104 109
19 2 99 104 102 108
20 2 102 104 99 105
21 2 100 97 99 104
22 2 103 98 102 104
23 2 99 97 96 101
24 2 101 96 98 102
25 2 100 97 96 101
26 2 101 96 98 103
27 2 100 97 99 105
28 2 103 98 102 108
29 2 105 99 104 109
30 2 108 102 104 109
31 3 97 96 101 106
32 3 98 96 101 106
33 3 97 96 101 107
34 3 98 96 101 107
35 6 107 101 106 111
36 1 111 106 110 112
37 1 111 106 110 113
38 1 111 106 110 114
1 4 120 125 129 131
2 4 120 125 129 132
3 4 120 125 129 133
4 5 115 120 125 129
5 5 126 120 125 129
6 5 115 120 125 130
7 2 115 116 118 123
8 2 115 117 121 123
9 2 116 115 117 121
10 2 116 118 123 121
11 2 117 115 116 118
12 2 117 121 123 118
13 2 115 116 118 124
14 2 115 117 121 127
15 2 116 115 117 122
16 2 116 118 123 128
17 2 117 115 116 119
18 2 117 121 123 128
19 2 118 123 121 127
20 2 121 123 118 124
21 2 119 116 118 123
22 2 122 117 121 123
23 2 118 116 115 120
24 2 120 115 117 121
25 2 119 116 115 120
26 2 120 115 117 122
27 2 119 116 118 124
28 2 122 117 121 127
29 2 124 118 123 128
30 2 127 121 123 128
31 3 116 115 120 125
32 3 117 115 120 125
33 3 116 115 120 126
34 3 117 115 120 126
35 6 126 120 125 130
36 1 130 125 129 131
37 1 130 125 129 132
38 1 130 125 129 133
1 4 139 144 148 150
2 4 139 144 148 151
3 4 139 144 148 152
4 5 134 139 144 148
5 5 145 139 144 148
6 5 134 139 144 149
7 2 134 135 137 142
8 2 134 136 140 142
9 2 135 134 136 140
10 2 135 137 142 140
11 2 136 134 135 137
12 2 136 140 142 137
13 2 134 135 137 143
14 2 134 136 140 146
15 2 135 134 136 141
16 2 135 137 142 147
17 2 136 134 135 138
18 2 136 140 142 147
19 2 137 142 140 146
20 2 140 142 137 143
21 2 138 135 137 142
22 2 141 136 140 142
23 2 137 135 134 139
24 2 139 134 136 140
25 2 138 135 134 139
26 2 139 134 136 141
27 2 138 135 137 143
28 2 141 136 140 146
29 2 143 137 142 147
30 2 146 140 142 147
31 3 135 134 139 144
32 3 136 134 139 144
33 3 135 134 139 145
34 3 136 134 139 145
35 6 145 139 144 149
36 1 149 144 148 150
37 1 149 144 148 151
38 1 149 144 148 152

Impropers

1 1 6 15 11 16
2 2 1 4 2 5
3 2 1 7 3 8
4 2 2 9 4 10
5 2 3 9 7 13
6 2 4 7 9 14
7 3 1 11 6 12
1 1 25 34 30 35
2 2 20 23 21 24
3 2 20 26 22 27
4 2 21 28 23 29
5 2 22 28 26 32
6 2 23 26 28 33
7 3 20 30 25 31
1 1 44 53 49 54
2 2 39 42 40 43
3 2 39 45 41 46
4 2 40 47 42 48
5 2 41 47 45 51
6 2 42 45 47 52
7 3 39 49 44 50
1 1 63 72 68 73
2 2 58 61 59 62
3 2 58 64 60 65
4 2 59 66 61 67
5 2 60 66 64 70
6 2 61 64 66 71
7 3 58 68 63 69
1 1 82 91 87 92
2 2 77 80 78 81
3 2 77 83 79 84
4 2 78 85 80 86
5 2 79 85 83 89
6 2 80 83 85 90
7 3 77 87 82 88
1 1 101 110 106 111
2 2 96 99 97 100
3 2 96 102 98 103
4 2 97 104 99 105
5 2 98 104 102 108
6 2 99 102 104 109
7 3 96 106 101 107
1 1 120 129 125 130
2 2 115 118 116 119
3 2 115 121 117 122
4 2 116 123 118 124
5 2 117 123 121 127
6 2 118 121 123 128
7 3 115 125 120 126
1 1 139 148 144 149
2 2 134 137 135 138
3 2 134 140 136 141
4 2 135 142 137 143
5 2 136 142 140 146
6 2 137 140 142 147
7 3 134 144 139 145

