 Entering Gaussian System, Link 0=g16
 Input=_conf008.gjf
 Output=_conf008.log
 Initial command:
 /opt/ap/G16/B01/g16/l1.exe "/tmp2/scr/Gau-17095.inp" -scrdir="/tmp2/scr/"
 Entering Link 1 = /opt/ap/G16/B01/g16/l1.exe PID=     17096.
  
 Copyright (c) 1988-2017, Gaussian, Inc.  All Rights Reserved.
  
 This is part of the Gaussian(R) 16 program.  It is based on
 the Gaussian(R) 09 system (copyright 2009, Gaussian, Inc.),
 the Gaussian(R) 03 system (copyright 2003, Gaussian, Inc.),
 the Gaussian(R) 98 system (copyright 1998, Gaussian, Inc.),
 the Gaussian(R) 94 system (copyright 1995, Gaussian, Inc.),
 the Gaussian 92(TM) system (copyright 1992, Gaussian, Inc.),
 the Gaussian 90(TM) system (copyright 1990, Gaussian, Inc.),
 the Gaussian 88(TM) system (copyright 1988, Gaussian, Inc.),
 the Gaussian 86(TM) system (copyright 1986, Carnegie Mellon
 University), and the Gaussian 82(TM) system (copyright 1983,
 Carnegie Mellon University). Gaussian is a federally registered
 trademark of Gaussian, Inc.
  
 This software contains proprietary and confidential information,
 including trade secrets, belonging to Gaussian, Inc.
  
 This software is provided under written license and may be
 used, copied, transmitted, or stored only in accord with that
 written license.
  
 The following legend is applicable only to US Government
 contracts under FAR:
  
                    RESTRICTED RIGHTS LEGEND
  
 Use, reproduction and disclosure by the US Government is
 subject to restrictions as set forth in subparagraphs (a)
 and (c) of the Commercial Computer Software - Restricted
 Rights clause in FAR 52.227-19.
  
 Gaussian, Inc.
 340 Quinnipiac St., Bldg. 40, Wallingford CT 06492
  
  
 ---------------------------------------------------------------
 Warning -- This program may not be used in any manner that
 competes with the business of Gaussian, Inc. or will provide
 assistance to any competitor of Gaussian, Inc.  The licensee
 of this program is prohibited from giving any competitor of
 Gaussian, Inc. access to this program.  By using this program,
 the user acknowledges that Gaussian, Inc. is engaged in the
 business of creating and licensing software in the field of
 computational chemistry and represents and warrants to the
 licensee that it is not a competitor of Gaussian, Inc. and that
 it will not use this program in any manner prohibited above.
 ---------------------------------------------------------------
  

 Cite this work as:
 Gaussian 16, Revision B.01,
 M. J. Frisch, G. W. Trucks, H. B. Schlegel, G. E. Scuseria, 
 M. A. Robb, J. R. Cheeseman, G. Scalmani, V. Barone, 
 G. A. Petersson, H. Nakatsuji, X. Li, M. Caricato, A. V. Marenich, 
 J. Bloino, B. G. Janesko, R. Gomperts, B. Mennucci, H. P. Hratchian, 
 J. V. Ortiz, A. F. Izmaylov, J. L. Sonnenberg, D. Williams-Young, 
 F. Ding, F. Lipparini, F. Egidi, J. Goings, B. Peng, A. Petrone, 
 T. Henderson, D. Ranasinghe, V. G. Zakrzewski, J. Gao, N. Rega, 
 G. Zheng, W. Liang, M. Hada, M. Ehara, K. Toyota, R. Fukuda, 
 J. Hasegawa, M. Ishida, T. Nakajima, Y. Honda, O. Kitao, H. Nakai, 
 T. Vreven, K. Throssell, J. A. Montgomery, Jr., J. E. Peralta, 
 F. Ogliaro, M. J. Bearpark, J. J. Heyd, E. N. Brothers, K. N. Kudin, 
 V. N. Staroverov, T. A. Keith, R. Kobayashi, J. Normand, 
 K. Raghavachari, A. P. Rendell, J. C. Burant, S. S. Iyengar, 
 J. Tomasi, M. Cossi, J. M. Millam, M. Klene, C. Adamo, R. Cammi, 
 J. W. Ochterski, R. L. Martin, K. Morokuma, O. Farkas, 
 J. B. Foresman, and D. J. Fox, Gaussian, Inc., Wallingford CT, 2016.
 
 ******************************************
 Gaussian 16:  ES64L-G16RevB.01 20-Dec-2017
                 6-Nov-2022 
 ******************************************
 %nprocshared=32
 Will use up to   32 processors via shared memory.
 %mem=120GB
 %chk=_conf008.chk
 ----------------------------------------
 #P wB97XD/6-311++G(d,p) scf=maxcycle=512
 ----------------------------------------
 1/38=1,172=1/1;
 2/12=2,17=6,18=5,40=1/2;
 3/5=4,6=6,7=1111,11=2,25=1,30=1,74=-58/1,2,3;
 4//1;
 5/5=2,7=512,38=5/2;
 6/7=2,8=2,9=2,10=2,28=1/1;
 99/5=1,9=1/99;
 Leave Link    1 at Sun Nov  6 23:00:38 2022, MaxMem= 16106127360 cpu:               1.8 elap:               0.1
 (Enter /opt/ap/G16/B01/g16/l101.exe)
 ----------------------------
 _conf008.gjf nmol_natom 1_15
 ----------------------------
 Symbolic Z-matrix:
 Charge =  0 Multiplicity = 1
 C
 C                    1     1.39016 
 C                    1     1.39195  2     119.89594 
 C                    2     1.38669  1     119.88076  3     0.70826  0
 H                    2     0.98744  1     119.71654  3    -179.90726  0
 C                    1     1.48429  2     119.93615  4    -179.87772  0
 C                    3     1.40101  1     119.72365  2    -0.26267  0
 H                    3     0.99022  1     119.18862  2     178.85398  0
 C                    4     1.37899  2     120.45786  1    -0.48041  0
 H                    4     0.98347  2     120.30443  1     179.36167  0
 O                    6     1.2746   1     118.00615  2    -50.      0
 O                    6     1.26363  1     118.77715  2     130.     0
 H                    7     0.98977  3     119.37862  1    -178.93546  0
 H                    9     0.99498  4     119.46723  2    -178.58827  0
 H                    11    0.8968   6     118.15824  1     176.92714  0
 
 ITRead=  0  0  0  0  0  0  0  0  0  0  0  0  0  0  0
 MicOpt= -1 -1 -1 -1 -1 -1 -1 -1 -1 -1 -1 -1 -1 -1 -1
 NAtoms=     15 NQM=       15 NQMF=       0 NMMI=      0 NMMIF=      0
                NMic=       0 NMicF=      0.
                    Isotopes and Nuclear Properties:
 (Nuclear quadrupole moments (NQMom) in fm**2, nuclear magnetic moments (NMagM)
  in nuclear magnetons)

  Atom         1           2           3           4           5           6           7           8           9          10
 IAtWgt=          12          12          12          12           1          12          12           1          12           1
 AtmWgt=  12.0000000  12.0000000  12.0000000  12.0000000   1.0078250  12.0000000  12.0000000   1.0078250  12.0000000   1.0078250
 NucSpn=           0           0           0           0           1           0           0           1           0           1
 AtZEff=  -0.0000000  -0.0000000  -0.0000000  -0.0000000  -0.0000000  -0.0000000  -0.0000000  -0.0000000  -0.0000000  -0.0000000
 NQMom=    0.0000000   0.0000000   0.0000000   0.0000000   0.0000000   0.0000000   0.0000000   0.0000000   0.0000000   0.0000000
 NMagM=    0.0000000   0.0000000   0.0000000   0.0000000   2.7928460   0.0000000   0.0000000   2.7928460   0.0000000   2.7928460
 AtZNuc=   6.0000000   6.0000000   6.0000000   6.0000000   1.0000000   6.0000000   6.0000000   1.0000000   6.0000000   1.0000000

  Atom        11          12          13          14          15
 IAtWgt=          16          16           1           1           1
 AtmWgt=  15.9949146  15.9949146   1.0078250   1.0078250   1.0078250
 NucSpn=           0           0           1           1           1
 AtZEff=  -0.0000000  -0.0000000  -0.0000000  -0.0000000  -0.0000000
 NQMom=    0.0000000   0.0000000   0.0000000   0.0000000   0.0000000
 NMagM=    0.0000000   0.0000000   2.7928460   2.7928460   2.7928460
 AtZNuc=   8.0000000   8.0000000   1.0000000   1.0000000   1.0000000
 Leave Link  101 at Sun Nov  6 23:00:38 2022, MaxMem= 16106127360 cpu:               5.1 elap:               0.2
 (Enter /opt/ap/G16/B01/g16/l202.exe)
                          Input orientation:                          
 ---------------------------------------------------------------------
 Center     Atomic      Atomic             Coordinates (Angstroms)
 Number     Number       Type             X           Y           Z
 ---------------------------------------------------------------------
      1          6           0        0.000000    0.000000    0.000000
      2          6           0        0.000000    0.000000    1.390162
      3          6           0        1.206722    0.000000   -0.693782
      4          6           0        1.202258    0.014862    2.081006
      5          1           0       -0.857581   -0.001388    1.879646
      6          6           0       -1.286190   -0.013155   -0.740711
      7          6           0        2.415349    0.005578    0.014752
      8          1           0        1.194584   -0.017290   -1.683772
      9          6           0        2.400563    0.019708    1.398617
     10          1           0        1.209438    0.024411    3.064408
     11          8           0       -2.156962   -0.884165   -0.412542
     12          8           0       -1.466735    0.833488   -1.661227
     13          1           0        3.270315    0.021574   -0.483669
     14          1           0        3.254554    0.009066    1.909081
     15          1           0       -2.950596   -0.867269   -0.829816
 ---------------------------------------------------------------------
                    Distance matrix (angstroms):
                    1          2          3          4          5
     1  C    0.000000
     2  C    1.390162   0.000000
     3  C    1.391945   2.408112   0.000000
     4  C    2.403379   1.386690   2.774832   0.000000
     5  H    2.066039   0.987443   3.299073   2.069721   0.000000
     6  C    1.484288   2.488991   2.493388   3.762345   2.655206
     7  C    2.415401   2.779513   1.401011   2.396056   3.766955
     8  H    2.064563   3.297939   0.990215   3.764924   4.112127
     9  C    2.778349   2.400659   2.409104   1.378990   3.293530
    10  H    3.294530   2.065535   3.758270   0.983474   2.382624
    11  O    2.367367   2.946859   3.489300   4.279064   2.778815
    12  O    2.367633   3.486687   2.962773   4.668830   3.688613
    13  H    3.305958   3.769173   2.074374   3.294611   4.756607
    14  H    3.773167   3.295676   3.311886   2.059493   4.112253
    15  H    3.185399   3.792950   4.248994   5.147546   3.531522
                    6          7          8          9         10
     6  C    0.000000
     7  C    3.777892   0.000000
     8  H    2.653982   2.091836   0.000000
     9  C    4.262622   1.384016   3.310118   0.000000
    10  H    4.550659   3.279477   4.748386   2.047842   0.000000
    11  O    1.274598   4.677633   3.687867   4.986815   4.924159
    12  O    1.263626   4.308703   2.794092   4.998087   5.490731
    13  H    4.563881   0.989771   2.398003   2.073517   4.103177
    14  H    5.257398   2.071897   4.141589   0.994981   2.348938
    15  H    1.872885   5.501684   4.316737   5.864089   5.767665
                   11         12         13         14         15
    11  O    0.000000
    12  O    2.232926   0.000000
    13  H    5.502796   4.948281   0.000000
    14  H    5.955862   5.976398   2.392834   0.000000
    15  H    0.896804   2.405340   6.293615   6.839108   0.000000
 Stoichiometry    C7H6O2
 Framework group  C1[X(C7H6O2)]
 Deg. of freedom    39
 Full point group                 C1      NOp   1
 Largest Abelian subgroup         C1      NOp   1
 Largest concise Abelian subgroup C1      NOp   1
                         Standard orientation:                         
 ---------------------------------------------------------------------
 Center     Atomic      Atomic             Coordinates (Angstroms)
 Number     Number       Type             X           Y           Z
 ---------------------------------------------------------------------
      1          6           0       -0.220708    0.023472    0.017168
      2          6           0        0.454364   -1.169617    0.248181
      3          6           0        0.496955    1.188374   -0.238716
      4          6           0        1.840830   -1.192161    0.237464
      5          1           0       -0.057419   -1.994697    0.428079
      6          6           0       -1.704701    0.049549    0.031049
      7          6           0        1.897377    1.151779   -0.256327
      8          1           0        0.005229    2.028803   -0.418746
      9          6           0        2.556774   -0.040032   -0.010801
     10          1           0        2.324857   -2.030837    0.409397
     11          8           0       -2.325106   -0.818800   -0.665848
     12          8           0       -2.291228    0.925222    0.728139
     13          1           0        2.402850    1.986243   -0.423100
     14          1           0        3.550741   -0.077266   -0.035891
     15          1           0       -3.220938   -0.831799   -0.626181
 ---------------------------------------------------------------------
 Rotational constants (GHZ):           3.9685563           1.1824781           0.9798532
 Leave Link  202 at Sun Nov  6 23:00:38 2022, MaxMem= 16106127360 cpu:               0.3 elap:               0.0
 (Enter /opt/ap/G16/B01/g16/l301.exe)
 Standard basis: 6-311++G(d,p) (5D, 7F)
 Ernie: Thresh=  0.10000D-02 Tol=  0.10000D-05 Strict=F.
 There are   249 symmetry adapted cartesian basis functions of A   symmetry.
 There are   240 symmetry adapted basis functions of A   symmetry.
   240 basis functions,   378 primitive gaussians,   249 cartesian basis functions
    32 alpha electrons       32 beta electrons
       nuclear repulsion energy       408.6754956105 Hartrees.
 IExCor= 4639 DFT=T Ex+Corr=wB97XD ExCW=0 ScaHFX=  1.000000
 ScaDFX=  1.000000  1.000000  1.000000  1.000000 ScalE2=  1.000000  1.000000
 IRadAn=      5 IRanWt=     -1 IRanGd=            0 ICorTp=0 IEmpDi=121
 HFx  wShort=  0.000000 wLong=  0.200000 cFull=  0.222036 cShort=  0.000000 cLong=  0.777964
 DFx  wShort=  0.000000 wLong=  0.200000 cFull=  0.000000 cShort=  0.000000 cLong=  1.000000
 NAtoms=   15 NActive=   15 NUniq=   15 SFac= 1.00D+00 NAtFMM=   60 NAOKFM=F Big=F
 Integral buffers will be    131072 words long.
 Raffenetti 2 integral format.
 Two-electron integral symmetry is turned on.
 R6Disp:  Grimme-D2 Dispersion energy=       -0.0064567872 Hartrees.
 Nuclear repulsion after empirical dispersion term =      408.6690388233 Hartrees.
 Leave Link  301 at Sun Nov  6 23:00:38 2022, MaxMem= 16106127360 cpu:               1.3 elap:               0.0
 (Enter /opt/ap/G16/B01/g16/l302.exe)
 NPDir=0 NMtPBC=     1 NCelOv=     1 NCel=       1 NClECP=     1 NCelD=      1
         NCelK=      1 NCelE2=     1 NClLst=     1 CellRange=     0.0.
 One-electron integrals computed using PRISM.
 One-electron integral symmetry used in STVInt
 NBasis=   240 RedAO= T EigKep=  1.22D-06  NBF=   240
 NBsUse=   240 1.00D-06 EigRej= -1.00D+00 NBFU=   240
 Precomputing XC quadrature grid using
 IXCGrd= 4 IRadAn=           5 IRanWt=          -1 IRanGd=           0 AccXCQ= 0.00D+00.
 Generated NRdTot=       0 NPtTot=           0 NUsed=           0 NTot=          32
 NSgBfM=   249   249   249   249   249 MxSgAt=    15 MxSgA2=    15.
 Leave Link  302 at Sun Nov  6 23:00:38 2022, MaxMem= 16106127360 cpu:               5.3 elap:               0.2
 (Enter /opt/ap/G16/B01/g16/l303.exe)
 DipDrv:  MaxL=1.
 Leave Link  303 at Sun Nov  6 23:00:38 2022, MaxMem= 16106127360 cpu:               1.3 elap:               0.1
 (Enter /opt/ap/G16/B01/g16/l401.exe)
 ExpMin= 3.60D-02 ExpMax= 8.59D+03 ExpMxC= 1.30D+03 IAcc=3 IRadAn=         5 AccDes= 0.00D+00
 Harris functional with IExCor= 4639 and IRadAn=       5 diagonalized for initial guess.
 HarFok:  IExCor= 4639 AccDes= 0.00D+00 IRadAn=         5 IDoV= 1 UseB2=F ITyADJ=14
 ICtDFT=  3500011 ScaDFX=  1.000000  1.000000  1.000000  1.000000
 FoFCou: FMM=F IPFlag=           0 FMFlag=      100000 FMFlg1=           0
         NFxFlg=           0 DoJE=T BraDBF=F KetDBF=T FulRan=T
         wScrn=  0.000000 ICntrl=       500 IOpCl=  0 I1Cent=   200000004 NGrid=           0
         NMat0=    1 NMatS0=      1 NMatT0=    0 NMatD0=    1 NMtDS0=    0 NMtDT0=    0
 Petite list used in FoFCou.
 Harris En= -403.251642483343    
 JPrj=0 DoOrth=F DoCkMO=F.
 Leave Link  401 at Sun Nov  6 23:00:39 2022, MaxMem= 16106127360 cpu:              12.1 elap:               0.4
 (Enter /opt/ap/G16/B01/g16/l502.exe)
 Integral symmetry usage will be decided dynamically.
 Closed shell SCF:
 Using DIIS extrapolation, IDIIS=  1040.
 NGot= 16106127360 LenX= 16105992971 LenY= 16105930529
 Requested convergence on RMS density matrix=1.00D-08 within 512 cycles.
 Requested convergence on MAX density matrix=1.00D-06.
 Requested convergence on             energy=1.00D-06.
 No special actions if energy rises.
 Fock matrices will be formed incrementally for  20 cycles.

 Cycle   1  Pass 1  IDiag  1:
 FoFJK:  IHMeth= 1 ICntrl=       0 DoSepK=T KAlg= 0 I1Cent=           0 FoldK=F
 IRaf=         1 NMat=       1 IRICut=       1 DoRegI=T DoRafI=F ISym2E= 0 IDoP0=0 IntGTp=1.
 FoFCou: FMM=F IPFlag=           0 FMFlag=      100000 FMFlg1=           0
         NFxFlg=           0 DoJE=T BraDBF=F KetDBF=F FulRan=T
         wScrn=  0.000000 ICntrl=       500 IOpCl=  0 I1Cent=           0 NGrid=           0
         NMat0=    1 NMatS0=      1 NMatT0=    0 NMatD0=    1 NMtDS0=    0 NMtDT0=    0
 Symmetry not used in FoFCou.
 E= -420.625954605865    
 DIIS: error= 7.64D-02 at cycle   1 NSaved=   1.
 NSaved= 1 IEnMin= 1 EnMin= -420.625954605865     IErMin= 1 ErrMin= 7.64D-02
 ErrMax= 7.64D-02  0.00D+00 EMaxC= 1.00D-01 BMatC= 8.62D-01 BMatP= 8.62D-01
 IDIUse=3 WtCom= 2.36D-01 WtEn= 7.64D-01
 Coeff-Com:  0.100D+01
 Coeff-En:   0.100D+01
 Coeff:      0.100D+01
 Gap=     0.475 Goal=   None    Shift=    0.000
 GapD=    0.475 DampG=2.000 DampE=0.500 DampFc=1.0000 IDamp=-1.
 RMSDP=1.91D-02 MaxDP=1.19D+00              OVMax= 9.76D-02

 Cycle   2  Pass 1  IDiag  1:
 RMSU=  1.25D-02    CP:  7.27D-01
 E= -420.697916665186     Delta-E=       -0.071962059322 Rises=F Damp=F
 DIIS: error= 1.30D-02 at cycle   2 NSaved=   2.
 NSaved= 2 IEnMin= 2 EnMin= -420.697916665186     IErMin= 2 ErrMin= 1.30D-02
 ErrMax= 1.30D-02  0.00D+00 EMaxC= 1.00D-01 BMatC= 5.68D-02 BMatP= 8.62D-01
 IDIUse=3 WtCom= 8.70D-01 WtEn= 1.30D-01
 Coeff-Com:  0.135D+00 0.865D+00
 Coeff-En:   0.921D-01 0.908D+00
 Coeff:      0.129D+00 0.871D+00
 Gap=     0.450 Goal=   None    Shift=    0.000
 RMSDP=6.52D-03 MaxDP=2.55D-01 DE=-7.20D-02 OVMax= 8.85D-02

 Cycle   3  Pass 1  IDiag  1:
 RMSU=  5.13D-03    CP:  7.27D-01  6.77D-01
 E= -420.713812748662     Delta-E=       -0.015896083476 Rises=F Damp=F
 DIIS: error= 1.29D-02 at cycle   3 NSaved=   3.
 NSaved= 3 IEnMin= 3 EnMin= -420.713812748662     IErMin= 3 ErrMin= 1.29D-02
 ErrMax= 1.29D-02  0.00D+00 EMaxC= 1.00D-01 BMatC= 3.58D-02 BMatP= 5.68D-02
 IDIUse=3 WtCom= 8.71D-01 WtEn= 1.29D-01
 Coeff-Com:  0.283D-01 0.448D+00 0.523D+00
 Coeff-En:   0.000D+00 0.386D+00 0.614D+00
 Coeff:      0.247D-01 0.440D+00 0.535D+00
 Gap=     0.361 Goal=   None    Shift=    0.000
 RMSDP=3.36D-03 MaxDP=1.06D-01 DE=-1.59D-02 OVMax= 5.28D-02

 Cycle   4  Pass 1  IDiag  1:
 RMSU=  1.76D-03    CP:  7.13D-01  8.60D-01  7.03D-01
 E= -420.739910730741     Delta-E=       -0.026097982079 Rises=F Damp=F
 DIIS: error= 2.85D-03 at cycle   4 NSaved=   4.
 NSaved= 4 IEnMin= 4 EnMin= -420.739910730741     IErMin= 4 ErrMin= 2.85D-03
 ErrMax= 2.85D-03  0.00D+00 EMaxC= 1.00D-01 BMatC= 2.09D-03 BMatP= 3.58D-02
 IDIUse=3 WtCom= 9.72D-01 WtEn= 2.85D-02
 Coeff-Com:  0.105D-01 0.221D+00 0.304D+00 0.465D+00
 Coeff-En:   0.000D+00 0.000D+00 0.000D+00 0.100D+01
 Coeff:      0.102D-01 0.215D+00 0.295D+00 0.480D+00
 Gap=     0.362 Goal=   None    Shift=    0.000
 RMSDP=7.40D-04 MaxDP=4.26D-02 DE=-2.61D-02 OVMax= 1.32D-02

 Cycle   5  Pass 1  IDiag  1:
 RMSU=  5.15D-04    CP:  7.08D-01  8.46D-01  7.69D-01  8.57D-01
 E= -420.741322515711     Delta-E=       -0.001411784970 Rises=F Damp=F
 DIIS: error= 4.41D-04 at cycle   5 NSaved=   5.
 NSaved= 5 IEnMin= 5 EnMin= -420.741322515711     IErMin= 5 ErrMin= 4.41D-04
 ErrMax= 4.41D-04  0.00D+00 EMaxC= 1.00D-01 BMatC= 5.16D-05 BMatP= 2.09D-03
 IDIUse=3 WtCom= 9.96D-01 WtEn= 4.41D-03
 Coeff-Com:  0.482D-03 0.185D-01 0.341D-01 0.152D+00 0.795D+00
 Coeff-En:   0.000D+00 0.000D+00 0.000D+00 0.000D+00 0.100D+01
 Coeff:      0.480D-03 0.185D-01 0.340D-01 0.152D+00 0.796D+00
 Gap=     0.359 Goal=   None    Shift=    0.000
 RMSDP=2.29D-04 MaxDP=1.33D-02 DE=-1.41D-03 OVMax= 2.84D-03

 Cycle   6  Pass 1  IDiag  1:
 RMSU=  1.31D-04    CP:  7.09D-01  8.50D-01  7.94D-01  9.11D-01  1.05D+00
 E= -420.741362924377     Delta-E=       -0.000040408666 Rises=F Damp=F
 DIIS: error= 1.89D-04 at cycle   6 NSaved=   6.
 NSaved= 6 IEnMin= 6 EnMin= -420.741362924377     IErMin= 6 ErrMin= 1.89D-04
 ErrMax= 1.89D-04  0.00D+00 EMaxC= 1.00D-01 BMatC= 7.27D-06 BMatP= 5.16D-05
 IDIUse=3 WtCom= 9.98D-01 WtEn= 1.89D-03
 Coeff-Com: -0.957D-03-0.164D-01-0.178D-01 0.119D-01 0.342D+00 0.681D+00
 Coeff-En:   0.000D+00 0.000D+00 0.000D+00 0.000D+00 0.000D+00 0.100D+01
 Coeff:     -0.955D-03-0.163D-01-0.178D-01 0.118D-01 0.341D+00 0.682D+00
 Gap=     0.359 Goal=   None    Shift=    0.000
 RMSDP=1.03D-04 MaxDP=5.58D-03 DE=-4.04D-05 OVMax= 1.03D-03

 Cycle   7  Pass 1  IDiag  1:
 RMSU=  3.87D-05    CP:  7.08D-01  8.50D-01  8.06D-01  9.35D-01  1.12D+00
                    CP:  1.10D+00
 E= -420.741370396239     Delta-E=       -0.000007471862 Rises=F Damp=F
 DIIS: error= 4.54D-05 at cycle   7 NSaved=   7.
 NSaved= 7 IEnMin= 7 EnMin= -420.741370396239     IErMin= 7 ErrMin= 4.54D-05
 ErrMax= 4.54D-05  0.00D+00 EMaxC= 1.00D-01 BMatC= 3.22D-07 BMatP= 7.27D-06
 IDIUse=1 WtCom= 1.00D+00 WtEn= 0.00D+00
 Coeff-Com: -0.228D-03-0.535D-02-0.662D-02-0.139D-01-0.595D-02 0.125D+00
 Coeff-Com:  0.907D+00
 Coeff:     -0.228D-03-0.535D-02-0.662D-02-0.139D-01-0.595D-02 0.125D+00
 Coeff:      0.907D+00
 Gap=     0.359 Goal=   None    Shift=    0.000
 RMSDP=4.28D-05 MaxDP=2.20D-03 DE=-7.47D-06 OVMax= 4.07D-04

 Cycle   8  Pass 1  IDiag  1:
 RMSU=  1.46D-05    CP:  7.08D-01  8.50D-01  8.11D-01  9.45D-01  1.17D+00
                    CP:  1.17D+00  1.12D+00
 E= -420.741371077143     Delta-E=       -0.000000680904 Rises=F Damp=F
 DIIS: error= 1.30D-05 at cycle   8 NSaved=   8.
 NSaved= 8 IEnMin= 8 EnMin= -420.741371077143     IErMin= 8 ErrMin= 1.30D-05
 ErrMax= 1.30D-05  0.00D+00 EMaxC= 1.00D-01 BMatC= 4.89D-08 BMatP= 3.22D-07
 IDIUse=1 WtCom= 1.00D+00 WtEn= 0.00D+00
 Coeff-Com:  0.388D-04 0.391D-03 0.382D-03-0.572D-02-0.414D-01-0.454D-01
 Coeff-Com:  0.251D+00 0.841D+00
 Coeff:      0.388D-04 0.391D-03 0.382D-03-0.572D-02-0.414D-01-0.454D-01
 Coeff:      0.251D+00 0.841D+00
 Gap=     0.359 Goal=   None    Shift=    0.000
 RMSDP=1.06D-05 MaxDP=5.16D-04 DE=-6.81D-07 OVMax= 1.72D-04

 Cycle   9  Pass 1  IDiag  1:
 RMSU=  4.15D-06    CP:  7.08D-01  8.50D-01  8.12D-01  9.46D-01  1.18D+00
                    CP:  1.19D+00  1.22D+00  1.16D+00
 E= -420.741371174395     Delta-E=       -0.000000097252 Rises=F Damp=F
 DIIS: error= 7.57D-06 at cycle   9 NSaved=   9.
 NSaved= 9 IEnMin= 9 EnMin= -420.741371174395     IErMin= 9 ErrMin= 7.57D-06
 ErrMax= 7.57D-06  0.00D+00 EMaxC= 1.00D-01 BMatC= 6.89D-09 BMatP= 4.89D-08
 IDIUse=1 WtCom= 1.00D+00 WtEn= 0.00D+00
 Coeff-Com:  0.446D-04 0.863D-03 0.108D-02-0.119D-03-0.120D-01-0.318D-01
 Coeff-Com: -0.351D-01 0.272D+00 0.805D+00
 Coeff:      0.446D-04 0.863D-03 0.108D-02-0.119D-03-0.120D-01-0.318D-01
 Coeff:     -0.351D-01 0.272D+00 0.805D+00
 Gap=     0.359 Goal=   None    Shift=    0.000
 RMSDP=4.00D-06 MaxDP=3.06D-04 DE=-9.73D-08 OVMax= 5.83D-05

 Cycle  10  Pass 1  IDiag  1:
 RMSU=  1.93D-06    CP:  7.08D-01  8.50D-01  8.12D-01  9.44D-01  1.18D+00
                    CP:  1.19D+00  1.25D+00  1.22D+00  1.25D+00
 E= -420.741371187357     Delta-E=       -0.000000012962 Rises=F Damp=F
 DIIS: error= 1.33D-06 at cycle  10 NSaved=  10.
 NSaved=10 IEnMin=10 EnMin= -420.741371187357     IErMin=10 ErrMin= 1.33D-06
 ErrMax= 1.33D-06  0.00D+00 EMaxC= 1.00D-01 BMatC= 8.82D-10 BMatP= 6.89D-09
 IDIUse=1 WtCom= 1.00D+00 WtEn= 0.00D+00
 Coeff-Com:  0.877D-05 0.192D-03 0.266D-03 0.515D-03 0.122D-02-0.478D-02
 Coeff-Com: -0.374D-01-0.171D-01 0.253D+00 0.804D+00
 Coeff:      0.877D-05 0.192D-03 0.266D-03 0.515D-03 0.122D-02-0.478D-02
 Coeff:     -0.374D-01-0.171D-01 0.253D+00 0.804D+00
 Gap=     0.359 Goal=   None    Shift=    0.000
 RMSDP=1.47D-06 MaxDP=9.72D-05 DE=-1.30D-08 OVMax= 2.31D-05

 Cycle  11  Pass 1  IDiag  1:
 RMSU=  5.33D-07    CP:  7.08D-01  8.50D-01  8.12D-01  9.44D-01  1.18D+00
                    CP:  1.18D+00  1.25D+00  1.25D+00  1.38D+00  1.07D+00
 E= -420.741371188910     Delta-E=       -0.000000001553 Rises=F Damp=F
 DIIS: error= 6.31D-07 at cycle  11 NSaved=  11.
 NSaved=11 IEnMin=11 EnMin= -420.741371188910     IErMin=11 ErrMin= 6.31D-07
 ErrMax= 6.31D-07  0.00D+00 EMaxC= 1.00D-01 BMatC= 1.58D-10 BMatP= 8.82D-10
 IDIUse=1 WtCom= 1.00D+00 WtEn= 0.00D+00
 Coeff-Com: -0.221D-05-0.236D-04-0.147D-04 0.264D-03 0.227D-02 0.221D-02
 Coeff-Com: -0.949D-02-0.510D-01-0.211D-01 0.314D+00 0.763D+00
 Coeff:     -0.221D-05-0.236D-04-0.147D-04 0.264D-03 0.227D-02 0.221D-02
 Coeff:     -0.949D-02-0.510D-01-0.211D-01 0.314D+00 0.763D+00
 Gap=     0.359 Goal=   None    Shift=    0.000
 RMSDP=5.65D-07 MaxDP=2.78D-05 DE=-1.55D-09 OVMax= 8.43D-06

 Cycle  12  Pass 1  IDiag  1:
 RMSU=  2.96D-07    CP:  7.08D-01  8.50D-01  8.12D-01  9.44D-01  1.18D+00
                    CP:  1.18D+00  1.25D+00  1.26D+00  1.41D+00  1.18D+00
                    CP:  1.10D+00
 E= -420.741371189168     Delta-E=       -0.000000000258 Rises=F Damp=F
 DIIS: error= 1.74D-07 at cycle  12 NSaved=  12.
 NSaved=12 IEnMin=12 EnMin= -420.741371189168     IErMin=12 ErrMin= 1.74D-07
 ErrMax= 1.74D-07  0.00D+00 EMaxC= 1.00D-01 BMatC= 1.17D-11 BMatP= 1.58D-10
 IDIUse=1 WtCom= 1.00D+00 WtEn= 0.00D+00
 Coeff-Com: -0.126D-05-0.216D-04-0.251D-04 0.208D-04 0.419D-03 0.828D-03
 Coeff-Com:  0.179D-02-0.107D-01-0.266D-01 0.499D-02 0.169D+00 0.861D+00
 Coeff:     -0.126D-05-0.216D-04-0.251D-04 0.208D-04 0.419D-03 0.828D-03
 Coeff:      0.179D-02-0.107D-01-0.266D-01 0.499D-02 0.169D+00 0.861D+00
 Gap=     0.359 Goal=   None    Shift=    0.000
 RMSDP=1.64D-07 MaxDP=7.09D-06 DE=-2.58D-10 OVMax= 3.82D-06

 Cycle  13  Pass 1  IDiag  1:
 RMSU=  8.71D-08    CP:  7.08D-01  8.50D-01  8.12D-01  9.44D-01  1.18D+00
                    CP:  1.18D+00  1.25D+00  1.27D+00  1.42D+00  1.17D+00
                    CP:  1.17D+00  1.09D+00
 E= -420.741371189203     Delta-E=       -0.000000000035 Rises=F Damp=F
 DIIS: error= 1.29D-07 at cycle  13 NSaved=  13.
 NSaved=13 IEnMin=13 EnMin= -420.741371189203     IErMin=13 ErrMin= 1.29D-07
 ErrMax= 1.29D-07  0.00D+00 EMaxC= 1.00D-01 BMatC= 2.64D-12 BMatP= 1.17D-11
 IDIUse=1 WtCom= 1.00D+00 WtEn= 0.00D+00
 Coeff-Com:  0.113D-06-0.349D-05-0.746D-05-0.517D-04-0.370D-03-0.228D-03
 Coeff-Com:  0.263D-02 0.726D-02-0.254D-02-0.643D-01-0.131D+00 0.225D+00
 Coeff-Com:  0.964D+00
 Coeff:      0.113D-06-0.349D-05-0.746D-05-0.517D-04-0.370D-03-0.228D-03
 Coeff:      0.263D-02 0.726D-02-0.254D-02-0.643D-01-0.131D+00 0.225D+00
 Coeff:      0.964D+00
 Gap=     0.359 Goal=   None    Shift=    0.000
 RMSDP=8.70D-08 MaxDP=5.84D-06 DE=-3.49D-11 OVMax= 2.52D-06

 Cycle  14  Pass 1  IDiag  1:
 RMSU=  3.66D-08    CP:  7.08D-01  8.50D-01  8.12D-01  9.44D-01  1.18D+00
                    CP:  1.18D+00  1.25D+00  1.27D+00  1.42D+00  1.17D+00
                    CP:  1.23D+00  1.24D+00  1.27D+00
 E= -420.741371189213     Delta-E=       -0.000000000010 Rises=F Damp=F
 DIIS: error= 3.74D-08 at cycle  14 NSaved=  14.
 NSaved=14 IEnMin=14 EnMin= -420.741371189213     IErMin=14 ErrMin= 3.74D-08
 ErrMax= 3.74D-08  0.00D+00 EMaxC= 1.00D-01 BMatC= 2.05D-13 BMatP= 2.64D-12
 IDIUse=1 WtCom= 1.00D+00 WtEn= 0.00D+00
 Coeff-Com:  0.908D-07 0.229D-05 0.301D-05 0.124D-05-0.482D-04-0.510D-04
 Coeff-Com: -0.294D-03 0.100D-02 0.298D-02-0.118D-03-0.135D-01-0.101D+00
 Coeff-Com: -0.442D-01 0.115D+01
 Coeff:      0.908D-07 0.229D-05 0.301D-05 0.124D-05-0.482D-04-0.510D-04
 Coeff:     -0.294D-03 0.100D-02 0.298D-02-0.118D-03-0.135D-01-0.101D+00
 Coeff:     -0.442D-01 0.115D+01
 Gap=     0.359 Goal=   None    Shift=    0.000
 RMSDP=4.10D-08 MaxDP=3.42D-06 DE=-1.01D-11 OVMax= 9.37D-07

 Cycle  15  Pass 1  IDiag  1:
 RMSU=  7.90D-09    CP:  7.08D-01  8.50D-01  8.12D-01  9.44D-01  1.18D+00
                    CP:  1.18D+00  1.25D+00  1.27D+00  1.42D+00  1.16D+00
                    CP:  1.23D+00  1.27D+00  1.45D+00  1.44D+00
 E= -420.741371189214     Delta-E=       -0.000000000001 Rises=F Damp=F
 DIIS: error= 1.16D-08 at cycle  15 NSaved=  15.
 NSaved=15 IEnMin=15 EnMin= -420.741371189214     IErMin=15 ErrMin= 1.16D-08
 ErrMax= 1.16D-08  0.00D+00 EMaxC= 1.00D-01 BMatC= 3.14D-14 BMatP= 2.05D-13
 IDIUse=1 WtCom= 1.00D+00 WtEn= 0.00D+00
 Coeff-Com:  0.174D-07 0.109D-05 0.178D-05 0.591D-05 0.227D-04 0.127D-04
 Coeff-Com: -0.358D-03-0.396D-03 0.119D-02 0.680D-02 0.105D-01-0.479D-01
 Coeff-Com: -0.113D+00 0.339D+00 0.804D+00
 Coeff:      0.174D-07 0.109D-05 0.178D-05 0.591D-05 0.227D-04 0.127D-04
 Coeff:     -0.358D-03-0.396D-03 0.119D-02 0.680D-02 0.105D-01-0.479D-01
 Coeff:     -0.113D+00 0.339D+00 0.804D+00
 Gap=     0.359 Goal=   None    Shift=    0.000
 RMSDP=8.28D-09 MaxDP=5.07D-07 DE=-1.14D-12 OVMax= 1.70D-07

 SCF Done:  E(RwB97XD) =  -420.741371189     A.U. after   15 cycles
            NFock= 15  Conv=0.83D-08     -V/T= 2.0015
 KE= 4.201144983841D+02 PE=-1.800774743351D+03 EE= 5.512498349541D+02
 Leave Link  502 at Sun Nov  6 23:00:52 2022, MaxMem= 16106127360 cpu:             407.2 elap:              12.8
 (Enter /opt/ap/G16/B01/g16/l601.exe)
 Copying SCF densities to generalized density rwf, IOpCl= 0 IROHF=0.

 **********************************************************************

            Population analysis using the SCF Density.

 **********************************************************************

 Orbital symmetries:
       Occupied  (A) (A) (A) (A) (A) (A) (A) (A) (A) (A) (A) (A)
                 (A) (A) (A) (A) (A) (A) (A) (A) (A) (A) (A) (A)
                 (A) (A) (A) (A) (A) (A) (A) (A)
       Virtual   (A) (A) (A) (A) (A) (A) (A) (A) (A) (A) (A) (A)
                 (A) (A) (A) (A) (A) (A) (A) (A) (A) (A) (A) (A)
                 (A) (A) (A) (A) (A) (A) (A) (A) (A) (A) (A) (A)
                 (A) (A) (A) (A) (A) (A) (A) (A) (A) (A) (A) (A)
                 (A) (A) (A) (A) (A) (A) (A) (A) (A) (A) (A) (A)
                 (A) (A) (A) (A) (A) (A) (A) (A) (A) (A) (A) (A)
                 (A) (A) (A) (A) (A) (A) (A) (A) (A) (A) (A) (A)
                 (A) (A) (A) (A) (A) (A) (A) (A) (A) (A) (A) (A)
                 (A) (A) (A) (A) (A) (A) (A) (A) (A) (A) (A) (A)
                 (A) (A) (A) (A) (A) (A) (A) (A) (A) (A) (A) (A)
                 (A) (A) (A) (A) (A) (A) (A) (A) (A) (A) (A) (A)
                 (A) (A) (A) (A) (A) (A) (A) (A) (A) (A) (A) (A)
                 (A) (A) (A) (A) (A) (A) (A) (A) (A) (A) (A) (A)
                 (A) (A) (A) (A) (A) (A) (A) (A) (A) (A) (A) (A)
                 (A) (A) (A) (A) (A) (A) (A) (A) (A) (A) (A) (A)
                 (A) (A) (A) (A) (A) (A) (A) (A) (A) (A) (A) (A)
                 (A) (A) (A) (A) (A) (A) (A) (A) (A) (A) (A) (A)
                 (A) (A) (A) (A)
 The electronic state is 1-A.
 Alpha  occ. eigenvalues --  -19.31839 -19.23172 -10.43394 -10.31304 -10.29447
 Alpha  occ. eigenvalues --  -10.29348 -10.29031 -10.28917 -10.28738  -1.25951
 Alpha  occ. eigenvalues --   -1.10821  -0.98092  -0.88950  -0.87084  -0.80639
 Alpha  occ. eigenvalues --   -0.73464  -0.72217  -0.65866  -0.60706  -0.58722
 Alpha  occ. eigenvalues --   -0.57708  -0.55850  -0.53974  -0.53394  -0.49168
 Alpha  occ. eigenvalues --   -0.47461  -0.45451  -0.45114  -0.40852  -0.37185
 Alpha  occ. eigenvalues --   -0.34435  -0.33724
 Alpha virt. eigenvalues --    0.02194   0.03771   0.04222   0.04557   0.05170
 Alpha virt. eigenvalues --    0.06425   0.07350   0.08669   0.08969   0.10347
 Alpha virt. eigenvalues --    0.12283   0.12723   0.12872   0.14310   0.15038
 Alpha virt. eigenvalues --    0.16071   0.16309   0.17028   0.17264   0.17889
 Alpha virt. eigenvalues --    0.18540   0.19102   0.19290   0.20163   0.20221
 Alpha virt. eigenvalues --    0.20880   0.21012   0.21353   0.23101   0.23781
 Alpha virt. eigenvalues --    0.25639   0.25860   0.26642   0.27462   0.27680
 Alpha virt. eigenvalues --    0.29127   0.29460   0.30178   0.30731   0.31181
 Alpha virt. eigenvalues --    0.32383   0.34601   0.35123   0.35794   0.36586
 Alpha virt. eigenvalues --    0.36687   0.38111   0.38615   0.39066   0.40012
 Alpha virt. eigenvalues --    0.40627   0.41760   0.42671   0.43427   0.43966
 Alpha virt. eigenvalues --    0.44449   0.45596   0.50454   0.53475   0.56848
 Alpha virt. eigenvalues --    0.59451   0.61324   0.62052   0.63110   0.63627
 Alpha virt. eigenvalues --    0.64677   0.64720   0.65900   0.67481   0.68786
 Alpha virt. eigenvalues --    0.69603   0.70890   0.72757   0.74607   0.75595
 Alpha virt. eigenvalues --    0.77157   0.80436   0.80983   0.82145   0.83140
 Alpha virt. eigenvalues --    0.87093   0.87620   0.90369   0.91456   0.93638
 Alpha virt. eigenvalues --    0.93825   0.95682   0.95963   0.97853   1.00213
 Alpha virt. eigenvalues --    1.01259   1.02790   1.07961   1.08851   1.13581
 Alpha virt. eigenvalues --    1.13686   1.15609   1.17136   1.18958   1.20432
 Alpha virt. eigenvalues --    1.22094   1.25121   1.25654   1.28064   1.31671
 Alpha virt. eigenvalues --    1.36691   1.38920   1.44070   1.45647   1.53973
 Alpha virt. eigenvalues --    1.56672   1.58903   1.59100   1.61483   1.62181
 Alpha virt. eigenvalues --    1.65547   1.66197   1.67365   1.67411   1.74153
 Alpha virt. eigenvalues --    1.75006   1.75168   1.80114   1.84046   1.87533
 Alpha virt. eigenvalues --    1.88480   1.88669   1.90632   1.93214   1.98057
 Alpha virt. eigenvalues --    2.01124   2.02197   2.02944   2.04938   2.05396
 Alpha virt. eigenvalues --    2.06443   2.07383   2.13850   2.17744   2.18483
 Alpha virt. eigenvalues --    2.23424   2.24975   2.32290   2.44226   2.46939
 Alpha virt. eigenvalues --    2.51800   2.53208   2.53989   2.58205   2.62631
 Alpha virt. eigenvalues --    2.68935   2.71056   2.77251   2.79806   2.80940
 Alpha virt. eigenvalues --    2.82749   2.84046   2.88054   2.90510   2.90914
 Alpha virt. eigenvalues --    2.91276   2.92047   2.96600   2.98531   3.00921
 Alpha virt. eigenvalues --    3.01828   3.06764   3.09023   3.16502   3.18353
 Alpha virt. eigenvalues --    3.19596   3.22373   3.25015   3.28805   3.35282
 Alpha virt. eigenvalues --    3.39296   3.43095   3.48687   3.49460   3.63904
 Alpha virt. eigenvalues --    3.66138   3.69208   3.72763   3.85379   3.87666
 Alpha virt. eigenvalues --    4.05217   4.15663   4.27395   4.30248   4.35696
 Alpha virt. eigenvalues --    4.38167   4.40444   4.95008   5.09117   5.18438
 Alpha virt. eigenvalues --    5.27468   5.47000   5.77388   6.07330  23.84395
 Alpha virt. eigenvalues --   23.93822  24.14632  24.21319  24.28407  24.30222
 Alpha virt. eigenvalues --   24.41843  50.02784  50.13266
          Condensed to atoms (all electrons):
               1          2          3          4          5          6
     1  C   12.094683  -2.299553  -3.211631   1.502863  -0.013005  -2.202576
     2  C   -2.299553  10.753227   0.179354  -1.319115   0.372452  -0.678522
     3  C   -3.211631   0.179354  11.268425  -1.423434   0.115915  -0.352658
     4  C    1.502863  -1.319115  -1.423434   6.385914  -0.056805   0.013895
     5  H   -0.013005   0.372452   0.115915  -0.056805   0.476849  -0.061456
     6  C   -2.202576  -0.678522  -0.352658   0.013895  -0.061456   8.404502
     7  C    1.214645  -1.318346  -1.386328   1.009725  -0.004073  -0.012997
     8  H   -0.041671   0.114403   0.393412  -0.022140  -0.000644  -0.024747
     9  C   -1.703918   1.150528   1.363974  -0.599093   0.016279   0.050032
    10  H    0.029617  -0.039335  -0.023108   0.393753  -0.009543   0.008209
    11  O   -0.347976  -0.116580  -0.053688   0.047400  -0.012605   0.429423
    12  O   -0.083502   0.041716  -0.098111   0.019231  -0.003274   0.500961
    13  H    0.043048  -0.029345  -0.047006   0.003938   0.000684   0.002434
    14  H    0.002389   0.000404   0.006999  -0.031054  -0.000649  -0.008936
    15  H   -0.040125   0.001575   0.007813  -0.005343  -0.001816   0.023500
               7          8          9         10         11         12
     1  C    1.214645  -0.041671  -1.703918   0.029617  -0.347976  -0.083502
     2  C   -1.318346   0.114403   1.150528  -0.039335  -0.116580   0.041716
     3  C   -1.386328   0.393412   1.363974  -0.023108  -0.053688  -0.098111
     4  C    1.009725  -0.022140  -0.599093   0.393753   0.047400   0.019231
     5  H   -0.004073  -0.000644   0.016279  -0.009543  -0.012605  -0.003274
     6  C   -0.012997  -0.024747   0.050032   0.008209   0.429423   0.500961
     7  C    6.749501  -0.083239  -0.604055  -0.007089   0.018094   0.013516
     8  H   -0.083239   0.455786   0.024663   0.000482  -0.004576   0.001974
     9  C   -0.604055   0.024663   6.400268  -0.022628  -0.020033  -0.002830
    10  H   -0.007089   0.000482  -0.022628   0.471277   0.000110   0.000227
    11  O    0.018094  -0.004576  -0.020033   0.000110   8.011222  -0.136755
    12  O    0.013516   0.001974  -0.002830   0.000227  -0.136755   8.053399
    13  H    0.408601  -0.010708  -0.041067  -0.001324  -0.000118  -0.000848
    14  H   -0.024262   0.000044   0.405103  -0.004610  -0.000378  -0.000148
    15  H   -0.002811   0.000263   0.000832   0.000072   0.300783  -0.006847
              13         14         15
     1  C    0.043048   0.002389  -0.040125
     2  C   -0.029345   0.000404   0.001575
     3  C   -0.047006   0.006999   0.007813
     4  C    0.003938  -0.031054  -0.005343
     5  H    0.000684  -0.000649  -0.001816
     6  C    0.002434  -0.008936   0.023500
     7  C    0.408601  -0.024262  -0.002811
     8  H   -0.010708   0.000044   0.000263
     9  C   -0.041067   0.405103   0.000832
    10  H   -0.001324  -0.004610   0.000072
    11  O   -0.000118  -0.000378   0.300783
    12  O   -0.000848  -0.000148  -0.006847
    13  H    0.468515  -0.004873  -0.000090
    14  H   -0.004873   0.469602  -0.000050
    15  H   -0.000090  -0.000050   0.394252
 Mulliken charges:
               1
     1  C    1.056713
     2  C   -0.812864
     3  C   -0.739928
     4  C    0.080265
     5  H    0.181691
     6  C   -0.091063
     7  C    0.029118
     8  H    0.196697
     9  C   -0.418056
    10  H    0.203888
    11  O   -0.114322
    12  O   -0.298708
    13  H    0.208158
    14  H    0.190419
    15  H    0.327992
 Sum of Mulliken charges =  -0.00000
 Mulliken charges with hydrogens summed into heavy atoms:
               1
     1  C    1.056713
     2  C   -0.631173
     3  C   -0.543230
     4  C    0.284153
     6  C   -0.091063
     7  C    0.237276
     9  C   -0.227637
    11  O    0.213670
    12  O   -0.298708
 Electronic spatial extent (au):  <R**2>=           1158.2061
 Charge=             -0.0000 electrons
 Dipole moment (field-independent basis, Debye):
    X=              1.1523    Y=             -1.8507    Z=             -1.4272  Tot=              2.6057
 Quadrupole moment (field-independent basis, Debye-Ang):
   XX=            -43.2240   YY=            -48.5125   ZZ=            -55.7557
   XY=              6.3967   XZ=              4.6562   YZ=             -4.0541
 Traceless Quadrupole moment (field-independent basis, Debye-Ang):
   XX=              5.9401   YY=              0.6516   ZZ=             -6.5917
   XY=              6.3967   XZ=              4.6562   YZ=             -4.0541
 Octapole moment (field-independent basis, Debye-Ang**2):
  XXX=            -22.3989  YYY=             -2.3766  ZZZ=             -1.5743  XYY=              3.3387
  XXY=            -21.3497  XXZ=            -16.0545  XZZ=             -7.6697  YZZ=             -1.3655
  YYZ=             -1.6257  XYZ=              2.1219
 Hexadecapole moment (field-independent basis, Debye-Ang**3):
 XXXX=           -874.0704 YYYY=           -314.9312 ZZZZ=           -106.3470 XXXY=             72.1735
 XXXZ=             53.1030 YYYX=              9.9744 YYYZ=             -8.9171 ZZZX=              5.8180
 ZZZY=              2.7263 XXYY=           -221.6378 XXZZ=           -205.7392 YYZZ=            -78.0610
 XXYZ=             -9.5949 YYXZ=              4.9827 ZZXY=              4.3149
 N-N= 4.086690388233D+02 E-N=-1.800774743512D+03  KE= 4.201144983841D+02
 No NMR shielding tensors so no spin-rotation constants.
 Leave Link  601 at Sun Nov  6 23:00:52 2022, MaxMem= 16106127360 cpu:               3.8 elap:               0.1
 (Enter /opt/ap/G16/B01/g16/l9999.exe)
 1\1\GINC-N03\SP\RwB97XD\6-311++G(d,p)\C7H6O2\ROOT\06-Nov-2022\0\\#P wB
 97XD/6-311++G(d,p) scf=maxcycle=512\\_conf008.gjf nmol_natom 1_15\\0,1
 \C\C,1,1.39016191\C,1,1.39194539,2,119.895942\C,2,1.38669027,1,119.880
 75721,3,0.70825972,0\H,2,0.98744251,1,119.71654057,3,-179.90726164,0\C
 ,1,1.48428757,2,119.93615286,4,-179.87772406,0\C,3,1.40101108,1,119.72
 36454,2,-0.26266839,0\H,3,0.9902154,1,119.1886159,2,178.85397616,0\C,4
 ,1.37899003,2,120.45785903,1,-0.48041454,0\H,4,0.9834739,2,120.3044270
 6,1,179.36166981,0\O,6,1.27459751,1,118.00615353,2,-50.,0\O,6,1.263625
 72,1,118.77715367,2,130.,0\H,7,0.98977053,3,119.37861578,1,-178.935457
 41,0\H,9,0.99498061,4,119.46722635,2,-178.58826714,0\H,11,0.89680392,6
 ,118.15823763,1,176.92714093,0\\Version=ES64L-G16RevB.01\State=1-A\HF=
 -420.7413712\RMSD=8.285e-09\Dipole=0.1179962,-0.6869721,0.7517516\Quad
 rupole=6.9634028,-5.680691,-1.2827119,3.2072679,-0.9351165,3.6333551\P
 G=C01 [X(C7H6O2)]\\@


 TOWERING GENIUS DISDAINS A BEATEN PATH.  IT SEEKS 
 REGIONS HITHERTO UNEXPLORED.

                                -- ABRAHAM LINCOLN
 Job cpu time:       0 days  0 hours  7 minutes 19.9 seconds.
 Elapsed time:       0 days  0 hours  0 minutes 13.9 seconds.
 File lengths (MBytes):  RWF=     35 Int=      0 D2E=      0 Chk=      4 Scr=      1
 Normal termination of Gaussian 16 at Sun Nov  6 23:00:52 2022.
