 Entering Gaussian System, Link 0=g16
 Input=_conf030.gjf
 Output=_conf030.log
 Initial command:
 /opt/ap/G16/B01/g16/l1.exe "/tmp2/scr/Gau-32531.inp" -scrdir="/tmp2/scr/"
 Entering Link 1 = /opt/ap/G16/B01/g16/l1.exe PID=     32532.
  
 Copyright (c) 1988-2017, Gaussian, Inc.  All Rights Reserved.
  
 This is part of the Gaussian(R) 16 program.  It is based on
 the Gaussian(R) 09 system (copyright 2009, Gaussian, Inc.),
 the Gaussian(R) 03 system (copyright 2003, Gaussian, Inc.),
 the Gaussian(R) 98 system (copyright 1998, Gaussian, Inc.),
 the Gaussian(R) 94 system (copyright 1995, Gaussian, Inc.),
 the Gaussian 92(TM) system (copyright 1992, Gaussian, Inc.),
 the Gaussian 90(TM) system (copyright 1990, Gaussian, Inc.),
 the Gaussian 88(TM) system (copyright 1988, Gaussian, Inc.),
 the Gaussian 86(TM) system (copyright 1986, Carnegie Mellon
 University), and the Gaussian 82(TM) system (copyright 1983,
 Carnegie Mellon University). Gaussian is a federally registered
 trademark of Gaussian, Inc.
  
 This software contains proprietary and confidential information,
 including trade secrets, belonging to Gaussian, Inc.
  
 This software is provided under written license and may be
 used, copied, transmitted, or stored only in accord with that
 written license.
  
 The following legend is applicable only to US Government
 contracts under FAR:
  
                    RESTRICTED RIGHTS LEGEND
  
 Use, reproduction and disclosure by the US Government is
 subject to restrictions as set forth in subparagraphs (a)
 and (c) of the Commercial Computer Software - Restricted
 Rights clause in FAR 52.227-19.
  
 Gaussian, Inc.
 340 Quinnipiac St., Bldg. 40, Wallingford CT 06492
  
  
 ---------------------------------------------------------------
 Warning -- This program may not be used in any manner that
 competes with the business of Gaussian, Inc. or will provide
 assistance to any competitor of Gaussian, Inc.  The licensee
 of this program is prohibited from giving any competitor of
 Gaussian, Inc. access to this program.  By using this program,
 the user acknowledges that Gaussian, Inc. is engaged in the
 business of creating and licensing software in the field of
 computational chemistry and represents and warrants to the
 licensee that it is not a competitor of Gaussian, Inc. and that
 it will not use this program in any manner prohibited above.
 ---------------------------------------------------------------
  

 Cite this work as:
 Gaussian 16, Revision B.01,
 M. J. Frisch, G. W. Trucks, H. B. Schlegel, G. E. Scuseria, 
 M. A. Robb, J. R. Cheeseman, G. Scalmani, V. Barone, 
 G. A. Petersson, H. Nakatsuji, X. Li, M. Caricato, A. V. Marenich, 
 J. Bloino, B. G. Janesko, R. Gomperts, B. Mennucci, H. P. Hratchian, 
 J. V. Ortiz, A. F. Izmaylov, J. L. Sonnenberg, D. Williams-Young, 
 F. Ding, F. Lipparini, F. Egidi, J. Goings, B. Peng, A. Petrone, 
 T. Henderson, D. Ranasinghe, V. G. Zakrzewski, J. Gao, N. Rega, 
 G. Zheng, W. Liang, M. Hada, M. Ehara, K. Toyota, R. Fukuda, 
 J. Hasegawa, M. Ishida, T. Nakajima, Y. Honda, O. Kitao, H. Nakai, 
 T. Vreven, K. Throssell, J. A. Montgomery, Jr., J. E. Peralta, 
 F. Ogliaro, M. J. Bearpark, J. J. Heyd, E. N. Brothers, K. N. Kudin, 
 V. N. Staroverov, T. A. Keith, R. Kobayashi, J. Normand, 
 K. Raghavachari, A. P. Rendell, J. C. Burant, S. S. Iyengar, 
 J. Tomasi, M. Cossi, J. M. Millam, M. Klene, C. Adamo, R. Cammi, 
 J. W. Ochterski, R. L. Martin, K. Morokuma, O. Farkas, 
 J. B. Foresman, and D. J. Fox, Gaussian, Inc., Wallingford CT, 2016.
 
 ******************************************
 Gaussian 16:  ES64L-G16RevB.01 20-Dec-2017
                 6-Nov-2022 
 ******************************************
 %nprocshared=32
 Will use up to   32 processors via shared memory.
 %mem=120GB
 %chk=_conf030.chk
 ----------------------------------------
 #P wB97XD/6-311++G(d,p) scf=maxcycle=512
 ----------------------------------------
 1/38=1,172=1/1;
 2/12=2,17=6,18=5,40=1/2;
 3/5=4,6=6,7=1111,11=2,25=1,30=1,74=-58/1,2,3;
 4//1;
 5/5=2,7=512,38=5/2;
 6/7=2,8=2,9=2,10=2,28=1/1;
 99/5=1,9=1/99;
 Leave Link    1 at Sun Nov  6 23:01:52 2022, MaxMem= 16106127360 cpu:               1.6 elap:               0.1
 (Enter /opt/ap/G16/B01/g16/l101.exe)
 ----------------------------
 _conf030.gjf nmol_natom 1_15
 ----------------------------
 Symbolic Z-matrix:
 Charge =  0 Multiplicity = 1
 C
 C                    1     1.39016 
 C                    1     1.39195  2     119.89594 
 C                    2     1.38669  1     119.88076  3     0.70826  0
 H                    2     0.98744  1     119.71654  3    -179.90726  0
 C                    1     1.48429  2     119.93615  4    -179.87772  0
 C                    3     1.40101  1     119.72365  2    -0.26267  0
 H                    3     0.99022  1     119.18862  2     178.85398  0
 C                    4     1.37899  2     120.45786  1    -0.48041  0
 H                    4     0.98347  2     120.30443  1     179.36167  0
 O                    6     1.2746   1     118.00615  2     60.      0
 O                    6     1.26363  1     118.77715  2    -120.     0
 H                    7     0.98977  3     119.37862  1    -178.93546  0
 H                    9     0.99498  4     119.46723  2    -178.58827  0
 H                    11    0.8968   6     118.15824  1     176.92714  0
 
 ITRead=  0  0  0  0  0  0  0  0  0  0  0  0  0  0  0
 MicOpt= -1 -1 -1 -1 -1 -1 -1 -1 -1 -1 -1 -1 -1 -1 -1
 NAtoms=     15 NQM=       15 NQMF=       0 NMMI=      0 NMMIF=      0
                NMic=       0 NMicF=      0.
                    Isotopes and Nuclear Properties:
 (Nuclear quadrupole moments (NQMom) in fm**2, nuclear magnetic moments (NMagM)
  in nuclear magnetons)

  Atom         1           2           3           4           5           6           7           8           9          10
 IAtWgt=          12          12          12          12           1          12          12           1          12           1
 AtmWgt=  12.0000000  12.0000000  12.0000000  12.0000000   1.0078250  12.0000000  12.0000000   1.0078250  12.0000000   1.0078250
 NucSpn=           0           0           0           0           1           0           0           1           0           1
 AtZEff=  -0.0000000  -0.0000000  -0.0000000  -0.0000000  -0.0000000  -0.0000000  -0.0000000  -0.0000000  -0.0000000  -0.0000000
 NQMom=    0.0000000   0.0000000   0.0000000   0.0000000   0.0000000   0.0000000   0.0000000   0.0000000   0.0000000   0.0000000
 NMagM=    0.0000000   0.0000000   0.0000000   0.0000000   2.7928460   0.0000000   0.0000000   2.7928460   0.0000000   2.7928460
 AtZNuc=   6.0000000   6.0000000   6.0000000   6.0000000   1.0000000   6.0000000   6.0000000   1.0000000   6.0000000   1.0000000

  Atom        11          12          13          14          15
 IAtWgt=          16          16           1           1           1
 AtmWgt=  15.9949146  15.9949146   1.0078250   1.0078250   1.0078250
 NucSpn=           0           0           1           1           1
 AtZEff=  -0.0000000  -0.0000000  -0.0000000  -0.0000000  -0.0000000
 NQMom=    0.0000000   0.0000000   0.0000000   0.0000000   0.0000000
 NMagM=    0.0000000   0.0000000   2.7928460   2.7928460   2.7928460
 AtZNuc=   8.0000000   8.0000000   1.0000000   1.0000000   1.0000000
 Leave Link  101 at Sun Nov  6 23:01:52 2022, MaxMem= 16106127360 cpu:               5.2 elap:               0.2
 (Enter /opt/ap/G16/B01/g16/l202.exe)
                          Input orientation:                          
 ---------------------------------------------------------------------
 Center     Atomic      Atomic             Coordinates (Angstroms)
 Number     Number       Type             X           Y           Z
 ---------------------------------------------------------------------
      1          6           0        0.000000    0.000000    0.000000
      2          6           0        0.000000    0.000000    1.390162
      3          6           0        1.206722    0.000000   -0.693782
      4          6           0        1.202258    0.014862    2.081006
      5          1           0       -0.857581   -0.001388    1.879646
      6          6           0       -1.286190   -0.013155   -0.740711
      7          6           0        2.415349    0.005578    0.014752
      8          1           0        1.194584   -0.017290   -1.683772
      9          6           0        2.400563    0.019708    1.398617
     10          1           0        1.209438    0.024411    3.064408
     11          8           0       -2.095563    0.953190   -0.551788
     12          8           0       -1.527165   -0.974850   -1.524180
     13          1           0        3.270315    0.021574   -0.483669
     14          1           0        3.254554    0.009066    1.909081
     15          1           0       -2.854457    0.969145   -1.029368
 ---------------------------------------------------------------------
                    Distance matrix (angstroms):
                    1          2          3          4          5
     1  C    0.000000
     2  C    1.390162   0.000000
     3  C    1.391945   2.408112   0.000000
     4  C    2.403379   1.386690   2.774832   0.000000
     5  H    2.066039   0.987443   3.299073   2.069721   0.000000
     6  C    1.484288   2.488991   2.493388   3.762345   2.655206
     7  C    2.415401   2.779513   1.401011   2.396056   3.766955
     8  H    2.064563   3.297939   0.990215   3.764924   4.112127
     9  C    2.778349   2.400659   2.409104   1.378990   3.293530
    10  H    3.294530   2.065535   3.758270   0.983474   2.382624
    11  O    2.367367   3.011831   3.440032   4.322925   2.890621
    12  O    2.367633   3.431610   3.018945   4.628892   3.603054
    13  H    3.305958   3.769173   2.074374   3.294611   4.756607
    14  H    3.773167   3.295676   3.311886   2.059493   4.112253
    15  H    3.185399   3.865397   4.188680   5.200194   3.659482
                    6          7          8          9         10
     6  C    0.000000
     7  C    3.777892   0.000000
     8  H    2.653982   2.091836   0.000000
     9  C    4.262622   1.384016   3.310118   0.000000
    10  H    4.550659   3.279477   4.748386   2.047842   0.000000
    11  O    1.274598   4.644057   3.612241   4.989049   4.986234
    12  O    1.263626   4.344303   2.889690   4.995891   5.435315
    13  H    4.563881   0.989771   2.398003   2.073517   4.103177
    14  H    5.257398   2.071897   4.141589   0.994981   2.348938
    15  H    1.872885   5.457976   4.218535   5.866155   5.845234
                   11         12         13         14         15
    11  O    0.000000
    12  O    2.232926   0.000000
    13  H    5.446576   5.009125   0.000000
    14  H    5.964142   5.968266   2.392834   0.000000
    15  H    0.896804   2.405340   6.221616   6.846623   0.000000
 Stoichiometry    C7H6O2
 Framework group  C1[X(C7H6O2)]
 Deg. of freedom    39
 Full point group                 C1      NOp   1
 Largest Abelian subgroup         C1      NOp   1
 Largest concise Abelian subgroup C1      NOp   1
                         Standard orientation:                         
 ---------------------------------------------------------------------
 Center     Atomic      Atomic             Coordinates (Angstroms)
 Number     Number       Type             X           Y           Z
 ---------------------------------------------------------------------
      1          6           0        0.220795    0.018173    0.014241
      2          6           0       -0.459917   -1.168143    0.262910
      3          6           0       -0.491571    1.185656   -0.244663
      4          6           0       -1.846242   -1.187512    0.237656
      5          1           0        0.048072   -1.994503    0.447625
      6          6           0        1.704731    0.039713    0.038282
      7          6           0       -1.892205    1.156183   -0.258389
      8          1           0        0.003600    2.028333   -0.403494
      9          6           0       -2.556799   -0.034787   -0.023007
     10          1           0       -2.333942   -2.025300    0.403429
     11          8           0        2.327570   -0.711027   -0.782120
     12          8           0        2.288817    0.795974    0.865122
     13          1           0       -2.393391    1.985844   -0.458690
     14          1           0       -3.551416   -0.060926   -0.016691
     15          1           0        3.223228   -0.668722   -0.798370
 ---------------------------------------------------------------------
 Rotational constants (GHZ):           3.9687418           1.1644759           0.9924840
 Leave Link  202 at Sun Nov  6 23:01:52 2022, MaxMem= 16106127360 cpu:               0.2 elap:               0.0
 (Enter /opt/ap/G16/B01/g16/l301.exe)
 Standard basis: 6-311++G(d,p) (5D, 7F)
 Ernie: Thresh=  0.10000D-02 Tol=  0.10000D-05 Strict=F.
 There are   249 symmetry adapted cartesian basis functions of A   symmetry.
 There are   240 symmetry adapted basis functions of A   symmetry.
   240 basis functions,   378 primitive gaussians,   249 cartesian basis functions
    32 alpha electrons       32 beta electrons
       nuclear repulsion energy       408.4562946226 Hartrees.
 IExCor= 4639 DFT=T Ex+Corr=wB97XD ExCW=0 ScaHFX=  1.000000
 ScaDFX=  1.000000  1.000000  1.000000  1.000000 ScalE2=  1.000000  1.000000
 IRadAn=      5 IRanWt=     -1 IRanGd=            0 ICorTp=0 IEmpDi=121
 HFx  wShort=  0.000000 wLong=  0.200000 cFull=  0.222036 cShort=  0.000000 cLong=  0.777964
 DFx  wShort=  0.000000 wLong=  0.200000 cFull=  0.000000 cShort=  0.000000 cLong=  1.000000
 NAtoms=   15 NActive=   15 NUniq=   15 SFac= 1.00D+00 NAtFMM=   60 NAOKFM=F Big=F
 Integral buffers will be    131072 words long.
 Raffenetti 2 integral format.
 Two-electron integral symmetry is turned on.
 R6Disp:  Grimme-D2 Dispersion energy=       -0.0064718172 Hartrees.
 Nuclear repulsion after empirical dispersion term =      408.4498228054 Hartrees.
 Leave Link  301 at Sun Nov  6 23:01:53 2022, MaxMem= 16106127360 cpu:               1.2 elap:               0.0
 (Enter /opt/ap/G16/B01/g16/l302.exe)
 NPDir=0 NMtPBC=     1 NCelOv=     1 NCel=       1 NClECP=     1 NCelD=      1
         NCelK=      1 NCelE2=     1 NClLst=     1 CellRange=     0.0.
 One-electron integrals computed using PRISM.
 One-electron integral symmetry used in STVInt
 NBasis=   240 RedAO= T EigKep=  1.19D-06  NBF=   240
 NBsUse=   240 1.00D-06 EigRej= -1.00D+00 NBFU=   240
 Precomputing XC quadrature grid using
 IXCGrd= 4 IRadAn=           5 IRanWt=          -1 IRanGd=           0 AccXCQ= 0.00D+00.
 Generated NRdTot=       0 NPtTot=           0 NUsed=           0 NTot=          32
 NSgBfM=   249   249   249   249   249 MxSgAt=    15 MxSgA2=    15.
 Leave Link  302 at Sun Nov  6 23:01:53 2022, MaxMem= 16106127360 cpu:               5.3 elap:               0.2
 (Enter /opt/ap/G16/B01/g16/l303.exe)
 DipDrv:  MaxL=1.
 Leave Link  303 at Sun Nov  6 23:01:53 2022, MaxMem= 16106127360 cpu:               1.2 elap:               0.0
 (Enter /opt/ap/G16/B01/g16/l401.exe)
 ExpMin= 3.60D-02 ExpMax= 8.59D+03 ExpMxC= 1.30D+03 IAcc=3 IRadAn=         5 AccDes= 0.00D+00
 Harris functional with IExCor= 4639 and IRadAn=       5 diagonalized for initial guess.
 HarFok:  IExCor= 4639 AccDes= 0.00D+00 IRadAn=         5 IDoV= 1 UseB2=F ITyADJ=14
 ICtDFT=  3500011 ScaDFX=  1.000000  1.000000  1.000000  1.000000
 FoFCou: FMM=F IPFlag=           0 FMFlag=      100000 FMFlg1=           0
         NFxFlg=           0 DoJE=T BraDBF=F KetDBF=T FulRan=T
         wScrn=  0.000000 ICntrl=       500 IOpCl=  0 I1Cent=   200000004 NGrid=           0
         NMat0=    1 NMatS0=      1 NMatT0=    0 NMatD0=    1 NMtDS0=    0 NMtDT0=    0
 Petite list used in FoFCou.
 Harris En= -403.250656059164    
 JPrj=0 DoOrth=F DoCkMO=F.
 Leave Link  401 at Sun Nov  6 23:01:53 2022, MaxMem= 16106127360 cpu:              11.7 elap:               0.4
 (Enter /opt/ap/G16/B01/g16/l502.exe)
 Integral symmetry usage will be decided dynamically.
 Closed shell SCF:
 Using DIIS extrapolation, IDIIS=  1040.
 NGot= 16106127360 LenX= 16105992971 LenY= 16105930529
 Requested convergence on RMS density matrix=1.00D-08 within 512 cycles.
 Requested convergence on MAX density matrix=1.00D-06.
 Requested convergence on             energy=1.00D-06.
 No special actions if energy rises.
 Fock matrices will be formed incrementally for  20 cycles.

 Cycle   1  Pass 1  IDiag  1:
 FoFJK:  IHMeth= 1 ICntrl=       0 DoSepK=T KAlg= 0 I1Cent=           0 FoldK=F
 IRaf=         1 NMat=       1 IRICut=       1 DoRegI=T DoRafI=F ISym2E= 0 IDoP0=0 IntGTp=1.
 FoFCou: FMM=F IPFlag=           0 FMFlag=      100000 FMFlg1=           0
         NFxFlg=           0 DoJE=T BraDBF=F KetDBF=F FulRan=T
         wScrn=  0.000000 ICntrl=       500 IOpCl=  0 I1Cent=           0 NGrid=           0
         NMat0=    1 NMatS0=      1 NMatT0=    0 NMatD0=    1 NMtDS0=    0 NMtDT0=    0
 Symmetry not used in FoFCou.
 E= -420.623184618896    
 DIIS: error= 7.33D-02 at cycle   1 NSaved=   1.
 NSaved= 1 IEnMin= 1 EnMin= -420.623184618896     IErMin= 1 ErrMin= 7.33D-02
 ErrMax= 7.33D-02  0.00D+00 EMaxC= 1.00D-01 BMatC= 8.62D-01 BMatP= 8.62D-01
 IDIUse=3 WtCom= 2.67D-01 WtEn= 7.33D-01
 Coeff-Com:  0.100D+01
 Coeff-En:   0.100D+01
 Coeff:      0.100D+01
 Gap=     0.474 Goal=   None    Shift=    0.000
 GapD=    0.474 DampG=2.000 DampE=0.500 DampFc=1.0000 IDamp=-1.
 RMSDP=1.78D-02 MaxDP=1.35D+00              OVMax= 9.67D-02

 Cycle   2  Pass 1  IDiag  1:
 RMSU=  1.19D-02    CP:  7.62D-01
 E= -420.695706375876     Delta-E=       -0.072521756980 Rises=F Damp=F
 DIIS: error= 1.37D-02 at cycle   2 NSaved=   2.
 NSaved= 2 IEnMin= 2 EnMin= -420.695706375876     IErMin= 2 ErrMin= 1.37D-02
 ErrMax= 1.37D-02  0.00D+00 EMaxC= 1.00D-01 BMatC= 5.72D-02 BMatP= 8.62D-01
 IDIUse=3 WtCom= 8.63D-01 WtEn= 1.37D-01
 Coeff-Com:  0.136D+00 0.864D+00
 Coeff-En:   0.926D-01 0.907D+00
 Coeff:      0.130D+00 0.870D+00
 Gap=     0.459 Goal=   None    Shift=    0.000
 RMSDP=8.95D-03 MaxDP=4.28D-01 DE=-7.25D-02 OVMax= 8.03D-02

 Cycle   3  Pass 1  IDiag  1:
 RMSU=  6.54D-03    CP:  6.92D-01  6.06D-01
 E= -420.711607577902     Delta-E=       -0.015901202026 Rises=F Damp=F
 DIIS: error= 1.33D-02 at cycle   3 NSaved=   3.
 NSaved= 3 IEnMin= 3 EnMin= -420.711607577902     IErMin= 3 ErrMin= 1.33D-02
 ErrMax= 1.33D-02  0.00D+00 EMaxC= 1.00D-01 BMatC= 3.62D-02 BMatP= 5.72D-02
 IDIUse=3 WtCom= 8.67D-01 WtEn= 1.33D-01
 Coeff-Com:  0.286D-01 0.449D+00 0.523D+00
 Coeff-En:   0.000D+00 0.387D+00 0.613D+00
 Coeff:      0.248D-01 0.440D+00 0.535D+00
 Gap=     0.368 Goal=   None    Shift=    0.000
 RMSDP=3.51D-03 MaxDP=2.05D-01 DE=-1.59D-02 OVMax= 5.30D-02

 Cycle   4  Pass 1  IDiag  1:
 RMSU=  1.74D-03    CP:  6.88D-01  7.75D-01  6.52D-01
 E= -420.737954670002     Delta-E=       -0.026347092100 Rises=F Damp=F
 DIIS: error= 3.02D-03 at cycle   4 NSaved=   4.
 NSaved= 4 IEnMin= 4 EnMin= -420.737954670002     IErMin= 4 ErrMin= 3.02D-03
 ErrMax= 3.02D-03  0.00D+00 EMaxC= 1.00D-01 BMatC= 2.18D-03 BMatP= 3.62D-02
 IDIUse=3 WtCom= 9.70D-01 WtEn= 3.02D-02
 Coeff-Com:  0.105D-01 0.221D+00 0.304D+00 0.465D+00
 Coeff-En:   0.000D+00 0.000D+00 0.000D+00 0.100D+01
 Coeff:      0.102D-01 0.214D+00 0.295D+00 0.481D+00
 Gap=     0.366 Goal=   None    Shift=    0.000
 RMSDP=7.23D-04 MaxDP=4.30D-02 DE=-2.63D-02 OVMax= 1.37D-02

 Cycle   5  Pass 1  IDiag  1:
 RMSU=  6.04D-04    CP:  6.86D-01  7.67D-01  6.85D-01  8.32D-01
 E= -420.739424775290     Delta-E=       -0.001470105288 Rises=F Damp=F
 DIIS: error= 4.52D-04 at cycle   5 NSaved=   5.
 NSaved= 5 IEnMin= 5 EnMin= -420.739424775290     IErMin= 5 ErrMin= 4.52D-04
 ErrMax= 4.52D-04  0.00D+00 EMaxC= 1.00D-01 BMatC= 5.40D-05 BMatP= 2.18D-03
 IDIUse=3 WtCom= 9.95D-01 WtEn= 4.52D-03
 Coeff-Com:  0.549D-03 0.200D-01 0.361D-01 0.155D+00 0.788D+00
 Coeff-En:   0.000D+00 0.000D+00 0.000D+00 0.000D+00 0.100D+01
 Coeff:      0.547D-03 0.199D-01 0.360D-01 0.154D+00 0.789D+00
 Gap=     0.363 Goal=   None    Shift=    0.000
 RMSDP=1.89D-04 MaxDP=7.85D-03 DE=-1.47D-03 OVMax= 3.05D-03

 Cycle   6  Pass 1  IDiag  1:
 RMSU=  1.36D-04    CP:  6.86D-01  7.70D-01  7.02D-01  8.62D-01  1.05D+00
 E= -420.739466843347     Delta-E=       -0.000042068057 Rises=F Damp=F
 DIIS: error= 1.78D-04 at cycle   6 NSaved=   6.
 NSaved= 6 IEnMin= 6 EnMin= -420.739466843347     IErMin= 6 ErrMin= 1.78D-04
 ErrMax= 1.78D-04  0.00D+00 EMaxC= 1.00D-01 BMatC= 7.41D-06 BMatP= 5.40D-05
 IDIUse=3 WtCom= 9.98D-01 WtEn= 1.78D-03
 Coeff-Com: -0.959D-03-0.163D-01-0.178D-01 0.118D-01 0.339D+00 0.684D+00
 Coeff-En:   0.000D+00 0.000D+00 0.000D+00 0.000D+00 0.000D+00 0.100D+01
 Coeff:     -0.957D-03-0.163D-01-0.178D-01 0.118D-01 0.339D+00 0.685D+00
 Gap=     0.364 Goal=   None    Shift=    0.000
 RMSDP=1.07D-04 MaxDP=6.02D-03 DE=-4.21D-05 OVMax= 1.08D-03

 Cycle   7  Pass 1  IDiag  1:
 RMSU=  4.34D-05    CP:  6.85D-01  7.69D-01  7.08D-01  8.84D-01  1.13D+00
                    CP:  1.13D+00
 E= -420.739474538276     Delta-E=       -0.000007694929 Rises=F Damp=F
 DIIS: error= 5.43D-05 at cycle   7 NSaved=   7.
 NSaved= 7 IEnMin= 7 EnMin= -420.739474538276     IErMin= 7 ErrMin= 5.43D-05
 ErrMax= 5.43D-05  0.00D+00 EMaxC= 1.00D-01 BMatC= 3.27D-07 BMatP= 7.41D-06
 IDIUse=1 WtCom= 1.00D+00 WtEn= 0.00D+00
 Coeff-Com: -0.227D-03-0.534D-02-0.658D-02-0.140D-01-0.682D-02 0.122D+00
 Coeff-Com:  0.911D+00
 Coeff:     -0.227D-03-0.534D-02-0.658D-02-0.140D-01-0.682D-02 0.122D+00
 Coeff:      0.911D+00
 Gap=     0.364 Goal=   None    Shift=    0.000
 RMSDP=3.90D-05 MaxDP=2.33D-03 DE=-7.69D-06 OVMax= 4.11D-04

 Cycle   8  Pass 1  IDiag  1:
 RMSU=  1.44D-05    CP:  6.85D-01  7.70D-01  7.10D-01  8.88D-01  1.18D+00
                    CP:  1.21D+00  1.20D+00
 E= -420.739475245532     Delta-E=       -0.000000707257 Rises=F Damp=F
 DIIS: error= 1.55D-05 at cycle   8 NSaved=   8.
 NSaved= 8 IEnMin= 8 EnMin= -420.739475245532     IErMin= 8 ErrMin= 1.55D-05
 ErrMax= 1.55D-05  0.00D+00 EMaxC= 1.00D-01 BMatC= 5.21D-08 BMatP= 3.27D-07
 IDIUse=1 WtCom= 1.00D+00 WtEn= 0.00D+00
 Coeff-Com:  0.400D-04 0.400D-03 0.420D-03-0.577D-02-0.419D-01-0.474D-01
 Coeff-Com:  0.257D+00 0.837D+00
 Coeff:      0.400D-04 0.400D-03 0.420D-03-0.577D-02-0.419D-01-0.474D-01
 Coeff:      0.257D+00 0.837D+00
 Gap=     0.364 Goal=   None    Shift=    0.000
 RMSDP=1.08D-05 MaxDP=4.59D-04 DE=-7.07D-07 OVMax= 1.85D-04

 Cycle   9  Pass 1  IDiag  1:
 RMSU=  4.36D-06    CP:  6.85D-01  7.69D-01  7.10D-01  8.89D-01  1.19D+00
                    CP:  1.23D+00  1.30D+00  1.18D+00
 E= -420.739475349136     Delta-E=       -0.000000103603 Rises=F Damp=F
 DIIS: error= 9.44D-06 at cycle   9 NSaved=   9.
 NSaved= 9 IEnMin= 9 EnMin= -420.739475349136     IErMin= 9 ErrMin= 9.44D-06
 ErrMax= 9.44D-06  0.00D+00 EMaxC= 1.00D-01 BMatC= 7.53D-09 BMatP= 5.21D-08
 IDIUse=1 WtCom= 1.00D+00 WtEn= 0.00D+00
 Coeff-Com:  0.463D-04 0.896D-03 0.114D-02-0.888D-04-0.123D-01-0.328D-01
 Coeff-Com: -0.360D-01 0.275D+00 0.804D+00
 Coeff:      0.463D-04 0.896D-03 0.114D-02-0.888D-04-0.123D-01-0.328D-01
 Coeff:     -0.360D-01 0.275D+00 0.804D+00
 Gap=     0.364 Goal=   None    Shift=    0.000
 RMSDP=4.03D-06 MaxDP=3.03D-04 DE=-1.04D-07 OVMax= 5.81D-05

 Cycle  10  Pass 1  IDiag  1:
 RMSU=  2.04D-06    CP:  6.85D-01  7.69D-01  7.10D-01  8.87D-01  1.19D+00
                    CP:  1.23D+00  1.32D+00  1.24D+00  1.29D+00
 E= -420.739475363216     Delta-E=       -0.000000014081 Rises=F Damp=F
 DIIS: error= 1.46D-06 at cycle  10 NSaved=  10.
 NSaved=10 IEnMin=10 EnMin= -420.739475363216     IErMin=10 ErrMin= 1.46D-06
 ErrMax= 1.46D-06  0.00D+00 EMaxC= 1.00D-01 BMatC= 9.51D-10 BMatP= 7.53D-09
 IDIUse=1 WtCom= 1.00D+00 WtEn= 0.00D+00
 Coeff-Com:  0.929D-05 0.203D-03 0.283D-03 0.535D-03 0.116D-02-0.489D-02
 Coeff-Com: -0.389D-01-0.154D-01 0.257D+00 0.800D+00
 Coeff:      0.929D-05 0.203D-03 0.283D-03 0.535D-03 0.116D-02-0.489D-02
 Coeff:     -0.389D-01-0.154D-01 0.257D+00 0.800D+00
 Gap=     0.364 Goal=   None    Shift=    0.000
 RMSDP=1.47D-06 MaxDP=8.33D-05 DE=-1.41D-08 OVMax= 2.52D-05

 Cycle  11  Pass 1  IDiag  1:
 RMSU=  5.11D-07    CP:  6.85D-01  7.69D-01  7.10D-01  8.87D-01  1.19D+00
                    CP:  1.22D+00  1.32D+00  1.28D+00  1.44D+00  1.00D+00
 E= -420.739475364865     Delta-E=       -0.000000001648 Rises=F Damp=F
 DIIS: error= 7.02D-07 at cycle  11 NSaved=  11.
 NSaved=11 IEnMin=11 EnMin= -420.739475364865     IErMin=11 ErrMin= 7.02D-07
 ErrMax= 7.02D-07  0.00D+00 EMaxC= 1.00D-01 BMatC= 1.65D-10 BMatP= 9.51D-10
 IDIUse=1 WtCom= 1.00D+00 WtEn= 0.00D+00
 Coeff-Com: -0.222D-05-0.240D-04-0.155D-04 0.265D-03 0.228D-02 0.233D-02
 Coeff-Com: -0.981D-02-0.505D-01-0.206D-01 0.308D+00 0.768D+00
 Coeff:     -0.222D-05-0.240D-04-0.155D-04 0.265D-03 0.228D-02 0.233D-02
 Coeff:     -0.981D-02-0.505D-01-0.206D-01 0.308D+00 0.768D+00
 Gap=     0.364 Goal=   None    Shift=    0.000
 RMSDP=5.56D-07 MaxDP=2.77D-05 DE=-1.65D-09 OVMax= 7.71D-06

 Cycle  12  Pass 1  IDiag  1:
 RMSU=  2.92D-07    CP:  6.85D-01  7.69D-01  7.10D-01  8.87D-01  1.19D+00
                    CP:  1.22D+00  1.32D+00  1.29D+00  1.48D+00  1.08D+00
                    CP:  1.14D+00
 E= -420.739475365124     Delta-E=       -0.000000000260 Rises=F Damp=F
 DIIS: error= 1.67D-07 at cycle  12 NSaved=  12.
 NSaved=12 IEnMin=12 EnMin= -420.739475365124     IErMin=12 ErrMin= 1.67D-07
 ErrMax= 1.67D-07  0.00D+00 EMaxC= 1.00D-01 BMatC= 1.16D-11 BMatP= 1.65D-10
 IDIUse=1 WtCom= 1.00D+00 WtEn= 0.00D+00
 Coeff-Com: -0.129D-05-0.218D-04-0.257D-04 0.222D-04 0.445D-03 0.874D-03
 Coeff-Com:  0.164D-02-0.113D-01-0.259D-01 0.105D-01 0.175D+00 0.849D+00
 Coeff:     -0.129D-05-0.218D-04-0.257D-04 0.222D-04 0.445D-03 0.874D-03
 Coeff:      0.164D-02-0.113D-01-0.259D-01 0.105D-01 0.175D+00 0.849D+00
 Gap=     0.364 Goal=   None    Shift=    0.000
 RMSDP=1.82D-07 MaxDP=9.07D-06 DE=-2.60D-10 OVMax= 3.64D-06

 Cycle  13  Pass 1  IDiag  1:
 RMSU=  8.61D-08    CP:  6.85D-01  7.69D-01  7.10D-01  8.87D-01  1.19D+00
                    CP:  1.22D+00  1.32D+00  1.29D+00  1.49D+00  1.07D+00
                    CP:  1.24D+00  1.16D+00
 E= -420.739475365158     Delta-E=       -0.000000000033 Rises=F Damp=F
 DIIS: error= 1.10D-07 at cycle  13 NSaved=  13.
 NSaved=13 IEnMin=13 EnMin= -420.739475365158     IErMin=13 ErrMin= 1.10D-07
 ErrMax= 1.10D-07  0.00D+00 EMaxC= 1.00D-01 BMatC= 2.55D-12 BMatP= 1.16D-11
 IDIUse=1 WtCom= 1.00D+00 WtEn= 0.00D+00
 Coeff-Com:  0.107D-06-0.349D-05-0.750D-05-0.508D-04-0.355D-03-0.234D-03
 Coeff-Com:  0.261D-02 0.679D-02-0.226D-02-0.598D-01-0.129D+00 0.210D+00
 Coeff-Com:  0.972D+00
 Coeff:      0.107D-06-0.349D-05-0.750D-05-0.508D-04-0.355D-03-0.234D-03
 Coeff:      0.261D-02 0.679D-02-0.226D-02-0.598D-01-0.129D+00 0.210D+00
 Coeff:      0.972D+00
 Gap=     0.364 Goal=   None    Shift=    0.000
 RMSDP=8.32D-08 MaxDP=4.14D-06 DE=-3.34D-11 OVMax= 2.43D-06

 Cycle  14  Pass 1  IDiag  1:
 RMSU=  3.50D-08    CP:  6.85D-01  7.69D-01  7.10D-01  8.87D-01  1.19D+00
                    CP:  1.22D+00  1.32D+00  1.29D+00  1.49D+00  1.07D+00
                    CP:  1.32D+00  1.30D+00  1.33D+00
 E= -420.739475365166     Delta-E=       -0.000000000008 Rises=F Damp=F
 DIIS: error= 2.86D-08 at cycle  14 NSaved=  14.
 NSaved=14 IEnMin=14 EnMin= -420.739475365166     IErMin=14 ErrMin= 2.86D-08
 ErrMax= 2.86D-08  0.00D+00 EMaxC= 1.00D-01 BMatC= 1.99D-13 BMatP= 2.55D-12
 IDIUse=1 WtCom= 1.00D+00 WtEn= 0.00D+00
 Coeff-Com:  0.880D-07 0.230D-05 0.306D-05 0.203D-05-0.433D-04-0.521D-04
 Coeff-Com: -0.314D-03 0.915D-03 0.294D-02 0.182D-03-0.113D-01-0.103D+00
 Coeff-Com: -0.617D-01 0.117D+01
 Coeff:      0.880D-07 0.230D-05 0.306D-05 0.203D-05-0.433D-04-0.521D-04
 Coeff:     -0.314D-03 0.915D-03 0.294D-02 0.182D-03-0.113D-01-0.103D+00
 Coeff:     -0.617D-01 0.117D+01
 Gap=     0.364 Goal=   None    Shift=    0.000
 RMSDP=3.52D-08 MaxDP=2.52D-06 DE=-8.41D-12 OVMax= 9.45D-07

 Cycle  15  Pass 1  IDiag  1:
 RMSU=  8.41D-09    CP:  6.85D-01  7.69D-01  7.10D-01  8.87D-01  1.19D+00
                    CP:  1.22D+00  1.32D+00  1.29D+00  1.49D+00  1.06D+00
                    CP:  1.33D+00  1.32D+00  1.53D+00  1.41D+00
 E= -420.739475365171     Delta-E=       -0.000000000005 Rises=F Damp=F
 DIIS: error= 1.01D-08 at cycle  15 NSaved=  15.
 NSaved=15 IEnMin=15 EnMin= -420.739475365171     IErMin=15 ErrMin= 1.01D-08
 ErrMax= 1.01D-08  0.00D+00 EMaxC= 1.00D-01 BMatC= 2.83D-14 BMatP= 1.99D-13
 IDIUse=1 WtCom= 1.00D+00 WtEn= 0.00D+00
 Coeff-Com:  0.159D-07 0.105D-05 0.174D-05 0.599D-05 0.236D-04 0.129D-04
 Coeff-Com: -0.354D-03-0.395D-03 0.108D-02 0.640D-02 0.113D-01-0.451D-01
 Coeff-Com: -0.116D+00 0.325D+00 0.818D+00
 Coeff:      0.159D-07 0.105D-05 0.174D-05 0.599D-05 0.236D-04 0.129D-04
 Coeff:     -0.354D-03-0.395D-03 0.108D-02 0.640D-02 0.113D-01-0.451D-01
 Coeff:     -0.116D+00 0.325D+00 0.818D+00
 Gap=     0.364 Goal=   None    Shift=    0.000
 RMSDP=7.78D-09 MaxDP=6.16D-07 DE=-5.00D-12 OVMax= 1.68D-07

 SCF Done:  E(RwB97XD) =  -420.739475365     A.U. after   15 cycles
            NFock= 15  Conv=0.78D-08     -V/T= 2.0015
 KE= 4.201128661330D+02 PE=-1.800318517558D+03 EE= 5.510163532543D+02
 Leave Link  502 at Sun Nov  6 23:02:06 2022, MaxMem= 16106127360 cpu:             406.4 elap:              12.7
 (Enter /opt/ap/G16/B01/g16/l601.exe)
 Copying SCF densities to generalized density rwf, IOpCl= 0 IROHF=0.

 **********************************************************************

            Population analysis using the SCF Density.

 **********************************************************************

 Orbital symmetries:
       Occupied  (A) (A) (A) (A) (A) (A) (A) (A) (A) (A) (A) (A)
                 (A) (A) (A) (A) (A) (A) (A) (A) (A) (A) (A) (A)
                 (A) (A) (A) (A) (A) (A) (A) (A)
       Virtual   (A) (A) (A) (A) (A) (A) (A) (A) (A) (A) (A) (A)
                 (A) (A) (A) (A) (A) (A) (A) (A) (A) (A) (A) (A)
                 (A) (A) (A) (A) (A) (A) (A) (A) (A) (A) (A) (A)
                 (A) (A) (A) (A) (A) (A) (A) (A) (A) (A) (A) (A)
                 (A) (A) (A) (A) (A) (A) (A) (A) (A) (A) (A) (A)
                 (A) (A) (A) (A) (A) (A) (A) (A) (A) (A) (A) (A)
                 (A) (A) (A) (A) (A) (A) (A) (A) (A) (A) (A) (A)
                 (A) (A) (A) (A) (A) (A) (A) (A) (A) (A) (A) (A)
                 (A) (A) (A) (A) (A) (A) (A) (A) (A) (A) (A) (A)
                 (A) (A) (A) (A) (A) (A) (A) (A) (A) (A) (A) (A)
                 (A) (A) (A) (A) (A) (A) (A) (A) (A) (A) (A) (A)
                 (A) (A) (A) (A) (A) (A) (A) (A) (A) (A) (A) (A)
                 (A) (A) (A) (A) (A) (A) (A) (A) (A) (A) (A) (A)
                 (A) (A) (A) (A) (A) (A) (A) (A) (A) (A) (A) (A)
                 (A) (A) (A) (A) (A) (A) (A) (A) (A) (A) (A) (A)
                 (A) (A) (A) (A) (A) (A) (A) (A) (A) (A) (A) (A)
                 (A) (A) (A) (A) (A) (A) (A) (A) (A) (A) (A) (A)
                 (A) (A) (A) (A)
 The electronic state is 1-A.
 Alpha  occ. eigenvalues --  -19.31916 -19.23331 -10.43505 -10.31359 -10.29439
 Alpha  occ. eigenvalues --  -10.29310 -10.29016 -10.28820 -10.28707  -1.26026
 Alpha  occ. eigenvalues --   -1.10927  -0.98069  -0.88946  -0.87072  -0.80681
 Alpha  occ. eigenvalues --   -0.73471  -0.72268  -0.65864  -0.60726  -0.58818
 Alpha  occ. eigenvalues --   -0.57777  -0.55806  -0.53951  -0.53399  -0.49239
 Alpha  occ. eigenvalues --   -0.47426  -0.45420  -0.45122  -0.40842  -0.37427
 Alpha  occ. eigenvalues --   -0.34395  -0.33589
 Alpha virt. eigenvalues --    0.02773   0.03791   0.04237   0.04560   0.05119
 Alpha virt. eigenvalues --    0.06418   0.07267   0.08069   0.08684   0.10494
 Alpha virt. eigenvalues --    0.12277   0.12594   0.12904   0.14364   0.15082
 Alpha virt. eigenvalues --    0.16095   0.16192   0.17044   0.17331   0.17949
 Alpha virt. eigenvalues --    0.18583   0.18891   0.19301   0.20045   0.20163
 Alpha virt. eigenvalues --    0.20966   0.21033   0.21231   0.23088   0.23816
 Alpha virt. eigenvalues --    0.24919   0.25714   0.26918   0.27402   0.27676
 Alpha virt. eigenvalues --    0.29159   0.29504   0.30073   0.30762   0.31153
 Alpha virt. eigenvalues --    0.32380   0.34650   0.35153   0.35419   0.36696
 Alpha virt. eigenvalues --    0.37168   0.38317   0.38943   0.39280   0.40133
 Alpha virt. eigenvalues --    0.40982   0.42333   0.42969   0.43639   0.44462
 Alpha virt. eigenvalues --    0.45237   0.45672   0.50474   0.52928   0.56782
 Alpha virt. eigenvalues --    0.59461   0.61463   0.62028   0.62522   0.63498
 Alpha virt. eigenvalues --    0.64469   0.64776   0.65342   0.67249   0.68127
 Alpha virt. eigenvalues --    0.69229   0.70543   0.72934   0.74275   0.74771
 Alpha virt. eigenvalues --    0.76224   0.80929   0.81057   0.82181   0.83098
 Alpha virt. eigenvalues --    0.86818   0.87044   0.90448   0.92433   0.93675
 Alpha virt. eigenvalues --    0.93768   0.95057   0.96065   0.98382   1.00054
 Alpha virt. eigenvalues --    1.01365   1.02192   1.08156   1.09075   1.12929
 Alpha virt. eigenvalues --    1.13894   1.15510   1.16687   1.18638   1.20211
 Alpha virt. eigenvalues --    1.22340   1.25915   1.26193   1.28775   1.32215
 Alpha virt. eigenvalues --    1.37497   1.40572   1.44226   1.45468   1.53588
 Alpha virt. eigenvalues --    1.56733   1.58785   1.59319   1.61404   1.62450
 Alpha virt. eigenvalues --    1.65263   1.66787   1.67315   1.69031   1.73823
 Alpha virt. eigenvalues --    1.74527   1.75396   1.79199   1.83901   1.87584
 Alpha virt. eigenvalues --    1.88081   1.88924   1.90725   1.93830   1.97315
 Alpha virt. eigenvalues --    2.01395   2.02624   2.03112   2.04765   2.05421
 Alpha virt. eigenvalues --    2.06036   2.07544   2.14228   2.17544   2.17825
 Alpha virt. eigenvalues --    2.23433   2.24604   2.32963   2.44055   2.47205
 Alpha virt. eigenvalues --    2.50814   2.53002   2.53993   2.58463   2.62574
 Alpha virt. eigenvalues --    2.68142   2.71225   2.77434   2.80046   2.81018
 Alpha virt. eigenvalues --    2.82732   2.84784   2.88032   2.90722   2.90956
 Alpha virt. eigenvalues --    2.91054   2.92001   2.96523   2.97998   3.00568
 Alpha virt. eigenvalues --    3.02074   3.06900   3.09653   3.16529   3.18601
 Alpha virt. eigenvalues --    3.19710   3.22303   3.25080   3.28278   3.34728
 Alpha virt. eigenvalues --    3.38567   3.43013   3.48756   3.49208   3.64086
 Alpha virt. eigenvalues --    3.66261   3.69139   3.72578   3.85985   3.88168
 Alpha virt. eigenvalues --    4.05330   4.16090   4.27339   4.29896   4.35661
 Alpha virt. eigenvalues --    4.36612   4.40400   4.95015   5.09036   5.18549
 Alpha virt. eigenvalues --    5.27307   5.47244   5.76973   6.07184  23.84467
 Alpha virt. eigenvalues --   23.93753  24.14865  24.21310  24.28505  24.30207
 Alpha virt. eigenvalues --   24.41897  50.03215  50.12773
          Condensed to atoms (all electrons):
               1          2          3          4          5          6
     1  C   11.679800  -2.604779  -2.821046   1.462874  -0.048951  -1.937663
     2  C   -2.604779  10.784605   0.567398  -1.507107   0.401466  -0.707841
     3  C   -2.821046   0.567398  11.098404  -1.516291   0.123829  -0.511647
     4  C    1.462874  -1.507107  -1.516291   6.621942  -0.069366   0.027792
     5  H   -0.048951   0.401466   0.123829  -0.069366   0.482766  -0.055778
     6  C   -1.937663  -0.707841  -0.511647   0.027792  -0.055778   8.351373
     7  C    1.404164  -1.533645  -1.532025   1.154318  -0.010758  -0.052196
     8  H   -0.046492   0.132384   0.385831  -0.027491   0.000425  -0.029770
     9  C   -1.695643   1.312640   1.272242  -0.680955   0.019603   0.050375
    10  H    0.027361  -0.048155  -0.018048   0.396220  -0.009981   0.007121
    11  O   -0.324870  -0.124890  -0.097859   0.053387  -0.008453   0.458595
    12  O   -0.000931   0.053157  -0.159609   0.019551  -0.003505   0.499086
    13  H    0.040449  -0.033256  -0.033987   0.004411   0.000534  -0.000307
    14  H    0.005137   0.010030  -0.001462  -0.032042  -0.001012  -0.008241
    15  H   -0.054193   0.009811   0.001573  -0.004096  -0.001555   0.029629
               7          8          9         10         11         12
     1  C    1.404164  -0.046492  -1.695643   0.027361  -0.324870  -0.000931
     2  C   -1.533645   0.132384   1.312640  -0.048155  -0.124890   0.053157
     3  C   -1.532025   0.385831   1.272242  -0.018048  -0.097859  -0.159609
     4  C    1.154318  -0.027491  -0.680955   0.396220   0.053387   0.019551
     5  H   -0.010758   0.000425   0.019603  -0.009981  -0.008453  -0.003505
     6  C   -0.052196  -0.029770   0.050375   0.007121   0.458595   0.499086
     7  C    6.878235  -0.084129  -0.672997  -0.005571   0.023870  -0.002367
     8  H   -0.084129   0.461311   0.027740   0.000353  -0.007487   0.003248
     9  C   -0.672997   0.027740   6.455185  -0.018752  -0.024196  -0.000873
    10  H   -0.005571   0.000353  -0.018752   0.471335   0.000218   0.000124
    11  O    0.023870  -0.007487  -0.024196   0.000218   7.984936  -0.143995
    12  O   -0.002367   0.003248  -0.000873   0.000124  -0.143995   8.028843
    13  H    0.406226  -0.010610  -0.043007  -0.001200  -0.000107  -0.001263
    14  H   -0.023053  -0.000119   0.399643  -0.004411  -0.000516  -0.000043
    15  H   -0.006283   0.000582   0.002528  -0.000040   0.305449  -0.008646
              13         14         15
     1  C    0.040449   0.005137  -0.054193
     2  C   -0.033256   0.010030   0.009811
     3  C   -0.033987  -0.001462   0.001573
     4  C    0.004411  -0.032042  -0.004096
     5  H    0.000534  -0.001012  -0.001555
     6  C   -0.000307  -0.008241   0.029629
     7  C    0.406226  -0.023053  -0.006283
     8  H   -0.010610  -0.000119   0.000582
     9  C   -0.043007   0.399643   0.002528
    10  H   -0.001200  -0.004411  -0.000040
    11  O   -0.000107  -0.000516   0.305449
    12  O   -0.001263  -0.000043  -0.008646
    13  H    0.470904  -0.004597  -0.000281
    14  H   -0.004597   0.470229   0.000011
    15  H   -0.000281   0.000011   0.398241
 Mulliken charges:
               1
     1  C    0.914782
     2  C   -0.711818
     3  C   -0.757300
     4  C    0.096854
     5  H    0.180736
     6  C   -0.120529
     7  C    0.056212
     8  H    0.194223
     9  C   -0.403533
    10  H    0.203425
    11  O   -0.094083
    12  O   -0.282777
    13  H    0.206092
    14  H    0.190447
    15  H    0.327269
 Sum of Mulliken charges =  -0.00000
 Mulliken charges with hydrogens summed into heavy atoms:
               1
     1  C    0.914782
     2  C   -0.531082
     3  C   -0.563077
     4  C    0.300279
     6  C   -0.120529
     7  C    0.262304
     9  C   -0.213086
    11  O    0.233186
    12  O   -0.282777
 Electronic spatial extent (au):  <R**2>=           1158.2349
 Charge=              0.0000 electrons
 Dipole moment (field-independent basis, Debye):
    X=             -1.0596    Y=             -1.5014    Z=             -1.7784  Tot=              2.5573
 Quadrupole moment (field-independent basis, Debye-Ang):
   XX=            -43.1242   YY=            -48.0129   ZZ=            -56.3095
   XY=             -5.1284   XZ=             -5.9418   YZ=             -4.1221
 Traceless Quadrupole moment (field-independent basis, Debye-Ang):
   XX=              6.0247   YY=              1.1360   ZZ=             -7.1606
   XY=             -5.1284   XZ=             -5.9418   YZ=             -4.1221
 Octapole moment (field-independent basis, Debye-Ang**2):
  XXX=             23.1311  YYY=             -1.5042  ZZZ=             -2.4197  XYY=             -2.5230
  XXY=            -17.1463  XXZ=            -20.1656  XZZ=              7.0592  YZZ=             -1.5938
  YYZ=             -1.4594  XYZ=             -2.0263
 Hexadecapole moment (field-independent basis, Debye-Ang**3):
 XXXX=           -873.3243 YYYY=           -299.9215 ZZZZ=           -121.7960 XXXY=            -57.9102
 XXXZ=            -68.7821 YYYX=             -6.4278 YYYZ=             -8.6726 ZZZX=             -8.8342
 ZZZY=              2.4779 XXYY=           -219.5840 XXZZ=           -207.4811 YYZZ=            -78.0577
 XXYZ=             -9.9261 YYXZ=             -4.1963 ZZXY=             -5.0648
 N-N= 4.084498228054D+02 E-N=-1.800318517665D+03  KE= 4.201128661330D+02
 No NMR shielding tensors so no spin-rotation constants.
 Leave Link  601 at Sun Nov  6 23:02:06 2022, MaxMem= 16106127360 cpu:               3.2 elap:               0.1
 (Enter /opt/ap/G16/B01/g16/l9999.exe)
 1\1\GINC-N05\SP\RwB97XD\6-311++G(d,p)\C7H6O2\ROOT\06-Nov-2022\0\\#P wB
 97XD/6-311++G(d,p) scf=maxcycle=512\\_conf030.gjf nmol_natom 1_15\\0,1
 \C\C,1,1.39016191\C,1,1.39194539,2,119.895942\C,2,1.38669027,1,119.880
 75721,3,0.70825972,0\H,2,0.98744251,1,119.71654057,3,-179.90726164,0\C
 ,1,1.48428757,2,119.93615286,4,-179.87772406,0\C,3,1.40101108,1,119.72
 36454,2,-0.26266839,0\H,3,0.9902154,1,119.1886159,2,178.85397616,0\C,4
 ,1.37899003,2,120.45785903,1,-0.48041454,0\H,4,0.9834739,2,120.3044270
 6,1,179.36166981,0\O,6,1.27459751,1,118.00615353,2,60.,0\O,6,1.2636257
 2,1,118.77715367,2,-120.,0\H,7,0.98977053,3,119.37861578,1,-178.935457
 41,0\H,9,0.99498061,4,119.46722635,2,-178.58826714,0\H,11,0.89680392,6
 ,118.15823763,1,176.92714093,0\\Version=ES64L-G16RevB.01\State=1-A\HF=
 -420.7394754\RMSD=7.780e-09\Dipole=0.1599538,0.8041888,0.5830515\Quadr
 upole=6.1667536,-6.2084519,0.0416983,-3.8273227,-0.3777952,-3.8633031\
 PG=C01 [X(C7H6O2)]\\@


 WOMEN HOLD UP HALF THE SKY. -- MAO TSE TUNG
 Job cpu time:       0 days  0 hours  7 minutes 17.7 seconds.
 Elapsed time:       0 days  0 hours  0 minutes 13.8 seconds.
 File lengths (MBytes):  RWF=     35 Int=      0 D2E=      0 Chk=      4 Scr=      1
 Normal termination of Gaussian 16 at Sun Nov  6 23:02:06 2022.
