 Entering Gaussian System, Link 0=g16
 Input=_conf025.gjf
 Output=_conf025.log
 Initial command:
 /opt/ap/G16/B01/g16/l1.exe "/tmp2/scr/Gau-21949.inp" -scrdir="/tmp2/scr/"
 Entering Link 1 = /opt/ap/G16/B01/g16/l1.exe PID=     21950.
  
 Copyright (c) 1988-2017, Gaussian, Inc.  All Rights Reserved.
  
 This is part of the Gaussian(R) 16 program.  It is based on
 the Gaussian(R) 09 system (copyright 2009, Gaussian, Inc.),
 the Gaussian(R) 03 system (copyright 2003, Gaussian, Inc.),
 the Gaussian(R) 98 system (copyright 1998, Gaussian, Inc.),
 the Gaussian(R) 94 system (copyright 1995, Gaussian, Inc.),
 the Gaussian 92(TM) system (copyright 1992, Gaussian, Inc.),
 the Gaussian 90(TM) system (copyright 1990, Gaussian, Inc.),
 the Gaussian 88(TM) system (copyright 1988, Gaussian, Inc.),
 the Gaussian 86(TM) system (copyright 1986, Carnegie Mellon
 University), and the Gaussian 82(TM) system (copyright 1983,
 Carnegie Mellon University). Gaussian is a federally registered
 trademark of Gaussian, Inc.
  
 This software contains proprietary and confidential information,
 including trade secrets, belonging to Gaussian, Inc.
  
 This software is provided under written license and may be
 used, copied, transmitted, or stored only in accord with that
 written license.
  
 The following legend is applicable only to US Government
 contracts under FAR:
  
                    RESTRICTED RIGHTS LEGEND
  
 Use, reproduction and disclosure by the US Government is
 subject to restrictions as set forth in subparagraphs (a)
 and (c) of the Commercial Computer Software - Restricted
 Rights clause in FAR 52.227-19.
  
 Gaussian, Inc.
 340 Quinnipiac St., Bldg. 40, Wallingford CT 06492
  
  
 ---------------------------------------------------------------
 Warning -- This program may not be used in any manner that
 competes with the business of Gaussian, Inc. or will provide
 assistance to any competitor of Gaussian, Inc.  The licensee
 of this program is prohibited from giving any competitor of
 Gaussian, Inc. access to this program.  By using this program,
 the user acknowledges that Gaussian, Inc. is engaged in the
 business of creating and licensing software in the field of
 computational chemistry and represents and warrants to the
 licensee that it is not a competitor of Gaussian, Inc. and that
 it will not use this program in any manner prohibited above.
 ---------------------------------------------------------------
  

 Cite this work as:
 Gaussian 16, Revision B.01,
 M. J. Frisch, G. W. Trucks, H. B. Schlegel, G. E. Scuseria, 
 M. A. Robb, J. R. Cheeseman, G. Scalmani, V. Barone, 
 G. A. Petersson, H. Nakatsuji, X. Li, M. Caricato, A. V. Marenich, 
 J. Bloino, B. G. Janesko, R. Gomperts, B. Mennucci, H. P. Hratchian, 
 J. V. Ortiz, A. F. Izmaylov, J. L. Sonnenberg, D. Williams-Young, 
 F. Ding, F. Lipparini, F. Egidi, J. Goings, B. Peng, A. Petrone, 
 T. Henderson, D. Ranasinghe, V. G. Zakrzewski, J. Gao, N. Rega, 
 G. Zheng, W. Liang, M. Hada, M. Ehara, K. Toyota, R. Fukuda, 
 J. Hasegawa, M. Ishida, T. Nakajima, Y. Honda, O. Kitao, H. Nakai, 
 T. Vreven, K. Throssell, J. A. Montgomery, Jr., J. E. Peralta, 
 F. Ogliaro, M. J. Bearpark, J. J. Heyd, E. N. Brothers, K. N. Kudin, 
 V. N. Staroverov, T. A. Keith, R. Kobayashi, J. Normand, 
 K. Raghavachari, A. P. Rendell, J. C. Burant, S. S. Iyengar, 
 J. Tomasi, M. Cossi, J. M. Millam, M. Klene, C. Adamo, R. Cammi, 
 J. W. Ochterski, R. L. Martin, K. Morokuma, O. Farkas, 
 J. B. Foresman, and D. J. Fox, Gaussian, Inc., Wallingford CT, 2016.
 
 ******************************************
 Gaussian 16:  ES64L-G16RevB.01 20-Dec-2017
                 6-Nov-2022 
 ******************************************
 %nprocshared=32
 Will use up to   32 processors via shared memory.
 %mem=120GB
 %chk=_conf025.chk
 ----------------------------------------
 #P wB97XD/6-311++G(d,p) scf=maxcycle=512
 ----------------------------------------
 1/38=1,172=1/1;
 2/12=2,17=6,18=5,40=1/2;
 3/5=4,6=6,7=1111,11=2,25=1,30=1,74=-58/1,2,3;
 4//1;
 5/5=2,7=512,38=5/2;
 6/7=2,8=2,9=2,10=2,28=1/1;
 99/5=1,9=1/99;
 Leave Link    1 at Sun Nov  6 23:01:35 2022, MaxMem= 16106127360 cpu:               1.4 elap:               0.0
 (Enter /opt/ap/G16/B01/g16/l101.exe)
 ----------------------------
 _conf025.gjf nmol_natom 1_15
 ----------------------------
 Symbolic Z-matrix:
 Charge =  0 Multiplicity = 1
 C
 C                    1     1.39016 
 C                    1     1.39195  2     119.89594 
 C                    2     1.38669  1     119.88076  3     0.70826  0
 H                    2     0.98744  1     119.71654  3    -179.90726  0
 C                    1     1.48429  2     119.93615  4    -179.87772  0
 C                    3     1.40101  1     119.72365  2    -0.26267  0
 H                    3     0.99022  1     119.18862  2     178.85398  0
 C                    4     1.37899  2     120.45786  1    -0.48041  0
 H                    4     0.98347  2     120.30443  1     179.36167  0
 O                    6     1.2746   1     118.00615  2     35.      0
 O                    6     1.26363  1     118.77715  2    -145.     0
 H                    7     0.98977  3     119.37862  1    -178.93546  0
 H                    9     0.99498  4     119.46723  2    -178.58827  0
 H                    11    0.8968   6     118.15824  1     176.92714  0
 
 ITRead=  0  0  0  0  0  0  0  0  0  0  0  0  0  0  0
 MicOpt= -1 -1 -1 -1 -1 -1 -1 -1 -1 -1 -1 -1 -1 -1 -1
 NAtoms=     15 NQM=       15 NQMF=       0 NMMI=      0 NMMIF=      0
                NMic=       0 NMicF=      0.
                    Isotopes and Nuclear Properties:
 (Nuclear quadrupole moments (NQMom) in fm**2, nuclear magnetic moments (NMagM)
  in nuclear magnetons)

  Atom         1           2           3           4           5           6           7           8           9          10
 IAtWgt=          12          12          12          12           1          12          12           1          12           1
 AtmWgt=  12.0000000  12.0000000  12.0000000  12.0000000   1.0078250  12.0000000  12.0000000   1.0078250  12.0000000   1.0078250
 NucSpn=           0           0           0           0           1           0           0           1           0           1
 AtZEff=  -0.0000000  -0.0000000  -0.0000000  -0.0000000  -0.0000000  -0.0000000  -0.0000000  -0.0000000  -0.0000000  -0.0000000
 NQMom=    0.0000000   0.0000000   0.0000000   0.0000000   0.0000000   0.0000000   0.0000000   0.0000000   0.0000000   0.0000000
 NMagM=    0.0000000   0.0000000   0.0000000   0.0000000   2.7928460   0.0000000   0.0000000   2.7928460   0.0000000   2.7928460
 AtZNuc=   6.0000000   6.0000000   6.0000000   6.0000000   1.0000000   6.0000000   6.0000000   1.0000000   6.0000000   1.0000000

  Atom        11          12          13          14          15
 IAtWgt=          16          16           1           1           1
 AtmWgt=  15.9949146  15.9949146   1.0078250   1.0078250   1.0078250
 NucSpn=           0           0           1           1           1
 AtZEff=  -0.0000000  -0.0000000  -0.0000000  -0.0000000  -0.0000000
 NQMom=    0.0000000   0.0000000   0.0000000   0.0000000   0.0000000
 NMagM=    0.0000000   0.0000000   2.7928460   2.7928460   2.7928460
 AtZNuc=   8.0000000   8.0000000   1.0000000   1.0000000   1.0000000
 Leave Link  101 at Sun Nov  6 23:01:35 2022, MaxMem= 16106127360 cpu:              10.5 elap:               0.3
 (Enter /opt/ap/G16/B01/g16/l202.exe)
                          Input orientation:                          
 ---------------------------------------------------------------------
 Center     Atomic      Atomic             Coordinates (Angstroms)
 Number     Number       Type             X           Y           Z
 ---------------------------------------------------------------------
      1          6           0        0.000000    0.000000    0.000000
      2          6           0        0.000000    0.000000    1.390162
      3          6           0        1.206722    0.000000   -0.693782
      4          6           0        1.202258    0.014862    2.081006
      5          1           0       -0.857581   -0.001388    1.879646
      6          6           0       -1.286190   -0.013155   -0.740711
      7          6           0        2.415349    0.005578    0.014752
      8          1           0        1.194584   -0.017290   -1.683772
      9          6           0        2.400563    0.019708    1.398617
     10          1           0        1.209438    0.024411    3.064408
     11          8           0       -2.271418    0.622270   -0.240552
     12          8           0       -1.354087   -0.649156   -1.830501
     13          1           0        3.270315    0.021574   -0.483669
     14          1           0        3.254554    0.009066    1.909081
     15          1           0       -3.037091    0.650832   -0.706584
 ---------------------------------------------------------------------
                    Distance matrix (angstroms):
                    1          2          3          4          5
     1  C    0.000000
     2  C    1.390162   0.000000
     3  C    1.391945   2.408112   0.000000
     4  C    2.403379   1.386690   2.774832   0.000000
     5  H    2.066039   0.987443   3.299073   2.069721   0.000000
     6  C    1.484288   2.488991   2.493388   3.762345   2.655206
     7  C    2.415401   2.779513   1.401011   2.396056   3.766955
     8  H    2.064563   3.297939   0.990215   3.764924   4.112127
     9  C    2.778349   2.400659   2.409104   1.378990   3.293530
    10  H    3.294530   2.065535   3.758270   0.983474   2.382624
    11  O    2.367367   2.864574   3.562316   4.221966   2.623571
    12  O    2.367633   3.553537   2.875982   4.719714   3.798857
    13  H    3.305958   3.769173   2.074374   3.294611   4.756607
    14  H    3.773167   3.295676   3.311886   2.059493   4.112253
    15  H    3.185399   3.747512   4.293448   5.113433   3.444451
                    6          7          8          9         10
     6  C    0.000000
     7  C    3.777892   0.000000
     8  H    2.653982   2.091836   0.000000
     9  C    4.262622   1.384016   3.310118   0.000000
    10  H    4.550659   3.279477   4.748386   2.047842   0.000000
    11  O    1.274598   4.734055   3.808555   4.987721   4.836998
    12  O    1.263626   4.247621   2.629925   4.997197   5.566460
    13  H    4.563881   0.989771   2.398003   2.073517   4.103177
    14  H    5.257398   2.071897   4.141589   0.994981   2.348938
    15  H    1.872885   5.537670   4.394128   5.865004   5.713650
                   11         12         13         14         15
    11  O    0.000000
    12  O    2.232926   0.000000
    13  H    5.579493   4.863016   0.000000
    14  H    5.960982   5.971373   2.392834   0.000000
    15  H    0.896804   2.405340   6.342636   6.843856   0.000000
 Stoichiometry    C7H6O2
 Framework group  C1[X(C7H6O2)]
 Deg. of freedom    39
 Full point group                 C1      NOp   1
 Largest Abelian subgroup         C1      NOp   1
 Largest concise Abelian subgroup C1      NOp   1
                         Standard orientation:                         
 ---------------------------------------------------------------------
 Center     Atomic      Atomic             Coordinates (Angstroms)
 Number     Number       Type             X           Y           Z
 ---------------------------------------------------------------------
      1          6           0        0.220705    0.024612    0.006999
      2          6           0       -0.449720   -1.177387    0.202650
      3          6           0       -0.501814    1.197864   -0.190379
      4          6           0       -1.836015   -1.205894    0.185850
      5          1           0        0.065467   -2.007872    0.343788
      6          6           0        1.704583    0.056077    0.022033
      7          6           0       -1.902264    1.158602   -0.196055
      8          1           0       -0.013824    2.050909   -0.311649
      9          6           0       -2.556634   -0.047284   -0.014009
     10          1           0       -2.316520   -2.054335    0.314240
     11          8           0        2.329365   -0.948185   -0.453050
     12          8           0        2.286709    1.069862    0.501741
     13          1           0       -2.410782    1.993188   -0.352648
     14          1           0       -3.550968   -0.081143   -0.002249
     15          1           0        3.224987   -0.913702   -0.483536
 ---------------------------------------------------------------------
 Rotational constants (GHZ):           3.9688424           1.2099754           0.9616777
 Leave Link  202 at Sun Nov  6 23:01:35 2022, MaxMem= 16106127360 cpu:               0.3 elap:               0.0
 (Enter /opt/ap/G16/B01/g16/l301.exe)
 Standard basis: 6-311++G(d,p) (5D, 7F)
 Ernie: Thresh=  0.10000D-02 Tol=  0.10000D-05 Strict=F.
 There are   249 symmetry adapted cartesian basis functions of A   symmetry.
 There are   240 symmetry adapted basis functions of A   symmetry.
   240 basis functions,   378 primitive gaussians,   249 cartesian basis functions
    32 alpha electrons       32 beta electrons
       nuclear repulsion energy       409.0661575078 Hartrees.
 IExCor= 4639 DFT=T Ex+Corr=wB97XD ExCW=0 ScaHFX=  1.000000
 ScaDFX=  1.000000  1.000000  1.000000  1.000000 ScalE2=  1.000000  1.000000
 IRadAn=      5 IRanWt=     -1 IRanGd=            0 ICorTp=0 IEmpDi=121
 HFx  wShort=  0.000000 wLong=  0.200000 cFull=  0.222036 cShort=  0.000000 cLong=  0.777964
 DFx  wShort=  0.000000 wLong=  0.200000 cFull=  0.000000 cShort=  0.000000 cLong=  1.000000
 NAtoms=   15 NActive=   15 NUniq=   15 SFac= 1.00D+00 NAtFMM=   60 NAOKFM=F Big=F
 Integral buffers will be    131072 words long.
 Raffenetti 2 integral format.
 Two-electron integral symmetry is turned on.
 R6Disp:  Grimme-D2 Dispersion energy=       -0.0064040901 Hartrees.
 Nuclear repulsion after empirical dispersion term =      409.0597534177 Hartrees.
 Leave Link  301 at Sun Nov  6 23:01:35 2022, MaxMem= 16106127360 cpu:               1.3 elap:               0.0
 (Enter /opt/ap/G16/B01/g16/l302.exe)
 NPDir=0 NMtPBC=     1 NCelOv=     1 NCel=       1 NClECP=     1 NCelD=      1
         NCelK=      1 NCelE2=     1 NClLst=     1 CellRange=     0.0.
 One-electron integrals computed using PRISM.
 One-electron integral symmetry used in STVInt
 NBasis=   240 RedAO= T EigKep=  1.23D-06  NBF=   240
 NBsUse=   240 1.00D-06 EigRej= -1.00D+00 NBFU=   240
 Precomputing XC quadrature grid using
 IXCGrd= 4 IRadAn=           5 IRanWt=          -1 IRanGd=           0 AccXCQ= 0.00D+00.
 Generated NRdTot=       0 NPtTot=           0 NUsed=           0 NTot=          32
 NSgBfM=   249   249   249   249   249 MxSgAt=    15 MxSgA2=    15.
 Leave Link  302 at Sun Nov  6 23:01:36 2022, MaxMem= 16106127360 cpu:               5.5 elap:               0.2
 (Enter /opt/ap/G16/B01/g16/l303.exe)
 DipDrv:  MaxL=1.
 Leave Link  303 at Sun Nov  6 23:01:36 2022, MaxMem= 16106127360 cpu:               1.2 elap:               0.0
 (Enter /opt/ap/G16/B01/g16/l401.exe)
 ExpMin= 3.60D-02 ExpMax= 8.59D+03 ExpMxC= 1.30D+03 IAcc=3 IRadAn=         5 AccDes= 0.00D+00
 Harris functional with IExCor= 4639 and IRadAn=       5 diagonalized for initial guess.
 HarFok:  IExCor= 4639 AccDes= 0.00D+00 IRadAn=         5 IDoV= 1 UseB2=F ITyADJ=14
 ICtDFT=  3500011 ScaDFX=  1.000000  1.000000  1.000000  1.000000
 FoFCou: FMM=F IPFlag=           0 FMFlag=      100000 FMFlg1=           0
         NFxFlg=           0 DoJE=T BraDBF=F KetDBF=T FulRan=T
         wScrn=  0.000000 ICntrl=       500 IOpCl=  0 I1Cent=   200000004 NGrid=           0
         NMat0=    1 NMatS0=      1 NMatT0=    0 NMatD0=    1 NMtDS0=    0 NMtDT0=    0
 Petite list used in FoFCou.
 Harris En= -403.253048772446    
 JPrj=0 DoOrth=F DoCkMO=F.
 Leave Link  401 at Sun Nov  6 23:01:36 2022, MaxMem= 16106127360 cpu:              11.9 elap:               0.4
 (Enter /opt/ap/G16/B01/g16/l502.exe)
 Integral symmetry usage will be decided dynamically.
 Closed shell SCF:
 Using DIIS extrapolation, IDIIS=  1040.
 NGot= 16106127360 LenX= 16105992971 LenY= 16105930529
 Requested convergence on RMS density matrix=1.00D-08 within 512 cycles.
 Requested convergence on MAX density matrix=1.00D-06.
 Requested convergence on             energy=1.00D-06.
 No special actions if energy rises.
 Fock matrices will be formed incrementally for  20 cycles.

 Cycle   1  Pass 1  IDiag  1:
 FoFJK:  IHMeth= 1 ICntrl=       0 DoSepK=T KAlg= 0 I1Cent=           0 FoldK=F
 IRaf=         1 NMat=       1 IRICut=       1 DoRegI=T DoRafI=F ISym2E= 0 IDoP0=0 IntGTp=1.
 FoFCou: FMM=F IPFlag=           0 FMFlag=      100000 FMFlg1=           0
         NFxFlg=           0 DoJE=T BraDBF=F KetDBF=F FulRan=T
         wScrn=  0.000000 ICntrl=       500 IOpCl=  0 I1Cent=           0 NGrid=           0
         NMat0=    1 NMatS0=      1 NMatT0=    0 NMatD0=    1 NMtDS0=    0 NMtDT0=    0
 Symmetry not used in FoFCou.
 E= -420.629297196396    
 DIIS: error= 7.82D-02 at cycle   1 NSaved=   1.
 NSaved= 1 IEnMin= 1 EnMin= -420.629297196396     IErMin= 1 ErrMin= 7.82D-02
 ErrMax= 7.82D-02  0.00D+00 EMaxC= 1.00D-01 BMatC= 8.61D-01 BMatP= 8.61D-01
 IDIUse=3 WtCom= 2.18D-01 WtEn= 7.82D-01
 Coeff-Com:  0.100D+01
 Coeff-En:   0.100D+01
 Coeff:      0.100D+01
 Gap=     0.428 Goal=   None    Shift=    0.000
 GapD=    0.428 DampG=2.000 DampE=0.500 DampFc=1.0000 IDamp=-1.
 RMSDP=2.45D-02 MaxDP=1.19D+00              OVMax= 9.95D-02

 Cycle   2  Pass 1  IDiag  1:
 RMSU=  1.41D-02    CP:  6.83D-01
 E= -420.700478253004     Delta-E=       -0.071181056608 Rises=F Damp=F
 DIIS: error= 1.25D-02 at cycle   2 NSaved=   2.
 NSaved= 2 IEnMin= 2 EnMin= -420.700478253004     IErMin= 2 ErrMin= 1.25D-02
 ErrMax= 1.25D-02  0.00D+00 EMaxC= 1.00D-01 BMatC= 5.71D-02 BMatP= 8.61D-01
 IDIUse=3 WtCom= 8.75D-01 WtEn= 1.25D-01
 Coeff-Com:  0.135D+00 0.865D+00
 Coeff-En:   0.967D-01 0.903D+00
 Coeff:      0.130D+00 0.870D+00
 Gap=     0.437 Goal=   None    Shift=    0.000
 RMSDP=7.98D-03 MaxDP=4.12D-01 DE=-7.12D-02 OVMax= 8.79D-02

 Cycle   3  Pass 1  IDiag  1:
 RMSU=  5.92D-03    CP:  6.31D-01  7.03D-01
 E= -420.716466481732     Delta-E=       -0.015988228728 Rises=F Damp=F
 DIIS: error= 1.16D-02 at cycle   3 NSaved=   3.
 NSaved= 3 IEnMin= 3 EnMin= -420.716466481732     IErMin= 3 ErrMin= 1.16D-02
 ErrMax= 1.16D-02  0.00D+00 EMaxC= 1.00D-01 BMatC= 3.61D-02 BMatP= 5.71D-02
 IDIUse=3 WtCom= 8.84D-01 WtEn= 1.16D-01
 Coeff-Com:  0.281D-01 0.448D+00 0.524D+00
 Coeff-En:   0.000D+00 0.386D+00 0.614D+00
 Coeff:      0.248D-01 0.441D+00 0.534D+00
 Gap=     0.357 Goal=   None    Shift=    0.000
 RMSDP=3.77D-03 MaxDP=1.42D-01 DE=-1.60D-02 OVMax= 5.36D-02

 Cycle   4  Pass 1  IDiag  1:
 RMSU=  2.29D-03    CP:  6.28D-01  8.77D-01  7.09D-01
 E= -420.742721406294     Delta-E=       -0.026254924562 Rises=F Damp=F
 DIIS: error= 2.42D-03 at cycle   4 NSaved=   4.
 NSaved= 4 IEnMin= 4 EnMin= -420.742721406294     IErMin= 4 ErrMin= 2.42D-03
 ErrMax= 2.42D-03  0.00D+00 EMaxC= 1.00D-01 BMatC= 1.99D-03 BMatP= 3.61D-02
 IDIUse=3 WtCom= 9.76D-01 WtEn= 2.42D-02
 Coeff-Com:  0.105D-01 0.221D+00 0.302D+00 0.466D+00
 Coeff-En:   0.000D+00 0.000D+00 0.000D+00 0.100D+01
 Coeff:      0.103D-01 0.216D+00 0.295D+00 0.479D+00
 Gap=     0.357 Goal=   None    Shift=    0.000
 RMSDP=8.36D-04 MaxDP=4.91D-02 DE=-2.63D-02 OVMax= 1.26D-02

 Cycle   5  Pass 1  IDiag  1:
 RMSU=  6.73D-04    CP:  6.24D-01  8.63D-01  7.36D-01  8.60D-01
 E= -420.744069631092     Delta-E=       -0.001348224798 Rises=F Damp=F
 DIIS: error= 4.26D-04 at cycle   5 NSaved=   5.
 NSaved= 5 IEnMin= 5 EnMin= -420.744069631092     IErMin= 5 ErrMin= 4.26D-04
 ErrMax= 4.26D-04  0.00D+00 EMaxC= 1.00D-01 BMatC= 4.82D-05 BMatP= 1.99D-03
 IDIUse=3 WtCom= 9.96D-01 WtEn= 4.26D-03
 Coeff-Com:  0.392D-03 0.167D-01 0.316D-01 0.147D+00 0.804D+00
 Coeff-En:   0.000D+00 0.000D+00 0.000D+00 0.000D+00 0.100D+01
 Coeff:      0.390D-03 0.167D-01 0.315D-01 0.147D+00 0.805D+00
 Gap=     0.354 Goal=   None    Shift=    0.000
 RMSDP=2.76D-04 MaxDP=1.41D-02 DE=-1.35D-03 OVMax= 2.58D-03

 Cycle   6  Pass 1  IDiag  1:
 RMSU=  1.55D-04    CP:  6.23D-01  8.68D-01  7.62D-01  9.23D-01  1.09D+00
 E= -420.744107739144     Delta-E=       -0.000038108052 Rises=F Damp=F
 DIIS: error= 2.04D-04 at cycle   6 NSaved=   6.
 NSaved= 6 IEnMin= 6 EnMin= -420.744107739144     IErMin= 6 ErrMin= 2.04D-04
 ErrMax= 2.04D-04  0.00D+00 EMaxC= 1.00D-01 BMatC= 7.25D-06 BMatP= 4.82D-05
 IDIUse=3 WtCom= 9.98D-01 WtEn= 2.04D-03
 Coeff-Com: -0.958D-03-0.164D-01-0.178D-01 0.109D-01 0.346D+00 0.678D+00
 Coeff-En:   0.000D+00 0.000D+00 0.000D+00 0.000D+00 0.000D+00 0.100D+01
 Coeff:     -0.956D-03-0.164D-01-0.177D-01 0.108D-01 0.345D+00 0.679D+00
 Gap=     0.354 Goal=   None    Shift=    0.000
 RMSDP=1.27D-04 MaxDP=1.14D-02 DE=-3.81D-05 OVMax= 9.03D-04

 Cycle   7  Pass 1  IDiag  1:
 RMSU=  4.15D-05    CP:  6.22D-01  8.67D-01  7.71D-01  9.47D-01  1.17D+00
                    CP:  1.11D+00
 E= -420.744115036214     Delta-E=       -0.000007297070 Rises=F Damp=F
 DIIS: error= 6.39D-05 at cycle   7 NSaved=   7.
 NSaved= 7 IEnMin= 7 EnMin= -420.744115036214     IErMin= 7 ErrMin= 6.39D-05
 ErrMax= 6.39D-05  0.00D+00 EMaxC= 1.00D-01 BMatC= 3.20D-07 BMatP= 7.25D-06
 IDIUse=1 WtCom= 1.00D+00 WtEn= 0.00D+00
 Coeff-Com: -0.231D-03-0.539D-02-0.664D-02-0.139D-01-0.409D-02 0.130D+00
 Coeff-Com:  0.900D+00
 Coeff:     -0.231D-03-0.539D-02-0.664D-02-0.139D-01-0.409D-02 0.130D+00
 Coeff:      0.900D+00
 Gap=     0.354 Goal=   None    Shift=    0.000
 RMSDP=4.73D-05 MaxDP=2.98D-03 DE=-7.30D-06 OVMax= 3.87D-04

 Cycle   8  Pass 1  IDiag  1:
 RMSU=  1.27D-05    CP:  6.22D-01  8.67D-01  7.73D-01  9.56D-01  1.22D+00
                    CP:  1.16D+00  1.13D+00
 E= -420.744115680212     Delta-E=       -0.000000643999 Rises=F Damp=F
 DIIS: error= 1.35D-05 at cycle   8 NSaved=   8.
 NSaved= 8 IEnMin= 8 EnMin= -420.744115680212     IErMin= 8 ErrMin= 1.35D-05
 ErrMax= 1.35D-05  0.00D+00 EMaxC= 1.00D-01 BMatC= 4.56D-08 BMatP= 3.20D-07
 IDIUse=1 WtCom= 1.00D+00 WtEn= 0.00D+00
 Coeff-Com:  0.368D-04 0.368D-03 0.325D-03-0.553D-02-0.404D-01-0.427D-01
 Coeff-Com:  0.243D+00 0.844D+00
 Coeff:      0.368D-04 0.368D-03 0.325D-03-0.553D-02-0.404D-01-0.427D-01
 Coeff:      0.243D+00 0.844D+00
 Gap=     0.354 Goal=   None    Shift=    0.000
 RMSDP=1.24D-05 MaxDP=8.25D-04 DE=-6.44D-07 OVMax= 1.53D-04

 Cycle   9  Pass 1  IDiag  1:
 RMSU=  4.36D-06    CP:  6.22D-01  8.67D-01  7.74D-01  9.57D-01  1.23D+00
                    CP:  1.18D+00  1.23D+00  1.14D+00
 E= -420.744115768669     Delta-E=       -0.000000088457 Rises=F Damp=F
 DIIS: error= 1.07D-05 at cycle   9 NSaved=   9.
 NSaved= 9 IEnMin= 9 EnMin= -420.744115768669     IErMin= 9 ErrMin= 1.07D-05
 ErrMax= 1.07D-05  0.00D+00 EMaxC= 1.00D-01 BMatC= 5.91D-09 BMatP= 4.56D-08
 IDIUse=1 WtCom= 1.00D+00 WtEn= 0.00D+00
 Coeff-Com:  0.415D-04 0.801D-03 0.990D-03-0.966D-04-0.112D-01-0.297D-01
 Coeff-Com: -0.335D-01 0.261D+00 0.812D+00
 Coeff:      0.415D-04 0.801D-03 0.990D-03-0.966D-04-0.112D-01-0.297D-01
 Coeff:     -0.335D-01 0.261D+00 0.812D+00
 Gap=     0.354 Goal=   None    Shift=    0.000
 RMSDP=4.48D-06 MaxDP=3.65D-04 DE=-8.85D-08 OVMax= 5.64D-05

 Cycle  10  Pass 1  IDiag  1:
 RMSU=  2.05D-06    CP:  6.22D-01  8.67D-01  7.74D-01  9.56D-01  1.23D+00
                    CP:  1.18D+00  1.26D+00  1.21D+00  1.41D+00
 E= -420.744115780047     Delta-E=       -0.000000011378 Rises=F Damp=F
 DIIS: error= 1.26D-06 at cycle  10 NSaved=  10.
 NSaved=10 IEnMin=10 EnMin= -420.744115780047     IErMin=10 ErrMin= 1.26D-06
 ErrMax= 1.26D-06  0.00D+00 EMaxC= 1.00D-01 BMatC= 7.75D-10 BMatP= 5.91D-09
 IDIUse=1 WtCom= 1.00D+00 WtEn= 0.00D+00
 Coeff-Com:  0.763D-05 0.169D-03 0.234D-03 0.495D-03 0.142D-02-0.427D-02
 Coeff-Com: -0.348D-01-0.240D-01 0.242D+00 0.819D+00
 Coeff:      0.763D-05 0.169D-03 0.234D-03 0.495D-03 0.142D-02-0.427D-02
 Coeff:     -0.348D-01-0.240D-01 0.242D+00 0.819D+00
 Gap=     0.354 Goal=   None    Shift=    0.000
 RMSDP=1.51D-06 MaxDP=8.05D-05 DE=-1.14D-08 OVMax= 1.99D-05

 Cycle  11  Pass 1  IDiag  1:
 RMSU=  4.93D-07    CP:  6.22D-01  8.67D-01  7.74D-01  9.56D-01  1.23D+00
                    CP:  1.18D+00  1.26D+00  1.25D+00  1.55D+00  1.03D+00
 E= -420.744115781496     Delta-E=       -0.000000001449 Rises=F Damp=F
 DIIS: error= 9.72D-07 at cycle  11 NSaved=  11.
 NSaved=11 IEnMin=11 EnMin= -420.744115781496     IErMin=11 ErrMin= 9.72D-07
 ErrMax= 9.72D-07  0.00D+00 EMaxC= 1.00D-01 BMatC= 1.48D-10 BMatP= 7.75D-10
 IDIUse=1 WtCom= 1.00D+00 WtEn= 0.00D+00
 Coeff-Com: -0.220D-05-0.237D-04-0.140D-04 0.255D-03 0.224D-02 0.206D-02
 Coeff-Com: -0.884D-02-0.517D-01-0.238D-01 0.325D+00 0.755D+00
 Coeff:     -0.220D-05-0.237D-04-0.140D-04 0.255D-03 0.224D-02 0.206D-02
 Coeff:     -0.884D-02-0.517D-01-0.238D-01 0.325D+00 0.755D+00
 Gap=     0.354 Goal=   None    Shift=    0.000
 RMSDP=6.60D-07 MaxDP=3.87D-05 DE=-1.45D-09 OVMax= 9.25D-06

 Cycle  12  Pass 1  IDiag  1:
 RMSU=  2.43D-07    CP:  6.22D-01  8.67D-01  7.74D-01  9.56D-01  1.23D+00
                    CP:  1.17D+00  1.26D+00  1.25D+00  1.60D+00  1.10D+00
                    CP:  1.19D+00
 E= -420.744115781754     Delta-E=       -0.000000000258 Rises=F Damp=F
 DIIS: error= 2.20D-07 at cycle  12 NSaved=  12.
 NSaved=12 IEnMin=12 EnMin= -420.744115781754     IErMin=12 ErrMin= 2.20D-07
 ErrMax= 2.20D-07  0.00D+00 EMaxC= 1.00D-01 BMatC= 1.21D-11 BMatP= 1.48D-10
 IDIUse=1 WtCom= 1.00D+00 WtEn= 0.00D+00
 Coeff-Com: -0.125D-05-0.219D-04-0.252D-04 0.160D-04 0.377D-03 0.785D-03
 Coeff-Com:  0.208D-02-0.991D-02-0.289D-01-0.445D-02 0.166D+00 0.875D+00
 Coeff:     -0.125D-05-0.219D-04-0.252D-04 0.160D-04 0.377D-03 0.785D-03
 Coeff:      0.208D-02-0.991D-02-0.289D-01-0.445D-02 0.166D+00 0.875D+00
 Gap=     0.354 Goal=   None    Shift=    0.000
 RMSDP=1.99D-07 MaxDP=1.10D-05 DE=-2.58D-10 OVMax= 3.82D-06

 Cycle  13  Pass 1  IDiag  1:
 RMSU=  8.74D-08    CP:  6.22D-01  8.67D-01  7.74D-01  9.56D-01  1.23D+00
                    CP:  1.17D+00  1.26D+00  1.26D+00  1.61D+00  1.08D+00
                    CP:  1.33D+00  1.17D+00
 E= -420.744115781789     Delta-E=       -0.000000000035 Rises=F Damp=F
 DIIS: error= 1.38D-07 at cycle  13 NSaved=  13.
 NSaved=13 IEnMin=13 EnMin= -420.744115781789     IErMin=13 ErrMin= 1.38D-07
 ErrMax= 1.38D-07  0.00D+00 EMaxC= 1.00D-01 BMatC= 2.79D-12 BMatP= 1.21D-11
 IDIUse=1 WtCom= 1.00D+00 WtEn= 0.00D+00
 Coeff-Com:  0.104D-06-0.376D-05-0.785D-05-0.516D-04-0.380D-03-0.205D-03
 Coeff-Com:  0.264D-02 0.778D-02-0.311D-02-0.712D-01-0.130D+00 0.251D+00
 Coeff-Com:  0.944D+00
 Coeff:      0.104D-06-0.376D-05-0.785D-05-0.516D-04-0.380D-03-0.205D-03
 Coeff:      0.264D-02 0.778D-02-0.311D-02-0.712D-01-0.130D+00 0.251D+00
 Coeff:      0.944D+00
 Gap=     0.354 Goal=   None    Shift=    0.000
 RMSDP=9.16D-08 MaxDP=4.39D-06 DE=-3.55D-11 OVMax= 2.41D-06

 Cycle  14  Pass 1  IDiag  1:
 RMSU=  3.71D-08    CP:  6.22D-01  8.67D-01  7.74D-01  9.56D-01  1.23D+00
                    CP:  1.17D+00  1.26D+00  1.26D+00  1.61D+00  1.06D+00
                    CP:  1.41D+00  1.34D+00  1.31D+00
 E= -420.744115781802     Delta-E=       -0.000000000013 Rises=F Damp=F
 DIIS: error= 4.30D-08 at cycle  14 NSaved=  14.
 NSaved=14 IEnMin=14 EnMin= -420.744115781802     IErMin=14 ErrMin= 4.30D-08
 ErrMax= 4.30D-08  0.00D+00 EMaxC= 1.00D-01 BMatC= 2.19D-13 BMatP= 2.79D-12
 IDIUse=1 WtCom= 1.00D+00 WtEn= 0.00D+00
 Coeff-Com:  0.921D-07 0.214D-05 0.266D-05-0.470D-06-0.590D-04-0.502D-04
 Coeff-Com: -0.225D-03 0.122D-02 0.300D-02-0.158D-02-0.184D-01-0.911D-01
 Coeff-Com: -0.550D-02 0.111D+01
 Coeff:      0.921D-07 0.214D-05 0.266D-05-0.470D-06-0.590D-04-0.502D-04
 Coeff:     -0.225D-03 0.122D-02 0.300D-02-0.158D-02-0.184D-01-0.911D-01
 Coeff:     -0.550D-02 0.111D+01
 Gap=     0.354 Goal=   None    Shift=    0.000
 RMSDP=4.22D-08 MaxDP=3.09D-06 DE=-1.25D-11 OVMax= 8.70D-07

 Cycle  15  Pass 1  IDiag  1:
 RMSU=  9.22D-09    CP:  6.22D-01  8.67D-01  7.74D-01  9.56D-01  1.23D+00
                    CP:  1.17D+00  1.26D+00  1.26D+00  1.61D+00  1.06D+00
                    CP:  1.42D+00  1.38D+00  1.51D+00  1.38D+00
 E= -420.744115781800     Delta-E=        0.000000000001 Rises=F Damp=F
 DIIS: error= 1.52D-08 at cycle  15 NSaved=  15.
 NSaved=15 IEnMin=14 EnMin= -420.744115781802     IErMin=15 ErrMin= 1.52D-08
 ErrMax= 1.52D-08  0.00D+00 EMaxC= 1.00D-01 BMatC= 4.18D-14 BMatP= 2.19D-13
 IDIUse=1 WtCom= 1.00D+00 WtEn= 0.00D+00
 Coeff-Com:  0.203D-07 0.119D-05 0.189D-05 0.588D-05 0.211D-04 0.120D-04
 Coeff-Com: -0.376D-03-0.398D-03 0.143D-02 0.763D-02 0.888D-02-0.545D-01
 Coeff-Com: -0.110D+00 0.379D+00 0.769D+00
 Coeff:      0.203D-07 0.119D-05 0.189D-05 0.588D-05 0.211D-04 0.120D-04
 Coeff:     -0.376D-03-0.398D-03 0.143D-02 0.763D-02 0.888D-02-0.545D-01
 Coeff:     -0.110D+00 0.379D+00 0.769D+00
 Gap=     0.354 Goal=   None    Shift=    0.000
 RMSDP=9.11D-09 MaxDP=5.21D-07 DE= 1.25D-12 OVMax= 1.77D-07

 SCF Done:  E(RwB97XD) =  -420.744115782     A.U. after   15 cycles
            NFock= 15  Conv=0.91D-08     -V/T= 2.0015
 KE= 4.201174868205D+02 PE=-1.801591569402D+03 EE= 5.516702133815D+02
 Leave Link  502 at Sun Nov  6 23:01:49 2022, MaxMem= 16106127360 cpu:             406.9 elap:              12.8
 (Enter /opt/ap/G16/B01/g16/l601.exe)
 Copying SCF densities to generalized density rwf, IOpCl= 0 IROHF=0.

 **********************************************************************

            Population analysis using the SCF Density.

 **********************************************************************

 Orbital symmetries:
       Occupied  (A) (A) (A) (A) (A) (A) (A) (A) (A) (A) (A) (A)
                 (A) (A) (A) (A) (A) (A) (A) (A) (A) (A) (A) (A)
                 (A) (A) (A) (A) (A) (A) (A) (A)
       Virtual   (A) (A) (A) (A) (A) (A) (A) (A) (A) (A) (A) (A)
                 (A) (A) (A) (A) (A) (A) (A) (A) (A) (A) (A) (A)
                 (A) (A) (A) (A) (A) (A) (A) (A) (A) (A) (A) (A)
                 (A) (A) (A) (A) (A) (A) (A) (A) (A) (A) (A) (A)
                 (A) (A) (A) (A) (A) (A) (A) (A) (A) (A) (A) (A)
                 (A) (A) (A) (A) (A) (A) (A) (A) (A) (A) (A) (A)
                 (A) (A) (A) (A) (A) (A) (A) (A) (A) (A) (A) (A)
                 (A) (A) (A) (A) (A) (A) (A) (A) (A) (A) (A) (A)
                 (A) (A) (A) (A) (A) (A) (A) (A) (A) (A) (A) (A)
                 (A) (A) (A) (A) (A) (A) (A) (A) (A) (A) (A) (A)
                 (A) (A) (A) (A) (A) (A) (A) (A) (A) (A) (A) (A)
                 (A) (A) (A) (A) (A) (A) (A) (A) (A) (A) (A) (A)
                 (A) (A) (A) (A) (A) (A) (A) (A) (A) (A) (A) (A)
                 (A) (A) (A) (A) (A) (A) (A) (A) (A) (A) (A) (A)
                 (A) (A) (A) (A) (A) (A) (A) (A) (A) (A) (A) (A)
                 (A) (A) (A) (A) (A) (A) (A) (A) (A) (A) (A) (A)
                 (A) (A) (A) (A) (A) (A) (A) (A) (A) (A) (A) (A)
                 (A) (A) (A) (A)
 The electronic state is 1-A.
 Alpha  occ. eigenvalues --  -19.31737 -19.22972 -10.43277 -10.31193 -10.29395
 Alpha  occ. eigenvalues --  -10.29339 -10.29059 -10.28993 -10.28739  -1.25866
 Alpha  occ. eigenvalues --   -1.10709  -0.98086  -0.88937  -0.87055  -0.80601
 Alpha  occ. eigenvalues --   -0.73433  -0.72065  -0.65833  -0.60669  -0.58694
 Alpha  occ. eigenvalues --   -0.57266  -0.55922  -0.54293  -0.53436  -0.49021
 Alpha  occ. eigenvalues --   -0.47453  -0.45512  -0.44938  -0.40878  -0.36838
 Alpha  occ. eigenvalues --   -0.34481  -0.33919
 Alpha virt. eigenvalues --    0.01474   0.03765   0.04245   0.04562   0.05226
 Alpha virt. eigenvalues --    0.06457   0.07550   0.08707   0.10038   0.10305
 Alpha virt. eigenvalues --    0.12186   0.12802   0.12853   0.14313   0.15096
 Alpha virt. eigenvalues --    0.16041   0.16295   0.17004   0.17301   0.17990
 Alpha virt. eigenvalues --    0.18410   0.19318   0.19416   0.20272   0.20374
 Alpha virt. eigenvalues --    0.21015   0.21159   0.21408   0.23152   0.23805
 Alpha virt. eigenvalues --    0.25838   0.26227   0.26621   0.27562   0.27876
 Alpha virt. eigenvalues --    0.29233   0.29429   0.30450   0.30955   0.31151
 Alpha virt. eigenvalues --    0.32335   0.34230   0.35042   0.35629   0.35884
 Alpha virt. eigenvalues --    0.36626   0.37058   0.38372   0.39405   0.40029
 Alpha virt. eigenvalues --    0.40914   0.41000   0.42465   0.43508   0.44112
 Alpha virt. eigenvalues --    0.44779   0.46497   0.50963   0.53937   0.57061
 Alpha virt. eigenvalues --    0.59485   0.61099   0.61906   0.63656   0.63819
 Alpha virt. eigenvalues --    0.64639   0.64821   0.66529   0.67756   0.69257
 Alpha virt. eigenvalues --    0.70816   0.71962   0.72812   0.74765   0.76273
 Alpha virt. eigenvalues --    0.77408   0.80861   0.81493   0.82279   0.83453
 Alpha virt. eigenvalues --    0.87584   0.87939   0.90393   0.92157   0.93818
 Alpha virt. eigenvalues --    0.94281   0.95798   0.96391   0.97753   1.00274
 Alpha virt. eigenvalues --    1.01330   1.02299   1.08708   1.08865   1.13301
 Alpha virt. eigenvalues --    1.13765   1.15743   1.16511   1.18154   1.20150
 Alpha virt. eigenvalues --    1.22134   1.24361   1.25419   1.27941   1.31021
 Alpha virt. eigenvalues --    1.36243   1.38246   1.44332   1.45080   1.55397
 Alpha virt. eigenvalues --    1.56259   1.58988   1.59633   1.61399   1.62124
 Alpha virt. eigenvalues --    1.64110   1.64598   1.66925   1.67465   1.74647
 Alpha virt. eigenvalues --    1.74833   1.77103   1.80331   1.83004   1.87236
 Alpha virt. eigenvalues --    1.88111   1.90065   1.91088   1.94149   1.98291
 Alpha virt. eigenvalues --    1.99952   2.02090   2.03487   2.04870   2.05681
 Alpha virt. eigenvalues --    2.06511   2.07671   2.13960   2.17863   2.18357
 Alpha virt. eigenvalues --    2.23380   2.25900   2.31501   2.44044   2.46622
 Alpha virt. eigenvalues --    2.52294   2.53466   2.54208   2.57870   2.63201
 Alpha virt. eigenvalues --    2.69897   2.70946   2.76955   2.79907   2.81022
 Alpha virt. eigenvalues --    2.82413   2.82992   2.88144   2.90325   2.90920
 Alpha virt. eigenvalues --    2.91007   2.91667   2.96353   2.99176   3.00872
 Alpha virt. eigenvalues --    3.02393   3.06504   3.07526   3.16249   3.18355
 Alpha virt. eigenvalues --    3.19439   3.22639   3.25973   3.29170   3.34901
 Alpha virt. eigenvalues --    3.40775   3.43324   3.48506   3.49378   3.63824
 Alpha virt. eigenvalues --    3.66097   3.69348   3.73338   3.84235   3.87656
 Alpha virt. eigenvalues --    4.05605   4.14868   4.27742   4.30496   4.35916
 Alpha virt. eigenvalues --    4.40481   4.41904   4.94990   5.08305   5.17725
 Alpha virt. eigenvalues --    5.28135   5.47203   5.78863   6.07850  23.84276
 Alpha virt. eigenvalues --   23.94008  24.14358  24.21341  24.28331  24.30292
 Alpha virt. eigenvalues --   24.41764  50.02762  50.13860
          Condensed to atoms (all electrons):
               1          2          3          4          5          6
     1  C   12.555363  -2.209753  -3.231320   1.676304   0.002804  -2.763954
     2  C   -2.209753  11.952877  -0.090563  -2.250212   0.430157  -0.892858
     3  C   -3.231320  -0.090563  11.105422  -1.269457   0.073198  -0.044413
     4  C    1.676304  -2.250212  -1.269457   7.090833  -0.065876  -0.052783
     5  H    0.002804   0.430157   0.073198  -0.065876   0.463504  -0.066115
     6  C   -2.763954  -0.892858  -0.044413  -0.052783  -0.066115   8.846855
     7  C    0.981177  -1.516062  -1.163521   1.179799  -0.011679   0.045775
     8  H    0.010806   0.113891   0.376841  -0.031552  -0.000513  -0.054190
     9  C   -1.645568   1.468492   1.147175  -0.792154   0.015158   0.053429
    10  H    0.032479  -0.075760  -0.017389   0.418691  -0.008301   0.008262
    11  O   -0.333294  -0.133206  -0.053567   0.065005  -0.020969   0.434248
    12  O   -0.136736   0.000719  -0.032745   0.020094  -0.002213   0.492616
    13  H    0.034652  -0.044971  -0.037518   0.013411   0.000501   0.008121
    14  H    0.003857   0.032235  -0.004243  -0.048219  -0.000099  -0.010030
    15  H   -0.058999  -0.002463   0.018261  -0.011969  -0.000512   0.040558
               7          8          9         10         11         12
     1  C    0.981177   0.010806  -1.645568   0.032479  -0.333294  -0.136736
     2  C   -1.516062   0.113891   1.468492  -0.075760  -0.133206   0.000719
     3  C   -1.163521   0.376841   1.147175  -0.017389  -0.053567  -0.032745
     4  C    1.179799  -0.031552  -0.792154   0.418691   0.065005   0.020094
     5  H   -0.011679  -0.000513   0.015158  -0.008301  -0.020969  -0.002213
     6  C    0.045775  -0.054190   0.053429   0.008262   0.434248   0.492616
     7  C    6.695160  -0.080179  -0.581825   0.000453   0.028786   0.037035
     8  H   -0.080179   0.443028   0.026034   0.000366  -0.001834  -0.001409
     9  C   -0.581825   0.026034   6.423218  -0.027326  -0.028261  -0.004111
    10  H    0.000453   0.000366  -0.027326   0.471093   0.001216   0.000163
    11  O    0.028786  -0.001834  -0.028261   0.001216   8.011428  -0.125770
    12  O    0.037035  -0.001409  -0.004111   0.000163  -0.125770   8.078449
    13  H    0.413288  -0.010176  -0.044766  -0.001149   0.000077  -0.000546
    14  H   -0.037855   0.000680   0.415337  -0.006033  -0.000460  -0.000078
    15  H   -0.002844   0.000418   0.002179  -0.000132   0.296693  -0.009145
              13         14         15
     1  C    0.034652   0.003857  -0.058999
     2  C   -0.044971   0.032235  -0.002463
     3  C   -0.037518  -0.004243   0.018261
     4  C    0.013411  -0.048219  -0.011969
     5  H    0.000501  -0.000099  -0.000512
     6  C    0.008121  -0.010030   0.040558
     7  C    0.413288  -0.037855  -0.002844
     8  H   -0.010176   0.000680   0.000418
     9  C   -0.044766   0.415337   0.002179
    10  H   -0.001149  -0.006033  -0.000132
    11  O    0.000077  -0.000460   0.296693
    12  O   -0.000546  -0.000078  -0.009145
    13  H    0.466848  -0.006175  -0.000128
    14  H   -0.006175   0.470409  -0.000022
    15  H   -0.000128  -0.000022   0.394572
 Mulliken charges:
               1
     1  C    1.082182
     2  C   -0.782523
     3  C   -0.776160
     4  C    0.058083
     5  H    0.190954
     6  C   -0.045521
     7  C    0.012493
     8  H    0.207790
     9  C   -0.427011
    10  H    0.203368
    11  O   -0.140094
    12  O   -0.316323
    13  H    0.208532
    14  H    0.190696
    15  H    0.333534
 Sum of Mulliken charges =  -0.00000
 Mulliken charges with hydrogens summed into heavy atoms:
               1
     1  C    1.082182
     2  C   -0.591569
     3  C   -0.568369
     4  C    0.261451
     6  C   -0.045521
     7  C    0.221025
     9  C   -0.236316
    11  O    0.193440
    12  O   -0.316323
 Electronic spatial extent (au):  <R**2>=           1158.2368
 Charge=             -0.0000 electrons
 Dipole moment (field-independent basis, Debye):
    X=             -1.2440    Y=             -2.0507    Z=             -1.0776  Tot=              2.6295
 Quadrupole moment (field-independent basis, Debye-Ang):
   XX=            -43.2708   YY=            -49.4525   ZZ=            -54.7511
   XY=             -7.1188   XZ=             -3.6008   YZ=             -3.1491
 Traceless Quadrupole moment (field-independent basis, Debye-Ang):
   XX=              5.8873   YY=             -0.2943   ZZ=             -5.5930
   XY=             -7.1188   XZ=             -3.6008   YZ=             -3.1491
 Octapole moment (field-independent basis, Debye-Ang**2):
  XXX=             22.0304  YYY=             -3.1343  ZZZ=             -0.9192  XYY=             -5.8523
  XXY=            -23.5053  XXZ=            -12.2380  XZZ=              9.8876  YZZ=             -1.0038
  YYZ=             -1.4814  XYZ=             -1.4252
 Hexadecapole moment (field-independent basis, Debye-Ang**3):
 XXXX=           -872.8746 YYYY=           -337.2975 ZZZZ=            -82.5403 XXXY=            -80.2542
 XXXZ=            -41.8999 YYYX=            -12.3135 YYYZ=             -7.5685 ZZZX=             -3.7513
 ZZZY=              2.8780 XXYY=           -229.5587 XXZZ=           -198.7481 YYZZ=            -78.3422
 XXYZ=             -7.0151 YYXZ=             -4.1025 ZZXY=             -3.6470
 N-N= 4.090597534177D+02 E-N=-1.801591569659D+03  KE= 4.201174868205D+02
 No NMR shielding tensors so no spin-rotation constants.
 Leave Link  601 at Sun Nov  6 23:01:49 2022, MaxMem= 16106127360 cpu:               3.4 elap:               0.1
 (Enter /opt/ap/G16/B01/g16/l9999.exe)
 1\1\GINC-N04\SP\RwB97XD\6-311++G(d,p)\C7H6O2\ROOT\06-Nov-2022\0\\#P wB
 97XD/6-311++G(d,p) scf=maxcycle=512\\_conf025.gjf nmol_natom 1_15\\0,1
 \C\C,1,1.39016191\C,1,1.39194539,2,119.895942\C,2,1.38669027,1,119.880
 75721,3,0.70825972,0\H,2,0.98744251,1,119.71654057,3,-179.90726164,0\C
 ,1,1.48428757,2,119.93615286,4,-179.87772406,0\C,3,1.40101108,1,119.72
 36454,2,-0.26266839,0\H,3,0.9902154,1,119.1886159,2,178.85397616,0\C,4
 ,1.37899003,2,120.45785903,1,-0.48041454,0\H,4,0.9834739,2,120.3044270
 6,1,179.36166981,0\O,6,1.27459751,1,118.00615353,2,35.,0\O,6,1.2636257
 2,1,118.77715367,2,-145.,0\H,7,0.98977053,3,119.37861578,1,-178.935457
 41,0\H,9,0.99498061,4,119.46722635,2,-178.58826714,0\H,11,0.89680392,6
 ,118.15823763,1,176.92714093,0\\Version=ES64L-G16RevB.01\State=1-A\HF=
 -420.7441158\RMSD=9.106e-09\Dipole=0.0804306,0.5476647,0.8739719\Quadr
 upole=7.4834226,-4.7747428,-2.7086798,-2.3544298,-0.9091485,-3.0775516
 \PG=C01 [X(C7H6O2)]\\@


 A people that values its privileges above its principles soon loses both.
 -- Dwight D. Eisenhower
 Job cpu time:       0 days  0 hours  7 minutes 25.3 seconds.
 Elapsed time:       0 days  0 hours  0 minutes 14.0 seconds.
 File lengths (MBytes):  RWF=     35 Int=      0 D2E=      0 Chk=      4 Scr=      1
 Normal termination of Gaussian 16 at Sun Nov  6 23:01:49 2022.
