 Entering Gaussian System, Link 0=g16
 Input=_conf023.gjf
 Output=_conf023.log
 Initial command:
 /opt/ap/G16/B01/g16/l1.exe "/tmp2/scr/Gau-1320.inp" -scrdir="/tmp2/scr/"
 Entering Link 1 = /opt/ap/G16/B01/g16/l1.exe PID=      1321.
  
 Copyright (c) 1988-2017, Gaussian, Inc.  All Rights Reserved.
  
 This is part of the Gaussian(R) 16 program.  It is based on
 the Gaussian(R) 09 system (copyright 2009, Gaussian, Inc.),
 the Gaussian(R) 03 system (copyright 2003, Gaussian, Inc.),
 the Gaussian(R) 98 system (copyright 1998, Gaussian, Inc.),
 the Gaussian(R) 94 system (copyright 1995, Gaussian, Inc.),
 the Gaussian 92(TM) system (copyright 1992, Gaussian, Inc.),
 the Gaussian 90(TM) system (copyright 1990, Gaussian, Inc.),
 the Gaussian 88(TM) system (copyright 1988, Gaussian, Inc.),
 the Gaussian 86(TM) system (copyright 1986, Carnegie Mellon
 University), and the Gaussian 82(TM) system (copyright 1983,
 Carnegie Mellon University). Gaussian is a federally registered
 trademark of Gaussian, Inc.
  
 This software contains proprietary and confidential information,
 including trade secrets, belonging to Gaussian, Inc.
  
 This software is provided under written license and may be
 used, copied, transmitted, or stored only in accord with that
 written license.
  
 The following legend is applicable only to US Government
 contracts under FAR:
  
                    RESTRICTED RIGHTS LEGEND
  
 Use, reproduction and disclosure by the US Government is
 subject to restrictions as set forth in subparagraphs (a)
 and (c) of the Commercial Computer Software - Restricted
 Rights clause in FAR 52.227-19.
  
 Gaussian, Inc.
 340 Quinnipiac St., Bldg. 40, Wallingford CT 06492
  
  
 ---------------------------------------------------------------
 Warning -- This program may not be used in any manner that
 competes with the business of Gaussian, Inc. or will provide
 assistance to any competitor of Gaussian, Inc.  The licensee
 of this program is prohibited from giving any competitor of
 Gaussian, Inc. access to this program.  By using this program,
 the user acknowledges that Gaussian, Inc. is engaged in the
 business of creating and licensing software in the field of
 computational chemistry and represents and warrants to the
 licensee that it is not a competitor of Gaussian, Inc. and that
 it will not use this program in any manner prohibited above.
 ---------------------------------------------------------------
  

 Cite this work as:
 Gaussian 16, Revision B.01,
 M. J. Frisch, G. W. Trucks, H. B. Schlegel, G. E. Scuseria, 
 M. A. Robb, J. R. Cheeseman, G. Scalmani, V. Barone, 
 G. A. Petersson, H. Nakatsuji, X. Li, M. Caricato, A. V. Marenich, 
 J. Bloino, B. G. Janesko, R. Gomperts, B. Mennucci, H. P. Hratchian, 
 J. V. Ortiz, A. F. Izmaylov, J. L. Sonnenberg, D. Williams-Young, 
 F. Ding, F. Lipparini, F. Egidi, J. Goings, B. Peng, A. Petrone, 
 T. Henderson, D. Ranasinghe, V. G. Zakrzewski, J. Gao, N. Rega, 
 G. Zheng, W. Liang, M. Hada, M. Ehara, K. Toyota, R. Fukuda, 
 J. Hasegawa, M. Ishida, T. Nakajima, Y. Honda, O. Kitao, H. Nakai, 
 T. Vreven, K. Throssell, J. A. Montgomery, Jr., J. E. Peralta, 
 F. Ogliaro, M. J. Bearpark, J. J. Heyd, E. N. Brothers, K. N. Kudin, 
 V. N. Staroverov, T. A. Keith, R. Kobayashi, J. Normand, 
 K. Raghavachari, A. P. Rendell, J. C. Burant, S. S. Iyengar, 
 J. Tomasi, M. Cossi, J. M. Millam, M. Klene, C. Adamo, R. Cammi, 
 J. W. Ochterski, R. L. Martin, K. Morokuma, O. Farkas, 
 J. B. Foresman, and D. J. Fox, Gaussian, Inc., Wallingford CT, 2016.
 
 ******************************************
 Gaussian 16:  ES64L-G16RevB.01 20-Dec-2017
                 6-Nov-2022 
 ******************************************
 %nprocshared=32
 Will use up to   32 processors via shared memory.
 %mem=120GB
 %chk=_conf023.chk
 ----------------------------------------
 #P wB97XD/6-311++G(d,p) scf=maxcycle=512
 ----------------------------------------
 1/38=1,172=1/1;
 2/12=2,17=6,18=5,40=1/2;
 3/5=4,6=6,7=1111,11=2,25=1,30=1,74=-58/1,2,3;
 4//1;
 5/5=2,7=512,38=5/2;
 6/7=2,8=2,9=2,10=2,28=1/1;
 99/5=1,9=1/99;
 Leave Link    1 at Sun Nov  6 23:01:20 2022, MaxMem= 16106127360 cpu:               1.8 elap:               0.1
 (Enter /opt/ap/G16/B01/g16/l101.exe)
 ----------------------------
 _conf023.gjf nmol_natom 1_15
 ----------------------------
 Symbolic Z-matrix:
 Charge =  0 Multiplicity = 1
 C
 C                    1     1.39016 
 C                    1     1.39195  2     119.89594 
 C                    2     1.38669  1     119.88076  3     0.70826  0
 H                    2     0.98744  1     119.71654  3    -179.90726  0
 C                    1     1.48429  2     119.93615  4    -179.87772  0
 C                    3     1.40101  1     119.72365  2    -0.26267  0
 H                    3     0.99022  1     119.18862  2     178.85398  0
 C                    4     1.37899  2     120.45786  1    -0.48041  0
 H                    4     0.98347  2     120.30443  1     179.36167  0
 O                    6     1.2746   1     118.00615  2     25.      0
 O                    6     1.26363  1     118.77715  2    -155.     0
 H                    7     0.98977  3     119.37862  1    -178.93546  0
 H                    9     0.99498  4     119.46723  2    -178.58827  0
 H                    11    0.8968   6     118.15824  1     176.92714  0
 
 ITRead=  0  0  0  0  0  0  0  0  0  0  0  0  0  0  0
 MicOpt= -1 -1 -1 -1 -1 -1 -1 -1 -1 -1 -1 -1 -1 -1 -1
 NAtoms=     15 NQM=       15 NQMF=       0 NMMI=      0 NMMIF=      0
                NMic=       0 NMicF=      0.
                    Isotopes and Nuclear Properties:
 (Nuclear quadrupole moments (NQMom) in fm**2, nuclear magnetic moments (NMagM)
  in nuclear magnetons)

  Atom         1           2           3           4           5           6           7           8           9          10
 IAtWgt=          12          12          12          12           1          12          12           1          12           1
 AtmWgt=  12.0000000  12.0000000  12.0000000  12.0000000   1.0078250  12.0000000  12.0000000   1.0078250  12.0000000   1.0078250
 NucSpn=           0           0           0           0           1           0           0           1           0           1
 AtZEff=  -0.0000000  -0.0000000  -0.0000000  -0.0000000  -0.0000000  -0.0000000  -0.0000000  -0.0000000  -0.0000000  -0.0000000
 NQMom=    0.0000000   0.0000000   0.0000000   0.0000000   0.0000000   0.0000000   0.0000000   0.0000000   0.0000000   0.0000000
 NMagM=    0.0000000   0.0000000   0.0000000   0.0000000   2.7928460   0.0000000   0.0000000   2.7928460   0.0000000   2.7928460
 AtZNuc=   6.0000000   6.0000000   6.0000000   6.0000000   1.0000000   6.0000000   6.0000000   1.0000000   6.0000000   1.0000000

  Atom        11          12          13          14          15
 IAtWgt=          16          16           1           1           1
 AtmWgt=  15.9949146  15.9949146   1.0078250   1.0078250   1.0078250
 NucSpn=           0           0           1           1           1
 AtZEff=  -0.0000000  -0.0000000  -0.0000000  -0.0000000  -0.0000000
 NQMom=    0.0000000   0.0000000   0.0000000   0.0000000   0.0000000
 NMagM=    0.0000000   0.0000000   2.7928460   2.7928460   2.7928460
 AtZNuc=   8.0000000   8.0000000   1.0000000   1.0000000   1.0000000
 Leave Link  101 at Sun Nov  6 23:01:21 2022, MaxMem= 16106127360 cpu:               5.6 elap:               0.2
 (Enter /opt/ap/G16/B01/g16/l202.exe)
                          Input orientation:                          
 ---------------------------------------------------------------------
 Center     Atomic      Atomic             Coordinates (Angstroms)
 Number     Number       Type             X           Y           Z
 ---------------------------------------------------------------------
      1          6           0        0.000000    0.000000    0.000000
      2          6           0        0.000000    0.000000    1.390162
      3          6           0        1.206722    0.000000   -0.693782
      4          6           0        1.202258    0.014862    2.081006
      5          1           0       -0.857581   -0.001388    1.879646
      6          6           0       -1.286190   -0.013155   -0.740711
      7          6           0        2.415349    0.005578    0.014752
      8          1           0        1.194584   -0.017290   -1.683772
      9          6           0        2.400563    0.019708    1.398617
     10          1           0        1.209438    0.024411    3.064408
     11          8           0       -2.318623    0.451899   -0.155558
     12          8           0       -1.307627   -0.481476   -1.914153
     13          1           0        3.270315    0.021574   -0.483669
     14          1           0        3.254554    0.009066    1.909081
     15          1           0       -3.087649    0.483681   -0.615825
 ---------------------------------------------------------------------
                    Distance matrix (angstroms):
                    1          2          3          4          5
     1  C    0.000000
     2  C    1.390162   0.000000
     3  C    1.391945   2.408112   0.000000
     4  C    2.403379   1.386690   2.774832   0.000000
     5  H    2.066039   0.987443   3.299073   2.069721   0.000000
     6  C    1.484288   2.488991   2.493388   3.762345   2.655206
     7  C    2.415401   2.779513   1.401011   2.396056   3.766955
     8  H    2.064563   3.297939   0.990215   3.764924   4.112127
     9  C    2.778349   2.400659   2.409104   1.378990   3.293530
    10  H    3.294530   2.065535   3.758270   0.983474   2.382624
    11  O    2.367367   2.823026   3.594713   4.194022   2.546010
    12  O    2.367633   3.586112   2.836031   4.744172   3.850446
    13  H    3.305958   3.769173   2.074374   3.294611   4.756607
    14  H    3.773167   3.295676   3.311886   2.059493   4.112253
    15  H    3.185399   3.713692   4.322227   5.088810   3.381697
                    6          7          8          9         10
     6  C    0.000000
     7  C    3.777892   0.000000
     8  H    2.653982   2.091836   0.000000
     9  C    4.262622   1.384016   3.310118   0.000000
    10  H    4.550659   3.279477   4.748386   2.047842   0.000000
    11  O    1.274598   4.758015   3.859819   4.987280   4.795638
    12  O    1.263626   4.221190   2.555309   4.997630   5.601571
    13  H    4.563881   0.989771   2.398003   2.073517   4.103177
    14  H    5.257398   2.071897   4.141589   0.994981   2.348938
    15  H    1.872885   5.559605   4.441735   5.864616   5.676267
                   11         12         13         14         15
    11  O    0.000000
    12  O    2.232926   0.000000
    13  H    5.615075   4.822540   0.000000
    14  H    5.959793   5.972540   2.392834   0.000000
    15  H    0.896804   2.405340   6.376105   6.842802   0.000000
 Stoichiometry    C7H6O2
 Framework group  C1[X(C7H6O2)]
 Deg. of freedom    39
 Full point group                 C1      NOp   1
 Largest Abelian subgroup         C1      NOp   1
 Largest concise Abelian subgroup C1      NOp   1
                         Standard orientation:                         
 ---------------------------------------------------------------------
 Center     Atomic      Atomic             Coordinates (Angstroms)
 Number     Number       Type             X           Y           Z
 ---------------------------------------------------------------------
      1          6           0        0.220671    0.026191    0.004161
      2          6           0       -0.446831   -1.184215    0.152174
      3          6           0       -0.504712    1.205117   -0.142347
      4          6           0       -1.833117   -1.214820    0.138609
      5          1           0        0.070387   -2.018768    0.257291
      6          6           0        1.704528    0.060023    0.015774
      7          6           0       -1.905095    1.163279   -0.145197
      8          1           0       -0.018739    2.063429   -0.229863
      9          6           0       -2.556579   -0.050416   -0.010988
     10          1           0       -2.311591   -2.068809    0.233405
     11          8           0        2.329975   -0.998169   -0.321338
     12          8           0        2.285982    1.128795    0.356930
     13          1           0       -2.415703    2.002581   -0.265607
     14          1           0       -3.550805   -0.086751    0.002519
     15          1           0        3.225604   -0.967650   -0.355595
 ---------------------------------------------------------------------
 Rotational constants (GHZ):           3.9688754           1.2237563           0.9531532
 Leave Link  202 at Sun Nov  6 23:01:21 2022, MaxMem= 16106127360 cpu:               0.3 elap:               0.0
 (Enter /opt/ap/G16/B01/g16/l301.exe)
 Standard basis: 6-311++G(d,p) (5D, 7F)
 Ernie: Thresh=  0.10000D-02 Tol=  0.10000D-05 Strict=F.
 There are   249 symmetry adapted cartesian basis functions of A   symmetry.
 There are   240 symmetry adapted basis functions of A   symmetry.
   240 basis functions,   378 primitive gaussians,   249 cartesian basis functions
    32 alpha electrons       32 beta electrons
       nuclear repulsion energy       409.2917227510 Hartrees.
 IExCor= 4639 DFT=T Ex+Corr=wB97XD ExCW=0 ScaHFX=  1.000000
 ScaDFX=  1.000000  1.000000  1.000000  1.000000 ScalE2=  1.000000  1.000000
 IRadAn=      5 IRanWt=     -1 IRanGd=            0 ICorTp=0 IEmpDi=121
 HFx  wShort=  0.000000 wLong=  0.200000 cFull=  0.222036 cShort=  0.000000 cLong=  0.777964
 DFx  wShort=  0.000000 wLong=  0.200000 cFull=  0.000000 cShort=  0.000000 cLong=  1.000000
 NAtoms=   15 NActive=   15 NUniq=   15 SFac= 1.00D+00 NAtFMM=   60 NAOKFM=F Big=F
 Integral buffers will be    131072 words long.
 Raffenetti 2 integral format.
 Two-electron integral symmetry is turned on.
 R6Disp:  Grimme-D2 Dispersion energy=       -0.0063689538 Hartrees.
 Nuclear repulsion after empirical dispersion term =      409.2853537972 Hartrees.
 Leave Link  301 at Sun Nov  6 23:01:21 2022, MaxMem= 16106127360 cpu:               1.2 elap:               0.0
 (Enter /opt/ap/G16/B01/g16/l302.exe)
 NPDir=0 NMtPBC=     1 NCelOv=     1 NCel=       1 NClECP=     1 NCelD=      1
         NCelK=      1 NCelE2=     1 NClLst=     1 CellRange=     0.0.
 One-electron integrals computed using PRISM.
 One-electron integral symmetry used in STVInt
 NBasis=   240 RedAO= T EigKep=  1.23D-06  NBF=   240
 NBsUse=   240 1.00D-06 EigRej= -1.00D+00 NBFU=   240
 Precomputing XC quadrature grid using
 IXCGrd= 4 IRadAn=           5 IRanWt=          -1 IRanGd=           0 AccXCQ= 0.00D+00.
 Generated NRdTot=       0 NPtTot=           0 NUsed=           0 NTot=          32
 NSgBfM=   249   249   249   249   249 MxSgAt=    15 MxSgA2=    15.
 Leave Link  302 at Sun Nov  6 23:01:21 2022, MaxMem= 16106127360 cpu:               5.4 elap:               0.2
 (Enter /opt/ap/G16/B01/g16/l303.exe)
 DipDrv:  MaxL=1.
 Leave Link  303 at Sun Nov  6 23:01:21 2022, MaxMem= 16106127360 cpu:               1.2 elap:               0.0
 (Enter /opt/ap/G16/B01/g16/l401.exe)
 ExpMin= 3.60D-02 ExpMax= 8.59D+03 ExpMxC= 1.30D+03 IAcc=3 IRadAn=         5 AccDes= 0.00D+00
 Harris functional with IExCor= 4639 and IRadAn=       5 diagonalized for initial guess.
 HarFok:  IExCor= 4639 AccDes= 0.00D+00 IRadAn=         5 IDoV= 1 UseB2=F ITyADJ=14
 ICtDFT=  3500011 ScaDFX=  1.000000  1.000000  1.000000  1.000000
 FoFCou: FMM=F IPFlag=           0 FMFlag=      100000 FMFlg1=           0
         NFxFlg=           0 DoJE=T BraDBF=F KetDBF=T FulRan=T
         wScrn=  0.000000 ICntrl=       500 IOpCl=  0 I1Cent=   200000004 NGrid=           0
         NMat0=    1 NMatS0=      1 NMatT0=    0 NMatD0=    1 NMtDS0=    0 NMtDT0=    0
 Petite list used in FoFCou.
 Harris En= -403.253879559159    
 JPrj=0 DoOrth=F DoCkMO=F.
 Leave Link  401 at Sun Nov  6 23:01:21 2022, MaxMem= 16106127360 cpu:              11.8 elap:               0.4
 (Enter /opt/ap/G16/B01/g16/l502.exe)
 Integral symmetry usage will be decided dynamically.
 Closed shell SCF:
 Using DIIS extrapolation, IDIIS=  1040.
 NGot= 16106127360 LenX= 16105992971 LenY= 16105930529
 Requested convergence on RMS density matrix=1.00D-08 within 512 cycles.
 Requested convergence on MAX density matrix=1.00D-06.
 Requested convergence on             energy=1.00D-06.
 No special actions if energy rises.
 Fock matrices will be formed incrementally for  20 cycles.

 Cycle   1  Pass 1  IDiag  1:
 FoFJK:  IHMeth= 1 ICntrl=       0 DoSepK=T KAlg= 0 I1Cent=           0 FoldK=F
 IRaf=         1 NMat=       1 IRICut=       1 DoRegI=T DoRafI=F ISym2E= 0 IDoP0=0 IntGTp=1.
 FoFCou: FMM=F IPFlag=           0 FMFlag=      100000 FMFlg1=           0
         NFxFlg=           0 DoJE=T BraDBF=F KetDBF=F FulRan=T
         wScrn=  0.000000 ICntrl=       500 IOpCl=  0 I1Cent=           0 NGrid=           0
         NMat0=    1 NMatS0=      1 NMatT0=    0 NMatD0=    1 NMtDS0=    0 NMtDT0=    0
 Symmetry not used in FoFCou.
 E= -420.631014971922    
 DIIS: error= 7.83D-02 at cycle   1 NSaved=   1.
 NSaved= 1 IEnMin= 1 EnMin= -420.631014971922     IErMin= 1 ErrMin= 7.83D-02
 ErrMax= 7.83D-02  0.00D+00 EMaxC= 1.00D-01 BMatC= 8.61D-01 BMatP= 8.61D-01
 IDIUse=3 WtCom= 2.17D-01 WtEn= 7.83D-01
 Coeff-Com:  0.100D+01
 Coeff-En:   0.100D+01
 Coeff:      0.100D+01
 Gap=     0.426 Goal=   None    Shift=    0.000
 GapD=    0.426 DampG=2.000 DampE=0.500 DampFc=1.0000 IDamp=-1.
 RMSDP=2.63D-02 MaxDP=1.37D+00              OVMax= 1.03D-01

 Cycle   2  Pass 1  IDiag  1:
 RMSU=  1.48D-02    CP:  6.82D-01
 E= -420.701929053000     Delta-E=       -0.070914081077 Rises=F Damp=F
 DIIS: error= 1.22D-02 at cycle   2 NSaved=   2.
 NSaved= 2 IEnMin= 2 EnMin= -420.701929053000     IErMin= 2 ErrMin= 1.22D-02
 ErrMax= 1.22D-02  0.00D+00 EMaxC= 1.00D-01 BMatC= 5.72D-02 BMatP= 8.61D-01
 IDIUse=3 WtCom= 8.78D-01 WtEn= 1.22D-01
 Coeff-Com:  0.135D+00 0.865D+00
 Coeff-En:   0.981D-01 0.902D+00
 Coeff:      0.131D+00 0.869D+00
 Gap=     0.430 Goal=   None    Shift=    0.000
 RMSDP=8.47D-03 MaxDP=4.56D-01 DE=-7.09D-02 OVMax= 8.33D-02

 Cycle   3  Pass 1  IDiag  1:
 RMSU=  6.30D-03    CP:  6.28D-01  7.09D-01
 E= -420.718055559760     Delta-E=       -0.016126506760 Rises=F Damp=F
 DIIS: error= 1.30D-02 at cycle   3 NSaved=   3.
 NSaved= 3 IEnMin= 3 EnMin= -420.718055559760     IErMin= 2 ErrMin= 1.22D-02
 ErrMax= 1.30D-02  0.00D+00 EMaxC= 1.00D-01 BMatC= 3.60D-02 BMatP= 5.72D-02
 IDIUse=3 WtCom= 8.70D-01 WtEn= 1.30D-01
 Coeff-Com:  0.279D-01 0.448D+00 0.525D+00
 Coeff-En:   0.000D+00 0.385D+00 0.615D+00
 Coeff:      0.242D-01 0.439D+00 0.536D+00
 Gap=     0.356 Goal=   None    Shift=    0.000
 RMSDP=3.76D-03 MaxDP=1.46D-01 DE=-1.61D-02 OVMax= 5.39D-02

 Cycle   4  Pass 1  IDiag  1:
 RMSU=  2.51D-03    CP:  6.19D-01  8.56D-01  7.37D-01
 E= -420.744229383727     Delta-E=       -0.026173823967 Rises=F Damp=F
 DIIS: error= 2.58D-03 at cycle   4 NSaved=   4.
 NSaved= 4 IEnMin= 4 EnMin= -420.744229383727     IErMin= 4 ErrMin= 2.58D-03
 ErrMax= 2.58D-03  0.00D+00 EMaxC= 1.00D-01 BMatC= 1.97D-03 BMatP= 3.60D-02
 IDIUse=3 WtCom= 9.74D-01 WtEn= 2.58D-02
 Coeff-Com:  0.105D-01 0.221D+00 0.303D+00 0.465D+00
 Coeff-En:   0.000D+00 0.000D+00 0.000D+00 0.100D+01
 Coeff:      0.102D-01 0.216D+00 0.295D+00 0.479D+00
 Gap=     0.355 Goal=   None    Shift=    0.000
 RMSDP=8.33D-04 MaxDP=5.25D-02 DE=-2.62D-02 OVMax= 1.25D-02

 Cycle   5  Pass 1  IDiag  1:
 RMSU=  7.08D-04    CP:  6.16D-01  8.46D-01  7.51D-01  8.68D-01
 E= -420.745563193312     Delta-E=       -0.001333809584 Rises=F Damp=F
 DIIS: error= 4.57D-04 at cycle   5 NSaved=   5.
 NSaved= 5 IEnMin= 5 EnMin= -420.745563193312     IErMin= 5 ErrMin= 4.57D-04
 ErrMax= 4.57D-04  0.00D+00 EMaxC= 1.00D-01 BMatC= 4.96D-05 BMatP= 1.97D-03
 IDIUse=3 WtCom= 9.95D-01 WtEn= 4.57D-03
 Coeff-Com:  0.350D-03 0.159D-01 0.308D-01 0.149D+00 0.804D+00
 Coeff-En:   0.000D+00 0.000D+00 0.000D+00 0.000D+00 0.100D+01
 Coeff:      0.349D-03 0.159D-01 0.307D-01 0.148D+00 0.805D+00
 Gap=     0.352 Goal=   None    Shift=    0.000
 RMSDP=2.94D-04 MaxDP=1.42D-02 DE=-1.33D-03 OVMax= 2.54D-03

 Cycle   6  Pass 1  IDiag  1:
 RMSU=  1.66D-04    CP:  6.15D-01  8.50D-01  7.75D-01  9.24D-01  1.08D+00
 E= -420.745602050179     Delta-E=       -0.000038856867 Rises=F Damp=F
 DIIS: error= 2.09D-04 at cycle   6 NSaved=   6.
 NSaved= 6 IEnMin= 6 EnMin= -420.745602050179     IErMin= 6 ErrMin= 2.09D-04
 ErrMax= 2.09D-04  0.00D+00 EMaxC= 1.00D-01 BMatC= 7.28D-06 BMatP= 4.96D-05
 IDIUse=3 WtCom= 9.98D-01 WtEn= 2.09D-03
 Coeff-Com: -0.959D-03-0.165D-01-0.178D-01 0.122D-01 0.347D+00 0.676D+00
 Coeff-En:   0.000D+00 0.000D+00 0.000D+00 0.000D+00 0.000D+00 0.100D+01
 Coeff:     -0.957D-03-0.164D-01-0.178D-01 0.122D-01 0.346D+00 0.677D+00
 Gap=     0.352 Goal=   None    Shift=    0.000
 RMSDP=1.41D-04 MaxDP=1.38D-02 DE=-3.89D-05 OVMax= 7.84D-04

 Cycle   7  Pass 1  IDiag  1:
 RMSU=  4.32D-05    CP:  6.13D-01  8.49D-01  7.84D-01  9.47D-01  1.16D+00
                    CP:  1.10D+00
 E= -420.745609255901     Delta-E=       -0.000007205722 Rises=F Damp=F
 DIIS: error= 6.58D-05 at cycle   7 NSaved=   7.
 NSaved= 7 IEnMin= 7 EnMin= -420.745609255901     IErMin= 7 ErrMin= 6.58D-05
 ErrMax= 6.58D-05  0.00D+00 EMaxC= 1.00D-01 BMatC= 3.17D-07 BMatP= 7.28D-06
 IDIUse=1 WtCom= 1.00D+00 WtEn= 0.00D+00
 Coeff-Com: -0.233D-03-0.541D-02-0.672D-02-0.137D-01-0.243D-02 0.132D+00
 Coeff-Com:  0.896D+00
 Coeff:     -0.233D-03-0.541D-02-0.672D-02-0.137D-01-0.243D-02 0.132D+00
 Coeff:      0.896D+00
 Gap=     0.352 Goal=   None    Shift=    0.000
 RMSDP=4.94D-05 MaxDP=3.54D-03 DE=-7.21D-06 OVMax= 3.53D-04

 Cycle   8  Pass 1  IDiag  1:
 RMSU=  1.24D-05    CP:  6.13D-01  8.49D-01  7.86D-01  9.56D-01  1.21D+00
                    CP:  1.16D+00  1.11D+00
 E= -420.745609866925     Delta-E=       -0.000000611024 Rises=F Damp=F
 DIIS: error= 1.41D-05 at cycle   8 NSaved=   8.
 NSaved= 8 IEnMin= 8 EnMin= -420.745609866925     IErMin= 8 ErrMin= 1.41D-05
 ErrMax= 1.41D-05  0.00D+00 EMaxC= 1.00D-01 BMatC= 4.34D-08 BMatP= 3.17D-07
 IDIUse=1 WtCom= 1.00D+00 WtEn= 0.00D+00
 Coeff-Com:  0.344D-04 0.329D-03 0.257D-03-0.561D-02-0.392D-01-0.404D-01
 Coeff-Com:  0.241D+00 0.844D+00
 Coeff:      0.344D-04 0.329D-03 0.257D-03-0.561D-02-0.392D-01-0.404D-01
 Coeff:      0.241D+00 0.844D+00
 Gap=     0.352 Goal=   None    Shift=    0.000
 RMSDP=1.30D-05 MaxDP=9.90D-04 DE=-6.11D-07 OVMax= 1.42D-04

 Cycle   9  Pass 1  IDiag  1:
 RMSU=  4.44D-06    CP:  6.13D-01  8.49D-01  7.86D-01  9.57D-01  1.22D+00
                    CP:  1.18D+00  1.23D+00  1.10D+00
 E= -420.745609947916     Delta-E=       -0.000000080991 Rises=F Damp=F
 DIIS: error= 1.08D-05 at cycle   9 NSaved=   9.
 NSaved= 9 IEnMin= 9 EnMin= -420.745609947916     IErMin= 9 ErrMin= 1.08D-05
 ErrMax= 1.08D-05  0.00D+00 EMaxC= 1.00D-01 BMatC= 5.28D-09 BMatP= 4.34D-08
 IDIUse=1 WtCom= 1.00D+00 WtEn= 0.00D+00
 Coeff-Com:  0.393D-04 0.754D-03 0.928D-03-0.173D-03-0.107D-01-0.282D-01
 Coeff-Com: -0.314D-01 0.254D+00 0.815D+00
 Coeff:      0.393D-04 0.754D-03 0.928D-03-0.173D-03-0.107D-01-0.282D-01
 Coeff:     -0.314D-01 0.254D+00 0.815D+00
 Gap=     0.352 Goal=   None    Shift=    0.000
 RMSDP=4.43D-06 MaxDP=3.43D-04 DE=-8.10D-08 OVMax= 5.00D-05

 Cycle  10  Pass 1  IDiag  1:
 RMSU=  1.94D-06    CP:  6.13D-01  8.49D-01  7.86D-01  9.56D-01  1.22D+00
                    CP:  1.18D+00  1.26D+00  1.16D+00  1.43D+00
 E= -420.745609957903     Delta-E=       -0.000000009988 Rises=F Damp=F
 DIIS: error= 1.31D-06 at cycle  10 NSaved=  10.
 NSaved=10 IEnMin=10 EnMin= -420.745609957903     IErMin=10 ErrMin= 1.31D-06
 ErrMax= 1.31D-06  0.00D+00 EMaxC= 1.00D-01 BMatC= 6.81D-10 BMatP= 5.28D-09
 IDIUse=1 WtCom= 1.00D+00 WtEn= 0.00D+00
 Coeff-Com:  0.692D-05 0.154D-03 0.215D-03 0.467D-03 0.144D-02-0.397D-02
 Coeff-Com: -0.328D-01-0.268D-01 0.233D+00 0.828D+00
 Coeff:      0.692D-05 0.154D-03 0.215D-03 0.467D-03 0.144D-02-0.397D-02
 Coeff:     -0.328D-01-0.268D-01 0.233D+00 0.828D+00
 Gap=     0.352 Goal=   None    Shift=    0.000
 RMSDP=1.52D-06 MaxDP=8.76D-05 DE=-9.99D-09 OVMax= 1.74D-05

 Cycle  11  Pass 1  IDiag  1:
 RMSU=  5.03D-07    CP:  6.13D-01  8.49D-01  7.86D-01  9.55D-01  1.22D+00
                    CP:  1.18D+00  1.27D+00  1.20D+00  1.57D+00  1.04D+00
 E= -420.745609959138     Delta-E=       -0.000000001235 Rises=F Damp=F
 DIIS: error= 1.05D-06 at cycle  11 NSaved=  11.
 NSaved=11 IEnMin=11 EnMin= -420.745609959138     IErMin=11 ErrMin= 1.05D-06
 ErrMax= 1.05D-06  0.00D+00 EMaxC= 1.00D-01 BMatC= 1.30D-10 BMatP= 6.81D-10
 IDIUse=1 WtCom= 1.00D+00 WtEn= 0.00D+00
 Coeff-Com: -0.196D-05-0.196D-04-0.869D-05 0.252D-03 0.211D-02 0.180D-02
 Coeff-Com: -0.856D-02-0.501D-01-0.211D-01 0.332D+00 0.744D+00
 Coeff:     -0.196D-05-0.196D-04-0.869D-05 0.252D-03 0.211D-02 0.180D-02
 Coeff:     -0.856D-02-0.501D-01-0.211D-01 0.332D+00 0.744D+00
 Gap=     0.352 Goal=   None    Shift=    0.000
 RMSDP=6.59D-07 MaxDP=3.38D-05 DE=-1.23D-09 OVMax= 8.21D-06

 Cycle  12  Pass 1  IDiag  1:
 RMSU=  2.19D-07    CP:  6.13D-01  8.49D-01  7.86D-01  9.55D-01  1.22D+00
                    CP:  1.18D+00  1.27D+00  1.20D+00  1.63D+00  1.11D+00
                    CP:  1.15D+00
 E= -420.745609959349     Delta-E=       -0.000000000211 Rises=F Damp=F
 DIIS: error= 1.96D-07 at cycle  12 NSaved=  12.
 NSaved=12 IEnMin=12 EnMin= -420.745609959349     IErMin=12 ErrMin= 1.96D-07
 ErrMax= 1.96D-07  0.00D+00 EMaxC= 1.00D-01 BMatC= 1.07D-11 BMatP= 1.30D-10
 IDIUse=1 WtCom= 1.00D+00 WtEn= 0.00D+00
 Coeff-Com: -0.115D-05-0.198D-04-0.223D-04 0.219D-04 0.388D-03 0.714D-03
 Coeff-Com:  0.170D-02-0.102D-01-0.274D-01 0.132D-02 0.174D+00 0.859D+00
 Coeff:     -0.115D-05-0.198D-04-0.223D-04 0.219D-04 0.388D-03 0.714D-03
 Coeff:      0.170D-02-0.102D-01-0.274D-01 0.132D-02 0.174D+00 0.859D+00
 Gap=     0.352 Goal=   None    Shift=    0.000
 RMSDP=2.00D-07 MaxDP=1.25D-05 DE=-2.11D-10 OVMax= 3.24D-06

 Cycle  13  Pass 1  IDiag  1:
 RMSU=  8.31D-08    CP:  6.13D-01  8.49D-01  7.86D-01  9.55D-01  1.22D+00
                    CP:  1.18D+00  1.27D+00  1.20D+00  1.64D+00  1.09D+00
                    CP:  1.29D+00  1.16D+00
 E= -420.745609959381     Delta-E=       -0.000000000031 Rises=F Damp=F
 DIIS: error= 1.17D-07 at cycle  13 NSaved=  13.
 NSaved=13 IEnMin=13 EnMin= -420.745609959381     IErMin=13 ErrMin= 1.17D-07
 ErrMax= 1.17D-07  0.00D+00 EMaxC= 1.00D-01 BMatC= 2.37D-12 BMatP= 1.07D-11
 IDIUse=1 WtCom= 1.00D+00 WtEn= 0.00D+00
 Coeff-Com:  0.730D-07-0.390D-05-0.777D-05-0.477D-04-0.336D-03-0.169D-03
 Coeff-Com:  0.244D-02 0.709D-02-0.327D-02-0.694D-01-0.120D+00 0.253D+00
 Coeff-Com:  0.930D+00
 Coeff:      0.730D-07-0.390D-05-0.777D-05-0.477D-04-0.336D-03-0.169D-03
 Coeff:      0.244D-02 0.709D-02-0.327D-02-0.694D-01-0.120D+00 0.253D+00
 Coeff:      0.930D+00
 Gap=     0.352 Goal=   None    Shift=    0.000
 RMSDP=8.47D-08 MaxDP=5.41D-06 DE=-3.15D-11 OVMax= 2.20D-06

 Cycle  14  Pass 1  IDiag  1:
 RMSU=  3.35D-08    CP:  6.13D-01  8.49D-01  7.86D-01  9.55D-01  1.22D+00
                    CP:  1.18D+00  1.27D+00  1.20D+00  1.64D+00  1.08D+00
                    CP:  1.37D+00  1.32D+00  1.27D+00
 E= -420.745609959391     Delta-E=       -0.000000000010 Rises=F Damp=F
 DIIS: error= 4.19D-08 at cycle  14 NSaved=  14.
 NSaved=14 IEnMin=14 EnMin= -420.745609959391     IErMin=14 ErrMin= 4.19D-08
 ErrMax= 4.19D-08  0.00D+00 EMaxC= 1.00D-01 BMatC= 1.94D-13 BMatP= 2.37D-12
 IDIUse=1 WtCom= 1.00D+00 WtEn= 0.00D+00
 Coeff-Com:  0.842D-07 0.183D-05 0.222D-05-0.189D-05-0.616D-04-0.474D-04
 Coeff-Com: -0.155D-03 0.127D-02 0.282D-02-0.277D-02-0.212D-01-0.863D-01
 Coeff-Com:  0.479D-02 0.110D+01
 Coeff:      0.842D-07 0.183D-05 0.222D-05-0.189D-05-0.616D-04-0.474D-04
 Coeff:     -0.155D-03 0.127D-02 0.282D-02-0.277D-02-0.212D-01-0.863D-01
 Coeff:      0.479D-02 0.110D+01
 Gap=     0.352 Goal=   None    Shift=    0.000
 RMSDP=4.05D-08 MaxDP=2.50D-06 DE=-1.02D-11 OVMax= 8.66D-07

 Cycle  15  Pass 1  IDiag  1:
 RMSU=  9.08D-09    CP:  6.13D-01  8.49D-01  7.86D-01  9.55D-01  1.22D+00
                    CP:  1.18D+00  1.27D+00  1.20D+00  1.64D+00  1.07D+00
                    CP:  1.39D+00  1.36D+00  1.46D+00  1.39D+00
 E= -420.745609959392     Delta-E=       -0.000000000001 Rises=F Damp=F
 DIIS: error= 1.62D-08 at cycle  15 NSaved=  15.
 NSaved=15 IEnMin=15 EnMin= -420.745609959392     IErMin=15 ErrMin= 1.62D-08
 ErrMax= 1.62D-08  0.00D+00 EMaxC= 1.00D-01 BMatC= 4.24D-14 BMatP= 1.94D-13
 IDIUse=1 WtCom= 1.00D+00 WtEn= 0.00D+00
 Coeff-Com:  0.198D-07 0.116D-05 0.185D-05 0.560D-05 0.192D-04 0.111D-04
 Coeff-Com: -0.365D-03-0.390D-03 0.149D-02 0.796D-02 0.812D-02-0.573D-01
 Coeff-Com: -0.118D+00 0.389D+00 0.769D+00
 Coeff:      0.198D-07 0.116D-05 0.185D-05 0.560D-05 0.192D-04 0.111D-04
 Coeff:     -0.365D-03-0.390D-03 0.149D-02 0.796D-02 0.812D-02-0.573D-01
 Coeff:     -0.118D+00 0.389D+00 0.769D+00
 Gap=     0.352 Goal=   None    Shift=    0.000
 RMSDP=9.96D-09 MaxDP=5.58D-07 DE=-1.25D-12 OVMax= 1.98D-07

 SCF Done:  E(RwB97XD) =  -420.745609959     A.U. after   15 cycles
            NFock= 15  Conv=0.10D-07     -V/T= 2.0015
 KE= 4.201191727704D+02 PE=-1.802061879767D+03 EE= 5.519117432398D+02
 Leave Link  502 at Sun Nov  6 23:01:34 2022, MaxMem= 16106127360 cpu:             406.9 elap:              12.8
 (Enter /opt/ap/G16/B01/g16/l601.exe)
 Copying SCF densities to generalized density rwf, IOpCl= 0 IROHF=0.

 **********************************************************************

            Population analysis using the SCF Density.

 **********************************************************************

 Orbital symmetries:
       Occupied  (A) (A) (A) (A) (A) (A) (A) (A) (A) (A) (A) (A)
                 (A) (A) (A) (A) (A) (A) (A) (A) (A) (A) (A) (A)
                 (A) (A) (A) (A) (A) (A) (A) (A)
       Virtual   (A) (A) (A) (A) (A) (A) (A) (A) (A) (A) (A) (A)
                 (A) (A) (A) (A) (A) (A) (A) (A) (A) (A) (A) (A)
                 (A) (A) (A) (A) (A) (A) (A) (A) (A) (A) (A) (A)
                 (A) (A) (A) (A) (A) (A) (A) (A) (A) (A) (A) (A)
                 (A) (A) (A) (A) (A) (A) (A) (A) (A) (A) (A) (A)
                 (A) (A) (A) (A) (A) (A) (A) (A) (A) (A) (A) (A)
                 (A) (A) (A) (A) (A) (A) (A) (A) (A) (A) (A) (A)
                 (A) (A) (A) (A) (A) (A) (A) (A) (A) (A) (A) (A)
                 (A) (A) (A) (A) (A) (A) (A) (A) (A) (A) (A) (A)
                 (A) (A) (A) (A) (A) (A) (A) (A) (A) (A) (A) (A)
                 (A) (A) (A) (A) (A) (A) (A) (A) (A) (A) (A) (A)
                 (A) (A) (A) (A) (A) (A) (A) (A) (A) (A) (A) (A)
                 (A) (A) (A) (A) (A) (A) (A) (A) (A) (A) (A) (A)
                 (A) (A) (A) (A) (A) (A) (A) (A) (A) (A) (A) (A)
                 (A) (A) (A) (A) (A) (A) (A) (A) (A) (A) (A) (A)
                 (A) (A) (A) (A) (A) (A) (A) (A) (A) (A) (A) (A)
                 (A) (A) (A) (A) (A) (A) (A) (A) (A) (A) (A) (A)
                 (A) (A) (A) (A)
 The electronic state is 1-A.
 Alpha  occ. eigenvalues --  -19.31692 -19.22870 -10.43217 -10.31125 -10.29358
 Alpha  occ. eigenvalues --  -10.29330 -10.29111 -10.28996 -10.28736  -1.25827
 Alpha  occ. eigenvalues --   -1.10654  -0.98081  -0.88930  -0.87035  -0.80579
 Alpha  occ. eigenvalues --   -0.73407  -0.71987  -0.65823  -0.60665  -0.58646
 Alpha  occ. eigenvalues --   -0.57045  -0.55989  -0.54429  -0.53447  -0.48957
 Alpha  occ. eigenvalues --   -0.47435  -0.45534  -0.44843  -0.40933  -0.36561
 Alpha  occ. eigenvalues --   -0.34522  -0.34084
 Alpha virt. eigenvalues --    0.01104   0.03759   0.04270   0.04555   0.05258
 Alpha virt. eigenvalues --    0.06467   0.07670   0.08705   0.10172   0.10747
 Alpha virt. eigenvalues --    0.12071   0.12856   0.13019   0.14328   0.14978
 Alpha virt. eigenvalues --    0.16020   0.16315   0.16980   0.17340   0.18009
 Alpha virt. eigenvalues --    0.18320   0.19395   0.19709   0.20257   0.20428
 Alpha virt. eigenvalues --    0.21100   0.21305   0.21487   0.23187   0.23782
 Alpha virt. eigenvalues --    0.25745   0.26114   0.27106   0.27753   0.27979
 Alpha virt. eigenvalues --    0.29293   0.29545   0.30603   0.30922   0.31652
 Alpha virt. eigenvalues --    0.32302   0.33901   0.35101   0.35246   0.35591
 Alpha virt. eigenvalues --    0.36720   0.36789   0.38244   0.39889   0.40001
 Alpha virt. eigenvalues --    0.40990   0.41484   0.42543   0.43942   0.44309
 Alpha virt. eigenvalues --    0.45211   0.47296   0.51966   0.54266   0.57262
 Alpha virt. eigenvalues --    0.59768   0.60958   0.61845   0.63834   0.63999
 Alpha virt. eigenvalues --    0.64538   0.64949   0.66727   0.67553   0.69262
 Alpha virt. eigenvalues --    0.71433   0.72333   0.73365   0.75028   0.75989
 Alpha virt. eigenvalues --    0.76780   0.81133   0.82310   0.82806   0.84637
 Alpha virt. eigenvalues --    0.87946   0.89387   0.90877   0.92473   0.93865
 Alpha virt. eigenvalues --    0.94449   0.96568   0.96620   0.98281   1.00293
 Alpha virt. eigenvalues --    1.01535   1.02557   1.08489   1.08998   1.13300
 Alpha virt. eigenvalues --    1.13691   1.15445   1.16374   1.17614   1.19514
 Alpha virt. eigenvalues --    1.22099   1.24103   1.25110   1.28076   1.30891
 Alpha virt. eigenvalues --    1.35437   1.37619   1.44254   1.44963   1.55912
 Alpha virt. eigenvalues --    1.56457   1.59263   1.60013   1.61059   1.62009
 Alpha virt. eigenvalues --    1.63140   1.64675   1.66987   1.67506   1.74620
 Alpha virt. eigenvalues --    1.74991   1.78006   1.79872   1.82831   1.87284
 Alpha virt. eigenvalues --    1.88248   1.90951   1.91405   1.95125   1.97864
 Alpha virt. eigenvalues --    1.99949   2.02291   2.03818   2.04970   2.05878
 Alpha virt. eigenvalues --    2.05997   2.08597   2.14383   2.17753   2.18699
 Alpha virt. eigenvalues --    2.23327   2.26733   2.31346   2.43565   2.46361
 Alpha virt. eigenvalues --    2.52126   2.53836   2.54368   2.57806   2.63574
 Alpha virt. eigenvalues --    2.70775   2.71509   2.76698   2.78922   2.81134
 Alpha virt. eigenvalues --    2.81768   2.83043   2.88220   2.90315   2.90495
 Alpha virt. eigenvalues --    2.90907   2.91674   2.96157   2.99751   3.00686
 Alpha virt. eigenvalues --    3.02299   3.06482   3.07011   3.15913   3.18390
 Alpha virt. eigenvalues --    3.19317   3.22927   3.26891   3.29450   3.34474
 Alpha virt. eigenvalues --    3.41685   3.43574   3.48351   3.49364   3.63776
 Alpha virt. eigenvalues --    3.66142   3.69463   3.73756   3.84009   3.87702
 Alpha virt. eigenvalues --    4.06353   4.15158   4.28056   4.30624   4.36203
 Alpha virt. eigenvalues --    4.40688   4.43915   4.95013   5.07218   5.16872
 Alpha virt. eigenvalues --    5.28830   5.47924   5.80209   6.08416  23.84225
 Alpha virt. eigenvalues --   23.94143  24.14251  24.21354  24.28327  24.30345
 Alpha virt. eigenvalues --   24.41769  50.03136  50.14573
          Condensed to atoms (all electrons):
               1          2          3          4          5          6
     1  C   12.413066  -2.308824  -2.900525   1.821911  -0.004217  -2.995187
     2  C   -2.308824  13.416763  -0.417973  -3.297786   0.519331  -1.021372
     3  C   -2.900525  -0.417973  11.153311  -1.094815   0.047602  -0.057448
     4  C    1.821911  -3.297786  -1.094815   7.889877  -0.108132  -0.068217
     5  H   -0.004217   0.519331   0.047602  -0.108132   0.462649  -0.078714
     6  C   -2.995187  -1.021372  -0.057448  -0.068217  -0.078714   9.114964
     7  C    0.858887  -1.581589  -1.294922   1.295289  -0.023617   0.182298
     8  H    0.033736   0.110230   0.391003  -0.037289   0.000588  -0.078482
     9  C   -1.526809   1.682809   1.045737  -0.944130   0.024469  -0.008402
    10  H    0.035029  -0.110152  -0.009833   0.441445  -0.009334   0.011167
    11  O   -0.302404  -0.160922  -0.060505   0.082524  -0.028105   0.442510
    12  O   -0.135942  -0.035917  -0.036824   0.033256  -0.002701   0.504266
    13  H    0.026540  -0.047248  -0.041009   0.017877  -0.000083   0.015665
    14  H    0.004631   0.046183  -0.003806  -0.062335   0.000688  -0.011944
    15  H   -0.069477  -0.009534   0.021913  -0.016392   0.000858   0.057581
               7          8          9         10         11         12
     1  C    0.858887   0.033736  -1.526809   0.035029  -0.302404  -0.135942
     2  C   -1.581589   0.110230   1.682809  -0.110152  -0.160922  -0.035917
     3  C   -1.294922   0.391003   1.045737  -0.009833  -0.060505  -0.036824
     4  C    1.295289  -0.037289  -0.944130   0.441445   0.082524   0.033256
     5  H   -0.023617   0.000588   0.024469  -0.009334  -0.028105  -0.002701
     6  C    0.182298  -0.078482  -0.008402   0.011167   0.442510   0.504266
     7  C    6.785342  -0.083498  -0.615594   0.006032   0.041271   0.064581
     8  H   -0.083498   0.439576   0.026845   0.000094  -0.002405  -0.004491
     9  C   -0.615594   0.026845   6.443708  -0.034539  -0.033918  -0.012762
    10  H    0.006032   0.000094  -0.034539   0.472106   0.002067   0.000317
    11  O    0.041271  -0.002405  -0.033918   0.002067   8.010494  -0.123823
    12  O    0.064581  -0.004491  -0.012762   0.000317  -0.123823   8.086209
    13  H    0.413318  -0.010048  -0.043094  -0.000821   0.000396   0.000323
    14  H   -0.046330   0.000974   0.425778  -0.007325  -0.000494  -0.000191
    15  H    0.001337  -0.000021   0.000772  -0.000175   0.288737  -0.010599
              13         14         15
     1  C    0.026540   0.004631  -0.069477
     2  C   -0.047248   0.046183  -0.009534
     3  C   -0.041009  -0.003806   0.021913
     4  C    0.017877  -0.062335  -0.016392
     5  H   -0.000083   0.000688   0.000858
     6  C    0.015665  -0.011944   0.057581
     7  C    0.413318  -0.046330   0.001337
     8  H   -0.010048   0.000974  -0.000021
     9  C   -0.043094   0.425778   0.000772
    10  H   -0.000821  -0.007325  -0.000175
    11  O    0.000396  -0.000494   0.288737
    12  O    0.000323  -0.000191  -0.010599
    13  H    0.465200  -0.006877  -0.000013
    14  H   -0.006877   0.471185  -0.000060
    15  H   -0.000013  -0.000060   0.397819
 Mulliken charges:
               1
     1  C    1.049585
     2  C   -0.784000
     3  C   -0.741906
     4  C    0.046919
     5  H    0.198718
     6  C   -0.008685
     7  C   -0.002804
     8  H    0.213189
     9  C   -0.430869
    10  H    0.203922
    11  O   -0.155422
    12  O   -0.325701
    13  H    0.209875
    14  H    0.189925
    15  H    0.337254
 Sum of Mulliken charges =  -0.00000
 Mulliken charges with hydrogens summed into heavy atoms:
               1
     1  C    1.049585
     2  C   -0.585282
     3  C   -0.528717
     4  C    0.250841
     6  C   -0.008685
     7  C    0.207071
     9  C   -0.240944
    11  O    0.181832
    12  O   -0.325701
 Electronic spatial extent (au):  <R**2>=           1158.2352
 Charge=             -0.0000 electrons
 Dipole moment (field-independent basis, Debye):
    X=             -1.2956    Y=             -2.1715    Z=             -0.7879  Tot=              2.6485
 Quadrupole moment (field-independent basis, Debye-Ang):
   XX=            -43.3261   YY=            -49.7316   ZZ=            -54.4250
   XY=             -7.5715   XZ=             -2.6464   YZ=             -2.3241
 Traceless Quadrupole moment (field-independent basis, Debye-Ang):
   XX=              5.8348   YY=             -0.5707   ZZ=             -5.2641
   XY=             -7.5715   XZ=             -2.6464   YZ=             -2.3241
 Octapole moment (field-independent basis, Debye-Ang**2):
  XXX=             21.6927  YYY=             -3.6064  ZZZ=             -0.5615  XYY=             -6.7090
  XXY=            -24.9347  XXZ=             -8.9734  XZZ=             10.6171  YZZ=             -0.7366
  YYZ=             -1.1941  XYZ=             -0.9620
 Hexadecapole moment (field-independent basis, Debye-Ang**3):
 XXXX=           -872.8250 YYYY=           -347.8344 ZZZZ=            -70.9740 XXXY=            -85.3131
 XXXZ=            -30.9105 YYYX=            -14.0547 YYYZ=             -5.7960 ZZZX=             -2.4344
 ZZZY=              2.4072 XXYY=           -232.1460 XXZZ=           -196.6197 YYZZ=            -78.6011
 XXYZ=             -4.9135 YYXZ=             -3.2600 ZZXY=             -2.9275
 N-N= 4.092853537972D+02 E-N=-1.802061880065D+03  KE= 4.201191727704D+02
 No NMR shielding tensors so no spin-rotation constants.
 Leave Link  601 at Sun Nov  6 23:01:34 2022, MaxMem= 16106127360 cpu:               3.2 elap:               0.1
 (Enter /opt/ap/G16/B01/g16/l9999.exe)
 1\1\GINC-N07\SP\RwB97XD\6-311++G(d,p)\C7H6O2\ROOT\06-Nov-2022\0\\#P wB
 97XD/6-311++G(d,p) scf=maxcycle=512\\_conf023.gjf nmol_natom 1_15\\0,1
 \C\C,1,1.39016191\C,1,1.39194539,2,119.895942\C,2,1.38669027,1,119.880
 75721,3,0.70825972,0\H,2,0.98744251,1,119.71654057,3,-179.90726164,0\C
 ,1,1.48428757,2,119.93615286,4,-179.87772406,0\C,3,1.40101108,1,119.72
 36454,2,-0.26266839,0\H,3,0.9902154,1,119.1886159,2,178.85397616,0\C,4
 ,1.37899003,2,120.45785903,1,-0.48041454,0\H,4,0.9834739,2,120.3044270
 6,1,179.36166981,0\O,6,1.27459751,1,118.00615353,2,25.,0\O,6,1.2636257
 2,1,118.77715367,2,-155.,0\H,7,0.98977053,3,119.37861578,1,-178.935457
 41,0\H,9,0.99498061,4,119.46722635,2,-178.58826714,0\H,11,0.89680392,6
 ,118.15823763,1,176.92714093,0\\Version=ES64L-G16RevB.01\State=1-A\HF=
 -420.74561\RMSD=9.960e-09\Dipole=0.0587928,0.4112632,0.9555963\Quadrup
 ole=7.823266,-4.2720441,-3.5512219,-1.7324217,-1.0348567,-2.3660551\PG
 =C01 [X(C7H6O2)]\\@


 THE POLHOLDE ROLLS WITHOUT SLIPPING ON THE HERPOLHOLDE LYING IN
 THE INVARIABLE PLANE.
 H.GOLDSTEIN, "CLASSICAL MECHANICS", PG 161
 Job cpu time:       0 days  0 hours  7 minutes 19.2 seconds.
 Elapsed time:       0 days  0 hours  0 minutes 13.8 seconds.
 File lengths (MBytes):  RWF=     35 Int=      0 D2E=      0 Chk=      4 Scr=      1
 Normal termination of Gaussian 16 at Sun Nov  6 23:01:34 2022.
