 Entering Gaussian System, Link 0=g16
 Input=_conf011.gjf
 Output=_conf011.log
 Initial command:
 /opt/ap/G16/B01/g16/l1.exe "/tmp2/scr/Gau-32548.inp" -scrdir="/tmp2/scr/"
 Entering Link 1 = /opt/ap/G16/B01/g16/l1.exe PID=     32549.
  
 Copyright (c) 1988-2017, Gaussian, Inc.  All Rights Reserved.
  
 This is part of the Gaussian(R) 16 program.  It is based on
 the Gaussian(R) 09 system (copyright 2009, Gaussian, Inc.),
 the Gaussian(R) 03 system (copyright 2003, Gaussian, Inc.),
 the Gaussian(R) 98 system (copyright 1998, Gaussian, Inc.),
 the Gaussian(R) 94 system (copyright 1995, Gaussian, Inc.),
 the Gaussian 92(TM) system (copyright 1992, Gaussian, Inc.),
 the Gaussian 90(TM) system (copyright 1990, Gaussian, Inc.),
 the Gaussian 88(TM) system (copyright 1988, Gaussian, Inc.),
 the Gaussian 86(TM) system (copyright 1986, Carnegie Mellon
 University), and the Gaussian 82(TM) system (copyright 1983,
 Carnegie Mellon University). Gaussian is a federally registered
 trademark of Gaussian, Inc.
  
 This software contains proprietary and confidential information,
 including trade secrets, belonging to Gaussian, Inc.
  
 This software is provided under written license and may be
 used, copied, transmitted, or stored only in accord with that
 written license.
  
 The following legend is applicable only to US Government
 contracts under FAR:
  
                    RESTRICTED RIGHTS LEGEND
  
 Use, reproduction and disclosure by the US Government is
 subject to restrictions as set forth in subparagraphs (a)
 and (c) of the Commercial Computer Software - Restricted
 Rights clause in FAR 52.227-19.
  
 Gaussian, Inc.
 340 Quinnipiac St., Bldg. 40, Wallingford CT 06492
  
  
 ---------------------------------------------------------------
 Warning -- This program may not be used in any manner that
 competes with the business of Gaussian, Inc. or will provide
 assistance to any competitor of Gaussian, Inc.  The licensee
 of this program is prohibited from giving any competitor of
 Gaussian, Inc. access to this program.  By using this program,
 the user acknowledges that Gaussian, Inc. is engaged in the
 business of creating and licensing software in the field of
 computational chemistry and represents and warrants to the
 licensee that it is not a competitor of Gaussian, Inc. and that
 it will not use this program in any manner prohibited above.
 ---------------------------------------------------------------
  

 Cite this work as:
 Gaussian 16, Revision B.01,
 M. J. Frisch, G. W. Trucks, H. B. Schlegel, G. E. Scuseria, 
 M. A. Robb, J. R. Cheeseman, G. Scalmani, V. Barone, 
 G. A. Petersson, H. Nakatsuji, X. Li, M. Caricato, A. V. Marenich, 
 J. Bloino, B. G. Janesko, R. Gomperts, B. Mennucci, H. P. Hratchian, 
 J. V. Ortiz, A. F. Izmaylov, J. L. Sonnenberg, D. Williams-Young, 
 F. Ding, F. Lipparini, F. Egidi, J. Goings, B. Peng, A. Petrone, 
 T. Henderson, D. Ranasinghe, V. G. Zakrzewski, J. Gao, N. Rega, 
 G. Zheng, W. Liang, M. Hada, M. Ehara, K. Toyota, R. Fukuda, 
 J. Hasegawa, M. Ishida, T. Nakajima, Y. Honda, O. Kitao, H. Nakai, 
 T. Vreven, K. Throssell, J. A. Montgomery, Jr., J. E. Peralta, 
 F. Ogliaro, M. J. Bearpark, J. J. Heyd, E. N. Brothers, K. N. Kudin, 
 V. N. Staroverov, T. A. Keith, R. Kobayashi, J. Normand, 
 K. Raghavachari, A. P. Rendell, J. C. Burant, S. S. Iyengar, 
 J. Tomasi, M. Cossi, J. M. Millam, M. Klene, C. Adamo, R. Cammi, 
 J. W. Ochterski, R. L. Martin, K. Morokuma, O. Farkas, 
 J. B. Foresman, and D. J. Fox, Gaussian, Inc., Wallingford CT, 2016.
 
 ******************************************
 Gaussian 16:  ES64L-G16RevB.01 20-Dec-2017
                 6-Nov-2022 
 ******************************************
 %nprocshared=32
 Will use up to   32 processors via shared memory.
 %mem=120GB
 %chk=_conf011.chk
 ----------------------------------------
 #P wB97XD/6-311++G(d,p) scf=maxcycle=512
 ----------------------------------------
 1/38=1,172=1/1;
 2/12=2,17=6,18=5,40=1/2;
 3/5=4,6=6,7=1111,11=2,25=1,30=1,74=-58/1,2,3;
 4//1;
 5/5=2,7=512,38=5/2;
 6/7=2,8=2,9=2,10=2,28=1/1;
 99/5=1,9=1/99;
 Leave Link    1 at Sun Nov  6 23:00:38 2022, MaxMem= 16106127360 cpu:               1.6 elap:               0.1
 (Enter /opt/ap/G16/B01/g16/l101.exe)
 ----------------------------
 _conf011.gjf nmol_natom 1_15
 ----------------------------
 Symbolic Z-matrix:
 Charge =  0 Multiplicity = 1
 C
 C                    1     1.39016 
 C                    1     1.39195  2     119.89594 
 C                    2     1.38669  1     119.88076  3     0.70826  0
 H                    2     0.98744  1     119.71654  3    -179.90726  0
 C                    1     1.48429  2     119.93615  4    -179.87772  0
 C                    3     1.40101  1     119.72365  2    -0.26267  0
 H                    3     0.99022  1     119.18862  2     178.85398  0
 C                    4     1.37899  2     120.45786  1    -0.48041  0
 H                    4     0.98347  2     120.30443  1     179.36167  0
 O                    6     1.2746   1     118.00615  2    -35.      0
 O                    6     1.26363  1     118.77715  2     145.     0
 H                    7     0.98977  3     119.37862  1    -178.93546  0
 H                    9     0.99498  4     119.46723  2    -178.58827  0
 H                    11    0.8968   6     118.15824  1     176.92714  0
 
 ITRead=  0  0  0  0  0  0  0  0  0  0  0  0  0  0  0
 MicOpt= -1 -1 -1 -1 -1 -1 -1 -1 -1 -1 -1 -1 -1 -1 -1
 NAtoms=     15 NQM=       15 NQMF=       0 NMMI=      0 NMMIF=      0
                NMic=       0 NMicF=      0.
                    Isotopes and Nuclear Properties:
 (Nuclear quadrupole moments (NQMom) in fm**2, nuclear magnetic moments (NMagM)
  in nuclear magnetons)

  Atom         1           2           3           4           5           6           7           8           9          10
 IAtWgt=          12          12          12          12           1          12          12           1          12           1
 AtmWgt=  12.0000000  12.0000000  12.0000000  12.0000000   1.0078250  12.0000000  12.0000000   1.0078250  12.0000000   1.0078250
 NucSpn=           0           0           0           0           1           0           0           1           0           1
 AtZEff=  -0.0000000  -0.0000000  -0.0000000  -0.0000000  -0.0000000  -0.0000000  -0.0000000  -0.0000000  -0.0000000  -0.0000000
 NQMom=    0.0000000   0.0000000   0.0000000   0.0000000   0.0000000   0.0000000   0.0000000   0.0000000   0.0000000   0.0000000
 NMagM=    0.0000000   0.0000000   0.0000000   0.0000000   2.7928460   0.0000000   0.0000000   2.7928460   0.0000000   2.7928460
 AtZNuc=   6.0000000   6.0000000   6.0000000   6.0000000   1.0000000   6.0000000   6.0000000   1.0000000   6.0000000   1.0000000

  Atom        11          12          13          14          15
 IAtWgt=          16          16           1           1           1
 AtmWgt=  15.9949146  15.9949146   1.0078250   1.0078250   1.0078250
 NucSpn=           0           0           1           1           1
 AtZEff=  -0.0000000  -0.0000000  -0.0000000  -0.0000000  -0.0000000
 NQMom=    0.0000000   0.0000000   0.0000000   0.0000000   0.0000000
 NMagM=    0.0000000   0.0000000   2.7928460   2.7928460   2.7928460
 AtZNuc=   8.0000000   8.0000000   1.0000000   1.0000000   1.0000000
 Leave Link  101 at Sun Nov  6 23:00:38 2022, MaxMem= 16106127360 cpu:               5.2 elap:               0.2
 (Enter /opt/ap/G16/B01/g16/l202.exe)
                          Input orientation:                          
 ---------------------------------------------------------------------
 Center     Atomic      Atomic             Coordinates (Angstroms)
 Number     Number       Type             X           Y           Z
 ---------------------------------------------------------------------
      1          6           0        0.000000    0.000000    0.000000
      2          6           0        0.000000    0.000000    1.390162
      3          6           0        1.206722    0.000000   -0.693782
      4          6           0        1.202258    0.014862    2.081006
      5          1           0       -0.857581   -0.001388    1.879646
      6          6           0       -1.286190   -0.013155   -0.740711
      7          6           0        2.415349    0.005578    0.014752
      8          1           0        1.194584   -0.017290   -1.683772
      9          6           0        2.400563    0.019708    1.398617
     10          1           0        1.209438    0.024411    3.064408
     11          8           0       -2.258215   -0.668598   -0.240552
     12          8           0       -1.367081    0.621325   -1.830501
     13          1           0        3.270315    0.021574   -0.483669
     14          1           0        3.254554    0.009066    1.909081
     15          1           0       -3.048117   -0.643627   -0.664450
 ---------------------------------------------------------------------
                    Distance matrix (angstroms):
                    1          2          3          4          5
     1  C    0.000000
     2  C    1.390162   0.000000
     3  C    1.391945   2.408112   0.000000
     4  C    2.403379   1.386690   2.774832   0.000000
     5  H    2.066039   0.987443   3.299073   2.069721   0.000000
     6  C    1.484288   2.488991   2.493388   3.762345   2.655206
     7  C    2.415401   2.779513   1.401011   2.396056   3.766955
     8  H    2.064563   3.297939   0.990215   3.764924   4.112127
     9  C    2.778349   2.400659   2.409104   1.378990   3.293530
    10  H    3.294530   2.065535   3.758270   0.983474   2.382624
    11  O    2.367367   2.864574   3.557841   4.222750   2.627201
    12  O    2.367633   3.553537   2.881429   4.719024   3.796387
    13  H    3.305958   3.769173   2.074374   3.294611   4.756607
    14  H    3.773167   3.295676   3.311886   2.059493   4.112253
    15  H    3.185399   3.731850   4.303344   5.102629   3.418090
                    6          7          8          9         10
     6  C    0.000000
     7  C    3.777892   0.000000
     8  H    2.653982   2.091836   0.000000
     9  C    4.262622   1.384016   3.310118   0.000000
    10  H    4.550659   3.279477   4.748386   2.047842   0.000000
    11  O    1.274598   4.728837   3.798541   4.986467   4.840211
    12  O    1.263626   4.253338   2.644142   4.998428   5.563711
    13  H    4.563881   0.989771   2.398003   2.073517   4.103177
    14  H    5.257398   2.071897   4.141589   0.994981   2.348938
    15  H    1.872885   5.543667   4.408155   5.863819   5.698897
                   11         12         13         14         15
    11  O    0.000000
    12  O    2.232926   0.000000
    13  H    5.576745   4.866117   0.000000
    14  H    5.955734   5.976524   2.392834   0.000000
    15  H    0.896804   2.405340   6.355923   6.839058   0.000000
 Stoichiometry    C7H6O2
 Framework group  C1[X(C7H6O2)]
 Deg. of freedom    39
 Full point group                 C1      NOp   1
 Largest Abelian subgroup         C1      NOp   1
 Largest concise Abelian subgroup C1      NOp   1
                         Standard orientation:                         
 ---------------------------------------------------------------------
 Center     Atomic      Atomic             Coordinates (Angstroms)
 Number     Number       Type             X           Y           Z
 ---------------------------------------------------------------------
      1          6           0       -0.220664    0.026304    0.012742
      2          6           0        0.448991   -1.177914    0.197059
      3          6           0        0.502401    1.198046   -0.191485
      4          6           0        1.835400   -1.205313    0.191496
      5          1           0       -0.066612   -2.007770    0.340355
      6          6           0       -1.704600    0.057476    0.021185
      7          6           0        1.902746    1.156840   -0.204457
      8          1           0        0.014569    2.047093   -0.338677
      9          6           0        2.556666   -0.046641   -0.005655
     10          1           0        2.315577   -2.052243    0.330637
     11          8           0       -2.327014   -0.941042   -0.468879
     12          8           0       -2.289104    1.065371    0.510320
     13          1           0        2.412014    1.995553   -0.334278
     14          1           0        3.550594   -0.086616   -0.027909
     15          1           0       -3.222835   -0.943434   -0.426970
 ---------------------------------------------------------------------
 Rotational constants (GHZ):           3.9686756           1.2089402           0.9623877
 Leave Link  202 at Sun Nov  6 23:00:38 2022, MaxMem= 16106127360 cpu:               0.4 elap:               0.0
 (Enter /opt/ap/G16/B01/g16/l301.exe)
 Standard basis: 6-311++G(d,p) (5D, 7F)
 Ernie: Thresh=  0.10000D-02 Tol=  0.10000D-05 Strict=F.
 There are   249 symmetry adapted cartesian basis functions of A   symmetry.
 There are   240 symmetry adapted basis functions of A   symmetry.
   240 basis functions,   378 primitive gaussians,   249 cartesian basis functions
    32 alpha electrons       32 beta electrons
       nuclear repulsion energy       409.0519923427 Hartrees.
 IExCor= 4639 DFT=T Ex+Corr=wB97XD ExCW=0 ScaHFX=  1.000000
 ScaDFX=  1.000000  1.000000  1.000000  1.000000 ScalE2=  1.000000  1.000000
 IRadAn=      5 IRanWt=     -1 IRanGd=            0 ICorTp=0 IEmpDi=121
 HFx  wShort=  0.000000 wLong=  0.200000 cFull=  0.222036 cShort=  0.000000 cLong=  0.777964
 DFx  wShort=  0.000000 wLong=  0.200000 cFull=  0.000000 cShort=  0.000000 cLong=  1.000000
 NAtoms=   15 NActive=   15 NUniq=   15 SFac= 1.00D+00 NAtFMM=   60 NAOKFM=F Big=F
 Integral buffers will be    131072 words long.
 Raffenetti 2 integral format.
 Two-electron integral symmetry is turned on.
 R6Disp:  Grimme-D2 Dispersion energy=       -0.0064097520 Hartrees.
 Nuclear repulsion after empirical dispersion term =      409.0455825908 Hartrees.
 Leave Link  301 at Sun Nov  6 23:00:38 2022, MaxMem= 16106127360 cpu:               1.2 elap:               0.0
 (Enter /opt/ap/G16/B01/g16/l302.exe)
 NPDir=0 NMtPBC=     1 NCelOv=     1 NCel=       1 NClECP=     1 NCelD=      1
         NCelK=      1 NCelE2=     1 NClLst=     1 CellRange=     0.0.
 One-electron integrals computed using PRISM.
 One-electron integral symmetry used in STVInt
 NBasis=   240 RedAO= T EigKep=  1.24D-06  NBF=   240
 NBsUse=   240 1.00D-06 EigRej= -1.00D+00 NBFU=   240
 Precomputing XC quadrature grid using
 IXCGrd= 4 IRadAn=           5 IRanWt=          -1 IRanGd=           0 AccXCQ= 0.00D+00.
 Generated NRdTot=       0 NPtTot=           0 NUsed=           0 NTot=          32
 NSgBfM=   249   249   249   249   249 MxSgAt=    15 MxSgA2=    15.
 Leave Link  302 at Sun Nov  6 23:00:39 2022, MaxMem= 16106127360 cpu:               5.4 elap:               0.2
 (Enter /opt/ap/G16/B01/g16/l303.exe)
 DipDrv:  MaxL=1.
 Leave Link  303 at Sun Nov  6 23:00:39 2022, MaxMem= 16106127360 cpu:               1.3 elap:               0.0
 (Enter /opt/ap/G16/B01/g16/l401.exe)
 ExpMin= 3.60D-02 ExpMax= 8.59D+03 ExpMxC= 1.30D+03 IAcc=3 IRadAn=         5 AccDes= 0.00D+00
 Harris functional with IExCor= 4639 and IRadAn=       5 diagonalized for initial guess.
 HarFok:  IExCor= 4639 AccDes= 0.00D+00 IRadAn=         5 IDoV= 1 UseB2=F ITyADJ=14
 ICtDFT=  3500011 ScaDFX=  1.000000  1.000000  1.000000  1.000000
 FoFCou: FMM=F IPFlag=           0 FMFlag=      100000 FMFlg1=           0
         NFxFlg=           0 DoJE=T BraDBF=F KetDBF=T FulRan=T
         wScrn=  0.000000 ICntrl=       500 IOpCl=  0 I1Cent=   200000004 NGrid=           0
         NMat0=    1 NMatS0=      1 NMatT0=    0 NMatD0=    1 NMtDS0=    0 NMtDT0=    0
 Petite list used in FoFCou.
 Harris En= -403.253103249351    
 JPrj=0 DoOrth=F DoCkMO=F.
 Leave Link  401 at Sun Nov  6 23:00:39 2022, MaxMem= 16106127360 cpu:              12.4 elap:               0.4
 (Enter /opt/ap/G16/B01/g16/l502.exe)
 Integral symmetry usage will be decided dynamically.
 Closed shell SCF:
 Using DIIS extrapolation, IDIIS=  1040.
 NGot= 16106127360 LenX= 16105992971 LenY= 16105930529
 Requested convergence on RMS density matrix=1.00D-08 within 512 cycles.
 Requested convergence on MAX density matrix=1.00D-06.
 Requested convergence on             energy=1.00D-06.
 No special actions if energy rises.
 Fock matrices will be formed incrementally for  20 cycles.

 Cycle   1  Pass 1  IDiag  1:
 FoFJK:  IHMeth= 1 ICntrl=       0 DoSepK=T KAlg= 0 I1Cent=           0 FoldK=F
 IRaf=         1 NMat=       1 IRICut=       1 DoRegI=T DoRafI=F ISym2E= 0 IDoP0=0 IntGTp=1.
 FoFCou: FMM=F IPFlag=           0 FMFlag=      100000 FMFlg1=           0
         NFxFlg=           0 DoJE=T BraDBF=F KetDBF=F FulRan=T
         wScrn=  0.000000 ICntrl=       500 IOpCl=  0 I1Cent=           0 NGrid=           0
         NMat0=    1 NMatS0=      1 NMatT0=    0 NMatD0=    1 NMtDS0=    0 NMtDT0=    0
 Symmetry not used in FoFCou.
 E= -420.629543098622    
 DIIS: error= 7.85D-02 at cycle   1 NSaved=   1.
 NSaved= 1 IEnMin= 1 EnMin= -420.629543098622     IErMin= 1 ErrMin= 7.85D-02
 ErrMax= 7.85D-02  0.00D+00 EMaxC= 1.00D-01 BMatC= 8.61D-01 BMatP= 8.61D-01
 IDIUse=3 WtCom= 2.15D-01 WtEn= 7.85D-01
 Coeff-Com:  0.100D+01
 Coeff-En:   0.100D+01
 Coeff:      0.100D+01
 Gap=     0.428 Goal=   None    Shift=    0.000
 GapD=    0.428 DampG=2.000 DampE=0.500 DampFc=1.0000 IDamp=-1.
 RMSDP=2.28D-02 MaxDP=1.28D+00              OVMax= 9.91D-02

 Cycle   2  Pass 1  IDiag  1:
 RMSU=  1.39D-02    CP:  6.86D-01
 E= -420.700759344532     Delta-E=       -0.071216245910 Rises=F Damp=F
 DIIS: error= 1.23D-02 at cycle   2 NSaved=   2.
 NSaved= 2 IEnMin= 2 EnMin= -420.700759344532     IErMin= 2 ErrMin= 1.23D-02
 ErrMax= 1.23D-02  0.00D+00 EMaxC= 1.00D-01 BMatC= 5.68D-02 BMatP= 8.61D-01
 IDIUse=3 WtCom= 8.77D-01 WtEn= 1.23D-01
 Coeff-Com:  0.135D+00 0.865D+00
 Coeff-En:   0.946D-01 0.905D+00
 Coeff:      0.130D+00 0.870D+00
 Gap=     0.437 Goal=   None    Shift=    0.000
 RMSDP=6.91D-03 MaxDP=3.52D-01 DE=-7.12D-02 OVMax= 9.00D-02

 Cycle   3  Pass 1  IDiag  1:
 RMSU=  5.50D-03    CP:  6.85D-01  7.00D-01
 E= -420.716725252304     Delta-E=       -0.015965907772 Rises=F Damp=F
 DIIS: error= 1.17D-02 at cycle   3 NSaved=   3.
 NSaved= 3 IEnMin= 3 EnMin= -420.716725252304     IErMin= 3 ErrMin= 1.17D-02
 ErrMax= 1.17D-02  0.00D+00 EMaxC= 1.00D-01 BMatC= 3.58D-02 BMatP= 5.68D-02
 IDIUse=3 WtCom= 8.83D-01 WtEn= 1.17D-01
 Coeff-Com:  0.280D-01 0.448D+00 0.524D+00
 Coeff-En:   0.000D+00 0.385D+00 0.615D+00
 Coeff:      0.247D-01 0.441D+00 0.535D+00
 Gap=     0.357 Goal=   None    Shift=    0.000
 RMSDP=3.69D-03 MaxDP=1.32D-01 DE=-1.60D-02 OVMax= 5.32D-02

 Cycle   4  Pass 1  IDiag  1:
 RMSU=  2.05D-03    CP:  6.72D-01  8.88D-01  7.40D-01
 E= -420.742780523856     Delta-E=       -0.026055271552 Rises=F Damp=F
 DIIS: error= 2.41D-03 at cycle   4 NSaved=   4.
 NSaved= 4 IEnMin= 4 EnMin= -420.742780523856     IErMin= 4 ErrMin= 2.41D-03
 ErrMax= 2.41D-03  0.00D+00 EMaxC= 1.00D-01 BMatC= 1.97D-03 BMatP= 3.58D-02
 IDIUse=3 WtCom= 9.76D-01 WtEn= 2.41D-02
 Coeff-Com:  0.105D-01 0.221D+00 0.302D+00 0.466D+00
 Coeff-En:   0.000D+00 0.000D+00 0.000D+00 0.100D+01
 Coeff:      0.103D-01 0.216D+00 0.295D+00 0.479D+00
 Gap=     0.357 Goal=   None    Shift=    0.000
 RMSDP=7.99D-04 MaxDP=4.45D-02 DE=-2.61D-02 OVMax= 1.25D-02

 Cycle   5  Pass 1  IDiag  1:
 RMSU=  5.51D-04    CP:  6.67D-01  8.72D-01  7.95D-01  8.52D-01
 E= -420.744118176126     Delta-E=       -0.001337652270 Rises=F Damp=F
 DIIS: error= 4.29D-04 at cycle   5 NSaved=   5.
 NSaved= 5 IEnMin= 5 EnMin= -420.744118176126     IErMin= 5 ErrMin= 4.29D-04
 ErrMax= 4.29D-04  0.00D+00 EMaxC= 1.00D-01 BMatC= 4.78D-05 BMatP= 1.97D-03
 IDIUse=3 WtCom= 9.96D-01 WtEn= 4.29D-03
 Coeff-Com:  0.392D-03 0.167D-01 0.316D-01 0.147D+00 0.804D+00
 Coeff-En:   0.000D+00 0.000D+00 0.000D+00 0.000D+00 0.100D+01
 Coeff:      0.391D-03 0.166D-01 0.315D-01 0.147D+00 0.805D+00
 Gap=     0.354 Goal=   None    Shift=    0.000
 RMSDP=2.85D-04 MaxDP=1.70D-02 DE=-1.34D-03 OVMax= 2.57D-03

 Cycle   6  Pass 1  IDiag  1:
 RMSU=  1.50D-04    CP:  6.67D-01  8.78D-01  8.25D-01  9.22D-01  1.07D+00
 E= -420.744155951887     Delta-E=       -0.000037775760 Rises=F Damp=F
 DIIS: error= 2.04D-04 at cycle   6 NSaved=   6.
 NSaved= 6 IEnMin= 6 EnMin= -420.744155951887     IErMin= 6 ErrMin= 2.04D-04
 ErrMax= 2.04D-04  0.00D+00 EMaxC= 1.00D-01 BMatC= 7.18D-06 BMatP= 4.78D-05
 IDIUse=3 WtCom= 9.98D-01 WtEn= 2.04D-03
 Coeff-Com: -0.955D-03-0.164D-01-0.177D-01 0.110D-01 0.346D+00 0.678D+00
 Coeff-En:   0.000D+00 0.000D+00 0.000D+00 0.000D+00 0.000D+00 0.100D+01
 Coeff:     -0.953D-03-0.163D-01-0.177D-01 0.110D-01 0.346D+00 0.678D+00
 Gap=     0.354 Goal=   None    Shift=    0.000
 RMSDP=1.10D-04 MaxDP=8.32D-03 DE=-3.78D-05 OVMax= 9.04D-04

 Cycle   7  Pass 1  IDiag  1:
 RMSU=  4.02D-05    CP:  6.66D-01  8.77D-01  8.37D-01  9.44D-01  1.14D+00
                    CP:  1.09D+00
 E= -420.744163170883     Delta-E=       -0.000007218996 Rises=F Damp=F
 DIIS: error= 6.24D-05 at cycle   7 NSaved=   7.
 NSaved= 7 IEnMin= 7 EnMin= -420.744163170883     IErMin= 7 ErrMin= 6.24D-05
 ErrMax= 6.24D-05  0.00D+00 EMaxC= 1.00D-01 BMatC= 3.17D-07 BMatP= 7.18D-06
 IDIUse=1 WtCom= 1.00D+00 WtEn= 0.00D+00
 Coeff-Com: -0.231D-03-0.539D-02-0.666D-02-0.138D-01-0.387D-02 0.131D+00
 Coeff-Com:  0.899D+00
 Coeff:     -0.231D-03-0.539D-02-0.666D-02-0.138D-01-0.387D-02 0.131D+00
 Coeff:      0.899D+00
 Gap=     0.354 Goal=   None    Shift=    0.000
 RMSDP=4.54D-05 MaxDP=2.45D-03 DE=-7.22D-06 OVMax= 3.78D-04

 Cycle   8  Pass 1  IDiag  1:
 RMSU=  1.30D-05    CP:  6.66D-01  8.78D-01  8.42D-01  9.54D-01  1.18D+00
                    CP:  1.14D+00  1.08D+00
 E= -420.744163804586     Delta-E=       -0.000000633704 Rises=F Damp=F
 DIIS: error= 1.39D-05 at cycle   8 NSaved=   8.
 NSaved= 8 IEnMin= 8 EnMin= -420.744163804586     IErMin= 8 ErrMin= 1.39D-05
 ErrMax= 1.39D-05  0.00D+00 EMaxC= 1.00D-01 BMatC= 4.49D-08 BMatP= 3.17D-07
 IDIUse=1 WtCom= 1.00D+00 WtEn= 0.00D+00
 Coeff-Com:  0.361D-04 0.358D-03 0.310D-03-0.552D-02-0.402D-01-0.422D-01
 Coeff-Com:  0.243D+00 0.844D+00
 Coeff:      0.361D-04 0.358D-03 0.310D-03-0.552D-02-0.402D-01-0.422D-01
 Coeff:      0.243D+00 0.844D+00
 Gap=     0.354 Goal=   None    Shift=    0.000
 RMSDP=1.13D-05 MaxDP=5.62D-04 DE=-6.34D-07 OVMax= 1.49D-04

 Cycle   9  Pass 1  IDiag  1:
 RMSU=  4.12D-06    CP:  6.66D-01  8.77D-01  8.43D-01  9.55D-01  1.19D+00
                    CP:  1.16D+00  1.18D+00  1.15D+00
 E= -420.744163890939     Delta-E=       -0.000000086353 Rises=F Damp=F
 DIIS: error= 1.05D-05 at cycle   9 NSaved=   9.
 NSaved= 9 IEnMin= 9 EnMin= -420.744163890939     IErMin= 9 ErrMin= 1.05D-05
 ErrMax= 1.05D-05  0.00D+00 EMaxC= 1.00D-01 BMatC= 5.83D-09 BMatP= 4.49D-08
 IDIUse=1 WtCom= 1.00D+00 WtEn= 0.00D+00
 Coeff-Com:  0.413D-04 0.796D-03 0.982D-03-0.124D-03-0.112D-01-0.296D-01
 Coeff-Com: -0.328D-01 0.263D+00 0.809D+00
 Coeff:      0.413D-04 0.796D-03 0.982D-03-0.124D-03-0.112D-01-0.296D-01
 Coeff:     -0.328D-01 0.263D+00 0.809D+00
 Gap=     0.354 Goal=   None    Shift=    0.000
 RMSDP=4.15D-06 MaxDP=3.21D-04 DE=-8.64D-08 OVMax= 5.38D-05

 Cycle  10  Pass 1  IDiag  1:
 RMSU=  1.78D-06    CP:  6.66D-01  8.77D-01  8.43D-01  9.54D-01  1.19D+00
                    CP:  1.16D+00  1.22D+00  1.20D+00  1.34D+00
 E= -420.744163901934     Delta-E=       -0.000000010995 Rises=F Damp=F
 DIIS: error= 1.27D-06 at cycle  10 NSaved=  10.
 NSaved=10 IEnMin=10 EnMin= -420.744163901934     IErMin=10 ErrMin= 1.27D-06
 ErrMax= 1.27D-06  0.00D+00 EMaxC= 1.00D-01 BMatC= 7.56D-10 BMatP= 5.83D-09
 IDIUse=1 WtCom= 1.00D+00 WtEn= 0.00D+00
 Coeff-Com:  0.771D-05 0.170D-03 0.235D-03 0.479D-03 0.133D-02-0.438D-02
 Coeff-Com: -0.344D-01-0.221D-01 0.243D+00 0.816D+00
 Coeff:      0.771D-05 0.170D-03 0.235D-03 0.479D-03 0.133D-02-0.438D-02
 Coeff:     -0.344D-01-0.221D-01 0.243D+00 0.816D+00
 Gap=     0.354 Goal=   None    Shift=    0.000
 RMSDP=1.52D-06 MaxDP=9.20D-05 DE=-1.10D-08 OVMax= 1.90D-05

 Cycle  11  Pass 1  IDiag  1:
 RMSU=  5.12D-07    CP:  6.66D-01  8.77D-01  8.43D-01  9.54D-01  1.19D+00
                    CP:  1.16D+00  1.22D+00  1.24D+00  1.47D+00  1.08D+00
 E= -420.744163903289     Delta-E=       -0.000000001355 Rises=F Damp=F
 DIIS: error= 9.48D-07 at cycle  11 NSaved=  11.
 NSaved=11 IEnMin=11 EnMin= -420.744163903289     IErMin=11 ErrMin= 9.48D-07
 ErrMax= 9.48D-07  0.00D+00 EMaxC= 1.00D-01 BMatC= 1.42D-10 BMatP= 7.56D-10
 IDIUse=1 WtCom= 1.00D+00 WtEn= 0.00D+00
 Coeff-Com: -0.206D-05-0.212D-04-0.110D-04 0.252D-03 0.220D-02 0.195D-02
 Coeff-Com: -0.895D-02-0.508D-01-0.209D-01 0.325D+00 0.751D+00
 Coeff:     -0.206D-05-0.212D-04-0.110D-04 0.252D-03 0.220D-02 0.195D-02
 Coeff:     -0.895D-02-0.508D-01-0.209D-01 0.325D+00 0.751D+00
 Gap=     0.354 Goal=   None    Shift=    0.000
 RMSDP=6.18D-07 MaxDP=3.63D-05 DE=-1.36D-09 OVMax= 8.51D-06

 Cycle  12  Pass 1  IDiag  1:
 RMSU=  2.38D-07    CP:  6.66D-01  8.77D-01  8.43D-01  9.54D-01  1.19D+00
                    CP:  1.16D+00  1.22D+00  1.25D+00  1.51D+00  1.17D+00
                    CP:  1.13D+00
 E= -420.744163903524     Delta-E=       -0.000000000234 Rises=F Damp=F
 DIIS: error= 1.96D-07 at cycle  12 NSaved=  12.
 NSaved=12 IEnMin=12 EnMin= -420.744163903524     IErMin=12 ErrMin= 1.96D-07
 ErrMax= 1.96D-07  0.00D+00 EMaxC= 1.00D-01 BMatC= 1.11D-11 BMatP= 1.42D-10
 IDIUse=1 WtCom= 1.00D+00 WtEn= 0.00D+00
 Coeff-Com: -0.119D-05-0.205D-04-0.232D-04 0.200D-04 0.396D-03 0.756D-03
 Coeff-Com:  0.178D-02-0.103D-01-0.271D-01 0.139D-02 0.169D+00 0.865D+00
 Coeff:     -0.119D-05-0.205D-04-0.232D-04 0.200D-04 0.396D-03 0.756D-03
 Coeff:      0.178D-02-0.103D-01-0.271D-01 0.139D-02 0.169D+00 0.865D+00
 Gap=     0.354 Goal=   None    Shift=    0.000
 RMSDP=1.73D-07 MaxDP=7.69D-06 DE=-2.34D-10 OVMax= 3.49D-06

 Cycle  13  Pass 1  IDiag  1:
 RMSU=  8.41D-08    CP:  6.66D-01  8.77D-01  8.43D-01  9.54D-01  1.19D+00
                    CP:  1.16D+00  1.22D+00  1.25D+00  1.52D+00  1.16D+00
                    CP:  1.24D+00  1.08D+00
 E= -420.744163903556     Delta-E=       -0.000000000033 Rises=F Damp=F
 DIIS: error= 1.25D-07 at cycle  13 NSaved=  13.
 NSaved=13 IEnMin=13 EnMin= -420.744163903556     IErMin=13 ErrMin= 1.25D-07
 ErrMax= 1.25D-07  0.00D+00 EMaxC= 1.00D-01 BMatC= 2.52D-12 BMatP= 1.11D-11
 IDIUse=1 WtCom= 1.00D+00 WtEn= 0.00D+00
 Coeff-Com:  0.932D-07-0.371D-05-0.759D-05-0.489D-04-0.358D-03-0.194D-03
 Coeff-Com:  0.254D-02 0.733D-02-0.303D-02-0.683D-01-0.127D+00 0.244D+00
 Coeff-Com:  0.945D+00
 Coeff:      0.932D-07-0.371D-05-0.759D-05-0.489D-04-0.358D-03-0.194D-03
 Coeff:      0.254D-02 0.733D-02-0.303D-02-0.683D-01-0.127D+00 0.244D+00
 Coeff:      0.945D+00
 Gap=     0.354 Goal=   None    Shift=    0.000
 RMSDP=7.61D-08 MaxDP=4.28D-06 DE=-3.29D-11 OVMax= 2.25D-06

 Cycle  14  Pass 1  IDiag  1:
 RMSU=  3.69D-08    CP:  6.66D-01  8.77D-01  8.43D-01  9.54D-01  1.19D+00
                    CP:  1.16D+00  1.22D+00  1.25D+00  1.52D+00  1.16D+00
                    CP:  1.31D+00  1.24D+00  1.23D+00
 E= -420.744163903570     Delta-E=       -0.000000000013 Rises=F Damp=F
 DIIS: error= 4.16D-08 at cycle  14 NSaved=  14.
 NSaved=14 IEnMin=14 EnMin= -420.744163903570     IErMin=14 ErrMin= 4.16D-08
 ErrMax= 4.16D-08  0.00D+00 EMaxC= 1.00D-01 BMatC= 2.01D-13 BMatP= 2.52D-12
 IDIUse=1 WtCom= 1.00D+00 WtEn= 0.00D+00
 Coeff-Com:  0.891D-07 0.206D-05 0.258D-05-0.478D-06-0.574D-04-0.491D-04
 Coeff-Com: -0.214D-03 0.118D-02 0.292D-02-0.155D-02-0.182D-01-0.925D-01
 Coeff-Com: -0.149D-01 0.112D+01
 Coeff:      0.891D-07 0.206D-05 0.258D-05-0.478D-06-0.574D-04-0.491D-04
 Coeff:     -0.214D-03 0.118D-02 0.292D-02-0.155D-02-0.182D-01-0.925D-01
 Coeff:     -0.149D-01 0.112D+01
 Gap=     0.354 Goal=   None    Shift=    0.000
 RMSDP=3.95D-08 MaxDP=3.14D-06 DE=-1.33D-11 OVMax= 8.40D-07

 Cycle  15  Pass 1  IDiag  1:
 RMSU=  8.52D-09    CP:  6.66D-01  8.77D-01  8.43D-01  9.54D-01  1.19D+00
                    CP:  1.16D+00  1.22D+00  1.25D+00  1.52D+00  1.15D+00
                    CP:  1.31D+00  1.27D+00  1.39D+00  1.43D+00
 E= -420.744163903570     Delta-E=        0.000000000000 Rises=F Damp=F
 DIIS: error= 1.32D-08 at cycle  15 NSaved=  15.
 NSaved=15 IEnMin=14 EnMin= -420.744163903570     IErMin=15 ErrMin= 1.32D-08
 ErrMax= 1.32D-08  0.00D+00 EMaxC= 1.00D-01 BMatC= 3.78D-14 BMatP= 2.01D-13
 IDIUse=1 WtCom= 1.00D+00 WtEn= 0.00D+00
 Coeff-Com:  0.196D-07 0.115D-05 0.183D-05 0.567D-05 0.204D-04 0.116D-04
 Coeff-Com: -0.362D-03-0.388D-03 0.138D-02 0.747D-02 0.900D-02-0.531D-01
 Coeff-Com: -0.115D+00 0.370D+00 0.781D+00
 Coeff:      0.196D-07 0.115D-05 0.183D-05 0.567D-05 0.204D-04 0.116D-04
 Coeff:     -0.362D-03-0.388D-03 0.138D-02 0.747D-02 0.900D-02-0.531D-01
 Coeff:     -0.115D+00 0.370D+00 0.781D+00
 Gap=     0.354 Goal=   None    Shift=    0.000
 RMSDP=9.10D-09 MaxDP=5.52D-07 DE= 1.14D-13 OVMax= 1.80D-07

 SCF Done:  E(RwB97XD) =  -420.744163904     A.U. after   15 cycles
            NFock= 15  Conv=0.91D-08     -V/T= 2.0015
 KE= 4.201172876179D+02 PE=-1.801560408508D+03 EE= 5.516533743960D+02
 Leave Link  502 at Sun Nov  6 23:00:52 2022, MaxMem= 16106127360 cpu:             409.5 elap:              12.8
 (Enter /opt/ap/G16/B01/g16/l601.exe)
 Copying SCF densities to generalized density rwf, IOpCl= 0 IROHF=0.

 **********************************************************************

            Population analysis using the SCF Density.

 **********************************************************************

 Orbital symmetries:
       Occupied  (A) (A) (A) (A) (A) (A) (A) (A) (A) (A) (A) (A)
                 (A) (A) (A) (A) (A) (A) (A) (A) (A) (A) (A) (A)
                 (A) (A) (A) (A) (A) (A) (A) (A)
       Virtual   (A) (A) (A) (A) (A) (A) (A) (A) (A) (A) (A) (A)
                 (A) (A) (A) (A) (A) (A) (A) (A) (A) (A) (A) (A)
                 (A) (A) (A) (A) (A) (A) (A) (A) (A) (A) (A) (A)
                 (A) (A) (A) (A) (A) (A) (A) (A) (A) (A) (A) (A)
                 (A) (A) (A) (A) (A) (A) (A) (A) (A) (A) (A) (A)
                 (A) (A) (A) (A) (A) (A) (A) (A) (A) (A) (A) (A)
                 (A) (A) (A) (A) (A) (A) (A) (A) (A) (A) (A) (A)
                 (A) (A) (A) (A) (A) (A) (A) (A) (A) (A) (A) (A)
                 (A) (A) (A) (A) (A) (A) (A) (A) (A) (A) (A) (A)
                 (A) (A) (A) (A) (A) (A) (A) (A) (A) (A) (A) (A)
                 (A) (A) (A) (A) (A) (A) (A) (A) (A) (A) (A) (A)
                 (A) (A) (A) (A) (A) (A) (A) (A) (A) (A) (A) (A)
                 (A) (A) (A) (A) (A) (A) (A) (A) (A) (A) (A) (A)
                 (A) (A) (A) (A) (A) (A) (A) (A) (A) (A) (A) (A)
                 (A) (A) (A) (A) (A) (A) (A) (A) (A) (A) (A) (A)
                 (A) (A) (A) (A) (A) (A) (A) (A) (A) (A) (A) (A)
                 (A) (A) (A) (A) (A) (A) (A) (A) (A) (A) (A) (A)
                 (A) (A) (A) (A)
 The electronic state is 1-A.
 Alpha  occ. eigenvalues --  -19.31736 -19.22964 -10.43264 -10.31198 -10.29414
 Alpha  occ. eigenvalues --  -10.29354 -10.29071 -10.29003 -10.28749  -1.25861
 Alpha  occ. eigenvalues --   -1.10698  -0.98097  -0.88942  -0.87068  -0.80594
 Alpha  occ. eigenvalues --   -0.73435  -0.72091  -0.65847  -0.60671  -0.58657
 Alpha  occ. eigenvalues --   -0.57393  -0.55922  -0.54169  -0.53429  -0.49040
 Alpha  occ. eigenvalues --   -0.47456  -0.45519  -0.44978  -0.40888  -0.36814
 Alpha  occ. eigenvalues --   -0.34489  -0.33936
 Alpha virt. eigenvalues --    0.01473   0.03757   0.04233   0.04553   0.05232
 Alpha virt. eigenvalues --    0.06444   0.07531   0.08710   0.10040   0.10278
 Alpha virt. eigenvalues --    0.12170   0.12860   0.12907   0.14313   0.15017
 Alpha virt. eigenvalues --    0.16039   0.16355   0.16999   0.17267   0.17917
 Alpha virt. eigenvalues --    0.18442   0.19312   0.19440   0.20238   0.20436
 Alpha virt. eigenvalues --    0.20977   0.21048   0.21426   0.23147   0.23773
 Alpha virt. eigenvalues --    0.25912   0.26125   0.26838   0.27550   0.27899
 Alpha virt. eigenvalues --    0.29239   0.29406   0.30332   0.30875   0.31377
 Alpha virt. eigenvalues --    0.32410   0.34364   0.35073   0.35671   0.35942
 Alpha virt. eigenvalues --    0.36650   0.37097   0.38266   0.39115   0.39987
 Alpha virt. eigenvalues --    0.40827   0.40980   0.42338   0.43196   0.44018
 Alpha virt. eigenvalues --    0.44788   0.46277   0.50986   0.54062   0.57059
 Alpha virt. eigenvalues --    0.59497   0.61068   0.61964   0.63601   0.63824
 Alpha virt. eigenvalues --    0.64639   0.64862   0.66497   0.67743   0.69443
 Alpha virt. eigenvalues --    0.70857   0.71848   0.72677   0.74770   0.76303
 Alpha virt. eigenvalues --    0.77542   0.80729   0.81480   0.82265   0.83445
 Alpha virt. eigenvalues --    0.87668   0.88248   0.90417   0.91633   0.93804
 Alpha virt. eigenvalues --    0.94094   0.95861   0.96303   0.97754   1.00282
 Alpha virt. eigenvalues --    1.01423   1.02503   1.08035   1.08925   1.13388
 Alpha virt. eigenvalues --    1.13903   1.15144   1.17033   1.18612   1.20245
 Alpha virt. eigenvalues --    1.22194   1.24140   1.25295   1.27860   1.31177
 Alpha virt. eigenvalues --    1.36494   1.36812   1.44137   1.45491   1.55170
 Alpha virt. eigenvalues --    1.56710   1.58841   1.59548   1.61373   1.61978
 Alpha virt. eigenvalues --    1.64231   1.65183   1.66949   1.67375   1.74579
 Alpha virt. eigenvalues --    1.74755   1.76799   1.80532   1.83522   1.87107
 Alpha virt. eigenvalues --    1.88148   1.90031   1.91101   1.93779   1.98220
 Alpha virt. eigenvalues --    1.99897   2.02123   2.02919   2.05074   2.05587
 Alpha virt. eigenvalues --    2.06977   2.07358   2.13912   2.17909   2.18681
 Alpha virt. eigenvalues --    2.23362   2.25813   2.31523   2.44040   2.46562
 Alpha virt. eigenvalues --    2.52348   2.53507   2.54165   2.57832   2.62990
 Alpha virt. eigenvalues --    2.70133   2.71145   2.76930   2.79523   2.80972
 Alpha virt. eigenvalues --    2.82398   2.83010   2.88146   2.90245   2.90881
 Alpha virt. eigenvalues --    2.91422   2.91550   2.96378   2.99332   3.01004
 Alpha virt. eigenvalues --    3.01976   3.06565   3.07699   3.16285   3.18291
 Alpha virt. eigenvalues --    3.19424   3.22599   3.25876   3.29182   3.35060
 Alpha virt. eigenvalues --    3.40824   3.43270   3.48434   3.49479   3.63828
 Alpha virt. eigenvalues --    3.66064   3.69330   3.73222   3.84305   3.87648
 Alpha virt. eigenvalues --    4.05582   4.14919   4.27663   4.30518   4.35902
 Alpha virt. eigenvalues --    4.40342   4.41665   4.94975   5.08405   5.17758
 Alpha virt. eigenvalues --    5.28052   5.47101   5.78733   6.07794  23.84291
 Alpha virt. eigenvalues --   23.93997  24.14356  24.21331  24.28328  24.30286
 Alpha virt. eigenvalues --   24.41788  50.02779  50.13858
          Condensed to atoms (all electrons):
               1          2          3          4          5          6
     1  C   12.656955  -2.176383  -3.332685   1.580073   0.012627  -2.707508
     2  C   -2.176383  11.653128  -0.257459  -1.786240   0.410655  -0.811883
     3  C   -3.332685  -0.257459  11.150825  -1.171893   0.073597  -0.062447
     4  C    1.580073  -1.786240  -1.171893   6.617217  -0.051566  -0.031337
     5  H    0.012627   0.410655   0.073597  -0.051566   0.466784  -0.073492
     6  C   -2.707508  -0.811883  -0.062447  -0.031337  -0.073492   8.706566
     7  C    0.983851  -1.254813  -1.142446   0.924377  -0.005009   0.043176
     8  H    0.007047   0.105277   0.380107  -0.020735  -0.000999  -0.046596
     9  C   -1.656139   1.173316   1.200426  -0.559061   0.011133   0.053904
    10  H    0.032642  -0.050573  -0.014607   0.395361  -0.007708   0.009063
    11  O   -0.347265  -0.132724  -0.035452   0.060096  -0.022101   0.432541
    12  O   -0.149631  -0.000150  -0.038464   0.022279  -0.002645   0.512759
    13  H    0.027967  -0.030073  -0.040188   0.001847   0.000828   0.008772
    14  H    0.006228   0.001850  -0.000972  -0.030617  -0.000507  -0.009971
    15  H   -0.045123  -0.006769   0.017059  -0.009745  -0.000898   0.030510
               7          8          9         10         11         12
     1  C    0.983851   0.007047  -1.656139   0.032642  -0.347265  -0.149631
     2  C   -1.254813   0.105277   1.173316  -0.050573  -0.132724  -0.000150
     3  C   -1.142446   0.380107   1.200426  -0.014607  -0.035452  -0.038464
     4  C    0.924377  -0.020735  -0.559061   0.395361   0.060096   0.022279
     5  H   -0.005009  -0.000999   0.011133  -0.007708  -0.022101  -0.002645
     6  C    0.043176  -0.046596   0.053904   0.009063   0.432541   0.512759
     7  C    6.587480  -0.080882  -0.495444  -0.009080   0.026063   0.039798
     8  H   -0.080882   0.445357   0.018946   0.000590  -0.002613  -0.001979
     9  C   -0.495444   0.018946   6.360785  -0.024198  -0.025103  -0.007225
    10  H   -0.009080   0.000590  -0.024198   0.469999   0.000933   0.000240
    11  O    0.026063  -0.002613  -0.025103   0.000933   8.015403  -0.129137
    12  O    0.039798  -0.001979  -0.007225   0.000240  -0.129137   8.076226
    13  H    0.405871  -0.010078  -0.033423  -0.001529   0.000214  -0.000130
    14  H   -0.022032   0.000327   0.407552  -0.004962  -0.000416  -0.000190
    15  H    0.000419  -0.000046   0.000245   0.000003   0.298649  -0.006680
              13         14         15
     1  C    0.027967   0.006228  -0.045123
     2  C   -0.030073   0.001850  -0.006769
     3  C   -0.040188  -0.000972   0.017059
     4  C    0.001847  -0.030617  -0.009745
     5  H    0.000828  -0.000507  -0.000898
     6  C    0.008772  -0.009971   0.030510
     7  C    0.405871  -0.022032   0.000419
     8  H   -0.010078   0.000327  -0.000046
     9  C   -0.033423   0.407552   0.000245
    10  H   -0.001529  -0.004962   0.000003
    11  O    0.000214  -0.000416   0.298649
    12  O   -0.000130  -0.000190  -0.006680
    13  H    0.466139  -0.005354   0.000019
    14  H   -0.005354   0.468562  -0.000075
    15  H    0.000019  -0.000075   0.390998
 Mulliken charges:
               1
     1  C    1.107344
     2  C   -0.837159
     3  C   -0.725401
     4  C    0.059943
     5  H    0.189301
     6  C   -0.054056
     7  C   -0.001330
     8  H    0.206279
     9  C   -0.425714
    10  H    0.203823
    11  O   -0.139089
    12  O   -0.315072
    13  H    0.209118
    14  H    0.190578
    15  H    0.331434
 Sum of Mulliken charges =  -0.00000
 Mulliken charges with hydrogens summed into heavy atoms:
               1
     1  C    1.107344
     2  C   -0.647858
     3  C   -0.519122
     4  C    0.263765
     6  C   -0.054056
     7  C    0.207788
     9  C   -0.235135
    11  O    0.192346
    12  O   -0.315072
 Electronic spatial extent (au):  <R**2>=           1158.2157
 Charge=             -0.0000 electrons
 Dipole moment (field-independent basis, Debye):
    X=              1.2586    Y=             -2.1059    Z=             -0.9845  Tot=              2.6435
 Quadrupole moment (field-independent basis, Debye-Ang):
   XX=            -43.3036   YY=            -49.2750   ZZ=            -54.9233
   XY=              7.3306   XZ=              3.1749   YZ=             -3.3126
 Traceless Quadrupole moment (field-independent basis, Debye-Ang):
   XX=              5.8637   YY=             -0.1077   ZZ=             -5.7560
   XY=              7.3306   XZ=              3.1749   YZ=             -3.3126
 Octapole moment (field-independent basis, Debye-Ang**2):
  XXX=            -21.7968  YYY=             -3.2902  ZZZ=             -0.8485  XYY=              5.3122
  XXY=            -24.2770  XXZ=            -11.0065  XZZ=             -9.3408  YZZ=             -0.9285
  YYZ=             -1.4101  XYZ=              1.9133
 Hexadecapole moment (field-independent basis, Debye-Ang**3):
 XXXX=           -873.5801 YYYY=           -336.1976 ZZZZ=            -83.5474 XXXY=             82.6059
 XXXZ=             36.0603 YYYX=             13.2048 YYYZ=             -7.8205 ZZZX=              3.2822
 ZZZY=              2.7287 XXYY=           -227.5765 XXZZ=           -200.6158 YYZZ=            -78.4133
 XXYZ=             -8.1660 YYXZ=              4.2564 ZZXY=              3.2070
 N-N= 4.090455825908D+02 E-N=-1.801560408759D+03  KE= 4.201172876179D+02
 No NMR shielding tensors so no spin-rotation constants.
 Leave Link  601 at Sun Nov  6 23:00:52 2022, MaxMem= 16106127360 cpu:               3.3 elap:               0.1
 (Enter /opt/ap/G16/B01/g16/l9999.exe)
 1\1\GINC-N07\SP\RwB97XD\6-311++G(d,p)\C7H6O2\ROOT\06-Nov-2022\0\\#P wB
 97XD/6-311++G(d,p) scf=maxcycle=512\\_conf011.gjf nmol_natom 1_15\\0,1
 \C\C,1,1.39016191\C,1,1.39194539,2,119.895942\C,2,1.38669027,1,119.880
 75721,3,0.70825972,0\H,2,0.98744251,1,119.71654057,3,-179.90726164,0\C
 ,1,1.48428757,2,119.93615286,4,-179.87772406,0\C,3,1.40101108,1,119.72
 36454,2,-0.26266839,0\H,3,0.9902154,1,119.1886159,2,178.85397616,0\C,4
 ,1.37899003,2,120.45785903,1,-0.48041454,0\H,4,0.9834739,2,120.3044270
 6,1,179.36166981,0\O,6,1.27459751,1,118.00615353,2,-35.,0\O,6,1.263625
 72,1,118.77715367,2,145.,0\H,7,0.98977053,3,119.37861578,1,-178.935457
 41,0\H,9,0.99498061,4,119.46722635,2,-178.58826714,0\H,11,0.89680392,6
 ,118.15823763,1,176.92714093,0\\Version=ES64L-G16RevB.01\State=1-A\HF=
 -420.7441639\RMSD=9.104e-09\Dipole=0.0780001,-0.5067493,0.9048913\Quad
 rupole=7.6406234,-4.8357428,-2.8048806,2.1938679,-1.1535837,3.0073534\
 PG=C01 [X(C7H6O2)]\\@


 TOWERING GENIUS DISDAINS A BEATEN PATH.  IT SEEKS 
 REGIONS HITHERTO UNEXPLORED.

                                -- ABRAHAM LINCOLN
 Job cpu time:       0 days  0 hours  7 minutes 23.2 seconds.
 Elapsed time:       0 days  0 hours  0 minutes 14.0 seconds.
 File lengths (MBytes):  RWF=     35 Int=      0 D2E=      0 Chk=      4 Scr=      1
 Normal termination of Gaussian 16 at Sun Nov  6 23:00:52 2022.
