 Entering Gaussian System, Link 0=g16
 Input=_conf020.gjf
 Output=_conf020.log
 Initial command:
 /opt/ap/G16/B01/g16/l1.exe "/tmp2/scr/Gau-18084.inp" -scrdir="/tmp2/scr/"
 Entering Link 1 = /opt/ap/G16/B01/g16/l1.exe PID=     18085.
  
 Copyright (c) 1988-2017, Gaussian, Inc.  All Rights Reserved.
  
 This is part of the Gaussian(R) 16 program.  It is based on
 the Gaussian(R) 09 system (copyright 2009, Gaussian, Inc.),
 the Gaussian(R) 03 system (copyright 2003, Gaussian, Inc.),
 the Gaussian(R) 98 system (copyright 1998, Gaussian, Inc.),
 the Gaussian(R) 94 system (copyright 1995, Gaussian, Inc.),
 the Gaussian 92(TM) system (copyright 1992, Gaussian, Inc.),
 the Gaussian 90(TM) system (copyright 1990, Gaussian, Inc.),
 the Gaussian 88(TM) system (copyright 1988, Gaussian, Inc.),
 the Gaussian 86(TM) system (copyright 1986, Carnegie Mellon
 University), and the Gaussian 82(TM) system (copyright 1983,
 Carnegie Mellon University). Gaussian is a federally registered
 trademark of Gaussian, Inc.
  
 This software contains proprietary and confidential information,
 including trade secrets, belonging to Gaussian, Inc.
  
 This software is provided under written license and may be
 used, copied, transmitted, or stored only in accord with that
 written license.
  
 The following legend is applicable only to US Government
 contracts under FAR:
  
                    RESTRICTED RIGHTS LEGEND
  
 Use, reproduction and disclosure by the US Government is
 subject to restrictions as set forth in subparagraphs (a)
 and (c) of the Commercial Computer Software - Restricted
 Rights clause in FAR 52.227-19.
  
 Gaussian, Inc.
 340 Quinnipiac St., Bldg. 40, Wallingford CT 06492
  
  
 ---------------------------------------------------------------
 Warning -- This program may not be used in any manner that
 competes with the business of Gaussian, Inc. or will provide
 assistance to any competitor of Gaussian, Inc.  The licensee
 of this program is prohibited from giving any competitor of
 Gaussian, Inc. access to this program.  By using this program,
 the user acknowledges that Gaussian, Inc. is engaged in the
 business of creating and licensing software in the field of
 computational chemistry and represents and warrants to the
 licensee that it is not a competitor of Gaussian, Inc. and that
 it will not use this program in any manner prohibited above.
 ---------------------------------------------------------------
  

 Cite this work as:
 Gaussian 16, Revision B.01,
 M. J. Frisch, G. W. Trucks, H. B. Schlegel, G. E. Scuseria, 
 M. A. Robb, J. R. Cheeseman, G. Scalmani, V. Barone, 
 G. A. Petersson, H. Nakatsuji, X. Li, M. Caricato, A. V. Marenich, 
 J. Bloino, B. G. Janesko, R. Gomperts, B. Mennucci, H. P. Hratchian, 
 J. V. Ortiz, A. F. Izmaylov, J. L. Sonnenberg, D. Williams-Young, 
 F. Ding, F. Lipparini, F. Egidi, J. Goings, B. Peng, A. Petrone, 
 T. Henderson, D. Ranasinghe, V. G. Zakrzewski, J. Gao, N. Rega, 
 G. Zheng, W. Liang, M. Hada, M. Ehara, K. Toyota, R. Fukuda, 
 J. Hasegawa, M. Ishida, T. Nakajima, Y. Honda, O. Kitao, H. Nakai, 
 T. Vreven, K. Throssell, J. A. Montgomery, Jr., J. E. Peralta, 
 F. Ogliaro, M. J. Bearpark, J. J. Heyd, E. N. Brothers, K. N. Kudin, 
 V. N. Staroverov, T. A. Keith, R. Kobayashi, J. Normand, 
 K. Raghavachari, A. P. Rendell, J. C. Burant, S. S. Iyengar, 
 J. Tomasi, M. Cossi, J. M. Millam, M. Klene, C. Adamo, R. Cammi, 
 J. W. Ochterski, R. L. Martin, K. Morokuma, O. Farkas, 
 J. B. Foresman, and D. J. Fox, Gaussian, Inc., Wallingford CT, 2016.
 
 ******************************************
 Gaussian 16:  ES64L-G16RevB.01 20-Dec-2017
                 6-Nov-2022 
 ******************************************
 %nprocshared=32
 Will use up to   32 processors via shared memory.
 %mem=120GB
 %chk=_conf020.chk
 ----------------------------------------
 #P wB97XD/6-311++G(d,p) scf=maxcycle=512
 ----------------------------------------
 1/38=1,172=1/1;
 2/12=2,17=6,18=5,40=1/2;
 3/5=4,6=6,7=1111,11=2,25=1,30=1,74=-58/1,2,3;
 4//1;
 5/5=2,7=512,38=5/2;
 6/7=2,8=2,9=2,10=2,28=1/1;
 99/5=1,9=1/99;
 Leave Link    1 at Sun Nov  6 23:01:20 2022, MaxMem= 16106127360 cpu:               1.5 elap:               0.1
 (Enter /opt/ap/G16/B01/g16/l101.exe)
 ----------------------------
 _conf020.gjf nmol_natom 1_15
 ----------------------------
 Symbolic Z-matrix:
 Charge =  0 Multiplicity = 1
 C
 C                    1     1.39016 
 C                    1     1.39195  2     119.89594 
 C                    2     1.38669  1     119.88076  3     0.70826  0
 H                    2     0.98744  1     119.71654  3    -179.90726  0
 C                    1     1.48429  2     119.93615  4    -179.87772  0
 C                    3     1.40101  1     119.72365  2    -0.26267  0
 H                    3     0.99022  1     119.18862  2     178.85398  0
 C                    4     1.37899  2     120.45786  1    -0.48041  0
 H                    4     0.98347  2     120.30443  1     179.36167  0
 O                    6     1.2746   1     118.00615  2     10.      0
 O                    6     1.26363  1     118.77715  2    -170.     0
 H                    7     0.98977  3     119.37862  1    -178.93546  0
 H                    9     0.99498  4     119.46723  2    -178.58827  0
 H                    11    0.8968   6     118.15824  1     176.92714  0
 
 ITRead=  0  0  0  0  0  0  0  0  0  0  0  0  0  0  0
 MicOpt= -1 -1 -1 -1 -1 -1 -1 -1 -1 -1 -1 -1 -1 -1 -1
 NAtoms=     15 NQM=       15 NQMF=       0 NMMI=      0 NMMIF=      0
                NMic=       0 NMicF=      0.
                    Isotopes and Nuclear Properties:
 (Nuclear quadrupole moments (NQMom) in fm**2, nuclear magnetic moments (NMagM)
  in nuclear magnetons)

  Atom         1           2           3           4           5           6           7           8           9          10
 IAtWgt=          12          12          12          12           1          12          12           1          12           1
 AtmWgt=  12.0000000  12.0000000  12.0000000  12.0000000   1.0078250  12.0000000  12.0000000   1.0078250  12.0000000   1.0078250
 NucSpn=           0           0           0           0           1           0           0           1           0           1
 AtZEff=  -0.0000000  -0.0000000  -0.0000000  -0.0000000  -0.0000000  -0.0000000  -0.0000000  -0.0000000  -0.0000000  -0.0000000
 NQMom=    0.0000000   0.0000000   0.0000000   0.0000000   0.0000000   0.0000000   0.0000000   0.0000000   0.0000000   0.0000000
 NMagM=    0.0000000   0.0000000   0.0000000   0.0000000   2.7928460   0.0000000   0.0000000   2.7928460   0.0000000   2.7928460
 AtZNuc=   6.0000000   6.0000000   6.0000000   6.0000000   1.0000000   6.0000000   6.0000000   1.0000000   6.0000000   1.0000000

  Atom        11          12          13          14          15
 IAtWgt=          16          16           1           1           1
 AtmWgt=  15.9949146  15.9949146   1.0078250   1.0078250   1.0078250
 NucSpn=           0           0           1           1           1
 AtZEff=  -0.0000000  -0.0000000  -0.0000000  -0.0000000  -0.0000000
 NQMom=    0.0000000   0.0000000   0.0000000   0.0000000   0.0000000
 NMagM=    0.0000000   0.0000000   2.7928460   2.7928460   2.7928460
 AtZNuc=   8.0000000   8.0000000   1.0000000   1.0000000   1.0000000
 Leave Link  101 at Sun Nov  6 23:01:20 2022, MaxMem= 16106127360 cpu:               5.2 elap:               0.2
 (Enter /opt/ap/G16/B01/g16/l202.exe)
                          Input orientation:                          
 ---------------------------------------------------------------------
 Center     Atomic      Atomic             Coordinates (Angstroms)
 Number     Number       Type             X           Y           Z
 ---------------------------------------------------------------------
      1          6           0        0.000000    0.000000    0.000000
      2          6           0        0.000000    0.000000    1.390162
      3          6           0        1.206722    0.000000   -0.693782
      4          6           0        1.202258    0.014862    2.081006
      5          1           0       -0.857581   -0.001388    1.879646
      6          6           0       -1.286190   -0.013155   -0.740711
      7          6           0        2.415349    0.005578    0.014752
      8          1           0        1.194584   -0.017290   -1.683772
      9          6           0        2.400563    0.019708    1.398617
     10          1           0        1.209438    0.024411    3.064408
     11          8           0       -2.359840    0.171287   -0.079005
     12          8           0       -1.267061   -0.205296   -1.989497
     13          1           0        3.270315    0.021574   -0.483669
     14          1           0        3.254554    0.009066    1.909081
     15          1           0       -3.134272    0.205615   -0.529929
 ---------------------------------------------------------------------
                    Distance matrix (angstroms):
                    1          2          3          4          5
     1  C    0.000000
     2  C    1.390162   0.000000
     3  C    1.391945   2.408112   0.000000
     4  C    2.403379   1.386690   2.774832   0.000000
     5  H    2.066039   0.987443   3.299073   2.069721   0.000000
     6  C    1.484288   2.488991   2.493388   3.762345   2.655206
     7  C    2.415401   2.779513   1.401011   2.396056   3.766955
     8  H    2.064563   3.297939   0.990215   3.764924   4.112127
     9  C    2.778349   2.400659   2.409104   1.378990   3.293530
    10  H    3.294530   2.065535   3.758270   0.983474   2.382624
    11  O    2.367367   2.785073   3.623211   4.168771   2.474452
    12  O    2.367633   3.615202   2.800112   4.766025   3.896090
    13  H    3.305958   3.769173   2.074374   3.294611   4.756607
    14  H    3.773167   3.295676   3.311886   2.059493   4.112253
    15  H    3.185399   3.681398   4.348949   5.065458   3.321480
                    6          7          8          9         10
     6  C    0.000000
     7  C    3.777892   0.000000
     8  H    2.653982   2.091836   0.000000
     9  C    4.262622   1.384016   3.310118   0.000000
    10  H    4.550659   3.279477   4.748386   2.047842   0.000000
    11  O    1.274598   4.778983   3.904455   4.986760   4.758399
    12  O    1.263626   4.197812   2.487672   4.998141   5.632740
    13  H    4.563881   0.989771   2.398003   2.073517   4.103177
    14  H    5.257398   2.071897   4.141589   0.994981   2.348938
    15  H    1.872885   5.579874   4.485537   5.864150   5.640914
                   11         12         13         14         15
    11  O    0.000000
    12  O    2.232926   0.000000
    13  H    5.646663   4.786102   0.000000
    14  H    5.958205   5.974099   2.392834   0.000000
    15  H    0.896804   2.405340   6.407398   6.841381   0.000000
 Stoichiometry    C7H6O2
 Framework group  C1[X(C7H6O2)]
 Deg. of freedom    39
 Full point group                 C1      NOp   1
 Largest Abelian subgroup         C1      NOp   1
 Largest concise Abelian subgroup C1      NOp   1
                         Standard orientation:                         
 ---------------------------------------------------------------------
 Center     Atomic      Atomic             Coordinates (Angstroms)
 Number     Number       Type             X           Y           Z
 ---------------------------------------------------------------------
      1          6           0        0.220634    0.027712   -0.000056
      2          6           0       -0.444136   -1.191496    0.064475
      3          6           0       -0.507403    1.212646   -0.058408
      4          6           0       -1.830421   -1.223807    0.055651
      5          1           0        0.074968   -2.030395    0.107165
      6          6           0        1.704474    0.063574    0.006566
      7          6           0       -1.907712    1.168338   -0.057277
      8          1           0       -0.023278    2.075978   -0.086833
      9          6           0       -2.556530   -0.053134   -0.006830
     10          1           0       -2.307017   -2.083333    0.091608
     11          8           0        2.330394   -1.039089   -0.123654
     12          8           0        2.285448    1.177753    0.140072
     13          1           0       -2.420291    2.013078   -0.114914
     14          1           0       -3.550613   -0.092314    0.008991
     15          1           0        3.226059   -1.015330   -0.162089
 ---------------------------------------------------------------------
 Rotational constants (GHZ):           3.9688946           1.2365052           0.9455704
 Leave Link  202 at Sun Nov  6 23:01:20 2022, MaxMem= 16106127360 cpu:               0.3 elap:               0.0
 (Enter /opt/ap/G16/B01/g16/l301.exe)
 Standard basis: 6-311++G(d,p) (5D, 7F)
 Ernie: Thresh=  0.10000D-02 Tol=  0.10000D-05 Strict=F.
 There are   249 symmetry adapted cartesian basis functions of A   symmetry.
 There are   240 symmetry adapted basis functions of A   symmetry.
   240 basis functions,   378 primitive gaussians,   249 cartesian basis functions
    32 alpha electrons       32 beta electrons
       nuclear repulsion energy       409.5174965479 Hartrees.
 IExCor= 4639 DFT=T Ex+Corr=wB97XD ExCW=0 ScaHFX=  1.000000
 ScaDFX=  1.000000  1.000000  1.000000  1.000000 ScalE2=  1.000000  1.000000
 IRadAn=      5 IRanWt=     -1 IRanGd=            0 ICorTp=0 IEmpDi=121
 HFx  wShort=  0.000000 wLong=  0.200000 cFull=  0.222036 cShort=  0.000000 cLong=  0.777964
 DFx  wShort=  0.000000 wLong=  0.200000 cFull=  0.000000 cShort=  0.000000 cLong=  1.000000
 NAtoms=   15 NActive=   15 NUniq=   15 SFac= 1.00D+00 NAtFMM=   60 NAOKFM=F Big=F
 Integral buffers will be    131072 words long.
 Raffenetti 2 integral format.
 Two-electron integral symmetry is turned on.
 R6Disp:  Grimme-D2 Dispersion energy=       -0.0063323740 Hartrees.
 Nuclear repulsion after empirical dispersion term =      409.5111641739 Hartrees.
 Leave Link  301 at Sun Nov  6 23:01:20 2022, MaxMem= 16106127360 cpu:               1.1 elap:               0.0
 (Enter /opt/ap/G16/B01/g16/l302.exe)
 NPDir=0 NMtPBC=     1 NCelOv=     1 NCel=       1 NClECP=     1 NCelD=      1
         NCelK=      1 NCelE2=     1 NClLst=     1 CellRange=     0.0.
 One-electron integrals computed using PRISM.
 One-electron integral symmetry used in STVInt
 NBasis=   240 RedAO= T EigKep=  1.22D-06  NBF=   240
 NBsUse=   240 1.00D-06 EigRej= -1.00D+00 NBFU=   240
 Precomputing XC quadrature grid using
 IXCGrd= 4 IRadAn=           5 IRanWt=          -1 IRanGd=           0 AccXCQ= 0.00D+00.
 Generated NRdTot=       0 NPtTot=           0 NUsed=           0 NTot=          32
 NSgBfM=   249   249   249   249   249 MxSgAt=    15 MxSgA2=    15.
 Leave Link  302 at Sun Nov  6 23:01:21 2022, MaxMem= 16106127360 cpu:               5.3 elap:               0.2
 (Enter /opt/ap/G16/B01/g16/l303.exe)
 DipDrv:  MaxL=1.
 Leave Link  303 at Sun Nov  6 23:01:21 2022, MaxMem= 16106127360 cpu:               1.3 elap:               0.0
 (Enter /opt/ap/G16/B01/g16/l401.exe)
 ExpMin= 3.60D-02 ExpMax= 8.59D+03 ExpMxC= 1.30D+03 IAcc=3 IRadAn=         5 AccDes= 0.00D+00
 Harris functional with IExCor= 4639 and IRadAn=       5 diagonalized for initial guess.
 HarFok:  IExCor= 4639 AccDes= 0.00D+00 IRadAn=         5 IDoV= 1 UseB2=F ITyADJ=14
 ICtDFT=  3500011 ScaDFX=  1.000000  1.000000  1.000000  1.000000
 FoFCou: FMM=F IPFlag=           0 FMFlag=      100000 FMFlg1=           0
         NFxFlg=           0 DoJE=T BraDBF=F KetDBF=T FulRan=T
         wScrn=  0.000000 ICntrl=       500 IOpCl=  0 I1Cent=   200000004 NGrid=           0
         NMat0=    1 NMatS0=      1 NMatT0=    0 NMatD0=    1 NMtDS0=    0 NMtDT0=    0
 Petite list used in FoFCou.
 Harris En= -403.254703749576    
 JPrj=0 DoOrth=F DoCkMO=F.
 Leave Link  401 at Sun Nov  6 23:01:21 2022, MaxMem= 16106127360 cpu:              11.8 elap:               0.4
 (Enter /opt/ap/G16/B01/g16/l502.exe)
 Integral symmetry usage will be decided dynamically.
 Closed shell SCF:
 Using DIIS extrapolation, IDIIS=  1040.
 NGot= 16106127360 LenX= 16105992971 LenY= 16105930529
 Requested convergence on RMS density matrix=1.00D-08 within 512 cycles.
 Requested convergence on MAX density matrix=1.00D-06.
 Requested convergence on             energy=1.00D-06.
 No special actions if energy rises.
 Fock matrices will be formed incrementally for  20 cycles.

 Cycle   1  Pass 1  IDiag  1:
 FoFJK:  IHMeth= 1 ICntrl=       0 DoSepK=T KAlg= 0 I1Cent=           0 FoldK=F
 IRaf=         1 NMat=       1 IRICut=       1 DoRegI=T DoRafI=F ISym2E= 0 IDoP0=0 IntGTp=1.
 FoFCou: FMM=F IPFlag=           0 FMFlag=      100000 FMFlg1=           0
         NFxFlg=           0 DoJE=T BraDBF=F KetDBF=F FulRan=T
         wScrn=  0.000000 ICntrl=       500 IOpCl=  0 I1Cent=           0 NGrid=           0
         NMat0=    1 NMatS0=      1 NMatT0=    0 NMatD0=    1 NMtDS0=    0 NMtDT0=    0
 Symmetry not used in FoFCou.
 E= -420.632395805201    
 DIIS: error= 8.14D-02 at cycle   1 NSaved=   1.
 NSaved= 1 IEnMin= 1 EnMin= -420.632395805201     IErMin= 1 ErrMin= 8.14D-02
 ErrMax= 8.14D-02  0.00D+00 EMaxC= 1.00D-01 BMatC= 8.61D-01 BMatP= 8.61D-01
 IDIUse=3 WtCom= 1.86D-01 WtEn= 8.14D-01
 Coeff-Com:  0.100D+01
 Coeff-En:   0.100D+01
 Coeff:      0.100D+01
 Gap=     0.426 Goal=   None    Shift=    0.000
 GapD=    0.426 DampG=2.000 DampE=0.500 DampFc=1.0000 IDamp=-1.
 RMSDP=3.03D-02 MaxDP=2.21D+00              OVMax= 1.10D-01

 Cycle   2  Pass 1  IDiag  1:
 RMSU=  1.43D-02    CP:  6.83D-01
 E= -420.703192631428     Delta-E=       -0.070796826227 Rises=F Damp=F
 DIIS: error= 1.50D-02 at cycle   2 NSaved=   2.
 NSaved= 2 IEnMin= 2 EnMin= -420.703192631428     IErMin= 2 ErrMin= 1.50D-02
 ErrMax= 1.50D-02  0.00D+00 EMaxC= 1.00D-01 BMatC= 5.74D-02 BMatP= 8.61D-01
 IDIUse=3 WtCom= 8.50D-01 WtEn= 1.50D-01
 Coeff-Com:  0.136D+00 0.864D+00
 Coeff-En:   0.994D-01 0.901D+00
 Coeff:      0.130D+00 0.870D+00
 Gap=     0.425 Goal=   None    Shift=    0.000
 RMSDP=7.54D-03 MaxDP=3.28D-01 DE=-7.08D-02 OVMax= 7.89D-02

 Cycle   3  Pass 1  IDiag  1:
 RMSU=  6.44D-03    CP:  6.47D-01  8.29D-01
 E= -420.719415031707     Delta-E=       -0.016222400279 Rises=F Damp=F
 DIIS: error= 1.61D-02 at cycle   3 NSaved=   3.
 NSaved= 3 IEnMin= 3 EnMin= -420.719415031707     IErMin= 2 ErrMin= 1.50D-02
 ErrMax= 1.61D-02  0.00D+00 EMaxC= 1.00D-01 BMatC= 3.61D-02 BMatP= 5.74D-02
 IDIUse=3 WtCom= 8.39D-01 WtEn= 1.61D-01
 Coeff-Com:  0.276D-01 0.447D+00 0.525D+00
 Coeff-En:   0.000D+00 0.384D+00 0.616D+00
 Coeff:      0.232D-01 0.437D+00 0.540D+00
 Gap=     0.359 Goal=   None    Shift=    0.000
 RMSDP=3.74D-03 MaxDP=3.00D-01 DE=-1.62D-02 OVMax= 5.42D-02

 Cycle   4  Pass 1  IDiag  1:
 RMSU=  2.34D-03    CP:  6.28D-01  9.01D-01  6.58D-01
 E= -420.745589739262     Delta-E=       -0.026174707555 Rises=F Damp=F
 DIIS: error= 3.02D-03 at cycle   4 NSaved=   4.
 NSaved= 4 IEnMin= 4 EnMin= -420.745589739262     IErMin= 4 ErrMin= 3.02D-03
 ErrMax= 3.02D-03  0.00D+00 EMaxC= 1.00D-01 BMatC= 1.98D-03 BMatP= 3.61D-02
 IDIUse=3 WtCom= 9.70D-01 WtEn= 3.02D-02
 Coeff-Com:  0.105D-01 0.222D+00 0.305D+00 0.463D+00
 Coeff-En:   0.000D+00 0.000D+00 0.000D+00 0.100D+01
 Coeff:      0.102D-01 0.215D+00 0.296D+00 0.479D+00
 Gap=     0.354 Goal=   None    Shift=    0.000
 RMSDP=8.74D-04 MaxDP=5.72D-02 DE=-2.62D-02 OVMax= 1.26D-02

 Cycle   5  Pass 1  IDiag  1:
 RMSU=  7.50D-04    CP:  6.26D-01  8.92D-01  6.90D-01  8.51D-01
 E= -420.746927888676     Delta-E=       -0.001338149415 Rises=F Damp=F
 DIIS: error= 5.74D-04 at cycle   5 NSaved=   5.
 NSaved= 5 IEnMin= 5 EnMin= -420.746927888676     IErMin= 5 ErrMin= 5.74D-04
 ErrMax= 5.74D-04  0.00D+00 EMaxC= 1.00D-01 BMatC= 5.35D-05 BMatP= 1.98D-03
 IDIUse=3 WtCom= 9.94D-01 WtEn= 5.74D-03
 Coeff-Com:  0.315D-03 0.153D-01 0.305D-01 0.154D+00 0.800D+00
 Coeff-En:   0.000D+00 0.000D+00 0.000D+00 0.000D+00 0.100D+01
 Coeff:      0.313D-03 0.153D-01 0.303D-01 0.153D+00 0.801D+00
 Gap=     0.350 Goal=   None    Shift=    0.000
 RMSDP=2.66D-04 MaxDP=1.70D-02 DE=-1.34D-03 OVMax= 2.57D-03

 Cycle   6  Pass 1  IDiag  1:
 RMSU=  1.39D-04    CP:  6.24D-01  8.97D-01  7.06D-01  8.88D-01  1.02D+00
 E= -420.746969197924     Delta-E=       -0.000041309248 Rises=F Damp=F
 DIIS: error= 2.15D-04 at cycle   6 NSaved=   6.
 NSaved= 6 IEnMin= 6 EnMin= -420.746969197924     IErMin= 6 ErrMin= 2.15D-04
 ErrMax= 2.15D-04  0.00D+00 EMaxC= 1.00D-01 BMatC= 7.41D-06 BMatP= 5.35D-05
 IDIUse=3 WtCom= 9.98D-01 WtEn= 2.15D-03
 Coeff-Com: -0.962D-03-0.165D-01-0.179D-01 0.149D-01 0.347D+00 0.674D+00
 Coeff-En:   0.000D+00 0.000D+00 0.000D+00 0.000D+00 0.000D+00 0.100D+01
 Coeff:     -0.960D-03-0.165D-01-0.179D-01 0.149D-01 0.346D+00 0.675D+00
 Gap=     0.350 Goal=   None    Shift=    0.000
 RMSDP=1.78D-04 MaxDP=1.81D-02 DE=-4.13D-05 OVMax= 8.29D-04

 Cycle   7  Pass 1  IDiag  1:
 RMSU=  5.29D-05    CP:  6.22D-01  8.95D-01  7.14D-01  9.06D-01  1.09D+00
                    CP:  1.11D+00
 E= -420.746976385800     Delta-E=       -0.000007187875 Rises=F Damp=F
 DIIS: error= 6.75D-05 at cycle   7 NSaved=   7.
 NSaved= 7 IEnMin= 7 EnMin= -420.746976385800     IErMin= 7 ErrMin= 6.75D-05
 ErrMax= 6.75D-05  0.00D+00 EMaxC= 1.00D-01 BMatC= 3.12D-07 BMatP= 7.41D-06
 IDIUse=1 WtCom= 1.00D+00 WtEn= 0.00D+00
 Coeff-Com: -0.234D-03-0.544D-02-0.680D-02-0.134D-01-0.621D-03 0.134D+00
 Coeff-Com:  0.893D+00
 Coeff:     -0.234D-03-0.544D-02-0.680D-02-0.134D-01-0.621D-03 0.134D+00
 Coeff:      0.893D+00
 Gap=     0.350 Goal=   None    Shift=    0.000
 RMSDP=4.77D-05 MaxDP=3.42D-03 DE=-7.19D-06 OVMax= 3.15D-04

 Cycle   8  Pass 1  IDiag  1:
 RMSU=  1.24D-05    CP:  6.22D-01  8.95D-01  7.16D-01  9.10D-01  1.13D+00
                    CP:  1.16D+00  1.07D+00
 E= -420.746976961867     Delta-E=       -0.000000576068 Rises=F Damp=F
 DIIS: error= 1.36D-05 at cycle   8 NSaved=   8.
 NSaved= 8 IEnMin= 8 EnMin= -420.746976961867     IErMin= 8 ErrMin= 1.36D-05
 ErrMax= 1.36D-05  0.00D+00 EMaxC= 1.00D-01 BMatC= 4.13D-08 BMatP= 3.12D-07
 IDIUse=1 WtCom= 1.00D+00 WtEn= 0.00D+00
 Coeff-Com:  0.314D-04 0.276D-03 0.166D-03-0.583D-02-0.378D-01-0.378D-01
 Coeff-Com:  0.241D+00 0.840D+00
 Coeff:      0.314D-04 0.276D-03 0.166D-03-0.583D-02-0.378D-01-0.378D-01
 Coeff:      0.241D+00 0.840D+00
 Gap=     0.350 Goal=   None    Shift=    0.000
 RMSDP=1.33D-05 MaxDP=8.53D-04 DE=-5.76D-07 OVMax= 1.19D-04

 Cycle   9  Pass 1  IDiag  1:
 RMSU=  4.46D-06    CP:  6.22D-01  8.95D-01  7.17D-01  9.09D-01  1.14D+00
                    CP:  1.19D+00  1.17D+00  1.08D+00
 E= -420.746977034909     Delta-E=       -0.000000073042 Rises=F Damp=F
 DIIS: error= 1.04D-05 at cycle   9 NSaved=   9.
 NSaved= 9 IEnMin= 9 EnMin= -420.746977034909     IErMin= 9 ErrMin= 1.04D-05
 ErrMax= 1.04D-05  0.00D+00 EMaxC= 1.00D-01 BMatC= 4.68D-09 BMatP= 4.13D-08
 IDIUse=1 WtCom= 1.00D+00 WtEn= 0.00D+00
 Coeff-Com:  0.368D-04 0.704D-03 0.861D-03-0.295D-03-0.101D-01-0.266D-01
 Coeff-Com: -0.286D-01 0.247D+00 0.817D+00
 Coeff:      0.368D-04 0.704D-03 0.861D-03-0.295D-03-0.101D-01-0.266D-01
 Coeff:     -0.286D-01 0.247D+00 0.817D+00
 Gap=     0.350 Goal=   None    Shift=    0.000
 RMSDP=4.91D-06 MaxDP=3.44D-04 DE=-7.30D-08 OVMax= 4.62D-05

 Cycle  10  Pass 1  IDiag  1:
 RMSU=  1.61D-06    CP:  6.22D-01  8.95D-01  7.17D-01  9.07D-01  1.14D+00
                    CP:  1.19D+00  1.21D+00  1.17D+00  1.30D+00
 E= -420.746977043357     Delta-E=       -0.000000008448 Rises=F Damp=F
 DIIS: error= 1.53D-06 at cycle  10 NSaved=  10.
 NSaved=10 IEnMin=10 EnMin= -420.746977043357     IErMin=10 ErrMin= 1.53D-06
 ErrMax= 1.53D-06  0.00D+00 EMaxC= 1.00D-01 BMatC= 5.77D-10 BMatP= 4.68D-09
 IDIUse=1 WtCom= 1.00D+00 WtEn= 0.00D+00
 Coeff-Com:  0.623D-05 0.140D-03 0.197D-03 0.433D-03 0.140D-02-0.367D-02
 Coeff-Com: -0.305D-01-0.281D-01 0.223D+00 0.837D+00
 Coeff:      0.623D-05 0.140D-03 0.197D-03 0.433D-03 0.140D-02-0.367D-02
 Coeff:     -0.305D-01-0.281D-01 0.223D+00 0.837D+00
 Gap=     0.350 Goal=   None    Shift=    0.000
 RMSDP=1.66D-06 MaxDP=9.46D-05 DE=-8.45D-09 OVMax= 1.34D-05

 Cycle  11  Pass 1  IDiag  1:
 RMSU=  4.78D-07    CP:  6.22D-01  8.95D-01  7.17D-01  9.07D-01  1.14D+00
                    CP:  1.19D+00  1.21D+00  1.21D+00  1.42D+00  1.16D+00
 E= -420.746977044315     Delta-E=       -0.000000000958 Rises=F Damp=F
 DIIS: error= 1.05D-06 at cycle  11 NSaved=  11.
 NSaved=11 IEnMin=11 EnMin= -420.746977044315     IErMin=11 ErrMin= 1.05D-06
 ErrMax= 1.05D-06  0.00D+00 EMaxC= 1.00D-01 BMatC= 1.06D-10 BMatP= 5.77D-10
 IDIUse=1 WtCom= 1.00D+00 WtEn= 0.00D+00
 Coeff-Com: -0.158D-05-0.130D-04-0.660D-06 0.246D-03 0.192D-02 0.142D-02
 Coeff-Com: -0.829D-02-0.465D-01-0.154D-01 0.337D+00 0.730D+00
 Coeff:     -0.158D-05-0.130D-04-0.660D-06 0.246D-03 0.192D-02 0.142D-02
 Coeff:     -0.829D-02-0.465D-01-0.154D-01 0.337D+00 0.730D+00
 Gap=     0.350 Goal=   None    Shift=    0.000
 RMSDP=6.54D-07 MaxDP=3.72D-05 DE=-9.58D-10 OVMax= 6.38D-06

 Cycle  12  Pass 1  IDiag  1:
 RMSU=  1.77D-07    CP:  6.22D-01  8.95D-01  7.17D-01  9.07D-01  1.14D+00
                    CP:  1.19D+00  1.22D+00  1.21D+00  1.48D+00  1.30D+00
                    CP:  1.08D+00
 E= -420.746977044469     Delta-E=       -0.000000000154 Rises=F Damp=F
 DIIS: error= 2.04D-07 at cycle  12 NSaved=  12.
 NSaved=12 IEnMin=12 EnMin= -420.746977044469     IErMin=12 ErrMin= 2.04D-07
 ErrMax= 2.04D-07  0.00D+00 EMaxC= 1.00D-01 BMatC= 8.30D-12 BMatP= 1.06D-10
 IDIUse=1 WtCom= 1.00D+00 WtEn= 0.00D+00
 Coeff-Com: -0.995D-06-0.161D-04-0.171D-04 0.348D-04 0.430D-03 0.606D-03
 Coeff-Com:  0.896D-03-0.111D-01-0.234D-01 0.186D-01 0.195D+00 0.819D+00
 Coeff:     -0.995D-06-0.161D-04-0.171D-04 0.348D-04 0.430D-03 0.606D-03
 Coeff:      0.896D-03-0.111D-01-0.234D-01 0.186D-01 0.195D+00 0.819D+00
 Gap=     0.350 Goal=   None    Shift=    0.000
 RMSDP=1.63D-07 MaxDP=8.56D-06 DE=-1.54D-10 OVMax= 2.32D-06

 Cycle  13  Pass 1  IDiag  1:
 RMSU=  7.58D-08    CP:  6.22D-01  8.95D-01  7.17D-01  9.07D-01  1.14D+00
                    CP:  1.19D+00  1.22D+00  1.20D+00  1.49D+00  1.31D+00
                    CP:  1.19D+00  1.07D+00
 E= -420.746977044485     Delta-E=       -0.000000000016 Rises=F Damp=F
 DIIS: error= 1.15D-07 at cycle  13 NSaved=  13.
 NSaved=13 IEnMin=13 EnMin= -420.746977044485     IErMin=13 ErrMin= 1.15D-07
 ErrMax= 1.15D-07  0.00D+00 EMaxC= 1.00D-01 BMatC= 1.58D-12 BMatP= 8.30D-12
 IDIUse=1 WtCom= 1.00D+00 WtEn= 0.00D+00
 Coeff-Com:  0.168D-07-0.395D-05-0.721D-05-0.380D-04-0.240D-03-0.114D-03
 Coeff-Com:  0.201D-02 0.519D-02-0.330D-02-0.592D-01-0.955D-01 0.244D+00
 Coeff-Com:  0.907D+00
 Coeff:      0.168D-07-0.395D-05-0.721D-05-0.380D-04-0.240D-03-0.114D-03
 Coeff:      0.201D-02 0.519D-02-0.330D-02-0.592D-01-0.955D-01 0.244D+00
 Coeff:      0.907D+00
 Gap=     0.350 Goal=   None    Shift=    0.000
 RMSDP=6.62D-08 MaxDP=4.80D-06 DE=-1.57D-11 OVMax= 1.29D-06

 Cycle  14  Pass 1  IDiag  1:
 RMSU=  2.37D-08    CP:  6.22D-01  8.95D-01  7.17D-01  9.07D-01  1.14D+00
                    CP:  1.19D+00  1.22D+00  1.20D+00  1.49D+00  1.32D+00
                    CP:  1.24D+00  1.20D+00  1.26D+00
 E= -420.746977044489     Delta-E=       -0.000000000004 Rises=F Damp=F
 DIIS: error= 5.14D-08 at cycle  14 NSaved=  14.
 NSaved=14 IEnMin=14 EnMin= -420.746977044489     IErMin=14 ErrMin= 5.14D-08
 ErrMax= 5.14D-08  0.00D+00 EMaxC= 1.00D-01 BMatC= 1.32D-13 BMatP= 1.58D-12
 IDIUse=1 WtCom= 1.00D+00 WtEn= 0.00D+00
 Coeff-Com:  0.615D-07 0.115D-05 0.129D-05-0.377D-05-0.589D-04-0.411D-04
 Coeff-Com: -0.219D-04 0.121D-02 0.224D-02-0.496D-02-0.232D-01-0.719D-01
 Coeff-Com:  0.252D-01 0.107D+01
 Coeff:      0.615D-07 0.115D-05 0.129D-05-0.377D-05-0.589D-04-0.411D-04
 Coeff:     -0.219D-04 0.121D-02 0.224D-02-0.496D-02-0.232D-01-0.719D-01
 Coeff:      0.252D-01 0.107D+01
 Gap=     0.350 Goal=   None    Shift=    0.000
 RMSDP=3.07D-08 MaxDP=2.57D-06 DE=-3.52D-12 OVMax= 5.70D-07

 Cycle  15  Pass 1  IDiag  1:
 RMSU=  8.80D-09    CP:  6.22D-01  8.95D-01  7.17D-01  9.07D-01  1.14D+00
                    CP:  1.19D+00  1.22D+00  1.20D+00  1.48D+00  1.32D+00
                    CP:  1.25D+00  1.21D+00  1.46D+00  1.35D+00
 E= -420.746977044496     Delta-E=       -0.000000000007 Rises=F Damp=F
 DIIS: error= 2.87D-08 at cycle  15 NSaved=  15.
 NSaved=15 IEnMin=15 EnMin= -420.746977044496     IErMin=15 ErrMin= 2.87D-08
 ErrMax= 2.87D-08  0.00D+00 EMaxC= 1.00D-01 BMatC= 3.43D-14 BMatP= 1.32D-13
 IDIUse=1 WtCom= 1.00D+00 WtEn= 0.00D+00
 Coeff-Com:  0.163D-07 0.100D-05 0.162D-05 0.476D-05 0.151D-04 0.886D-05
 Coeff-Com: -0.314D-03-0.339D-03 0.141D-02 0.746D-02 0.671D-02-0.573D-01
 Coeff-Com: -0.130D+00 0.381D+00 0.791D+00
 Coeff:      0.163D-07 0.100D-05 0.162D-05 0.476D-05 0.151D-04 0.886D-05
 Coeff:     -0.314D-03-0.339D-03 0.141D-02 0.746D-02 0.671D-02-0.573D-01
 Coeff:     -0.130D+00 0.381D+00 0.791D+00
 Gap=     0.350 Goal=   None    Shift=    0.000
 RMSDP=8.97D-09 MaxDP=4.14D-07 DE=-7.28D-12 OVMax= 1.84D-07

 SCF Done:  E(RwB97XD) =  -420.746977044     A.U. after   15 cycles
            NFock= 15  Conv=0.90D-08     -V/T= 2.0015
 KE= 4.201207081739D+02 PE=-1.802532766061D+03 EE= 5.521539166684D+02
 Leave Link  502 at Sun Nov  6 23:01:34 2022, MaxMem= 16106127360 cpu:             408.6 elap:              12.8
 (Enter /opt/ap/G16/B01/g16/l601.exe)
 Copying SCF densities to generalized density rwf, IOpCl= 0 IROHF=0.

 **********************************************************************

            Population analysis using the SCF Density.

 **********************************************************************

 Orbital symmetries:
       Occupied  (A) (A) (A) (A) (A) (A) (A) (A) (A) (A) (A) (A)
                 (A) (A) (A) (A) (A) (A) (A) (A) (A) (A) (A) (A)
                 (A) (A) (A) (A) (A) (A) (A) (A)
       Virtual   (A) (A) (A) (A) (A) (A) (A) (A) (A) (A) (A) (A)
                 (A) (A) (A) (A) (A) (A) (A) (A) (A) (A) (A) (A)
                 (A) (A) (A) (A) (A) (A) (A) (A) (A) (A) (A) (A)
                 (A) (A) (A) (A) (A) (A) (A) (A) (A) (A) (A) (A)
                 (A) (A) (A) (A) (A) (A) (A) (A) (A) (A) (A) (A)
                 (A) (A) (A) (A) (A) (A) (A) (A) (A) (A) (A) (A)
                 (A) (A) (A) (A) (A) (A) (A) (A) (A) (A) (A) (A)
                 (A) (A) (A) (A) (A) (A) (A) (A) (A) (A) (A) (A)
                 (A) (A) (A) (A) (A) (A) (A) (A) (A) (A) (A) (A)
                 (A) (A) (A) (A) (A) (A) (A) (A) (A) (A) (A) (A)
                 (A) (A) (A) (A) (A) (A) (A) (A) (A) (A) (A) (A)
                 (A) (A) (A) (A) (A) (A) (A) (A) (A) (A) (A) (A)
                 (A) (A) (A) (A) (A) (A) (A) (A) (A) (A) (A) (A)
                 (A) (A) (A) (A) (A) (A) (A) (A) (A) (A) (A) (A)
                 (A) (A) (A) (A) (A) (A) (A) (A) (A) (A) (A) (A)
                 (A) (A) (A) (A) (A) (A) (A) (A) (A) (A) (A) (A)
                 (A) (A) (A) (A) (A) (A) (A) (A) (A) (A) (A) (A)
                 (A) (A) (A) (A)
 The electronic state is 1-A.
 Alpha  occ. eigenvalues --  -19.31658 -19.22784 -10.43171 -10.31052 -10.29310
 Alpha  occ. eigenvalues --  -10.29307 -10.29161 -10.28982 -10.28725  -1.25797
 Alpha  occ. eigenvalues --   -1.10613  -0.98067  -0.88919  -0.87006  -0.80562
 Alpha  occ. eigenvalues --   -0.73375  -0.71905  -0.65814  -0.60671  -0.58596
 Alpha  occ. eigenvalues --   -0.56776  -0.56107  -0.54558  -0.53457  -0.48900
 Alpha  occ. eigenvalues --   -0.47398  -0.45550  -0.44732  -0.41015  -0.36212
 Alpha  occ. eigenvalues --   -0.34613  -0.34261
 Alpha virt. eigenvalues --    0.00764   0.03751   0.04312   0.04539   0.05287
 Alpha virt. eigenvalues --    0.06469   0.07795   0.08689   0.10193   0.11353
 Alpha virt. eigenvalues --    0.11934   0.12907   0.13348   0.14367   0.14715
 Alpha virt. eigenvalues --    0.16004   0.16306   0.16946   0.17469   0.18031
 Alpha virt. eigenvalues --    0.18137   0.19541   0.20098   0.20198   0.20413
 Alpha virt. eigenvalues --    0.21172   0.21587   0.21669   0.23215   0.23696
 Alpha virt. eigenvalues --    0.25464   0.26256   0.26933   0.27969   0.28747
 Alpha virt. eigenvalues --    0.29435   0.29871   0.30667   0.30976   0.31888
 Alpha virt. eigenvalues --    0.32185   0.33666   0.34428   0.35306   0.36017
 Alpha virt. eigenvalues --    0.36490   0.36994   0.38175   0.39877   0.40752
 Alpha virt. eigenvalues --    0.41739   0.42106   0.43755   0.44507   0.45974
 Alpha virt. eigenvalues --    0.48119   0.48593   0.54120   0.54769   0.57551
 Alpha virt. eigenvalues --    0.60573   0.60947   0.62093   0.63969   0.64267
 Alpha virt. eigenvalues --    0.64514   0.65275   0.66923   0.67351   0.69014
 Alpha virt. eigenvalues --    0.70212   0.72742   0.72977   0.74094   0.75712
 Alpha virt. eigenvalues --    0.76677   0.81379   0.82737   0.84182   0.86199
 Alpha virt. eigenvalues --    0.88424   0.91381   0.92980   0.93554   0.94504
 Alpha virt. eigenvalues --    0.96049   0.97244   0.97461   1.00077   1.00658
 Alpha virt. eigenvalues --    1.03522   1.05453   1.07621   1.09135   1.11943
 Alpha virt. eigenvalues --    1.14088   1.16250   1.16475   1.16965   1.18016
 Alpha virt. eigenvalues --    1.21295   1.22313   1.24299   1.28781   1.31034
 Alpha virt. eigenvalues --    1.34313   1.37561   1.43890   1.45035   1.56129
 Alpha virt. eigenvalues --    1.56944   1.59661   1.60492   1.60865   1.61981
 Alpha virt. eigenvalues --    1.62317   1.65851   1.67049   1.67472   1.74608
 Alpha virt. eigenvalues --    1.75135   1.78593   1.80268   1.82481   1.87735
 Alpha virt. eigenvalues --    1.88459   1.91385   1.91747   1.96402   1.99297
 Alpha virt. eigenvalues --    2.00304   2.02703   2.04029   2.04824   2.05645
 Alpha virt. eigenvalues --    2.06516   2.11716   2.15100   2.17543   2.19620
 Alpha virt. eigenvalues --    2.23253   2.28530   2.31674   2.42821   2.46027
 Alpha virt. eigenvalues --    2.52075   2.54500   2.54713   2.58131   2.64242
 Alpha virt. eigenvalues --    2.71720   2.72656   2.75424   2.76594   2.81398
 Alpha virt. eigenvalues --    2.81741   2.83266   2.88341   2.89479   2.90420
 Alpha virt. eigenvalues --    2.90764   2.91820   2.95677   2.99748   3.00685
 Alpha virt. eigenvalues --    3.02058   3.06456   3.06992   3.15397   3.18494
 Alpha virt. eigenvalues --    3.18997   3.23458   3.27863   3.31101   3.33644
 Alpha virt. eigenvalues --    3.42670   3.43805   3.48364   3.49550   3.63988
 Alpha virt. eigenvalues --    3.66294   3.69727   3.74493   3.84219   3.87784
 Alpha virt. eigenvalues --    4.07978   4.16738   4.28460   4.30789   4.36718
 Alpha virt. eigenvalues --    4.40936   4.46050   4.95125   5.05526   5.15552
 Alpha virt. eigenvalues --    5.30361   5.49702   5.82328   6.09266  23.84253
 Alpha virt. eigenvalues --   23.94362  24.14197  24.21383  24.28357  24.30429
 Alpha virt. eigenvalues --   24.41825  50.03865  50.16175
          Condensed to atoms (all electrons):
               1          2          3          4          5          6
     1  C   11.530411  -3.176051  -1.865626   2.518109  -0.086758  -2.928546
     2  C   -3.176051  17.625939  -1.365685  -6.473438   0.785075  -0.904698
     3  C   -1.865626  -1.365685  11.674932  -0.268805  -0.011624  -0.580988
     4  C    2.518109  -6.473438  -0.268805  10.065714  -0.255762  -0.228523
     5  H   -0.086758   0.785075  -0.011624  -0.255762   0.469979  -0.081008
     6  C   -2.928546  -0.904698  -0.580988  -0.228523  -0.081008   9.330466
     7  C    0.787467  -1.462915  -2.147872   1.396113  -0.032331   0.479116
     8  H    0.010134   0.081317   0.479752  -0.039728   0.001815  -0.097709
     9  C   -1.358121   2.223269   0.905274  -1.360164   0.053382  -0.153088
    10  H    0.055703  -0.208835   0.013158   0.508246  -0.014503   0.013526
    11  O   -0.240799  -0.233627  -0.061036   0.106602  -0.037009   0.458823
    12  O   -0.135979  -0.107068  -0.039508   0.071265  -0.006060   0.524635
    13  H    0.026956  -0.037515  -0.077966   0.023971  -0.000830   0.024309
    14  H    0.002742   0.066039   0.001521  -0.087529   0.002019  -0.014583
    15  H   -0.093165  -0.003852   0.014587  -0.029913   0.003917   0.094931
               7          8          9         10         11         12
     1  C    0.787467   0.010134  -1.358121   0.055703  -0.240799  -0.135979
     2  C   -1.462915   0.081317   2.223269  -0.208835  -0.233627  -0.107068
     3  C   -2.147872   0.479752   0.905274   0.013158  -0.061036  -0.039508
     4  C    1.396113  -0.039728  -1.360164   0.508246   0.106602   0.071265
     5  H   -0.032331   0.001815   0.053382  -0.014503  -0.037009  -0.006060
     6  C    0.479116  -0.097709  -0.153088   0.013526   0.458823   0.524635
     7  C    7.346389  -0.101335  -0.809911   0.014338   0.066284   0.102196
     8  H   -0.101335   0.434870   0.036638  -0.000266  -0.005211  -0.008894
     9  C   -0.809911   0.036638   6.634443  -0.058263  -0.039128  -0.026151
    10  H    0.014338  -0.000266  -0.058263   0.476321   0.003209   0.000829
    11  O    0.066284  -0.005211  -0.039128   0.003209   8.007007  -0.120176
    12  O    0.102196  -0.008894  -0.026151   0.000829  -0.120176   8.095169
    13  H    0.427644  -0.009738  -0.048144  -0.000252   0.000971   0.001728
    14  H   -0.061003   0.001222   0.447581  -0.009377  -0.000567  -0.000421
    15  H    0.009634  -0.000592  -0.001925  -0.000271   0.267321  -0.015405
              13         14         15
     1  C    0.026956   0.002742  -0.093165
     2  C   -0.037515   0.066039  -0.003852
     3  C   -0.077966   0.001521   0.014587
     4  C    0.023971  -0.087529  -0.029913
     5  H   -0.000830   0.002019   0.003917
     6  C    0.024309  -0.014583   0.094931
     7  C    0.427644  -0.061003   0.009634
     8  H   -0.009738   0.001222  -0.000592
     9  C   -0.048144   0.447581  -0.001925
    10  H   -0.000252  -0.009377  -0.000271
    11  O    0.000971  -0.000567   0.267321
    12  O    0.001728  -0.000421  -0.015405
    13  H    0.464042  -0.007807   0.000127
    14  H   -0.007807   0.472451  -0.000116
    15  H    0.000127  -0.000116   0.413220
 Mulliken charges:
               1
     1  C    0.953526
     2  C   -0.807953
     3  C   -0.670115
     4  C    0.053843
     5  H    0.209695
     6  C    0.063337
     7  C   -0.013813
     8  H    0.217725
     9  C   -0.445692
    10  H    0.206438
    11  O   -0.172663
    12  O   -0.336159
    13  H    0.212503
    14  H    0.187826
    15  H    0.341503
 Sum of Mulliken charges =  -0.00000
 Mulliken charges with hydrogens summed into heavy atoms:
               1
     1  C    0.953526
     2  C   -0.598258
     3  C   -0.452389
     4  C    0.260281
     6  C    0.063337
     7  C    0.198689
     9  C   -0.257866
    11  O    0.168839
    12  O   -0.336159
 Electronic spatial extent (au):  <R**2>=           1158.2295
 Charge=             -0.0000 electrons
 Dipole moment (field-independent basis, Debye):
    X=             -1.3338    Y=             -2.2774    Z=             -0.3482  Tot=              2.6621
 Quadrupole moment (field-independent basis, Debye-Ang):
   XX=            -43.3816   YY=            -49.9326   ZZ=            -54.1756
   XY=             -7.9738   XZ=             -1.2048   YZ=             -0.8834
 Traceless Quadrupole moment (field-independent basis, Debye-Ang):
   XX=              5.7817   YY=             -0.7694   ZZ=             -5.0124
   XY=             -7.9738   XZ=             -1.2048   YZ=             -0.8834
 Octapole moment (field-independent basis, Debye-Ang**2):
  XXX=             21.4186  YYY=             -4.0582  ZZZ=             -0.1856  XYY=             -7.3817
  XXY=            -26.2052  XXZ=             -4.0276  XZZ=             11.2223  YZZ=             -0.4570
  YYZ=             -0.5696  XYZ=             -0.1602
 Hexadecapole moment (field-independent basis, Debye-Ang**3):
 XXXX=           -872.8602 YYYY=           -357.2550 ZZZZ=            -60.4550 XXXY=            -89.7984
 XXXZ=            -14.3205 YYYX=            -15.7429 YYYZ=             -2.2956 ZZZX=             -0.9366
 ZZZY=              1.1128 XXYY=           -234.2754 XXZZ=           -194.9404 YYZZ=            -78.9091
 XXYZ=             -1.3888 YYXZ=             -1.4621 ZZXY=             -2.1549
 N-N= 4.095111641739D+02 E-N=-1.802532766396D+03  KE= 4.201207081739D+02
 No NMR shielding tensors so no spin-rotation constants.
 Leave Link  601 at Sun Nov  6 23:01:34 2022, MaxMem= 16106127360 cpu:               4.3 elap:               0.2
 (Enter /opt/ap/G16/B01/g16/l9999.exe)
 1\1\GINC-N03\SP\RwB97XD\6-311++G(d,p)\C7H6O2\ROOT\06-Nov-2022\0\\#P wB
 97XD/6-311++G(d,p) scf=maxcycle=512\\_conf020.gjf nmol_natom 1_15\\0,1
 \C\C,1,1.39016191\C,1,1.39194539,2,119.895942\C,2,1.38669027,1,119.880
 75721,3,0.70825972,0\H,2,0.98744251,1,119.71654057,3,-179.90726164,0\C
 ,1,1.48428757,2,119.93615286,4,-179.87772406,0\C,3,1.40101108,1,119.72
 36454,2,-0.26266839,0\H,3,0.9902154,1,119.1886159,2,178.85397616,0\C,4
 ,1.37899003,2,120.45785903,1,-0.48041454,0\H,4,0.9834739,2,120.3044270
 6,1,179.36166981,0\O,6,1.27459751,1,118.00615353,2,10.,0\O,6,1.2636257
 2,1,118.77715367,2,-170.,0\H,7,0.98977053,3,119.37861578,1,-178.935457
 41,0\H,9,0.99498061,4,119.46722635,2,-178.58826714,0\H,11,0.89680392,6
 ,118.15823763,1,176.92714093,0\\Version=ES64L-G16RevB.01\State=1-A\HF=
 -420.746977\RMSD=8.975e-09\Dipole=0.0358008,0.1842768,1.0304055\Quadru
 pole=8.1372598,-3.7929091,-4.3443506,-0.7849746,-1.1631198,-1.009174\P
 G=C01 [X(C7H6O2)]\\@


 THE POLHOLDE ROLLS WITHOUT SLIPPING ON THE HERPOLHOLDE LYING IN
 THE INVARIABLE PLANE.
 H.GOLDSTEIN, "CLASSICAL MECHANICS", PG 161
 Job cpu time:       0 days  0 hours  7 minutes 21.1 seconds.
 Elapsed time:       0 days  0 hours  0 minutes 13.9 seconds.
 File lengths (MBytes):  RWF=     35 Int=      0 D2E=      0 Chk=      4 Scr=      1
 Normal termination of Gaussian 16 at Sun Nov  6 23:01:34 2022.
