 Entering Gaussian System, Link 0=g16
 Input=_conf021.gjf
 Output=_conf021.log
 Initial command:
 /opt/ap/G16/B01/g16/l1.exe "/tmp2/scr/Gau-21630.inp" -scrdir="/tmp2/scr/"
 Entering Link 1 = /opt/ap/G16/B01/g16/l1.exe PID=     21631.
  
 Copyright (c) 1988-2017, Gaussian, Inc.  All Rights Reserved.
  
 This is part of the Gaussian(R) 16 program.  It is based on
 the Gaussian(R) 09 system (copyright 2009, Gaussian, Inc.),
 the Gaussian(R) 03 system (copyright 2003, Gaussian, Inc.),
 the Gaussian(R) 98 system (copyright 1998, Gaussian, Inc.),
 the Gaussian(R) 94 system (copyright 1995, Gaussian, Inc.),
 the Gaussian 92(TM) system (copyright 1992, Gaussian, Inc.),
 the Gaussian 90(TM) system (copyright 1990, Gaussian, Inc.),
 the Gaussian 88(TM) system (copyright 1988, Gaussian, Inc.),
 the Gaussian 86(TM) system (copyright 1986, Carnegie Mellon
 University), and the Gaussian 82(TM) system (copyright 1983,
 Carnegie Mellon University). Gaussian is a federally registered
 trademark of Gaussian, Inc.
  
 This software contains proprietary and confidential information,
 including trade secrets, belonging to Gaussian, Inc.
  
 This software is provided under written license and may be
 used, copied, transmitted, or stored only in accord with that
 written license.
  
 The following legend is applicable only to US Government
 contracts under FAR:
  
                    RESTRICTED RIGHTS LEGEND
  
 Use, reproduction and disclosure by the US Government is
 subject to restrictions as set forth in subparagraphs (a)
 and (c) of the Commercial Computer Software - Restricted
 Rights clause in FAR 52.227-19.
  
 Gaussian, Inc.
 340 Quinnipiac St., Bldg. 40, Wallingford CT 06492
  
  
 ---------------------------------------------------------------
 Warning -- This program may not be used in any manner that
 competes with the business of Gaussian, Inc. or will provide
 assistance to any competitor of Gaussian, Inc.  The licensee
 of this program is prohibited from giving any competitor of
 Gaussian, Inc. access to this program.  By using this program,
 the user acknowledges that Gaussian, Inc. is engaged in the
 business of creating and licensing software in the field of
 computational chemistry and represents and warrants to the
 licensee that it is not a competitor of Gaussian, Inc. and that
 it will not use this program in any manner prohibited above.
 ---------------------------------------------------------------
  

 Cite this work as:
 Gaussian 16, Revision B.01,
 M. J. Frisch, G. W. Trucks, H. B. Schlegel, G. E. Scuseria, 
 M. A. Robb, J. R. Cheeseman, G. Scalmani, V. Barone, 
 G. A. Petersson, H. Nakatsuji, X. Li, M. Caricato, A. V. Marenich, 
 J. Bloino, B. G. Janesko, R. Gomperts, B. Mennucci, H. P. Hratchian, 
 J. V. Ortiz, A. F. Izmaylov, J. L. Sonnenberg, D. Williams-Young, 
 F. Ding, F. Lipparini, F. Egidi, J. Goings, B. Peng, A. Petrone, 
 T. Henderson, D. Ranasinghe, V. G. Zakrzewski, J. Gao, N. Rega, 
 G. Zheng, W. Liang, M. Hada, M. Ehara, K. Toyota, R. Fukuda, 
 J. Hasegawa, M. Ishida, T. Nakajima, Y. Honda, O. Kitao, H. Nakai, 
 T. Vreven, K. Throssell, J. A. Montgomery, Jr., J. E. Peralta, 
 F. Ogliaro, M. J. Bearpark, J. J. Heyd, E. N. Brothers, K. N. Kudin, 
 V. N. Staroverov, T. A. Keith, R. Kobayashi, J. Normand, 
 K. Raghavachari, A. P. Rendell, J. C. Burant, S. S. Iyengar, 
 J. Tomasi, M. Cossi, J. M. Millam, M. Klene, C. Adamo, R. Cammi, 
 J. W. Ochterski, R. L. Martin, K. Morokuma, O. Farkas, 
 J. B. Foresman, and D. J. Fox, Gaussian, Inc., Wallingford CT, 2016.
 
 ******************************************
 Gaussian 16:  ES64L-G16RevB.01 20-Dec-2017
                 6-Nov-2022 
 ******************************************
 %nprocshared=32
 Will use up to   32 processors via shared memory.
 %mem=120GB
 %chk=_conf021.chk
 ----------------------------------------
 #P wB97XD/6-311++G(d,p) scf=maxcycle=512
 ----------------------------------------
 1/38=1,172=1/1;
 2/12=2,17=6,18=5,40=1/2;
 3/5=4,6=6,7=1111,11=2,25=1,30=1,74=-58/1,2,3;
 4//1;
 5/5=2,7=512,38=5/2;
 6/7=2,8=2,9=2,10=2,28=1/1;
 99/5=1,9=1/99;
 Leave Link    1 at Sun Nov  6 23:01:21 2022, MaxMem= 16106127360 cpu:               2.5 elap:               0.1
 (Enter /opt/ap/G16/B01/g16/l101.exe)
 ----------------------------
 _conf021.gjf nmol_natom 1_15
 ----------------------------
 Symbolic Z-matrix:
 Charge =  0 Multiplicity = 1
 C
 C                    1     1.39016 
 C                    1     1.39195  2     119.89594 
 C                    2     1.38669  1     119.88076  3     0.70826  0
 H                    2     0.98744  1     119.71654  3    -179.90726  0
 C                    1     1.48429  2     119.93615  4    -179.87772  0
 C                    3     1.40101  1     119.72365  2    -0.26267  0
 H                    3     0.99022  1     119.18862  2     178.85398  0
 C                    4     1.37899  2     120.45786  1    -0.48041  0
 H                    4     0.98347  2     120.30443  1     179.36167  0
 O                    6     1.2746   1     118.00615  2     15.      0
 O                    6     1.26363  1     118.77715  2    -165.     0
 H                    7     0.98977  3     119.37862  1    -178.93546  0
 H                    9     0.99498  4     119.46723  2    -178.58827  0
 H                    11    0.8968   6     118.15824  1     176.92714  0
 
 ITRead=  0  0  0  0  0  0  0  0  0  0  0  0  0  0  0
 MicOpt= -1 -1 -1 -1 -1 -1 -1 -1 -1 -1 -1 -1 -1 -1 -1
 NAtoms=     15 NQM=       15 NQMF=       0 NMMI=      0 NMMIF=      0
                NMic=       0 NMicF=      0.
                    Isotopes and Nuclear Properties:
 (Nuclear quadrupole moments (NQMom) in fm**2, nuclear magnetic moments (NMagM)
  in nuclear magnetons)

  Atom         1           2           3           4           5           6           7           8           9          10
 IAtWgt=          12          12          12          12           1          12          12           1          12           1
 AtmWgt=  12.0000000  12.0000000  12.0000000  12.0000000   1.0078250  12.0000000  12.0000000   1.0078250  12.0000000   1.0078250
 NucSpn=           0           0           0           0           1           0           0           1           0           1
 AtZEff=  -0.0000000  -0.0000000  -0.0000000  -0.0000000  -0.0000000  -0.0000000  -0.0000000  -0.0000000  -0.0000000  -0.0000000
 NQMom=    0.0000000   0.0000000   0.0000000   0.0000000   0.0000000   0.0000000   0.0000000   0.0000000   0.0000000   0.0000000
 NMagM=    0.0000000   0.0000000   0.0000000   0.0000000   2.7928460   0.0000000   0.0000000   2.7928460   0.0000000   2.7928460
 AtZNuc=   6.0000000   6.0000000   6.0000000   6.0000000   1.0000000   6.0000000   6.0000000   1.0000000   6.0000000   1.0000000

  Atom        11          12          13          14          15
 IAtWgt=          16          16           1           1           1
 AtmWgt=  15.9949146  15.9949146   1.0078250   1.0078250   1.0078250
 NucSpn=           0           0           1           1           1
 AtZEff=  -0.0000000  -0.0000000  -0.0000000  -0.0000000  -0.0000000
 NQMom=    0.0000000   0.0000000   0.0000000   0.0000000   0.0000000
 NMagM=    0.0000000   0.0000000   2.7928460   2.7928460   2.7928460
 AtZNuc=   8.0000000   8.0000000   1.0000000   1.0000000   1.0000000
 Leave Link  101 at Sun Nov  6 23:01:21 2022, MaxMem= 16106127360 cpu:               5.1 elap:               0.2
 (Enter /opt/ap/G16/B01/g16/l202.exe)
                          Input orientation:                          
 ---------------------------------------------------------------------
 Center     Atomic      Atomic             Coordinates (Angstroms)
 Number     Number       Type             X           Y           Z
 ---------------------------------------------------------------------
      1          6           0        0.000000    0.000000    0.000000
      2          6           0        0.000000    0.000000    1.390162
      3          6           0        1.206722    0.000000   -0.693782
      4          6           0        1.202258    0.014862    2.081006
      5          1           0       -0.857581   -0.001388    1.879646
      6          6           0       -1.286190   -0.013155   -0.740711
      7          6           0        2.415349    0.005578    0.014752
      8          1           0        1.194584   -0.017290   -1.683772
      9          6           0        2.400563    0.019708    1.398617
     10          1           0        1.209438    0.024411    3.064408
     11          8           0       -2.350217    0.267237   -0.097418
     12          8           0       -1.276532   -0.299730   -1.971374
     13          1           0        3.270315    0.021574   -0.483669
     14          1           0        3.254554    0.009066    1.909081
     15          1           0       -3.122815    0.301032   -0.551519
 ---------------------------------------------------------------------
                    Distance matrix (angstroms):
                    1          2          3          4          5
     1  C    0.000000
     2  C    1.390162   0.000000
     3  C    1.391945   2.408112   0.000000
     4  C    2.403379   1.386690   2.774832   0.000000
     5  H    2.066039   0.987443   3.299073   2.069721   0.000000
     6  C    1.484288   2.488991   2.493388   3.762345   2.655206
     7  C    2.415401   2.779513   1.401011   2.396056   3.766955
     8  H    2.064563   3.297939   0.990215   3.764924   4.112127
     9  C    2.778349   2.400659   2.409104   1.378990   3.293530
    10  H    3.294530   2.065535   3.758270   0.983474   2.382624
    11  O    2.367367   2.794249   3.616473   4.174841   2.491767
    12  O    2.367633   3.608226   2.808671   4.760793   3.885214
    13  H    3.305958   3.769173   2.074374   3.294611   4.756607
    14  H    3.773167   3.295676   3.311886   2.059493   4.112253
    15  H    3.185399   3.689542   4.342321   5.071324   3.336661
                    6          7          8          9         10
     6  C    0.000000
     7  C    3.777892   0.000000
     8  H    2.653982   2.091836   0.000000
     9  C    4.262622   1.384016   3.310118   0.000000
    10  H    4.550659   3.279477   4.748386   2.047842   0.000000
    11  O    1.274598   4.774062   3.893981   4.986913   4.767311
    12  O    1.263626   4.203320   2.503778   4.997991   5.625319
    13  H    4.563881   0.989771   2.398003   2.073517   4.103177
    14  H    5.257398   2.071897   4.141589   0.994981   2.348938
    15  H    1.872885   5.574874   4.474736   5.864288   5.649766
                   11         12         13         14         15
    11  O    0.000000
    12  O    2.232926   0.000000
    13  H    5.639141   4.794822   0.000000
    14  H    5.958703   5.973610   2.392834   0.000000
    15  H    0.896804   2.405340   6.399594   6.841829   0.000000
 Stoichiometry    C7H6O2
 Framework group  C1[X(C7H6O2)]
 Deg. of freedom    39
 Full point group                 C1      NOp   1
 Largest Abelian subgroup         C1      NOp   1
 Largest concise Abelian subgroup C1      NOp   1
                         Standard orientation:                         
 ---------------------------------------------------------------------
 Center     Atomic      Atomic             Coordinates (Angstroms)
 Number     Number       Type             X           Y           Z
 ---------------------------------------------------------------------
      1          6           0        0.220644    0.027314    0.001346
      2          6           0       -0.444801   -1.189652    0.094759
      3          6           0       -0.506741    1.210759   -0.087427
      4          6           0       -1.831085   -1.221584    0.084364
      5          1           0        0.073839   -2.027464    0.158992
      6          6           0        1.704487    0.062701    0.009619
      7          6           0       -1.907071    1.167084   -0.087597
      8          1           0       -0.022168    2.072924   -0.136286
      9          6           0       -2.556541   -0.052499   -0.008180
     10          1           0       -2.308140   -2.079762    0.140673
     11          8           0        2.330336   -1.029652   -0.189573
     12          8           0        2.285534    1.166349    0.212338
     13          1           0       -2.419159    2.010365   -0.166905
     14          1           0       -3.550668   -0.090857    0.006902
     15          1           0        3.225986   -1.003529   -0.226796
 ---------------------------------------------------------------------
 Rotational constants (GHZ):           3.9688932           1.2334259           0.9473754
 Leave Link  202 at Sun Nov  6 23:01:21 2022, MaxMem= 16106127360 cpu:               0.3 elap:               0.0
 (Enter /opt/ap/G16/B01/g16/l301.exe)
 Standard basis: 6-311++G(d,p) (5D, 7F)
 Ernie: Thresh=  0.10000D-02 Tol=  0.10000D-05 Strict=F.
 There are   249 symmetry adapted cartesian basis functions of A   symmetry.
 There are   240 symmetry adapted basis functions of A   symmetry.
   240 basis functions,   378 primitive gaussians,   249 cartesian basis functions
    32 alpha electrons       32 beta electrons
       nuclear repulsion energy       409.4614247709 Hartrees.
 IExCor= 4639 DFT=T Ex+Corr=wB97XD ExCW=0 ScaHFX=  1.000000
 ScaDFX=  1.000000  1.000000  1.000000  1.000000 ScalE2=  1.000000  1.000000
 IRadAn=      5 IRanWt=     -1 IRanGd=            0 ICorTp=0 IEmpDi=121
 HFx  wShort=  0.000000 wLong=  0.200000 cFull=  0.222036 cShort=  0.000000 cLong=  0.777964
 DFx  wShort=  0.000000 wLong=  0.200000 cFull=  0.000000 cShort=  0.000000 cLong=  1.000000
 NAtoms=   15 NActive=   15 NUniq=   15 SFac= 1.00D+00 NAtFMM=   60 NAOKFM=F Big=F
 Integral buffers will be    131072 words long.
 Raffenetti 2 integral format.
 Two-electron integral symmetry is turned on.
 R6Disp:  Grimme-D2 Dispersion energy=       -0.0063414075 Hartrees.
 Nuclear repulsion after empirical dispersion term =      409.4550833634 Hartrees.
 Leave Link  301 at Sun Nov  6 23:01:21 2022, MaxMem= 16106127360 cpu:               1.2 elap:               0.0
 (Enter /opt/ap/G16/B01/g16/l302.exe)
 NPDir=0 NMtPBC=     1 NCelOv=     1 NCel=       1 NClECP=     1 NCelD=      1
         NCelK=      1 NCelE2=     1 NClLst=     1 CellRange=     0.0.
 One-electron integrals computed using PRISM.
 One-electron integral symmetry used in STVInt
 NBasis=   240 RedAO= T EigKep=  1.22D-06  NBF=   240
 NBsUse=   240 1.00D-06 EigRej= -1.00D+00 NBFU=   240
 Precomputing XC quadrature grid using
 IXCGrd= 4 IRadAn=           5 IRanWt=          -1 IRanGd=           0 AccXCQ= 0.00D+00.
 Generated NRdTot=       0 NPtTot=           0 NUsed=           0 NTot=          32
 NSgBfM=   249   249   249   249   249 MxSgAt=    15 MxSgA2=    15.
 Leave Link  302 at Sun Nov  6 23:01:21 2022, MaxMem= 16106127360 cpu:               5.4 elap:               0.2
 (Enter /opt/ap/G16/B01/g16/l303.exe)
 DipDrv:  MaxL=1.
 Leave Link  303 at Sun Nov  6 23:01:21 2022, MaxMem= 16106127360 cpu:               1.2 elap:               0.0
 (Enter /opt/ap/G16/B01/g16/l401.exe)
 ExpMin= 3.60D-02 ExpMax= 8.59D+03 ExpMxC= 1.30D+03 IAcc=3 IRadAn=         5 AccDes= 0.00D+00
 Harris functional with IExCor= 4639 and IRadAn=       5 diagonalized for initial guess.
 HarFok:  IExCor= 4639 AccDes= 0.00D+00 IRadAn=         5 IDoV= 1 UseB2=F ITyADJ=14
 ICtDFT=  3500011 ScaDFX=  1.000000  1.000000  1.000000  1.000000
 FoFCou: FMM=F IPFlag=           0 FMFlag=      100000 FMFlg1=           0
         NFxFlg=           0 DoJE=T BraDBF=F KetDBF=T FulRan=T
         wScrn=  0.000000 ICntrl=       500 IOpCl=  0 I1Cent=   200000004 NGrid=           0
         NMat0=    1 NMatS0=      1 NMatT0=    0 NMatD0=    1 NMtDS0=    0 NMtDT0=    0
 Petite list used in FoFCou.
 Harris En= -403.254493783768    
 JPrj=0 DoOrth=F DoCkMO=F.
 Leave Link  401 at Sun Nov  6 23:01:22 2022, MaxMem= 16106127360 cpu:              11.7 elap:               0.4
 (Enter /opt/ap/G16/B01/g16/l502.exe)
 Integral symmetry usage will be decided dynamically.
 Closed shell SCF:
 Using DIIS extrapolation, IDIIS=  1040.
 NGot= 16106127360 LenX= 16105992971 LenY= 16105930529
 Requested convergence on RMS density matrix=1.00D-08 within 512 cycles.
 Requested convergence on MAX density matrix=1.00D-06.
 Requested convergence on             energy=1.00D-06.
 No special actions if energy rises.
 Fock matrices will be formed incrementally for  20 cycles.

 Cycle   1  Pass 1  IDiag  1:
 FoFJK:  IHMeth= 1 ICntrl=       0 DoSepK=T KAlg= 0 I1Cent=           0 FoldK=F
 IRaf=         1 NMat=       1 IRICut=       1 DoRegI=T DoRafI=F ISym2E= 0 IDoP0=0 IntGTp=1.
 FoFCou: FMM=F IPFlag=           0 FMFlag=      100000 FMFlg1=           0
         NFxFlg=           0 DoJE=T BraDBF=F KetDBF=F FulRan=T
         wScrn=  0.000000 ICntrl=       500 IOpCl=  0 I1Cent=           0 NGrid=           0
         NMat0=    1 NMatS0=      1 NMatT0=    0 NMatD0=    1 NMtDS0=    0 NMtDT0=    0
 Symmetry not used in FoFCou.
 E= -420.632083127241    
 DIIS: error= 7.48D-02 at cycle   1 NSaved=   1.
 NSaved= 1 IEnMin= 1 EnMin= -420.632083127241     IErMin= 1 ErrMin= 7.48D-02
 ErrMax= 7.48D-02  0.00D+00 EMaxC= 1.00D-01 BMatC= 8.61D-01 BMatP= 8.61D-01
 IDIUse=3 WtCom= 2.52D-01 WtEn= 7.48D-01
 Coeff-Com:  0.100D+01
 Coeff-En:   0.100D+01
 Coeff:      0.100D+01
 Gap=     0.426 Goal=   None    Shift=    0.000
 GapD=    0.426 DampG=2.000 DampE=0.500 DampFc=1.0000 IDamp=-1.
 RMSDP=2.82D-02 MaxDP=1.73D+00              OVMax= 1.08D-01

 Cycle   2  Pass 1  IDiag  1:
 RMSU=  1.46D-02    CP:  6.89D-01
 E= -420.702889370959     Delta-E=       -0.070806243717 Rises=F Damp=F
 DIIS: error= 1.41D-02 at cycle   2 NSaved=   2.
 NSaved= 2 IEnMin= 2 EnMin= -420.702889370959     IErMin= 2 ErrMin= 1.41D-02
 ErrMax= 1.41D-02  0.00D+00 EMaxC= 1.00D-01 BMatC= 5.74D-02 BMatP= 8.61D-01
 IDIUse=3 WtCom= 8.59D-01 WtEn= 1.41D-01
 Coeff-Com:  0.136D+00 0.864D+00
 Coeff-En:   0.991D-01 0.901D+00
 Coeff:      0.130D+00 0.870D+00
 Gap=     0.426 Goal=   None    Shift=    0.000
 RMSDP=8.44D-03 MaxDP=4.59D-01 DE=-7.08D-02 OVMax= 7.99D-02

 Cycle   3  Pass 1  IDiag  1:
 RMSU=  6.61D-03    CP:  6.38D-01  7.63D-01
 E= -420.719083212295     Delta-E=       -0.016193841337 Rises=F Damp=F
 DIIS: error= 1.51D-02 at cycle   3 NSaved=   3.
 NSaved= 3 IEnMin= 3 EnMin= -420.719083212295     IErMin= 2 ErrMin= 1.41D-02
 ErrMax= 1.51D-02  0.00D+00 EMaxC= 1.00D-01 BMatC= 3.60D-02 BMatP= 5.74D-02
 IDIUse=3 WtCom= 8.49D-01 WtEn= 1.51D-01
 Coeff-Com:  0.277D-01 0.447D+00 0.525D+00
 Coeff-En:   0.000D+00 0.384D+00 0.616D+00
 Coeff:      0.235D-01 0.438D+00 0.539D+00
 Gap=     0.357 Goal=   None    Shift=    0.000
 RMSDP=3.63D-03 MaxDP=2.29D-01 DE=-1.62D-02 OVMax= 5.41D-02

 Cycle   4  Pass 1  IDiag  1:
 RMSU=  2.46D-03    CP:  6.24D-01  8.63D-01  7.11D-01
 E= -420.745263705973     Delta-E=       -0.026180493678 Rises=F Damp=F
 DIIS: error= 2.78D-03 at cycle   4 NSaved=   4.
 NSaved= 4 IEnMin= 4 EnMin= -420.745263705973     IErMin= 4 ErrMin= 2.78D-03
 ErrMax= 2.78D-03  0.00D+00 EMaxC= 1.00D-01 BMatC= 1.98D-03 BMatP= 3.60D-02
 IDIUse=3 WtCom= 9.72D-01 WtEn= 2.78D-02
 Coeff-Com:  0.105D-01 0.222D+00 0.304D+00 0.464D+00
 Coeff-En:   0.000D+00 0.000D+00 0.000D+00 0.100D+01
 Coeff:      0.102D-01 0.215D+00 0.296D+00 0.479D+00
 Gap=     0.354 Goal=   None    Shift=    0.000
 RMSDP=8.36D-04 MaxDP=5.64D-02 DE=-2.62D-02 OVMax= 1.25D-02

 Cycle   5  Pass 1  IDiag  1:
 RMSU=  7.35D-04    CP:  6.22D-01  8.55D-01  7.25D-01  8.65D-01
 E= -420.746599469997     Delta-E=       -0.001335764024 Rises=F Damp=F
 DIIS: error= 5.23D-04 at cycle   5 NSaved=   5.
 NSaved= 5 IEnMin= 5 EnMin= -420.746599469997     IErMin= 5 ErrMin= 5.23D-04
 ErrMax= 5.23D-04  0.00D+00 EMaxC= 1.00D-01 BMatC= 5.16D-05 BMatP= 1.98D-03
 IDIUse=3 WtCom= 9.95D-01 WtEn= 5.23D-03
 Coeff-Com:  0.323D-03 0.155D-01 0.306D-01 0.151D+00 0.802D+00
 Coeff-En:   0.000D+00 0.000D+00 0.000D+00 0.000D+00 0.100D+01
 Coeff:      0.321D-03 0.154D-01 0.304D-01 0.151D+00 0.803D+00
 Gap=     0.350 Goal=   None    Shift=    0.000
 RMSDP=2.82D-04 MaxDP=1.70D-02 DE=-1.34D-03 OVMax= 2.54D-03

 Cycle   6  Pass 1  IDiag  1:
 RMSU=  1.54D-04    CP:  6.20D-01  8.60D-01  7.45D-01  9.09D-01  1.04D+00
 E= -420.746639524024     Delta-E=       -0.000040054027 Rises=F Damp=F
 DIIS: error= 2.13D-04 at cycle   6 NSaved=   6.
 NSaved= 6 IEnMin= 6 EnMin= -420.746639524024     IErMin= 6 ErrMin= 2.13D-04
 ErrMax= 2.13D-04  0.00D+00 EMaxC= 1.00D-01 BMatC= 7.36D-06 BMatP= 5.16D-05
 IDIUse=3 WtCom= 9.98D-01 WtEn= 2.13D-03
 Coeff-Com: -0.961D-03-0.165D-01-0.178D-01 0.137D-01 0.347D+00 0.674D+00
 Coeff-En:   0.000D+00 0.000D+00 0.000D+00 0.000D+00 0.000D+00 0.100D+01
 Coeff:     -0.959D-03-0.165D-01-0.178D-01 0.137D-01 0.346D+00 0.675D+00
 Gap=     0.351 Goal=   None    Shift=    0.000
 RMSDP=1.65D-04 MaxDP=1.68D-02 DE=-4.01D-05 OVMax= 8.01D-04

 Cycle   7  Pass 1  IDiag  1:
 RMSU=  4.79D-05    CP:  6.18D-01  8.58D-01  7.52D-01  9.29D-01  1.11D+00
                    CP:  1.10D+00
 E= -420.746646707847     Delta-E=       -0.000007183823 Rises=F Damp=F
 DIIS: error= 6.70D-05 at cycle   7 NSaved=   7.
 NSaved= 7 IEnMin= 7 EnMin= -420.746646707847     IErMin= 7 ErrMin= 6.70D-05
 ErrMax= 6.70D-05  0.00D+00 EMaxC= 1.00D-01 BMatC= 3.13D-07 BMatP= 7.36D-06
 IDIUse=1 WtCom= 1.00D+00 WtEn= 0.00D+00
 Coeff-Com: -0.234D-03-0.543D-02-0.678D-02-0.135D-01-0.107D-02 0.134D+00
 Coeff-Com:  0.893D+00
 Coeff:     -0.234D-03-0.543D-02-0.678D-02-0.135D-01-0.107D-02 0.134D+00
 Coeff:      0.893D+00
 Gap=     0.351 Goal=   None    Shift=    0.000
 RMSDP=4.89D-05 MaxDP=3.61D-03 DE=-7.18D-06 OVMax= 3.20D-04

 Cycle   8  Pass 1  IDiag  1:
 RMSU=  1.21D-05    CP:  6.18D-01  8.58D-01  7.54D-01  9.36D-01  1.16D+00
                    CP:  1.15D+00  1.09D+00
 E= -420.746647292938     Delta-E=       -0.000000585090 Rises=F Damp=F
 DIIS: error= 1.36D-05 at cycle   8 NSaved=   8.
 NSaved= 8 IEnMin= 8 EnMin= -420.746647292938     IErMin= 8 ErrMin= 1.36D-05
 ErrMax= 1.36D-05  0.00D+00 EMaxC= 1.00D-01 BMatC= 4.18D-08 BMatP= 3.13D-07
 IDIUse=1 WtCom= 1.00D+00 WtEn= 0.00D+00
 Coeff-Com:  0.322D-04 0.290D-03 0.189D-03-0.572D-02-0.382D-01-0.385D-01
 Coeff-Com:  0.240D+00 0.842D+00
 Coeff:      0.322D-04 0.290D-03 0.189D-03-0.572D-02-0.382D-01-0.385D-01
 Coeff:      0.240D+00 0.842D+00
 Gap=     0.351 Goal=   None    Shift=    0.000
 RMSDP=1.32D-05 MaxDP=9.88D-04 DE=-5.85D-07 OVMax= 1.27D-04

 Cycle   9  Pass 1  IDiag  1:
 RMSU=  4.35D-06    CP:  6.18D-01  8.57D-01  7.54D-01  9.35D-01  1.17D+00
                    CP:  1.17D+00  1.21D+00  1.05D+00
 E= -420.746647368018     Delta-E=       -0.000000075080 Rises=F Damp=F
 DIIS: error= 1.05D-05 at cycle   9 NSaved=   9.
 NSaved= 9 IEnMin= 9 EnMin= -420.746647368018     IErMin= 9 ErrMin= 1.05D-05
 ErrMax= 1.05D-05  0.00D+00 EMaxC= 1.00D-01 BMatC= 4.83D-09 BMatP= 4.18D-08
 IDIUse=1 WtCom= 1.00D+00 WtEn= 0.00D+00
 Coeff-Com:  0.374D-04 0.717D-03 0.877D-03-0.249D-03-0.103D-01-0.270D-01
 Coeff-Com: -0.294D-01 0.248D+00 0.817D+00
 Coeff:      0.374D-04 0.717D-03 0.877D-03-0.249D-03-0.103D-01-0.270D-01
 Coeff:     -0.294D-01 0.248D+00 0.817D+00
 Gap=     0.351 Goal=   None    Shift=    0.000
 RMSDP=4.61D-06 MaxDP=3.38D-04 DE=-7.51D-08 OVMax= 4.23D-05

 Cycle  10  Pass 1  IDiag  1:
 RMSU=  1.79D-06    CP:  6.18D-01  8.57D-01  7.54D-01  9.34D-01  1.17D+00
                    CP:  1.18D+00  1.24D+00  1.12D+00  1.39D+00
 E= -420.746647376863     Delta-E=       -0.000000008845 Rises=F Damp=F
 DIIS: error= 1.45D-06 at cycle  10 NSaved=  10.
 NSaved=10 IEnMin=10 EnMin= -420.746647376863     IErMin=10 ErrMin= 1.45D-06
 ErrMax= 1.45D-06  0.00D+00 EMaxC= 1.00D-01 BMatC= 6.04D-10 BMatP= 4.83D-09
 IDIUse=1 WtCom= 1.00D+00 WtEn= 0.00D+00
 Coeff-Com:  0.640D-05 0.143D-03 0.201D-03 0.441D-03 0.142D-02-0.374D-02
 Coeff-Com: -0.310D-01-0.280D-01 0.226D+00 0.835D+00
 Coeff:      0.640D-05 0.143D-03 0.201D-03 0.441D-03 0.142D-02-0.374D-02
 Coeff:     -0.310D-01-0.280D-01 0.226D+00 0.835D+00
 Gap=     0.351 Goal=   None    Shift=    0.000
 RMSDP=1.58D-06 MaxDP=9.22D-05 DE=-8.84D-09 OVMax= 1.45D-05

 Cycle  11  Pass 1  IDiag  1:
 RMSU=  5.01D-07    CP:  6.18D-01  8.57D-01  7.54D-01  9.34D-01  1.17D+00
                    CP:  1.18D+00  1.25D+00  1.16D+00  1.52D+00  1.10D+00
 E= -420.746647377899     Delta-E=       -0.000000001037 Rises=F Damp=F
 DIIS: error= 1.06D-06 at cycle  11 NSaved=  11.
 NSaved=11 IEnMin=11 EnMin= -420.746647377899     IErMin=11 ErrMin= 1.06D-06
 ErrMax= 1.06D-06  0.00D+00 EMaxC= 1.00D-01 BMatC= 1.12D-10 BMatP= 6.04D-10
 IDIUse=1 WtCom= 1.00D+00 WtEn= 0.00D+00
 Coeff-Com: -0.169D-05-0.149D-04-0.279D-05 0.246D-03 0.198D-02 0.153D-02
 Coeff-Com: -0.836D-02-0.476D-01-0.172D-01 0.336D+00 0.733D+00
 Coeff:     -0.169D-05-0.149D-04-0.279D-05 0.246D-03 0.198D-02 0.153D-02
 Coeff:     -0.836D-02-0.476D-01-0.172D-01 0.336D+00 0.733D+00
 Gap=     0.351 Goal=   None    Shift=    0.000
 RMSDP=6.48D-07 MaxDP=3.76D-05 DE=-1.04D-09 OVMax= 6.19D-06

 Cycle  12  Pass 1  IDiag  1:
 RMSU=  1.87D-07    CP:  6.18D-01  8.57D-01  7.54D-01  9.34D-01  1.17D+00
                    CP:  1.18D+00  1.25D+00  1.16D+00  1.58D+00  1.20D+00
                    CP:  1.11D+00
 E= -420.746647378068     Delta-E=       -0.000000000168 Rises=F Damp=F
 DIIS: error= 1.76D-07 at cycle  12 NSaved=  12.
 NSaved=12 IEnMin=12 EnMin= -420.746647378068     IErMin=12 ErrMin= 1.76D-07
 ErrMax= 1.76D-07  0.00D+00 EMaxC= 1.00D-01 BMatC= 9.00D-12 BMatP= 1.12D-10
 IDIUse=1 WtCom= 1.00D+00 WtEn= 0.00D+00
 Coeff-Com: -0.104D-05-0.173D-04-0.186D-04 0.302D-04 0.415D-03 0.637D-03
 Coeff-Com:  0.115D-02-0.107D-01-0.247D-01 0.126D-01 0.188D+00 0.833D+00
 Coeff:     -0.104D-05-0.173D-04-0.186D-04 0.302D-04 0.415D-03 0.637D-03
 Coeff:      0.115D-02-0.107D-01-0.247D-01 0.126D-01 0.188D+00 0.833D+00
 Gap=     0.351 Goal=   None    Shift=    0.000
 RMSDP=1.76D-07 MaxDP=1.04D-05 DE=-1.68D-10 OVMax= 2.46D-06

 Cycle  13  Pass 1  IDiag  1:
 RMSU=  8.03D-08    CP:  6.18D-01  8.57D-01  7.54D-01  9.34D-01  1.17D+00
                    CP:  1.17D+00  1.25D+00  1.16D+00  1.59D+00  1.20D+00
                    CP:  1.24D+00  1.14D+00
 E= -420.746647378099     Delta-E=       -0.000000000031 Rises=F Damp=F
 DIIS: error= 9.63D-08 at cycle  13 NSaved=  13.
 NSaved=13 IEnMin=13 EnMin= -420.746647378099     IErMin=13 ErrMin= 9.63D-08
 ErrMax= 9.63D-08  0.00D+00 EMaxC= 1.00D-01 BMatC= 1.82D-12 BMatP= 9.00D-12
 IDIUse=1 WtCom= 1.00D+00 WtEn= 0.00D+00
 Coeff-Com:  0.348D-07-0.395D-05-0.746D-05-0.412D-04-0.272D-03-0.131D-03
 Coeff-Com:  0.215D-02 0.585D-02-0.330D-02-0.633D-01-0.104D+00 0.248D+00
 Coeff-Com:  0.915D+00
 Coeff:      0.348D-07-0.395D-05-0.746D-05-0.412D-04-0.272D-03-0.131D-03
 Coeff:      0.215D-02 0.585D-02-0.330D-02-0.633D-01-0.104D+00 0.248D+00
 Coeff:      0.915D+00
 Gap=     0.351 Goal=   None    Shift=    0.000
 RMSDP=6.67D-08 MaxDP=5.07D-06 DE=-3.10D-11 OVMax= 1.70D-06

 Cycle  14  Pass 1  IDiag  1:
 RMSU=  2.66D-08    CP:  6.18D-01  8.57D-01  7.54D-01  9.34D-01  1.17D+00
                    CP:  1.17D+00  1.25D+00  1.16D+00  1.59D+00  1.20D+00
                    CP:  1.30D+00  1.28D+00  1.25D+00
 E= -420.746647378098     Delta-E=        0.000000000001 Rises=F Damp=F
 DIIS: error= 4.01D-08 at cycle  14 NSaved=  14.
 NSaved=14 IEnMin=13 EnMin= -420.746647378099     IErMin=14 ErrMin= 4.01D-08
 ErrMax= 4.01D-08  0.00D+00 EMaxC= 1.00D-01 BMatC= 1.54D-13 BMatP= 1.82D-12
 IDIUse=1 WtCom= 1.00D+00 WtEn= 0.00D+00
 Coeff-Com:  0.699D-07 0.140D-05 0.162D-05-0.314D-05-0.605D-04-0.432D-04
 Coeff-Com: -0.694D-04 0.125D-02 0.247D-02-0.417D-02-0.229D-01-0.786D-01
 Coeff-Com:  0.155D-01 0.109D+01
 Coeff:      0.699D-07 0.140D-05 0.162D-05-0.314D-05-0.605D-04-0.432D-04
 Coeff:     -0.694D-04 0.125D-02 0.247D-02-0.417D-02-0.229D-01-0.786D-01
 Coeff:      0.155D-01 0.109D+01
 Gap=     0.351 Goal=   None    Shift=    0.000
 RMSDP=3.44D-08 MaxDP=2.35D-06 DE= 9.09D-13 OVMax= 7.27D-07

 Cycle  15  Pass 1  IDiag  1:
 RMSU=  8.67D-09    CP:  6.18D-01  8.57D-01  7.54D-01  9.34D-01  1.17D+00
                    CP:  1.17D+00  1.25D+00  1.16D+00  1.59D+00  1.19D+00
                    CP:  1.31D+00  1.32D+00  1.44D+00  1.39D+00
 E= -420.746647378097     Delta-E=        0.000000000001 Rises=F Damp=F
 DIIS: error= 2.44D-08 at cycle  15 NSaved=  15.
 NSaved=15 IEnMin=13 EnMin= -420.746647378099     IErMin=15 ErrMin= 2.44D-08
 ErrMax= 2.44D-08  0.00D+00 EMaxC= 1.00D-01 BMatC= 3.81D-14 BMatP= 1.54D-13
 IDIUse=1 WtCom= 1.00D+00 WtEn= 0.00D+00
 Coeff-Com:  0.178D-07 0.107D-05 0.172D-05 0.510D-05 0.167D-04 0.979D-05
 Coeff-Com: -0.336D-03-0.364D-03 0.146D-02 0.782D-02 0.731D-02-0.583D-01
 Coeff-Com: -0.128D+00 0.388D+00 0.782D+00
 Coeff:      0.178D-07 0.107D-05 0.172D-05 0.510D-05 0.167D-04 0.979D-05
 Coeff:     -0.336D-03-0.364D-03 0.146D-02 0.782D-02 0.731D-02-0.583D-01
 Coeff:     -0.128D+00 0.388D+00 0.782D+00
 Gap=     0.351 Goal=   None    Shift=    0.000
 RMSDP=9.84D-09 MaxDP=4.65D-07 DE= 6.82D-13 OVMax= 2.09D-07

 SCF Done:  E(RwB97XD) =  -420.746647378     A.U. after   15 cycles
            NFock= 15  Conv=0.98D-08     -V/T= 2.0015
 KE= 4.201203587317D+02 PE=-1.802415768107D+03 EE= 5.520936786342D+02
 Leave Link  502 at Sun Nov  6 23:01:35 2022, MaxMem= 16106127360 cpu:             407.6 elap:              12.8
 (Enter /opt/ap/G16/B01/g16/l601.exe)
 Copying SCF densities to generalized density rwf, IOpCl= 0 IROHF=0.

 **********************************************************************

            Population analysis using the SCF Density.

 **********************************************************************

 Orbital symmetries:
       Occupied  (A) (A) (A) (A) (A) (A) (A) (A) (A) (A) (A) (A)
                 (A) (A) (A) (A) (A) (A) (A) (A) (A) (A) (A) (A)
                 (A) (A) (A) (A) (A) (A) (A) (A)
       Virtual   (A) (A) (A) (A) (A) (A) (A) (A) (A) (A) (A) (A)
                 (A) (A) (A) (A) (A) (A) (A) (A) (A) (A) (A) (A)
                 (A) (A) (A) (A) (A) (A) (A) (A) (A) (A) (A) (A)
                 (A) (A) (A) (A) (A) (A) (A) (A) (A) (A) (A) (A)
                 (A) (A) (A) (A) (A) (A) (A) (A) (A) (A) (A) (A)
                 (A) (A) (A) (A) (A) (A) (A) (A) (A) (A) (A) (A)
                 (A) (A) (A) (A) (A) (A) (A) (A) (A) (A) (A) (A)
                 (A) (A) (A) (A) (A) (A) (A) (A) (A) (A) (A) (A)
                 (A) (A) (A) (A) (A) (A) (A) (A) (A) (A) (A) (A)
                 (A) (A) (A) (A) (A) (A) (A) (A) (A) (A) (A) (A)
                 (A) (A) (A) (A) (A) (A) (A) (A) (A) (A) (A) (A)
                 (A) (A) (A) (A) (A) (A) (A) (A) (A) (A) (A) (A)
                 (A) (A) (A) (A) (A) (A) (A) (A) (A) (A) (A) (A)
                 (A) (A) (A) (A) (A) (A) (A) (A) (A) (A) (A) (A)
                 (A) (A) (A) (A) (A) (A) (A) (A) (A) (A) (A) (A)
                 (A) (A) (A) (A) (A) (A) (A) (A) (A) (A) (A) (A)
                 (A) (A) (A) (A) (A) (A) (A) (A) (A) (A) (A) (A)
                 (A) (A) (A) (A)
 The electronic state is 1-A.
 Alpha  occ. eigenvalues --  -19.31665 -19.22803 -10.43181 -10.31071 -10.29321
 Alpha  occ. eigenvalues --  -10.29316 -10.29149 -10.28987 -10.28729  -1.25803
 Alpha  occ. eigenvalues --   -1.10622  -0.98072  -0.88922  -0.87014  -0.80566
 Alpha  occ. eigenvalues --   -0.73384  -0.71925  -0.65816  -0.60668  -0.58609
 Alpha  occ. eigenvalues --   -0.56849  -0.56069  -0.54529  -0.53454  -0.48913
 Alpha  occ. eigenvalues --   -0.47409  -0.45546  -0.44761  -0.40992  -0.36309
 Alpha  occ. eigenvalues --   -0.34579  -0.34219
 Alpha virt. eigenvalues --    0.00846   0.03754   0.04300   0.04544   0.05280
 Alpha virt. eigenvalues --    0.06470   0.07765   0.08694   0.10180   0.11196
 Alpha virt. eigenvalues --    0.11971   0.12893   0.13232   0.14355   0.14806
 Alpha virt. eigenvalues --    0.16007   0.16313   0.16956   0.17419   0.18024
 Alpha virt. eigenvalues --    0.18205   0.19491   0.20024   0.20186   0.20427
 Alpha virt. eigenvalues --    0.21158   0.21520   0.21586   0.23210   0.23729
 Alpha virt. eigenvalues --    0.25544   0.26180   0.27050   0.27984   0.28434
 Alpha virt. eigenvalues --    0.29370   0.29729   0.30681   0.30936   0.31893
 Alpha virt. eigenvalues --    0.32321   0.33650   0.34591   0.35341   0.35802
 Alpha virt. eigenvalues --    0.36540   0.36946   0.38180   0.39879   0.40570
 Alpha virt. eigenvalues --    0.41501   0.41981   0.43266   0.44339   0.45534
 Alpha virt. eigenvalues --    0.46354   0.48089   0.53442   0.54594   0.57460
 Alpha virt. eigenvalues --    0.60329   0.60864   0.61934   0.63925   0.64273
 Alpha virt. eigenvalues --    0.64417   0.65149   0.67002   0.67222   0.69124
 Alpha virt. eigenvalues --    0.71045   0.72736   0.73454   0.74253   0.75568
 Alpha virt. eigenvalues --    0.76671   0.81323   0.82625   0.83704   0.85887
 Alpha virt. eigenvalues --    0.88293   0.90976   0.92651   0.93137   0.94149
 Alpha virt. eigenvalues --    0.95106   0.96993   0.97114   0.99553   1.00493
 Alpha virt. eigenvalues --    1.02376   1.04174   1.07863   1.09177   1.12436
 Alpha virt. eigenvalues --    1.13927   1.15998   1.16305   1.17166   1.18640
 Alpha virt. eigenvalues --    1.21679   1.23083   1.24548   1.28521   1.30881
 Alpha virt. eigenvalues --    1.34861   1.37273   1.44010   1.44988   1.56046
 Alpha virt. eigenvalues --    1.56823   1.59804   1.60362   1.60686   1.62091
 Alpha virt. eigenvalues --    1.62323   1.65398   1.67030   1.67502   1.74604
 Alpha virt. eigenvalues --    1.75101   1.78468   1.79956   1.82609   1.87582
 Alpha virt. eigenvalues --    1.88401   1.91341   1.91674   1.96121   1.98538
 Alpha virt. eigenvalues --    2.00205   2.02647   2.04079   2.04949   2.05537
 Alpha virt. eigenvalues --    2.06253   2.10522   2.14883   2.17611   2.19260
 Alpha virt. eigenvalues --    2.23280   2.27898   2.31511   2.43034   2.46129
 Alpha virt. eigenvalues --    2.52044   2.54287   2.54587   2.57972   2.64015
 Alpha virt. eigenvalues --    2.71535   2.72278   2.76241   2.77033   2.81316
 Alpha virt. eigenvalues --    2.81695   2.83188   2.88299   2.89814   2.90398
 Alpha virt. eigenvalues --    2.90816   2.91771   2.95856   2.99952   3.00538
 Alpha virt. eigenvalues --    3.02146   3.06469   3.06924   3.15547   3.18458
 Alpha virt. eigenvalues --    3.19108   3.23289   3.27660   3.30379   3.33949
 Alpha virt. eigenvalues --    3.42407   3.43760   3.48334   3.49451   3.63891
 Alpha virt. eigenvalues --    3.66241   3.69637   3.74256   3.84107   3.87756
 Alpha virt. eigenvalues --    4.07458   4.16127   4.28348   4.30739   4.36552
 Alpha virt. eigenvalues --    4.40863   4.45509   4.95079   5.06016   5.15940
 Alpha virt. eigenvalues --    5.29815   5.49067   5.81686   6.09023  23.84229
 Alpha virt. eigenvalues --   23.94292  24.14203  24.21374  24.28346  24.30403
 Alpha virt. eigenvalues --   24.41804  50.03640  50.15637
          Condensed to atoms (all electrons):
               1          2          3          4          5          6
     1  C   11.877886  -2.778291  -2.259543   2.218609  -0.051062  -2.999796
     2  C   -2.778291  15.966913  -0.958043  -5.215156   0.682081  -1.014341
     3  C   -2.259543  -0.958043  11.429813  -0.660754   0.013467  -0.345820
     4  C    2.218609  -5.215156  -0.660754   9.249737  -0.198353  -0.147595
     5  H   -0.051062   0.682081   0.013467  -0.198353   0.466706  -0.084140
     6  C   -2.999796  -1.014341  -0.345820  -0.147595  -0.084140   9.299416
     7  C    0.794066  -1.575381  -1.778382   1.410155  -0.032975   0.377240
     8  H    0.024603   0.095791   0.442555  -0.041384   0.001660  -0.095129
     9  C   -1.409078   2.042977   0.958632  -1.222173   0.043963  -0.106302
    10  H    0.046578  -0.170953   0.003047   0.483241  -0.012512   0.013571
    11  O   -0.262765  -0.206615  -0.063529   0.100292  -0.034486   0.454989
    12  O   -0.134930  -0.081501  -0.042002   0.056314  -0.004579   0.518933
    13  H    0.025499  -0.043878  -0.061208   0.023492  -0.000703   0.022222
    14  H    0.003577   0.061489  -0.000627  -0.080542   0.001662  -0.013888
    15  H   -0.084548  -0.009137   0.019161  -0.024573   0.002792   0.081963
               7          8          9         10         11         12
     1  C    0.794066   0.024603  -1.409078   0.046578  -0.262765  -0.134930
     2  C   -1.575381   0.095791   2.042977  -0.170953  -0.206615  -0.081501
     3  C   -1.778382   0.442555   0.958632   0.003047  -0.063529  -0.042002
     4  C    1.410155  -0.041384  -1.222173   0.483241   0.100292   0.056314
     5  H   -0.032975   0.001660   0.043963  -0.012512  -0.034486  -0.004579
     6  C    0.377240  -0.095129  -0.106302   0.013571   0.454989   0.518933
     7  C    7.119636  -0.093394  -0.744172   0.012941   0.057797   0.092638
     8  H   -0.093394   0.436311   0.033370  -0.000220  -0.004183  -0.007662
     9  C   -0.744172   0.033370   6.560231  -0.049996  -0.038167  -0.022022
    10  H    0.012941  -0.000220  -0.049996   0.474754   0.002901   0.000620
    11  O    0.057797  -0.004183  -0.038167   0.002901   8.008215  -0.121768
    12  O    0.092638  -0.007662  -0.022022   0.000620  -0.121768   8.092119
    13  H    0.420884  -0.009842  -0.046580  -0.000367   0.000780   0.001311
    14  H   -0.056910   0.001187   0.440756  -0.008829  -0.000542  -0.000345
    15  H    0.006754  -0.000441  -0.001042  -0.000232   0.275466  -0.013536
              13         14         15
     1  C    0.025499   0.003577  -0.084548
     2  C   -0.043878   0.061489  -0.009137
     3  C   -0.061208  -0.000627   0.019161
     4  C    0.023492  -0.080542  -0.024573
     5  H   -0.000703   0.001662   0.002792
     6  C    0.022222  -0.013888   0.081963
     7  C    0.420884  -0.056910   0.006754
     8  H   -0.009842   0.001187  -0.000441
     9  C   -0.046580   0.440756  -0.001042
    10  H   -0.000367  -0.008829  -0.000232
    11  O    0.000780  -0.000542   0.275466
    12  O    0.001311  -0.000345  -0.013536
    13  H    0.464215  -0.007577   0.000089
    14  H   -0.007577   0.472147  -0.000100
    15  H    0.000089  -0.000100   0.406869
 Mulliken charges:
               1
     1  C    0.989192
     2  C   -0.795954
     3  C   -0.696767
     4  C    0.048691
     5  H    0.206479
     6  C    0.038675
     7  C   -0.010897
     8  H    0.216778
     9  C   -0.440394
    10  H    0.205457
    11  O   -0.168385
    12  O   -0.333589
    13  H    0.211660
    14  H    0.188541
    15  H    0.340515
 Sum of Mulliken charges =  -0.00000
 Mulliken charges with hydrogens summed into heavy atoms:
               1
     1  C    0.989192
     2  C   -0.589475
     3  C   -0.479989
     4  C    0.254148
     6  C    0.038675
     7  C    0.200763
     9  C   -0.251854
    11  O    0.172129
    12  O   -0.333589
 Electronic spatial extent (au):  <R**2>=           1158.2320
 Charge=              0.0000 electrons
 Dipole moment (field-independent basis, Debye):
    X=             -1.3261    Y=             -2.2512    Z=             -0.4951  Tot=              2.6593
 Quadrupole moment (field-independent basis, Debye-Ang):
   XX=            -43.3681   YY=            -49.8913   ZZ=            -54.2290
   XY=             -7.8744   XZ=             -1.6861   YZ=             -1.3801
 Traceless Quadrupole moment (field-independent basis, Debye-Ang):
   XX=              5.7947   YY=             -0.7285   ZZ=             -5.0662
   XY=             -7.8744   XZ=             -1.6861   YZ=             -1.3801
 Octapole moment (field-independent basis, Debye-Ang**2):
  XXX=             21.4764  YYY=             -3.9432  ZZZ=             -0.2946  XYY=             -7.2399
  XXY=            -25.8906  XXZ=             -5.6784  XZZ=             11.0878  YZZ=             -0.5289
  YYZ=             -0.7965  XYZ=             -0.4340
 Hexadecapole moment (field-independent basis, Debye-Ang**3):
 XXXX=           -872.8441 YYYY=           -355.0149 ZZZZ=            -62.9752 XXXY=            -88.6947
 XXXZ=            -19.8537 YYYX=            -15.3121 YYYZ=             -3.5364 ZZZX=             -1.3879
 ZZZY=              1.6076 XXYY=           -233.8098 XXZZ=           -195.2976 YYZZ=            -78.8250
 XXYZ=             -2.5871 YYXZ=             -2.1140 ZZXY=             -2.3573
 N-N= 4.094550833634D+02 E-N=-1.802415768432D+03  KE= 4.201203587317D+02
 No NMR shielding tensors so no spin-rotation constants.
 Leave Link  601 at Sun Nov  6 23:01:35 2022, MaxMem= 16106127360 cpu:               3.2 elap:               0.1
 (Enter /opt/ap/G16/B01/g16/l9999.exe)
 1\1\GINC-N04\SP\RwB97XD\6-311++G(d,p)\C7H6O2\ROOT\06-Nov-2022\0\\#P wB
 97XD/6-311++G(d,p) scf=maxcycle=512\\_conf021.gjf nmol_natom 1_15\\0,1
 \C\C,1,1.39016191\C,1,1.39194539,2,119.895942\C,2,1.38669027,1,119.880
 75721,3,0.70825972,0\H,2,0.98744251,1,119.71654057,3,-179.90726164,0\C
 ,1,1.48428757,2,119.93615286,4,-179.87772406,0\C,3,1.40101108,1,119.72
 36454,2,-0.26266839,0\H,3,0.9902154,1,119.1886159,2,178.85397616,0\C,4
 ,1.37899003,2,120.45785903,1,-0.48041454,0\H,4,0.9834739,2,120.3044270
 6,1,179.36166981,0\O,6,1.27459751,1,118.00615353,2,15.,0\O,6,1.2636257
 2,1,118.77715367,2,-165.,0\H,7,0.98977053,3,119.37861578,1,-178.935457
 41,0\H,9,0.99498061,4,119.46722635,2,-178.58826714,0\H,11,0.89680392,6
 ,118.15823763,1,176.92714093,0\\Version=ES64L-G16RevB.01\State=1-A\HF=
 -420.7466474\RMSD=9.839e-09\Dipole=0.0420429,0.2620668,1.0120153\Quadr
 upole=8.0582022,-3.9080895,-4.1501127,-1.1027536,-1.1272934,-1.4889511
 \PG=C01 [X(C7H6O2)]\\@


 THE ATTENTION SPAN OF A COMPUTER IS AS LONG
 AS ITS EXTENSION CORD.
 Job cpu time:       0 days  0 hours  7 minutes 19.9 seconds.
 Elapsed time:       0 days  0 hours  0 minutes 13.8 seconds.
 File lengths (MBytes):  RWF=     35 Int=      0 D2E=      0 Chk=      4 Scr=      1
 Normal termination of Gaussian 16 at Sun Nov  6 23:01:35 2022.
