 Entering Gaussian System, Link 0=g16
 Input=_conf005.gjf
 Output=_conf005.log
 Initial command:
 /opt/ap/G16/B01/g16/l1.exe "/tmp2/scr/Gau-20324.inp" -scrdir="/tmp2/scr/"
 Entering Link 1 = /opt/ap/G16/B01/g16/l1.exe PID=     20325.
  
 Copyright (c) 1988-2017, Gaussian, Inc.  All Rights Reserved.
  
 This is part of the Gaussian(R) 16 program.  It is based on
 the Gaussian(R) 09 system (copyright 2009, Gaussian, Inc.),
 the Gaussian(R) 03 system (copyright 2003, Gaussian, Inc.),
 the Gaussian(R) 98 system (copyright 1998, Gaussian, Inc.),
 the Gaussian(R) 94 system (copyright 1995, Gaussian, Inc.),
 the Gaussian 92(TM) system (copyright 1992, Gaussian, Inc.),
 the Gaussian 90(TM) system (copyright 1990, Gaussian, Inc.),
 the Gaussian 88(TM) system (copyright 1988, Gaussian, Inc.),
 the Gaussian 86(TM) system (copyright 1986, Carnegie Mellon
 University), and the Gaussian 82(TM) system (copyright 1983,
 Carnegie Mellon University). Gaussian is a federally registered
 trademark of Gaussian, Inc.
  
 This software contains proprietary and confidential information,
 including trade secrets, belonging to Gaussian, Inc.
  
 This software is provided under written license and may be
 used, copied, transmitted, or stored only in accord with that
 written license.
  
 The following legend is applicable only to US Government
 contracts under FAR:
  
                    RESTRICTED RIGHTS LEGEND
  
 Use, reproduction and disclosure by the US Government is
 subject to restrictions as set forth in subparagraphs (a)
 and (c) of the Commercial Computer Software - Restricted
 Rights clause in FAR 52.227-19.
  
 Gaussian, Inc.
 340 Quinnipiac St., Bldg. 40, Wallingford CT 06492
  
  
 ---------------------------------------------------------------
 Warning -- This program may not be used in any manner that
 competes with the business of Gaussian, Inc. or will provide
 assistance to any competitor of Gaussian, Inc.  The licensee
 of this program is prohibited from giving any competitor of
 Gaussian, Inc. access to this program.  By using this program,
 the user acknowledges that Gaussian, Inc. is engaged in the
 business of creating and licensing software in the field of
 computational chemistry and represents and warrants to the
 licensee that it is not a competitor of Gaussian, Inc. and that
 it will not use this program in any manner prohibited above.
 ---------------------------------------------------------------
  

 Cite this work as:
 Gaussian 16, Revision B.01,
 M. J. Frisch, G. W. Trucks, H. B. Schlegel, G. E. Scuseria, 
 M. A. Robb, J. R. Cheeseman, G. Scalmani, V. Barone, 
 G. A. Petersson, H. Nakatsuji, X. Li, M. Caricato, A. V. Marenich, 
 J. Bloino, B. G. Janesko, R. Gomperts, B. Mennucci, H. P. Hratchian, 
 J. V. Ortiz, A. F. Izmaylov, J. L. Sonnenberg, D. Williams-Young, 
 F. Ding, F. Lipparini, F. Egidi, J. Goings, B. Peng, A. Petrone, 
 T. Henderson, D. Ranasinghe, V. G. Zakrzewski, J. Gao, N. Rega, 
 G. Zheng, W. Liang, M. Hada, M. Ehara, K. Toyota, R. Fukuda, 
 J. Hasegawa, M. Ishida, T. Nakajima, Y. Honda, O. Kitao, H. Nakai, 
 T. Vreven, K. Throssell, J. A. Montgomery, Jr., J. E. Peralta, 
 F. Ogliaro, M. J. Bearpark, J. J. Heyd, E. N. Brothers, K. N. Kudin, 
 V. N. Staroverov, T. A. Keith, R. Kobayashi, J. Normand, 
 K. Raghavachari, A. P. Rendell, J. C. Burant, S. S. Iyengar, 
 J. Tomasi, M. Cossi, J. M. Millam, M. Klene, C. Adamo, R. Cammi, 
 J. W. Ochterski, R. L. Martin, K. Morokuma, O. Farkas, 
 J. B. Foresman, and D. J. Fox, Gaussian, Inc., Wallingford CT, 2016.
 
 ******************************************
 Gaussian 16:  ES64L-G16RevB.01 20-Dec-2017
                 6-Nov-2022 
 ******************************************
 %nprocshared=32
 Will use up to   32 processors via shared memory.
 %mem=120GB
 %chk=_conf005.chk
 ----------------------------------------
 #P wB97XD/6-311++G(d,p) scf=maxcycle=512
 ----------------------------------------
 1/38=1,172=1/1;
 2/12=2,17=6,18=5,40=1/2;
 3/5=4,6=6,7=1111,11=2,25=1,30=1,74=-58/1,2,3;
 4//1;
 5/5=2,7=512,38=5/2;
 6/7=2,8=2,9=2,10=2,28=1/1;
 99/5=1,9=1/99;
 Leave Link    1 at Sun Nov  6 23:00:24 2022, MaxMem= 16106127360 cpu:               1.9 elap:               0.1
 (Enter /opt/ap/G16/B01/g16/l101.exe)
 ----------------------------
 _conf005.gjf nmol_natom 1_15
 ----------------------------
 Symbolic Z-matrix:
 Charge =  0 Multiplicity = 1
 C
 C                    1     1.39016 
 C                    1     1.39195  2     119.89594 
 C                    2     1.38669  1     119.88076  3     0.70826  0
 H                    2     0.98744  1     119.71654  3    -179.90726  0
 C                    1     1.48429  2     119.93615  4    -179.87772  0
 C                    3     1.40101  1     119.72365  2    -0.26267  0
 H                    3     0.99022  1     119.18862  2     178.85398  0
 C                    4     1.37899  2     120.45786  1    -0.48041  0
 H                    4     0.98347  2     120.30443  1     179.36167  0
 O                    6     1.2746   1     118.00615  2    -65.      0
 O                    6     1.26363  1     118.77715  2     115.     0
 H                    7     0.98977  3     119.37862  1    -178.93546  0
 H                    9     0.99498  4     119.46723  2    -178.58827  0
 H                    11    0.8968   6     118.15824  1     176.92714  0
 
 ITRead=  0  0  0  0  0  0  0  0  0  0  0  0  0  0  0
 MicOpt= -1 -1 -1 -1 -1 -1 -1 -1 -1 -1 -1 -1 -1 -1 -1
 NAtoms=     15 NQM=       15 NQMF=       0 NMMI=      0 NMMIF=      0
                NMic=       0 NMicF=      0.
                    Isotopes and Nuclear Properties:
 (Nuclear quadrupole moments (NQMom) in fm**2, nuclear magnetic moments (NMagM)
  in nuclear magnetons)

  Atom         1           2           3           4           5           6           7           8           9          10
 IAtWgt=          12          12          12          12           1          12          12           1          12           1
 AtmWgt=  12.0000000  12.0000000  12.0000000  12.0000000   1.0078250  12.0000000  12.0000000   1.0078250  12.0000000   1.0078250
 NucSpn=           0           0           0           0           1           0           0           1           0           1
 AtZEff=  -0.0000000  -0.0000000  -0.0000000  -0.0000000  -0.0000000  -0.0000000  -0.0000000  -0.0000000  -0.0000000  -0.0000000
 NQMom=    0.0000000   0.0000000   0.0000000   0.0000000   0.0000000   0.0000000   0.0000000   0.0000000   0.0000000   0.0000000
 NMagM=    0.0000000   0.0000000   0.0000000   0.0000000   2.7928460   0.0000000   0.0000000   2.7928460   0.0000000   2.7928460
 AtZNuc=   6.0000000   6.0000000   6.0000000   6.0000000   1.0000000   6.0000000   6.0000000   1.0000000   6.0000000   1.0000000

  Atom        11          12          13          14          15
 IAtWgt=          16          16           1           1           1
 AtmWgt=  15.9949146  15.9949146   1.0078250   1.0078250   1.0078250
 NucSpn=           0           0           1           1           1
 AtZEff=  -0.0000000  -0.0000000  -0.0000000  -0.0000000  -0.0000000
 NQMom=    0.0000000   0.0000000   0.0000000   0.0000000   0.0000000
 NMagM=    0.0000000   0.0000000   2.7928460   2.7928460   2.7928460
 AtZNuc=   8.0000000   8.0000000   1.0000000   1.0000000   1.0000000
 Leave Link  101 at Sun Nov  6 23:00:24 2022, MaxMem= 16106127360 cpu:               5.1 elap:               0.2
 (Enter /opt/ap/G16/B01/g16/l202.exe)
                          Input orientation:                          
 ---------------------------------------------------------------------
 Center     Atomic      Atomic             Coordinates (Angstroms)
 Number     Number       Type             X           Y           Z
 ---------------------------------------------------------------------
      1          6           0        0.000000    0.000000    0.000000
      2          6           0        0.000000    0.000000    1.390162
      3          6           0        1.206722    0.000000   -0.693782
      4          6           0        1.202258    0.014862    2.081006
      5          1           0       -0.857581   -0.001388    1.879646
      6          6           0       -1.286190   -0.013155   -0.740711
      7          6           0        2.415349    0.005578    0.014752
      8          1           0        1.194584   -0.017290   -1.683772
      9          6           0        2.400563    0.019708    1.398617
     10          1           0        1.209438    0.024411    3.064408
     11          8           0       -2.031711   -1.040736   -0.627251
     12          8           0       -1.590008    0.987586   -1.449909
     13          1           0        3.270315    0.021574   -0.483669
     14          1           0        3.254554    0.009066    1.909081
     15          1           0       -2.827891   -1.033607   -1.039929
 ---------------------------------------------------------------------
                    Distance matrix (angstroms):
                    1          2          3          4          5
     1  C    0.000000
     2  C    1.390162   0.000000
     3  C    1.391945   2.408112   0.000000
     4  C    2.403379   1.386690   2.774832   0.000000
     5  H    2.066039   0.987443   3.299073   2.069721   0.000000
     6  C    1.484288   2.488991   2.493388   3.762345   2.655206
     7  C    2.415401   2.779513   1.401011   2.396056   3.766955
     8  H    2.064563   3.297939   0.990215   3.764924   4.112127
     9  C    2.778349   2.400659   2.409104   1.378990   3.293530
    10  H    3.294530   2.065535   3.758270   0.983474   2.382624
    11  O    2.367367   3.046463   3.402206   4.348275   2.956917
    12  O    2.367633   3.401390   3.060842   4.605464   3.549712
    13  H    3.305958   3.769173   2.074374   3.294611   4.756607
    14  H    3.773167   3.295676   3.311886   2.059493   4.112253
    15  H    3.185399   3.869193   4.179266   5.204001   3.670357
                    6          7          8          9         10
     6  C    0.000000
     7  C    3.777892   0.000000
     8  H    2.653982   2.091836   0.000000
     9  C    4.262622   1.384016   3.310118   0.000000
    10  H    4.550659   3.279477   4.748386   2.047842   0.000000
    11  O    1.274598   4.613381   3.545795   4.987357   5.026722
    12  O    1.263626   4.376352   2.969583   4.997554   5.398487
    13  H    4.563881   0.989771   2.398003   2.073517   4.103177
    14  H    5.257398   2.071897   4.141589   0.994981   2.348938
    15  H    1.872885   5.448287   4.198541   5.864530   5.853633
                   11         12         13         14         15
    11  O    0.000000
    12  O    2.232926   0.000000
    13  H    5.409307   5.048716   0.000000
    14  H    5.956480   5.975792   2.392834   0.000000
    15  H    0.896804   2.405340   6.213771   6.839588   0.000000
 Stoichiometry    C7H6O2
 Framework group  C1[X(C7H6O2)]
 Deg. of freedom    39
 Full point group                 C1      NOp   1
 Largest Abelian subgroup         C1      NOp   1
 Largest concise Abelian subgroup C1      NOp   1
                         Standard orientation:                         
 ---------------------------------------------------------------------
 Center     Atomic      Atomic             Coordinates (Angstroms)
 Number     Number       Type             X           Y           Z
 ---------------------------------------------------------------------
      1          6           0       -0.220750    0.018678    0.021802
      2          6           0        0.460981   -1.172186    0.244590
      3          6           0        0.490271    1.188275   -0.231190
      4          6           0        1.847489   -1.187910    0.228589
      5          1           0       -0.046103   -2.000603    0.422452
      6          6           0       -1.704791    0.037443    0.041349
      7          6           0        1.890778    1.158603   -0.254204
      8          1           0       -0.006211    2.027141   -0.405364
      9          6           0        2.556883   -0.031130   -0.016839
     10          1           0        2.336234   -2.025021    0.394703
     11          8           0       -2.323555   -0.617842   -0.859945
     12          8           0       -2.292969    0.697517    0.944176
     13          1           0        2.391555    1.996309   -0.418873
     14          1           0        3.550918   -0.063391   -0.045818
     15          1           0       -3.219360   -0.642481   -0.825532
 ---------------------------------------------------------------------
 Rotational constants (GHZ):           3.9684577           1.1537821           1.0004778
 Leave Link  202 at Sun Nov  6 23:00:24 2022, MaxMem= 16106127360 cpu:               0.2 elap:               0.0
 (Enter /opt/ap/G16/B01/g16/l301.exe)
 Standard basis: 6-311++G(d,p) (5D, 7F)
 Ernie: Thresh=  0.10000D-02 Tol=  0.10000D-05 Strict=F.
 There are   249 symmetry adapted cartesian basis functions of A   symmetry.
 There are   240 symmetry adapted basis functions of A   symmetry.
   240 basis functions,   378 primitive gaussians,   249 cartesian basis functions
    32 alpha electrons       32 beta electrons
       nuclear repulsion energy       408.3468132926 Hartrees.
 IExCor= 4639 DFT=T Ex+Corr=wB97XD ExCW=0 ScaHFX=  1.000000
 ScaDFX=  1.000000  1.000000  1.000000  1.000000 ScalE2=  1.000000  1.000000
 IRadAn=      5 IRanWt=     -1 IRanGd=            0 ICorTp=0 IEmpDi=121
 HFx  wShort=  0.000000 wLong=  0.200000 cFull=  0.222036 cShort=  0.000000 cLong=  0.777964
 DFx  wShort=  0.000000 wLong=  0.200000 cFull=  0.000000 cShort=  0.000000 cLong=  1.000000
 NAtoms=   15 NActive=   15 NUniq=   15 SFac= 1.00D+00 NAtFMM=   60 NAOKFM=F Big=F
 Integral buffers will be    131072 words long.
 Raffenetti 2 integral format.
 Two-electron integral symmetry is turned on.
 R6Disp:  Grimme-D2 Dispersion energy=       -0.0064795414 Hartrees.
 Nuclear repulsion after empirical dispersion term =      408.3403337512 Hartrees.
 Leave Link  301 at Sun Nov  6 23:00:24 2022, MaxMem= 16106127360 cpu:               1.3 elap:               0.0
 (Enter /opt/ap/G16/B01/g16/l302.exe)
 NPDir=0 NMtPBC=     1 NCelOv=     1 NCel=       1 NClECP=     1 NCelD=      1
         NCelK=      1 NCelE2=     1 NClLst=     1 CellRange=     0.0.
 One-electron integrals computed using PRISM.
 One-electron integral symmetry used in STVInt
 NBasis=   240 RedAO= T EigKep=  1.18D-06  NBF=   240
 NBsUse=   240 1.00D-06 EigRej= -1.00D+00 NBFU=   240
 Precomputing XC quadrature grid using
 IXCGrd= 4 IRadAn=           5 IRanWt=          -1 IRanGd=           0 AccXCQ= 0.00D+00.
 Generated NRdTot=       0 NPtTot=           0 NUsed=           0 NTot=          32
 NSgBfM=   249   249   249   249   249 MxSgAt=    15 MxSgA2=    15.
 Leave Link  302 at Sun Nov  6 23:00:24 2022, MaxMem= 16106127360 cpu:               5.3 elap:               0.2
 (Enter /opt/ap/G16/B01/g16/l303.exe)
 DipDrv:  MaxL=1.
 Leave Link  303 at Sun Nov  6 23:00:25 2022, MaxMem= 16106127360 cpu:               1.5 elap:               0.1
 (Enter /opt/ap/G16/B01/g16/l401.exe)
 ExpMin= 3.60D-02 ExpMax= 8.59D+03 ExpMxC= 1.30D+03 IAcc=3 IRadAn=         5 AccDes= 0.00D+00
 Harris functional with IExCor= 4639 and IRadAn=       5 diagonalized for initial guess.
 HarFok:  IExCor= 4639 AccDes= 0.00D+00 IRadAn=         5 IDoV= 1 UseB2=F ITyADJ=14
 ICtDFT=  3500011 ScaDFX=  1.000000  1.000000  1.000000  1.000000
 FoFCou: FMM=F IPFlag=           0 FMFlag=      100000 FMFlg1=           0
         NFxFlg=           0 DoJE=T BraDBF=F KetDBF=T FulRan=T
         wScrn=  0.000000 ICntrl=       500 IOpCl=  0 I1Cent=   200000004 NGrid=           0
         NMat0=    1 NMatS0=      1 NMatT0=    0 NMatD0=    1 NMtDS0=    0 NMtDT0=    0
 Petite list used in FoFCou.
 Harris En= -403.250276062711    
 JPrj=0 DoOrth=F DoCkMO=F.
 Leave Link  401 at Sun Nov  6 23:00:25 2022, MaxMem= 16106127360 cpu:              11.9 elap:               0.4
 (Enter /opt/ap/G16/B01/g16/l502.exe)
 Integral symmetry usage will be decided dynamically.
 Closed shell SCF:
 Using DIIS extrapolation, IDIIS=  1040.
 NGot= 16106127360 LenX= 16105992971 LenY= 16105930529
 Requested convergence on RMS density matrix=1.00D-08 within 512 cycles.
 Requested convergence on MAX density matrix=1.00D-06.
 Requested convergence on             energy=1.00D-06.
 No special actions if energy rises.
 Fock matrices will be formed incrementally for  20 cycles.

 Cycle   1  Pass 1  IDiag  1:
 FoFJK:  IHMeth= 1 ICntrl=       0 DoSepK=T KAlg= 0 I1Cent=           0 FoldK=F
 IRaf=         1 NMat=       1 IRICut=       1 DoRegI=T DoRafI=F ISym2E= 0 IDoP0=0 IntGTp=1.
 FoFCou: FMM=F IPFlag=           0 FMFlag=      100000 FMFlg1=           0
         NFxFlg=           0 DoJE=T BraDBF=F KetDBF=F FulRan=T
         wScrn=  0.000000 ICntrl=       500 IOpCl=  0 I1Cent=           0 NGrid=           0
         NMat0=    1 NMatS0=      1 NMatT0=    0 NMatD0=    1 NMtDS0=    0 NMtDT0=    0
 Symmetry not used in FoFCou.
 E= -420.622136331834    
 DIIS: error= 7.34D-02 at cycle   1 NSaved=   1.
 NSaved= 1 IEnMin= 1 EnMin= -420.622136331834     IErMin= 1 ErrMin= 7.34D-02
 ErrMax= 7.34D-02  0.00D+00 EMaxC= 1.00D-01 BMatC= 8.63D-01 BMatP= 8.63D-01
 IDIUse=3 WtCom= 2.66D-01 WtEn= 7.34D-01
 Coeff-Com:  0.100D+01
 Coeff-En:   0.100D+01
 Coeff:      0.100D+01
 Gap=     0.474 Goal=   None    Shift=    0.000
 GapD=    0.474 DampG=2.000 DampE=0.500 DampFc=1.0000 IDamp=-1.
 RMSDP=1.73D-02 MaxDP=1.37D+00              OVMax= 9.58D-02

 Cycle   2  Pass 1  IDiag  1:
 RMSU=  1.17D-02    CP:  7.52D-01
 E= -420.695033015097     Delta-E=       -0.072896683264 Rises=F Damp=F
 DIIS: error= 1.36D-02 at cycle   2 NSaved=   2.
 NSaved= 2 IEnMin= 2 EnMin= -420.695033015097     IErMin= 2 ErrMin= 1.36D-02
 ErrMax= 1.36D-02  0.00D+00 EMaxC= 1.00D-01 BMatC= 5.70D-02 BMatP= 8.63D-01
 IDIUse=3 WtCom= 8.64D-01 WtEn= 1.36D-01
 Coeff-Com:  0.135D+00 0.865D+00
 Coeff-En:   0.899D-01 0.910D+00
 Coeff:      0.129D+00 0.871D+00
 Gap=     0.464 Goal=   None    Shift=    0.000
 RMSDP=5.95D-03 MaxDP=3.23D-01 DE=-7.29D-02 OVMax= 7.64D-02

 Cycle   3  Pass 1  IDiag  1:
 RMSU=  5.06D-03    CP:  7.84D-01  7.73D-01
 E= -420.710952377065     Delta-E=       -0.015919361968 Rises=F Damp=F
 DIIS: error= 1.39D-02 at cycle   3 NSaved=   3.
 NSaved= 3 IEnMin= 3 EnMin= -420.710952377065     IErMin= 2 ErrMin= 1.36D-02
 ErrMax= 1.39D-02  0.00D+00 EMaxC= 1.00D-01 BMatC= 3.60D-02 BMatP= 5.70D-02
 IDIUse=3 WtCom= 8.61D-01 WtEn= 1.39D-01
 Coeff-Com:  0.287D-01 0.448D+00 0.523D+00
 Coeff-En:   0.000D+00 0.386D+00 0.614D+00
 Coeff:      0.247D-01 0.440D+00 0.536D+00
 Gap=     0.373 Goal=   None    Shift=    0.000
 RMSDP=3.66D-03 MaxDP=3.52D-01 DE=-1.59D-02 OVMax= 5.25D-02

 Cycle   4  Pass 1  IDiag  1:
 RMSU=  1.88D-03    CP:  7.49D-01  9.06D-01  5.98D-01
 E= -420.737109557552     Delta-E=       -0.026157180487 Rises=F Damp=F
 DIIS: error= 2.75D-03 at cycle   4 NSaved=   4.
 NSaved= 4 IEnMin= 4 EnMin= -420.737109557552     IErMin= 4 ErrMin= 2.75D-03
 ErrMax= 2.75D-03  0.00D+00 EMaxC= 1.00D-01 BMatC= 2.20D-03 BMatP= 3.60D-02
 IDIUse=3 WtCom= 9.73D-01 WtEn= 2.75D-02
 Coeff-Com:  0.105D-01 0.221D+00 0.305D+00 0.464D+00
 Coeff-En:   0.000D+00 0.000D+00 0.000D+00 0.100D+01
 Coeff:      0.102D-01 0.214D+00 0.297D+00 0.479D+00
 Gap=     0.369 Goal=   None    Shift=    0.000
 RMSDP=6.56D-04 MaxDP=3.45D-02 DE=-2.62D-02 OVMax= 1.38D-02

 Cycle   5  Pass 1  IDiag  1:
 RMSU=  5.03D-04    CP:  7.48D-01  8.99D-01  6.64D-01  8.71D-01
 E= -420.738599842000     Delta-E=       -0.001490284448 Rises=F Damp=F
 DIIS: error= 4.68D-04 at cycle   5 NSaved=   5.
 NSaved= 5 IEnMin= 5 EnMin= -420.738599842000     IErMin= 5 ErrMin= 4.68D-04
 ErrMax= 4.68D-04  0.00D+00 EMaxC= 1.00D-01 BMatC= 5.24D-05 BMatP= 2.20D-03
 IDIUse=3 WtCom= 9.95D-01 WtEn= 4.68D-03
 Coeff-Com:  0.582D-03 0.206D-01 0.374D-01 0.153D+00 0.788D+00
 Coeff-En:   0.000D+00 0.000D+00 0.000D+00 0.000D+00 0.100D+01
 Coeff:      0.579D-03 0.205D-01 0.373D-01 0.152D+00 0.789D+00
 Gap=     0.366 Goal=   None    Shift=    0.000
 RMSDP=2.38D-04 MaxDP=1.33D-02 DE=-1.49D-03 OVMax= 3.08D-03

 Cycle   6  Pass 1  IDiag  1:
 RMSU=  1.37D-04    CP:  7.50D-01  9.07D-01  6.84D-01  9.15D-01  1.04D+00
 E= -420.738640688034     Delta-E=       -0.000040846034 Rises=F Damp=F
 DIIS: error= 1.71D-04 at cycle   6 NSaved=   6.
 NSaved= 6 IEnMin= 6 EnMin= -420.738640688034     IErMin= 6 ErrMin= 1.71D-04
 ErrMax= 1.71D-04  0.00D+00 EMaxC= 1.00D-01 BMatC= 7.41D-06 BMatP= 5.24D-05
 IDIUse=3 WtCom= 9.98D-01 WtEn= 1.71D-03
 Coeff-Com: -0.959D-03-0.163D-01-0.177D-01 0.108D-01 0.339D+00 0.685D+00
 Coeff-En:   0.000D+00 0.000D+00 0.000D+00 0.000D+00 0.000D+00 0.100D+01
 Coeff:     -0.957D-03-0.163D-01-0.177D-01 0.108D-01 0.339D+00 0.685D+00
 Gap=     0.366 Goal=   None    Shift=    0.000
 RMSDP=9.12D-05 MaxDP=4.38D-03 DE=-4.08D-05 OVMax= 1.09D-03

 Cycle   7  Pass 1  IDiag  1:
 RMSU=  4.22D-05    CP:  7.50D-01  9.08D-01  6.92D-01  9.42D-01  1.11D+00
                    CP:  1.12D+00
 E= -420.738648399179     Delta-E=       -0.000007711145 Rises=F Damp=F
 DIIS: error= 4.85D-05 at cycle   7 NSaved=   7.
 NSaved= 7 IEnMin= 7 EnMin= -420.738648399179     IErMin= 7 ErrMin= 4.85D-05
 ErrMax= 4.85D-05  0.00D+00 EMaxC= 1.00D-01 BMatC= 3.25D-07 BMatP= 7.41D-06
 IDIUse=1 WtCom= 1.00D+00 WtEn= 0.00D+00
 Coeff-Com: -0.228D-03-0.534D-02-0.660D-02-0.139D-01-0.672D-02 0.121D+00
 Coeff-Com:  0.912D+00
 Coeff:     -0.228D-03-0.534D-02-0.660D-02-0.139D-01-0.672D-02 0.121D+00
 Coeff:      0.912D+00
 Gap=     0.366 Goal=   None    Shift=    0.000
 RMSDP=4.42D-05 MaxDP=2.62D-03 DE=-7.71D-06 OVMax= 4.01D-04

 Cycle   8  Pass 1  IDiag  1:
 RMSU=  1.62D-05    CP:  7.50D-01  9.09D-01  6.95D-01  9.50D-01  1.16D+00
                    CP:  1.22D+00  1.22D+00
 E= -420.738649102751     Delta-E=       -0.000000703572 Rises=F Damp=F
 DIIS: error= 1.55D-05 at cycle   8 NSaved=   8.
 NSaved= 8 IEnMin= 8 EnMin= -420.738649102751     IErMin= 8 ErrMin= 1.55D-05
 ErrMax= 1.55D-05  0.00D+00 EMaxC= 1.00D-01 BMatC= 5.26D-08 BMatP= 3.25D-07
 IDIUse=1 WtCom= 1.00D+00 WtEn= 0.00D+00
 Coeff-Com:  0.396D-04 0.388D-03 0.401D-03-0.563D-02-0.419D-01-0.476D-01
 Coeff-Com:  0.260D+00 0.834D+00
 Coeff:      0.396D-04 0.388D-03 0.401D-03-0.563D-02-0.419D-01-0.476D-01
 Coeff:      0.260D+00 0.834D+00
 Gap=     0.366 Goal=   None    Shift=    0.000
 RMSDP=1.11D-05 MaxDP=7.54D-04 DE=-7.04D-07 OVMax= 1.89D-04

 Cycle   9  Pass 1  IDiag  1:
 RMSU=  4.61D-06    CP:  7.50D-01  9.08D-01  6.96D-01  9.51D-01  1.17D+00
                    CP:  1.24D+00  1.34D+00  1.15D+00
 E= -420.738649206285     Delta-E=       -0.000000103534 Rises=F Damp=F
 DIIS: error= 9.53D-06 at cycle   9 NSaved=   9.
 NSaved= 9 IEnMin= 9 EnMin= -420.738649206285     IErMin= 9 ErrMin= 9.53D-06
 ErrMax= 9.53D-06  0.00D+00 EMaxC= 1.00D-01 BMatC= 7.70D-09 BMatP= 5.26D-08
 IDIUse=1 WtCom= 1.00D+00 WtEn= 0.00D+00
 Coeff-Com:  0.467D-04 0.904D-03 0.115D-02-0.597D-04-0.125D-01-0.331D-01
 Coeff-Com: -0.356D-01 0.277D+00 0.802D+00
 Coeff:      0.467D-04 0.904D-03 0.115D-02-0.597D-04-0.125D-01-0.331D-01
 Coeff:     -0.356D-01 0.277D+00 0.802D+00
 Gap=     0.366 Goal=   None    Shift=    0.000
 RMSDP=3.73D-06 MaxDP=2.07D-04 DE=-1.04D-07 OVMax= 5.76D-05

 Cycle  10  Pass 1  IDiag  1:
 RMSU=  2.03D-06    CP:  7.50D-01  9.08D-01  6.96D-01  9.50D-01  1.17D+00
                    CP:  1.24D+00  1.36D+00  1.21D+00  1.25D+00
 E= -420.738649220383     Delta-E=       -0.000000014097 Rises=F Damp=F
 DIIS: error= 1.48D-06 at cycle  10 NSaved=  10.
 NSaved=10 IEnMin=10 EnMin= -420.738649220383     IErMin=10 ErrMin= 1.48D-06
 ErrMax= 1.48D-06  0.00D+00 EMaxC= 1.00D-01 BMatC= 9.52D-10 BMatP= 7.70D-09
 IDIUse=1 WtCom= 1.00D+00 WtEn= 0.00D+00
 Coeff-Com:  0.954D-05 0.207D-03 0.291D-03 0.521D-03 0.106D-02-0.499D-02
 Coeff-Com: -0.392D-01-0.134D-01 0.258D+00 0.797D+00
 Coeff:      0.954D-05 0.207D-03 0.291D-03 0.521D-03 0.106D-02-0.499D-02
 Coeff:     -0.392D-01-0.134D-01 0.258D+00 0.797D+00
 Gap=     0.366 Goal=   None    Shift=    0.000
 RMSDP=1.75D-06 MaxDP=1.19D-04 DE=-1.41D-08 OVMax= 2.49D-05

 Cycle  11  Pass 1  IDiag  1:
 RMSU=  5.54D-07    CP:  7.50D-01  9.08D-01  6.96D-01  9.50D-01  1.17D+00
                    CP:  1.24D+00  1.37D+00  1.25D+00  1.39D+00  9.98D-01
 E= -420.738649221956     Delta-E=       -0.000000001573 Rises=F Damp=F
 DIIS: error= 8.00D-07 at cycle  11 NSaved=  11.
 NSaved=11 IEnMin=11 EnMin= -420.738649221956     IErMin=11 ErrMin= 8.00D-07
 ErrMax= 8.00D-07  0.00D+00 EMaxC= 1.00D-01 BMatC= 1.61D-10 BMatP= 9.52D-10
 IDIUse=1 WtCom= 1.00D+00 WtEn= 0.00D+00
 Coeff-Com: -0.208D-05-0.215D-04-0.118D-04 0.253D-03 0.225D-02 0.228D-02
 Coeff-Com: -0.101D-01-0.495D-01-0.177D-01 0.308D+00 0.765D+00
 Coeff:     -0.208D-05-0.215D-04-0.118D-04 0.253D-03 0.225D-02 0.228D-02
 Coeff:     -0.101D-01-0.495D-01-0.177D-01 0.308D+00 0.765D+00
 Gap=     0.366 Goal=   None    Shift=    0.000
 RMSDP=5.34D-07 MaxDP=2.71D-05 DE=-1.57D-09 OVMax= 6.55D-06

 Cycle  12  Pass 1  IDiag  1:
 RMSU=  2.56D-07    CP:  7.50D-01  9.08D-01  6.96D-01  9.50D-01  1.17D+00
                    CP:  1.24D+00  1.37D+00  1.26D+00  1.44D+00  1.09D+00
                    CP:  1.14D+00
 E= -420.738649222189     Delta-E=       -0.000000000234 Rises=F Damp=F
 DIIS: error= 1.72D-07 at cycle  12 NSaved=  12.
 NSaved=12 IEnMin=12 EnMin= -420.738649222189     IErMin=12 ErrMin= 1.72D-07
 ErrMax= 1.72D-07  0.00D+00 EMaxC= 1.00D-01 BMatC= 1.03D-11 BMatP= 1.61D-10
 IDIUse=1 WtCom= 1.00D+00 WtEn= 0.00D+00
 Coeff-Com: -0.124D-05-0.203D-04-0.234D-04 0.256D-04 0.480D-03 0.868D-03
 Coeff-Com:  0.119D-02-0.120D-01-0.236D-01 0.200D-01 0.182D+00 0.831D+00
 Coeff:     -0.124D-05-0.203D-04-0.234D-04 0.256D-04 0.480D-03 0.868D-03
 Coeff:      0.119D-02-0.120D-01-0.236D-01 0.200D-01 0.182D+00 0.831D+00
 Gap=     0.366 Goal=   None    Shift=    0.000
 RMSDP=1.86D-07 MaxDP=9.79D-06 DE=-2.34D-10 OVMax= 3.03D-06

 Cycle  13  Pass 1  IDiag  1:
 RMSU=  7.73D-08    CP:  7.50D-01  9.08D-01  6.96D-01  9.50D-01  1.17D+00
                    CP:  1.24D+00  1.37D+00  1.26D+00  1.45D+00  1.09D+00
                    CP:  1.21D+00  1.08D+00
 E= -420.738649222216     Delta-E=       -0.000000000027 Rises=F Damp=F
 DIIS: error= 9.79D-08 at cycle  13 NSaved=  13.
 NSaved=13 IEnMin=13 EnMin= -420.738649222216     IErMin=13 ErrMin= 9.79D-08
 ErrMax= 9.79D-08  0.00D+00 EMaxC= 1.00D-01 BMatC= 2.16D-12 BMatP= 1.03D-11
 IDIUse=1 WtCom= 1.00D+00 WtEn= 0.00D+00
 Coeff-Com:  0.801D-07-0.352D-05-0.739D-05-0.448D-04-0.314D-03-0.208D-03
 Coeff-Com:  0.243D-02 0.585D-02-0.215D-02-0.533D-01-0.120D+00 0.202D+00
 Coeff-Com:  0.966D+00
 Coeff:      0.801D-07-0.352D-05-0.739D-05-0.448D-04-0.314D-03-0.208D-03
 Coeff:      0.243D-02 0.585D-02-0.215D-02-0.533D-01-0.120D+00 0.202D+00
 Coeff:      0.966D+00
 Gap=     0.366 Goal=   None    Shift=    0.000
 RMSDP=7.42D-08 MaxDP=3.51D-06 DE=-2.66D-11 OVMax= 2.02D-06

 Cycle  14  Pass 1  IDiag  1:
 RMSU=  3.39D-08    CP:  7.50D-01  9.08D-01  6.96D-01  9.50D-01  1.17D+00
                    CP:  1.24D+00  1.37D+00  1.26D+00  1.45D+00  1.08D+00
                    CP:  1.27D+00  1.23D+00  1.26D+00
 E= -420.738649222226     Delta-E=       -0.000000000010 Rises=F Damp=F
 DIIS: error= 3.04D-08 at cycle  14 NSaved=  14.
 NSaved=14 IEnMin=14 EnMin= -420.738649222226     IErMin=14 ErrMin= 3.04D-08
 ErrMax= 3.04D-08  0.00D+00 EMaxC= 1.00D-01 BMatC= 1.66D-13 BMatP= 2.16D-12
 IDIUse=1 WtCom= 1.00D+00 WtEn= 0.00D+00
 Coeff-Com:  0.806D-07 0.208D-05 0.277D-05 0.188D-05-0.420D-04-0.513D-04
 Coeff-Com: -0.269D-03 0.868D-03 0.272D-02-0.257D-03-0.113D-01-0.988D-01
 Coeff-Com: -0.752D-01 0.118D+01
 Coeff:      0.806D-07 0.208D-05 0.277D-05 0.188D-05-0.420D-04-0.513D-04
 Coeff:     -0.269D-03 0.868D-03 0.272D-02-0.257D-03-0.113D-01-0.988D-01
 Coeff:     -0.752D-01 0.118D+01
 Gap=     0.366 Goal=   None    Shift=    0.000
 RMSDP=3.55D-08 MaxDP=2.76D-06 DE=-1.01D-11 OVMax= 8.43D-07

 Cycle  15  Pass 1  IDiag  1:
 RMSU=  7.99D-09    CP:  7.50D-01  9.08D-01  6.96D-01  9.50D-01  1.17D+00
                    CP:  1.24D+00  1.37D+00  1.26D+00  1.45D+00  1.08D+00
                    CP:  1.28D+00  1.25D+00  1.44D+00  1.49D+00
 E= -420.738649222226     Delta-E=       -0.000000000000 Rises=F Damp=F
 DIIS: error= 9.03D-09 at cycle  15 NSaved=  15.
 NSaved=15 IEnMin=15 EnMin= -420.738649222226     IErMin=15 ErrMin= 9.03D-09
 ErrMax= 9.03D-09  0.00D+00 EMaxC= 1.00D-01 BMatC= 2.36D-14 BMatP= 1.66D-13
 IDIUse=1 WtCom= 1.00D+00 WtEn= 0.00D+00
 Coeff-Com:  0.147D-07 0.965D-06 0.163D-05 0.550D-05 0.218D-04 0.115D-04
 Coeff-Com: -0.326D-03-0.362D-03 0.986D-03 0.585D-02 0.111D-01-0.416D-01
 Coeff-Com: -0.121D+00 0.310D+00 0.835D+00
 Coeff:      0.147D-07 0.965D-06 0.163D-05 0.550D-05 0.218D-04 0.115D-04
 Coeff:     -0.326D-03-0.362D-03 0.986D-03 0.585D-02 0.111D-01-0.416D-01
 Coeff:     -0.121D+00 0.310D+00 0.835D+00
 Gap=     0.366 Goal=   None    Shift=    0.000
 RMSDP=9.41D-09 MaxDP=7.96D-07 DE=-1.14D-13 OVMax= 1.71D-07

 SCF Done:  E(RwB97XD) =  -420.738649222     A.U. after   15 cycles
            NFock= 15  Conv=0.94D-08     -V/T= 2.0015
 KE= 4.201119752877D+02 PE=-1.800087785455D+03 EE= 5.508968271939D+02
 Leave Link  502 at Sun Nov  6 23:00:38 2022, MaxMem= 16106127360 cpu:             407.5 elap:              12.8
 (Enter /opt/ap/G16/B01/g16/l601.exe)
 Copying SCF densities to generalized density rwf, IOpCl= 0 IROHF=0.

 **********************************************************************

            Population analysis using the SCF Density.

 **********************************************************************

 Orbital symmetries:
       Occupied  (A) (A) (A) (A) (A) (A) (A) (A) (A) (A) (A) (A)
                 (A) (A) (A) (A) (A) (A) (A) (A) (A) (A) (A) (A)
                 (A) (A) (A) (A) (A) (A) (A) (A)
       Virtual   (A) (A) (A) (A) (A) (A) (A) (A) (A) (A) (A) (A)
                 (A) (A) (A) (A) (A) (A) (A) (A) (A) (A) (A) (A)
                 (A) (A) (A) (A) (A) (A) (A) (A) (A) (A) (A) (A)
                 (A) (A) (A) (A) (A) (A) (A) (A) (A) (A) (A) (A)
                 (A) (A) (A) (A) (A) (A) (A) (A) (A) (A) (A) (A)
                 (A) (A) (A) (A) (A) (A) (A) (A) (A) (A) (A) (A)
                 (A) (A) (A) (A) (A) (A) (A) (A) (A) (A) (A) (A)
                 (A) (A) (A) (A) (A) (A) (A) (A) (A) (A) (A) (A)
                 (A) (A) (A) (A) (A) (A) (A) (A) (A) (A) (A) (A)
                 (A) (A) (A) (A) (A) (A) (A) (A) (A) (A) (A) (A)
                 (A) (A) (A) (A) (A) (A) (A) (A) (A) (A) (A) (A)
                 (A) (A) (A) (A) (A) (A) (A) (A) (A) (A) (A) (A)
                 (A) (A) (A) (A) (A) (A) (A) (A) (A) (A) (A) (A)
                 (A) (A) (A) (A) (A) (A) (A) (A) (A) (A) (A) (A)
                 (A) (A) (A) (A) (A) (A) (A) (A) (A) (A) (A) (A)
                 (A) (A) (A) (A) (A) (A) (A) (A) (A) (A) (A) (A)
                 (A) (A) (A) (A) (A) (A) (A) (A) (A) (A) (A) (A)
                 (A) (A) (A) (A)
 The electronic state is 1-A.
 Alpha  occ. eigenvalues --  -19.31956 -19.23398 -10.43542 -10.31388 -10.29449
 Alpha  occ. eigenvalues --  -10.29315 -10.29016 -10.28793 -10.28706  -1.26057
 Alpha  occ. eigenvalues --   -1.10965  -0.98071  -0.88952  -0.87080  -0.80690
 Alpha  occ. eigenvalues --   -0.73474  -0.72322  -0.65881  -0.60752  -0.58791
 Alpha  occ. eigenvalues --   -0.57949  -0.55792  -0.53840  -0.53363  -0.49292
 Alpha  occ. eigenvalues --   -0.47435  -0.45379  -0.45199  -0.40866  -0.37464
 Alpha  occ. eigenvalues --   -0.34388  -0.33577
 Alpha virt. eigenvalues --    0.03057   0.03794   0.04239   0.04554   0.05102
 Alpha virt. eigenvalues --    0.06404   0.07209   0.07657   0.08682   0.10500
 Alpha virt. eigenvalues --    0.12215   0.12718   0.12988   0.14368   0.14923
 Alpha virt. eigenvalues --    0.16094   0.16244   0.17050   0.17282   0.17901
 Alpha virt. eigenvalues --    0.18598   0.18896   0.19331   0.19940   0.20159
 Alpha virt. eigenvalues --    0.20853   0.20998   0.21282   0.23068   0.23794
 Alpha virt. eigenvalues --    0.24778   0.25628   0.26926   0.27368   0.27775
 Alpha virt. eigenvalues --    0.29232   0.29506   0.30182   0.30880   0.31193
 Alpha virt. eigenvalues --    0.32275   0.34488   0.35038   0.35530   0.36682
 Alpha virt. eigenvalues --    0.37434   0.37930   0.39004   0.39523   0.40088
 Alpha virt. eigenvalues --    0.41726   0.42456   0.43195   0.43497   0.44693
 Alpha virt. eigenvalues --    0.45188   0.46442   0.50722   0.52696   0.56811
 Alpha virt. eigenvalues --    0.59465   0.61358   0.61835   0.62053   0.63520
 Alpha virt. eigenvalues --    0.64290   0.64746   0.65168   0.67204   0.68102
 Alpha virt. eigenvalues --    0.69187   0.70277   0.72903   0.73773   0.74664
 Alpha virt. eigenvalues --    0.75603   0.81103   0.81567   0.82290   0.83045
 Alpha virt. eigenvalues --    0.86763   0.87255   0.90625   0.92001   0.93565
 Alpha virt. eigenvalues --    0.93697   0.95561   0.95839   0.98835   0.99928
 Alpha virt. eigenvalues --    1.01416   1.01920   1.07908   1.08615   1.13293
 Alpha virt. eigenvalues --    1.13750   1.15416   1.16590   1.18699   1.19763
 Alpha virt. eigenvalues --    1.22473   1.26228   1.26923   1.29247   1.33133
 Alpha virt. eigenvalues --    1.36315   1.41056   1.43935   1.45804   1.53354
 Alpha virt. eigenvalues --    1.56723   1.59003   1.59177   1.61354   1.62149
 Alpha virt. eigenvalues --    1.65977   1.66854   1.67462   1.69988   1.73354
 Alpha virt. eigenvalues --    1.74162   1.75603   1.78615   1.84758   1.87249
 Alpha virt. eigenvalues --    1.87943   1.88796   1.91116   1.94305   1.96575
 Alpha virt. eigenvalues --    2.01284   2.02261   2.03567   2.04666   2.05109
 Alpha virt. eigenvalues --    2.06015   2.07622   2.14463   2.17557   2.17825
 Alpha virt. eigenvalues --    2.23341   2.24438   2.33271   2.43685   2.47137
 Alpha virt. eigenvalues --    2.50473   2.52700   2.53888   2.58556   2.62252
 Alpha virt. eigenvalues --    2.67767   2.71647   2.77431   2.80077   2.80936
 Alpha virt. eigenvalues --    2.82827   2.84989   2.88024   2.90648   2.90863
 Alpha virt. eigenvalues --    2.91231   2.91998   2.96675   2.98057   3.00457
 Alpha virt. eigenvalues --    3.01577   3.07052   3.10260   3.16540   3.18578
 Alpha virt. eigenvalues --    3.20097   3.22424   3.24864   3.27961   3.34306
 Alpha virt. eigenvalues --    3.38260   3.43105   3.48479   3.49182   3.64168
 Alpha virt. eigenvalues --    3.66219   3.69148   3.72413   3.86279   3.88651
 Alpha virt. eigenvalues --    4.05195   4.16016   4.27358   4.29726   4.35664
 Alpha virt. eigenvalues --    4.35733   4.40331   4.95010   5.08512   5.18866
 Alpha virt. eigenvalues --    5.27125   5.47634   5.76739   6.07096  23.84498
 Alpha virt. eigenvalues --   23.93697  24.14983  24.21281  24.28571  24.30189
 Alpha virt. eigenvalues --   24.41956  50.03635  50.12376
          Condensed to atoms (all electrons):
               1          2          3          4          5          6
     1  C   11.552854  -2.865107  -2.815641   1.422865  -0.069896  -1.650227
     2  C   -2.865107  10.762755   0.761872  -1.405611   0.421026  -0.697475
     3  C   -2.815641   0.761872  11.343880  -1.703484   0.126815  -0.684778
     4  C    1.422865  -1.405611  -1.703484   6.654189  -0.072829   0.079658
     5  H   -0.069896   0.421026   0.126815  -0.072829   0.487087  -0.055382
     6  C   -1.650227  -0.697475  -0.684778   0.079658  -0.055382   8.188858
     7  C    1.590972  -1.497220  -1.802396   1.166494  -0.019761   0.008660
     8  H   -0.059401   0.137017   0.410884  -0.028856   0.000494  -0.025188
     9  C   -1.732828   1.215020   1.445638  -0.647126   0.026549  -0.008355
    10  H    0.023180  -0.040690  -0.019344   0.391584  -0.010089   0.008667
    11  O   -0.290685  -0.111462  -0.126794   0.058578  -0.009099   0.436611
    12  O    0.098475   0.047999  -0.239237   0.031116  -0.004344   0.500722
    13  H    0.036674  -0.025999  -0.046073   0.000905   0.000369   0.002267
    14  H    0.002794  -0.000565   0.013070  -0.031780  -0.000792  -0.009056
    15  H   -0.044880   0.002612  -0.001398   0.000083  -0.001366   0.028508
               7          8          9         10         11         12
     1  C    1.590972  -0.059401  -1.732828   0.023180  -0.290685   0.098475
     2  C   -1.497220   0.137017   1.215020  -0.040690  -0.111462   0.047999
     3  C   -1.802396   0.410884   1.445638  -0.019344  -0.126794  -0.239237
     4  C    1.166494  -0.028856  -0.647126   0.391584   0.058578   0.031116
     5  H   -0.019761   0.000494   0.026549  -0.010089  -0.009099  -0.004344
     6  C    0.008660  -0.025188  -0.008355   0.008667   0.436611   0.500722
     7  C    6.928073  -0.103092  -0.713101  -0.006633   0.025102   0.000115
     8  H   -0.103092   0.468642   0.025871   0.000447  -0.009393   0.001670
     9  C   -0.713101   0.025871   6.453986  -0.016361  -0.022630  -0.011285
    10  H   -0.006633   0.000447  -0.016361   0.471368   0.000057   0.000391
    11  O    0.025102  -0.009393  -0.022630   0.000057   7.986450  -0.152582
    12  O    0.000115   0.001670  -0.011285   0.000391  -0.152582   8.007476
    13  H    0.406736  -0.010657  -0.034118  -0.001275  -0.000056  -0.000629
    14  H   -0.027009  -0.000221   0.402109  -0.004599  -0.000435  -0.000242
    15  H   -0.001979   0.000200  -0.000485   0.000096   0.299560  -0.007452
              13         14         15
     1  C    0.036674   0.002794  -0.044880
     2  C   -0.025999  -0.000565   0.002612
     3  C   -0.046073   0.013070  -0.001398
     4  C    0.000905  -0.031780   0.000083
     5  H    0.000369  -0.000792  -0.001366
     6  C    0.002267  -0.009056   0.028508
     7  C    0.406736  -0.027009  -0.001979
     8  H   -0.010657  -0.000221   0.000200
     9  C   -0.034118   0.402109  -0.000485
    10  H   -0.001275  -0.004599   0.000096
    11  O   -0.000056  -0.000435   0.299560
    12  O   -0.000629  -0.000242  -0.007452
    13  H    0.469967  -0.004565  -0.000094
    14  H   -0.004565   0.471521  -0.000065
    15  H   -0.000094  -0.000065   0.400168
 Mulliken charges:
               1
     1  C    0.800851
     2  C   -0.704173
     3  C   -0.663014
     4  C    0.084212
     5  H    0.181218
     6  C   -0.123490
     7  C    0.045039
     8  H    0.191584
     9  C   -0.382884
    10  H    0.203199
    11  O   -0.083223
    12  O   -0.272192
    13  H    0.206547
    14  H    0.189834
    15  H    0.326491
 Sum of Mulliken charges =  -0.00000
 Mulliken charges with hydrogens summed into heavy atoms:
               1
     1  C    0.800851
     2  C   -0.522956
     3  C   -0.471430
     4  C    0.287411
     6  C   -0.123490
     7  C    0.251586
     9  C   -0.193049
    11  O    0.243268
    12  O   -0.272192
 Electronic spatial extent (au):  <R**2>=           1158.1980
 Charge=             -0.0000 electrons
 Dipole moment (field-independent basis, Debye):
    X=              1.0382    Y=             -1.4231    Z=             -1.8632  Tot=              2.5641
 Quadrupole moment (field-independent basis, Debye-Ang):
   XX=            -43.1530   YY=            -47.3172   ZZ=            -57.0103
   XY=              4.8744   XZ=              6.1330   YZ=             -3.9036
 Traceless Quadrupole moment (field-independent basis, Debye-Ang):
   XX=              6.0072   YY=              1.8430   ZZ=             -7.8502
   XY=              4.8744   XZ=              6.1330   YZ=             -3.9036
 Octapole moment (field-independent basis, Debye-Ang**2):
  XXX=            -23.0202  YYY=             -1.2627  ZZZ=             -2.7230  XYY=              1.0514
  XXY=            -16.4648  XXZ=            -21.0488  XZZ=             -5.7066  YZZ=             -1.6315
  YYZ=             -1.3684  XYZ=              1.8398
 Hexadecapole moment (field-independent basis, Debye-Ang**3):
 XXXX=           -874.6148 YYYY=           -290.3313 ZZZZ=           -131.5268 XXXY=             55.0682
 XXXZ=             70.0247 YYYX=              5.9693 YYYZ=             -7.9802 ZZZX=              9.5670
 ZZZY=              2.1098 XXYY=           -214.6543 XXZZ=           -212.0206 YYZZ=            -78.1090
 XXYZ=             -8.8099 YYXZ=              4.4391 ZZXY=              4.8848
 N-N= 4.083403337512D+02 E-N=-1.800087785550D+03  KE= 4.201119752877D+02
 No NMR shielding tensors so no spin-rotation constants.
 Leave Link  601 at Sun Nov  6 23:00:38 2022, MaxMem= 16106127360 cpu:              16.6 elap:               0.6
 (Enter /opt/ap/G16/B01/g16/l9999.exe)
 1\1\GINC-N04\SP\RwB97XD\6-311++G(d,p)\C7H6O2\ROOT\06-Nov-2022\0\\#P wB
 97XD/6-311++G(d,p) scf=maxcycle=512\\_conf005.gjf nmol_natom 1_15\\0,1
 \C\C,1,1.39016191\C,1,1.39194539,2,119.895942\C,2,1.38669027,1,119.880
 75721,3,0.70825972,0\H,2,0.98744251,1,119.71654057,3,-179.90726164,0\C
 ,1,1.48428757,2,119.93615286,4,-179.87772406,0\C,3,1.40101108,1,119.72
 36454,2,-0.26266839,0\H,3,0.9902154,1,119.1886159,2,178.85397616,0\C,4
 ,1.37899003,2,120.45785903,1,-0.48041454,0\H,4,0.9834739,2,120.3044270
 6,1,179.36166981,0\O,6,1.27459751,1,118.00615353,2,-65.,0\O,6,1.263625
 72,1,118.77715367,2,115.,0\H,7,0.98977053,3,119.37861578,1,-178.935457
 41,0\H,9,0.99498061,4,119.46722635,2,-178.58826714,0\H,11,0.89680392,6
 ,118.15823763,1,176.92714093,0\\Version=ES64L-G16RevB.01\State=1-A\HF=
 -420.7386492\RMSD=9.411e-09\Dipole=0.1750558,-0.8189376,0.5624634\Quad
 rupole=6.022027,-6.4204306,0.3984036,4.1513813,-0.5389419,3.7341865\PG
 =C01 [X(C7H6O2)]\\@


 NOT WHAT WE DID SHALL BE THE TEST
 WHEN ACT AND WILL ARE DONE,
 BUT WHAT OUR LORD INFERS WE WOULD-
 HAD WE DIVINER BEEN.
           EMILY DICKINSON  POEMS NO. CLXXV
 Job cpu time:       0 days  0 hours  7 minutes 32.9 seconds.
 Elapsed time:       0 days  0 hours  0 minutes 14.3 seconds.
 File lengths (MBytes):  RWF=     35 Int=      0 D2E=      0 Chk=      4 Scr=      1
 Normal termination of Gaussian 16 at Sun Nov  6 23:00:38 2022.
