 Entering Gaussian System, Link 0=g16
 Input=_conf029.gjf
 Output=_conf029.log
 Initial command:
 /opt/ap/G16/B01/g16/l1.exe "/tmp2/scr/Gau-22267.inp" -scrdir="/tmp2/scr/"
 Entering Link 1 = /opt/ap/G16/B01/g16/l1.exe PID=     22268.
  
 Copyright (c) 1988-2017, Gaussian, Inc.  All Rights Reserved.
  
 This is part of the Gaussian(R) 16 program.  It is based on
 the Gaussian(R) 09 system (copyright 2009, Gaussian, Inc.),
 the Gaussian(R) 03 system (copyright 2003, Gaussian, Inc.),
 the Gaussian(R) 98 system (copyright 1998, Gaussian, Inc.),
 the Gaussian(R) 94 system (copyright 1995, Gaussian, Inc.),
 the Gaussian 92(TM) system (copyright 1992, Gaussian, Inc.),
 the Gaussian 90(TM) system (copyright 1990, Gaussian, Inc.),
 the Gaussian 88(TM) system (copyright 1988, Gaussian, Inc.),
 the Gaussian 86(TM) system (copyright 1986, Carnegie Mellon
 University), and the Gaussian 82(TM) system (copyright 1983,
 Carnegie Mellon University). Gaussian is a federally registered
 trademark of Gaussian, Inc.
  
 This software contains proprietary and confidential information,
 including trade secrets, belonging to Gaussian, Inc.
  
 This software is provided under written license and may be
 used, copied, transmitted, or stored only in accord with that
 written license.
  
 The following legend is applicable only to US Government
 contracts under FAR:
  
                    RESTRICTED RIGHTS LEGEND
  
 Use, reproduction and disclosure by the US Government is
 subject to restrictions as set forth in subparagraphs (a)
 and (c) of the Commercial Computer Software - Restricted
 Rights clause in FAR 52.227-19.
  
 Gaussian, Inc.
 340 Quinnipiac St., Bldg. 40, Wallingford CT 06492
  
  
 ---------------------------------------------------------------
 Warning -- This program may not be used in any manner that
 competes with the business of Gaussian, Inc. or will provide
 assistance to any competitor of Gaussian, Inc.  The licensee
 of this program is prohibited from giving any competitor of
 Gaussian, Inc. access to this program.  By using this program,
 the user acknowledges that Gaussian, Inc. is engaged in the
 business of creating and licensing software in the field of
 computational chemistry and represents and warrants to the
 licensee that it is not a competitor of Gaussian, Inc. and that
 it will not use this program in any manner prohibited above.
 ---------------------------------------------------------------
  

 Cite this work as:
 Gaussian 16, Revision B.01,
 M. J. Frisch, G. W. Trucks, H. B. Schlegel, G. E. Scuseria, 
 M. A. Robb, J. R. Cheeseman, G. Scalmani, V. Barone, 
 G. A. Petersson, H. Nakatsuji, X. Li, M. Caricato, A. V. Marenich, 
 J. Bloino, B. G. Janesko, R. Gomperts, B. Mennucci, H. P. Hratchian, 
 J. V. Ortiz, A. F. Izmaylov, J. L. Sonnenberg, D. Williams-Young, 
 F. Ding, F. Lipparini, F. Egidi, J. Goings, B. Peng, A. Petrone, 
 T. Henderson, D. Ranasinghe, V. G. Zakrzewski, J. Gao, N. Rega, 
 G. Zheng, W. Liang, M. Hada, M. Ehara, K. Toyota, R. Fukuda, 
 J. Hasegawa, M. Ishida, T. Nakajima, Y. Honda, O. Kitao, H. Nakai, 
 T. Vreven, K. Throssell, J. A. Montgomery, Jr., J. E. Peralta, 
 F. Ogliaro, M. J. Bearpark, J. J. Heyd, E. N. Brothers, K. N. Kudin, 
 V. N. Staroverov, T. A. Keith, R. Kobayashi, J. Normand, 
 K. Raghavachari, A. P. Rendell, J. C. Burant, S. S. Iyengar, 
 J. Tomasi, M. Cossi, J. M. Millam, M. Klene, C. Adamo, R. Cammi, 
 J. W. Ochterski, R. L. Martin, K. Morokuma, O. Farkas, 
 J. B. Foresman, and D. J. Fox, Gaussian, Inc., Wallingford CT, 2016.
 
 ******************************************
 Gaussian 16:  ES64L-G16RevB.01 20-Dec-2017
                 6-Nov-2022 
 ******************************************
 %nprocshared=32
 Will use up to   32 processors via shared memory.
 %mem=120GB
 %chk=_conf029.chk
 ----------------------------------------
 #P wB97XD/6-311++G(d,p) scf=maxcycle=512
 ----------------------------------------
 1/38=1,172=1/1;
 2/12=2,17=6,18=5,40=1/2;
 3/5=4,6=6,7=1111,11=2,25=1,30=1,74=-58/1,2,3;
 4//1;
 5/5=2,7=512,38=5/2;
 6/7=2,8=2,9=2,10=2,28=1/1;
 99/5=1,9=1/99;
 Leave Link    1 at Sun Nov  6 23:01:49 2022, MaxMem= 16106127360 cpu:               2.1 elap:               0.1
 (Enter /opt/ap/G16/B01/g16/l101.exe)
 ----------------------------
 _conf029.gjf nmol_natom 1_15
 ----------------------------
 Symbolic Z-matrix:
 Charge =  0 Multiplicity = 1
 C
 C                    1     1.39016 
 C                    1     1.39195  2     119.89594 
 C                    2     1.38669  1     119.88076  3     0.70826  0
 H                    2     0.98744  1     119.71654  3    -179.90726  0
 C                    1     1.48429  2     119.93615  4    -179.87772  0
 C                    3     1.40101  1     119.72365  2    -0.26267  0
 H                    3     0.99022  1     119.18862  2     178.85398  0
 C                    4     1.37899  2     120.45786  1    -0.48041  0
 H                    4     0.98347  2     120.30443  1     179.36167  0
 O                    6     1.2746   1     118.00615  2     55.      0
 O                    6     1.26363  1     118.77715  2    -125.     0
 H                    7     0.98977  3     119.37862  1    -178.93546  0
 H                    9     0.99498  4     119.46723  2    -178.58827  0
 H                    11    0.8968   6     118.15824  1     176.92714  0
 
 ITRead=  0  0  0  0  0  0  0  0  0  0  0  0  0  0  0
 MicOpt= -1 -1 -1 -1 -1 -1 -1 -1 -1 -1 -1 -1 -1 -1 -1
 NAtoms=     15 NQM=       15 NQMF=       0 NMMI=      0 NMMIF=      0
                NMic=       0 NMicF=      0.
                    Isotopes and Nuclear Properties:
 (Nuclear quadrupole moments (NQMom) in fm**2, nuclear magnetic moments (NMagM)
  in nuclear magnetons)

  Atom         1           2           3           4           5           6           7           8           9          10
 IAtWgt=          12          12          12          12           1          12          12           1          12           1
 AtmWgt=  12.0000000  12.0000000  12.0000000  12.0000000   1.0078250  12.0000000  12.0000000   1.0078250  12.0000000   1.0078250
 NucSpn=           0           0           0           0           1           0           0           1           0           1
 AtZEff=  -0.0000000  -0.0000000  -0.0000000  -0.0000000  -0.0000000  -0.0000000  -0.0000000  -0.0000000  -0.0000000  -0.0000000
 NQMom=    0.0000000   0.0000000   0.0000000   0.0000000   0.0000000   0.0000000   0.0000000   0.0000000   0.0000000   0.0000000
 NMagM=    0.0000000   0.0000000   0.0000000   0.0000000   2.7928460   0.0000000   0.0000000   2.7928460   0.0000000   2.7928460
 AtZNuc=   6.0000000   6.0000000   6.0000000   6.0000000   1.0000000   6.0000000   6.0000000   1.0000000   6.0000000   1.0000000

  Atom        11          12          13          14          15
 IAtWgt=          16          16           1           1           1
 AtmWgt=  15.9949146  15.9949146   1.0078250   1.0078250   1.0078250
 NucSpn=           0           0           1           1           1
 AtZEff=  -0.0000000  -0.0000000  -0.0000000  -0.0000000  -0.0000000
 NQMom=    0.0000000   0.0000000   0.0000000   0.0000000   0.0000000
 NMagM=    0.0000000   0.0000000   2.7928460   2.7928460   2.7928460
 AtZNuc=   8.0000000   8.0000000   1.0000000   1.0000000   1.0000000
 Leave Link  101 at Sun Nov  6 23:01:49 2022, MaxMem= 16106127360 cpu:               5.4 elap:               0.2
 (Enter /opt/ap/G16/B01/g16/l202.exe)
                          Input orientation:                          
 ---------------------------------------------------------------------
 Center     Atomic      Atomic             Coordinates (Angstroms)
 Number     Number       Type             X           Y           Z
 ---------------------------------------------------------------------
      1          6           0        0.000000    0.000000    0.000000
      2          6           0        0.000000    0.000000    1.390162
      3          6           0        1.206722    0.000000   -0.693782
      4          6           0        1.202258    0.014862    2.081006
      5          1           0       -0.857581   -0.001388    1.879646
      6          6           0       -1.286190   -0.013155   -0.740711
      7          6           0        2.415349    0.005578    0.014752
      8          1           0        1.194584   -0.017290   -1.683772
      9          6           0        2.400563    0.019708    1.398617
     10          1           0        1.209438    0.024411    3.064408
     11          8           0       -2.136340    0.900022   -0.480037
     12          8           0       -1.487031   -0.922522   -1.594798
     13          1           0        3.270315    0.021574   -0.483669
     14          1           0        3.254554    0.009066    1.909081
     15          1           0       -2.896364    0.918948   -0.955709
 ---------------------------------------------------------------------
                    Distance matrix (angstroms):
                    1          2          3          4          5
     1  C    0.000000
     2  C    1.390162   0.000000
     3  C    1.391945   2.408112   0.000000
     4  C    2.403379   1.386690   2.774832   0.000000
     5  H    2.066039   0.987443   3.299073   2.069721   0.000000
     6  C    1.484288   2.488991   2.493388   3.762345   2.655206
     7  C    2.415401   2.779513   1.401011   2.396056   3.766955
     8  H    2.064563   3.297939   0.990215   3.764924   4.112127
     9  C    2.778349   2.400659   2.409104   1.378990   3.293530
    10  H    3.294530   2.065535   3.758270   0.983474   2.382624
    11  O    2.367367   2.978528   3.468688   4.299847   2.831231
    12  O    2.367633   3.460100   2.986500   4.650000   3.649172
    13  H    3.305958   3.769173   2.074374   3.294611   4.756607
    14  H    3.773167   3.295676   3.311886   2.059493   4.112253
    15  H    3.185399   3.838814   4.212883   5.180512   3.611494
                    6          7          8          9         10
     6  C    0.000000
     7  C    3.777892   0.000000
     8  H    2.653982   2.091836   0.000000
     9  C    4.262622   1.384016   3.310118   0.000000
    10  H    4.550659   3.279477   4.748386   2.047842   0.000000
    11  O    1.274598   4.665054   3.658620   4.988766   4.952173
    12  O    1.263626   4.322105   2.831681   4.996170   5.465878
    13  H    4.563881   0.989771   2.398003   2.073517   4.103177
    14  H    5.257398   2.071897   4.141589   0.994981   2.348938
    15  H    1.872885   5.476343   4.259398   5.865911   5.815423
                   11         12         13         14         15
    11  O    0.000000
    12  O    2.232926   0.000000
    13  H    5.477555   4.975768   0.000000
    14  H    5.963508   5.968890   2.392834   0.000000
    15  H    0.896804   2.405340   6.249482   6.846071   0.000000
 Stoichiometry    C7H6O2
 Framework group  C1[X(C7H6O2)]
 Deg. of freedom    39
 Full point group                 C1      NOp   1
 Largest Abelian subgroup         C1      NOp   1
 Largest concise Abelian subgroup C1      NOp   1
                         Standard orientation:                         
 ---------------------------------------------------------------------
 Center     Atomic      Atomic             Coordinates (Angstroms)
 Number     Number       Type             X           Y           Z
 ---------------------------------------------------------------------
      1          6           0        0.220778    0.019818    0.012781
      2          6           0       -0.457605   -1.167596    0.262568
      3          6           0       -0.493894    1.186026   -0.245513
      4          6           0       -1.843925   -1.189331    0.239034
      5          1           0        0.052018   -1.993047    0.446846
      6          6           0        1.704704    0.043890    0.034980
      7          6           0       -1.894491    1.154166   -0.257499
      8          1           0       -0.000355    2.029508   -0.405153
      9          6           0       -2.556766   -0.037878   -0.021018
     10          1           0       -2.329993   -2.027909    0.405604
     11          8           0        2.327894   -0.775441   -0.716639
     12          8           0        2.288436    0.869700    0.792637
     13          1           0       -2.397336    1.982926   -0.457372
     14          1           0       -3.551328   -0.065708   -0.013465
     15          1           0        3.223539   -0.734407   -0.736442
 ---------------------------------------------------------------------
 Rotational constants (GHZ):           3.9687600           1.1741432           0.9855709
 Leave Link  202 at Sun Nov  6 23:01:49 2022, MaxMem= 16106127360 cpu:               0.3 elap:               0.0
 (Enter /opt/ap/G16/B01/g16/l301.exe)
 Standard basis: 6-311++G(d,p) (5D, 7F)
 Ernie: Thresh=  0.10000D-02 Tol=  0.10000D-05 Strict=F.
 There are   249 symmetry adapted cartesian basis functions of A   symmetry.
 There are   240 symmetry adapted basis functions of A   symmetry.
   240 basis functions,   378 primitive gaussians,   249 cartesian basis functions
    32 alpha electrons       32 beta electrons
       nuclear repulsion energy       408.5684113040 Hartrees.
 IExCor= 4639 DFT=T Ex+Corr=wB97XD ExCW=0 ScaHFX=  1.000000
 ScaDFX=  1.000000  1.000000  1.000000  1.000000 ScalE2=  1.000000  1.000000
 IRadAn=      5 IRanWt=     -1 IRanGd=            0 ICorTp=0 IEmpDi=121
 HFx  wShort=  0.000000 wLong=  0.200000 cFull=  0.222036 cShort=  0.000000 cLong=  0.777964
 DFx  wShort=  0.000000 wLong=  0.200000 cFull=  0.000000 cShort=  0.000000 cLong=  1.000000
 NAtoms=   15 NActive=   15 NUniq=   15 SFac= 1.00D+00 NAtFMM=   60 NAOKFM=F Big=F
 Integral buffers will be    131072 words long.
 Raffenetti 2 integral format.
 Two-electron integral symmetry is turned on.
 R6Disp:  Grimme-D2 Dispersion energy=       -0.0064636216 Hartrees.
 Nuclear repulsion after empirical dispersion term =      408.5619476825 Hartrees.
 Leave Link  301 at Sun Nov  6 23:01:49 2022, MaxMem= 16106127360 cpu:               1.2 elap:               0.0
 (Enter /opt/ap/G16/B01/g16/l302.exe)
 NPDir=0 NMtPBC=     1 NCelOv=     1 NCel=       1 NClECP=     1 NCelD=      1
         NCelK=      1 NCelE2=     1 NClLst=     1 CellRange=     0.0.
 One-electron integrals computed using PRISM.
 One-electron integral symmetry used in STVInt
 NBasis=   240 RedAO= T EigKep=  1.20D-06  NBF=   240
 NBsUse=   240 1.00D-06 EigRej= -1.00D+00 NBFU=   240
 Precomputing XC quadrature grid using
 IXCGrd= 4 IRadAn=           5 IRanWt=          -1 IRanGd=           0 AccXCQ= 0.00D+00.
 Generated NRdTot=       0 NPtTot=           0 NUsed=           0 NTot=          32
 NSgBfM=   249   249   249   249   249 MxSgAt=    15 MxSgA2=    15.
 Leave Link  302 at Sun Nov  6 23:01:50 2022, MaxMem= 16106127360 cpu:               5.3 elap:               0.2
 (Enter /opt/ap/G16/B01/g16/l303.exe)
 DipDrv:  MaxL=1.
 Leave Link  303 at Sun Nov  6 23:01:50 2022, MaxMem= 16106127360 cpu:               1.3 elap:               0.0
 (Enter /opt/ap/G16/B01/g16/l401.exe)
 ExpMin= 3.60D-02 ExpMax= 8.59D+03 ExpMxC= 1.30D+03 IAcc=3 IRadAn=         5 AccDes= 0.00D+00
 Harris functional with IExCor= 4639 and IRadAn=       5 diagonalized for initial guess.
 HarFok:  IExCor= 4639 AccDes= 0.00D+00 IRadAn=         5 IDoV= 1 UseB2=F ITyADJ=14
 ICtDFT=  3500011 ScaDFX=  1.000000  1.000000  1.000000  1.000000
 FoFCou: FMM=F IPFlag=           0 FMFlag=      100000 FMFlg1=           0
         NFxFlg=           0 DoJE=T BraDBF=F KetDBF=T FulRan=T
         wScrn=  0.000000 ICntrl=       500 IOpCl=  0 I1Cent=   200000004 NGrid=           0
         NMat0=    1 NMatS0=      1 NMatT0=    0 NMatD0=    1 NMtDS0=    0 NMtDT0=    0
 Petite list used in FoFCou.
 Harris En= -403.251112277981    
 JPrj=0 DoOrth=F DoCkMO=F.
 Leave Link  401 at Sun Nov  6 23:01:50 2022, MaxMem= 16106127360 cpu:              11.8 elap:               0.4
 (Enter /opt/ap/G16/B01/g16/l502.exe)
 Integral symmetry usage will be decided dynamically.
 Closed shell SCF:
 Using DIIS extrapolation, IDIIS=  1040.
 NGot= 16106127360 LenX= 16105992971 LenY= 16105930529
 Requested convergence on RMS density matrix=1.00D-08 within 512 cycles.
 Requested convergence on MAX density matrix=1.00D-06.
 Requested convergence on             energy=1.00D-06.
 No special actions if energy rises.
 Fock matrices will be formed incrementally for  20 cycles.

 Cycle   1  Pass 1  IDiag  1:
 FoFJK:  IHMeth= 1 ICntrl=       0 DoSepK=T KAlg= 0 I1Cent=           0 FoldK=F
 IRaf=         1 NMat=       1 IRICut=       1 DoRegI=T DoRafI=F ISym2E= 0 IDoP0=0 IntGTp=1.
 FoFCou: FMM=F IPFlag=           0 FMFlag=      100000 FMFlg1=           0
         NFxFlg=           0 DoJE=T BraDBF=F KetDBF=F FulRan=T
         wScrn=  0.000000 ICntrl=       500 IOpCl=  0 I1Cent=           0 NGrid=           0
         NMat0=    1 NMatS0=      1 NMatT0=    0 NMatD0=    1 NMtDS0=    0 NMtDT0=    0
 Symmetry not used in FoFCou.
 E= -420.624452898630    
 DIIS: error= 7.46D-02 at cycle   1 NSaved=   1.
 NSaved= 1 IEnMin= 1 EnMin= -420.624452898630     IErMin= 1 ErrMin= 7.46D-02
 ErrMax= 7.46D-02  0.00D+00 EMaxC= 1.00D-01 BMatC= 8.62D-01 BMatP= 8.62D-01
 IDIUse=3 WtCom= 2.54D-01 WtEn= 7.46D-01
 Coeff-Com:  0.100D+01
 Coeff-En:   0.100D+01
 Coeff:      0.100D+01
 Gap=     0.474 Goal=   None    Shift=    0.000
 GapD=    0.474 DampG=2.000 DampE=0.500 DampFc=1.0000 IDamp=-1.
 RMSDP=1.91D-02 MaxDP=1.33D+00              OVMax= 9.74D-02

 Cycle   2  Pass 1  IDiag  1:
 RMSU=  1.23D-02    CP:  7.45D-01
 E= -420.696660059156     Delta-E=       -0.072207160526 Rises=F Damp=F
 DIIS: error= 1.35D-02 at cycle   2 NSaved=   2.
 NSaved= 2 IEnMin= 2 EnMin= -420.696660059156     IErMin= 2 ErrMin= 1.35D-02
 ErrMax= 1.35D-02  0.00D+00 EMaxC= 1.00D-01 BMatC= 5.71D-02 BMatP= 8.62D-01
 IDIUse=3 WtCom= 8.65D-01 WtEn= 1.35D-01
 Coeff-Com:  0.135D+00 0.865D+00
 Coeff-En:   0.935D-01 0.907D+00
 Coeff:      0.130D+00 0.870D+00
 Gap=     0.455 Goal=   None    Shift=    0.000
 RMSDP=8.92D-03 MaxDP=4.84D-01 DE=-7.22D-02 OVMax= 8.54D-02

 Cycle   3  Pass 1  IDiag  1:
 RMSU=  6.37D-03    CP:  6.74D-01  6.14D-01
 E= -420.712556321518     Delta-E=       -0.015896262362 Rises=F Damp=F
 DIIS: error= 1.31D-02 at cycle   3 NSaved=   3.
 NSaved= 3 IEnMin= 3 EnMin= -420.712556321518     IErMin= 3 ErrMin= 1.31D-02
 ErrMax= 1.31D-02  0.00D+00 EMaxC= 1.00D-01 BMatC= 3.62D-02 BMatP= 5.71D-02
 IDIUse=3 WtCom= 8.69D-01 WtEn= 1.31D-01
 Coeff-Com:  0.285D-01 0.449D+00 0.523D+00
 Coeff-En:   0.000D+00 0.387D+00 0.613D+00
 Coeff:      0.248D-01 0.440D+00 0.535D+00
 Gap=     0.363 Goal=   None    Shift=    0.000
 RMSDP=3.52D-03 MaxDP=1.48D-01 DE=-1.59D-02 OVMax= 5.32D-02

 Cycle   4  Pass 1  IDiag  1:
 RMSU=  1.79D-03    CP:  6.73D-01  7.96D-01  6.77D-01
 E= -420.738891555385     Delta-E=       -0.026335233867 Rises=F Damp=F
 DIIS: error= 3.08D-03 at cycle   4 NSaved=   4.
 NSaved= 4 IEnMin= 4 EnMin= -420.738891555385     IErMin= 4 ErrMin= 3.08D-03
 ErrMax= 3.08D-03  0.00D+00 EMaxC= 1.00D-01 BMatC= 2.14D-03 BMatP= 3.62D-02
 IDIUse=3 WtCom= 9.69D-01 WtEn= 3.08D-02
 Coeff-Com:  0.105D-01 0.221D+00 0.304D+00 0.465D+00
 Coeff-En:   0.000D+00 0.000D+00 0.000D+00 0.100D+01
 Coeff:      0.102D-01 0.214D+00 0.294D+00 0.481D+00
 Gap=     0.364 Goal=   None    Shift=    0.000
 RMSDP=7.66D-04 MaxDP=4.77D-02 DE=-2.63D-02 OVMax= 1.35D-02

 Cycle   5  Pass 1  IDiag  1:
 RMSU=  6.20D-04    CP:  6.70D-01  7.84D-01  7.11D-01  8.30D-01
 E= -420.740337365540     Delta-E=       -0.001445810154 Rises=F Damp=F
 DIIS: error= 4.49D-04 at cycle   5 NSaved=   5.
 NSaved= 5 IEnMin= 5 EnMin= -420.740337365540     IErMin= 5 ErrMin= 4.49D-04
 ErrMax= 4.49D-04  0.00D+00 EMaxC= 1.00D-01 BMatC= 5.40D-05 BMatP= 2.14D-03
 IDIUse=3 WtCom= 9.96D-01 WtEn= 4.49D-03
 Coeff-Com:  0.515D-03 0.193D-01 0.350D-01 0.155D+00 0.790D+00
 Coeff-En:   0.000D+00 0.000D+00 0.000D+00 0.000D+00 0.100D+01
 Coeff:      0.513D-03 0.192D-01 0.349D-01 0.154D+00 0.791D+00
 Gap=     0.361 Goal=   None    Shift=    0.000
 RMSDP=2.00D-04 MaxDP=8.61D-03 DE=-1.45D-03 OVMax= 2.98D-03

 Cycle   6  Pass 1  IDiag  1:
 RMSU=  1.35D-04    CP:  6.70D-01  7.86D-01  7.29D-01  8.69D-01  1.05D+00
 E= -420.740379413704     Delta-E=       -0.000042048164 Rises=F Damp=F
 DIIS: error= 1.84D-04 at cycle   6 NSaved=   6.
 NSaved= 6 IEnMin= 6 EnMin= -420.740379413704     IErMin= 6 ErrMin= 1.84D-04
 ErrMax= 1.84D-04  0.00D+00 EMaxC= 1.00D-01 BMatC= 7.37D-06 BMatP= 5.40D-05
 IDIUse=3 WtCom= 9.98D-01 WtEn= 1.84D-03
 Coeff-Com: -0.959D-03-0.164D-01-0.179D-01 0.122D-01 0.340D+00 0.683D+00
 Coeff-En:   0.000D+00 0.000D+00 0.000D+00 0.000D+00 0.000D+00 0.100D+01
 Coeff:     -0.957D-03-0.163D-01-0.178D-01 0.122D-01 0.339D+00 0.683D+00
 Gap=     0.361 Goal=   None    Shift=    0.000
 RMSDP=1.14D-04 MaxDP=7.61D-03 DE=-4.20D-05 OVMax= 1.06D-03

 Cycle   7  Pass 1  IDiag  1:
 RMSU=  4.25D-05    CP:  6.68D-01  7.85D-01  7.37D-01  8.92D-01  1.14D+00
                    CP:  1.12D+00
 E= -420.740387036580     Delta-E=       -0.000007622876 Rises=F Damp=F
 DIIS: error= 4.95D-05 at cycle   7 NSaved=   7.
 NSaved= 7 IEnMin= 7 EnMin= -420.740387036580     IErMin= 7 ErrMin= 4.95D-05
 ErrMax= 4.95D-05  0.00D+00 EMaxC= 1.00D-01 BMatC= 3.27D-07 BMatP= 7.37D-06
 IDIUse=1 WtCom= 1.00D+00 WtEn= 0.00D+00
 Coeff-Com: -0.228D-03-0.535D-02-0.659D-02-0.140D-01-0.658D-02 0.123D+00
 Coeff-Com:  0.909D+00
 Coeff:     -0.228D-03-0.535D-02-0.659D-02-0.140D-01-0.658D-02 0.123D+00
 Coeff:      0.909D+00
 Gap=     0.361 Goal=   None    Shift=    0.000
 RMSDP=4.03D-05 MaxDP=2.42D-03 DE=-7.62D-06 OVMax= 4.14D-04

 Cycle   8  Pass 1  IDiag  1:
 RMSU=  1.41D-05    CP:  6.68D-01  7.85D-01  7.39D-01  8.97D-01  1.19D+00
                    CP:  1.19D+00  1.18D+00
 E= -420.740387737261     Delta-E=       -0.000000700681 Rises=F Damp=F
 DIIS: error= 1.46D-05 at cycle   8 NSaved=   8.
 NSaved= 8 IEnMin= 8 EnMin= -420.740387737261     IErMin= 8 ErrMin= 1.46D-05
 ErrMax= 1.46D-05  0.00D+00 EMaxC= 1.00D-01 BMatC= 5.09D-08 BMatP= 3.27D-07
 IDIUse=1 WtCom= 1.00D+00 WtEn= 0.00D+00
 Coeff-Com:  0.399D-04 0.403D-03 0.415D-03-0.581D-02-0.417D-01-0.467D-01
 Coeff-Com:  0.254D+00 0.839D+00
 Coeff:      0.399D-04 0.403D-03 0.415D-03-0.581D-02-0.417D-01-0.467D-01
 Coeff:      0.254D+00 0.839D+00
 Gap=     0.361 Goal=   None    Shift=    0.000
 RMSDP=1.11D-05 MaxDP=4.05D-04 DE=-7.01D-07 OVMax= 1.79D-04

 Cycle   9  Pass 1  IDiag  1:
 RMSU=  4.25D-06    CP:  6.68D-01  7.85D-01  7.39D-01  8.98D-01  1.19D+00
                    CP:  1.21D+00  1.27D+00  1.18D+00
 E= -420.740387838962     Delta-E=       -0.000000101700 Rises=F Damp=F
 DIIS: error= 8.76D-06 at cycle   9 NSaved=   9.
 NSaved= 9 IEnMin= 9 EnMin= -420.740387838962     IErMin= 9 ErrMin= 8.76D-06
 ErrMax= 8.76D-06  0.00D+00 EMaxC= 1.00D-01 BMatC= 7.26D-09 BMatP= 5.09D-08
 IDIUse=1 WtCom= 1.00D+00 WtEn= 0.00D+00
 Coeff-Com:  0.456D-04 0.883D-03 0.112D-02-0.109D-03-0.121D-01-0.324D-01
 Coeff-Com: -0.359D-01 0.273D+00 0.805D+00
 Coeff:      0.456D-04 0.883D-03 0.112D-02-0.109D-03-0.121D-01-0.324D-01
 Coeff:     -0.359D-01 0.273D+00 0.805D+00
 Gap=     0.361 Goal=   None    Shift=    0.000
 RMSDP=4.18D-06 MaxDP=3.32D-04 DE=-1.02D-07 OVMax= 5.91D-05

 Cycle  10  Pass 1  IDiag  1:
 RMSU=  2.03D-06    CP:  6.68D-01  7.85D-01  7.39D-01  8.97D-01  1.19D+00
                    CP:  1.21D+00  1.28D+00  1.24D+00  1.30D+00
 E= -420.740387852703     Delta-E=       -0.000000013741 Rises=F Damp=F
 DIIS: error= 1.36D-06 at cycle  10 NSaved=  10.
 NSaved=10 IEnMin=10 EnMin= -420.740387852703     IErMin=10 ErrMin= 1.36D-06
 ErrMax= 1.36D-06  0.00D+00 EMaxC= 1.00D-01 BMatC= 9.29D-10 BMatP= 7.26D-09
 IDIUse=1 WtCom= 1.00D+00 WtEn= 0.00D+00
 Coeff-Com:  0.902D-05 0.197D-03 0.275D-03 0.535D-03 0.123D-02-0.481D-02
 Coeff-Com: -0.383D-01-0.168D-01 0.255D+00 0.803D+00
 Coeff:      0.902D-05 0.197D-03 0.275D-03 0.535D-03 0.123D-02-0.481D-02
 Coeff:     -0.383D-01-0.168D-01 0.255D+00 0.803D+00
 Gap=     0.361 Goal=   None    Shift=    0.000
 RMSDP=1.43D-06 MaxDP=7.81D-05 DE=-1.37D-08 OVMax= 2.47D-05

 Cycle  11  Pass 1  IDiag  1:
 RMSU=  4.97D-07    CP:  6.68D-01  7.85D-01  7.39D-01  8.96D-01  1.20D+00
                    CP:  1.21D+00  1.28D+00  1.28D+00  1.45D+00  1.02D+00
 E= -420.740387854351     Delta-E=       -0.000000001649 Rises=F Damp=F
 DIIS: error= 6.24D-07 at cycle  11 NSaved=  11.
 NSaved=11 IEnMin=11 EnMin= -420.740387854351     IErMin=11 ErrMin= 6.24D-07
 ErrMax= 6.24D-07  0.00D+00 EMaxC= 1.00D-01 BMatC= 1.65D-10 BMatP= 9.29D-10
 IDIUse=1 WtCom= 1.00D+00 WtEn= 0.00D+00
 Coeff-Com: -0.228D-05-0.250D-04-0.167D-04 0.270D-03 0.230D-02 0.232D-02
 Coeff-Com: -0.960D-02-0.511D-01-0.220D-01 0.310D+00 0.768D+00
 Coeff:     -0.228D-05-0.250D-04-0.167D-04 0.270D-03 0.230D-02 0.232D-02
 Coeff:     -0.960D-02-0.511D-01-0.220D-01 0.310D+00 0.768D+00
 Gap=     0.361 Goal=   None    Shift=    0.000
 RMSDP=5.76D-07 MaxDP=3.15D-05 DE=-1.65D-09 OVMax= 8.40D-06

 Cycle  12  Pass 1  IDiag  1:
 RMSU=  2.97D-07    CP:  6.68D-01  7.85D-01  7.39D-01  8.96D-01  1.19D+00
                    CP:  1.20D+00  1.28D+00  1.29D+00  1.48D+00  1.10D+00
                    CP:  1.17D+00
 E= -420.740387854623     Delta-E=       -0.000000000272 Rises=F Damp=F
 DIIS: error= 1.73D-07 at cycle  12 NSaved=  12.
 NSaved=12 IEnMin=12 EnMin= -420.740387854623     IErMin=12 ErrMin= 1.73D-07
 ErrMax= 1.73D-07  0.00D+00 EMaxC= 1.00D-01 BMatC= 1.22D-11 BMatP= 1.65D-10
 IDIUse=1 WtCom= 1.00D+00 WtEn= 0.00D+00
 Coeff-Com: -0.131D-05-0.224D-04-0.264D-04 0.202D-04 0.423D-03 0.864D-03
 Coeff-Com:  0.186D-02-0.109D-01-0.270D-01 0.505D-02 0.170D+00 0.859D+00
 Coeff:     -0.131D-05-0.224D-04-0.264D-04 0.202D-04 0.423D-03 0.864D-03
 Coeff:      0.186D-02-0.109D-01-0.270D-01 0.505D-02 0.170D+00 0.859D+00
 Gap=     0.361 Goal=   None    Shift=    0.000
 RMSDP=1.80D-07 MaxDP=9.57D-06 DE=-2.72D-10 OVMax= 3.93D-06

 Cycle  13  Pass 1  IDiag  1:
 RMSU=  9.03D-08    CP:  6.68D-01  7.85D-01  7.39D-01  8.96D-01  1.19D+00
                    CP:  1.20D+00  1.28D+00  1.29D+00  1.50D+00  1.09D+00
                    CP:  1.27D+00  1.17D+00
 E= -420.740387854659     Delta-E=       -0.000000000037 Rises=F Damp=F
 DIIS: error= 1.31D-07 at cycle  13 NSaved=  13.
 NSaved=13 IEnMin=13 EnMin= -420.740387854659     IErMin=13 ErrMin= 1.31D-07
 ErrMax= 1.31D-07  0.00D+00 EMaxC= 1.00D-01 BMatC= 2.74D-12 BMatP= 1.22D-11
 IDIUse=1 WtCom= 1.00D+00 WtEn= 0.00D+00
 Coeff-Com:  0.117D-06-0.349D-05-0.754D-05-0.534D-04-0.375D-03-0.240D-03
 Coeff-Com:  0.268D-02 0.726D-02-0.241D-02-0.635D-01-0.132D+00 0.220D+00
 Coeff-Com:  0.969D+00
 Coeff:      0.117D-06-0.349D-05-0.754D-05-0.534D-04-0.375D-03-0.240D-03
 Coeff:      0.268D-02 0.726D-02-0.241D-02-0.635D-01-0.132D+00 0.220D+00
 Coeff:      0.969D+00
 Gap=     0.361 Goal=   None    Shift=    0.000
 RMSDP=8.67D-08 MaxDP=4.76D-06 DE=-3.66D-11 OVMax= 2.61D-06

 Cycle  14  Pass 1  IDiag  1:
 RMSU=  3.55D-08    CP:  6.68D-01  7.85D-01  7.39D-01  8.96D-01  1.19D+00
                    CP:  1.20D+00  1.28D+00  1.29D+00  1.50D+00  1.09D+00
                    CP:  1.34D+00  1.33D+00  1.34D+00
 E= -420.740387854671     Delta-E=       -0.000000000012 Rises=F Damp=F
 DIIS: error= 3.32D-08 at cycle  14 NSaved=  14.
 NSaved=14 IEnMin=14 EnMin= -420.740387854671     IErMin=14 ErrMin= 3.32D-08
 ErrMax= 3.32D-08  0.00D+00 EMaxC= 1.00D-01 BMatC= 2.12D-13 BMatP= 2.74D-12
 IDIUse=1 WtCom= 1.00D+00 WtEn= 0.00D+00
 Coeff-Com:  0.912D-07 0.235D-05 0.311D-05 0.166D-05-0.460D-04-0.521D-04
 Coeff-Com: -0.315D-03 0.969D-03 0.301D-02 0.104D-03-0.123D-01-0.102D+00
 Coeff-Com: -0.484D-01 0.116D+01
 Coeff:      0.912D-07 0.235D-05 0.311D-05 0.166D-05-0.460D-04-0.521D-04
 Coeff:     -0.315D-03 0.969D-03 0.301D-02 0.104D-03-0.123D-01-0.102D+00
 Coeff:     -0.484D-01 0.116D+01
 Gap=     0.361 Goal=   None    Shift=    0.000
 RMSDP=3.71D-08 MaxDP=2.76D-06 DE=-1.18D-11 OVMax= 9.65D-07

 Cycle  15  Pass 1  IDiag  1:
 RMSU=  8.41D-09    CP:  6.68D-01  7.85D-01  7.39D-01  8.96D-01  1.19D+00
                    CP:  1.20D+00  1.28D+00  1.29D+00  1.50D+00  1.08D+00
                    CP:  1.35D+00  1.35D+00  1.54D+00  1.39D+00
 E= -420.740387854673     Delta-E=       -0.000000000002 Rises=F Damp=F
 DIIS: error= 1.14D-08 at cycle  15 NSaved=  15.
 NSaved=15 IEnMin=15 EnMin= -420.740387854673     IErMin=15 ErrMin= 1.14D-08
 ErrMax= 1.14D-08  0.00D+00 EMaxC= 1.00D-01 BMatC= 3.14D-14 BMatP= 2.12D-13
 IDIUse=1 WtCom= 1.00D+00 WtEn= 0.00D+00
 Coeff-Com:  0.171D-07 0.109D-05 0.179D-05 0.612D-05 0.236D-04 0.130D-04
 Coeff-Com: -0.364D-03-0.401D-03 0.116D-02 0.668D-02 0.110D-01-0.474D-01
 Coeff-Com: -0.113D+00 0.337D+00 0.805D+00
 Coeff:      0.171D-07 0.109D-05 0.179D-05 0.612D-05 0.236D-04 0.130D-04
 Coeff:     -0.364D-03-0.401D-03 0.116D-02 0.668D-02 0.110D-01-0.474D-01
 Coeff:     -0.113D+00 0.337D+00 0.805D+00
 Gap=     0.361 Goal=   None    Shift=    0.000
 RMSDP=7.54D-09 MaxDP=5.32D-07 DE=-1.71D-12 OVMax= 1.67D-07

 SCF Done:  E(RwB97XD) =  -420.740387855     A.U. after   15 cycles
            NFock= 15  Conv=0.75D-08     -V/T= 2.0015
 KE= 4.201137362081D+02 PE=-1.800552843570D+03 EE= 5.511367718246D+02
 Leave Link  502 at Sun Nov  6 23:02:03 2022, MaxMem= 16106127360 cpu:             407.4 elap:              12.8
 (Enter /opt/ap/G16/B01/g16/l601.exe)
 Copying SCF densities to generalized density rwf, IOpCl= 0 IROHF=0.

 **********************************************************************

            Population analysis using the SCF Density.

 **********************************************************************

 Orbital symmetries:
       Occupied  (A) (A) (A) (A) (A) (A) (A) (A) (A) (A) (A) (A)
                 (A) (A) (A) (A) (A) (A) (A) (A) (A) (A) (A) (A)
                 (A) (A) (A) (A) (A) (A) (A) (A)
       Virtual   (A) (A) (A) (A) (A) (A) (A) (A) (A) (A) (A) (A)
                 (A) (A) (A) (A) (A) (A) (A) (A) (A) (A) (A) (A)
                 (A) (A) (A) (A) (A) (A) (A) (A) (A) (A) (A) (A)
                 (A) (A) (A) (A) (A) (A) (A) (A) (A) (A) (A) (A)
                 (A) (A) (A) (A) (A) (A) (A) (A) (A) (A) (A) (A)
                 (A) (A) (A) (A) (A) (A) (A) (A) (A) (A) (A) (A)
                 (A) (A) (A) (A) (A) (A) (A) (A) (A) (A) (A) (A)
                 (A) (A) (A) (A) (A) (A) (A) (A) (A) (A) (A) (A)
                 (A) (A) (A) (A) (A) (A) (A) (A) (A) (A) (A) (A)
                 (A) (A) (A) (A) (A) (A) (A) (A) (A) (A) (A) (A)
                 (A) (A) (A) (A) (A) (A) (A) (A) (A) (A) (A) (A)
                 (A) (A) (A) (A) (A) (A) (A) (A) (A) (A) (A) (A)
                 (A) (A) (A) (A) (A) (A) (A) (A) (A) (A) (A) (A)
                 (A) (A) (A) (A) (A) (A) (A) (A) (A) (A) (A) (A)
                 (A) (A) (A) (A) (A) (A) (A) (A) (A) (A) (A) (A)
                 (A) (A) (A) (A) (A) (A) (A) (A) (A) (A) (A) (A)
                 (A) (A) (A) (A) (A) (A) (A) (A) (A) (A) (A) (A)
                 (A) (A) (A) (A)
 The electronic state is 1-A.
 Alpha  occ. eigenvalues --  -19.31877 -19.23255 -10.43456 -10.31330 -10.29436
 Alpha  occ. eigenvalues --  -10.29321 -10.29020 -10.28862 -10.28718  -1.25991
 Alpha  occ. eigenvalues --   -1.10879  -0.98075  -0.88945  -0.87072  -0.80664
 Alpha  occ. eigenvalues --   -0.73468  -0.72231  -0.65858  -0.60711  -0.58796
 Alpha  occ. eigenvalues --   -0.57686  -0.55825  -0.54010  -0.53407  -0.49194
 Alpha  occ. eigenvalues --   -0.47438  -0.45441  -0.45095  -0.40837  -0.37330
 Alpha  occ. eigenvalues --   -0.34411  -0.33640
 Alpha virt. eigenvalues --    0.02481   0.03785   0.04232   0.04563   0.05141
 Alpha virt. eigenvalues --    0.06427   0.07315   0.08476   0.08716   0.10438
 Alpha virt. eigenvalues --    0.12310   0.12589   0.12865   0.14342   0.15118
 Alpha virt. eigenvalues --    0.16087   0.16214   0.17038   0.17321   0.17951
 Alpha virt. eigenvalues --    0.18555   0.18964   0.19293   0.20112   0.20194
 Alpha virt. eigenvalues --    0.20948   0.21049   0.21272   0.23097   0.23811
 Alpha virt. eigenvalues --    0.25191   0.25788   0.26843   0.27440   0.27641
 Alpha virt. eigenvalues --    0.29124   0.29480   0.30153   0.30641   0.31137
 Alpha virt. eigenvalues --    0.32401   0.34637   0.35168   0.35540   0.36657
 Alpha virt. eigenvalues --    0.36907   0.38355   0.38914   0.39112   0.40183
 Alpha virt. eigenvalues --    0.40437   0.42203   0.42827   0.43623   0.44231
 Alpha virt. eigenvalues --    0.44740   0.45623   0.50395   0.53157   0.56799
 Alpha virt. eigenvalues --    0.59404   0.61426   0.62032   0.62938   0.63545
 Alpha virt. eigenvalues --    0.64569   0.64767   0.65645   0.67367   0.68332
 Alpha virt. eigenvalues --    0.69322   0.70763   0.72886   0.74501   0.75149
 Alpha virt. eigenvalues --    0.76750   0.80789   0.80834   0.82140   0.83124
 Alpha virt. eigenvalues --    0.86927   0.87137   0.90341   0.92274   0.93733
 Alpha virt. eigenvalues --    0.93849   0.95054   0.96134   0.98076   1.00147
 Alpha virt. eigenvalues --    1.01285   1.02428   1.08256   1.09085   1.13011
 Alpha virt. eigenvalues --    1.13863   1.15733   1.16858   1.18596   1.20471
 Alpha virt. eigenvalues --    1.22189   1.25531   1.25791   1.28379   1.31792
 Alpha virt. eigenvalues --    1.37540   1.39946   1.44270   1.45402   1.53829
 Alpha virt. eigenvalues --    1.56592   1.58859   1.59292   1.61451   1.62454
 Alpha virt. eigenvalues --    1.65110   1.66617   1.67231   1.68112   1.74082
 Alpha virt. eigenvalues --    1.74888   1.75228   1.79690   1.83681   1.87725
 Alpha virt. eigenvalues --    1.88153   1.88808   1.90599   1.93515   1.97867
 Alpha virt. eigenvalues --    2.01431   2.02480   2.03004   2.04837   2.05452
 Alpha virt. eigenvalues --    2.06175   2.07500   2.14022   2.17763   2.17862
 Alpha virt. eigenvalues --    2.23452   2.24808   2.32624   2.44222   2.47132
 Alpha virt. eigenvalues --    2.51266   2.53188   2.54022   2.58350   2.62704
 Alpha virt. eigenvalues --    2.68488   2.71010   2.77377   2.80002   2.81036
 Alpha virt. eigenvalues --    2.82717   2.84489   2.88041   2.90696   2.90941
 Alpha virt. eigenvalues --    2.91066   2.91991   2.96508   2.98159   3.00686
 Alpha virt. eigenvalues --    3.02205   3.06804   3.09234   3.16519   3.18514
 Alpha virt. eigenvalues --    3.19594   3.22303   3.25103   3.28576   3.35016
 Alpha virt. eigenvalues --    3.38912   3.43021   3.48827   3.49282   3.64011
 Alpha virt. eigenvalues --    3.66223   3.69175   3.72707   3.85660   3.87855
 Alpha virt. eigenvalues --    4.05318   4.15896   4.27359   4.30073   4.35670
 Alpha virt. eigenvalues --    4.37465   4.40439   4.95015   5.09179   5.18463
 Alpha virt. eigenvalues --    5.27416   5.47054   5.77200   6.07261  23.84429
 Alpha virt. eigenvalues --   23.93794  24.14745  24.21323  24.28452  24.30218
 Alpha virt. eigenvalues --   24.41857  50.02934  50.13052
          Condensed to atoms (all electrons):
               1          2          3          4          5          6
     1  C   11.861245  -2.430659  -2.982478   1.506957  -0.029814  -2.099785
     2  C   -2.430659  10.849443   0.385136  -1.533583   0.385891  -0.712877
     3  C   -2.982478   0.385136  11.140912  -1.457526   0.119433  -0.404159
     4  C    1.506957  -1.533583  -1.457526   6.594824  -0.063704   0.003719
     5  H   -0.029814   0.385891   0.119433  -0.063704   0.478648  -0.057521
     6  C   -2.099785  -0.712877  -0.404159   0.003719  -0.057521   8.421641
     7  C    1.281932  -1.510108  -1.420468   1.141093  -0.005832  -0.052696
     8  H   -0.041198   0.125012   0.383423  -0.026811  -0.000049  -0.029781
     9  C   -1.689203   1.321922   1.263231  -0.690493   0.016359   0.064253
    10  H    0.028809  -0.050104  -0.020055   0.399346  -0.009785   0.007119
    11  O   -0.340244  -0.123223  -0.078008   0.051000  -0.009787   0.451597
    12  O   -0.053985   0.049901  -0.115507   0.016621  -0.003144   0.494415
    13  H    0.043130  -0.035887  -0.036548   0.006856   0.000654  -0.000024
    14  H    0.004184   0.014139  -0.001490  -0.034660  -0.000907  -0.008244
    15  H   -0.052268   0.009108   0.004740  -0.005907  -0.001716   0.028612
               7          8          9         10         11         12
     1  C    1.281932  -0.041198  -1.689203   0.028809  -0.340244  -0.053985
     2  C   -1.510108   0.125012   1.321922  -0.050104  -0.123223   0.049901
     3  C   -1.420468   0.383423   1.263231  -0.020055  -0.078008  -0.115507
     4  C    1.141093  -0.026811  -0.690493   0.399346   0.051000   0.016621
     5  H   -0.005832  -0.000049   0.016359  -0.009785  -0.009787  -0.003144
     6  C   -0.052696  -0.029781   0.064253   0.007119   0.451597   0.494415
     7  C    6.854633  -0.079587  -0.655851  -0.004709   0.021547   0.003515
     8  H   -0.079587   0.456602   0.028310   0.000362  -0.005621   0.003017
     9  C   -0.655851   0.028310   6.439612  -0.020416  -0.023381   0.001133
    10  H   -0.004709   0.000362  -0.020416   0.471335   0.000261   0.000100
    11  O    0.021547  -0.005621  -0.023381   0.000261   7.994968  -0.138414
    12  O    0.003515   0.003017   0.001133   0.000100  -0.138414   8.043913
    13  H    0.409717  -0.010579  -0.046482  -0.001202  -0.000161  -0.001297
    14  H   -0.026267   0.000043   0.402466  -0.004560  -0.000490  -0.000028
    15  H   -0.006547   0.000638   0.002891  -0.000045   0.304593  -0.008646
              13         14         15
     1  C    0.043130   0.004184  -0.052268
     2  C   -0.035887   0.014139   0.009108
     3  C   -0.036548  -0.001490   0.004740
     4  C    0.006856  -0.034660  -0.005907
     5  H    0.000654  -0.000907  -0.001716
     6  C   -0.000024  -0.008244   0.028612
     7  C    0.409717  -0.026267  -0.006547
     8  H   -0.010579   0.000043   0.000638
     9  C   -0.046482   0.402466   0.002891
    10  H   -0.001202  -0.004560  -0.000045
    11  O   -0.000161  -0.000490   0.304593
    12  O   -0.001297  -0.000028  -0.008646
    13  H    0.470398  -0.004928  -0.000274
    14  H   -0.004928   0.470110   0.000013
    15  H   -0.000274   0.000013   0.396760
 Mulliken charges:
               1
     1  C    0.993376
     2  C   -0.744111
     3  C   -0.780636
     4  C    0.092269
     5  H    0.181276
     6  C   -0.106270
     7  C    0.049628
     8  H    0.196216
     9  C   -0.414352
    10  H    0.203546
    11  O   -0.104639
    12  O   -0.291596
    13  H    0.206627
    14  H    0.190619
    15  H    0.328048
 Sum of Mulliken charges =  -0.00000
 Mulliken charges with hydrogens summed into heavy atoms:
               1
     1  C    0.993376
     2  C   -0.562835
     3  C   -0.584420
     4  C    0.295814
     6  C   -0.106270
     7  C    0.256255
     9  C   -0.223733
    11  O    0.223409
    12  O   -0.291596
 Electronic spatial extent (au):  <R**2>=           1158.2354
 Charge=              0.0000 electrons
 Dipole moment (field-independent basis, Debye):
    X=             -1.0979    Y=             -1.6482    Z=             -1.6418  Tot=              2.5725
 Quadrupole moment (field-independent basis, Debye-Ang):
   XX=            -43.1512   YY=            -48.4063   ZZ=            -55.8947
   XY=             -5.6526   XZ=             -5.4821   YZ=             -4.1133
 Traceless Quadrupole moment (field-independent basis, Debye-Ang):
   XX=              5.9996   YY=              0.7444   ZZ=             -6.7440
   XY=             -5.6526   XZ=             -5.4821   YZ=             -4.1133
 Octapole moment (field-independent basis, Debye-Ang**2):
  XXX=             22.9109  YYY=             -1.8623  ZZZ=             -2.0338  XYY=             -3.2917
  XXY=            -18.8352  XXZ=            -18.6181  XZZ=              7.7230  YZZ=             -1.5237
  YYZ=             -1.5651  XYZ=             -1.9943
 Hexadecapole moment (field-independent basis, Debye-Ang**3):
 XXXX=           -873.2136 YYYY=           -308.2188 ZZZZ=           -113.3467 XXXY=            -63.8191
 XXXZ=            -63.5158 YYYX=             -7.7167 YYYZ=             -8.9098 ZZZX=             -7.5710
 ZZZY=              2.7223 XXYY=           -221.9256 XXZZ=           -205.3638 YYZZ=            -78.0189
 XXYZ=             -9.7566 YYXZ=             -4.4546 ZZXY=             -4.9465
 N-N= 4.085619476825D+02 E-N=-1.800552843705D+03  KE= 4.201137362081D+02
 No NMR shielding tensors so no spin-rotation constants.
 Leave Link  601 at Sun Nov  6 23:02:03 2022, MaxMem= 16106127360 cpu:               3.2 elap:               0.1
 (Enter /opt/ap/G16/B01/g16/l9999.exe)
 1\1\GINC-N04\SP\RwB97XD\6-311++G(d,p)\C7H6O2\ROOT\06-Nov-2022\0\\#P wB
 97XD/6-311++G(d,p) scf=maxcycle=512\\_conf029.gjf nmol_natom 1_15\\0,1
 \C\C,1,1.39016191\C,1,1.39194539,2,119.895942\C,2,1.38669027,1,119.880
 75721,3,0.70825972,0\H,2,0.98744251,1,119.71654057,3,-179.90726164,0\C
 ,1,1.48428757,2,119.93615286,4,-179.87772406,0\C,3,1.40101108,1,119.72
 36454,2,-0.26266839,0\H,3,0.9902154,1,119.1886159,2,178.85397616,0\C,4
 ,1.37899003,2,120.45785903,1,-0.48041454,0\H,4,0.9834739,2,120.3044270
 6,1,179.36166981,0\O,6,1.27459751,1,118.00615353,2,55.,0\O,6,1.2636257
 2,1,118.77715367,2,-125.,0\H,7,0.98977053,3,119.37861578,1,-178.935457
 41,0\H,9,0.99498061,4,119.46722635,2,-178.58826714,0\H,11,0.89680392,6
 ,118.15823763,1,176.92714093,0\\Version=ES64L-G16RevB.01\State=1-A\HF=
 -420.7403879\RMSD=7.543e-09\Dipole=0.1403045,0.7641569,0.6486206\Quadr
 upole=6.482734,-5.9368964,-0.5458377,-3.5493124,-0.5148664,-3.8274077\
 PG=C01 [X(C7H6O2)]\\@


 TO BEHOLD HARMS OF OUR OWN HANDS DOING,
 WHERE NONE BESIDE US WROUGHT,
 CAUSES SHARP RUING...

                                         SOPHOCLES
 Job cpu time:       0 days  0 hours  7 minutes 19.7 seconds.
 Elapsed time:       0 days  0 hours  0 minutes 13.9 seconds.
 File lengths (MBytes):  RWF=     35 Int=      0 D2E=      0 Chk=      4 Scr=      1
 Normal termination of Gaussian 16 at Sun Nov  6 23:02:03 2022.
