 Entering Gaussian System, Link 0=g16
 Input=_conf028.gjf
 Output=_conf028.log
 Initial command:
 /opt/ap/G16/B01/g16/l1.exe "/tmp2/scr/Gau-18720.inp" -scrdir="/tmp2/scr/"
 Entering Link 1 = /opt/ap/G16/B01/g16/l1.exe PID=     18721.
  
 Copyright (c) 1988-2017, Gaussian, Inc.  All Rights Reserved.
  
 This is part of the Gaussian(R) 16 program.  It is based on
 the Gaussian(R) 09 system (copyright 2009, Gaussian, Inc.),
 the Gaussian(R) 03 system (copyright 2003, Gaussian, Inc.),
 the Gaussian(R) 98 system (copyright 1998, Gaussian, Inc.),
 the Gaussian(R) 94 system (copyright 1995, Gaussian, Inc.),
 the Gaussian 92(TM) system (copyright 1992, Gaussian, Inc.),
 the Gaussian 90(TM) system (copyright 1990, Gaussian, Inc.),
 the Gaussian 88(TM) system (copyright 1988, Gaussian, Inc.),
 the Gaussian 86(TM) system (copyright 1986, Carnegie Mellon
 University), and the Gaussian 82(TM) system (copyright 1983,
 Carnegie Mellon University). Gaussian is a federally registered
 trademark of Gaussian, Inc.
  
 This software contains proprietary and confidential information,
 including trade secrets, belonging to Gaussian, Inc.
  
 This software is provided under written license and may be
 used, copied, transmitted, or stored only in accord with that
 written license.
  
 The following legend is applicable only to US Government
 contracts under FAR:
  
                    RESTRICTED RIGHTS LEGEND
  
 Use, reproduction and disclosure by the US Government is
 subject to restrictions as set forth in subparagraphs (a)
 and (c) of the Commercial Computer Software - Restricted
 Rights clause in FAR 52.227-19.
  
 Gaussian, Inc.
 340 Quinnipiac St., Bldg. 40, Wallingford CT 06492
  
  
 ---------------------------------------------------------------
 Warning -- This program may not be used in any manner that
 competes with the business of Gaussian, Inc. or will provide
 assistance to any competitor of Gaussian, Inc.  The licensee
 of this program is prohibited from giving any competitor of
 Gaussian, Inc. access to this program.  By using this program,
 the user acknowledges that Gaussian, Inc. is engaged in the
 business of creating and licensing software in the field of
 computational chemistry and represents and warrants to the
 licensee that it is not a competitor of Gaussian, Inc. and that
 it will not use this program in any manner prohibited above.
 ---------------------------------------------------------------
  

 Cite this work as:
 Gaussian 16, Revision B.01,
 M. J. Frisch, G. W. Trucks, H. B. Schlegel, G. E. Scuseria, 
 M. A. Robb, J. R. Cheeseman, G. Scalmani, V. Barone, 
 G. A. Petersson, H. Nakatsuji, X. Li, M. Caricato, A. V. Marenich, 
 J. Bloino, B. G. Janesko, R. Gomperts, B. Mennucci, H. P. Hratchian, 
 J. V. Ortiz, A. F. Izmaylov, J. L. Sonnenberg, D. Williams-Young, 
 F. Ding, F. Lipparini, F. Egidi, J. Goings, B. Peng, A. Petrone, 
 T. Henderson, D. Ranasinghe, V. G. Zakrzewski, J. Gao, N. Rega, 
 G. Zheng, W. Liang, M. Hada, M. Ehara, K. Toyota, R. Fukuda, 
 J. Hasegawa, M. Ishida, T. Nakajima, Y. Honda, O. Kitao, H. Nakai, 
 T. Vreven, K. Throssell, J. A. Montgomery, Jr., J. E. Peralta, 
 F. Ogliaro, M. J. Bearpark, J. J. Heyd, E. N. Brothers, K. N. Kudin, 
 V. N. Staroverov, T. A. Keith, R. Kobayashi, J. Normand, 
 K. Raghavachari, A. P. Rendell, J. C. Burant, S. S. Iyengar, 
 J. Tomasi, M. Cossi, J. M. Millam, M. Klene, C. Adamo, R. Cammi, 
 J. W. Ochterski, R. L. Martin, K. Morokuma, O. Farkas, 
 J. B. Foresman, and D. J. Fox, Gaussian, Inc., Wallingford CT, 2016.
 
 ******************************************
 Gaussian 16:  ES64L-G16RevB.01 20-Dec-2017
                 6-Nov-2022 
 ******************************************
 %nprocshared=32
 Will use up to   32 processors via shared memory.
 %mem=120GB
 %chk=_conf028.chk
 ----------------------------------------
 #P wB97XD/6-311++G(d,p) scf=maxcycle=512
 ----------------------------------------
 1/38=1,172=1/1;
 2/12=2,17=6,18=5,40=1/2;
 3/5=4,6=6,7=1111,11=2,25=1,30=1,74=-58/1,2,3;
 4//1;
 5/5=2,7=512,38=5/2;
 6/7=2,8=2,9=2,10=2,28=1/1;
 99/5=1,9=1/99;
 Leave Link    1 at Sun Nov  6 23:01:48 2022, MaxMem= 16106127360 cpu:               2.4 elap:               0.1
 (Enter /opt/ap/G16/B01/g16/l101.exe)
 ----------------------------
 _conf028.gjf nmol_natom 1_15
 ----------------------------
 Symbolic Z-matrix:
 Charge =  0 Multiplicity = 1
 C
 C                    1     1.39016 
 C                    1     1.39195  2     119.89594 
 C                    2     1.38669  1     119.88076  3     0.70826  0
 H                    2     0.98744  1     119.71654  3    -179.90726  0
 C                    1     1.48429  2     119.93615  4    -179.87772  0
 C                    3     1.40101  1     119.72365  2    -0.26267  0
 H                    3     0.99022  1     119.18862  2     178.85398  0
 C                    4     1.37899  2     120.45786  1    -0.48041  0
 H                    4     0.98347  2     120.30443  1     179.36167  0
 O                    6     1.2746   1     118.00615  2     50.      0
 O                    6     1.26363  1     118.77715  2    -130.     0
 H                    7     0.98977  3     119.37862  1    -178.93546  0
 H                    9     0.99498  4     119.46723  2    -178.58827  0
 H                    11    0.8968   6     118.15824  1     176.92714  0
 
 ITRead=  0  0  0  0  0  0  0  0  0  0  0  0  0  0  0
 MicOpt= -1 -1 -1 -1 -1 -1 -1 -1 -1 -1 -1 -1 -1 -1 -1
 NAtoms=     15 NQM=       15 NQMF=       0 NMMI=      0 NMMIF=      0
                NMic=       0 NMicF=      0.
                    Isotopes and Nuclear Properties:
 (Nuclear quadrupole moments (NQMom) in fm**2, nuclear magnetic moments (NMagM)
  in nuclear magnetons)

  Atom         1           2           3           4           5           6           7           8           9          10
 IAtWgt=          12          12          12          12           1          12          12           1          12           1
 AtmWgt=  12.0000000  12.0000000  12.0000000  12.0000000   1.0078250  12.0000000  12.0000000   1.0078250  12.0000000   1.0078250
 NucSpn=           0           0           0           0           1           0           0           1           0           1
 AtZEff=  -0.0000000  -0.0000000  -0.0000000  -0.0000000  -0.0000000  -0.0000000  -0.0000000  -0.0000000  -0.0000000  -0.0000000
 NQMom=    0.0000000   0.0000000   0.0000000   0.0000000   0.0000000   0.0000000   0.0000000   0.0000000   0.0000000   0.0000000
 NMagM=    0.0000000   0.0000000   0.0000000   0.0000000   2.7928460   0.0000000   0.0000000   2.7928460   0.0000000   2.7928460
 AtZNuc=   6.0000000   6.0000000   6.0000000   6.0000000   1.0000000   6.0000000   6.0000000   1.0000000   6.0000000   1.0000000

  Atom        11          12          13          14          15
 IAtWgt=          16          16           1           1           1
 AtmWgt=  15.9949146  15.9949146   1.0078250   1.0078250   1.0078250
 NucSpn=           0           0           1           1           1
 AtZEff=  -0.0000000  -0.0000000  -0.0000000  -0.0000000  -0.0000000
 NQMom=    0.0000000   0.0000000   0.0000000   0.0000000   0.0000000
 NMagM=    0.0000000   0.0000000   2.7928460   2.7928460   2.7928460
 AtZNuc=   8.0000000   8.0000000   1.0000000   1.0000000   1.0000000
 Leave Link  101 at Sun Nov  6 23:01:49 2022, MaxMem= 16106127360 cpu:               5.7 elap:               0.2
 (Enter /opt/ap/G16/B01/g16/l202.exe)
                          Input orientation:                          
 ---------------------------------------------------------------------
 Center     Atomic      Atomic             Coordinates (Angstroms)
 Number     Number       Type             X           Y           Z
 ---------------------------------------------------------------------
      1          6           0        0.000000    0.000000    0.000000
      2          6           0        0.000000    0.000000    1.390162
      3          6           0        1.206722    0.000000   -0.693782
      4          6           0        1.202258    0.014862    2.081006
      5          1           0       -0.857581   -0.001388    1.879646
      6          6           0       -1.286190   -0.013155   -0.740711
      7          6           0        2.415349    0.005578    0.014752
      8          1           0        1.194584   -0.017290   -1.683772
      9          6           0        2.400563    0.019708    1.398617
     10          1           0        1.209438    0.024411    3.064408
     11          8           0       -2.174595    0.839863   -0.412542
     12          8           0       -1.449380   -0.863313   -1.661227
     13          1           0        3.270315    0.021574   -0.483669
     14          1           0        3.254554    0.009066    1.909081
     15          1           0       -2.935870    0.861555   -0.886089
 ---------------------------------------------------------------------
                    Distance matrix (angstroms):
                    1          2          3          4          5
     1  C    0.000000
     2  C    1.390162   0.000000
     3  C    1.391945   2.408112   0.000000
     4  C    2.403379   1.386690   2.774832   0.000000
     5  H    2.066039   0.987443   3.299073   2.069721   0.000000
     6  C    1.484288   2.488991   2.493388   3.762345   2.655206
     7  C    2.415401   2.779513   1.401011   2.396056   3.766955
     8  H    2.064563   3.297939   0.990215   3.764924   4.112127
     9  C    2.778349   2.400659   2.409104   1.378990   3.293530
    10  H    3.294530   2.065535   3.758270   0.983474   2.382624
    11  O    2.367367   2.946859   3.495393   4.278030   2.774231
    12  O    2.367633   3.486687   2.955696   4.669763   3.692008
    13  H    3.305958   3.769173   2.074374   3.294611   4.756607
    14  H    3.773167   3.295676   3.311886   2.059493   4.112253
    15  H    3.185399   3.813519   4.235603   5.161845   3.565564
                    6          7          8          9         10
     6  C    0.000000
     7  C    3.777892   0.000000
     8  H    2.653982   2.091836   0.000000
     9  C    4.262622   1.384016   3.310118   0.000000
    10  H    4.550659   3.279477   4.748386   2.047842   0.000000
    11  O    1.274598   4.684677   3.701636   4.988489   4.919941
    12  O    1.263626   4.301164   2.776115   4.996442   5.494451
    13  H    4.563881   0.989771   2.398003   2.073517   4.103177
    14  H    5.257398   2.071897   4.141589   0.994981   2.348938
    15  H    1.872885   5.493611   4.297595   5.865672   5.787125
                   11         12         13         14         15
    11  O    0.000000
    12  O    2.232926   0.000000
    13  H    5.506514   4.944208   0.000000
    14  H    5.962869   5.969517   2.392834   0.000000
    15  H    0.896804   2.405340   6.275687   6.845514   0.000000
 Stoichiometry    C7H6O2
 Framework group  C1[X(C7H6O2)]
 Deg. of freedom    39
 Full point group                 C1      NOp   1
 Largest Abelian subgroup         C1      NOp   1
 Largest concise Abelian subgroup C1      NOp   1
                         Standard orientation:                         
 ---------------------------------------------------------------------
 Center     Atomic      Atomic             Coordinates (Angstroms)
 Number     Number       Type             X           Y           Z
 ---------------------------------------------------------------------
      1          6           0        0.220760    0.021258    0.011322
      2          6           0       -0.455411   -1.168684    0.255000
      3          6           0       -0.496097    1.187834   -0.239136
      4          6           0       -1.841726   -1.192480    0.233180
      5          1           0        0.055761   -1.994397    0.433726
      6          6           0        1.704675    0.047554    0.031691
      7          6           0       -1.896657    1.153823   -0.249447
      8          1           0       -0.004105    2.033025   -0.394451
      9          6           0       -2.556732   -0.040645   -0.019124
     10          1           0       -2.326246   -2.032796    0.395446
     11          8           0        2.328251   -0.829931   -0.650784
     12          8           0        2.288017    0.932394    0.719819
     13          1           0       -2.401078    1.982948   -0.443758
     14          1           0       -3.551238   -0.070098   -0.010414
     15          1           0        3.223887   -0.790340   -0.673737
 ---------------------------------------------------------------------
 Rotational constants (GHZ):           3.9687801           1.1837329           0.9789171
 Leave Link  202 at Sun Nov  6 23:01:49 2022, MaxMem= 16106127360 cpu:               0.3 elap:               0.0
 (Enter /opt/ap/G16/B01/g16/l301.exe)
 Standard basis: 6-311++G(d,p) (5D, 7F)
 Ernie: Thresh=  0.10000D-02 Tol=  0.10000D-05 Strict=F.
 There are   249 symmetry adapted cartesian basis functions of A   symmetry.
 There are   240 symmetry adapted basis functions of A   symmetry.
   240 basis functions,   378 primitive gaussians,   249 cartesian basis functions
    32 alpha electrons       32 beta electrons
       nuclear repulsion energy       408.6890134943 Hartrees.
 IExCor= 4639 DFT=T Ex+Corr=wB97XD ExCW=0 ScaHFX=  1.000000
 ScaDFX=  1.000000  1.000000  1.000000  1.000000 ScalE2=  1.000000  1.000000
 IRadAn=      5 IRanWt=     -1 IRanGd=            0 ICorTp=0 IEmpDi=121
 HFx  wShort=  0.000000 wLong=  0.200000 cFull=  0.222036 cShort=  0.000000 cLong=  0.777964
 DFx  wShort=  0.000000 wLong=  0.200000 cFull=  0.000000 cShort=  0.000000 cLong=  1.000000
 NAtoms=   15 NActive=   15 NUniq=   15 SFac= 1.00D+00 NAtFMM=   60 NAOKFM=F Big=F
 Integral buffers will be    131072 words long.
 Raffenetti 2 integral format.
 Two-electron integral symmetry is turned on.
 R6Disp:  Grimme-D2 Dispersion energy=       -0.0064524066 Hartrees.
 Nuclear repulsion after empirical dispersion term =      408.6825610877 Hartrees.
 Leave Link  301 at Sun Nov  6 23:01:49 2022, MaxMem= 16106127360 cpu:               1.3 elap:               0.0
 (Enter /opt/ap/G16/B01/g16/l302.exe)
 NPDir=0 NMtPBC=     1 NCelOv=     1 NCel=       1 NClECP=     1 NCelD=      1
         NCelK=      1 NCelE2=     1 NClLst=     1 CellRange=     0.0.
 One-electron integrals computed using PRISM.
 One-electron integral symmetry used in STVInt
 NBasis=   240 RedAO= T EigKep=  1.21D-06  NBF=   240
 NBsUse=   240 1.00D-06 EigRej= -1.00D+00 NBFU=   240
 Precomputing XC quadrature grid using
 IXCGrd= 4 IRadAn=           5 IRanWt=          -1 IRanGd=           0 AccXCQ= 0.00D+00.
 Generated NRdTot=       0 NPtTot=           0 NUsed=           0 NTot=          32
 NSgBfM=   249   249   249   249   249 MxSgAt=    15 MxSgA2=    15.
 Leave Link  302 at Sun Nov  6 23:01:49 2022, MaxMem= 16106127360 cpu:               5.3 elap:               0.2
 (Enter /opt/ap/G16/B01/g16/l303.exe)
 DipDrv:  MaxL=1.
 Leave Link  303 at Sun Nov  6 23:01:49 2022, MaxMem= 16106127360 cpu:               1.2 elap:               0.0
 (Enter /opt/ap/G16/B01/g16/l401.exe)
 ExpMin= 3.60D-02 ExpMax= 8.59D+03 ExpMxC= 1.30D+03 IAcc=3 IRadAn=         5 AccDes= 0.00D+00
 Harris functional with IExCor= 4639 and IRadAn=       5 diagonalized for initial guess.
 HarFok:  IExCor= 4639 AccDes= 0.00D+00 IRadAn=         5 IDoV= 1 UseB2=F ITyADJ=14
 ICtDFT=  3500011 ScaDFX=  1.000000  1.000000  1.000000  1.000000
 FoFCou: FMM=F IPFlag=           0 FMFlag=      100000 FMFlg1=           0
         NFxFlg=           0 DoJE=T BraDBF=F KetDBF=T FulRan=T
         wScrn=  0.000000 ICntrl=       500 IOpCl=  0 I1Cent=   200000004 NGrid=           0
         NMat0=    1 NMatS0=      1 NMatT0=    0 NMatD0=    1 NMtDS0=    0 NMtDT0=    0
 Petite list used in FoFCou.
 Harris En= -403.251595709250    
 JPrj=0 DoOrth=F DoCkMO=F.
 Leave Link  401 at Sun Nov  6 23:01:49 2022, MaxMem= 16106127360 cpu:              11.8 elap:               0.4
 (Enter /opt/ap/G16/B01/g16/l502.exe)
 Integral symmetry usage will be decided dynamically.
 Closed shell SCF:
 Using DIIS extrapolation, IDIIS=  1040.
 NGot= 16106127360 LenX= 16105992971 LenY= 16105930529
 Requested convergence on RMS density matrix=1.00D-08 within 512 cycles.
 Requested convergence on MAX density matrix=1.00D-06.
 Requested convergence on             energy=1.00D-06.
 No special actions if energy rises.
 Fock matrices will be formed incrementally for  20 cycles.

 Cycle   1  Pass 1  IDiag  1:
 FoFJK:  IHMeth= 1 ICntrl=       0 DoSepK=T KAlg= 0 I1Cent=           0 FoldK=F
 IRaf=         1 NMat=       1 IRICut=       1 DoRegI=T DoRafI=F ISym2E= 0 IDoP0=0 IntGTp=1.
 FoFCou: FMM=F IPFlag=           0 FMFlag=      100000 FMFlg1=           0
         NFxFlg=           0 DoJE=T BraDBF=F KetDBF=F FulRan=T
         wScrn=  0.000000 ICntrl=       500 IOpCl=  0 I1Cent=           0 NGrid=           0
         NMat0=    1 NMatS0=      1 NMatT0=    0 NMatD0=    1 NMtDS0=    0 NMtDT0=    0
 Symmetry not used in FoFCou.
 E= -420.625748165418    
 DIIS: error= 7.57D-02 at cycle   1 NSaved=   1.
 NSaved= 1 IEnMin= 1 EnMin= -420.625748165418     IErMin= 1 ErrMin= 7.57D-02
 ErrMax= 7.57D-02  0.00D+00 EMaxC= 1.00D-01 BMatC= 8.62D-01 BMatP= 8.62D-01
 IDIUse=3 WtCom= 2.43D-01 WtEn= 7.57D-01
 Coeff-Com:  0.100D+01
 Coeff-En:   0.100D+01
 Coeff:      0.100D+01
 Gap=     0.475 Goal=   None    Shift=    0.000
 GapD=    0.475 DampG=2.000 DampE=0.500 DampFc=1.0000 IDamp=-1.
 RMSDP=2.05D-02 MaxDP=1.30D+00              OVMax= 9.80D-02

 Cycle   2  Pass 1  IDiag  1:
 RMSU=  1.27D-02    CP:  7.25D-01
 E= -420.697651950219     Delta-E=       -0.071903784800 Rises=F Damp=F
 DIIS: error= 1.33D-02 at cycle   2 NSaved=   2.
 NSaved= 2 IEnMin= 2 EnMin= -420.697651950219     IErMin= 2 ErrMin= 1.33D-02
 ErrMax= 1.33D-02  0.00D+00 EMaxC= 1.00D-01 BMatC= 5.71D-02 BMatP= 8.62D-01
 IDIUse=3 WtCom= 8.67D-01 WtEn= 1.33D-01
 Coeff-Com:  0.135D+00 0.865D+00
 Coeff-En:   0.943D-01 0.906D+00
 Coeff:      0.130D+00 0.870D+00
 Gap=     0.450 Goal=   None    Shift=    0.000
 RMSDP=8.66D-03 MaxDP=4.91D-01 DE=-7.19D-02 OVMax= 8.94D-02

 Cycle   3  Pass 1  IDiag  1:
 RMSU=  6.19D-03    CP:  6.57D-01  6.38D-01
 E= -420.713547868645     Delta-E=       -0.015895918426 Rises=F Damp=F
 DIIS: error= 1.29D-02 at cycle   3 NSaved=   3.
 NSaved= 3 IEnMin= 3 EnMin= -420.713547868645     IErMin= 3 ErrMin= 1.29D-02
 ErrMax= 1.29D-02  0.00D+00 EMaxC= 1.00D-01 BMatC= 3.62D-02 BMatP= 5.71D-02
 IDIUse=3 WtCom= 8.71D-01 WtEn= 1.29D-01
 Coeff-Com:  0.284D-01 0.449D+00 0.523D+00
 Coeff-En:   0.000D+00 0.387D+00 0.613D+00
 Coeff:      0.248D-01 0.441D+00 0.535D+00
 Gap=     0.361 Goal=   None    Shift=    0.000
 RMSDP=3.60D-03 MaxDP=1.53D-01 DE=-1.59D-02 OVMax= 5.33D-02

 Cycle   4  Pass 1  IDiag  1:
 RMSU=  1.88D-03    CP:  6.58D-01  8.27D-01  6.90D-01
 E= -420.739868698794     Delta-E=       -0.026320830149 Rises=F Damp=F
 DIIS: error= 2.94D-03 at cycle   4 NSaved=   4.
 NSaved= 4 IEnMin= 4 EnMin= -420.739868698794     IErMin= 4 ErrMin= 2.94D-03
 ErrMax= 2.94D-03  0.00D+00 EMaxC= 1.00D-01 BMatC= 2.10D-03 BMatP= 3.62D-02
 IDIUse=3 WtCom= 9.71D-01 WtEn= 2.94D-02
 Coeff-Com:  0.105D-01 0.221D+00 0.303D+00 0.465D+00
 Coeff-En:   0.000D+00 0.000D+00 0.000D+00 0.100D+01
 Coeff:      0.102D-01 0.215D+00 0.294D+00 0.481D+00
 Gap=     0.361 Goal=   None    Shift=    0.000
 RMSDP=8.02D-04 MaxDP=5.08D-02 DE=-2.63D-02 OVMax= 1.33D-02

 Cycle   5  Pass 1  IDiag  1:
 RMSU=  6.32D-04    CP:  6.54D-01  8.11D-01  7.23D-01  8.35D-01
 E= -420.741291491992     Delta-E=       -0.001422793198 Rises=F Damp=F
 DIIS: error= 4.38D-04 at cycle   5 NSaved=   5.
 NSaved= 5 IEnMin= 5 EnMin= -420.741291491992     IErMin= 5 ErrMin= 4.38D-04
 ErrMax= 4.38D-04  0.00D+00 EMaxC= 1.00D-01 BMatC= 5.25D-05 BMatP= 2.10D-03
 IDIUse=3 WtCom= 9.96D-01 WtEn= 4.38D-03
 Coeff-Com:  0.481D-03 0.186D-01 0.341D-01 0.153D+00 0.794D+00
 Coeff-En:   0.000D+00 0.000D+00 0.000D+00 0.000D+00 0.100D+01
 Coeff:      0.479D-03 0.185D-01 0.339D-01 0.152D+00 0.795D+00
 Gap=     0.359 Goal=   None    Shift=    0.000
 RMSDP=2.16D-04 MaxDP=9.97D-03 DE=-1.42D-03 OVMax= 2.87D-03

 Cycle   6  Pass 1  IDiag  1:
 RMSU=  1.36D-04    CP:  6.54D-01  8.15D-01  7.44D-01  8.84D-01  1.06D+00
 E= -420.741332584659     Delta-E=       -0.000041092667 Rises=F Damp=F
 DIIS: error= 1.90D-04 at cycle   6 NSaved=   6.
 NSaved= 6 IEnMin= 6 EnMin= -420.741332584659     IErMin= 6 ErrMin= 1.90D-04
 ErrMax= 1.90D-04  0.00D+00 EMaxC= 1.00D-01 BMatC= 7.33D-06 BMatP= 5.25D-05
 IDIUse=3 WtCom= 9.98D-01 WtEn= 1.90D-03
 Coeff-Com: -0.958D-03-0.164D-01-0.178D-01 0.120D-01 0.342D+00 0.682D+00
 Coeff-En:   0.000D+00 0.000D+00 0.000D+00 0.000D+00 0.000D+00 0.100D+01
 Coeff:     -0.957D-03-0.163D-01-0.178D-01 0.119D-01 0.341D+00 0.682D+00
 Gap=     0.359 Goal=   None    Shift=    0.000
 RMSDP=1.18D-04 MaxDP=8.78D-03 DE=-4.11D-05 OVMax= 1.03D-03

 Cycle   7  Pass 1  IDiag  1:
 RMSU=  4.16D-05    CP:  6.53D-01  8.13D-01  7.53D-01  9.07D-01  1.14D+00
                    CP:  1.12D+00
 E= -420.741340125815     Delta-E=       -0.000007541156 Rises=F Damp=F
 DIIS: error= 4.88D-05 at cycle   7 NSaved=   7.
 NSaved= 7 IEnMin= 7 EnMin= -420.741340125815     IErMin= 7 ErrMin= 4.88D-05
 ErrMax= 4.88D-05  0.00D+00 EMaxC= 1.00D-01 BMatC= 3.26D-07 BMatP= 7.33D-06
 IDIUse=1 WtCom= 1.00D+00 WtEn= 0.00D+00
 Coeff-Com: -0.228D-03-0.535D-02-0.661D-02-0.140D-01-0.616D-02 0.125D+00
 Coeff-Com:  0.907D+00
 Coeff:     -0.228D-03-0.535D-02-0.661D-02-0.140D-01-0.616D-02 0.125D+00
 Coeff:      0.907D+00
 Gap=     0.359 Goal=   None    Shift=    0.000
 RMSDP=4.20D-05 MaxDP=2.50D-03 DE=-7.54D-06 OVMax= 4.13D-04

 Cycle   8  Pass 1  IDiag  1:
 RMSU=  1.37D-05    CP:  6.52D-01  8.13D-01  7.55D-01  9.15D-01  1.19D+00
                    CP:  1.18D+00  1.16D+00
 E= -420.741340816173     Delta-E=       -0.000000690358 Rises=F Damp=F
 DIIS: error= 1.36D-05 at cycle   8 NSaved=   8.
 NSaved= 8 IEnMin= 8 EnMin= -420.741340816173     IErMin= 8 ErrMin= 1.36D-05
 ErrMax= 1.36D-05  0.00D+00 EMaxC= 1.00D-01 BMatC= 4.96D-08 BMatP= 3.26D-07
 IDIUse=1 WtCom= 1.00D+00 WtEn= 0.00D+00
 Coeff-Com:  0.394D-04 0.401D-03 0.399D-03-0.575D-02-0.415D-01-0.459D-01
 Coeff-Com:  0.251D+00 0.841D+00
 Coeff:      0.394D-04 0.401D-03 0.399D-03-0.575D-02-0.415D-01-0.459D-01
 Coeff:      0.251D+00 0.841D+00
 Gap=     0.359 Goal=   None    Shift=    0.000
 RMSDP=1.15D-05 MaxDP=5.42D-04 DE=-6.90D-07 OVMax= 1.72D-04

 Cycle   9  Pass 1  IDiag  1:
 RMSU=  4.21D-06    CP:  6.52D-01  8.13D-01  7.55D-01  9.16D-01  1.20D+00
                    CP:  1.20D+00  1.25D+00  1.17D+00
 E= -420.741340915298     Delta-E=       -0.000000099125 Rises=F Damp=F
 DIIS: error= 8.15D-06 at cycle   9 NSaved=   9.
 NSaved= 9 IEnMin= 9 EnMin= -420.741340915298     IErMin= 9 ErrMin= 8.15D-06
 ErrMax= 8.15D-06  0.00D+00 EMaxC= 1.00D-01 BMatC= 6.95D-09 BMatP= 4.96D-08
 IDIUse=1 WtCom= 1.00D+00 WtEn= 0.00D+00
 Coeff-Com:  0.448D-04 0.867D-03 0.109D-02-0.104D-03-0.119D-01-0.318D-01
 Coeff-Com: -0.356D-01 0.271D+00 0.807D+00
 Coeff:      0.448D-04 0.867D-03 0.109D-02-0.104D-03-0.119D-01-0.318D-01
 Coeff:     -0.356D-01 0.271D+00 0.807D+00
 Gap=     0.359 Goal=   None    Shift=    0.000
 RMSDP=4.34D-06 MaxDP=3.56D-04 DE=-9.91D-08 OVMax= 5.98D-05

 Cycle  10  Pass 1  IDiag  1:
 RMSU=  2.04D-06    CP:  6.52D-01  8.13D-01  7.56D-01  9.14D-01  1.20D+00
                    CP:  1.20D+00  1.26D+00  1.24D+00  1.33D+00
 E= -420.741340928586     Delta-E=       -0.000000013288 Rises=F Damp=F
 DIIS: error= 1.33D-06 at cycle  10 NSaved=  10.
 NSaved=10 IEnMin=10 EnMin= -420.741340928586     IErMin=10 ErrMin= 1.33D-06
 ErrMax= 1.33D-06  0.00D+00 EMaxC= 1.00D-01 BMatC= 9.00D-10 BMatP= 6.95D-09
 IDIUse=1 WtCom= 1.00D+00 WtEn= 0.00D+00
 Coeff-Com:  0.871D-05 0.191D-03 0.266D-03 0.530D-03 0.129D-02-0.470D-02
 Coeff-Com: -0.376D-01-0.186D-01 0.253D+00 0.806D+00
 Coeff:      0.871D-05 0.191D-03 0.266D-03 0.530D-03 0.129D-02-0.470D-02
 Coeff:     -0.376D-01-0.186D-01 0.253D+00 0.806D+00
 Gap=     0.359 Goal=   None    Shift=    0.000
 RMSDP=1.44D-06 MaxDP=7.80D-05 DE=-1.33D-08 OVMax= 2.40D-05

 Cycle  11  Pass 1  IDiag  1:
 RMSU=  4.93D-07    CP:  6.52D-01  8.13D-01  7.55D-01  9.14D-01  1.20D+00
                    CP:  1.19D+00  1.26D+00  1.28D+00  1.47D+00  1.04D+00
 E= -420.741340930217     Delta-E=       -0.000000001631 Rises=F Damp=F
 DIIS: error= 6.83D-07 at cycle  11 NSaved=  11.
 NSaved=11 IEnMin=11 EnMin= -420.741340930217     IErMin=11 ErrMin= 6.83D-07
 ErrMax= 6.83D-07  0.00D+00 EMaxC= 1.00D-01 BMatC= 1.63D-10 BMatP= 9.00D-10
 IDIUse=1 WtCom= 1.00D+00 WtEn= 0.00D+00
 Coeff-Com: -0.231D-05-0.256D-04-0.172D-04 0.269D-03 0.230D-02 0.229D-02
 Coeff-Com: -0.939D-02-0.517D-01-0.232D-01 0.313D+00 0.766D+00
 Coeff:     -0.231D-05-0.256D-04-0.172D-04 0.269D-03 0.230D-02 0.229D-02
 Coeff:     -0.939D-02-0.517D-01-0.232D-01 0.313D+00 0.766D+00
 Gap=     0.359 Goal=   None    Shift=    0.000
 RMSDP=6.01D-07 MaxDP=3.50D-05 DE=-1.63D-09 OVMax= 8.94D-06

 Cycle  12  Pass 1  IDiag  1:
 RMSU=  2.91D-07    CP:  6.52D-01  8.13D-01  7.55D-01  9.14D-01  1.20D+00
                    CP:  1.19D+00  1.26D+00  1.29D+00  1.51D+00  1.11D+00
                    CP:  1.18D+00
 E= -420.741340930500     Delta-E=       -0.000000000283 Rises=F Damp=F
 DIIS: error= 1.88D-07 at cycle  12 NSaved=  12.
 NSaved=12 IEnMin=12 EnMin= -420.741340930500     IErMin=12 ErrMin= 1.88D-07
 ErrMax= 1.88D-07  0.00D+00 EMaxC= 1.00D-01 BMatC= 1.26D-11 BMatP= 1.63D-10
 IDIUse=1 WtCom= 1.00D+00 WtEn= 0.00D+00
 Coeff-Com: -0.131D-05-0.227D-04-0.267D-04 0.179D-04 0.404D-03 0.851D-03
 Coeff-Com:  0.204D-02-0.105D-01-0.280D-01 0.433D-03 0.167D+00 0.868D+00
 Coeff:     -0.131D-05-0.227D-04-0.267D-04 0.179D-04 0.404D-03 0.851D-03
 Coeff:      0.204D-02-0.105D-01-0.280D-01 0.433D-03 0.167D+00 0.868D+00
 Gap=     0.359 Goal=   None    Shift=    0.000
 RMSDP=1.82D-07 MaxDP=9.30D-06 DE=-2.83D-10 OVMax= 4.12D-06

 Cycle  13  Pass 1  IDiag  1:
 RMSU=  9.22D-08    CP:  6.52D-01  8.13D-01  7.55D-01  9.14D-01  1.20D+00
                    CP:  1.19D+00  1.26D+00  1.29D+00  1.52D+00  1.10D+00
                    CP:  1.29D+00  1.18D+00
 E= -420.741340930539     Delta-E=       -0.000000000039 Rises=F Damp=F
 DIIS: error= 1.41D-07 at cycle  13 NSaved=  13.
 NSaved=13 IEnMin=13 EnMin= -420.741340930539     IErMin=13 ErrMin= 1.41D-07
 ErrMax= 1.41D-07  0.00D+00 EMaxC= 1.00D-01 BMatC= 2.87D-12 BMatP= 1.26D-11
 IDIUse=1 WtCom= 1.00D+00 WtEn= 0.00D+00
 Coeff-Com:  0.122D-06-0.353D-05-0.764D-05-0.544D-04-0.388D-03-0.239D-03
 Coeff-Com:  0.272D-02 0.762D-02-0.260D-02-0.666D-01-0.134D+00 0.229D+00
 Coeff-Com:  0.964D+00
 Coeff:      0.122D-06-0.353D-05-0.764D-05-0.544D-04-0.388D-03-0.239D-03
 Coeff:      0.272D-02 0.762D-02-0.260D-02-0.666D-01-0.134D+00 0.229D+00
 Coeff:      0.964D+00
 Gap=     0.359 Goal=   None    Shift=    0.000
 RMSDP=8.97D-08 MaxDP=4.98D-06 DE=-3.91D-11 OVMax= 2.69D-06

 Cycle  14  Pass 1  IDiag  1:
 RMSU=  3.62D-08    CP:  6.52D-01  8.13D-01  7.55D-01  9.14D-01  1.20D+00
                    CP:  1.19D+00  1.26D+00  1.29D+00  1.52D+00  1.09D+00
                    CP:  1.37D+00  1.35D+00  1.34D+00
 E= -420.741340930549     Delta-E=       -0.000000000010 Rises=F Damp=F
 DIIS: error= 3.79D-08 at cycle  14 NSaved=  14.
 NSaved=14 IEnMin=14 EnMin= -420.741340930549     IErMin=14 ErrMin= 3.79D-08
 ErrMax= 3.79D-08  0.00D+00 EMaxC= 1.00D-01 BMatC= 2.21D-13 BMatP= 2.87D-12
 IDIUse=1 WtCom= 1.00D+00 WtEn= 0.00D+00
 Coeff-Com:  0.933D-07 0.235D-05 0.308D-05 0.121D-05-0.495D-04-0.520D-04
 Coeff-Com: -0.303D-03 0.103D-02 0.305D-02-0.171D-03-0.137D-01-0.996D-01
 Coeff-Com: -0.349D-01 0.114D+01
 Coeff:      0.933D-07 0.235D-05 0.308D-05 0.121D-05-0.495D-04-0.520D-04
 Coeff:     -0.303D-03 0.103D-02 0.305D-02-0.171D-03-0.137D-01-0.996D-01
 Coeff:     -0.349D-01 0.114D+01
 Gap=     0.359 Goal=   None    Shift=    0.000
 RMSDP=3.88D-08 MaxDP=2.96D-06 DE=-1.01D-11 OVMax= 9.56D-07

 Cycle  15  Pass 1  IDiag  1:
 RMSU=  8.56D-09    CP:  6.52D-01  8.13D-01  7.55D-01  9.14D-01  1.20D+00
                    CP:  1.19D+00  1.26D+00  1.29D+00  1.52D+00  1.08D+00
                    CP:  1.38D+00  1.37D+00  1.54D+00  1.38D+00
 E= -420.741340930551     Delta-E=       -0.000000000002 Rises=F Damp=F
 DIIS: error= 1.21D-08 at cycle  15 NSaved=  15.
 NSaved=15 IEnMin=15 EnMin= -420.741340930551     IErMin=15 ErrMin= 1.21D-08
 ErrMax= 1.21D-08  0.00D+00 EMaxC= 1.00D-01 BMatC= 3.46D-14 BMatP= 2.21D-13
 IDIUse=1 WtCom= 1.00D+00 WtEn= 0.00D+00
 Coeff-Com:  0.182D-07 0.113D-05 0.184D-05 0.613D-05 0.232D-04 0.129D-04
 Coeff-Com: -0.372D-03-0.402D-03 0.124D-02 0.694D-02 0.104D-01-0.494D-01
 Coeff-Com: -0.110D+00 0.350D+00 0.792D+00
 Coeff:      0.182D-07 0.113D-05 0.184D-05 0.613D-05 0.232D-04 0.129D-04
 Coeff:     -0.372D-03-0.402D-03 0.124D-02 0.694D-02 0.104D-01-0.494D-01
 Coeff:     -0.110D+00 0.350D+00 0.792D+00
 Gap=     0.359 Goal=   None    Shift=    0.000
 RMSDP=7.53D-09 MaxDP=4.60D-07 DE=-1.82D-12 OVMax= 1.68D-07

 SCF Done:  E(RwB97XD) =  -420.741340931     A.U. after   15 cycles
            NFock= 15  Conv=0.75D-08     -V/T= 2.0015
 KE= 4.201146581688D+02 PE=-1.800804747456D+03 EE= 5.512661872688D+02
 Leave Link  502 at Sun Nov  6 23:02:02 2022, MaxMem= 16106127360 cpu:             408.1 elap:              12.8
 (Enter /opt/ap/G16/B01/g16/l601.exe)
 Copying SCF densities to generalized density rwf, IOpCl= 0 IROHF=0.

 **********************************************************************

            Population analysis using the SCF Density.

 **********************************************************************

 Orbital symmetries:
       Occupied  (A) (A) (A) (A) (A) (A) (A) (A) (A) (A) (A) (A)
                 (A) (A) (A) (A) (A) (A) (A) (A) (A) (A) (A) (A)
                 (A) (A) (A) (A) (A) (A) (A) (A)
       Virtual   (A) (A) (A) (A) (A) (A) (A) (A) (A) (A) (A) (A)
                 (A) (A) (A) (A) (A) (A) (A) (A) (A) (A) (A) (A)
                 (A) (A) (A) (A) (A) (A) (A) (A) (A) (A) (A) (A)
                 (A) (A) (A) (A) (A) (A) (A) (A) (A) (A) (A) (A)
                 (A) (A) (A) (A) (A) (A) (A) (A) (A) (A) (A) (A)
                 (A) (A) (A) (A) (A) (A) (A) (A) (A) (A) (A) (A)
                 (A) (A) (A) (A) (A) (A) (A) (A) (A) (A) (A) (A)
                 (A) (A) (A) (A) (A) (A) (A) (A) (A) (A) (A) (A)
                 (A) (A) (A) (A) (A) (A) (A) (A) (A) (A) (A) (A)
                 (A) (A) (A) (A) (A) (A) (A) (A) (A) (A) (A) (A)
                 (A) (A) (A) (A) (A) (A) (A) (A) (A) (A) (A) (A)
                 (A) (A) (A) (A) (A) (A) (A) (A) (A) (A) (A) (A)
                 (A) (A) (A) (A) (A) (A) (A) (A) (A) (A) (A) (A)
                 (A) (A) (A) (A) (A) (A) (A) (A) (A) (A) (A) (A)
                 (A) (A) (A) (A) (A) (A) (A) (A) (A) (A) (A) (A)
                 (A) (A) (A) (A) (A) (A) (A) (A) (A) (A) (A) (A)
                 (A) (A) (A) (A) (A) (A) (A) (A) (A) (A) (A) (A)
                 (A) (A) (A) (A)
 The electronic state is 1-A.
 Alpha  occ. eigenvalues --  -19.31837 -19.23179 -10.43407 -10.31299 -10.29431
 Alpha  occ. eigenvalues --  -10.29330 -10.29024 -10.28904 -10.28727  -1.25956
 Alpha  occ. eigenvalues --   -1.10831  -0.98081  -0.88944  -0.87071  -0.80646
 Alpha  occ. eigenvalues --   -0.73462  -0.72191  -0.65852  -0.60698  -0.58772
 Alpha  occ. eigenvalues --   -0.57588  -0.55846  -0.54076  -0.53415  -0.49148
 Alpha  occ. eigenvalues --   -0.47447  -0.45460  -0.45063  -0.40836  -0.37222
 Alpha  occ. eigenvalues --   -0.34428  -0.33699
 Alpha virt. eigenvalues --    0.02202   0.03778   0.04231   0.04564   0.05164
 Alpha virt. eigenvalues --    0.06435   0.07368   0.08673   0.08949   0.10384
 Alpha virt. eigenvalues --    0.12313   0.12613   0.12840   0.14326   0.15140
 Alpha virt. eigenvalues --    0.16077   0.16237   0.17031   0.17309   0.17957
 Alpha virt. eigenvalues --    0.18522   0.19048   0.19295   0.20178   0.20228
 Alpha virt. eigenvalues --    0.20942   0.21066   0.21308   0.23107   0.23809
 Alpha virt. eigenvalues --    0.25465   0.25861   0.26745   0.27461   0.27660
 Alpha virt. eigenvalues --    0.29124   0.29453   0.30246   0.30602   0.31118
 Alpha virt. eigenvalues --    0.32406   0.34571   0.35118   0.35687   0.36594
 Alpha virt. eigenvalues --    0.36649   0.38252   0.38800   0.38944   0.39933
 Alpha virt. eigenvalues --    0.40502   0.41946   0.42704   0.43568   0.44097
 Alpha virt. eigenvalues --    0.44491   0.45706   0.50409   0.53378   0.56837
 Alpha virt. eigenvalues --    0.59375   0.61352   0.62019   0.63207   0.63616
 Alpha virt. eigenvalues --    0.64644   0.64748   0.65960   0.67564   0.68604
 Alpha virt. eigenvalues --    0.69462   0.71006   0.72833   0.74570   0.75565
 Alpha virt. eigenvalues --    0.77197   0.80630   0.80807   0.82121   0.83153
 Alpha virt. eigenvalues --    0.87067   0.87245   0.90269   0.92159   0.93770
 Alpha virt. eigenvalues --    0.93975   0.95105   0.96199   0.97870   1.00215
 Alpha virt. eigenvalues --    1.01244   1.02531   1.08357   1.09077   1.13082
 Alpha virt. eigenvalues --    1.13819   1.15851   1.16928   1.18583   1.20607
 Alpha virt. eigenvalues --    1.22085   1.24987   1.25706   1.28133   1.31453
 Alpha virt. eigenvalues --    1.37449   1.39366   1.44297   1.45335   1.54160
 Alpha virt. eigenvalues --    1.56454   1.58997   1.59250   1.61464   1.62407
 Alpha virt. eigenvalues --    1.64964   1.66259   1.67028   1.67589   1.74261
 Alpha virt. eigenvalues --    1.75058   1.75419   1.80102   1.83470   1.87777
 Alpha virt. eigenvalues --    1.88102   1.88837   1.90626   1.93438   1.98271
 Alpha virt. eigenvalues --    2.01298   2.02168   2.03086   2.04853   2.05492
 Alpha virt. eigenvalues --    2.06319   2.07497   2.13875   2.17852   2.17989
 Alpha virt. eigenvalues --    2.23453   2.25039   2.32283   2.44304   2.47024
 Alpha virt. eigenvalues --    2.51691   2.53300   2.54056   2.58223   2.62822
 Alpha virt. eigenvalues --    2.68815   2.70851   2.77292   2.80003   2.81040
 Alpha virt. eigenvalues --    2.82724   2.84113   2.88057   2.90604   2.90919
 Alpha virt. eigenvalues --    2.91110   2.91937   2.96490   2.98359   3.00780
 Alpha virt. eigenvalues --    3.02306   3.06714   3.08784   3.16497   3.18437
 Alpha virt. eigenvalues --    3.19529   3.22349   3.25191   3.28813   3.35161
 Alpha virt. eigenvalues --    3.39319   3.43055   3.48815   3.49339   3.63967
 Alpha virt. eigenvalues --    3.66176   3.69223   3.72848   3.85254   3.87702
 Alpha virt. eigenvalues --    4.05301   4.15575   4.27406   4.30217   4.35692
 Alpha virt. eigenvalues --    4.38428   4.40498   4.95008   5.09156   5.18390
 Alpha virt. eigenvalues --    5.27543   5.46952   5.77492   6.07350  23.84391
 Alpha virt. eigenvalues --   23.93841  24.14631  24.21331  24.28407  24.30233
 Alpha virt. eigenvalues --   24.41822  50.02750  50.13270
          Condensed to atoms (all electrons):
               1          2          3          4          5          6
     1  C   12.089373  -2.328163  -3.128032   1.555087  -0.017600  -2.261000
     2  C   -2.328163  10.994493   0.245468  -1.608620   0.382725  -0.734658
     3  C   -3.128032   0.245468  11.159110  -1.411394   0.110888  -0.299498
     4  C    1.555087  -1.608620  -1.411394   6.621385  -0.059189  -0.016831
     5  H   -0.017600   0.382725   0.110888  -0.059189   0.474066  -0.058298
     6  C   -2.261000  -0.734658  -0.299498  -0.016831  -0.058298   8.504905
     7  C    1.188515  -1.501733  -1.320937   1.134836  -0.003997  -0.045606
     8  H   -0.033270   0.120224   0.381899  -0.027234  -0.000461  -0.031748
     9  C   -1.695528   1.342145   1.250953  -0.706184   0.014864   0.071219
    10  H    0.030295  -0.053360  -0.021193   0.402961  -0.009405   0.007116
    11  O   -0.347875  -0.122156  -0.063818   0.050891  -0.011814   0.443878
    12  O   -0.092516   0.041624  -0.079171   0.014835  -0.002793   0.490562
    13  H    0.043867  -0.038654  -0.038307   0.009022   0.000728   0.000914
    14  H    0.003560   0.018047  -0.002037  -0.037048  -0.000760  -0.008434
    15  H   -0.051885   0.007584   0.008090  -0.007530  -0.001668   0.029102
               7          8          9         10         11         12
     1  C    1.188515  -0.033270  -1.695528   0.030295  -0.347875  -0.092516
     2  C   -1.501733   0.120224   1.342145  -0.053360  -0.122156   0.041624
     3  C   -1.320937   0.381899   1.250953  -0.021193  -0.063818  -0.079171
     4  C    1.134836  -0.027234  -0.706184   0.402961   0.050891   0.014835
     5  H   -0.003997  -0.000461   0.014864  -0.009405  -0.011814  -0.002793
     6  C   -0.045606  -0.031748   0.071219   0.007116   0.443878   0.490562
     7  C    6.818307  -0.078143  -0.636558  -0.003740   0.020894   0.009874
     8  H   -0.078143   0.452219   0.028742   0.000386  -0.004072   0.002315
     9  C   -0.636558   0.028742   6.435120  -0.022255  -0.023307   0.001910
    10  H   -0.003740   0.000386  -0.022255   0.471282   0.000377   0.000089
    11  O    0.020894  -0.004072  -0.023307   0.000377   8.002562  -0.133801
    12  O    0.009874   0.002315   0.001910   0.000089  -0.133801   8.056064
    13  H    0.412473  -0.010497  -0.048205  -0.001215  -0.000166  -0.001247
    14  H   -0.029118   0.000216   0.405307  -0.004804  -0.000468  -0.000019
    15  H   -0.006318   0.000669   0.003015  -0.000059   0.303249  -0.008624
              13         14         15
     1  C    0.043867   0.003560  -0.051885
     2  C   -0.038654   0.018047   0.007584
     3  C   -0.038307  -0.002037   0.008090
     4  C    0.009022  -0.037048  -0.007530
     5  H    0.000728  -0.000760  -0.001668
     6  C    0.000914  -0.008434   0.029102
     7  C    0.412473  -0.029118  -0.006318
     8  H   -0.010497   0.000216   0.000669
     9  C   -0.048205   0.405307   0.003015
    10  H   -0.001215  -0.004804  -0.000059
    11  O   -0.000166  -0.000468   0.303249
    12  O   -0.001247  -0.000019  -0.008624
    13  H    0.469688  -0.005252  -0.000254
    14  H   -0.005252   0.470038   0.000011
    15  H   -0.000254   0.000011   0.395589
 Mulliken charges:
               1
     1  C    1.045173
     2  C   -0.764966
     3  C   -0.792021
     4  C    0.085012
     5  H    0.182714
     6  C   -0.091624
     7  C    0.041252
     8  H    0.198757
     9  C   -0.421237
    10  H    0.203525
    11  O   -0.114377
    12  O   -0.299103
    13  H    0.207105
    14  H    0.190762
    15  H    0.329029
 Sum of Mulliken charges =  -0.00000
 Mulliken charges with hydrogens summed into heavy atoms:
               1
     1  C    1.045173
     2  C   -0.582252
     3  C   -0.593265
     4  C    0.288538
     6  C   -0.091624
     7  C    0.248357
     9  C   -0.230475
    11  O    0.214652
    12  O   -0.299103
 Electronic spatial extent (au):  <R**2>=           1158.2360
 Charge=              0.0000 electrons
 Dipole moment (field-independent basis, Debye):
    X=             -1.1370    Y=             -1.7736    Z=             -1.5030  Tot=              2.5880
 Quadrupole moment (field-independent basis, Debye-Ang):
   XX=            -43.1800   YY=            -48.7419   ZZ=            -55.5361
   XY=             -6.1039   XZ=             -5.0163   YZ=             -3.9917
 Traceless Quadrupole moment (field-independent basis, Debye-Ang):
   XX=              5.9727   YY=              0.4108   ZZ=             -6.3835
   XY=             -6.1039   XZ=             -5.0163   YZ=             -3.9917
 Octapole moment (field-independent basis, Debye-Ang**2):
  XXX=             22.6827  YYY=             -2.2115  ZZZ=             -1.6945  XYY=             -4.0200
  XXY=            -20.2809  XXZ=            -17.0458  XZZ=              8.3440  YZZ=             -1.4167
  YYZ=             -1.6168  XYZ=             -1.9105
 Hexadecapole moment (field-independent basis, Debye-Ang**3):
 XXXX=           -873.1060 YYYY=           -316.2517 ZZZZ=           -105.0124 XXXY=            -68.8912
 XXXZ=            -58.1721 YYYX=             -8.9703 YYYZ=             -8.8981 ZZZX=             -6.4387
 ZZZY=              2.8919 XXYY=           -224.1117 XXZZ=           -203.4230 YYZZ=            -78.0434
 XXYZ=             -9.3337 YYXZ=             -4.5643 ZZXY=             -4.7050
 N-N= 4.086825610877D+02 E-N=-1.800804747623D+03  KE= 4.201146581688D+02
 No NMR shielding tensors so no spin-rotation constants.
 Leave Link  601 at Sun Nov  6 23:02:02 2022, MaxMem= 16106127360 cpu:               3.2 elap:               0.1
 (Enter /opt/ap/G16/B01/g16/l9999.exe)
 1\1\GINC-N03\SP\RwB97XD\6-311++G(d,p)\C7H6O2\ROOT\06-Nov-2022\0\\#P wB
 97XD/6-311++G(d,p) scf=maxcycle=512\\_conf028.gjf nmol_natom 1_15\\0,1
 \C\C,1,1.39016191\C,1,1.39194539,2,119.895942\C,2,1.38669027,1,119.880
 75721,3,0.70825972,0\H,2,0.98744251,1,119.71654057,3,-179.90726164,0\C
 ,1,1.48428757,2,119.93615286,4,-179.87772406,0\C,3,1.40101108,1,119.72
 36454,2,-0.26266839,0\H,3,0.9902154,1,119.1886159,2,178.85397616,0\C,4
 ,1.37899003,2,120.45785903,1,-0.48041454,0\H,4,0.9834739,2,120.3044270
 6,1,179.36166981,0\O,6,1.27459751,1,118.00615353,2,50.,0\O,6,1.2636257
 2,1,118.77715367,2,-130.,0\H,7,0.98977053,3,119.37861578,1,-178.935457
 41,0\H,9,0.99498061,4,119.46722635,2,-178.58826714,0\H,11,0.89680392,6
 ,118.15823763,1,176.92714093,0\\Version=ES64L-G16RevB.01\State=1-A\HF=
 -420.7413409\RMSD=7.530e-09\Dipole=0.1227831,0.7181769,0.7112222\Quadr
 upole=6.7728766,-5.6490739,-1.1238028,-3.2605956,-0.6351048,-3.7310382
 \PG=C01 [X(C7H6O2)]\\@


 IT IS A PROFOUNDLY ERRONEOUS TRUISM ... THAT WE SHOULD CULTIVATE
 THE HABIT OF THINKING OF WHAT WE ARE DOING.
 THE PRECISE OPPOSITE IS THE CASE.
 CIVILIZATION ADVANCES BY EXTENDING THE NUMBER OF IMPORTANT OPERATIONS
 WHICH WE CAN PERFORM WITHOUT THINKING ABOUT THEM.

                                    -- ALFRED NORTH WHITEHEAD
 Job cpu time:       0 days  0 hours  7 minutes 21.0 seconds.
 Elapsed time:       0 days  0 hours  0 minutes 13.9 seconds.
 File lengths (MBytes):  RWF=     35 Int=      0 D2E=      0 Chk=      4 Scr=      1
 Normal termination of Gaussian 16 at Sun Nov  6 23:02:02 2022.
