 Entering Gaussian System, Link 0=g16
 Input=_conf002.gjf
 Output=_conf002.log
 Initial command:
 /opt/ap/G16/B01/g16/l1.exe "/tmp2/scr/Gau-30268.inp" -scrdir="/tmp2/scr/"
 Entering Link 1 = /opt/ap/G16/B01/g16/l1.exe PID=     30269.
  
 Copyright (c) 1988-2017, Gaussian, Inc.  All Rights Reserved.
  
 This is part of the Gaussian(R) 16 program.  It is based on
 the Gaussian(R) 09 system (copyright 2009, Gaussian, Inc.),
 the Gaussian(R) 03 system (copyright 2003, Gaussian, Inc.),
 the Gaussian(R) 98 system (copyright 1998, Gaussian, Inc.),
 the Gaussian(R) 94 system (copyright 1995, Gaussian, Inc.),
 the Gaussian 92(TM) system (copyright 1992, Gaussian, Inc.),
 the Gaussian 90(TM) system (copyright 1990, Gaussian, Inc.),
 the Gaussian 88(TM) system (copyright 1988, Gaussian, Inc.),
 the Gaussian 86(TM) system (copyright 1986, Carnegie Mellon
 University), and the Gaussian 82(TM) system (copyright 1983,
 Carnegie Mellon University). Gaussian is a federally registered
 trademark of Gaussian, Inc.
  
 This software contains proprietary and confidential information,
 including trade secrets, belonging to Gaussian, Inc.
  
 This software is provided under written license and may be
 used, copied, transmitted, or stored only in accord with that
 written license.
  
 The following legend is applicable only to US Government
 contracts under FAR:
  
                    RESTRICTED RIGHTS LEGEND
  
 Use, reproduction and disclosure by the US Government is
 subject to restrictions as set forth in subparagraphs (a)
 and (c) of the Commercial Computer Software - Restricted
 Rights clause in FAR 52.227-19.
  
 Gaussian, Inc.
 340 Quinnipiac St., Bldg. 40, Wallingford CT 06492
  
  
 ---------------------------------------------------------------
 Warning -- This program may not be used in any manner that
 competes with the business of Gaussian, Inc. or will provide
 assistance to any competitor of Gaussian, Inc.  The licensee
 of this program is prohibited from giving any competitor of
 Gaussian, Inc. access to this program.  By using this program,
 the user acknowledges that Gaussian, Inc. is engaged in the
 business of creating and licensing software in the field of
 computational chemistry and represents and warrants to the
 licensee that it is not a competitor of Gaussian, Inc. and that
 it will not use this program in any manner prohibited above.
 ---------------------------------------------------------------
  

 Cite this work as:
 Gaussian 16, Revision B.01,
 M. J. Frisch, G. W. Trucks, H. B. Schlegel, G. E. Scuseria, 
 M. A. Robb, J. R. Cheeseman, G. Scalmani, V. Barone, 
 G. A. Petersson, H. Nakatsuji, X. Li, M. Caricato, A. V. Marenich, 
 J. Bloino, B. G. Janesko, R. Gomperts, B. Mennucci, H. P. Hratchian, 
 J. V. Ortiz, A. F. Izmaylov, J. L. Sonnenberg, D. Williams-Young, 
 F. Ding, F. Lipparini, F. Egidi, J. Goings, B. Peng, A. Petrone, 
 T. Henderson, D. Ranasinghe, V. G. Zakrzewski, J. Gao, N. Rega, 
 G. Zheng, W. Liang, M. Hada, M. Ehara, K. Toyota, R. Fukuda, 
 J. Hasegawa, M. Ishida, T. Nakajima, Y. Honda, O. Kitao, H. Nakai, 
 T. Vreven, K. Throssell, J. A. Montgomery, Jr., J. E. Peralta, 
 F. Ogliaro, M. J. Bearpark, J. J. Heyd, E. N. Brothers, K. N. Kudin, 
 V. N. Staroverov, T. A. Keith, R. Kobayashi, J. Normand, 
 K. Raghavachari, A. P. Rendell, J. C. Burant, S. S. Iyengar, 
 J. Tomasi, M. Cossi, J. M. Millam, M. Klene, C. Adamo, R. Cammi, 
 J. W. Ochterski, R. L. Martin, K. Morokuma, O. Farkas, 
 J. B. Foresman, and D. J. Fox, Gaussian, Inc., Wallingford CT, 2016.
 
 ******************************************
 Gaussian 16:  ES64L-G16RevB.01 20-Dec-2017
                 6-Nov-2022 
 ******************************************
 %nprocshared=32
 Will use up to   32 processors via shared memory.
 %mem=120GB
 %chk=_conf002.chk
 ----------------------------------------
 #P wB97XD/6-311++G(d,p) scf=maxcycle=512
 ----------------------------------------
 1/38=1,172=1/1;
 2/12=2,17=6,18=5,40=1/2;
 3/5=4,6=6,7=1111,11=2,25=1,30=1,74=-58/1,2,3;
 4//1;
 5/5=2,7=512,38=5/2;
 6/7=2,8=2,9=2,10=2,28=1/1;
 99/5=1,9=1/99;
 Leave Link    1 at Sun Nov  6 23:00:09 2022, MaxMem= 16106127360 cpu:               3.9 elap:               0.1
 (Enter /opt/ap/G16/B01/g16/l101.exe)
 ----------------------------
 _conf002.gjf nmol_natom 1_15
 ----------------------------
 Symbolic Z-matrix:
 Charge =  0 Multiplicity = 1
 C
 C                    1     1.39016 
 C                    1     1.39195  2     119.89594 
 C                    2     1.38669  1     119.88076  3     0.70826  0
 H                    2     0.98744  1     119.71654  3    -179.90726  0
 C                    1     1.48429  2     119.93615  4    -179.87772  0
 C                    3     1.40101  1     119.72365  2    -0.26267  0
 H                    3     0.99022  1     119.18862  2     178.85398  0
 C                    4     1.37899  2     120.45786  1    -0.48041  0
 H                    4     0.98347  2     120.30443  1     179.36167  0
 O                    6     1.2746   1     118.00615  2    -80.      0
 O                    6     1.26363  1     118.77715  2     100.     0
 H                    7     0.98977  3     119.37862  1    -178.93546  0
 H                    9     0.99498  4     119.46723  2    -178.58827  0
 H                    11    0.8968   6     118.15824  1     176.92714  0
 
 ITRead=  0  0  0  0  0  0  0  0  0  0  0  0  0  0  0
 MicOpt= -1 -1 -1 -1 -1 -1 -1 -1 -1 -1 -1 -1 -1 -1 -1
 NAtoms=     15 NQM=       15 NQMF=       0 NMMI=      0 NMMIF=      0
                NMic=       0 NMicF=      0.
                    Isotopes and Nuclear Properties:
 (Nuclear quadrupole moments (NQMom) in fm**2, nuclear magnetic moments (NMagM)
  in nuclear magnetons)

  Atom         1           2           3           4           5           6           7           8           9          10
 IAtWgt=          12          12          12          12           1          12          12           1          12           1
 AtmWgt=  12.0000000  12.0000000  12.0000000  12.0000000   1.0078250  12.0000000  12.0000000   1.0078250  12.0000000   1.0078250
 NucSpn=           0           0           0           0           1           0           0           1           0           1
 AtZEff=  -0.0000000  -0.0000000  -0.0000000  -0.0000000  -0.0000000  -0.0000000  -0.0000000  -0.0000000  -0.0000000  -0.0000000
 NQMom=    0.0000000   0.0000000   0.0000000   0.0000000   0.0000000   0.0000000   0.0000000   0.0000000   0.0000000   0.0000000
 NMagM=    0.0000000   0.0000000   0.0000000   0.0000000   2.7928460   0.0000000   0.0000000   2.7928460   0.0000000   2.7928460
 AtZNuc=   6.0000000   6.0000000   6.0000000   6.0000000   1.0000000   6.0000000   6.0000000   1.0000000   6.0000000   1.0000000

  Atom        11          12          13          14          15
 IAtWgt=          16          16           1           1           1
 AtmWgt=  15.9949146  15.9949146   1.0078250   1.0078250   1.0078250
 NucSpn=           0           0           1           1           1
 AtZEff=  -0.0000000  -0.0000000  -0.0000000  -0.0000000  -0.0000000
 NQMom=    0.0000000   0.0000000   0.0000000   0.0000000   0.0000000
 NMagM=    0.0000000   0.0000000   2.7928460   2.7928460   2.7928460
 AtZNuc=   8.0000000   8.0000000   1.0000000   1.0000000   1.0000000
 Leave Link  101 at Sun Nov  6 23:00:09 2022, MaxMem= 16106127360 cpu:               6.0 elap:               0.2
 (Enter /opt/ap/G16/B01/g16/l202.exe)
                          Input orientation:                          
 ---------------------------------------------------------------------
 Center     Atomic      Atomic             Coordinates (Angstroms)
 Number     Number       Type             X           Y           Z
 ---------------------------------------------------------------------
      1          6           0        0.000000    0.000000    0.000000
      2          6           0        0.000000    0.000000    1.390162
      3          6           0        1.206722    0.000000   -0.693782
      4          6           0        1.202258    0.014862    2.081006
      5          1           0       -0.857581   -0.001388    1.879646
      6          6           0       -1.286190   -0.013155   -0.740711
      7          6           0        2.415349    0.005578    0.014752
      8          1           0        1.194584   -0.017290   -1.683772
      9          6           0        2.400563    0.019708    1.398617
     10          1           0        1.209438    0.024411    3.064408
     11          8           0       -1.890998   -1.127641   -0.870046
     12          8           0       -1.728499    1.073118   -1.210948
     13          1           0        3.270315    0.021574   -0.483669
     14          1           0        3.254554    0.009066    1.909081
     15          1           0       -2.688366   -1.131306   -1.280470
 ---------------------------------------------------------------------
                    Distance matrix (angstroms):
                    1          2          3          4          5
     1  C    0.000000
     2  C    1.390162   0.000000
     3  C    1.391945   2.408112   0.000000
     4  C    2.403379   1.386690   2.774832   0.000000
     5  H    2.066039   0.987443   3.299073   2.069721   0.000000
     6  C    1.484288   2.488991   2.493388   3.762345   2.655206
     7  C    2.415401   2.779513   1.401011   2.396056   3.766955
     8  H    2.064563   3.297939   0.990215   3.764924   4.112127
     9  C    2.778349   2.400659   2.409104   1.378990   3.293530
    10  H    3.294530   2.065535   3.758270   0.983474   2.382624
    11  O    2.367367   3.155310   3.301289   4.425183   3.145982
    12  O    2.367633   3.302282   3.167739   4.532792   3.385976
    13  H    3.305958   3.769173   2.074374   3.294611   4.756607
    14  H    3.773167   3.295676   3.311886   2.059493   4.112253
    15  H    3.185399   3.954673   4.098264   5.267843   3.822933
                    6          7          8          9         10
     6  C    0.000000
     7  C    3.777892   0.000000
     8  H    2.653982   2.091836   0.000000
     9  C    4.262622   1.384016   3.310118   0.000000
    10  H    4.550659   3.279477   4.748386   2.047842   0.000000
    11  O    1.274598   4.540008   3.378734   4.988059   5.140024
    12  O    1.263626   4.451232   3.155467   4.996865   5.292441
    13  H    4.563881   0.989771   2.398003   2.073517   4.103177
    14  H    5.257398   2.071897   4.141589   0.994981   2.348938
    15  H    1.872885   5.386837   4.059678   5.865112   5.950338
                   11         12         13         14         15
    11  O    0.000000
    12  O    2.232926   0.000000
    13  H    5.301804   5.159731   0.000000
    14  H    5.957545   5.974747   2.392834   0.000000
    15  H    0.896804   2.405340   6.121266   6.840466   0.000000
 Stoichiometry    C7H6O2
 Framework group  C1[X(C7H6O2)]
 Deg. of freedom    39
 Full point group                 C1      NOp   1
 Largest Abelian subgroup         C1      NOp   1
 Largest concise Abelian subgroup C1      NOp   1
                         Standard orientation:                         
 ---------------------------------------------------------------------
 Center     Atomic      Atomic             Coordinates (Angstroms)
 Number     Number       Type             X           Y           Z
 ---------------------------------------------------------------------
      1          6           0       -0.220782    0.010599    0.026121
      2          6           0        0.468399   -1.191541    0.137653
      3          6           0        0.482800    1.202648   -0.120523
      4          6           0        1.854926   -1.197445    0.117206
      5          1           0       -0.033420   -2.035759    0.240202
      6          6           0       -1.704846    0.018626    0.050592
      7          6           0        1.883386    1.183577   -0.149259
      8          1           0       -0.018977    2.050934   -0.216219
      9          6           0        2.556975   -0.018860   -0.023072
     10          1           0        2.348933   -2.043295    0.205053
     11          8           0       -2.322774   -0.285569   -1.021896
     12          8           0       -2.293868    0.324491    1.125883
     13          1           0        2.378881    2.035804   -0.237808
     14          1           0        3.551095   -0.042394   -0.057083
     15          1           0       -3.218517   -0.322292   -0.998349
 ---------------------------------------------------------------------
 Rotational constants (GHZ):           3.9684046           1.1308614           1.0183751
 Leave Link  202 at Sun Nov  6 23:00:09 2022, MaxMem= 16106127360 cpu:               0.5 elap:               0.0
 (Enter /opt/ap/G16/B01/g16/l301.exe)
 Standard basis: 6-311++G(d,p) (5D, 7F)
 Ernie: Thresh=  0.10000D-02 Tol=  0.10000D-05 Strict=F.
 There are   249 symmetry adapted cartesian basis functions of A   symmetry.
 There are   240 symmetry adapted basis functions of A   symmetry.
   240 basis functions,   378 primitive gaussians,   249 cartesian basis functions
    32 alpha electrons       32 beta electrons
       nuclear repulsion energy       408.1462287783 Hartrees.
 IExCor= 4639 DFT=T Ex+Corr=wB97XD ExCW=0 ScaHFX=  1.000000
 ScaDFX=  1.000000  1.000000  1.000000  1.000000 ScalE2=  1.000000  1.000000
 IRadAn=      5 IRanWt=     -1 IRanGd=            0 ICorTp=0 IEmpDi=121
 HFx  wShort=  0.000000 wLong=  0.200000 cFull=  0.222036 cShort=  0.000000 cLong=  0.777964
 DFx  wShort=  0.000000 wLong=  0.200000 cFull=  0.000000 cShort=  0.000000 cLong=  1.000000
 NAtoms=   15 NActive=   15 NUniq=   15 SFac= 1.00D+00 NAtFMM=   60 NAOKFM=F Big=F
 Integral buffers will be    131072 words long.
 Raffenetti 2 integral format.
 Two-electron integral symmetry is turned on.
 R6Disp:  Grimme-D2 Dispersion energy=       -0.0064841065 Hartrees.
 Nuclear repulsion after empirical dispersion term =      408.1397446718 Hartrees.
 Leave Link  301 at Sun Nov  6 23:00:09 2022, MaxMem= 16106127360 cpu:               1.4 elap:               0.0
 (Enter /opt/ap/G16/B01/g16/l302.exe)
 NPDir=0 NMtPBC=     1 NCelOv=     1 NCel=       1 NClECP=     1 NCelD=      1
         NCelK=      1 NCelE2=     1 NClLst=     1 CellRange=     0.0.
 One-electron integrals computed using PRISM.
 One-electron integral symmetry used in STVInt
 NBasis=   240 RedAO= T EigKep=  1.12D-06  NBF=   240
 NBsUse=   240 1.00D-06 EigRej= -1.00D+00 NBFU=   240
 Precomputing XC quadrature grid using
 IXCGrd= 4 IRadAn=           5 IRanWt=          -1 IRanGd=           0 AccXCQ= 0.00D+00.
 Generated NRdTot=       0 NPtTot=           0 NUsed=           0 NTot=          32
 NSgBfM=   249   249   249   249   249 MxSgAt=    15 MxSgA2=    15.
 Leave Link  302 at Sun Nov  6 23:00:11 2022, MaxMem= 16106127360 cpu:              47.8 elap:               1.5
 (Enter /opt/ap/G16/B01/g16/l303.exe)
 DipDrv:  MaxL=1.
 Leave Link  303 at Sun Nov  6 23:00:11 2022, MaxMem= 16106127360 cpu:               1.7 elap:               0.1
 (Enter /opt/ap/G16/B01/g16/l401.exe)
 ExpMin= 3.60D-02 ExpMax= 8.59D+03 ExpMxC= 1.30D+03 IAcc=3 IRadAn=         5 AccDes= 0.00D+00
 Harris functional with IExCor= 4639 and IRadAn=       5 diagonalized for initial guess.
 HarFok:  IExCor= 4639 AccDes= 0.00D+00 IRadAn=         5 IDoV= 1 UseB2=F ITyADJ=14
 ICtDFT=  3500011 ScaDFX=  1.000000  1.000000  1.000000  1.000000
 FoFCou: FMM=F IPFlag=           0 FMFlag=      100000 FMFlg1=           0
         NFxFlg=           0 DoJE=T BraDBF=F KetDBF=T FulRan=T
         wScrn=  0.000000 ICntrl=       500 IOpCl=  0 I1Cent=   200000004 NGrid=           0
         NMat0=    1 NMatS0=      1 NMatT0=    0 NMatD0=    1 NMtDS0=    0 NMtDT0=    0
 Petite list used in FoFCou.
 Harris En= -403.249407971999    
 JPrj=0 DoOrth=F DoCkMO=F.
 Leave Link  401 at Sun Nov  6 23:00:11 2022, MaxMem= 16106127360 cpu:              12.4 elap:               0.4
 (Enter /opt/ap/G16/B01/g16/l502.exe)
 Integral symmetry usage will be decided dynamically.
 Closed shell SCF:
 Using DIIS extrapolation, IDIIS=  1040.
 NGot= 16106127360 LenX= 16105992971 LenY= 16105930529
 Requested convergence on RMS density matrix=1.00D-08 within 512 cycles.
 Requested convergence on MAX density matrix=1.00D-06.
 Requested convergence on             energy=1.00D-06.
 No special actions if energy rises.
 Fock matrices will be formed incrementally for  20 cycles.

 Cycle   1  Pass 1  IDiag  1:
 FoFJK:  IHMeth= 1 ICntrl=       0 DoSepK=T KAlg= 0 I1Cent=           0 FoldK=F
 IRaf=         1 NMat=       1 IRICut=       1 DoRegI=T DoRafI=F ISym2E= 0 IDoP0=0 IntGTp=1.
 FoFCou: FMM=F IPFlag=           0 FMFlag=      100000 FMFlg1=           0
         NFxFlg=           0 DoJE=T BraDBF=F KetDBF=F FulRan=T
         wScrn=  0.000000 ICntrl=       500 IOpCl=  0 I1Cent=           0 NGrid=           0
         NMat0=    1 NMatS0=      1 NMatT0=    0 NMatD0=    1 NMtDS0=    0 NMtDT0=    0
 Symmetry not used in FoFCou.
 E= -420.619489501394    
 DIIS: error= 7.27D-02 at cycle   1 NSaved=   1.
 NSaved= 1 IEnMin= 1 EnMin= -420.619489501394     IErMin= 1 ErrMin= 7.27D-02
 ErrMax= 7.27D-02  0.00D+00 EMaxC= 1.00D-01 BMatC= 8.63D-01 BMatP= 8.63D-01
 IDIUse=3 WtCom= 2.73D-01 WtEn= 7.27D-01
 Coeff-Com:  0.100D+01
 Coeff-En:   0.100D+01
 Coeff:      0.100D+01
 Gap=     0.474 Goal=   None    Shift=    0.000
 GapD=    0.474 DampG=2.000 DampE=0.500 DampFc=1.0000 IDamp=-1.
 RMSDP=2.15D-02 MaxDP=1.62D+00              OVMax= 9.42D-02

 Cycle   2  Pass 1  IDiag  1:
 RMSU=  1.32D-02    CP:  7.20D-01
 E= -420.693082887698     Delta-E=       -0.073593386304 Rises=F Damp=F
 DIIS: error= 1.45D-02 at cycle   2 NSaved=   2.
 NSaved= 2 IEnMin= 2 EnMin= -420.693082887698     IErMin= 2 ErrMin= 1.45D-02
 ErrMax= 1.45D-02  0.00D+00 EMaxC= 1.00D-01 BMatC= 5.72D-02 BMatP= 8.63D-01
 IDIUse=3 WtCom= 8.55D-01 WtEn= 1.45D-01
 Coeff-Com:  0.136D+00 0.864D+00
 Coeff-En:   0.885D-01 0.912D+00
 Coeff:      0.129D+00 0.871D+00
 Gap=     0.473 Goal=   None    Shift=    0.000
 RMSDP=7.19D-03 MaxDP=5.37D-01 DE=-7.36D-02 OVMax= 7.21D-02

 Cycle   3  Pass 1  IDiag  1:
 RMSU=  4.75D-03    CP:  7.91D-01  7.52D-01
 E= -420.708969808601     Delta-E=       -0.015886920903 Rises=F Damp=F
 DIIS: error= 1.57D-02 at cycle   3 NSaved=   3.
 NSaved= 3 IEnMin= 3 EnMin= -420.708969808601     IErMin= 2 ErrMin= 1.45D-02
 ErrMax= 1.57D-02  0.00D+00 EMaxC= 1.00D-01 BMatC= 3.62D-02 BMatP= 5.72D-02
 IDIUse=3 WtCom= 8.43D-01 WtEn= 1.57D-01
 Coeff-Com:  0.289D-01 0.448D+00 0.523D+00
 Coeff-En:   0.000D+00 0.387D+00 0.613D+00
 Coeff:      0.244D-01 0.439D+00 0.537D+00
 Gap=     0.373 Goal=   None    Shift=    0.000
 RMSDP=4.70D-03 MaxDP=4.27D-01 DE=-1.59D-02 OVMax= 5.24D-02

 Cycle   4  Pass 1  IDiag  1:
 RMSU=  2.04D-03    CP:  7.50D-01  9.52D-01  5.38D-01
 E= -420.735239467968     Delta-E=       -0.026269659368 Rises=F Damp=F
 DIIS: error= 3.11D-03 at cycle   4 NSaved=   4.
 NSaved= 4 IEnMin= 4 EnMin= -420.735239467968     IErMin= 4 ErrMin= 3.11D-03
 ErrMax= 3.11D-03  0.00D+00 EMaxC= 1.00D-01 BMatC= 2.32D-03 BMatP= 3.62D-02
 IDIUse=3 WtCom= 9.69D-01 WtEn= 3.11D-02
 Coeff-Com:  0.105D-01 0.220D+00 0.307D+00 0.463D+00
 Coeff-En:   0.000D+00 0.000D+00 0.000D+00 0.100D+01
 Coeff:      0.102D-01 0.213D+00 0.297D+00 0.480D+00
 Gap=     0.376 Goal=   None    Shift=    0.000
 RMSDP=7.97D-04 MaxDP=5.99D-02 DE=-2.63D-02 OVMax= 1.44D-02

 Cycle   5  Pass 1  IDiag  1:
 RMSU=  5.04D-04    CP:  7.50D-01  9.23D-01  6.14D-01  8.40D-01
 E= -420.736804138772     Delta-E=       -0.001564670804 Rises=F Damp=F
 DIIS: error= 5.25D-04 at cycle   5 NSaved=   5.
 NSaved= 5 IEnMin= 5 EnMin= -420.736804138772     IErMin= 5 ErrMin= 5.25D-04
 ErrMax= 5.25D-04  0.00D+00 EMaxC= 1.00D-01 BMatC= 5.68D-05 BMatP= 2.32D-03
 IDIUse=3 WtCom= 9.95D-01 WtEn= 5.25D-03
 Coeff-Com:  0.654D-03 0.221D-01 0.399D-01 0.158D+00 0.779D+00
 Coeff-En:   0.000D+00 0.000D+00 0.000D+00 0.000D+00 0.100D+01
 Coeff:      0.651D-03 0.220D-01 0.397D-01 0.157D+00 0.780D+00
 Gap=     0.372 Goal=   None    Shift=    0.000
 RMSDP=2.88D-04 MaxDP=1.70D-02 DE=-1.56D-03 OVMax= 3.34D-03

 Cycle   6  Pass 1  IDiag  1:
 RMSU=  1.36D-04    CP:  7.53D-01  9.33D-01  6.34D-01  8.91D-01  9.93D-01
 E= -420.736847680923     Delta-E=       -0.000043542151 Rises=F Damp=F
 DIIS: error= 1.59D-04 at cycle   6 NSaved=   6.
 NSaved= 6 IEnMin= 6 EnMin= -420.736847680923     IErMin= 6 ErrMin= 1.59D-04
 ErrMax= 1.59D-04  0.00D+00 EMaxC= 1.00D-01 BMatC= 7.54D-06 BMatP= 5.68D-05
 IDIUse=3 WtCom= 9.98D-01 WtEn= 1.59D-03
 Coeff-Com: -0.959D-03-0.163D-01-0.177D-01 0.119D-01 0.336D+00 0.687D+00
 Coeff-En:   0.000D+00 0.000D+00 0.000D+00 0.000D+00 0.000D+00 0.100D+01
 Coeff:     -0.957D-03-0.163D-01-0.177D-01 0.119D-01 0.335D+00 0.688D+00
 Gap=     0.373 Goal=   None    Shift=    0.000
 RMSDP=9.78D-05 MaxDP=4.15D-03 DE=-4.35D-05 OVMax= 1.11D-03

 Cycle   7  Pass 1  IDiag  1:
 RMSU=  5.82D-05    CP:  7.52D-01  9.32D-01  6.43D-01  9.10D-01  1.09D+00
                    CP:  1.07D+00
 E= -420.736855528583     Delta-E=       -0.000007847660 Rises=F Damp=F
 DIIS: error= 5.69D-05 at cycle   7 NSaved=   7.
 NSaved= 7 IEnMin= 7 EnMin= -420.736855528583     IErMin= 7 ErrMin= 5.69D-05
 ErrMax= 5.69D-05  0.00D+00 EMaxC= 1.00D-01 BMatC= 3.24D-07 BMatP= 7.54D-06
 IDIUse=1 WtCom= 1.00D+00 WtEn= 0.00D+00
 Coeff-Com: -0.227D-03-0.533D-02-0.658D-02-0.137D-01-0.646D-02 0.118D+00
 Coeff-Com:  0.915D+00
 Coeff:     -0.227D-03-0.533D-02-0.658D-02-0.137D-01-0.646D-02 0.118D+00
 Coeff:      0.915D+00
 Gap=     0.373 Goal=   None    Shift=    0.000
 RMSDP=5.46D-05 MaxDP=2.48D-03 DE=-7.85D-06 OVMax= 3.77D-04

 Cycle   8  Pass 1  IDiag  1:
 RMSU=  1.56D-05    CP:  7.53D-01  9.31D-01  6.48D-01  9.17D-01  1.15D+00
                    CP:  1.18D+00  1.23D+00
 E= -420.736856229552     Delta-E=       -0.000000700969 Rises=F Damp=F
 DIIS: error= 1.69D-05 at cycle   8 NSaved=   8.
 NSaved= 8 IEnMin= 8 EnMin= -420.736856229552     IErMin= 8 ErrMin= 1.69D-05
 ErrMax= 1.69D-05  0.00D+00 EMaxC= 1.00D-01 BMatC= 5.47D-08 BMatP= 3.24D-07
 IDIUse=1 WtCom= 1.00D+00 WtEn= 0.00D+00
 Coeff-Com:  0.391D-04 0.366D-03 0.403D-03-0.573D-02-0.416D-01-0.485D-01
 Coeff-Com:  0.268D+00 0.828D+00
 Coeff:      0.391D-04 0.366D-03 0.403D-03-0.573D-02-0.416D-01-0.485D-01
 Coeff:      0.268D+00 0.828D+00
 Gap=     0.373 Goal=   None    Shift=    0.000
 RMSDP=1.70D-05 MaxDP=1.03D-03 DE=-7.01D-07 OVMax= 1.94D-04

 Cycle   9  Pass 1  IDiag  1:
 RMSU=  4.65D-06    CP:  7.53D-01  9.31D-01  6.50D-01  9.16D-01  1.17D+00
                    CP:  1.20D+00  1.35D+00  1.14D+00
 E= -420.736856334405     Delta-E=       -0.000000104853 Rises=F Damp=F
 DIIS: error= 1.09D-05 at cycle   9 NSaved=   9.
 NSaved= 9 IEnMin= 9 EnMin= -420.736856334405     IErMin= 9 ErrMin= 1.09D-05
 ErrMax= 1.09D-05  0.00D+00 EMaxC= 1.00D-01 BMatC= 8.05D-09 BMatP= 5.47D-08
 IDIUse=1 WtCom= 1.00D+00 WtEn= 0.00D+00
 Coeff-Com:  0.473D-04 0.916D-03 0.118D-02-0.888D-04-0.127D-01-0.336D-01
 Coeff-Com: -0.349D-01 0.276D+00 0.803D+00
 Coeff:      0.473D-04 0.916D-03 0.118D-02-0.888D-04-0.127D-01-0.336D-01
 Coeff:     -0.349D-01 0.276D+00 0.803D+00
 Gap=     0.373 Goal=   None    Shift=    0.000
 RMSDP=5.59D-06 MaxDP=4.09D-04 DE=-1.05D-07 OVMax= 5.81D-05

 Cycle  10  Pass 1  IDiag  1:
 RMSU=  1.75D-06    CP:  7.53D-01  9.30D-01  6.50D-01  9.15D-01  1.17D+00
                    CP:  1.20D+00  1.38D+00  1.25D+00  1.25D+00
 E= -420.736856348813     Delta-E=       -0.000000014408 Rises=F Damp=F
 DIIS: error= 1.68D-06 at cycle  10 NSaved=  10.
 NSaved=10 IEnMin=10 EnMin= -420.736856348813     IErMin=10 ErrMin= 1.68D-06
 ErrMax= 1.68D-06  0.00D+00 EMaxC= 1.00D-01 BMatC= 9.75D-10 BMatP= 8.05D-09
 IDIUse=1 WtCom= 1.00D+00 WtEn= 0.00D+00
 Coeff-Com:  0.983D-05 0.213D-03 0.304D-03 0.522D-03 0.940D-03-0.500D-02
 Coeff-Com: -0.399D-01-0.124D-01 0.261D+00 0.795D+00
 Coeff:      0.983D-05 0.213D-03 0.304D-03 0.522D-03 0.940D-03-0.500D-02
 Coeff:     -0.399D-01-0.124D-01 0.261D+00 0.795D+00
 Gap=     0.373 Goal=   None    Shift=    0.000
 RMSDP=2.71D-06 MaxDP=2.05D-04 DE=-1.44D-08 OVMax= 2.59D-05

 Cycle  11  Pass 1  IDiag  1:
 RMSU=  6.30D-07    CP:  7.53D-01  9.30D-01  6.50D-01  9.15D-01  1.17D+00
                    CP:  1.19D+00  1.39D+00  1.29D+00  1.40D+00  1.03D+00
 E= -420.736856350343     Delta-E=       -0.000000001530 Rises=F Damp=F
 DIIS: error= 8.89D-07 at cycle  11 NSaved=  11.
 NSaved=11 IEnMin=11 EnMin= -420.736856350343     IErMin=11 ErrMin= 8.89D-07
 ErrMax= 8.89D-07  0.00D+00 EMaxC= 1.00D-01 BMatC= 1.59D-10 BMatP= 9.75D-10
 IDIUse=1 WtCom= 1.00D+00 WtEn= 0.00D+00
 Coeff-Com: -0.194D-05-0.191D-04-0.869D-05 0.253D-03 0.219D-02 0.231D-02
 Coeff-Com: -0.105D-01-0.485D-01-0.154D-01 0.306D+00 0.763D+00
 Coeff:     -0.194D-05-0.191D-04-0.869D-05 0.253D-03 0.219D-02 0.231D-02
 Coeff:     -0.105D-01-0.485D-01-0.154D-01 0.306D+00 0.763D+00
 Gap=     0.373 Goal=   None    Shift=    0.000
 RMSDP=7.77D-07 MaxDP=4.44D-05 DE=-1.53D-09 OVMax= 6.28D-06

 Cycle  12  Pass 1  IDiag  1:
 RMSU=  1.94D-07    CP:  7.53D-01  9.30D-01  6.50D-01  9.14D-01  1.17D+00
                    CP:  1.19D+00  1.39D+00  1.30D+00  1.45D+00  1.13D+00
                    CP:  1.21D+00
 E= -420.736856350549     Delta-E=       -0.000000000206 Rises=F Damp=F
 DIIS: error= 1.86D-07 at cycle  12 NSaved=  12.
 NSaved=12 IEnMin=12 EnMin= -420.736856350549     IErMin=12 ErrMin= 1.86D-07
 ErrMax= 1.86D-07  0.00D+00 EMaxC= 1.00D-01 BMatC= 8.87D-12 BMatP= 1.59D-10
 IDIUse=1 WtCom= 1.00D+00 WtEn= 0.00D+00
 Coeff-Com: -0.119D-05-0.189D-04-0.216D-04 0.322D-04 0.523D-03 0.900D-03
 Coeff-Com:  0.635D-03-0.130D-01-0.214D-01 0.328D-01 0.194D+00 0.806D+00
 Coeff:     -0.119D-05-0.189D-04-0.216D-04 0.322D-04 0.523D-03 0.900D-03
 Coeff:      0.635D-03-0.130D-01-0.214D-01 0.328D-01 0.194D+00 0.806D+00
 Gap=     0.373 Goal=   None    Shift=    0.000
 RMSDP=2.42D-07 MaxDP=1.62D-05 DE=-2.06D-10 OVMax= 2.08D-06

 Cycle  13  Pass 1  IDiag  1:
 RMSU=  6.58D-08    CP:  7.53D-01  9.30D-01  6.50D-01  9.14D-01  1.17D+00
                    CP:  1.19D+00  1.39D+00  1.29D+00  1.47D+00  1.14D+00
                    CP:  1.30D+00  1.08D+00
 E= -420.736856350568     Delta-E=       -0.000000000019 Rises=F Damp=F
 DIIS: error= 1.04D-07 at cycle  13 NSaved=  13.
 NSaved=13 IEnMin=13 EnMin= -420.736856350568     IErMin=13 ErrMin= 1.04D-07
 ErrMax= 1.04D-07  0.00D+00 EMaxC= 1.00D-01 BMatC= 1.66D-12 BMatP= 8.87D-12
 IDIUse=1 WtCom= 1.00D+00 WtEn= 0.00D+00
 Coeff-Com:  0.221D-07-0.384D-05-0.744D-05-0.381D-04-0.238D-03-0.151D-03
 Coeff-Com:  0.214D-02 0.419D-02-0.214D-02-0.418D-01-0.101D+00 0.198D+00
 Coeff-Com:  0.941D+00
 Coeff:      0.221D-07-0.384D-05-0.744D-05-0.381D-04-0.238D-03-0.151D-03
 Coeff:      0.214D-02 0.419D-02-0.214D-02-0.418D-01-0.101D+00 0.198D+00
 Coeff:      0.941D+00
 Gap=     0.373 Goal=   None    Shift=    0.000
 RMSDP=7.62D-08 MaxDP=4.51D-06 DE=-1.85D-11 OVMax= 1.15D-06

 Cycle  14  Pass 1  IDiag  1:
 RMSU=  2.76D-08    CP:  7.53D-01  9.30D-01  6.50D-01  9.14D-01  1.17D+00
                    CP:  1.19D+00  1.39D+00  1.29D+00  1.47D+00  1.14D+00
                    CP:  1.36D+00  1.23D+00  1.11D+00
 E= -420.736856350566     Delta-E=        0.000000000001 Rises=F Damp=F
 DIIS: error= 2.77D-08 at cycle  14 NSaved=  14.
 NSaved=14 IEnMin=13 EnMin= -420.736856350568     IErMin=14 ErrMin= 2.77D-08
 ErrMax= 2.77D-08  0.00D+00 EMaxC= 1.00D-01 BMatC= 1.07D-13 BMatP= 1.66D-12
 IDIUse=1 WtCom= 1.00D+00 WtEn= 0.00D+00
 Coeff-Com:  0.596D-07 0.129D-05 0.159D-05-0.922D-06-0.476D-04-0.513D-04
 Coeff-Com: -0.605D-04 0.902D-03 0.207D-02-0.304D-02-0.158D-01-0.682D-01
 Coeff-Com: -0.342D-01 0.112D+01
 Coeff:      0.596D-07 0.129D-05 0.159D-05-0.922D-06-0.476D-04-0.513D-04
 Coeff:     -0.605D-04 0.902D-03 0.207D-02-0.304D-02-0.158D-01-0.682D-01
 Coeff:     -0.342D-01 0.112D+01
 Gap=     0.373 Goal=   None    Shift=    0.000
 RMSDP=2.10D-08 MaxDP=9.95D-07 DE= 1.48D-12 OVMax= 4.48D-07

 Cycle  15  Pass 1  IDiag  1:
 RMSU=  7.05D-09    CP:  7.53D-01  9.30D-01  6.50D-01  9.14D-01  1.17D+00
                    CP:  1.19D+00  1.39D+00  1.29D+00  1.47D+00  1.14D+00
                    CP:  1.36D+00  1.25D+00  1.21D+00  1.46D+00
 E= -420.736856350571     Delta-E=       -0.000000000005 Rises=F Damp=F
 DIIS: error= 1.18D-08 at cycle  15 NSaved=  15.
 NSaved=15 IEnMin=15 EnMin= -420.736856350571     IErMin=15 ErrMin= 1.18D-08
 ErrMax= 1.18D-08  0.00D+00 EMaxC= 1.00D-01 BMatC= 1.79D-14 BMatP= 1.07D-13
 IDIUse=1 WtCom= 1.00D+00 WtEn= 0.00D+00
 Coeff-Com:  0.136D-07 0.794D-06 0.133D-05 0.420D-05 0.123D-04 0.490D-05
 Coeff-Com: -0.247D-03-0.213D-03 0.915D-03 0.401D-02 0.754D-02-0.355D-01
 Coeff-Com: -0.110D+00 0.329D+00 0.805D+00
 Coeff:      0.136D-07 0.794D-06 0.133D-05 0.420D-05 0.123D-04 0.490D-05
 Coeff:     -0.247D-03-0.213D-03 0.915D-03 0.401D-02 0.754D-02-0.355D-01
 Coeff:     -0.110D+00 0.329D+00 0.805D+00
 Gap=     0.373 Goal=   None    Shift=    0.000
 RMSDP=1.16D-08 MaxDP=8.31D-07 DE=-5.00D-12 OVMax= 1.38D-07

 Cycle  16  Pass 1  IDiag  1:
 RMSU=  2.44D-09    CP:  7.53D-01  9.30D-01  6.50D-01  9.14D-01  1.17D+00
                    CP:  1.19D+00  1.39D+00  1.29D+00  1.47D+00  1.14D+00
                    CP:  1.36D+00  1.26D+00  1.20D+00  1.63D+00  1.45D+00
 E= -420.736856350576     Delta-E=       -0.000000000005 Rises=F Damp=F
 DIIS: error= 5.98D-09 at cycle  16 NSaved=  16.
 NSaved=16 IEnMin=16 EnMin= -420.736856350576     IErMin=16 ErrMin= 5.98D-09
 ErrMax= 5.98D-09  0.00D+00 EMaxC= 1.00D-01 BMatC= 3.18D-15 BMatP= 1.79D-14
 IDIUse=1 WtCom= 1.00D+00 WtEn= 0.00D+00
 Coeff-Com: -0.340D-08 0.326D-07 0.119D-06 0.134D-05 0.107D-04 0.941D-05
 Coeff-Com: -0.693D-04-0.208D-03-0.930D-04 0.157D-02 0.439D-02-0.114D-02
 Coeff-Com: -0.321D-01-0.815D-01 0.244D+00 0.865D+00
 Coeff:     -0.340D-08 0.326D-07 0.119D-06 0.134D-05 0.107D-04 0.941D-05
 Coeff:     -0.693D-04-0.208D-03-0.930D-04 0.157D-02 0.439D-02-0.114D-02
 Coeff:     -0.321D-01-0.815D-01 0.244D+00 0.865D+00
 Gap=     0.373 Goal=   None    Shift=    0.000
 RMSDP=4.54D-09 MaxDP=3.82D-07 DE=-4.55D-12 OVMax= 6.32D-08

 SCF Done:  E(RwB97XD) =  -420.736856351     A.U. after   16 cycles
            NFock= 16  Conv=0.45D-08     -V/T= 2.0015
 KE= 4.201101483040D+02 PE=-1.799667688801D+03 EE= 5.506809394742D+02
 Leave Link  502 at Sun Nov  6 23:00:25 2022, MaxMem= 16106127360 cpu:             434.4 elap:              13.6
 (Enter /opt/ap/G16/B01/g16/l601.exe)
 Copying SCF densities to generalized density rwf, IOpCl= 0 IROHF=0.

 **********************************************************************

            Population analysis using the SCF Density.

 **********************************************************************

 Orbital symmetries:
       Occupied  (A) (A) (A) (A) (A) (A) (A) (A) (A) (A) (A) (A)
                 (A) (A) (A) (A) (A) (A) (A) (A) (A) (A) (A) (A)
                 (A) (A) (A) (A) (A) (A) (A) (A)
       Virtual   (A) (A) (A) (A) (A) (A) (A) (A) (A) (A) (A) (A)
                 (A) (A) (A) (A) (A) (A) (A) (A) (A) (A) (A) (A)
                 (A) (A) (A) (A) (A) (A) (A) (A) (A) (A) (A) (A)
                 (A) (A) (A) (A) (A) (A) (A) (A) (A) (A) (A) (A)
                 (A) (A) (A) (A) (A) (A) (A) (A) (A) (A) (A) (A)
                 (A) (A) (A) (A) (A) (A) (A) (A) (A) (A) (A) (A)
                 (A) (A) (A) (A) (A) (A) (A) (A) (A) (A) (A) (A)
                 (A) (A) (A) (A) (A) (A) (A) (A) (A) (A) (A) (A)
                 (A) (A) (A) (A) (A) (A) (A) (A) (A) (A) (A) (A)
                 (A) (A) (A) (A) (A) (A) (A) (A) (A) (A) (A) (A)
                 (A) (A) (A) (A) (A) (A) (A) (A) (A) (A) (A) (A)
                 (A) (A) (A) (A) (A) (A) (A) (A) (A) (A) (A) (A)
                 (A) (A) (A) (A) (A) (A) (A) (A) (A) (A) (A) (A)
                 (A) (A) (A) (A) (A) (A) (A) (A) (A) (A) (A) (A)
                 (A) (A) (A) (A) (A) (A) (A) (A) (A) (A) (A) (A)
                 (A) (A) (A) (A) (A) (A) (A) (A) (A) (A) (A) (A)
                 (A) (A) (A) (A) (A) (A) (A) (A) (A) (A) (A) (A)
                 (A) (A) (A) (A)
 The electronic state is 1-A.
 Alpha  occ. eigenvalues --  -19.32040 -19.23559 -10.43649 -10.31437 -10.29444
 Alpha  occ. eigenvalues --  -10.29276 -10.29008 -10.28721 -10.28657  -1.26133
 Alpha  occ. eigenvalues --   -1.11071  -0.98051  -0.88954  -0.87068  -0.80727
 Alpha  occ. eigenvalues --   -0.73468  -0.72388  -0.65889  -0.60784  -0.58847
 Alpha  occ. eigenvalues --   -0.58076  -0.55753  -0.53778  -0.53350  -0.49371
 Alpha  occ. eigenvalues --   -0.47404  -0.45347  -0.45222  -0.40893  -0.37621
 Alpha  occ. eigenvalues --   -0.34358  -0.33500
 Alpha virt. eigenvalues --    0.03755   0.03974   0.04270   0.04565   0.05040
 Alpha virt. eigenvalues --    0.06386   0.06533   0.07131   0.08652   0.10574
 Alpha virt. eigenvalues --    0.12071   0.12775   0.13148   0.14506   0.14735
 Alpha virt. eigenvalues --    0.16102   0.16195   0.17061   0.17248   0.17966
 Alpha virt. eigenvalues --    0.18574   0.18830   0.19452   0.19880   0.20096
 Alpha virt. eigenvalues --    0.20685   0.21088   0.21185   0.23010   0.23810
 Alpha virt. eigenvalues --    0.24121   0.25470   0.27161   0.27372   0.27834
 Alpha virt. eigenvalues --    0.29454   0.29504   0.30467   0.31105   0.31624
 Alpha virt. eigenvalues --    0.32111   0.33455   0.34964   0.35791   0.36607
 Alpha virt. eigenvalues --    0.37400   0.37924   0.38790   0.39560   0.39829
 Alpha virt. eigenvalues --    0.42443   0.43239   0.43409   0.43683   0.45164
 Alpha virt. eigenvalues --    0.46010   0.48129   0.51779   0.53591   0.56873
 Alpha virt. eigenvalues --    0.57992   0.60680   0.61549   0.62081   0.63661
 Alpha virt. eigenvalues --    0.63903   0.64598   0.64922   0.67424   0.67772
 Alpha virt. eigenvalues --    0.69042   0.69335   0.72365   0.73067   0.74407
 Alpha virt. eigenvalues --    0.75074   0.81841   0.82423   0.82892   0.83125
 Alpha virt. eigenvalues --    0.86551   0.87052   0.90740   0.92586   0.93611
 Alpha virt. eigenvalues --    0.93953   0.95606   0.95866   0.99258   1.00658
 Alpha virt. eigenvalues --    1.00996   1.02442   1.07810   1.08087   1.11737
 Alpha virt. eigenvalues --    1.13831   1.15161   1.16538   1.17503   1.20639
 Alpha virt. eigenvalues --    1.22660   1.27961   1.28409   1.30535   1.34527
 Alpha virt. eigenvalues --    1.34985   1.42467   1.43899   1.46095   1.53416
 Alpha virt. eigenvalues --    1.56846   1.58509   1.60232   1.61211   1.61879
 Alpha virt. eigenvalues --    1.66287   1.67089   1.67658   1.71950   1.72424
 Alpha virt. eigenvalues --    1.74427   1.75980   1.77559   1.85446   1.86121
 Alpha virt. eigenvalues --    1.87851   1.88486   1.91488   1.94680   1.98876
 Alpha virt. eigenvalues --    2.01236   2.01980   2.03468   2.04201   2.04894
 Alpha virt. eigenvalues --    2.05864   2.08381   2.15170   2.16804   2.17992
 Alpha virt. eigenvalues --    2.23157   2.24203   2.33933   2.42868   2.47244
 Alpha virt. eigenvalues --    2.49775   2.51979   2.53848   2.58752   2.62034
 Alpha virt. eigenvalues --    2.66749   2.72258   2.77478   2.80402   2.80966
 Alpha virt. eigenvalues --    2.83117   2.85602   2.88023   2.90364   2.90711
 Alpha virt. eigenvalues --    2.91233   2.91787   2.96686   2.97750   2.99807
 Alpha virt. eigenvalues --    3.01352   3.07368   3.10924   3.16563   3.18745
 Alpha virt. eigenvalues --    3.20849   3.22736   3.25114   3.26967   3.33298
 Alpha virt. eigenvalues --    3.37671   3.43177   3.47865   3.49195   3.65052
 Alpha virt. eigenvalues --    3.66184   3.69554   3.72212   3.86483   3.90525
 Alpha virt. eigenvalues --    4.04792   4.14824   4.27276   4.29115   4.34575
 Alpha virt. eigenvalues --    4.35616   4.40314   4.94972   5.06662   5.20160
 Alpha virt. eigenvalues --    5.26937   5.48803   5.76717   6.06883  23.84627
 Alpha virt. eigenvalues --   23.93640  24.15278  24.21239  24.28742  24.30192
 Alpha virt. eigenvalues --   24.42062  50.04857  50.11441
          Condensed to atoms (all electrons):
               1          2          3          4          5          6
     1  C   12.219657  -4.016088  -3.283422   1.756341  -0.147719  -0.922161
     2  C   -4.016088  12.132915   1.430964  -1.962817   0.522316  -0.885960
     3  C   -3.283422   1.430964  12.132226  -2.320708   0.123777  -0.940478
     4  C    1.756341  -1.962817  -2.320708   7.424354  -0.095223   0.092257
     5  H   -0.147719   0.522316   0.123777  -0.095223   0.488707  -0.054388
     6  C   -0.922161  -0.885960  -0.940478   0.092257  -0.054388   8.026029
     7  C    2.096093  -2.153161  -2.215596   1.481550  -0.047805   0.059869
     8  H   -0.106676   0.147639   0.489789  -0.049944   0.001033  -0.041530
     9  C   -2.185280   1.567105   1.652228  -0.859663   0.048152  -0.109951
    10  H    0.020326  -0.046155  -0.017210   0.394187  -0.009452   0.009653
    11  O   -0.138522  -0.136931  -0.210705   0.073108  -0.012216   0.406285
    12  O    0.350340  -0.062991  -0.295253   0.035457  -0.005192   0.469862
    13  H    0.021541  -0.022990  -0.047190  -0.002759   0.000319   0.007185
    14  H    0.004065  -0.002676   0.009942  -0.026425  -0.000588  -0.008598
    15  H   -0.049814  -0.002127  -0.005960   0.003802  -0.000555   0.038154
               7          8          9         10         11         12
     1  C    2.096093  -0.106676  -2.185280   0.020326  -0.138522   0.350340
     2  C   -2.153161   0.147639   1.567105  -0.046155  -0.136931  -0.062991
     3  C   -2.215596   0.489789   1.652228  -0.017210  -0.210705  -0.295253
     4  C    1.481550  -0.049944  -0.859663   0.394187   0.073108   0.035457
     5  H   -0.047805   0.001033   0.048152  -0.009452  -0.012216  -0.005192
     6  C    0.059869  -0.041530  -0.109951   0.009653   0.406285   0.469862
     7  C    7.370046  -0.126530  -0.916622  -0.005566   0.043583   0.006502
     8  H   -0.126530   0.479197   0.040941   0.000449  -0.014043  -0.003280
     9  C   -0.916622   0.040941   6.774515  -0.013306  -0.028632  -0.023744
    10  H   -0.005566   0.000449  -0.013306   0.471068   0.000439   0.000612
    11  O    0.043583  -0.014043  -0.028632   0.000439   7.943347  -0.173794
    12  O    0.006502  -0.003280  -0.023744   0.000612  -0.173794   7.948565
    13  H    0.403005  -0.009636  -0.017567  -0.001452   0.000349   0.000246
    14  H   -0.025167  -0.000118   0.398062  -0.004928  -0.000445  -0.000301
    15  H    0.001479  -0.000149  -0.002984   0.000084   0.295459  -0.008004
              13         14         15
     1  C    0.021541   0.004065  -0.049814
     2  C   -0.022990  -0.002676  -0.002127
     3  C   -0.047190   0.009942  -0.005960
     4  C   -0.002759  -0.026425   0.003802
     5  H    0.000319  -0.000588  -0.000555
     6  C    0.007185  -0.008598   0.038154
     7  C    0.403005  -0.025167   0.001479
     8  H   -0.009636  -0.000118  -0.000149
     9  C   -0.017567   0.398062  -0.002984
    10  H   -0.001452  -0.004928   0.000084
    11  O    0.000349  -0.000445   0.295459
    12  O    0.000246  -0.000301  -0.008004
    13  H    0.469313  -0.004602   0.000008
    14  H   -0.004602   0.472446  -0.000087
    15  H    0.000008  -0.000087   0.406167
 Mulliken charges:
               1
     1  C    0.381318
     2  C   -0.509043
     3  C   -0.502402
     4  C    0.056482
     5  H    0.188833
     6  C   -0.146229
     7  C    0.028320
     8  H    0.192858
     9  C   -0.323255
    10  H    0.201251
    11  O   -0.047281
    12  O   -0.239025
    13  H    0.204229
    14  H    0.189419
    15  H    0.324526
 Sum of Mulliken charges =  -0.00000
 Mulliken charges with hydrogens summed into heavy atoms:
               1
     1  C    0.381318
     2  C   -0.320210
     3  C   -0.309544
     4  C    0.257732
     6  C   -0.146229
     7  C    0.232548
     9  C   -0.133836
    11  O    0.277245
    12  O   -0.239025
 Electronic spatial extent (au):  <R**2>=           1158.2014
 Charge=             -0.0000 electrons
 Dipole moment (field-independent basis, Debye):
    X=              0.9594    Y=             -0.7089    Z=             -2.2381  Tot=              2.5361
 Quadrupole moment (field-independent basis, Debye-Ang):
   XX=            -43.1135   YY=            -45.8784   ZZ=            -58.4884
   XY=              2.3864   XZ=              7.4065   YZ=             -2.0961
 Traceless Quadrupole moment (field-independent basis, Debye-Ang):
   XX=              6.0466   YY=              3.2817   ZZ=             -9.3283
   XY=              2.3864   XZ=              7.4065   YZ=             -2.0961
 Octapole moment (field-independent basis, Debye-Ang**2):
  XXX=            -23.4149  YYY=             -0.2981  ZZZ=             -4.2000  XYY=             -0.8626
  XXY=             -8.3081  XXZ=            -25.3579  XZZ=             -4.0029  YZZ=             -1.1502
  YYZ=             -0.6551  XYZ=              0.7928
 Hexadecapole moment (field-independent basis, Debye-Ang**3):
 XXXX=           -875.0877 YYYY=           -269.3166 ZZZZ=           -151.4254 XXXY=             26.9225
 XXXZ=             84.5625 YYYX=              2.0794 YYYZ=             -4.1941 ZZZX=             14.1269
 ZZZY=              1.0988 XXYY=           -208.4708 XXZZ=           -217.8435 YYZZ=            -78.8766
 XXYZ=             -4.0934 YYXZ=              2.6495 ZZXY=              3.2150
 N-N= 4.081397446718D+02 E-N=-1.799667688589D+03  KE= 4.201101483040D+02
 No NMR shielding tensors so no spin-rotation constants.
 Leave Link  601 at Sun Nov  6 23:00:25 2022, MaxMem= 16106127360 cpu:               3.5 elap:               0.1
 (Enter /opt/ap/G16/B01/g16/l9999.exe)
 1\1\GINC-N05\SP\RwB97XD\6-311++G(d,p)\C7H6O2\ROOT\06-Nov-2022\0\\#P wB
 97XD/6-311++G(d,p) scf=maxcycle=512\\_conf002.gjf nmol_natom 1_15\\0,1
 \C\C,1,1.39016191\C,1,1.39194539,2,119.895942\C,2,1.38669027,1,119.880
 75721,3,0.70825972,0\H,2,0.98744251,1,119.71654057,3,-179.90726164,0\C
 ,1,1.48428757,2,119.93615286,4,-179.87772406,0\C,3,1.40101108,1,119.72
 36454,2,-0.26266839,0\H,3,0.9902154,1,119.1886159,2,178.85397616,0\C,4
 ,1.37899003,2,120.45785903,1,-0.48041454,0\H,4,0.9834739,2,120.3044270
 6,1,179.36166981,0\O,6,1.27459751,1,118.00615353,2,-80.,0\O,6,1.263625
 72,1,118.77715367,2,100.,0\H,7,0.98977053,3,119.37861578,1,-178.935457
 41,0\H,9,0.99498061,4,119.46722635,2,-178.58826714,0\H,11,0.89680392,6
 ,118.15823763,1,176.92714093,0\\Version=ES64L-G16RevB.01\State=1-A\HF=
 -420.7368564\RMSD=4.540e-09\Dipole=0.2571901,-0.8952778,0.3576644\Quad
 rupole=4.8415711,-6.8593221,2.017751,4.9288591,0.055802,3.3839764\PG=C
 01 [X(C7H6O2)]\\@


 NOTHING MAKES A PERSON MORE PRODUCTIVE THAN THE LAST MINUTE.
 Job cpu time:       0 days  0 hours  8 minutes 33.5 seconds.
 Elapsed time:       0 days  0 hours  0 minutes 16.2 seconds.
 File lengths (MBytes):  RWF=     35 Int=      0 D2E=      0 Chk=      4 Scr=      1
 Normal termination of Gaussian 16 at Sun Nov  6 23:00:25 2022.
