 Entering Gaussian System, Link 0=g16
 Input=_conf014.gjf
 Output=_conf014.log
 Initial command:
 /opt/ap/G16/B01/g16/l1.exe "/tmp2/scr/Gau-31230.inp" -scrdir="/tmp2/scr/"
 Entering Link 1 = /opt/ap/G16/B01/g16/l1.exe PID=     31231.
  
 Copyright (c) 1988-2017, Gaussian, Inc.  All Rights Reserved.
  
 This is part of the Gaussian(R) 16 program.  It is based on
 the Gaussian(R) 09 system (copyright 2009, Gaussian, Inc.),
 the Gaussian(R) 03 system (copyright 2003, Gaussian, Inc.),
 the Gaussian(R) 98 system (copyright 1998, Gaussian, Inc.),
 the Gaussian(R) 94 system (copyright 1995, Gaussian, Inc.),
 the Gaussian 92(TM) system (copyright 1992, Gaussian, Inc.),
 the Gaussian 90(TM) system (copyright 1990, Gaussian, Inc.),
 the Gaussian 88(TM) system (copyright 1988, Gaussian, Inc.),
 the Gaussian 86(TM) system (copyright 1986, Carnegie Mellon
 University), and the Gaussian 82(TM) system (copyright 1983,
 Carnegie Mellon University). Gaussian is a federally registered
 trademark of Gaussian, Inc.
  
 This software contains proprietary and confidential information,
 including trade secrets, belonging to Gaussian, Inc.
  
 This software is provided under written license and may be
 used, copied, transmitted, or stored only in accord with that
 written license.
  
 The following legend is applicable only to US Government
 contracts under FAR:
  
                    RESTRICTED RIGHTS LEGEND
  
 Use, reproduction and disclosure by the US Government is
 subject to restrictions as set forth in subparagraphs (a)
 and (c) of the Commercial Computer Software - Restricted
 Rights clause in FAR 52.227-19.
  
 Gaussian, Inc.
 340 Quinnipiac St., Bldg. 40, Wallingford CT 06492
  
  
 ---------------------------------------------------------------
 Warning -- This program may not be used in any manner that
 competes with the business of Gaussian, Inc. or will provide
 assistance to any competitor of Gaussian, Inc.  The licensee
 of this program is prohibited from giving any competitor of
 Gaussian, Inc. access to this program.  By using this program,
 the user acknowledges that Gaussian, Inc. is engaged in the
 business of creating and licensing software in the field of
 computational chemistry and represents and warrants to the
 licensee that it is not a competitor of Gaussian, Inc. and that
 it will not use this program in any manner prohibited above.
 ---------------------------------------------------------------
  

 Cite this work as:
 Gaussian 16, Revision B.01,
 M. J. Frisch, G. W. Trucks, H. B. Schlegel, G. E. Scuseria, 
 M. A. Robb, J. R. Cheeseman, G. Scalmani, V. Barone, 
 G. A. Petersson, H. Nakatsuji, X. Li, M. Caricato, A. V. Marenich, 
 J. Bloino, B. G. Janesko, R. Gomperts, B. Mennucci, H. P. Hratchian, 
 J. V. Ortiz, A. F. Izmaylov, J. L. Sonnenberg, D. Williams-Young, 
 F. Ding, F. Lipparini, F. Egidi, J. Goings, B. Peng, A. Petrone, 
 T. Henderson, D. Ranasinghe, V. G. Zakrzewski, J. Gao, N. Rega, 
 G. Zheng, W. Liang, M. Hada, M. Ehara, K. Toyota, R. Fukuda, 
 J. Hasegawa, M. Ishida, T. Nakajima, Y. Honda, O. Kitao, H. Nakai, 
 T. Vreven, K. Throssell, J. A. Montgomery, Jr., J. E. Peralta, 
 F. Ogliaro, M. J. Bearpark, J. J. Heyd, E. N. Brothers, K. N. Kudin, 
 V. N. Staroverov, T. A. Keith, R. Kobayashi, J. Normand, 
 K. Raghavachari, A. P. Rendell, J. C. Burant, S. S. Iyengar, 
 J. Tomasi, M. Cossi, J. M. Millam, M. Klene, C. Adamo, R. Cammi, 
 J. W. Ochterski, R. L. Martin, K. Morokuma, O. Farkas, 
 J. B. Foresman, and D. J. Fox, Gaussian, Inc., Wallingford CT, 2016.
 
 ******************************************
 Gaussian 16:  ES64L-G16RevB.01 20-Dec-2017
                 6-Nov-2022 
 ******************************************
 %nprocshared=32
 Will use up to   32 processors via shared memory.
 %mem=120GB
 %chk=_conf014.chk
 ----------------------------------------
 #P wB97XD/6-311++G(d,p) scf=maxcycle=512
 ----------------------------------------
 1/38=1,172=1/1;
 2/12=2,17=6,18=5,40=1/2;
 3/5=4,6=6,7=1111,11=2,25=1,30=1,74=-58/1,2,3;
 4//1;
 5/5=2,7=512,38=5/2;
 6/7=2,8=2,9=2,10=2,28=1/1;
 99/5=1,9=1/99;
 Leave Link    1 at Sun Nov  6 23:00:53 2022, MaxMem= 16106127360 cpu:               1.5 elap:               0.1
 (Enter /opt/ap/G16/B01/g16/l101.exe)
 ----------------------------
 _conf014.gjf nmol_natom 1_15
 ----------------------------
 Symbolic Z-matrix:
 Charge =  0 Multiplicity = 1
 C
 C                    1     1.39016 
 C                    1     1.39195  2     119.89594 
 C                    2     1.38669  1     119.88076  3     0.70826  0
 H                    2     0.98744  1     119.71654  3    -179.90726  0
 C                    1     1.48429  2     119.93615  4    -179.87772  0
 C                    3     1.40101  1     119.72365  2    -0.26267  0
 H                    3     0.99022  1     119.18862  2     178.85398  0
 C                    4     1.37899  2     120.45786  1    -0.48041  0
 H                    4     0.98347  2     120.30443  1     179.36167  0
 O                    6     1.2746   1     118.00615  2    -20.      0
 O                    6     1.26363  1     118.77715  2     160.     0
 H                    7     0.98977  3     119.37862  1    -178.93546  0
 H                    9     0.99498  4     119.46723  2    -178.58827  0
 H                    11    0.8968   6     118.15824  1     176.92714  0
 
 ITRead=  0  0  0  0  0  0  0  0  0  0  0  0  0  0  0
 MicOpt= -1 -1 -1 -1 -1 -1 -1 -1 -1 -1 -1 -1 -1 -1 -1
 NAtoms=     15 NQM=       15 NQMF=       0 NMMI=      0 NMMIF=      0
                NMic=       0 NMicF=      0.
                    Isotopes and Nuclear Properties:
 (Nuclear quadrupole moments (NQMom) in fm**2, nuclear magnetic moments (NMagM)
  in nuclear magnetons)

  Atom         1           2           3           4           5           6           7           8           9          10
 IAtWgt=          12          12          12          12           1          12          12           1          12           1
 AtmWgt=  12.0000000  12.0000000  12.0000000  12.0000000   1.0078250  12.0000000  12.0000000   1.0078250  12.0000000   1.0078250
 NucSpn=           0           0           0           0           1           0           0           1           0           1
 AtZEff=  -0.0000000  -0.0000000  -0.0000000  -0.0000000  -0.0000000  -0.0000000  -0.0000000  -0.0000000  -0.0000000  -0.0000000
 NQMom=    0.0000000   0.0000000   0.0000000   0.0000000   0.0000000   0.0000000   0.0000000   0.0000000   0.0000000   0.0000000
 NMagM=    0.0000000   0.0000000   0.0000000   0.0000000   2.7928460   0.0000000   0.0000000   2.7928460   0.0000000   2.7928460
 AtZNuc=   6.0000000   6.0000000   6.0000000   6.0000000   1.0000000   6.0000000   6.0000000   1.0000000   6.0000000   1.0000000

  Atom        11          12          13          14          15
 IAtWgt=          16          16           1           1           1
 AtmWgt=  15.9949146  15.9949146   1.0078250   1.0078250   1.0078250
 NucSpn=           0           0           1           1           1
 AtZEff=  -0.0000000  -0.0000000  -0.0000000  -0.0000000  -0.0000000
 NQMom=    0.0000000   0.0000000   0.0000000   0.0000000   0.0000000
 NMagM=    0.0000000   0.0000000   2.7928460   2.7928460   2.7928460
 AtZNuc=   8.0000000   8.0000000   1.0000000   1.0000000   1.0000000
 Leave Link  101 at Sun Nov  6 23:00:54 2022, MaxMem= 16106127360 cpu:               5.1 elap:               0.2
 (Enter /opt/ap/G16/B01/g16/l202.exe)
                          Input orientation:                          
 ---------------------------------------------------------------------
 Center     Atomic      Atomic             Coordinates (Angstroms)
 Number     Number       Type             X           Y           Z
 ---------------------------------------------------------------------
      1          6           0        0.000000    0.000000    0.000000
      2          6           0        0.000000    0.000000    1.390162
      3          6           0        1.206722    0.000000   -0.693782
      4          6           0        1.202258    0.014862    2.081006
      5          1           0       -0.857581   -0.001388    1.879646
      6          6           0       -1.286190   -0.013155   -0.740711
      7          6           0        2.415349    0.005578    0.014752
      8          1           0        1.194584   -0.017290   -1.683772
      9          6           0        2.400563    0.019708    1.398617
     10          1           0        1.209438    0.024411    3.064408
     11          8           0       -2.328570   -0.408725   -0.123001
     12          8           0       -1.297837    0.365556   -1.946195
     13          1           0        3.270315    0.021574   -0.483669
     14          1           0        3.254554    0.009066    1.909081
     15          1           0       -3.113809   -0.377922   -0.555099
 ---------------------------------------------------------------------
                    Distance matrix (angstroms):
                    1          2          3          4          5
     1  C    0.000000
     2  C    1.390162   0.000000
     3  C    1.391945   2.408112   0.000000
     4  C    2.403379   1.386690   2.774832   0.000000
     5  H    2.066039   0.987443   3.299073   2.069721   0.000000
     6  C    1.484288   2.488991   2.493388   3.762345   2.655206
     7  C    2.415401   2.779513   1.401011   2.396056   3.766955
     8  H    2.064563   3.297939   0.990215   3.764924   4.112127
     9  C    2.778349   2.400659   2.409104   1.378990   3.293530
    10  H    3.294530   2.065535   3.758270   0.983474   2.382624
    11  O    2.367367   2.806948   3.604322   4.183756   2.518001
    12  O    2.367633   3.598512   2.824002   4.753084   3.868532
    13  H    3.305958   3.769173   2.074374   3.294611   4.756607
    14  H    3.773167   3.295676   3.311886   2.059493   4.112253
    15  H    3.185399   3.690890   4.339245   5.072648   3.340708
                    6          7          8          9         10
     6  C    0.000000
     7  C    3.777892   0.000000
     8  H    2.653982   2.091836   0.000000
     9  C    4.262622   1.384016   3.310118   0.000000
    10  H    4.550659   3.279477   4.748386   2.047842   0.000000
    11  O    1.274598   4.763968   3.873222   4.986339   4.781703
    12  O    1.263626   4.214576   2.535271   4.998554   5.613283
    13  H    4.563881   0.989771   2.398003   2.073517   4.103177
    14  H    5.257398   2.071897   4.141589   0.994981   2.348938
    15  H    1.872885   5.571660   4.468356   5.863737   5.652713
                   11         12         13         14         15
    11  O    0.000000
    12  O    2.232926   0.000000
    13  H    5.626967   4.808879   0.000000
    14  H    5.956104   5.976161   2.392834   0.000000
    15  H    0.896804   2.405340   6.397010   6.839443   0.000000
 Stoichiometry    C7H6O2
 Framework group  C1[X(C7H6O2)]
 Deg. of freedom    39
 Full point group                 C1      NOp   1
 Largest Abelian subgroup         C1      NOp   1
 Largest concise Abelian subgroup C1      NOp   1
                         Standard orientation:                         
 ---------------------------------------------------------------------
 Center     Atomic      Atomic             Coordinates (Angstroms)
 Number     Number       Type             X           Y           Z
 ---------------------------------------------------------------------
      1          6           0       -0.220632    0.027818    0.008465
      2          6           0        0.445291   -1.187446    0.119061
      3          6           0        0.506168    1.208257   -0.117380
      4          6           0        1.831642   -1.218100    0.118423
      5          1           0       -0.072951   -2.023367    0.206830
      6          6           0       -1.704515    0.062312    0.011749
      7          6           0        1.906460    1.164259   -0.126223
      8          1           0        0.021054    2.066229   -0.212635
      9          6           0        2.556577   -0.051150   -0.001201
     10          1           0        2.309147   -2.073428    0.205740
     11          8           0       -2.328791   -1.012177   -0.271715
     12          8           0       -2.287142    1.147658    0.293386
     13          1           0        2.418320    2.008178   -0.200013
     14          1           0        3.550508   -0.092256   -0.021180
     15          1           0       -3.224570   -1.004903   -0.229466
 ---------------------------------------------------------------------
 Rotational constants (GHZ):           3.9687871           1.2285013           0.9503298
 Leave Link  202 at Sun Nov  6 23:00:54 2022, MaxMem= 16106127360 cpu:               0.3 elap:               0.0
 (Enter /opt/ap/G16/B01/g16/l301.exe)
 Standard basis: 6-311++G(d,p) (5D, 7F)
 Ernie: Thresh=  0.10000D-02 Tol=  0.10000D-05 Strict=F.
 There are   249 symmetry adapted cartesian basis functions of A   symmetry.
 There are   240 symmetry adapted basis functions of A   symmetry.
   240 basis functions,   378 primitive gaussians,   249 cartesian basis functions
    32 alpha electrons       32 beta electrons
       nuclear repulsion energy       409.3749420910 Hartrees.
 IExCor= 4639 DFT=T Ex+Corr=wB97XD ExCW=0 ScaHFX=  1.000000
 ScaDFX=  1.000000  1.000000  1.000000  1.000000 ScalE2=  1.000000  1.000000
 IRadAn=      5 IRanWt=     -1 IRanGd=            0 ICorTp=0 IEmpDi=121
 HFx  wShort=  0.000000 wLong=  0.200000 cFull=  0.222036 cShort=  0.000000 cLong=  0.777964
 DFx  wShort=  0.000000 wLong=  0.200000 cFull=  0.000000 cShort=  0.000000 cLong=  1.000000
 NAtoms=   15 NActive=   15 NUniq=   15 SFac= 1.00D+00 NAtFMM=   60 NAOKFM=F Big=F
 Integral buffers will be    131072 words long.
 Raffenetti 2 integral format.
 Two-electron integral symmetry is turned on.
 R6Disp:  Grimme-D2 Dispersion energy=       -0.0063582130 Hartrees.
 Nuclear repulsion after empirical dispersion term =      409.3685838780 Hartrees.
 Leave Link  301 at Sun Nov  6 23:00:54 2022, MaxMem= 16106127360 cpu:               1.2 elap:               0.0
 (Enter /opt/ap/G16/B01/g16/l302.exe)
 NPDir=0 NMtPBC=     1 NCelOv=     1 NCel=       1 NClECP=     1 NCelD=      1
         NCelK=      1 NCelE2=     1 NClLst=     1 CellRange=     0.0.
 One-electron integrals computed using PRISM.
 One-electron integral symmetry used in STVInt
 NBasis=   240 RedAO= T EigKep=  1.24D-06  NBF=   240
 NBsUse=   240 1.00D-06 EigRej= -1.00D+00 NBFU=   240
 Precomputing XC quadrature grid using
 IXCGrd= 4 IRadAn=           5 IRanWt=          -1 IRanGd=           0 AccXCQ= 0.00D+00.
 Generated NRdTot=       0 NPtTot=           0 NUsed=           0 NTot=          32
 NSgBfM=   249   249   249   249   249 MxSgAt=    15 MxSgA2=    15.
 Leave Link  302 at Sun Nov  6 23:00:54 2022, MaxMem= 16106127360 cpu:               5.3 elap:               0.2
 (Enter /opt/ap/G16/B01/g16/l303.exe)
 DipDrv:  MaxL=1.
 Leave Link  303 at Sun Nov  6 23:00:54 2022, MaxMem= 16106127360 cpu:               1.3 elap:               0.0
 (Enter /opt/ap/G16/B01/g16/l401.exe)
 ExpMin= 3.60D-02 ExpMax= 8.59D+03 ExpMxC= 1.30D+03 IAcc=3 IRadAn=         5 AccDes= 0.00D+00
 Harris functional with IExCor= 4639 and IRadAn=       5 diagonalized for initial guess.
 HarFok:  IExCor= 4639 AccDes= 0.00D+00 IRadAn=         5 IDoV= 1 UseB2=F ITyADJ=14
 ICtDFT=  3500011 ScaDFX=  1.000000  1.000000  1.000000  1.000000
 FoFCou: FMM=F IPFlag=           0 FMFlag=      100000 FMFlg1=           0
         NFxFlg=           0 DoJE=T BraDBF=F KetDBF=T FulRan=T
         wScrn=  0.000000 ICntrl=       500 IOpCl=  0 I1Cent=   200000004 NGrid=           0
         NMat0=    1 NMatS0=      1 NMatT0=    0 NMatD0=    1 NMtDS0=    0 NMtDT0=    0
 Petite list used in FoFCou.
 Harris En= -403.254261613415    
 JPrj=0 DoOrth=F DoCkMO=F.
 Leave Link  401 at Sun Nov  6 23:00:54 2022, MaxMem= 16106127360 cpu:              11.8 elap:               0.4
 (Enter /opt/ap/G16/B01/g16/l502.exe)
 Integral symmetry usage will be decided dynamically.
 Closed shell SCF:
 Using DIIS extrapolation, IDIIS=  1040.
 NGot= 16106127360 LenX= 16105992971 LenY= 16105930529
 Requested convergence on RMS density matrix=1.00D-08 within 512 cycles.
 Requested convergence on MAX density matrix=1.00D-06.
 Requested convergence on             energy=1.00D-06.
 No special actions if energy rises.
 Fock matrices will be formed incrementally for  20 cycles.

 Cycle   1  Pass 1  IDiag  1:
 FoFJK:  IHMeth= 1 ICntrl=       0 DoSepK=T KAlg= 0 I1Cent=           0 FoldK=F
 IRaf=         1 NMat=       1 IRICut=       1 DoRegI=T DoRafI=F ISym2E= 0 IDoP0=0 IntGTp=1.
 FoFCou: FMM=F IPFlag=           0 FMFlag=      100000 FMFlg1=           0
         NFxFlg=           0 DoJE=T BraDBF=F KetDBF=F FulRan=T
         wScrn=  0.000000 ICntrl=       500 IOpCl=  0 I1Cent=           0 NGrid=           0
         NMat0=    1 NMatS0=      1 NMatT0=    0 NMatD0=    1 NMtDS0=    0 NMtDT0=    0
 Symmetry not used in FoFCou.
 E= -420.631840650599    
 DIIS: error= 7.25D-02 at cycle   1 NSaved=   1.
 NSaved= 1 IEnMin= 1 EnMin= -420.631840650599     IErMin= 1 ErrMin= 7.25D-02
 ErrMax= 7.25D-02  0.00D+00 EMaxC= 1.00D-01 BMatC= 8.60D-01 BMatP= 8.60D-01
 IDIUse=3 WtCom= 2.75D-01 WtEn= 7.25D-01
 Coeff-Com:  0.100D+01
 Coeff-En:   0.100D+01
 Coeff:      0.100D+01
 Gap=     0.426 Goal=   None    Shift=    0.000
 GapD=    0.426 DampG=2.000 DampE=0.500 DampFc=1.0000 IDamp=-1.
 RMSDP=2.53D-02 MaxDP=1.63D+00              OVMax= 1.05D-01

 Cycle   2  Pass 1  IDiag  1:
 RMSU=  1.44D-02    CP:  6.83D-01
 E= -420.702689339654     Delta-E=       -0.070848689055 Rises=F Damp=F
 DIIS: error= 1.22D-02 at cycle   2 NSaved=   2.
 NSaved= 2 IEnMin= 2 EnMin= -420.702689339654     IErMin= 2 ErrMin= 1.22D-02
 ErrMax= 1.22D-02  0.00D+00 EMaxC= 1.00D-01 BMatC= 5.71D-02 BMatP= 8.60D-01
 IDIUse=3 WtCom= 8.78D-01 WtEn= 1.22D-01
 Coeff-Com:  0.135D+00 0.865D+00
 Coeff-En:   0.972D-01 0.903D+00
 Coeff:      0.131D+00 0.869D+00
 Gap=     0.428 Goal=   None    Shift=    0.000
 RMSDP=7.42D-03 MaxDP=3.60D-01 DE=-7.08D-02 OVMax= 8.30D-02

 Cycle   3  Pass 1  IDiag  1:
 RMSU=  6.01D-03    CP:  6.76D-01  7.01D-01
 E= -420.718858503708     Delta-E=       -0.016169164054 Rises=F Damp=F
 DIIS: error= 1.29D-02 at cycle   3 NSaved=   3.
 NSaved= 3 IEnMin= 3 EnMin= -420.718858503708     IErMin= 2 ErrMin= 1.22D-02
 ErrMax= 1.29D-02  0.00D+00 EMaxC= 1.00D-01 BMatC= 3.58D-02 BMatP= 5.71D-02
 IDIUse=3 WtCom= 8.71D-01 WtEn= 1.29D-01
 Coeff-Com:  0.277D-01 0.447D+00 0.525D+00
 Coeff-En:   0.000D+00 0.384D+00 0.616D+00
 Coeff:      0.241D-01 0.439D+00 0.537D+00
 Gap=     0.356 Goal=   None    Shift=    0.000
 RMSDP=3.82D-03 MaxDP=2.39D-01 DE=-1.62D-02 OVMax= 5.36D-02

 Cycle   4  Pass 1  IDiag  1:
 RMSU=  2.23D-03    CP:  6.52D-01  8.53D-01  7.45D-01
 E= -420.744882154350     Delta-E=       -0.026023650643 Rises=F Damp=F
 DIIS: error= 2.63D-03 at cycle   4 NSaved=   4.
 NSaved= 4 IEnMin= 4 EnMin= -420.744882154350     IErMin= 4 ErrMin= 2.63D-03
 ErrMax= 2.63D-03  0.00D+00 EMaxC= 1.00D-01 BMatC= 1.94D-03 BMatP= 3.58D-02
 IDIUse=3 WtCom= 9.74D-01 WtEn= 2.63D-02
 Coeff-Com:  0.105D-01 0.221D+00 0.303D+00 0.465D+00
 Coeff-En:   0.000D+00 0.000D+00 0.000D+00 0.100D+01
 Coeff:      0.102D-01 0.216D+00 0.295D+00 0.479D+00
 Gap=     0.355 Goal=   None    Shift=    0.000
 RMSDP=7.82D-04 MaxDP=4.53D-02 DE=-2.60D-02 OVMax= 1.24D-02

 Cycle   5  Pass 1  IDiag  1:
 RMSU=  6.13D-04    CP:  6.49D-01  8.41D-01  7.82D-01  8.57D-01
 E= -420.746193617198     Delta-E=       -0.001311462848 Rises=F Damp=F
 DIIS: error= 4.71D-04 at cycle   5 NSaved=   5.
 NSaved= 5 IEnMin= 5 EnMin= -420.746193617198     IErMin= 5 ErrMin= 4.71D-04
 ErrMax= 4.71D-04  0.00D+00 EMaxC= 1.00D-01 BMatC= 4.98D-05 BMatP= 1.94D-03
 IDIUse=3 WtCom= 9.95D-01 WtEn= 4.71D-03
 Coeff-Com:  0.335D-03 0.156D-01 0.304D-01 0.150D+00 0.804D+00
 Coeff-En:   0.000D+00 0.000D+00 0.000D+00 0.000D+00 0.100D+01
 Coeff:      0.333D-03 0.155D-01 0.302D-01 0.149D+00 0.805D+00
 Gap=     0.351 Goal=   None    Shift=    0.000
 RMSDP=2.60D-04 MaxDP=1.30D-02 DE=-1.31D-03 OVMax= 2.51D-03

 Cycle   6  Pass 1  IDiag  1:
 RMSU=  1.56D-04    CP:  6.48D-01  8.45D-01  8.05D-01  9.14D-01  1.05D+00
 E= -420.746232501771     Delta-E=       -0.000038884573 Rises=F Damp=F
 DIIS: error= 2.12D-04 at cycle   6 NSaved=   6.
 NSaved= 6 IEnMin= 6 EnMin= -420.746232501771     IErMin= 6 ErrMin= 2.12D-04
 ErrMax= 2.12D-04  0.00D+00 EMaxC= 1.00D-01 BMatC= 7.25D-06 BMatP= 4.98D-05
 IDIUse=3 WtCom= 9.98D-01 WtEn= 2.12D-03
 Coeff-Com: -0.958D-03-0.164D-01-0.178D-01 0.129D-01 0.347D+00 0.675D+00
 Coeff-En:   0.000D+00 0.000D+00 0.000D+00 0.000D+00 0.000D+00 0.100D+01
 Coeff:     -0.956D-03-0.164D-01-0.178D-01 0.129D-01 0.346D+00 0.676D+00
 Gap=     0.351 Goal=   None    Shift=    0.000
 RMSDP=1.29D-04 MaxDP=1.24D-02 DE=-3.89D-05 OVMax= 7.56D-04

 Cycle   7  Pass 1  IDiag  1:
 RMSU=  4.40D-05    CP:  6.47D-01  8.44D-01  8.15D-01  9.37D-01  1.11D+00
                    CP:  1.09D+00
 E= -420.746239616812     Delta-E=       -0.000007115041 Rises=F Damp=F
 DIIS: error= 6.50D-05 at cycle   7 NSaved=   7.
 NSaved= 7 IEnMin= 7 EnMin= -420.746239616812     IErMin= 7 ErrMin= 6.50D-05
 ErrMax= 6.50D-05  0.00D+00 EMaxC= 1.00D-01 BMatC= 3.12D-07 BMatP= 7.25D-06
 IDIUse=1 WtCom= 1.00D+00 WtEn= 0.00D+00
 Coeff-Com: -0.234D-03-0.542D-02-0.674D-02-0.136D-01-0.154D-02 0.134D+00
 Coeff-Com:  0.894D+00
 Coeff:     -0.234D-03-0.542D-02-0.674D-02-0.136D-01-0.154D-02 0.134D+00
 Coeff:      0.894D+00
 Gap=     0.351 Goal=   None    Shift=    0.000
 RMSDP=4.51D-05 MaxDP=3.09D-03 DE=-7.12D-06 OVMax= 3.25D-04

 Cycle   8  Pass 1  IDiag  1:
 RMSU=  1.23D-05    CP:  6.46D-01  8.44D-01  8.18D-01  9.45D-01  1.16D+00
                    CP:  1.14D+00  1.08D+00
 E= -420.746240205923     Delta-E=       -0.000000589111 Rises=F Damp=F
 DIIS: error= 1.39D-05 at cycle   8 NSaved=   8.
 NSaved= 8 IEnMin= 8 EnMin= -420.746240205923     IErMin= 8 ErrMin= 1.39D-05
 ErrMax= 1.39D-05  0.00D+00 EMaxC= 1.00D-01 BMatC= 4.19D-08 BMatP= 3.12D-07
 IDIUse=1 WtCom= 1.00D+00 WtEn= 0.00D+00
 Coeff-Com:  0.327D-04 0.301D-03 0.218D-03-0.565D-02-0.385D-01-0.390D-01
 Coeff-Com:  0.240D+00 0.843D+00
 Coeff:      0.327D-04 0.301D-03 0.218D-03-0.565D-02-0.385D-01-0.390D-01
 Coeff:      0.240D+00 0.843D+00
 Gap=     0.351 Goal=   None    Shift=    0.000
 RMSDP=1.19D-05 MaxDP=8.38D-04 DE=-5.89D-07 OVMax= 1.30D-04

 Cycle   9  Pass 1  IDiag  1:
 RMSU=  4.19D-06    CP:  6.46D-01  8.43D-01  8.19D-01  9.45D-01  1.16D+00
                    CP:  1.17D+00  1.20D+00  1.08D+00
 E= -420.746240282022     Delta-E=       -0.000000076099 Rises=F Damp=F
 DIIS: error= 1.04D-05 at cycle   9 NSaved=   9.
 NSaved= 9 IEnMin= 9 EnMin= -420.746240282022     IErMin= 9 ErrMin= 1.04D-05
 ErrMax= 1.04D-05  0.00D+00 EMaxC= 1.00D-01 BMatC= 4.96D-09 BMatP= 4.19D-08
 IDIUse=1 WtCom= 1.00D+00 WtEn= 0.00D+00
 Coeff-Com:  0.380D-04 0.729D-03 0.893D-03-0.228D-03-0.105D-01-0.275D-01
 Coeff-Com: -0.296D-01 0.252D+00 0.814D+00
 Coeff:      0.380D-04 0.729D-03 0.893D-03-0.228D-03-0.105D-01-0.275D-01
 Coeff:     -0.296D-01 0.252D+00 0.814D+00
 Gap=     0.351 Goal=   None    Shift=    0.000
 RMSDP=4.01D-06 MaxDP=2.88D-04 DE=-7.61D-08 OVMax= 4.58D-05

 Cycle  10  Pass 1  IDiag  1:
 RMSU=  1.63D-06    CP:  6.46D-01  8.43D-01  8.19D-01  9.44D-01  1.17D+00
                    CP:  1.17D+00  1.24D+00  1.13D+00  1.38D+00
 E= -420.746240291070     Delta-E=       -0.000000009048 Rises=F Damp=F
 DIIS: error= 1.30D-06 at cycle  10 NSaved=  10.
 NSaved=10 IEnMin=10 EnMin= -420.746240291070     IErMin=10 ErrMin= 1.30D-06
 ErrMax= 1.30D-06  0.00D+00 EMaxC= 1.00D-01 BMatC= 6.25D-10 BMatP= 4.96D-09
 IDIUse=1 WtCom= 1.00D+00 WtEn= 0.00D+00
 Coeff-Com:  0.673D-05 0.149D-03 0.208D-03 0.439D-03 0.135D-02-0.395D-02
 Coeff-Com: -0.315D-01-0.257D-01 0.231D+00 0.828D+00
 Coeff:      0.673D-05 0.149D-03 0.208D-03 0.439D-03 0.135D-02-0.395D-02
 Coeff:     -0.315D-01-0.257D-01 0.231D+00 0.828D+00
 Gap=     0.351 Goal=   None    Shift=    0.000
 RMSDP=1.44D-06 MaxDP=7.69D-05 DE=-9.05D-09 OVMax= 1.45D-05

 Cycle  11  Pass 1  IDiag  1:
 RMSU=  5.02D-07    CP:  6.46D-01  8.43D-01  8.18D-01  9.44D-01  1.17D+00
                    CP:  1.17D+00  1.24D+00  1.16D+00  1.49D+00  1.09D+00
 E= -420.746240292123     Delta-E=       -0.000000001053 Rises=F Damp=F
 DIIS: error= 1.03D-06 at cycle  11 NSaved=  11.
 NSaved=11 IEnMin=11 EnMin= -420.746240292123     IErMin=11 ErrMin= 1.03D-06
 ErrMax= 1.03D-06  0.00D+00 EMaxC= 1.00D-01 BMatC= 1.16D-10 BMatP= 6.25D-10
 IDIUse=1 WtCom= 1.00D+00 WtEn= 0.00D+00
 Coeff-Com: -0.169D-05-0.148D-04-0.309D-05 0.245D-03 0.200D-02 0.155D-02
 Coeff-Com: -0.854D-02-0.479D-01-0.162D-01 0.335D+00 0.734D+00
 Coeff:     -0.169D-05-0.148D-04-0.309D-05 0.245D-03 0.200D-02 0.155D-02
 Coeff:     -0.854D-02-0.479D-01-0.162D-01 0.335D+00 0.734D+00
 Gap=     0.351 Goal=   None    Shift=    0.000
 RMSDP=6.02D-07 MaxDP=3.38D-05 DE=-1.05D-09 OVMax= 6.34D-06

 Cycle  12  Pass 1  IDiag  1:
 RMSU=  2.03D-07    CP:  6.46D-01  8.43D-01  8.18D-01  9.44D-01  1.17D+00
                    CP:  1.17D+00  1.24D+00  1.16D+00  1.55D+00  1.17D+00
                    CP:  1.13D+00
 E= -420.746240292295     Delta-E=       -0.000000000172 Rises=F Damp=F
 DIIS: error= 1.54D-07 at cycle  12 NSaved=  12.
 NSaved=12 IEnMin=12 EnMin= -420.746240292295     IErMin=12 ErrMin= 1.54D-07
 ErrMax= 1.54D-07  0.00D+00 EMaxC= 1.00D-01 BMatC= 8.94D-12 BMatP= 1.16D-10
 IDIUse=1 WtCom= 1.00D+00 WtEn= 0.00D+00
 Coeff-Com: -0.104D-05-0.171D-04-0.185D-04 0.301D-04 0.423D-03 0.646D-03
 Coeff-Com:  0.112D-02-0.109D-01-0.242D-01 0.139D-01 0.186D+00 0.833D+00
 Coeff:     -0.104D-05-0.171D-04-0.185D-04 0.301D-04 0.423D-03 0.646D-03
 Coeff:      0.112D-02-0.109D-01-0.242D-01 0.139D-01 0.186D+00 0.833D+00
 Gap=     0.351 Goal=   None    Shift=    0.000
 RMSDP=1.65D-07 MaxDP=9.05D-06 DE=-1.72D-10 OVMax= 2.39D-06

 Cycle  13  Pass 1  IDiag  1:
 RMSU=  8.42D-08    CP:  6.46D-01  8.43D-01  8.18D-01  9.44D-01  1.17D+00
                    CP:  1.17D+00  1.24D+00  1.16D+00  1.56D+00  1.16D+00
                    CP:  1.25D+00  1.10D+00
 E= -420.746240292316     Delta-E=       -0.000000000021 Rises=F Damp=F
 DIIS: error= 8.58D-08 at cycle  13 NSaved=  13.
 NSaved=13 IEnMin=13 EnMin= -420.746240292316     IErMin=13 ErrMin= 8.58D-08
 ErrMax= 8.58D-08  0.00D+00 EMaxC= 1.00D-01 BMatC= 1.82D-12 BMatP= 8.94D-12
 IDIUse=1 WtCom= 1.00D+00 WtEn= 0.00D+00
 Coeff-Com:  0.383D-07-0.388D-05-0.725D-05-0.408D-04-0.275D-03-0.135D-03
 Coeff-Com:  0.216D-02 0.585D-02-0.325D-02-0.622D-01-0.106D+00 0.244D+00
 Coeff-Com:  0.920D+00
 Coeff:      0.383D-07-0.388D-05-0.725D-05-0.408D-04-0.275D-03-0.135D-03
 Coeff:      0.216D-02 0.585D-02-0.325D-02-0.622D-01-0.106D+00 0.244D+00
 Coeff:      0.920D+00
 Gap=     0.351 Goal=   None    Shift=    0.000
 RMSDP=6.10D-08 MaxDP=2.69D-06 DE=-2.08D-11 OVMax= 1.67D-06

 Cycle  14  Pass 1  IDiag  1:
 RMSU=  2.79D-08    CP:  6.46D-01  8.43D-01  8.18D-01  9.44D-01  1.17D+00
                    CP:  1.17D+00  1.24D+00  1.16D+00  1.56D+00  1.16D+00
                    CP:  1.32D+00  1.24D+00  1.19D+00
 E= -420.746240292323     Delta-E=       -0.000000000008 Rises=F Damp=F
 DIIS: error= 3.57D-08 at cycle  14 NSaved=  14.
 NSaved=14 IEnMin=14 EnMin= -420.746240292323     IErMin=14 ErrMin= 3.57D-08
 ErrMax= 3.57D-08  0.00D+00 EMaxC= 1.00D-01 BMatC= 1.52D-13 BMatP= 1.82D-12
 IDIUse=1 WtCom= 1.00D+00 WtEn= 0.00D+00
 Coeff-Com:  0.723D-07 0.146D-05 0.173D-05-0.273D-05-0.602D-04-0.444D-04
 Coeff-Com: -0.788D-04 0.124D-02 0.248D-02-0.390D-02-0.223D-01-0.795D-01
 Coeff-Com:  0.762D-02 0.109D+01
 Coeff:      0.723D-07 0.146D-05 0.173D-05-0.273D-05-0.602D-04-0.444D-04
 Coeff:     -0.788D-04 0.124D-02 0.248D-02-0.390D-02-0.223D-01-0.795D-01
 Coeff:      0.762D-02 0.109D+01
 Gap=     0.351 Goal=   None    Shift=    0.000
 RMSDP=3.06D-08 MaxDP=1.75D-06 DE=-7.84D-12 OVMax= 7.21D-07

 Cycle  15  Pass 1  IDiag  1:
 RMSU=  7.64D-09    CP:  6.46D-01  8.43D-01  8.18D-01  9.44D-01  1.17D+00
                    CP:  1.17D+00  1.24D+00  1.16D+00  1.56D+00  1.15D+00
                    CP:  1.33D+00  1.27D+00  1.35D+00  1.43D+00
 E= -420.746240292322     Delta-E=        0.000000000001 Rises=F Damp=F
 DIIS: error= 2.07D-08 at cycle  15 NSaved=  15.
 NSaved=15 IEnMin=14 EnMin= -420.746240292323     IErMin=15 ErrMin= 2.07D-08
 ErrMax= 2.07D-08  0.00D+00 EMaxC= 1.00D-01 BMatC= 3.57D-14 BMatP= 1.52D-13
 IDIUse=1 WtCom= 1.00D+00 WtEn= 0.00D+00
 Coeff-Com:  0.183D-07 0.106D-05 0.170D-05 0.503D-05 0.164D-04 0.934D-05
 Coeff-Com: -0.329D-03-0.350D-03 0.142D-02 0.751D-02 0.739D-02-0.557D-01
 Coeff-Com: -0.127D+00 0.380D+00 0.787D+00
 Coeff:      0.183D-07 0.106D-05 0.170D-05 0.503D-05 0.164D-04 0.934D-05
 Coeff:     -0.329D-03-0.350D-03 0.142D-02 0.751D-02 0.739D-02-0.557D-01
 Coeff:     -0.127D+00 0.380D+00 0.787D+00
 Gap=     0.351 Goal=   None    Shift=    0.000
 RMSDP=8.91D-09 MaxDP=4.84D-07 DE= 1.25D-12 OVMax= 2.02D-07

 SCF Done:  E(RwB97XD) =  -420.746240292     A.U. after   15 cycles
            NFock= 15  Conv=0.89D-08     -V/T= 2.0015
 KE= 4.201196507499D+02 PE=-1.802234104764D+03 EE= 5.519996298439D+02
 Leave Link  502 at Sun Nov  6 23:01:07 2022, MaxMem= 16106127360 cpu:             409.0 elap:              12.8
 (Enter /opt/ap/G16/B01/g16/l601.exe)
 Copying SCF densities to generalized density rwf, IOpCl= 0 IROHF=0.

 **********************************************************************

            Population analysis using the SCF Density.

 **********************************************************************

 Orbital symmetries:
       Occupied  (A) (A) (A) (A) (A) (A) (A) (A) (A) (A) (A) (A)
                 (A) (A) (A) (A) (A) (A) (A) (A) (A) (A) (A) (A)
                 (A) (A) (A) (A) (A) (A) (A) (A)
       Virtual   (A) (A) (A) (A) (A) (A) (A) (A) (A) (A) (A) (A)
                 (A) (A) (A) (A) (A) (A) (A) (A) (A) (A) (A) (A)
                 (A) (A) (A) (A) (A) (A) (A) (A) (A) (A) (A) (A)
                 (A) (A) (A) (A) (A) (A) (A) (A) (A) (A) (A) (A)
                 (A) (A) (A) (A) (A) (A) (A) (A) (A) (A) (A) (A)
                 (A) (A) (A) (A) (A) (A) (A) (A) (A) (A) (A) (A)
                 (A) (A) (A) (A) (A) (A) (A) (A) (A) (A) (A) (A)
                 (A) (A) (A) (A) (A) (A) (A) (A) (A) (A) (A) (A)
                 (A) (A) (A) (A) (A) (A) (A) (A) (A) (A) (A) (A)
                 (A) (A) (A) (A) (A) (A) (A) (A) (A) (A) (A) (A)
                 (A) (A) (A) (A) (A) (A) (A) (A) (A) (A) (A) (A)
                 (A) (A) (A) (A) (A) (A) (A) (A) (A) (A) (A) (A)
                 (A) (A) (A) (A) (A) (A) (A) (A) (A) (A) (A) (A)
                 (A) (A) (A) (A) (A) (A) (A) (A) (A) (A) (A) (A)
                 (A) (A) (A) (A) (A) (A) (A) (A) (A) (A) (A) (A)
                 (A) (A) (A) (A) (A) (A) (A) (A) (A) (A) (A) (A)
                 (A) (A) (A) (A) (A) (A) (A) (A) (A) (A) (A) (A)
                 (A) (A) (A) (A)
 The electronic state is 1-A.
 Alpha  occ. eigenvalues --  -19.31675 -19.22826 -10.43187 -10.31101 -10.29355
 Alpha  occ. eigenvalues --  -10.29333 -10.29143 -10.29000 -10.28740  -1.25808
 Alpha  occ. eigenvalues --   -1.10627  -0.98085  -0.88930  -0.87034  -0.80567
 Alpha  occ. eigenvalues --   -0.73397  -0.71971  -0.65829  -0.60664  -0.58606
 Alpha  occ. eigenvalues --   -0.57051  -0.56014  -0.54386  -0.53453  -0.48943
 Alpha  occ. eigenvalues --   -0.47421  -0.45556  -0.44824  -0.40967  -0.36416
 Alpha  occ. eigenvalues --   -0.34557  -0.34166
 Alpha virt. eigenvalues --    0.00960   0.03751   0.04275   0.04543   0.05274
 Alpha virt. eigenvalues --    0.06459   0.07706   0.08705   0.10154   0.10985
 Alpha virt. eigenvalues --    0.12011   0.12907   0.13167   0.14361   0.14842
 Alpha virt. eigenvalues --    0.16013   0.16354   0.16963   0.17359   0.17949
 Alpha virt. eigenvalues --    0.18300   0.19415   0.19884   0.20186   0.20546
 Alpha virt. eigenvalues --    0.21098   0.21293   0.21530   0.23200   0.23728
 Alpha virt. eigenvalues --    0.25645   0.26124   0.27244   0.27987   0.28250
 Alpha virt. eigenvalues --    0.29340   0.29616   0.30566   0.30834   0.31773
 Alpha virt. eigenvalues --    0.32401   0.34086   0.34843   0.35321   0.35701
 Alpha virt. eigenvalues --    0.36673   0.36923   0.38168   0.39673   0.40270
 Alpha virt. eigenvalues --    0.41192   0.42028   0.42350   0.43446   0.44231
 Alpha virt. eigenvalues --    0.45538   0.47550   0.52477   0.54547   0.57353
 Alpha virt. eigenvalues --    0.59768   0.60860   0.61888   0.63886   0.64015
 Alpha virt. eigenvalues --    0.64526   0.65029   0.66808   0.67487   0.69343
 Alpha virt. eigenvalues --    0.71340   0.72515   0.73445   0.74848   0.75703
 Alpha virt. eigenvalues --    0.76711   0.81201   0.82450   0.83066   0.85365
 Alpha virt. eigenvalues --    0.88285   0.90127   0.92189   0.92528   0.93932
 Alpha virt. eigenvalues --    0.94268   0.96038   0.96999   0.98847   1.00341
 Alpha virt. eigenvalues --    1.01886   1.02889   1.08022   1.09048   1.12830
 Alpha virt. eigenvalues --    1.13927   1.15011   1.16570   1.17972   1.19207
 Alpha virt. eigenvalues --    1.22243   1.23460   1.24672   1.28258   1.30889
 Alpha virt. eigenvalues --    1.35554   1.35975   1.44086   1.45321   1.56115
 Alpha virt. eigenvalues --    1.56970   1.59361   1.60059   1.60901   1.61948
 Alpha virt. eigenvalues --    1.63032   1.65209   1.67024   1.67421   1.74609
 Alpha virt. eigenvalues --    1.74963   1.78020   1.79975   1.83094   1.87241
 Alpha virt. eigenvalues --    1.88242   1.91212   1.91573   1.95231   1.98219
 Alpha virt. eigenvalues --    2.00020   2.02547   2.03015   2.05251   2.05791
 Alpha virt. eigenvalues --    2.06309   2.09296   2.14562   2.18004   2.18936
 Alpha virt. eigenvalues --    2.23282   2.27190   2.31400   2.43324   2.46214
 Alpha virt. eigenvalues --    2.52061   2.54153   2.54424   2.57761   2.63569
 Alpha virt. eigenvalues --    2.71592   2.72005   2.76564   2.77551   2.81175
 Alpha virt. eigenvalues --    2.81716   2.83110   2.88256   2.90224   2.90413
 Alpha virt. eigenvalues --    2.90907   2.91666   2.95948   3.00196   3.00521
 Alpha virt. eigenvalues --    3.02020   3.06492   3.06971   3.15779   3.18356
 Alpha virt. eigenvalues --    3.19214   3.23023   3.27268   3.29900   3.34287
 Alpha virt. eigenvalues --    3.42126   3.43563   3.48268   3.49454   3.63838
 Alpha virt. eigenvalues --    3.66143   3.69525   3.73861   3.84038   3.87733
 Alpha virt. eigenvalues --    4.06915   4.15536   4.28111   4.30695   4.36349
 Alpha virt. eigenvalues --    4.40689   4.44545   4.95008   5.06773   5.16428
 Alpha virt. eigenvalues --    5.29134   5.48144   5.80845   6.08644  23.84229
 Alpha virt. eigenvalues --   23.94213  24.14212  24.21355  24.28331  24.30372
 Alpha virt. eigenvalues --   24.41805  50.03386  50.15030
          Condensed to atoms (all electrons):
               1          2          3          4          5          6
     1  C   12.185499  -2.389454  -2.645693   1.765865  -0.001722  -2.887062
     2  C   -2.389454  14.221491  -0.952970  -3.467373   0.554259  -1.014727
     3  C   -2.645693  -0.952970  11.253901  -0.701429   0.021912  -0.161441
     4  C    1.765865  -3.467373  -0.701429   7.714725  -0.108847  -0.037941
     5  H   -0.001722   0.554259   0.021912  -0.108847   0.467468  -0.095870
     6  C   -2.887062  -1.014727  -0.161441  -0.037941  -0.095870   9.007072
     7  C    0.756423  -1.261705  -1.434475   0.982854  -0.012839   0.264264
     8  H    0.042055   0.097158   0.405521  -0.025396   0.000223  -0.082695
     9  C   -1.407986   1.422751   0.997675  -0.664528   0.018952  -0.066023
    10  H    0.036237  -0.098950   0.004099   0.418528  -0.008894   0.014727
    11  O   -0.306953  -0.184660  -0.044992   0.087464  -0.033618   0.461382
    12  O   -0.161361  -0.056903  -0.042046   0.042715  -0.003731   0.540616
    13  H    0.010044  -0.026293  -0.050866   0.002424   0.000469   0.020603
    14  H    0.010603   0.012384   0.000209  -0.042505   0.000054  -0.013458
    15  H   -0.056727  -0.013818   0.018179  -0.016140   0.001071   0.051860
               7          8          9         10         11         12
     1  C    0.756423   0.042055  -1.407986   0.036237  -0.306953  -0.161361
     2  C   -1.261705   0.097158   1.422751  -0.098950  -0.184660  -0.056903
     3  C   -1.434475   0.405521   0.997675   0.004099  -0.044992  -0.042046
     4  C    0.982854  -0.025396  -0.664528   0.418528   0.087464   0.042715
     5  H   -0.012839   0.000223   0.018952  -0.008894  -0.033618  -0.003731
     6  C    0.264264  -0.082695  -0.066023   0.014727   0.461382   0.540616
     7  C    6.854464  -0.092478  -0.544023  -0.006620   0.047462   0.082164
     8  H   -0.092478   0.439944   0.021397   0.000231  -0.004011  -0.006936
     9  C   -0.544023   0.021397   6.353016  -0.029981  -0.034830  -0.019094
    10  H   -0.006620   0.000231  -0.029981   0.470665   0.002301   0.000445
    11  O    0.047462  -0.004011  -0.034830   0.002301   8.009254  -0.127319
    12  O    0.082164  -0.006936  -0.019094   0.000445  -0.127319   8.086674
    13  H    0.413969  -0.010304  -0.030341  -0.001289   0.000779   0.001176
    14  H   -0.032261   0.000838   0.418915  -0.006122  -0.000537  -0.000342
    15  H    0.006911  -0.000678  -0.002108  -0.000025   0.289470  -0.008408
              13         14         15
     1  C    0.010044   0.010603  -0.056727
     2  C   -0.026293   0.012384  -0.013818
     3  C   -0.050866   0.000209   0.018179
     4  C    0.002424  -0.042505  -0.016140
     5  H    0.000469   0.000054   0.001071
     6  C    0.020603  -0.013458   0.051860
     7  C    0.413969  -0.032261   0.006911
     8  H   -0.010304   0.000838  -0.000678
     9  C   -0.030341   0.418915  -0.002108
    10  H   -0.001289  -0.006122  -0.000025
    11  O    0.000779  -0.000537   0.289470
    12  O    0.001176  -0.000342  -0.008408
    13  H    0.465427  -0.006534   0.000177
    14  H   -0.006534   0.469303  -0.000132
    15  H    0.000177  -0.000132   0.394398
 Mulliken charges:
               1
     1  C    1.050231
     2  C   -0.841191
     3  C   -0.667585
     4  C    0.049585
     5  H    0.201114
     6  C   -0.001306
     7  C   -0.024110
     8  H    0.215134
     9  C   -0.433792
    10  H    0.204648
    11  O   -0.161192
    12  O   -0.327650
    13  H    0.210559
    14  H    0.189585
    15  H    0.335969
 Sum of Mulliken charges =  -0.00000
 Mulliken charges with hydrogens summed into heavy atoms:
               1
     1  C    1.050231
     2  C   -0.640076
     3  C   -0.452451
     4  C    0.254233
     6  C   -0.001306
     7  C    0.186449
     9  C   -0.244207
    11  O    0.174778
    12  O   -0.327650
 Electronic spatial extent (au):  <R**2>=           1158.2230
 Charge=             -0.0000 electrons
 Dipole moment (field-independent basis, Debye):
    X=              1.3255    Y=             -2.2476    Z=             -0.5385  Tot=              2.6644
 Quadrupole moment (field-independent basis, Debye-Ang):
   XX=            -43.3708   YY=            -49.7171   ZZ=            -54.4166
   XY=              7.8636   XZ=              1.7021   YZ=             -2.0882
 Traceless Quadrupole moment (field-independent basis, Debye-Ang):
   XX=              5.7974   YY=             -0.5489   ZZ=             -5.2484
   XY=              7.8636   XZ=              1.7021   YZ=             -2.0882
 Octapole moment (field-independent basis, Debye-Ang**2):
  XXX=            -21.4019  YYY=             -3.8932  ZZZ=             -0.3970  XYY=              6.6893
  XXY=            -25.9159  XXZ=             -5.9491  XZZ=            -10.5433  YZZ=             -0.5659
  YYZ=             -0.8700  XYZ=              1.3733
 Hexadecapole moment (field-independent basis, Debye-Ang**3):
 XXXX=           -873.2635 YYYY=           -351.1688 ZZZZ=            -67.0880 XXXY=             88.5601
 XXXZ=             19.0777 YYYX=             15.3267 YYYZ=             -5.1553 ZZZX=              1.5608
 ZZZY=              1.9556 XXYY=           -231.8713 XXZZ=           -197.0155 YYZZ=            -78.7856
 XXYZ=             -5.4872 YYXZ=              2.6716 ZZXY=              2.3019
 N-N= 4.093685838780D+02 E-N=-1.802234105080D+03  KE= 4.201196507499D+02
 No NMR shielding tensors so no spin-rotation constants.
 Leave Link  601 at Sun Nov  6 23:01:08 2022, MaxMem= 16106127360 cpu:              14.4 elap:               0.5
 (Enter /opt/ap/G16/B01/g16/l9999.exe)
 1\1\GINC-N05\SP\RwB97XD\6-311++G(d,p)\C7H6O2\ROOT\06-Nov-2022\0\\#P wB
 97XD/6-311++G(d,p) scf=maxcycle=512\\_conf014.gjf nmol_natom 1_15\\0,1
 \C\C,1,1.39016191\C,1,1.39194539,2,119.895942\C,2,1.38669027,1,119.880
 75721,3,0.70825972,0\H,2,0.98744251,1,119.71654057,3,-179.90726164,0\C
 ,1,1.48428757,2,119.93615286,4,-179.87772406,0\C,3,1.40101108,1,119.72
 36454,2,-0.26266839,0\H,3,0.9902154,1,119.1886159,2,178.85397616,0\C,4
 ,1.37899003,2,120.45785903,1,-0.48041454,0\H,4,0.9834739,2,120.3044270
 6,1,179.36166981,0\O,6,1.27459751,1,118.00615353,2,-20.,0\O,6,1.263625
 72,1,118.77715367,2,160.,0\H,7,0.98977053,3,119.37861578,1,-178.935457
 41,0\H,9,0.99498061,4,119.46722635,2,-178.58826714,0\H,11,0.89680392,6
 ,118.15823763,1,176.92714093,0\\Version=ES64L-G16RevB.01\State=1-A\HF=
 -420.7462403\RMSD=8.906e-09\Dipole=0.0495342,-0.2904166,1.0059943\Quad
 rupole=8.0522919,-4.1206854,-3.9316065,1.1765021,-1.2390718,1.9025334\
 PG=C01 [X(C7H6O2)]\\@


 THE FIRST AND LAST THING REQUIRED OF GENIUS IS THE LOVE OF TRUTH.

                          -- GOETHE
 Job cpu time:       0 days  0 hours  7 minutes 33.9 seconds.
 Elapsed time:       0 days  0 hours  0 minutes 14.3 seconds.
 File lengths (MBytes):  RWF=     35 Int=      0 D2E=      0 Chk=      4 Scr=      1
 Normal termination of Gaussian 16 at Sun Nov  6 23:01:08 2022.
