 Entering Gaussian System, Link 0=g16
 Input=_conf017.gjf
 Output=_conf017.log
 Initial command:
 /opt/ap/G16/B01/g16/l1.exe "/tmp2/scr/Gau-21318.inp" -scrdir="/tmp2/scr/"
 Entering Link 1 = /opt/ap/G16/B01/g16/l1.exe PID=     21319.
  
 Copyright (c) 1988-2017, Gaussian, Inc.  All Rights Reserved.
  
 This is part of the Gaussian(R) 16 program.  It is based on
 the Gaussian(R) 09 system (copyright 2009, Gaussian, Inc.),
 the Gaussian(R) 03 system (copyright 2003, Gaussian, Inc.),
 the Gaussian(R) 98 system (copyright 1998, Gaussian, Inc.),
 the Gaussian(R) 94 system (copyright 1995, Gaussian, Inc.),
 the Gaussian 92(TM) system (copyright 1992, Gaussian, Inc.),
 the Gaussian 90(TM) system (copyright 1990, Gaussian, Inc.),
 the Gaussian 88(TM) system (copyright 1988, Gaussian, Inc.),
 the Gaussian 86(TM) system (copyright 1986, Carnegie Mellon
 University), and the Gaussian 82(TM) system (copyright 1983,
 Carnegie Mellon University). Gaussian is a federally registered
 trademark of Gaussian, Inc.
  
 This software contains proprietary and confidential information,
 including trade secrets, belonging to Gaussian, Inc.
  
 This software is provided under written license and may be
 used, copied, transmitted, or stored only in accord with that
 written license.
  
 The following legend is applicable only to US Government
 contracts under FAR:
  
                    RESTRICTED RIGHTS LEGEND
  
 Use, reproduction and disclosure by the US Government is
 subject to restrictions as set forth in subparagraphs (a)
 and (c) of the Commercial Computer Software - Restricted
 Rights clause in FAR 52.227-19.
  
 Gaussian, Inc.
 340 Quinnipiac St., Bldg. 40, Wallingford CT 06492
  
  
 ---------------------------------------------------------------
 Warning -- This program may not be used in any manner that
 competes with the business of Gaussian, Inc. or will provide
 assistance to any competitor of Gaussian, Inc.  The licensee
 of this program is prohibited from giving any competitor of
 Gaussian, Inc. access to this program.  By using this program,
 the user acknowledges that Gaussian, Inc. is engaged in the
 business of creating and licensing software in the field of
 computational chemistry and represents and warrants to the
 licensee that it is not a competitor of Gaussian, Inc. and that
 it will not use this program in any manner prohibited above.
 ---------------------------------------------------------------
  

 Cite this work as:
 Gaussian 16, Revision B.01,
 M. J. Frisch, G. W. Trucks, H. B. Schlegel, G. E. Scuseria, 
 M. A. Robb, J. R. Cheeseman, G. Scalmani, V. Barone, 
 G. A. Petersson, H. Nakatsuji, X. Li, M. Caricato, A. V. Marenich, 
 J. Bloino, B. G. Janesko, R. Gomperts, B. Mennucci, H. P. Hratchian, 
 J. V. Ortiz, A. F. Izmaylov, J. L. Sonnenberg, D. Williams-Young, 
 F. Ding, F. Lipparini, F. Egidi, J. Goings, B. Peng, A. Petrone, 
 T. Henderson, D. Ranasinghe, V. G. Zakrzewski, J. Gao, N. Rega, 
 G. Zheng, W. Liang, M. Hada, M. Ehara, K. Toyota, R. Fukuda, 
 J. Hasegawa, M. Ishida, T. Nakajima, Y. Honda, O. Kitao, H. Nakai, 
 T. Vreven, K. Throssell, J. A. Montgomery, Jr., J. E. Peralta, 
 F. Ogliaro, M. J. Bearpark, J. J. Heyd, E. N. Brothers, K. N. Kudin, 
 V. N. Staroverov, T. A. Keith, R. Kobayashi, J. Normand, 
 K. Raghavachari, A. P. Rendell, J. C. Burant, S. S. Iyengar, 
 J. Tomasi, M. Cossi, J. M. Millam, M. Klene, C. Adamo, R. Cammi, 
 J. W. Ochterski, R. L. Martin, K. Morokuma, O. Farkas, 
 J. B. Foresman, and D. J. Fox, Gaussian, Inc., Wallingford CT, 2016.
 
 ******************************************
 Gaussian 16:  ES64L-G16RevB.01 20-Dec-2017
                 6-Nov-2022 
 ******************************************
 %nprocshared=32
 Will use up to   32 processors via shared memory.
 %mem=120GB
 %chk=_conf017.chk
 ----------------------------------------
 #P wB97XD/6-311++G(d,p) scf=maxcycle=512
 ----------------------------------------
 1/38=1,172=1/1;
 2/12=2,17=6,18=5,40=1/2;
 3/5=4,6=6,7=1111,11=2,25=1,30=1,74=-58/1,2,3;
 4//1;
 5/5=2,7=512,38=5/2;
 6/7=2,8=2,9=2,10=2,28=1/1;
 99/5=1,9=1/99;
 Leave Link    1 at Sun Nov  6 23:01:07 2022, MaxMem= 16106127360 cpu:               1.8 elap:               0.1
 (Enter /opt/ap/G16/B01/g16/l101.exe)
 ----------------------------
 _conf017.gjf nmol_natom 1_15
 ----------------------------
 Symbolic Z-matrix:
 Charge =  0 Multiplicity = 1
 C
 C                    1     1.39016 
 C                    1     1.39195  2     119.89594 
 C                    2     1.38669  1     119.88076  3     0.70826  0
 H                    2     0.98744  1     119.71654  3    -179.90726  0
 C                    1     1.48429  2     119.93615  4    -179.87772  0
 C                    3     1.40101  1     119.72365  2    -0.26267  0
 H                    3     0.99022  1     119.18862  2     178.85398  0
 C                    4     1.37899  2     120.45786  1    -0.48041  0
 H                    4     0.98347  2     120.30443  1     179.36167  0
 O                    6     1.2746   1     118.00615  2    -5.       0
 O                    6     1.26363  1     118.77715  2     175.     0
 H                    7     0.98977  3     119.37862  1    -178.93546  0
 H                    9     0.99498  4     119.46723  2    -178.58827  0
 H                    11    0.8968   6     118.15824  1     176.92714  0
 
 ITRead=  0  0  0  0  0  0  0  0  0  0  0  0  0  0  0
 MicOpt= -1 -1 -1 -1 -1 -1 -1 -1 -1 -1 -1 -1 -1 -1 -1
 NAtoms=     15 NQM=       15 NQMF=       0 NMMI=      0 NMMIF=      0
                NMic=       0 NMicF=      0.
                    Isotopes and Nuclear Properties:
 (Nuclear quadrupole moments (NQMom) in fm**2, nuclear magnetic moments (NMagM)
  in nuclear magnetons)

  Atom         1           2           3           4           5           6           7           8           9          10
 IAtWgt=          12          12          12          12           1          12          12           1          12           1
 AtmWgt=  12.0000000  12.0000000  12.0000000  12.0000000   1.0078250  12.0000000  12.0000000   1.0078250  12.0000000   1.0078250
 NucSpn=           0           0           0           0           1           0           0           1           0           1
 AtZEff=  -0.0000000  -0.0000000  -0.0000000  -0.0000000  -0.0000000  -0.0000000  -0.0000000  -0.0000000  -0.0000000  -0.0000000
 NQMom=    0.0000000   0.0000000   0.0000000   0.0000000   0.0000000   0.0000000   0.0000000   0.0000000   0.0000000   0.0000000
 NMagM=    0.0000000   0.0000000   0.0000000   0.0000000   2.7928460   0.0000000   0.0000000   2.7928460   0.0000000   2.7928460
 AtZNuc=   6.0000000   6.0000000   6.0000000   6.0000000   1.0000000   6.0000000   6.0000000   1.0000000   6.0000000   1.0000000

  Atom        11          12          13          14          15
 IAtWgt=          16          16           1           1           1
 AtmWgt=  15.9949146  15.9949146   1.0078250   1.0078250   1.0078250
 NucSpn=           0           0           1           1           1
 AtZEff=  -0.0000000  -0.0000000  -0.0000000  -0.0000000  -0.0000000
 NQMom=    0.0000000   0.0000000   0.0000000   0.0000000   0.0000000
 NMagM=    0.0000000   0.0000000   2.7928460   2.7928460   2.7928460
 AtZNuc=   8.0000000   8.0000000   1.0000000   1.0000000   1.0000000
 Leave Link  101 at Sun Nov  6 23:01:07 2022, MaxMem= 16106127360 cpu:               5.2 elap:               0.2
 (Enter /opt/ap/G16/B01/g16/l202.exe)
                          Input orientation:                          
 ---------------------------------------------------------------------
 Center     Atomic      Atomic             Coordinates (Angstroms)
 Number     Number       Type             X           Y           Z
 ---------------------------------------------------------------------
      1          6           0        0.000000    0.000000    0.000000
      2          6           0        0.000000    0.000000    1.390162
      3          6           0        1.206722    0.000000   -0.693782
      4          6           0        1.202258    0.014862    2.081006
      5          1           0       -0.857581   -0.001388    1.879646
      6          6           0       -1.286190   -0.013155   -0.740711
      7          6           0        2.415349    0.005578    0.014752
      8          1           0        1.194584   -0.017290   -1.683772
      9          6           0        2.400563    0.019708    1.398617
     10          1           0        1.209438    0.024411    3.064408
     11          8           0       -2.363233   -0.122255   -0.067900
     12          8           0       -1.263722    0.083611   -2.000426
     13          1           0        3.270315    0.021574   -0.483669
     14          1           0        3.254554    0.009066    1.909081
     15          1           0       -3.143195   -0.088261   -0.509217
 ---------------------------------------------------------------------
                    Distance matrix (angstroms):
                    1          2          3          4          5
     1  C    0.000000
     2  C    1.390162   0.000000
     3  C    1.391945   2.408112   0.000000
     4  C    2.403379   1.386690   2.774832   0.000000
     5  H    2.066039   0.987443   3.299073   2.069721   0.000000
     6  C    1.484288   2.488991   2.493388   3.762345   2.655206
     7  C    2.415401   2.779513   1.401011   2.396056   3.766955
     8  H    2.064563   3.297939   0.990215   3.764924   4.112127
     9  C    2.778349   2.400659   2.409104   1.378990   3.293530
    10  H    3.294530   2.065535   3.758270   0.983474   2.382624
    11  O    2.367367   2.779525   3.626465   4.165251   2.464657
    12  O    2.367633   3.619402   2.795962   4.769053   3.902196
    13  H    3.305958   3.769173   2.074374   3.294611   4.756607
    14  H    3.773167   3.295676   3.311886   2.059493   4.112253
    15  H    3.185399   3.673568   4.354725   5.059925   3.307302
                    6          7          8          9         10
     6  C    0.000000
     7  C    3.777892   0.000000
     8  H    2.653982   2.091836   0.000000
     9  C    4.262622   1.384016   3.310118   0.000000
    10  H    4.550659   3.279477   4.748386   2.047842   0.000000
    11  O    1.274598   4.781006   3.908980   4.986439   4.753613
    12  O    1.263626   4.195545   2.480669   4.998456   5.636716
    13  H    4.563881   0.989771   2.398003   2.073517   4.103177
    14  H    5.257398   2.071897   4.141589   0.994981   2.348938
    15  H    1.872885   5.583974   4.494546   5.863850   5.632841
                   11         12         13         14         15
    11  O    0.000000
    12  O    2.232926   0.000000
    13  H    5.650700   4.781411   0.000000
    14  H    5.956947   5.975334   2.392834   0.000000
    15  H    0.896804   2.405340   6.414501   6.840235   0.000000
 Stoichiometry    C7H6O2
 Framework group  C1[X(C7H6O2)]
 Deg. of freedom    39
 Full point group                 C1      NOp   1
 Largest Abelian subgroup         C1      NOp   1
 Largest concise Abelian subgroup C1      NOp   1
                         Standard orientation:                         
 ---------------------------------------------------------------------
 Center     Atomic      Atomic             Coordinates (Angstroms)
 Number     Number       Type             X           Y           Z
 ---------------------------------------------------------------------
      1          6           0       -0.220620    0.028258    0.004253
      2          6           0        0.443611   -1.192703    0.028733
      3          6           0        0.507899    1.213810   -0.030947
      4          6           0        1.829919   -1.225018    0.032857
      5          1           0       -0.075841   -2.032142    0.052298
      6          6           0       -1.704468    0.064335    0.002556
      7          6           0        1.908177    1.168771   -0.035913
      8          1           0        0.024067    2.077085   -0.065432
      9          6           0        2.556528   -0.053373    0.002862
     10          1           0        2.306184   -2.085064    0.059583
     11          8           0       -2.330002   -1.043556   -0.074147
     12          8           0       -2.285830    1.183832    0.076679
     13          1           0        2.421183    2.015169   -0.044982
     14          1           0        3.550510   -0.094186   -0.015053
     15          1           0       -3.225722   -1.027551   -0.033080
 ---------------------------------------------------------------------
 Rotational constants (GHZ):           3.9688652           1.2381693           0.9446115
 Leave Link  202 at Sun Nov  6 23:01:07 2022, MaxMem= 16106127360 cpu:               0.3 elap:               0.0
 (Enter /opt/ap/G16/B01/g16/l301.exe)
 Standard basis: 6-311++G(d,p) (5D, 7F)
 Ernie: Thresh=  0.10000D-02 Tol=  0.10000D-05 Strict=F.
 There are   249 symmetry adapted cartesian basis functions of A   symmetry.
 There are   240 symmetry adapted basis functions of A   symmetry.
   240 basis functions,   378 primitive gaussians,   249 cartesian basis functions
    32 alpha electrons       32 beta electrons
       nuclear repulsion energy       409.5485318918 Hartrees.
 IExCor= 4639 DFT=T Ex+Corr=wB97XD ExCW=0 ScaHFX=  1.000000
 ScaDFX=  1.000000  1.000000  1.000000  1.000000 ScalE2=  1.000000  1.000000
 IRadAn=      5 IRanWt=     -1 IRanGd=            0 ICorTp=0 IEmpDi=121
 HFx  wShort=  0.000000 wLong=  0.200000 cFull=  0.222036 cShort=  0.000000 cLong=  0.777964
 DFx  wShort=  0.000000 wLong=  0.200000 cFull=  0.000000 cShort=  0.000000 cLong=  1.000000
 NAtoms=   15 NActive=   15 NUniq=   15 SFac= 1.00D+00 NAtFMM=   60 NAOKFM=F Big=F
 Integral buffers will be    131072 words long.
 Raffenetti 2 integral format.
 Two-electron integral symmetry is turned on.
 R6Disp:  Grimme-D2 Dispersion energy=       -0.0063283103 Hartrees.
 Nuclear repulsion after empirical dispersion term =      409.5422035814 Hartrees.
 Leave Link  301 at Sun Nov  6 23:01:07 2022, MaxMem= 16106127360 cpu:               1.2 elap:               0.0
 (Enter /opt/ap/G16/B01/g16/l302.exe)
 NPDir=0 NMtPBC=     1 NCelOv=     1 NCel=       1 NClECP=     1 NCelD=      1
         NCelK=      1 NCelE2=     1 NClLst=     1 CellRange=     0.0.
 One-electron integrals computed using PRISM.
 One-electron integral symmetry used in STVInt
 NBasis=   240 RedAO= T EigKep=  1.22D-06  NBF=   240
 NBsUse=   240 1.00D-06 EigRej= -1.00D+00 NBFU=   240
 Precomputing XC quadrature grid using
 IXCGrd= 4 IRadAn=           5 IRanWt=          -1 IRanGd=           0 AccXCQ= 0.00D+00.
 Generated NRdTot=       0 NPtTot=           0 NUsed=           0 NTot=          32
 NSgBfM=   249   249   249   249   249 MxSgAt=    15 MxSgA2=    15.
 Leave Link  302 at Sun Nov  6 23:01:07 2022, MaxMem= 16106127360 cpu:               5.4 elap:               0.2
 (Enter /opt/ap/G16/B01/g16/l303.exe)
 DipDrv:  MaxL=1.
 Leave Link  303 at Sun Nov  6 23:01:08 2022, MaxMem= 16106127360 cpu:               1.4 elap:               0.1
 (Enter /opt/ap/G16/B01/g16/l401.exe)
 ExpMin= 3.60D-02 ExpMax= 8.59D+03 ExpMxC= 1.30D+03 IAcc=3 IRadAn=         5 AccDes= 0.00D+00
 Harris functional with IExCor= 4639 and IRadAn=       5 diagonalized for initial guess.
 HarFok:  IExCor= 4639 AccDes= 0.00D+00 IRadAn=         5 IDoV= 1 UseB2=F ITyADJ=14
 ICtDFT=  3500011 ScaDFX=  1.000000  1.000000  1.000000  1.000000
 FoFCou: FMM=F IPFlag=           0 FMFlag=      100000 FMFlg1=           0
         NFxFlg=           0 DoJE=T BraDBF=F KetDBF=T FulRan=T
         wScrn=  0.000000 ICntrl=       500 IOpCl=  0 I1Cent=   200000004 NGrid=           0
         NMat0=    1 NMatS0=      1 NMatT0=    0 NMatD0=    1 NMtDS0=    0 NMtDT0=    0
 Petite list used in FoFCou.
 Harris En= -403.254850135253    
 JPrj=0 DoOrth=F DoCkMO=F.
 Leave Link  401 at Sun Nov  6 23:01:08 2022, MaxMem= 16106127360 cpu:              11.7 elap:               0.4
 (Enter /opt/ap/G16/B01/g16/l502.exe)
 Integral symmetry usage will be decided dynamically.
 Closed shell SCF:
 Using DIIS extrapolation, IDIIS=  1040.
 NGot= 16106127360 LenX= 16105992971 LenY= 16105930529
 Requested convergence on RMS density matrix=1.00D-08 within 512 cycles.
 Requested convergence on MAX density matrix=1.00D-06.
 Requested convergence on             energy=1.00D-06.
 No special actions if energy rises.
 Fock matrices will be formed incrementally for  20 cycles.

 Cycle   1  Pass 1  IDiag  1:
 FoFJK:  IHMeth= 1 ICntrl=       0 DoSepK=T KAlg= 0 I1Cent=           0 FoldK=F
 IRaf=         1 NMat=       1 IRICut=       1 DoRegI=T DoRafI=F ISym2E= 0 IDoP0=0 IntGTp=1.
 FoFCou: FMM=F IPFlag=           0 FMFlag=      100000 FMFlg1=           0
         NFxFlg=           0 DoJE=T BraDBF=F KetDBF=F FulRan=T
         wScrn=  0.000000 ICntrl=       500 IOpCl=  0 I1Cent=           0 NGrid=           0
         NMat0=    1 NMatS0=      1 NMatT0=    0 NMatD0=    1 NMtDS0=    0 NMtDT0=    0
 Symmetry not used in FoFCou.
 E= -420.632655374136    
 DIIS: error= 8.22D-02 at cycle   1 NSaved=   1.
 NSaved= 1 IEnMin= 1 EnMin= -420.632655374136     IErMin= 1 ErrMin= 8.22D-02
 ErrMax= 8.22D-02  0.00D+00 EMaxC= 1.00D-01 BMatC= 8.61D-01 BMatP= 8.61D-01
 IDIUse=3 WtCom= 1.78D-01 WtEn= 8.22D-01
 Coeff-Com:  0.100D+01
 Coeff-En:   0.100D+01
 Coeff:      0.100D+01
 Gap=     0.427 Goal=   None    Shift=    0.000
 GapD=    0.427 DampG=2.000 DampE=0.500 DampFc=1.0000 IDamp=-1.
 RMSDP=3.11D-02 MaxDP=2.71D+00              OVMax= 1.11D-01

 Cycle   2  Pass 1  IDiag  1:
 RMSU=  1.43D-02    CP:  6.80D-01
 E= -420.703447871545     Delta-E=       -0.070792497409 Rises=F Damp=F
 DIIS: error= 1.59D-02 at cycle   2 NSaved=   2.
 NSaved= 2 IEnMin= 2 EnMin= -420.703447871545     IErMin= 2 ErrMin= 1.59D-02
 ErrMax= 1.59D-02  0.00D+00 EMaxC= 1.00D-01 BMatC= 5.74D-02 BMatP= 8.61D-01
 IDIUse=3 WtCom= 8.41D-01 WtEn= 1.59D-01
 Coeff-Com:  0.136D+00 0.864D+00
 Coeff-En:   0.991D-01 0.901D+00
 Coeff:      0.130D+00 0.870D+00
 Gap=     0.424 Goal=   None    Shift=    0.000
 RMSDP=7.33D-03 MaxDP=2.98D-01 DE=-7.08D-02 OVMax= 7.86D-02

 Cycle   3  Pass 1  IDiag  1:
 RMSU=  6.74D-03    CP:  6.76D-01  7.99D-01
 E= -420.719652378289     Delta-E=       -0.016204506744 Rises=F Damp=F
 DIIS: error= 1.71D-02 at cycle   3 NSaved=   3.
 NSaved= 3 IEnMin= 3 EnMin= -420.719652378289     IErMin= 2 ErrMin= 1.59D-02
 ErrMax= 1.71D-02  0.00D+00 EMaxC= 1.00D-01 BMatC= 3.60D-02 BMatP= 5.74D-02
 IDIUse=3 WtCom= 8.29D-01 WtEn= 1.71D-01
 Coeff-Com:  0.276D-01 0.447D+00 0.525D+00
 Coeff-En:   0.000D+00 0.384D+00 0.616D+00
 Coeff:      0.229D-01 0.436D+00 0.541D+00
 Gap=     0.360 Goal=   None    Shift=    0.000
 RMSDP=4.23D-03 MaxDP=4.15D-01 DE=-1.62D-02 OVMax= 5.42D-02

 Cycle   4  Pass 1  IDiag  1:
 RMSU=  2.04D-03    CP:  6.46D-01  8.88D-01  6.52D-01
 E= -420.745802836808     Delta-E=       -0.026150458519 Rises=F Damp=F
 DIIS: error= 3.26D-03 at cycle   4 NSaved=   4.
 NSaved= 4 IEnMin= 4 EnMin= -420.745802836808     IErMin= 4 ErrMin= 3.26D-03
 ErrMax= 3.26D-03  0.00D+00 EMaxC= 1.00D-01 BMatC= 1.99D-03 BMatP= 3.60D-02
 IDIUse=3 WtCom= 9.67D-01 WtEn= 3.26D-02
 Coeff-Com:  0.105D-01 0.222D+00 0.306D+00 0.462D+00
 Coeff-En:   0.000D+00 0.000D+00 0.000D+00 0.100D+01
 Coeff:      0.101D-01 0.215D+00 0.296D+00 0.480D+00
 Gap=     0.353 Goal=   None    Shift=    0.000
 RMSDP=9.02D-04 MaxDP=5.11D-02 DE=-2.62D-02 OVMax= 1.27D-02

 Cycle   5  Pass 1  IDiag  1:
 RMSU=  7.03D-04    CP:  6.45D-01  8.73D-01  7.08D-01  8.36D-01
 E= -420.747145538881     Delta-E=       -0.001342702074 Rises=F Damp=F
 DIIS: error= 6.30D-04 at cycle   5 NSaved=   5.
 NSaved= 5 IEnMin= 5 EnMin= -420.747145538881     IErMin= 5 ErrMin= 6.30D-04
 ErrMax= 6.30D-04  0.00D+00 EMaxC= 1.00D-01 BMatC= 5.55D-05 BMatP= 1.99D-03
 IDIUse=3 WtCom= 9.94D-01 WtEn= 6.30D-03
 Coeff-Com:  0.309D-03 0.153D-01 0.305D-01 0.156D+00 0.798D+00
 Coeff-En:   0.000D+00 0.000D+00 0.000D+00 0.000D+00 0.100D+01
 Coeff:      0.308D-03 0.152D-01 0.303D-01 0.155D+00 0.799D+00
 Gap=     0.350 Goal=   None    Shift=    0.000
 RMSDP=2.32D-04 MaxDP=1.35D-02 DE=-1.34D-03 OVMax= 2.61D-03

 Cycle   6  Pass 1  IDiag  1:
 RMSU=  1.22D-04    CP:  6.43D-01  8.77D-01  7.22D-01  8.72D-01  9.90D-01
 E= -420.747188065136     Delta-E=       -0.000042526255 Rises=F Damp=F
 DIIS: error= 2.17D-04 at cycle   6 NSaved=   6.
 NSaved= 6 IEnMin= 6 EnMin= -420.747188065136     IErMin= 6 ErrMin= 2.17D-04
 ErrMax= 2.17D-04  0.00D+00 EMaxC= 1.00D-01 BMatC= 7.43D-06 BMatP= 5.55D-05
 IDIUse=3 WtCom= 9.98D-01 WtEn= 2.17D-03
 Coeff-Com: -0.963D-03-0.165D-01-0.179D-01 0.161D-01 0.346D+00 0.673D+00
 Coeff-En:   0.000D+00 0.000D+00 0.000D+00 0.000D+00 0.000D+00 0.100D+01
 Coeff:     -0.961D-03-0.165D-01-0.179D-01 0.160D-01 0.345D+00 0.674D+00
 Gap=     0.350 Goal=   None    Shift=    0.000
 RMSDP=1.81D-04 MaxDP=1.79D-02 DE=-4.25D-05 OVMax= 8.37D-04

 Cycle   7  Pass 1  IDiag  1:
 RMSU=  5.69D-05    CP:  6.41D-01  8.75D-01  7.31D-01  8.87D-01  1.06D+00
                    CP:  1.11D+00
 E= -420.747195244672     Delta-E=       -0.000007179536 Rises=F Damp=F
 DIIS: error= 6.72D-05 at cycle   7 NSaved=   7.
 NSaved= 7 IEnMin= 7 EnMin= -420.747195244672     IErMin= 7 ErrMin= 6.72D-05
 ErrMax= 6.72D-05  0.00D+00 EMaxC= 1.00D-01 BMatC= 3.10D-07 BMatP= 7.43D-06
 IDIUse=1 WtCom= 1.00D+00 WtEn= 0.00D+00
 Coeff-Com: -0.234D-03-0.544D-02-0.683D-02-0.134D-01-0.260D-03 0.134D+00
 Coeff-Com:  0.892D+00
 Coeff:     -0.234D-03-0.544D-02-0.683D-02-0.134D-01-0.260D-03 0.134D+00
 Coeff:      0.892D+00
 Gap=     0.350 Goal=   None    Shift=    0.000
 RMSDP=4.60D-05 MaxDP=3.34D-03 DE=-7.18D-06 OVMax= 3.12D-04

 Cycle   8  Pass 1  IDiag  1:
 RMSU=  1.40D-05    CP:  6.41D-01  8.75D-01  7.34D-01  8.90D-01  1.10D+00
                    CP:  1.15D+00  1.07D+00
 E= -420.747195812884     Delta-E=       -0.000000568212 Rises=F Damp=F
 DIIS: error= 1.44D-05 at cycle   8 NSaved=   8.
 NSaved= 8 IEnMin= 8 EnMin= -420.747195812884     IErMin= 8 ErrMin= 1.44D-05
 ErrMax= 1.44D-05  0.00D+00 EMaxC= 1.00D-01 BMatC= 4.09D-08 BMatP= 3.10D-07
 IDIUse=1 WtCom= 1.00D+00 WtEn= 0.00D+00
 Coeff-Com:  0.308D-04 0.264D-03 0.148D-03-0.593D-02-0.374D-01-0.373D-01
 Coeff-Com:  0.241D+00 0.840D+00
 Coeff:      0.308D-04 0.264D-03 0.148D-03-0.593D-02-0.374D-01-0.373D-01
 Coeff:      0.241D+00 0.840D+00
 Gap=     0.350 Goal=   None    Shift=    0.000
 RMSDP=1.34D-05 MaxDP=6.78D-04 DE=-5.68D-07 OVMax= 1.15D-04

 Cycle   9  Pass 1  IDiag  1:
 RMSU=  4.50D-06    CP:  6.41D-01  8.74D-01  7.35D-01  8.88D-01  1.11D+00
                    CP:  1.18D+00  1.17D+00  1.15D+00
 E= -420.747195884167     Delta-E=       -0.000000071283 Rises=F Damp=F
 DIIS: error= 1.02D-05 at cycle   9 NSaved=   9.
 NSaved= 9 IEnMin= 9 EnMin= -420.747195884167     IErMin= 9 ErrMin= 1.02D-05
 ErrMax= 1.02D-05  0.00D+00 EMaxC= 1.00D-01 BMatC= 4.57D-09 BMatP= 4.09D-08
 IDIUse=1 WtCom= 1.00D+00 WtEn= 0.00D+00
 Coeff-Com:  0.363D-04 0.694D-03 0.848D-03-0.342D-03-0.100D-01-0.263D-01
 Coeff-Com: -0.279D-01 0.246D+00 0.817D+00
 Coeff:      0.363D-04 0.694D-03 0.848D-03-0.342D-03-0.100D-01-0.263D-01
 Coeff:     -0.279D-01 0.246D+00 0.817D+00
 Gap=     0.350 Goal=   None    Shift=    0.000
 RMSDP=5.01D-06 MaxDP=3.19D-04 DE=-7.13D-08 OVMax= 4.87D-05

 Cycle  10  Pass 1  IDiag  1:
 RMSU=  1.57D-06    CP:  6.41D-01  8.74D-01  7.35D-01  8.86D-01  1.11D+00
                    CP:  1.18D+00  1.20D+00  1.24D+00  1.28D+00
 E= -420.747195892261     Delta-E=       -0.000000008094 Rises=F Damp=F
 DIIS: error= 1.54D-06 at cycle  10 NSaved=  10.
 NSaved=10 IEnMin=10 EnMin= -420.747195892261     IErMin=10 ErrMin= 1.54D-06
 ErrMax= 1.54D-06  0.00D+00 EMaxC= 1.00D-01 BMatC= 5.56D-10 BMatP= 4.57D-09
 IDIUse=1 WtCom= 1.00D+00 WtEn= 0.00D+00
 Coeff-Com:  0.616D-05 0.138D-03 0.194D-03 0.424D-03 0.135D-02-0.366D-02
 Coeff-Com: -0.299D-01-0.275D-01 0.222D+00 0.837D+00
 Coeff:      0.616D-05 0.138D-03 0.194D-03 0.424D-03 0.135D-02-0.366D-02
 Coeff:     -0.299D-01-0.275D-01 0.222D+00 0.837D+00
 Gap=     0.350 Goal=   None    Shift=    0.000
 RMSDP=1.72D-06 MaxDP=8.88D-05 DE=-8.09D-09 OVMax= 1.32D-05

 Cycle  11  Pass 1  IDiag  1:
 RMSU=  4.04D-07    CP:  6.41D-01  8.74D-01  7.35D-01  8.85D-01  1.11D+00
                    CP:  1.18D+00  1.20D+00  1.28D+00  1.41D+00  1.22D+00
 E= -420.747195893148     Delta-E=       -0.000000000887 Rises=F Damp=F
 DIIS: error= 1.02D-06 at cycle  11 NSaved=  11.
 NSaved=11 IEnMin=11 EnMin= -420.747195893148     IErMin=11 ErrMin= 1.02D-06
 ErrMax= 1.02D-06  0.00D+00 EMaxC= 1.00D-01 BMatC= 9.97D-11 BMatP= 5.56D-10
 IDIUse=1 WtCom= 1.00D+00 WtEn= 0.00D+00
 Coeff-Com: -0.146D-05-0.109D-04 0.188D-05 0.247D-03 0.186D-02 0.132D-02
 Coeff-Com: -0.829D-02-0.454D-01-0.130D-01 0.338D+00 0.726D+00
 Coeff:     -0.146D-05-0.109D-04 0.188D-05 0.247D-03 0.186D-02 0.132D-02
 Coeff:     -0.829D-02-0.454D-01-0.130D-01 0.338D+00 0.726D+00
 Gap=     0.350 Goal=   None    Shift=    0.000
 RMSDP=6.44D-07 MaxDP=3.51D-05 DE=-8.87D-10 OVMax= 6.83D-06

 Cycle  12  Pass 1  IDiag  1:
 RMSU=  1.97D-07    CP:  6.41D-01  8.74D-01  7.35D-01  8.85D-01  1.11D+00
                    CP:  1.18D+00  1.21D+00  1.28D+00  1.46D+00  1.35D+00
                    CP:  9.98D-01
 E= -420.747195893278     Delta-E=       -0.000000000130 Rises=F Damp=F
 DIIS: error= 2.40D-07 at cycle  12 NSaved=  12.
 NSaved=12 IEnMin=12 EnMin= -420.747195893278     IErMin=12 ErrMin= 2.40D-07
 ErrMax= 2.40D-07  0.00D+00 EMaxC= 1.00D-01 BMatC= 7.51D-12 BMatP= 9.97D-11
 IDIUse=1 WtCom= 1.00D+00 WtEn= 0.00D+00
 Coeff-Com: -0.941D-06-0.148D-04-0.151D-04 0.404D-04 0.450D-03 0.572D-03
 Coeff-Com:  0.579D-03-0.115D-01-0.216D-01 0.266D-01 0.203D+00 0.802D+00
 Coeff:     -0.941D-06-0.148D-04-0.151D-04 0.404D-04 0.450D-03 0.572D-03
 Coeff:      0.579D-03-0.115D-01-0.216D-01 0.266D-01 0.203D+00 0.802D+00
 Gap=     0.350 Goal=   None    Shift=    0.000
 RMSDP=1.49D-07 MaxDP=1.02D-05 DE=-1.30D-10 OVMax= 2.14D-06

 Cycle  13  Pass 1  IDiag  1:
 RMSU=  6.68D-08    CP:  6.41D-01  8.74D-01  7.35D-01  8.85D-01  1.11D+00
                    CP:  1.18D+00  1.21D+00  1.28D+00  1.47D+00  1.37D+00
                    CP:  1.07D+00  1.00D+00
 E= -420.747195893295     Delta-E=       -0.000000000016 Rises=F Damp=F
 DIIS: error= 1.28D-07 at cycle  13 NSaved=  13.
 NSaved=13 IEnMin=13 EnMin= -420.747195893295     IErMin=13 ErrMin= 1.28D-07
 ErrMax= 1.28D-07  0.00D+00 EMaxC= 1.00D-01 BMatC= 1.30D-12 BMatP= 7.51D-12
 IDIUse=1 WtCom= 1.00D+00 WtEn= 0.00D+00
 Coeff-Com: -0.496D-08-0.392D-05-0.685D-05-0.335D-04-0.200D-03-0.946D-04
 Coeff-Com:  0.182D-02 0.430D-02-0.330D-02-0.532D-01-0.833D-01 0.239D+00
 Coeff-Com:  0.895D+00
 Coeff:     -0.496D-08-0.392D-05-0.685D-05-0.335D-04-0.200D-03-0.946D-04
 Coeff:      0.182D-02 0.430D-02-0.330D-02-0.532D-01-0.833D-01 0.239D+00
 Coeff:      0.895D+00
 Gap=     0.350 Goal=   None    Shift=    0.000
 RMSDP=7.53D-08 MaxDP=6.75D-06 DE=-1.65D-11 OVMax= 1.32D-06

 Cycle  14  Pass 1  IDiag  1:
 RMSU=  2.14D-08    CP:  6.41D-01  8.74D-01  7.35D-01  8.85D-01  1.11D+00
                    CP:  1.18D+00  1.21D+00  1.28D+00  1.47D+00  1.38D+00
                    CP:  1.10D+00  1.11D+00  1.23D+00
 E= -420.747195893300     Delta-E=       -0.000000000005 Rises=F Damp=F
 DIIS: error= 5.98D-08 at cycle  14 NSaved=  14.
 NSaved=14 IEnMin=14 EnMin= -420.747195893300     IErMin=14 ErrMin= 5.98D-08
 ErrMax= 5.98D-08  0.00D+00 EMaxC= 1.00D-01 BMatC= 1.02D-13 BMatP= 1.30D-12
 IDIUse=1 WtCom= 1.00D+00 WtEn= 0.00D+00
 Coeff-Com:  0.494D-07 0.778D-06 0.809D-06-0.454D-05-0.567D-04-0.388D-04
 Coeff-Com:  0.534D-04 0.115D-02 0.184D-02-0.624D-02-0.235D-01-0.576D-01
 Coeff-Com:  0.474D-01 0.104D+01
 Coeff:      0.494D-07 0.778D-06 0.809D-06-0.454D-05-0.567D-04-0.388D-04
 Coeff:      0.534D-04 0.115D-02 0.184D-02-0.624D-02-0.235D-01-0.576D-01
 Coeff:      0.474D-01 0.104D+01
 Gap=     0.350 Goal=   None    Shift=    0.000
 RMSDP=2.80D-08 MaxDP=2.38D-06 DE=-4.89D-12 OVMax= 5.26D-07

 Cycle  15  Pass 1  IDiag  1:
 RMSU=  7.37D-09    CP:  6.41D-01  8.74D-01  7.35D-01  8.85D-01  1.11D+00
                    CP:  1.18D+00  1.21D+00  1.28D+00  1.47D+00  1.38D+00
                    CP:  1.10D+00  1.11D+00  1.40D+00  1.27D+00
 E= -420.747195893300     Delta-E=       -0.000000000000 Rises=F Damp=F
 DIIS: error= 3.37D-08 at cycle  15 NSaved=  15.
 NSaved=15 IEnMin=15 EnMin= -420.747195893300     IErMin=15 ErrMin= 3.37D-08
 ErrMax= 3.37D-08  0.00D+00 EMaxC= 1.00D-01 BMatC= 2.73D-14 BMatP= 1.02D-13
 IDIUse=1 WtCom= 1.00D+00 WtEn= 0.00D+00
 Coeff-Com:  0.140D-07 0.862D-06 0.141D-05 0.405D-05 0.115D-04 0.676D-05
 Coeff-Com: -0.267D-03-0.277D-03 0.130D-02 0.640D-02 0.533D-02-0.523D-01
 Coeff-Com: -0.124D+00 0.360D+00 0.804D+00
 Coeff:      0.140D-07 0.862D-06 0.141D-05 0.405D-05 0.115D-04 0.676D-05
 Coeff:     -0.267D-03-0.277D-03 0.130D-02 0.640D-02 0.533D-02-0.523D-01
 Coeff:     -0.124D+00 0.360D+00 0.804D+00
 Gap=     0.350 Goal=   None    Shift=    0.000
 RMSDP=8.11D-09 MaxDP=5.58D-07 DE=-4.55D-13 OVMax= 1.96D-07

 SCF Done:  E(RwB97XD) =  -420.747195893     A.U. after   15 cycles
            NFock= 15  Conv=0.81D-08     -V/T= 2.0015
 KE= 4.201208158357D+02 PE=-1.802597005264D+03 EE= 5.521867899532D+02
 Leave Link  502 at Sun Nov  6 23:01:21 2022, MaxMem= 16106127360 cpu:             406.3 elap:              12.7
 (Enter /opt/ap/G16/B01/g16/l601.exe)
 Copying SCF densities to generalized density rwf, IOpCl= 0 IROHF=0.

 **********************************************************************

            Population analysis using the SCF Density.

 **********************************************************************

 Orbital symmetries:
       Occupied  (A) (A) (A) (A) (A) (A) (A) (A) (A) (A) (A) (A)
                 (A) (A) (A) (A) (A) (A) (A) (A) (A) (A) (A) (A)
                 (A) (A) (A) (A) (A) (A) (A) (A)
       Virtual   (A) (A) (A) (A) (A) (A) (A) (A) (A) (A) (A) (A)
                 (A) (A) (A) (A) (A) (A) (A) (A) (A) (A) (A) (A)
                 (A) (A) (A) (A) (A) (A) (A) (A) (A) (A) (A) (A)
                 (A) (A) (A) (A) (A) (A) (A) (A) (A) (A) (A) (A)
                 (A) (A) (A) (A) (A) (A) (A) (A) (A) (A) (A) (A)
                 (A) (A) (A) (A) (A) (A) (A) (A) (A) (A) (A) (A)
                 (A) (A) (A) (A) (A) (A) (A) (A) (A) (A) (A) (A)
                 (A) (A) (A) (A) (A) (A) (A) (A) (A) (A) (A) (A)
                 (A) (A) (A) (A) (A) (A) (A) (A) (A) (A) (A) (A)
                 (A) (A) (A) (A) (A) (A) (A) (A) (A) (A) (A) (A)
                 (A) (A) (A) (A) (A) (A) (A) (A) (A) (A) (A) (A)
                 (A) (A) (A) (A) (A) (A) (A) (A) (A) (A) (A) (A)
                 (A) (A) (A) (A) (A) (A) (A) (A) (A) (A) (A) (A)
                 (A) (A) (A) (A) (A) (A) (A) (A) (A) (A) (A) (A)
                 (A) (A) (A) (A) (A) (A) (A) (A) (A) (A) (A) (A)
                 (A) (A) (A) (A) (A) (A) (A) (A) (A) (A) (A) (A)
                 (A) (A) (A) (A) (A) (A) (A) (A) (A) (A) (A) (A)
                 (A) (A) (A) (A)
 The electronic state is 1-A.
 Alpha  occ. eigenvalues --  -19.31653 -19.22769 -10.43161 -10.31043 -10.29309
 Alpha  occ. eigenvalues --  -10.29304 -10.29171 -10.28982 -10.28725  -1.25791
 Alpha  occ. eigenvalues --   -1.10605  -0.98068  -0.88919  -0.87005  -0.80558
 Alpha  occ. eigenvalues --   -0.73371  -0.71898  -0.65816  -0.60671  -0.58583
 Alpha  occ. eigenvalues --   -0.56775  -0.56119  -0.54541  -0.53460  -0.48896
 Alpha  occ. eigenvalues --   -0.47389  -0.45558  -0.44722  -0.41030  -0.36144
 Alpha  occ. eigenvalues --   -0.34644  -0.34288
 Alpha virt. eigenvalues --    0.00715   0.03747   0.04316   0.04533   0.05293
 Alpha virt. eigenvalues --    0.06464   0.07808   0.08688   0.10198   0.11446
 Alpha virt. eigenvalues --    0.11909   0.12928   0.13460   0.14396   0.14612
 Alpha virt. eigenvalues --    0.16002   0.16310   0.16938   0.17515   0.17976
 Alpha virt. eigenvalues --    0.18118   0.19567   0.20049   0.20268   0.20465
 Alpha virt. eigenvalues --    0.21166   0.21616   0.21697   0.23218   0.23658
 Alpha virt. eigenvalues --    0.25415   0.26337   0.26857   0.27956   0.28984
 Alpha virt. eigenvalues --    0.29494   0.30254   0.30588   0.30845   0.31771
 Alpha virt. eigenvalues --    0.32013   0.33867   0.34358   0.35270   0.36019
 Alpha virt. eigenvalues --    0.36726   0.37030   0.38174   0.39821   0.40892
 Alpha virt. eigenvalues --    0.41816   0.42289   0.44046   0.44701   0.46246
 Alpha virt. eigenvalues --    0.47971   0.49840   0.54452   0.55119   0.57633
 Alpha virt. eigenvalues --    0.60396   0.60978   0.62057   0.63975   0.64228
 Alpha virt. eigenvalues --    0.64508   0.65181   0.66573   0.67880   0.68870
 Alpha virt. eigenvalues --    0.69326   0.72305   0.73101   0.74109   0.75757
 Alpha virt. eigenvalues --    0.76683   0.81397   0.82799   0.84335   0.86381
 Alpha virt. eigenvalues --    0.88535   0.91635   0.93061   0.93781   0.94598
 Alpha virt. eigenvalues --    0.96638   0.97199   0.97884   1.00191   1.00610
 Alpha virt. eigenvalues --    1.03950   1.06533   1.08114   1.09470   1.11490
 Alpha virt. eigenvalues --    1.14183   1.15546   1.16240   1.17558   1.17809
 Alpha virt. eigenvalues --    1.21092   1.21662   1.24068   1.28997   1.31301
 Alpha virt. eigenvalues --    1.33691   1.37459   1.43871   1.45165   1.56495
 Alpha virt. eigenvalues --    1.57085   1.59338   1.60484   1.61005   1.61964
 Alpha virt. eigenvalues --    1.62549   1.66350   1.67046   1.67368   1.74612
 Alpha virt. eigenvalues --    1.75141   1.78561   1.80539   1.82455   1.87743
 Alpha virt. eigenvalues --    1.88452   1.91444   1.91743   1.96414   2.00324
 Alpha virt. eigenvalues --    2.00345   2.02064   2.03679   2.04971   2.05840
 Alpha virt. eigenvalues --    2.06787   2.12590   2.15197   2.17683   2.19880
 Alpha virt. eigenvalues --    2.23215   2.28966   2.31789   2.42692   2.45949
 Alpha virt. eigenvalues --    2.52095   2.54667   2.54795   2.58187   2.64320
 Alpha virt. eigenvalues --    2.72204   2.72813   2.74420   2.76441   2.81420
 Alpha virt. eigenvalues --    2.81793   2.83321   2.88361   2.89277   2.90526
 Alpha virt. eigenvalues --    2.90628   2.91839   2.95485   2.99659   3.00852
 Alpha virt. eigenvalues --    3.01909   3.06451   3.07033   3.15315   3.18475
 Alpha virt. eigenvalues --    3.18919   3.23534   3.27947   3.32014   3.33168
 Alpha virt. eigenvalues --    3.42825   3.43780   3.48379   3.49663   3.64079
 Alpha virt. eigenvalues --    3.66305   3.69785   3.74579   3.84303   3.87805
 Alpha virt. eigenvalues --    4.08357   4.17204   4.28493   4.30827   4.36833
 Alpha virt. eigenvalues --    4.40948   4.46296   4.95135   5.05281   5.15302
 Alpha virt. eigenvalues --    5.30644   5.49912   5.82743   6.09376  23.84274
 Alpha virt. eigenvalues --   23.94412  24.14188  24.21385  24.28365  24.30446
 Alpha virt. eigenvalues --   24.41849  50.04017  50.16533
          Condensed to atoms (all electrons):
               1          2          3          4          5          6
     1  C   11.147032  -3.447621  -1.523293   2.609780  -0.103147  -2.728608
     2  C   -3.447621  18.905404  -1.988013  -7.129884   0.844962  -0.809978
     3  C   -1.523293  -1.988013  11.988025   0.268768  -0.044826  -0.789200
     4  C    2.609780  -7.129884   0.268768  10.196406  -0.272332  -0.233049
     5  H   -0.103147   0.844962  -0.044826  -0.272332   0.474504  -0.085825
     6  C   -2.728608  -0.809978  -0.789200  -0.233049  -0.085825   9.187402
     7  C    0.748199  -1.086075  -2.525878   1.112916  -0.017486   0.556496
     8  H    0.003010   0.062870   0.510720  -0.029311   0.001122  -0.096505
     9  C   -1.250035   2.064195   0.864941  -1.180255   0.048516  -0.210312
    10  H    0.060371  -0.216669   0.027715   0.501393  -0.014732   0.015246
    11  O   -0.235232  -0.258279  -0.049908   0.106701  -0.040164   0.472017
    12  O   -0.155234  -0.126386  -0.034385   0.081270  -0.007423   0.546478
    13  H    0.019542  -0.016896  -0.099487   0.011249  -0.000185   0.027065
    14  H    0.006262   0.041882   0.008073  -0.073138   0.001396  -0.015913
    15  H   -0.086741   0.001219   0.006888  -0.030659   0.004331   0.091985
               7          8          9         10         11         12
     1  C    0.748199   0.003010  -1.250035   0.060371  -0.235232  -0.155234
     2  C   -1.086075   0.062870   2.064195  -0.216669  -0.258279  -0.126386
     3  C   -2.525878   0.510720   0.864941   0.027715  -0.049908  -0.034385
     4  C    1.112916  -0.029311  -1.180255   0.501393   0.106701   0.081270
     5  H   -0.017486   0.001122   0.048516  -0.014732  -0.040164  -0.007423
     6  C    0.556496  -0.096505  -0.210312   0.015246   0.472017   0.546478
     7  C    7.562554  -0.115614  -0.791202   0.004545   0.072525   0.108130
     8  H   -0.115614   0.435305   0.036068  -0.000111  -0.006405  -0.009801
     9  C   -0.791202   0.036068   6.593090  -0.055498  -0.039697  -0.028763
    10  H    0.004545  -0.000111  -0.055498   0.475838   0.003310   0.000959
    11  O    0.072525  -0.006405  -0.039697   0.003310   8.004713  -0.121865
    12  O    0.108130  -0.009801  -0.028763   0.000959  -0.121865   8.096186
    13  H    0.438030  -0.010342  -0.042040  -0.000666   0.001234   0.002063
    14  H   -0.055121   0.001239   0.443693  -0.008457  -0.000620  -0.000477
    15  H    0.013114  -0.000882  -0.003686  -0.000187   0.266407  -0.014579
              13         14         15
     1  C    0.019542   0.006262  -0.086741
     2  C   -0.016896   0.041882   0.001219
     3  C   -0.099487   0.008073   0.006888
     4  C    0.011249  -0.073138  -0.030659
     5  H   -0.000185   0.001396   0.004331
     6  C    0.027065  -0.015913   0.091985
     7  C    0.438030  -0.055121   0.013114
     8  H   -0.010342   0.001239  -0.000882
     9  C   -0.042040   0.443693  -0.003686
    10  H   -0.000666  -0.008457  -0.000187
    11  O    0.001234  -0.000620   0.266407
    12  O    0.002063  -0.000477  -0.014579
    13  H    0.465297  -0.007774   0.000217
    14  H   -0.007774   0.471412  -0.000154
    15  H    0.000217  -0.000154   0.412616
 Mulliken charges:
               1
     1  C    0.935715
     2  C   -0.840731
     3  C   -0.620140
     4  C    0.060146
     5  H    0.211288
     6  C    0.072700
     7  C   -0.025132
     8  H    0.218637
     9  C   -0.449015
    10  H    0.206942
    11  O   -0.174738
    12  O   -0.336172
    13  H    0.212693
    14  H    0.187696
    15  H    0.340110
 Sum of Mulliken charges =  -0.00000
 Mulliken charges with hydrogens summed into heavy atoms:
               1
     1  C    0.935715
     2  C   -0.629443
     3  C   -0.401503
     4  C    0.267088
     6  C    0.072700
     7  C    0.187561
     9  C   -0.261319
    11  O    0.165373
    12  O   -0.336172
 Electronic spatial extent (au):  <R**2>=           1158.2254
 Charge=             -0.0000 electrons
 Dipole moment (field-independent basis, Debye):
    X=              1.3428    Y=             -2.3023    Z=             -0.0936  Tot=              2.6670
 Quadrupole moment (field-independent basis, Debye-Ang):
   XX=            -43.3977   YY=            -49.9229   ZZ=            -54.1768
   XY=              8.0697   XZ=              0.2427   YZ=             -0.6306
 Traceless Quadrupole moment (field-independent basis, Debye-Ang):
   XX=              5.7681   YY=             -0.7571   ZZ=             -5.0110
   XY=              8.0697   XZ=              0.2427   YZ=             -0.6306
 Octapole moment (field-independent basis, Debye-Ang**2):
  XXX=            -21.3247  YYY=             -4.1583  ZZZ=             -0.0933  XYY=              7.3645
  XXY=            -26.5271  XXZ=             -0.9266  XZZ=            -11.1948  YZZ=             -0.3942
  YYZ=             -0.1622  XYZ=              0.6406
 Hexadecapole moment (field-independent basis, Debye-Ang**3):
 XXXX=           -873.0180 YYYY=           -358.3851 ZZZZ=            -59.1102 XXXY=             90.8604
 XXXZ=              2.2716 YYYX=             16.1865 YYYZ=             -1.5492 ZZZX=              0.2784
 ZZZY=              0.5340 XXYY=           -234.1705 XXZZ=           -195.0908 YYZZ=            -78.9838
 XXYZ=             -2.1670 YYXZ=              0.6389 ZZXY=              1.9273
 N-N= 4.095422035814D+02 E-N=-1.802597005609D+03  KE= 4.201208158357D+02
 No NMR shielding tensors so no spin-rotation constants.
 Leave Link  601 at Sun Nov  6 23:01:21 2022, MaxMem= 16106127360 cpu:               3.3 elap:               0.1
 (Enter /opt/ap/G16/B01/g16/l9999.exe)
 1\1\GINC-N04\SP\RwB97XD\6-311++G(d,p)\C7H6O2\ROOT\06-Nov-2022\0\\#P wB
 97XD/6-311++G(d,p) scf=maxcycle=512\\_conf017.gjf nmol_natom 1_15\\0,1
 \C\C,1,1.39016191\C,1,1.39194539,2,119.895942\C,2,1.38669027,1,119.880
 75721,3,0.70825972,0\H,2,0.98744251,1,119.71654057,3,-179.90726164,0\C
 ,1,1.48428757,2,119.93615286,4,-179.87772406,0\C,3,1.40101108,1,119.72
 36454,2,-0.26266839,0\H,3,0.9902154,1,119.1886159,2,178.85397616,0\C,4
 ,1.37899003,2,120.45785903,1,-0.48041454,0\H,4,0.9834739,2,120.3044270
 6,1,179.36166981,0\O,6,1.27459751,1,118.00615353,2,-5.,0\O,6,1.2636257
 2,1,118.77715367,2,175.,0\H,7,0.98977053,3,119.37861578,1,-178.9354574
 1,0\H,9,0.99498061,4,119.46722635,2,-178.58826714,0\H,11,0.89680392,6,
 118.15823763,1,176.92714093,0\\Version=ES64L-G16RevB.01\State=1-A\HF=-
 420.7471959\RMSD=8.108e-09\Dipole=0.032263,-0.0546796,1.0473475\Quadru
 pole=8.2149707,-3.7406457,-4.474325,0.1838314,-1.2333246,0.487815\PG=C
 01 [X(C7H6O2)]\\@


 BRING ME INTO THE COMPANY OF THOSE WHO SEEK TRUTH,
 AND DELIVER ME FROM THOSE WHO HAVE FOUND IT.
 Job cpu time:       0 days  0 hours  7 minutes 18.3 seconds.
 Elapsed time:       0 days  0 hours  0 minutes 13.8 seconds.
 File lengths (MBytes):  RWF=     35 Int=      0 D2E=      0 Chk=      4 Scr=      1
 Normal termination of Gaussian 16 at Sun Nov  6 23:01:21 2022.
