 Entering Gaussian System, Link 0=g16
 Input=_conf022.gjf
 Output=_conf022.log
 Initial command:
 /opt/ap/G16/B01/g16/l1.exe "/tmp2/scr/Gau-31895.inp" -scrdir="/tmp2/scr/"
 Entering Link 1 = /opt/ap/G16/B01/g16/l1.exe PID=     31896.
  
 Copyright (c) 1988-2017, Gaussian, Inc.  All Rights Reserved.
  
 This is part of the Gaussian(R) 16 program.  It is based on
 the Gaussian(R) 09 system (copyright 2009, Gaussian, Inc.),
 the Gaussian(R) 03 system (copyright 2003, Gaussian, Inc.),
 the Gaussian(R) 98 system (copyright 1998, Gaussian, Inc.),
 the Gaussian(R) 94 system (copyright 1995, Gaussian, Inc.),
 the Gaussian 92(TM) system (copyright 1992, Gaussian, Inc.),
 the Gaussian 90(TM) system (copyright 1990, Gaussian, Inc.),
 the Gaussian 88(TM) system (copyright 1988, Gaussian, Inc.),
 the Gaussian 86(TM) system (copyright 1986, Carnegie Mellon
 University), and the Gaussian 82(TM) system (copyright 1983,
 Carnegie Mellon University). Gaussian is a federally registered
 trademark of Gaussian, Inc.
  
 This software contains proprietary and confidential information,
 including trade secrets, belonging to Gaussian, Inc.
  
 This software is provided under written license and may be
 used, copied, transmitted, or stored only in accord with that
 written license.
  
 The following legend is applicable only to US Government
 contracts under FAR:
  
                    RESTRICTED RIGHTS LEGEND
  
 Use, reproduction and disclosure by the US Government is
 subject to restrictions as set forth in subparagraphs (a)
 and (c) of the Commercial Computer Software - Restricted
 Rights clause in FAR 52.227-19.
  
 Gaussian, Inc.
 340 Quinnipiac St., Bldg. 40, Wallingford CT 06492
  
  
 ---------------------------------------------------------------
 Warning -- This program may not be used in any manner that
 competes with the business of Gaussian, Inc. or will provide
 assistance to any competitor of Gaussian, Inc.  The licensee
 of this program is prohibited from giving any competitor of
 Gaussian, Inc. access to this program.  By using this program,
 the user acknowledges that Gaussian, Inc. is engaged in the
 business of creating and licensing software in the field of
 computational chemistry and represents and warrants to the
 licensee that it is not a competitor of Gaussian, Inc. and that
 it will not use this program in any manner prohibited above.
 ---------------------------------------------------------------
  

 Cite this work as:
 Gaussian 16, Revision B.01,
 M. J. Frisch, G. W. Trucks, H. B. Schlegel, G. E. Scuseria, 
 M. A. Robb, J. R. Cheeseman, G. Scalmani, V. Barone, 
 G. A. Petersson, H. Nakatsuji, X. Li, M. Caricato, A. V. Marenich, 
 J. Bloino, B. G. Janesko, R. Gomperts, B. Mennucci, H. P. Hratchian, 
 J. V. Ortiz, A. F. Izmaylov, J. L. Sonnenberg, D. Williams-Young, 
 F. Ding, F. Lipparini, F. Egidi, J. Goings, B. Peng, A. Petrone, 
 T. Henderson, D. Ranasinghe, V. G. Zakrzewski, J. Gao, N. Rega, 
 G. Zheng, W. Liang, M. Hada, M. Ehara, K. Toyota, R. Fukuda, 
 J. Hasegawa, M. Ishida, T. Nakajima, Y. Honda, O. Kitao, H. Nakai, 
 T. Vreven, K. Throssell, J. A. Montgomery, Jr., J. E. Peralta, 
 F. Ogliaro, M. J. Bearpark, J. J. Heyd, E. N. Brothers, K. N. Kudin, 
 V. N. Staroverov, T. A. Keith, R. Kobayashi, J. Normand, 
 K. Raghavachari, A. P. Rendell, J. C. Burant, S. S. Iyengar, 
 J. Tomasi, M. Cossi, J. M. Millam, M. Klene, C. Adamo, R. Cammi, 
 J. W. Ochterski, R. L. Martin, K. Morokuma, O. Farkas, 
 J. B. Foresman, and D. J. Fox, Gaussian, Inc., Wallingford CT, 2016.
 
 ******************************************
 Gaussian 16:  ES64L-G16RevB.01 20-Dec-2017
                 6-Nov-2022 
 ******************************************
 %nprocshared=32
 Will use up to   32 processors via shared memory.
 %mem=120GB
 %chk=_conf022.chk
 ----------------------------------------
 #P wB97XD/6-311++G(d,p) scf=maxcycle=512
 ----------------------------------------
 1/38=1,172=1/1;
 2/12=2,17=6,18=5,40=1/2;
 3/5=4,6=6,7=1111,11=2,25=1,30=1,74=-58/1,2,3;
 4//1;
 5/5=2,7=512,38=5/2;
 6/7=2,8=2,9=2,10=2,28=1/1;
 99/5=1,9=1/99;
 Leave Link    1 at Sun Nov  6 23:01:22 2022, MaxMem= 16106127360 cpu:               1.8 elap:               0.1
 (Enter /opt/ap/G16/B01/g16/l101.exe)
 ----------------------------
 _conf022.gjf nmol_natom 1_15
 ----------------------------
 Symbolic Z-matrix:
 Charge =  0 Multiplicity = 1
 C
 C                    1     1.39016 
 C                    1     1.39195  2     119.89594 
 C                    2     1.38669  1     119.88076  3     0.70826  0
 H                    2     0.98744  1     119.71654  3    -179.90726  0
 C                    1     1.48429  2     119.93615  4    -179.87772  0
 C                    3     1.40101  1     119.72365  2    -0.26267  0
 H                    3     0.99022  1     119.18862  2     178.85398  0
 C                    4     1.37899  2     120.45786  1    -0.48041  0
 H                    4     0.98347  2     120.30443  1     179.36167  0
 O                    6     1.2746   1     118.00615  2     20.      0
 O                    6     1.26363  1     118.77715  2    -160.     0
 H                    7     0.98977  3     119.37862  1    -178.93546  0
 H                    9     0.99498  4     119.46723  2    -178.58827  0
 H                    11    0.8968   6     118.15824  1     176.92714  0
 
 ITRead=  0  0  0  0  0  0  0  0  0  0  0  0  0  0  0
 MicOpt= -1 -1 -1 -1 -1 -1 -1 -1 -1 -1 -1 -1 -1 -1 -1
 NAtoms=     15 NQM=       15 NQMF=       0 NMMI=      0 NMMIF=      0
                NMic=       0 NMicF=      0.
                    Isotopes and Nuclear Properties:
 (Nuclear quadrupole moments (NQMom) in fm**2, nuclear magnetic moments (NMagM)
  in nuclear magnetons)

  Atom         1           2           3           4           5           6           7           8           9          10
 IAtWgt=          12          12          12          12           1          12          12           1          12           1
 AtmWgt=  12.0000000  12.0000000  12.0000000  12.0000000   1.0078250  12.0000000  12.0000000   1.0078250  12.0000000   1.0078250
 NucSpn=           0           0           0           0           1           0           0           1           0           1
 AtZEff=  -0.0000000  -0.0000000  -0.0000000  -0.0000000  -0.0000000  -0.0000000  -0.0000000  -0.0000000  -0.0000000  -0.0000000
 NQMom=    0.0000000   0.0000000   0.0000000   0.0000000   0.0000000   0.0000000   0.0000000   0.0000000   0.0000000   0.0000000
 NMagM=    0.0000000   0.0000000   0.0000000   0.0000000   2.7928460   0.0000000   0.0000000   2.7928460   0.0000000   2.7928460
 AtZNuc=   6.0000000   6.0000000   6.0000000   6.0000000   1.0000000   6.0000000   6.0000000   1.0000000   6.0000000   1.0000000

  Atom        11          12          13          14          15
 IAtWgt=          16          16           1           1           1
 AtmWgt=  15.9949146  15.9949146   1.0078250   1.0078250   1.0078250
 NucSpn=           0           0           1           1           1
 AtZEff=  -0.0000000  -0.0000000  -0.0000000  -0.0000000  -0.0000000
 NQMom=    0.0000000   0.0000000   0.0000000   0.0000000   0.0000000
 NMagM=    0.0000000   0.0000000   2.7928460   2.7928460   2.7928460
 AtZNuc=   8.0000000   8.0000000   1.0000000   1.0000000   1.0000000
 Leave Link  101 at Sun Nov  6 23:01:22 2022, MaxMem= 16106127360 cpu:               5.1 elap:               0.2
 (Enter /opt/ap/G16/B01/g16/l202.exe)
                          Input orientation:                          
 ---------------------------------------------------------------------
 Center     Atomic      Atomic             Coordinates (Angstroms)
 Number     Number       Type             X           Y           Z
 ---------------------------------------------------------------------
      1          6           0        0.000000    0.000000    0.000000
      2          6           0        0.000000    0.000000    1.390162
      3          6           0        1.206722    0.000000   -0.693782
      4          6           0        1.202258    0.014862    2.081006
      5          1           0       -0.857581   -0.001388    1.879646
      6          6           0       -1.286190   -0.013155   -0.740711
      7          6           0        2.415349    0.005578    0.014752
      8          1           0        1.194584   -0.017290   -1.683772
      9          6           0        2.400563    0.019708    1.398617
     10          1           0        1.209438    0.024411    3.064408
     11          8           0       -2.336443    0.361012   -0.123001
     12          8           0       -1.290089   -0.392024   -1.946195
     13          1           0        3.270315    0.021574   -0.483669
     14          1           0        3.254554    0.009066    1.909081
     15          1           0       -3.107234    0.393956   -0.580224
 ---------------------------------------------------------------------
                    Distance matrix (angstroms):
                    1          2          3          4          5
     1  C    0.000000
     2  C    1.390162   0.000000
     3  C    1.391945   2.408112   0.000000
     4  C    2.403379   1.386690   2.774832   0.000000
     5  H    2.066039   0.987443   3.299073   2.069721   0.000000
     6  C    1.484288   2.488991   2.493388   3.762345   2.655206
     7  C    2.415401   2.779513   1.401011   2.396056   3.766955
     8  H    2.064563   3.297939   0.990215   3.764924   4.112127
     9  C    2.778349   2.400659   2.409104   1.378990   3.293530
    10  H    3.294530   2.065535   3.758270   0.983474   2.382624
    11  O    2.367367   2.806948   3.606957   4.183284   2.515743
    12  O    2.367633   3.598512   2.820689   4.753493   3.869977
    13  H    3.305958   3.769173   2.074374   3.294611   4.756607
    14  H    3.773167   3.295676   3.311886   2.059493   4.112253
    15  H    3.185399   3.700341   4.333396   5.079131   3.356813
                    6          7          8          9         10
     6  C    0.000000
     7  C    3.777892   0.000000
     8  H    2.653982   2.091836   0.000000
     9  C    4.262622   1.384016   3.310118   0.000000
    10  H    4.550659   3.279477   4.748386   2.047842   0.000000
    11  O    1.274598   4.767058   3.879082   4.987087   4.779764
    12  O    1.263626   4.211137   2.526438   4.997820   5.614908
    13  H    4.563881   0.989771   2.398003   2.073517   4.103177
    14  H    5.257398   2.071897   4.141589   0.994981   2.348938
    15  H    1.872885   5.568102   4.460110   5.864444   5.661587
                   11         12         13         14         15
    11  O    0.000000
    12  O    2.232926   0.000000
    13  H    5.628591   4.807008   0.000000
    14  H    5.959234   5.973089   2.392834   0.000000
    15  H    0.896804   2.405340   6.389141   6.842304   0.000000
 Stoichiometry    C7H6O2
 Framework group  C1[X(C7H6O2)]
 Deg. of freedom    39
 Full point group                 C1      NOp   1
 Largest Abelian subgroup         C1      NOp   1
 Largest concise Abelian subgroup C1      NOp   1
                         Standard orientation:                         
 ---------------------------------------------------------------------
 Center     Atomic      Atomic             Coordinates (Angstroms)
 Number     Number       Type             X           Y           Z
 ---------------------------------------------------------------------
      1          6           0        0.220657    0.026808    0.002751
      2          6           0       -0.445702   -1.187188    0.124115
      3          6           0       -0.505841    1.208215   -0.115529
      4          6           0       -1.831986   -1.218552    0.112141
      5          1           0        0.072307   -2.023527    0.209242
      6          6           0        1.704505    0.061518    0.012686
      7          6           0       -1.906196    1.165365   -0.117024
      8          1           0       -0.020650    2.068682   -0.184172
      9          6           0       -2.556558   -0.051591   -0.009563
     10          1           0       -2.309670   -2.074859    0.188149
     11          8           0        2.330193   -1.016075   -0.255468
     12          8           0        2.285716    1.150094    0.284619
     13          1           0       -2.417624    2.006806   -0.217342
     14          1           0       -3.550732   -0.088999    0.004750
     15          1           0        3.225831   -0.987700   -0.291301
 ---------------------------------------------------------------------
 Rotational constants (GHZ):           3.9688866           1.2291525           0.9499085
 Leave Link  202 at Sun Nov  6 23:01:22 2022, MaxMem= 16106127360 cpu:               0.3 elap:               0.0
 (Enter /opt/ap/G16/B01/g16/l301.exe)
 Standard basis: 6-311++G(d,p) (5D, 7F)
 Ernie: Thresh=  0.10000D-02 Tol=  0.10000D-05 Strict=F.
 There are   249 symmetry adapted cartesian basis functions of A   symmetry.
 There are   240 symmetry adapted basis functions of A   symmetry.
   240 basis functions,   378 primitive gaussians,   249 cartesian basis functions
    32 alpha electrons       32 beta electrons
       nuclear repulsion energy       409.3852500576 Hartrees.
 IExCor= 4639 DFT=T Ex+Corr=wB97XD ExCW=0 ScaHFX=  1.000000
 ScaDFX=  1.000000  1.000000  1.000000  1.000000 ScalE2=  1.000000  1.000000
 IRadAn=      5 IRanWt=     -1 IRanGd=            0 ICorTp=0 IEmpDi=121
 HFx  wShort=  0.000000 wLong=  0.200000 cFull=  0.222036 cShort=  0.000000 cLong=  0.777964
 DFx  wShort=  0.000000 wLong=  0.200000 cFull=  0.000000 cShort=  0.000000 cLong=  1.000000
 NAtoms=   15 NActive=   15 NUniq=   15 SFac= 1.00D+00 NAtFMM=   60 NAOKFM=F Big=F
 Integral buffers will be    131072 words long.
 Raffenetti 2 integral format.
 Two-electron integral symmetry is turned on.
 R6Disp:  Grimme-D2 Dispersion energy=       -0.0063537967 Hartrees.
 Nuclear repulsion after empirical dispersion term =      409.3788962609 Hartrees.
 Leave Link  301 at Sun Nov  6 23:01:22 2022, MaxMem= 16106127360 cpu:               1.2 elap:               0.0
 (Enter /opt/ap/G16/B01/g16/l302.exe)
 NPDir=0 NMtPBC=     1 NCelOv=     1 NCel=       1 NClECP=     1 NCelD=      1
         NCelK=      1 NCelE2=     1 NClLst=     1 CellRange=     0.0.
 One-electron integrals computed using PRISM.
 One-electron integral symmetry used in STVInt
 NBasis=   240 RedAO= T EigKep=  1.23D-06  NBF=   240
 NBsUse=   240 1.00D-06 EigRej= -1.00D+00 NBFU=   240
 Precomputing XC quadrature grid using
 IXCGrd= 4 IRadAn=           5 IRanWt=          -1 IRanGd=           0 AccXCQ= 0.00D+00.
 Generated NRdTot=       0 NPtTot=           0 NUsed=           0 NTot=          32
 NSgBfM=   249   249   249   249   249 MxSgAt=    15 MxSgA2=    15.
 Leave Link  302 at Sun Nov  6 23:01:22 2022, MaxMem= 16106127360 cpu:               5.4 elap:               0.2
 (Enter /opt/ap/G16/B01/g16/l303.exe)
 DipDrv:  MaxL=1.
 Leave Link  303 at Sun Nov  6 23:01:22 2022, MaxMem= 16106127360 cpu:               1.2 elap:               0.0
 (Enter /opt/ap/G16/B01/g16/l401.exe)
 ExpMin= 3.60D-02 ExpMax= 8.59D+03 ExpMxC= 1.30D+03 IAcc=3 IRadAn=         5 AccDes= 0.00D+00
 Harris functional with IExCor= 4639 and IRadAn=       5 diagonalized for initial guess.
 HarFok:  IExCor= 4639 AccDes= 0.00D+00 IRadAn=         5 IDoV= 1 UseB2=F ITyADJ=14
 ICtDFT=  3500011 ScaDFX=  1.000000  1.000000  1.000000  1.000000
 FoFCou: FMM=F IPFlag=           0 FMFlag=      100000 FMFlg1=           0
         NFxFlg=           0 DoJE=T BraDBF=F KetDBF=T FulRan=T
         wScrn=  0.000000 ICntrl=       500 IOpCl=  0 I1Cent=   200000004 NGrid=           0
         NMat0=    1 NMatS0=      1 NMatT0=    0 NMatD0=    1 NMtDS0=    0 NMtDT0=    0
 Petite list used in FoFCou.
 Harris En= -403.254217139671    
 JPrj=0 DoOrth=F DoCkMO=F.
 Leave Link  401 at Sun Nov  6 23:01:23 2022, MaxMem= 16106127360 cpu:              11.6 elap:               0.4
 (Enter /opt/ap/G16/B01/g16/l502.exe)
 Integral symmetry usage will be decided dynamically.
 Closed shell SCF:
 Using DIIS extrapolation, IDIIS=  1040.
 NGot= 16106127360 LenX= 16105992971 LenY= 16105930529
 Requested convergence on RMS density matrix=1.00D-08 within 512 cycles.
 Requested convergence on MAX density matrix=1.00D-06.
 Requested convergence on             energy=1.00D-06.
 No special actions if energy rises.
 Fock matrices will be formed incrementally for  20 cycles.

 Cycle   1  Pass 1  IDiag  1:
 FoFJK:  IHMeth= 1 ICntrl=       0 DoSepK=T KAlg= 0 I1Cent=           0 FoldK=F
 IRaf=         1 NMat=       1 IRICut=       1 DoRegI=T DoRafI=F ISym2E= 0 IDoP0=0 IntGTp=1.
 FoFCou: FMM=F IPFlag=           0 FMFlag=      100000 FMFlg1=           0
         NFxFlg=           0 DoJE=T BraDBF=F KetDBF=F FulRan=T
         wScrn=  0.000000 ICntrl=       500 IOpCl=  0 I1Cent=           0 NGrid=           0
         NMat0=    1 NMatS0=      1 NMatT0=    0 NMatD0=    1 NMtDS0=    0 NMtDT0=    0
 Symmetry not used in FoFCou.
 E= -420.631628476552    
 DIIS: error= 7.33D-02 at cycle   1 NSaved=   1.
 NSaved= 1 IEnMin= 1 EnMin= -420.631628476552     IErMin= 1 ErrMin= 7.33D-02
 ErrMax= 7.33D-02  0.00D+00 EMaxC= 1.00D-01 BMatC= 8.61D-01 BMatP= 8.61D-01
 IDIUse=3 WtCom= 2.67D-01 WtEn= 7.33D-01
 Coeff-Com:  0.100D+01
 Coeff-En:   0.100D+01
 Coeff:      0.100D+01
 Gap=     0.426 Goal=   None    Shift=    0.000
 GapD=    0.426 DampG=2.000 DampE=0.500 DampFc=1.0000 IDamp=-1.
 RMSDP=2.71D-02 MaxDP=1.48D+00              OVMax= 1.05D-01

 Cycle   2  Pass 1  IDiag  1:
 RMSU=  1.48D-02    CP:  6.86D-01
 E= -420.702470667026     Delta-E=       -0.070842190474 Rises=F Damp=F
 DIIS: error= 1.33D-02 at cycle   2 NSaved=   2.
 NSaved= 2 IEnMin= 2 EnMin= -420.702470667026     IErMin= 2 ErrMin= 1.33D-02
 ErrMax= 1.33D-02  0.00D+00 EMaxC= 1.00D-01 BMatC= 5.73D-02 BMatP= 8.61D-01
 IDIUse=3 WtCom= 8.67D-01 WtEn= 1.33D-01
 Coeff-Com:  0.135D+00 0.865D+00
 Coeff-En:   0.987D-01 0.901D+00
 Coeff:      0.131D+00 0.869D+00
 Gap=     0.428 Goal=   None    Shift=    0.000
 RMSDP=8.70D-03 MaxDP=4.89D-01 DE=-7.08D-02 OVMax= 8.14D-02

 Cycle   3  Pass 1  IDiag  1:
 RMSU=  6.53D-03    CP:  6.31D-01  7.21D-01
 E= -420.718622817987     Delta-E=       -0.016152150961 Rises=F Damp=F
 DIIS: error= 1.42D-02 at cycle   3 NSaved=   3.
 NSaved= 3 IEnMin= 3 EnMin= -420.718622817987     IErMin= 2 ErrMin= 1.33D-02
 ErrMax= 1.42D-02  0.00D+00 EMaxC= 1.00D-01 BMatC= 3.60D-02 BMatP= 5.73D-02
 IDIUse=3 WtCom= 8.58D-01 WtEn= 1.42D-01
 Coeff-Com:  0.278D-01 0.448D+00 0.525D+00
 Coeff-En:   0.000D+00 0.384D+00 0.616D+00
 Coeff:      0.238D-01 0.439D+00 0.538D+00
 Gap=     0.357 Goal=   None    Shift=    0.000
 RMSDP=3.68D-03 MaxDP=1.80D-01 DE=-1.62D-02 OVMax= 5.40D-02

 Cycle   4  Pass 1  IDiag  1:
 RMSU=  2.53D-03    CP:  6.20D-01  8.48D-01  7.36D-01
 E= -420.744807812436     Delta-E=       -0.026184994449 Rises=F Damp=F
 DIIS: error= 2.66D-03 at cycle   4 NSaved=   4.
 NSaved= 4 IEnMin= 4 EnMin= -420.744807812436     IErMin= 4 ErrMin= 2.66D-03
 ErrMax= 2.66D-03  0.00D+00 EMaxC= 1.00D-01 BMatC= 1.97D-03 BMatP= 3.60D-02
 IDIUse=3 WtCom= 9.73D-01 WtEn= 2.66D-02
 Coeff-Com:  0.105D-01 0.221D+00 0.304D+00 0.464D+00
 Coeff-En:   0.000D+00 0.000D+00 0.000D+00 0.100D+01
 Coeff:      0.102D-01 0.216D+00 0.296D+00 0.479D+00
 Gap=     0.355 Goal=   None    Shift=    0.000
 RMSDP=8.30D-04 MaxDP=5.46D-02 DE=-2.62D-02 OVMax= 1.25D-02

 Cycle   5  Pass 1  IDiag  1:
 RMSU=  7.21D-04    CP:  6.17D-01  8.40D-01  7.46D-01  8.70D-01
 E= -420.746143595568     Delta-E=       -0.001335783132 Rises=F Damp=F
 DIIS: error= 4.81D-04 at cycle   5 NSaved=   5.
 NSaved= 5 IEnMin= 5 EnMin= -420.746143595568     IErMin= 5 ErrMin= 4.81D-04
 ErrMax= 4.81D-04  0.00D+00 EMaxC= 1.00D-01 BMatC= 5.04D-05 BMatP= 1.97D-03
 IDIUse=3 WtCom= 9.95D-01 WtEn= 4.81D-03
 Coeff-Com:  0.335D-03 0.157D-01 0.307D-01 0.150D+00 0.803D+00
 Coeff-En:   0.000D+00 0.000D+00 0.000D+00 0.000D+00 0.100D+01
 Coeff:      0.333D-03 0.156D-01 0.305D-01 0.149D+00 0.804D+00
 Gap=     0.351 Goal=   None    Shift=    0.000
 RMSDP=2.92D-04 MaxDP=1.60D-02 DE=-1.34D-03 OVMax= 2.53D-03

 Cycle   6  Pass 1  IDiag  1:
 RMSU=  1.64D-04    CP:  6.16D-01  8.43D-01  7.68D-01  9.20D-01  1.07D+00
 E= -420.746182957487     Delta-E=       -0.000039361919 Rises=F Damp=F
 DIIS: error= 2.11D-04 at cycle   6 NSaved=   6.
 NSaved= 6 IEnMin= 6 EnMin= -420.746182957487     IErMin= 6 ErrMin= 2.11D-04
 ErrMax= 2.11D-04  0.00D+00 EMaxC= 1.00D-01 BMatC= 7.32D-06 BMatP= 5.04D-05
 IDIUse=3 WtCom= 9.98D-01 WtEn= 2.11D-03
 Coeff-Com: -0.960D-03-0.165D-01-0.178D-01 0.130D-01 0.347D+00 0.675D+00
 Coeff-En:   0.000D+00 0.000D+00 0.000D+00 0.000D+00 0.000D+00 0.100D+01
 Coeff:     -0.958D-03-0.164D-01-0.178D-01 0.129D-01 0.346D+00 0.676D+00
 Gap=     0.351 Goal=   None    Shift=    0.000
 RMSDP=1.52D-04 MaxDP=1.53D-02 DE=-3.94D-05 OVMax= 7.73D-04

 Cycle   7  Pass 1  IDiag  1:
 RMSU=  4.49D-05    CP:  6.14D-01  8.42D-01  7.76D-01  9.42D-01  1.14D+00
                    CP:  1.10D+00
 E= -420.746190146711     Delta-E=       -0.000007189224 Rises=F Damp=F
 DIIS: error= 6.64D-05 at cycle   7 NSaved=   7.
 NSaved= 7 IEnMin= 7 EnMin= -420.746190146711     IErMin= 7 ErrMin= 6.64D-05
 ErrMax= 6.64D-05  0.00D+00 EMaxC= 1.00D-01 BMatC= 3.15D-07 BMatP= 7.32D-06
 IDIUse=1 WtCom= 1.00D+00 WtEn= 0.00D+00
 Coeff-Com: -0.233D-03-0.542D-02-0.675D-02-0.136D-01-0.169D-02 0.133D+00
 Coeff-Com:  0.894D+00
 Coeff:     -0.233D-03-0.542D-02-0.675D-02-0.136D-01-0.169D-02 0.133D+00
 Coeff:      0.894D+00
 Gap=     0.351 Goal=   None    Shift=    0.000
 RMSDP=4.95D-05 MaxDP=3.69D-03 DE=-7.19D-06 OVMax= 3.34D-04

 Cycle   8  Pass 1  IDiag  1:
 RMSU=  1.22D-05    CP:  6.14D-01  8.42D-01  7.78D-01  9.50D-01  1.19D+00
                    CP:  1.15D+00  1.11D+00
 E= -420.746190743600     Delta-E=       -0.000000596888 Rises=F Damp=F
 DIIS: error= 1.38D-05 at cycle   8 NSaved=   8.
 NSaved= 8 IEnMin= 8 EnMin= -420.746190743600     IErMin= 8 ErrMin= 1.38D-05
 ErrMax= 1.38D-05  0.00D+00 EMaxC= 1.00D-01 BMatC= 4.25D-08 BMatP= 3.15D-07
 IDIUse=1 WtCom= 1.00D+00 WtEn= 0.00D+00
 Coeff-Com:  0.332D-04 0.309D-03 0.220D-03-0.566D-02-0.387D-01-0.394D-01
 Coeff-Com:  0.240D+00 0.843D+00
 Coeff:      0.332D-04 0.309D-03 0.220D-03-0.566D-02-0.387D-01-0.394D-01
 Coeff:      0.240D+00 0.843D+00
 Gap=     0.351 Goal=   None    Shift=    0.000
 RMSDP=1.31D-05 MaxDP=1.03D-03 DE=-5.97D-07 OVMax= 1.35D-04

 Cycle   9  Pass 1  IDiag  1:
 RMSU=  4.39D-06    CP:  6.14D-01  8.42D-01  7.79D-01  9.50D-01  1.20D+00
                    CP:  1.17D+00  1.22D+00  1.07D+00
 E= -420.746190821367     Delta-E=       -0.000000077767 Rises=F Damp=F
 DIIS: error= 1.07D-05 at cycle   9 NSaved=   9.
 NSaved= 9 IEnMin= 9 EnMin= -420.746190821367     IErMin= 9 ErrMin= 1.07D-05
 ErrMax= 1.07D-05  0.00D+00 EMaxC= 1.00D-01 BMatC= 5.03D-09 BMatP= 4.25D-08
 IDIUse=1 WtCom= 1.00D+00 WtEn= 0.00D+00
 Coeff-Com:  0.382D-04 0.734D-03 0.900D-03-0.210D-03-0.104D-01-0.276D-01
 Coeff-Com: -0.303D-01 0.251D+00 0.816D+00
 Coeff:      0.382D-04 0.734D-03 0.900D-03-0.210D-03-0.104D-01-0.276D-01
 Coeff:     -0.303D-01 0.251D+00 0.816D+00
 Gap=     0.351 Goal=   None    Shift=    0.000
 RMSDP=4.47D-06 MaxDP=3.37D-04 DE=-7.78D-08 OVMax= 4.63D-05

 Cycle  10  Pass 1  IDiag  1:
 RMSU=  1.88D-06    CP:  6.14D-01  8.41D-01  7.78D-01  9.49D-01  1.20D+00
                    CP:  1.18D+00  1.26D+00  1.13D+00  1.43D+00
 E= -420.746190830739     Delta-E=       -0.000000009372 Rises=F Damp=F
 DIIS: error= 1.31D-06 at cycle  10 NSaved=  10.
 NSaved=10 IEnMin=10 EnMin= -420.746190830739     IErMin=10 ErrMin= 1.31D-06
 ErrMax= 1.31D-06  0.00D+00 EMaxC= 1.00D-01 BMatC= 6.39D-10 BMatP= 5.03D-09
 IDIUse=1 WtCom= 1.00D+00 WtEn= 0.00D+00
 Coeff-Com:  0.662D-05 0.148D-03 0.207D-03 0.453D-03 0.143D-02-0.384D-02
 Coeff-Com: -0.318D-01-0.276D-01 0.229D+00 0.832D+00
 Coeff:      0.662D-05 0.148D-03 0.207D-03 0.453D-03 0.143D-02-0.384D-02
 Coeff:     -0.318D-01-0.276D-01 0.229D+00 0.832D+00
 Gap=     0.351 Goal=   None    Shift=    0.000
 RMSDP=1.54D-06 MaxDP=8.98D-05 DE=-9.37D-09 OVMax= 1.62D-05

 Cycle  11  Pass 1  IDiag  1:
 RMSU=  5.06D-07    CP:  6.14D-01  8.41D-01  7.78D-01  9.49D-01  1.20D+00
                    CP:  1.18D+00  1.27D+00  1.17D+00  1.56D+00  1.06D+00
 E= -420.746190831869     Delta-E=       -0.000000001130 Rises=F Damp=F
 DIIS: error= 1.06D-06 at cycle  11 NSaved=  11.
 NSaved=11 IEnMin=11 EnMin= -420.746190831869     IErMin=11 ErrMin= 1.06D-06
 ErrMax= 1.06D-06  0.00D+00 EMaxC= 1.00D-01 BMatC= 1.21D-10 BMatP= 6.39D-10
 IDIUse=1 WtCom= 1.00D+00 WtEn= 0.00D+00
 Coeff-Com: -0.182D-05-0.171D-04-0.551D-05 0.248D-03 0.204D-02 0.166D-02
 Coeff-Com: -0.844D-02-0.489D-01-0.192D-01 0.334D+00 0.738D+00
 Coeff:     -0.182D-05-0.171D-04-0.551D-05 0.248D-03 0.204D-02 0.166D-02
 Coeff:     -0.844D-02-0.489D-01-0.192D-01 0.334D+00 0.738D+00
 Gap=     0.351 Goal=   None    Shift=    0.000
 RMSDP=6.51D-07 MaxDP=3.63D-05 DE=-1.13D-09 OVMax= 7.31D-06

 Cycle  12  Pass 1  IDiag  1:
 RMSU=  2.04D-07    CP:  6.14D-01  8.41D-01  7.78D-01  9.49D-01  1.20D+00
                    CP:  1.17D+00  1.27D+00  1.17D+00  1.62D+00  1.14D+00
                    CP:  1.13D+00
 E= -420.746190832060     Delta-E=       -0.000000000191 Rises=F Damp=F
 DIIS: error= 1.71D-07 at cycle  12 NSaved=  12.
 NSaved=12 IEnMin=12 EnMin= -420.746190832060     IErMin=12 ErrMin= 1.71D-07
 ErrMax= 1.71D-07  0.00D+00 EMaxC= 1.00D-01 BMatC= 9.83D-12 BMatP= 1.21D-10
 IDIUse=1 WtCom= 1.00D+00 WtEn= 0.00D+00
 Coeff-Com: -0.110D-05-0.185D-04-0.204D-04 0.259D-04 0.400D-03 0.675D-03
 Coeff-Com:  0.143D-02-0.104D-01-0.261D-01 0.651D-02 0.180D+00 0.847D+00
 Coeff:     -0.110D-05-0.185D-04-0.204D-04 0.259D-04 0.400D-03 0.675D-03
 Coeff:      0.143D-02-0.104D-01-0.261D-01 0.651D-02 0.180D+00 0.847D+00
 Gap=     0.351 Goal=   None    Shift=    0.000
 RMSDP=1.91D-07 MaxDP=1.19D-05 DE=-1.91D-10 OVMax= 2.91D-06

 Cycle  13  Pass 1  IDiag  1:
 RMSU=  8.20D-08    CP:  6.14D-01  8.41D-01  7.78D-01  9.49D-01  1.20D+00
                    CP:  1.17D+00  1.27D+00  1.17D+00  1.64D+00  1.13D+00
                    CP:  1.27D+00  1.15D+00
 E= -420.746190832088     Delta-E=       -0.000000000028 Rises=F Damp=F
 DIIS: error= 1.00D-07 at cycle  13 NSaved=  13.
 NSaved=13 IEnMin=13 EnMin= -420.746190832088     IErMin=13 ErrMin= 1.00D-07
 ErrMax= 1.00D-07  0.00D+00 EMaxC= 1.00D-01 BMatC= 2.10D-12 BMatP= 9.83D-12
 IDIUse=1 WtCom= 1.00D+00 WtEn= 0.00D+00
 Coeff-Com:  0.541D-07-0.394D-05-0.766D-05-0.446D-04-0.305D-03-0.149D-03
 Coeff-Com:  0.230D-02 0.651D-02-0.330D-02-0.669D-01-0.113D+00 0.252D+00
 Coeff-Com:  0.923D+00
 Coeff:      0.541D-07-0.394D-05-0.766D-05-0.446D-04-0.305D-03-0.149D-03
 Coeff:      0.230D-02 0.651D-02-0.330D-02-0.669D-01-0.113D+00 0.252D+00
 Coeff:      0.923D+00
 Gap=     0.351 Goal=   None    Shift=    0.000
 RMSDP=7.68D-08 MaxDP=5.40D-06 DE=-2.80D-11 OVMax= 2.00D-06

 Cycle  14  Pass 1  IDiag  1:
 RMSU=  3.04D-08    CP:  6.14D-01  8.41D-01  7.78D-01  9.49D-01  1.20D+00
                    CP:  1.17D+00  1.27D+00  1.17D+00  1.64D+00  1.12D+00
                    CP:  1.34D+00  1.31D+00  1.26D+00
 E= -420.746190832095     Delta-E=       -0.000000000007 Rises=F Damp=F
 DIIS: error= 3.94D-08 at cycle  14 NSaved=  14.
 NSaved=14 IEnMin=14 EnMin= -420.746190832095     IErMin=14 ErrMin= 3.94D-08
 ErrMax= 3.94D-08  0.00D+00 EMaxC= 1.00D-01 BMatC= 1.75D-13 BMatP= 2.10D-12
 IDIUse=1 WtCom= 1.00D+00 WtEn= 0.00D+00
 Coeff-Com:  0.776D-07 0.163D-05 0.193D-05-0.253D-05-0.614D-04-0.453D-04
 Coeff-Com: -0.114D-03 0.127D-02 0.267D-02-0.343D-02-0.222D-01-0.832D-01
 Coeff-Com:  0.919D-02 0.110D+01
 Coeff:      0.776D-07 0.163D-05 0.193D-05-0.253D-05-0.614D-04-0.453D-04
 Coeff:     -0.114D-03 0.127D-02 0.267D-02-0.343D-02-0.222D-01-0.832D-01
 Coeff:      0.919D-02 0.110D+01
 Gap=     0.351 Goal=   None    Shift=    0.000
 RMSDP=3.81D-08 MaxDP=2.04D-06 DE=-7.05D-12 OVMax= 8.22D-07

 Cycle  15  Pass 1  IDiag  1:
 RMSU=  8.86D-09    CP:  6.14D-01  8.41D-01  7.78D-01  9.49D-01  1.20D+00
                    CP:  1.17D+00  1.27D+00  1.17D+00  1.63D+00  1.11D+00
                    CP:  1.35D+00  1.35D+00  1.44D+00  1.39D+00
 E= -420.746190832093     Delta-E=        0.000000000002 Rises=F Damp=F
 DIIS: error= 2.02D-08 at cycle  15 NSaved=  15.
 NSaved=15 IEnMin=14 EnMin= -420.746190832095     IErMin=15 ErrMin= 2.02D-08
 ErrMax= 2.02D-08  0.00D+00 EMaxC= 1.00D-01 BMatC= 4.08D-14 BMatP= 1.75D-13
 IDIUse=1 WtCom= 1.00D+00 WtEn= 0.00D+00
 Coeff-Com:  0.189D-07 0.113D-05 0.180D-05 0.538D-05 0.181D-04 0.105D-04
 Coeff-Com: -0.353D-03-0.380D-03 0.148D-02 0.798D-02 0.775D-02-0.582D-01
 Coeff-Com: -0.123D+00 0.391D+00 0.774D+00
 Coeff:      0.189D-07 0.113D-05 0.180D-05 0.538D-05 0.181D-04 0.105D-04
 Coeff:     -0.353D-03-0.380D-03 0.148D-02 0.798D-02 0.775D-02-0.582D-01
 Coeff:     -0.123D+00 0.391D+00 0.774D+00
 Gap=     0.351 Goal=   None    Shift=    0.000
 RMSDP=1.00D-08 MaxDP=5.32D-07 DE= 1.82D-12 OVMax= 2.10D-07

 Cycle  16  Pass 1  IDiag  1:
 RMSU=  3.06D-09    CP:  6.14D-01  8.41D-01  7.78D-01  9.49D-01  1.20D+00
                    CP:  1.17D+00  1.27D+00  1.17D+00  1.63D+00  1.11D+00
                    CP:  1.35D+00  1.35D+00  1.47D+00  1.52D+00  1.29D+00
 E= -420.746190832098     Delta-E=       -0.000000000005 Rises=F Damp=F
 DIIS: error= 6.62D-09 at cycle  16 NSaved=  16.
 NSaved=16 IEnMin=16 EnMin= -420.746190832098     IErMin=16 ErrMin= 6.62D-09
 ErrMax= 6.62D-09  0.00D+00 EMaxC= 1.00D-01 BMatC= 4.86D-15 BMatP= 4.08D-14
 IDIUse=1 WtCom= 1.00D+00 WtEn= 0.00D+00
 Coeff-Com: -0.468D-08 0.419D-07 0.159D-06 0.179D-05 0.143D-04 0.123D-04
 Coeff-Com: -0.861D-04-0.311D-03-0.675D-04 0.279D-02 0.543D-02-0.283D-02
 Coeff-Com: -0.418D-01-0.629D-01 0.231D+00 0.869D+00
 Coeff:     -0.468D-08 0.419D-07 0.159D-06 0.179D-05 0.143D-04 0.123D-04
 Coeff:     -0.861D-04-0.311D-03-0.675D-04 0.279D-02 0.543D-02-0.283D-02
 Coeff:     -0.418D-01-0.629D-01 0.231D+00 0.869D+00
 Gap=     0.351 Goal=   None    Shift=    0.000
 RMSDP=4.68D-09 MaxDP=3.48D-07 DE=-4.66D-12 OVMax= 9.74D-08

 SCF Done:  E(RwB97XD) =  -420.746190832     A.U. after   16 cycles
            NFock= 16  Conv=0.47D-08     -V/T= 2.0015
 KE= 4.201198388906D+02 PE=-1.802256884184D+03 EE= 5.520119582003D+02
 Leave Link  502 at Sun Nov  6 23:01:37 2022, MaxMem= 16106127360 cpu:             453.6 elap:              14.3
 (Enter /opt/ap/G16/B01/g16/l601.exe)
 Copying SCF densities to generalized density rwf, IOpCl= 0 IROHF=0.

 **********************************************************************

            Population analysis using the SCF Density.

 **********************************************************************

 Orbital symmetries:
       Occupied  (A) (A) (A) (A) (A) (A) (A) (A) (A) (A) (A) (A)
                 (A) (A) (A) (A) (A) (A) (A) (A) (A) (A) (A) (A)
                 (A) (A) (A) (A) (A) (A) (A) (A)
       Virtual   (A) (A) (A) (A) (A) (A) (A) (A) (A) (A) (A) (A)
                 (A) (A) (A) (A) (A) (A) (A) (A) (A) (A) (A) (A)
                 (A) (A) (A) (A) (A) (A) (A) (A) (A) (A) (A) (A)
                 (A) (A) (A) (A) (A) (A) (A) (A) (A) (A) (A) (A)
                 (A) (A) (A) (A) (A) (A) (A) (A) (A) (A) (A) (A)
                 (A) (A) (A) (A) (A) (A) (A) (A) (A) (A) (A) (A)
                 (A) (A) (A) (A) (A) (A) (A) (A) (A) (A) (A) (A)
                 (A) (A) (A) (A) (A) (A) (A) (A) (A) (A) (A) (A)
                 (A) (A) (A) (A) (A) (A) (A) (A) (A) (A) (A) (A)
                 (A) (A) (A) (A) (A) (A) (A) (A) (A) (A) (A) (A)
                 (A) (A) (A) (A) (A) (A) (A) (A) (A) (A) (A) (A)
                 (A) (A) (A) (A) (A) (A) (A) (A) (A) (A) (A) (A)
                 (A) (A) (A) (A) (A) (A) (A) (A) (A) (A) (A) (A)
                 (A) (A) (A) (A) (A) (A) (A) (A) (A) (A) (A) (A)
                 (A) (A) (A) (A) (A) (A) (A) (A) (A) (A) (A) (A)
                 (A) (A) (A) (A) (A) (A) (A) (A) (A) (A) (A) (A)
                 (A) (A) (A) (A) (A) (A) (A) (A) (A) (A) (A) (A)
                 (A) (A) (A) (A)
 The electronic state is 1-A.
 Alpha  occ. eigenvalues --  -19.31676 -19.22832 -10.43196 -10.31095 -10.29338
 Alpha  occ. eigenvalues --  -10.29323 -10.29133 -10.28992 -10.28733  -1.25813
 Alpha  occ. eigenvalues --   -1.10635  -0.98076  -0.88926  -0.87024  -0.80572
 Alpha  occ. eigenvalues --   -0.73395  -0.71953  -0.65819  -0.60666  -0.58626
 Alpha  occ. eigenvalues --   -0.56942  -0.56028  -0.54485  -0.53451  -0.48932
 Alpha  occ. eigenvalues --   -0.47423  -0.45542  -0.44799  -0.40964  -0.36428
 Alpha  occ. eigenvalues --   -0.34548  -0.34158
 Alpha virt. eigenvalues --    0.00959   0.03756   0.04285   0.04550   0.05271
 Alpha virt. eigenvalues --    0.06469   0.07722   0.08700   0.10173   0.10991
 Alpha virt. eigenvalues --    0.12018   0.12876   0.13121   0.14341   0.14897
 Alpha virt. eigenvalues --    0.16013   0.16317   0.16967   0.17375   0.18017
 Alpha virt. eigenvalues --    0.18267   0.19441   0.19871   0.20226   0.20433
 Alpha virt. eigenvalues --    0.21134   0.21410   0.21533   0.23201   0.23759
 Alpha virt. eigenvalues --    0.25644   0.26129   0.27130   0.27991   0.28063
 Alpha virt. eigenvalues --    0.29325   0.29629   0.30661   0.30913   0.31828
 Alpha virt. eigenvalues --    0.32331   0.33738   0.34822   0.35366   0.35582
 Alpha virt. eigenvalues --    0.36638   0.36873   0.38202   0.39888   0.40291
 Alpha virt. eigenvalues --    0.41211   0.41781   0.42793   0.44200   0.44811
 Alpha virt. eigenvalues --    0.45500   0.47691   0.52680   0.54429   0.57363
 Alpha virt. eigenvalues --    0.60012   0.60899   0.61860   0.63882   0.64134
 Alpha virt. eigenvalues --    0.64476   0.65036   0.66840   0.67398   0.69209
 Alpha virt. eigenvalues --    0.71385   0.72518   0.73567   0.74955   0.75489
 Alpha virt. eigenvalues --    0.76684   0.81242   0.82497   0.83218   0.85373
 Alpha virt. eigenvalues --    0.88128   0.90398   0.91598   0.92723   0.93937
 Alpha virt. eigenvalues --    0.94643   0.96730   0.96917   0.98879   1.00364
 Alpha virt. eigenvalues --    1.01776   1.03152   1.08213   1.09116   1.12940
 Alpha virt. eigenvalues --    1.13780   1.15596   1.16338   1.17375   1.19147
 Alpha virt. eigenvalues --    1.21944   1.23723   1.24836   1.28275   1.30836
 Alpha virt. eigenvalues --    1.35189   1.37335   1.44145   1.44960   1.55987
 Alpha virt. eigenvalues --    1.56654   1.59589   1.60197   1.60794   1.62017
 Alpha virt. eigenvalues --    1.62712   1.64978   1.67011   1.67512   1.74607
 Alpha virt. eigenvalues --    1.75055   1.78297   1.79798   1.82730   1.87421
 Alpha virt. eigenvalues --    1.88327   1.91223   1.91547   1.95663   1.98035
 Alpha virt. eigenvalues --    2.00076   2.02468   2.03981   2.05024   2.05668
 Alpha virt. eigenvalues --    2.06036   2.09435   2.14636   2.17684   2.18947
 Alpha virt. eigenvalues --    2.23304   2.27277   2.31393   2.43292   2.46242
 Alpha virt. eigenvalues --    2.52059   2.54058   2.54470   2.57858   2.63789
 Alpha virt. eigenvalues --    2.71197   2.71882   2.76541   2.77997   2.81222
 Alpha virt. eigenvalues --    2.81685   2.83110   2.88259   2.90160   2.90359
 Alpha virt. eigenvalues --    2.90867   2.91719   2.96021   2.99959   3.00543
 Alpha virt. eigenvalues --    3.02227   3.06483   3.06912   3.15725   3.18421
 Alpha virt. eigenvalues --    3.19220   3.23103   3.27333   3.29806   3.34224
 Alpha virt. eigenvalues --    3.42074   3.43681   3.48326   3.49388   3.63813
 Alpha virt. eigenvalues --    3.66187   3.69545   3.74001   3.84026   3.87728
 Alpha virt. eigenvalues --    4.06886   4.15571   4.28210   4.30683   4.36374
 Alpha virt. eigenvalues --    4.40778   4.44785   4.95040   5.06604   5.16396
 Alpha virt. eigenvalues --    5.29290   5.48453   5.80954   6.08728  23.84219
 Alpha virt. eigenvalues --   23.94217  24.14220  24.21364  24.28335  24.30374
 Alpha virt. eigenvalues --   24.41784  50.03385  50.15076
          Condensed to atoms (all electrons):
               1          2          3          4          5          6
     1  C   12.186532  -2.483030  -2.615089   1.979175  -0.022125  -3.027372
     2  C   -2.483030  14.538982  -0.649761  -4.131639   0.590766  -1.049222
     3  C   -2.615089  -0.649761  11.256842  -0.929317   0.032797  -0.164200
     4  C    1.979175  -4.131639  -0.929317   8.498420  -0.147102  -0.093855
     5  H   -0.022125   0.590766   0.032797  -0.147102   0.464165  -0.083314
     6  C   -3.027372  -1.049222  -0.164200  -0.093855  -0.083314   9.224871
     7  C    0.816516  -1.603373  -1.486599   1.364816  -0.029453   0.274644
     8  H    0.033608   0.105309   0.411664  -0.040161   0.001209  -0.088635
     9  C   -1.464449   1.849525   1.002115  -1.071192   0.033439  -0.055494
    10  H    0.039387  -0.137012  -0.004421   0.459922  -0.010688   0.012696
    11  O   -0.283612  -0.181639  -0.063212   0.091828  -0.031466   0.449057
    12  O   -0.134908  -0.057403  -0.040626   0.043365  -0.003430   0.511784
    13  H    0.025006  -0.046806  -0.048536   0.020957  -0.000425   0.019287
    14  H    0.004357   0.054161  -0.002498  -0.071401   0.001181  -0.012984
    15  H   -0.076379  -0.010871   0.021577  -0.019901   0.001744   0.068992
               7          8          9         10         11         12
     1  C    0.816516   0.033608  -1.464449   0.039387  -0.283612  -0.134908
     2  C   -1.603373   0.105309   1.849525  -0.137012  -0.181639  -0.057403
     3  C   -1.486599   0.411664   1.002115  -0.004421  -0.063212  -0.040626
     4  C    1.364816  -0.040161  -1.071192   0.459922   0.091828   0.043365
     5  H   -0.029453   0.001209   0.033439  -0.010688  -0.031466  -0.003430
     6  C    0.274644  -0.088635  -0.055494   0.012696   0.449057   0.511784
     7  C    6.923605  -0.087386  -0.671688   0.009704   0.049191   0.079398
     8  H   -0.087386   0.437958   0.029673  -0.000085  -0.003194  -0.006124
     9  C   -0.671688   0.029673   6.490001  -0.041407  -0.036391  -0.017448
    10  H    0.009704  -0.000085  -0.041407   0.473253   0.002505   0.000445
    11  O    0.049191  -0.003194  -0.036391   0.002505   8.009424  -0.122986
    12  O    0.079398  -0.006124  -0.017448   0.000445  -0.122986   8.089190
    13  H    0.415945  -0.009963  -0.044433  -0.000582   0.000584   0.000822
    14  H   -0.051622   0.001102   0.432940  -0.008091  -0.000518  -0.000265
    15  H    0.003920  -0.000248  -0.000118  -0.000199   0.282854  -0.011861
              13         14         15
     1  C    0.025006   0.004357  -0.076379
     2  C   -0.046806   0.054161  -0.010871
     3  C   -0.048536  -0.002498   0.021577
     4  C    0.020957  -0.071401  -0.019901
     5  H   -0.000425   0.001181   0.001744
     6  C    0.019287  -0.012984   0.068992
     7  C    0.415945  -0.051622   0.003920
     8  H   -0.009963   0.001102  -0.000248
     9  C   -0.044433   0.432940  -0.000118
    10  H   -0.000582  -0.008091  -0.000199
    11  O    0.000584  -0.000518   0.282854
    12  O    0.000822  -0.000265  -0.011861
    13  H    0.464619  -0.007249   0.000042
    14  H   -0.007249   0.471681  -0.000081
    15  H    0.000042  -0.000081   0.401506
 Mulliken charges:
               1
     1  C    1.022382
     2  C   -0.787988
     3  C   -0.720736
     4  C    0.046084
     5  H    0.202701
     6  C    0.013743
     7  C   -0.007621
     8  H    0.215271
     9  C   -0.435074
    10  H    0.204572
    11  O   -0.162424
    12  O   -0.329953
    13  H    0.210734
    14  H    0.189286
    15  H    0.339022
 Sum of Mulliken charges =  -0.00000
 Mulliken charges with hydrogens summed into heavy atoms:
               1
     1  C    1.022382
     2  C   -0.585287
     3  C   -0.505465
     4  C    0.250657
     6  C    0.013743
     7  C    0.203113
     9  C   -0.245787
    11  O    0.176598
    12  O   -0.329953
 Electronic spatial extent (au):  <R**2>=           1158.2339
 Charge=              0.0000 electrons
 Dipole moment (field-independent basis, Debye):
    X=             -1.3135    Y=             -2.2161    Z=             -0.6417  Tot=              2.6548
 Quadrupole moment (field-independent basis, Debye-Ang):
   XX=            -43.3493   YY=            -49.8250   ZZ=            -54.3116
   XY=             -7.7407   XZ=             -2.1667   YZ=             -1.8628
 Traceless Quadrupole moment (field-independent basis, Debye-Ang):
   XX=              5.8127   YY=             -0.6630   ZZ=             -5.1496
   XY=             -7.7407   XZ=             -2.1667   YZ=             -1.8628
 Octapole moment (field-independent basis, Debye-Ang**2):
  XXX=             21.5677  YYY=             -3.7921  ZZZ=             -0.4186  XYY=             -7.0160
  XXY=            -25.4686  XXZ=             -7.3282  XZZ=             10.8855  YZZ=             -0.6232
  YYZ=             -1.0064  XYZ=             -0.7033
 Hexadecapole moment (field-independent basis, Debye-Ang**3):
 XXXX=           -872.8295 YYYY=           -351.8653 ZZZZ=            -66.4964 XXXY=            -87.2037
 XXXZ=            -25.3868 YYYX=            -14.7474 YYYZ=             -4.7132 ZZZX=             -1.8832
 ZZZY=              2.0437 XXYY=           -233.0976 XXZZ=           -195.8574 YYZZ=            -78.7205
 XXYZ=             -3.7683 YYXZ=             -2.7180 ZZXY=             -2.6176
 N-N= 4.093788962609D+02 E-N=-1.802256883794D+03  KE= 4.201198388906D+02
 No NMR shielding tensors so no spin-rotation constants.
 Leave Link  601 at Sun Nov  6 23:01:37 2022, MaxMem= 16106127360 cpu:               3.2 elap:               0.1
 (Enter /opt/ap/G16/B01/g16/l9999.exe)
 1\1\GINC-N05\SP\RwB97XD\6-311++G(d,p)\C7H6O2\ROOT\06-Nov-2022\0\\#P wB
 97XD/6-311++G(d,p) scf=maxcycle=512\\_conf022.gjf nmol_natom 1_15\\0,1
 \C\C,1,1.39016191\C,1,1.39194539,2,119.895942\C,2,1.38669027,1,119.880
 75721,3,0.70825972,0\H,2,0.98744251,1,119.71654057,3,-179.90726164,0\C
 ,1,1.48428757,2,119.93615286,4,-179.87772406,0\C,3,1.40101108,1,119.72
 36454,2,-0.26266839,0\H,3,0.9902154,1,119.1886159,2,178.85397616,0\C,4
 ,1.37899003,2,120.45785903,1,-0.48041454,0\H,4,0.9834739,2,120.3044270
 6,1,179.36166981,0\O,6,1.27459751,1,118.00615353,2,20.,0\O,6,1.2636257
 2,1,118.77715367,2,-160.,0\H,7,0.98977053,3,119.37861578,1,-178.935457
 41,0\H,9,0.99498061,4,119.46722635,2,-178.58826714,0\H,11,0.89680392,6
 ,118.15823763,1,176.92714093,0\\Version=ES64L-G16RevB.01\State=1-A\HF=
 -420.7461908\RMSD=4.679e-09\Dipole=0.0497854,0.3379416,0.9870599\Quadr
 upole=7.9536297,-4.0693885,-3.8842412,-1.4184679,-1.0847174,-1.9442546
 \PG=C01 [X(C7H6O2)]\\@


  ON THE CHOICE OF THE CORRECT LANGUAGE -
 I SPEAK SPANISH TO GOD, ITALIAN TO WOMEN,
 FRENCH TO MEN, AND GERMAN TO MY HORSE.
          -- CHARLES V
 Job cpu time:       0 days  0 hours  8 minutes  5.0 seconds.
 Elapsed time:       0 days  0 hours  0 minutes 15.3 seconds.
 File lengths (MBytes):  RWF=     35 Int=      0 D2E=      0 Chk=      4 Scr=      1
 Normal termination of Gaussian 16 at Sun Nov  6 23:01:37 2022.
