 Entering Gaussian System, Link 0=g16
 Input=_conf032.gjf
 Output=_conf032.log
 Initial command:
 /opt/ap/G16/B01/g16/l1.exe "/tmp2/scr/Gau-19039.inp" -scrdir="/tmp2/scr/"
 Entering Link 1 = /opt/ap/G16/B01/g16/l1.exe PID=     19040.
  
 Copyright (c) 1988-2017, Gaussian, Inc.  All Rights Reserved.
  
 This is part of the Gaussian(R) 16 program.  It is based on
 the Gaussian(R) 09 system (copyright 2009, Gaussian, Inc.),
 the Gaussian(R) 03 system (copyright 2003, Gaussian, Inc.),
 the Gaussian(R) 98 system (copyright 1998, Gaussian, Inc.),
 the Gaussian(R) 94 system (copyright 1995, Gaussian, Inc.),
 the Gaussian 92(TM) system (copyright 1992, Gaussian, Inc.),
 the Gaussian 90(TM) system (copyright 1990, Gaussian, Inc.),
 the Gaussian 88(TM) system (copyright 1988, Gaussian, Inc.),
 the Gaussian 86(TM) system (copyright 1986, Carnegie Mellon
 University), and the Gaussian 82(TM) system (copyright 1983,
 Carnegie Mellon University). Gaussian is a federally registered
 trademark of Gaussian, Inc.
  
 This software contains proprietary and confidential information,
 including trade secrets, belonging to Gaussian, Inc.
  
 This software is provided under written license and may be
 used, copied, transmitted, or stored only in accord with that
 written license.
  
 The following legend is applicable only to US Government
 contracts under FAR:
  
                    RESTRICTED RIGHTS LEGEND
  
 Use, reproduction and disclosure by the US Government is
 subject to restrictions as set forth in subparagraphs (a)
 and (c) of the Commercial Computer Software - Restricted
 Rights clause in FAR 52.227-19.
  
 Gaussian, Inc.
 340 Quinnipiac St., Bldg. 40, Wallingford CT 06492
  
  
 ---------------------------------------------------------------
 Warning -- This program may not be used in any manner that
 competes with the business of Gaussian, Inc. or will provide
 assistance to any competitor of Gaussian, Inc.  The licensee
 of this program is prohibited from giving any competitor of
 Gaussian, Inc. access to this program.  By using this program,
 the user acknowledges that Gaussian, Inc. is engaged in the
 business of creating and licensing software in the field of
 computational chemistry and represents and warrants to the
 licensee that it is not a competitor of Gaussian, Inc. and that
 it will not use this program in any manner prohibited above.
 ---------------------------------------------------------------
  

 Cite this work as:
 Gaussian 16, Revision B.01,
 M. J. Frisch, G. W. Trucks, H. B. Schlegel, G. E. Scuseria, 
 M. A. Robb, J. R. Cheeseman, G. Scalmani, V. Barone, 
 G. A. Petersson, H. Nakatsuji, X. Li, M. Caricato, A. V. Marenich, 
 J. Bloino, B. G. Janesko, R. Gomperts, B. Mennucci, H. P. Hratchian, 
 J. V. Ortiz, A. F. Izmaylov, J. L. Sonnenberg, D. Williams-Young, 
 F. Ding, F. Lipparini, F. Egidi, J. Goings, B. Peng, A. Petrone, 
 T. Henderson, D. Ranasinghe, V. G. Zakrzewski, J. Gao, N. Rega, 
 G. Zheng, W. Liang, M. Hada, M. Ehara, K. Toyota, R. Fukuda, 
 J. Hasegawa, M. Ishida, T. Nakajima, Y. Honda, O. Kitao, H. Nakai, 
 T. Vreven, K. Throssell, J. A. Montgomery, Jr., J. E. Peralta, 
 F. Ogliaro, M. J. Bearpark, J. J. Heyd, E. N. Brothers, K. N. Kudin, 
 V. N. Staroverov, T. A. Keith, R. Kobayashi, J. Normand, 
 K. Raghavachari, A. P. Rendell, J. C. Burant, S. S. Iyengar, 
 J. Tomasi, M. Cossi, J. M. Millam, M. Klene, C. Adamo, R. Cammi, 
 J. W. Ochterski, R. L. Martin, K. Morokuma, O. Farkas, 
 J. B. Foresman, and D. J. Fox, Gaussian, Inc., Wallingford CT, 2016.
 
 ******************************************
 Gaussian 16:  ES64L-G16RevB.01 20-Dec-2017
                 6-Nov-2022 
 ******************************************
 %nprocshared=32
 Will use up to   32 processors via shared memory.
 %mem=120GB
 %chk=_conf032.chk
 ----------------------------------------
 #P wB97XD/6-311++G(d,p) scf=maxcycle=512
 ----------------------------------------
 1/38=1,172=1/1;
 2/12=2,17=6,18=5,40=1/2;
 3/5=4,6=6,7=1111,11=2,25=1,30=1,74=-58/1,2,3;
 4//1;
 5/5=2,7=512,38=5/2;
 6/7=2,8=2,9=2,10=2,28=1/1;
 99/5=1,9=1/99;
 Leave Link    1 at Sun Nov  6 23:02:02 2022, MaxMem= 16106127360 cpu:               1.7 elap:               0.1
 (Enter /opt/ap/G16/B01/g16/l101.exe)
 ----------------------------
 _conf032.gjf nmol_natom 1_15
 ----------------------------
 Symbolic Z-matrix:
 Charge =  0 Multiplicity = 1
 C
 C                    1     1.39016 
 C                    1     1.39195  2     119.89594 
 C                    2     1.38669  1     119.88076  3     0.70826  0
 H                    2     0.98744  1     119.71654  3    -179.90726  0
 C                    1     1.48429  2     119.93615  4    -179.87772  0
 C                    3     1.40101  1     119.72365  2    -0.26267  0
 H                    3     0.99022  1     119.18862  2     178.85398  0
 C                    4     1.37899  2     120.45786  1    -0.48041  0
 H                    4     0.98347  2     120.30443  1     179.36167  0
 O                    6     1.2746   1     118.00615  2     70.      0
 O                    6     1.26363  1     118.77715  2    -110.     0
 H                    7     0.98977  3     119.37862  1    -178.93546  0
 H                    9     0.99498  4     119.46723  2    -178.58827  0
 H                    11    0.8968   6     118.15824  1     176.92714  0
 
 ITRead=  0  0  0  0  0  0  0  0  0  0  0  0  0  0  0
 MicOpt= -1 -1 -1 -1 -1 -1 -1 -1 -1 -1 -1 -1 -1 -1 -1
 NAtoms=     15 NQM=       15 NQMF=       0 NMMI=      0 NMMIF=      0
                NMic=       0 NMicF=      0.
                    Isotopes and Nuclear Properties:
 (Nuclear quadrupole moments (NQMom) in fm**2, nuclear magnetic moments (NMagM)
  in nuclear magnetons)

  Atom         1           2           3           4           5           6           7           8           9          10
 IAtWgt=          12          12          12          12           1          12          12           1          12           1
 AtmWgt=  12.0000000  12.0000000  12.0000000  12.0000000   1.0078250  12.0000000  12.0000000   1.0078250  12.0000000   1.0078250
 NucSpn=           0           0           0           0           1           0           0           1           0           1
 AtZEff=  -0.0000000  -0.0000000  -0.0000000  -0.0000000  -0.0000000  -0.0000000  -0.0000000  -0.0000000  -0.0000000  -0.0000000
 NQMom=    0.0000000   0.0000000   0.0000000   0.0000000   0.0000000   0.0000000   0.0000000   0.0000000   0.0000000   0.0000000
 NMagM=    0.0000000   0.0000000   0.0000000   0.0000000   2.7928460   0.0000000   0.0000000   2.7928460   0.0000000   2.7928460
 AtZNuc=   6.0000000   6.0000000   6.0000000   6.0000000   1.0000000   6.0000000   6.0000000   1.0000000   6.0000000   1.0000000

  Atom        11          12          13          14          15
 IAtWgt=          16          16           1           1           1
 AtmWgt=  15.9949146  15.9949146   1.0078250   1.0078250   1.0078250
 NucSpn=           0           0           1           1           1
 AtZEff=  -0.0000000  -0.0000000  -0.0000000  -0.0000000  -0.0000000
 NQMom=    0.0000000   0.0000000   0.0000000   0.0000000   0.0000000
 NMagM=    0.0000000   0.0000000   2.7928460   2.7928460   2.7928460
 AtZNuc=   8.0000000   8.0000000   1.0000000   1.0000000   1.0000000
 Leave Link  101 at Sun Nov  6 23:02:03 2022, MaxMem= 16106127360 cpu:               5.2 elap:               0.2
 (Enter /opt/ap/G16/B01/g16/l202.exe)
                          Input orientation:                          
 ---------------------------------------------------------------------
 Center     Atomic      Atomic             Coordinates (Angstroms)
 Number     Number       Type             X           Y           Z
 ---------------------------------------------------------------------
      1          6           0        0.000000    0.000000    0.000000
      2          6           0        0.000000    0.000000    1.390162
      3          6           0        1.206722    0.000000   -0.693782
      4          6           0        1.202258    0.014862    2.081006
      5          1           0       -0.857581   -0.001388    1.879646
      6          6           0       -1.286190   -0.013155   -0.740711
      7          6           0        2.415349    0.005578    0.014752
      8          1           0        1.194584   -0.017290   -1.683772
      9          6           0        2.400563    0.019708    1.398617
     10          1           0        1.209438    0.024411    3.064408
     11          8           0       -2.007697    1.036993   -0.705850
     12          8           0       -1.613643   -1.057330   -1.372551
     13          1           0        3.270315    0.021574   -0.483669
     14          1           0        3.254554    0.009066    1.909081
     15          1           0       -2.764737    1.046486   -1.186534
 ---------------------------------------------------------------------
                    Distance matrix (angstroms):
                    1          2          3          4          5
     1  C    0.000000
     2  C    1.390162   0.000000
     3  C    1.391945   2.408112   0.000000
     4  C    2.403379   1.386690   2.774832   0.000000
     5  H    2.066039   0.987443   3.299073   2.069721   0.000000
     6  C    1.484288   2.488991   2.493388   3.762345   2.655206
     7  C    2.415401   2.779513   1.401011   2.396056   3.766955
     8  H    2.064563   3.297939   0.990215   3.764924   4.112127
     9  C    2.778349   2.400659   2.409104   1.378990   3.293530
    10  H    3.294530   2.065535   3.758270   0.983474   2.382624
    11  O    2.367367   3.082120   3.377571   4.372085   3.014265
    12  O    2.367633   3.369625   3.087577   4.583225   3.501918
    13  H    3.305958   3.769173   2.074374   3.294611   4.756607
    14  H    3.773167   3.295676   3.311886   2.059493   4.112253
    15  H    3.185399   3.921513   4.136475   5.241957   3.759886
                    6          7          8          9         10
     6  C    0.000000
     7  C    3.777892   0.000000
     8  H    2.653982   2.091836   0.000000
     9  C    4.262622   1.384016   3.310118   0.000000
    10  H    4.550659   3.279477   4.748386   2.047842   0.000000
    11  O    1.274598   4.598524   3.510334   4.989629   5.058668
    12  O    1.263626   4.391715   3.010761   4.995321   5.369037
    13  H    4.563881   0.989771   2.398003   2.073517   4.103177
    14  H    5.257398   2.071897   4.141589   0.994981   2.348938
    15  H    1.872885   5.418475   4.129781   5.866651   5.908402
                   11         12         13         14         15
    11  O    0.000000
    12  O    2.232926   0.000000
    13  H    5.379391   5.080078   0.000000
    14  H    5.965381   5.967047   2.392834   0.000000
    15  H    0.896804   2.405340   6.161681   6.847695   0.000000
 Stoichiometry    C7H6O2
 Framework group  C1[X(C7H6O2)]
 Deg. of freedom    39
 Full point group                 C1      NOp   1
 Largest Abelian subgroup         C1      NOp   1
 Largest concise Abelian subgroup C1      NOp   1
                         Standard orientation:                         
 ---------------------------------------------------------------------
 Center     Atomic      Atomic             Coordinates (Angstroms)
 Number     Number       Type             X           Y           Z
 ---------------------------------------------------------------------
      1          6           0        0.220823    0.014103    0.017092
      2          6           0       -0.464827   -1.175595    0.234009
      3          6           0       -0.486639    1.190491   -0.213388
      4          6           0       -1.851157   -1.189083    0.205432
      5          1           0        0.039688   -2.008309    0.398612
      6          6           0        1.704775    0.029425    0.044712
      7          6           0       -1.887340    1.166663   -0.230728
      8          1           0        0.012002    2.035072   -0.349646
      9          6           0       -2.556862   -0.027410   -0.027179
     10          1           0       -2.342324   -2.028982    0.348770
     11          8           0        2.327080   -0.543774   -0.908587
     12          8           0        2.289398    0.605930    1.005236
     13          1           0       -2.385007    2.003049   -0.410814
     14          1           0       -3.551581   -0.049949   -0.023568
     15          1           0        3.222767   -0.499695   -0.916242
 ---------------------------------------------------------------------
 Rotational constants (GHZ):           3.9687147           1.1460461           1.0062697
 Leave Link  202 at Sun Nov  6 23:02:03 2022, MaxMem= 16106127360 cpu:               0.3 elap:               0.0
 (Enter /opt/ap/G16/B01/g16/l301.exe)
 Standard basis: 6-311++G(d,p) (5D, 7F)
 Ernie: Thresh=  0.10000D-02 Tol=  0.10000D-05 Strict=F.
 There are   249 symmetry adapted cartesian basis functions of A   symmetry.
 There are   240 symmetry adapted basis functions of A   symmetry.
   240 basis functions,   378 primitive gaussians,   249 cartesian basis functions
    32 alpha electrons       32 beta electrons
       nuclear repulsion energy       408.2694297183 Hartrees.
 IExCor= 4639 DFT=T Ex+Corr=wB97XD ExCW=0 ScaHFX=  1.000000
 ScaDFX=  1.000000  1.000000  1.000000  1.000000 ScalE2=  1.000000  1.000000
 IRadAn=      5 IRanWt=     -1 IRanGd=            0 ICorTp=0 IEmpDi=121
 HFx  wShort=  0.000000 wLong=  0.200000 cFull=  0.222036 cShort=  0.000000 cLong=  0.777964
 DFx  wShort=  0.000000 wLong=  0.200000 cFull=  0.000000 cShort=  0.000000 cLong=  1.000000
 NAtoms=   15 NActive=   15 NUniq=   15 SFac= 1.00D+00 NAtFMM=   60 NAOKFM=F Big=F
 Integral buffers will be    131072 words long.
 Raffenetti 2 integral format.
 Two-electron integral symmetry is turned on.
 R6Disp:  Grimme-D2 Dispersion energy=       -0.0064805202 Hartrees.
 Nuclear repulsion after empirical dispersion term =      408.2629491980 Hartrees.
 Leave Link  301 at Sun Nov  6 23:02:03 2022, MaxMem= 16106127360 cpu:               1.2 elap:               0.0
 (Enter /opt/ap/G16/B01/g16/l302.exe)
 NPDir=0 NMtPBC=     1 NCelOv=     1 NCel=       1 NClECP=     1 NCelD=      1
         NCelK=      1 NCelE2=     1 NClLst=     1 CellRange=     0.0.
 One-electron integrals computed using PRISM.
 One-electron integral symmetry used in STVInt
 NBasis=   240 RedAO= T EigKep=  1.15D-06  NBF=   240
 NBsUse=   240 1.00D-06 EigRej= -1.00D+00 NBFU=   240
 Precomputing XC quadrature grid using
 IXCGrd= 4 IRadAn=           5 IRanWt=          -1 IRanGd=           0 AccXCQ= 0.00D+00.
 Generated NRdTot=       0 NPtTot=           0 NUsed=           0 NTot=          32
 NSgBfM=   249   249   249   249   249 MxSgAt=    15 MxSgA2=    15.
 Leave Link  302 at Sun Nov  6 23:02:03 2022, MaxMem= 16106127360 cpu:               5.3 elap:               0.2
 (Enter /opt/ap/G16/B01/g16/l303.exe)
 DipDrv:  MaxL=1.
 Leave Link  303 at Sun Nov  6 23:02:03 2022, MaxMem= 16106127360 cpu:               3.6 elap:               0.1
 (Enter /opt/ap/G16/B01/g16/l401.exe)
 ExpMin= 3.60D-02 ExpMax= 8.59D+03 ExpMxC= 1.30D+03 IAcc=3 IRadAn=         5 AccDes= 0.00D+00
 Harris functional with IExCor= 4639 and IRadAn=       5 diagonalized for initial guess.
 HarFok:  IExCor= 4639 AccDes= 0.00D+00 IRadAn=         5 IDoV= 1 UseB2=F ITyADJ=14
 ICtDFT=  3500011 ScaDFX=  1.000000  1.000000  1.000000  1.000000
 FoFCou: FMM=F IPFlag=           0 FMFlag=      100000 FMFlg1=           0
         NFxFlg=           0 DoJE=T BraDBF=F KetDBF=T FulRan=T
         wScrn=  0.000000 ICntrl=       500 IOpCl=  0 I1Cent=   200000004 NGrid=           0
         NMat0=    1 NMatS0=      1 NMatT0=    0 NMatD0=    1 NMtDS0=    0 NMtDT0=    0
 Petite list used in FoFCou.
 Harris En= -403.249884775859    
 JPrj=0 DoOrth=F DoCkMO=F.
 Leave Link  401 at Sun Nov  6 23:02:03 2022, MaxMem= 16106127360 cpu:              11.8 elap:               0.4
 (Enter /opt/ap/G16/B01/g16/l502.exe)
 Integral symmetry usage will be decided dynamically.
 Closed shell SCF:
 Using DIIS extrapolation, IDIIS=  1040.
 NGot= 16106127360 LenX= 16105992971 LenY= 16105930529
 Requested convergence on RMS density matrix=1.00D-08 within 512 cycles.
 Requested convergence on MAX density matrix=1.00D-06.
 Requested convergence on             energy=1.00D-06.
 No special actions if energy rises.
 Fock matrices will be formed incrementally for  20 cycles.

 Cycle   1  Pass 1  IDiag  1:
 FoFJK:  IHMeth= 1 ICntrl=       0 DoSepK=T KAlg= 0 I1Cent=           0 FoldK=F
 IRaf=         1 NMat=       1 IRICut=       1 DoRegI=T DoRafI=F ISym2E= 0 IDoP0=0 IntGTp=1.
 FoFCou: FMM=F IPFlag=           0 FMFlag=      100000 FMFlg1=           0
         NFxFlg=           0 DoJE=T BraDBF=F KetDBF=F FulRan=T
         wScrn=  0.000000 ICntrl=       500 IOpCl=  0 I1Cent=           0 NGrid=           0
         NMat0=    1 NMatS0=      1 NMatT0=    0 NMatD0=    1 NMtDS0=    0 NMtDT0=    0
 Symmetry not used in FoFCou.
 E= -420.620943863291    
 DIIS: error= 7.10D-02 at cycle   1 NSaved=   1.
 NSaved= 1 IEnMin= 1 EnMin= -420.620943863291     IErMin= 1 ErrMin= 7.10D-02
 ErrMax= 7.10D-02  0.00D+00 EMaxC= 1.00D-01 BMatC= 8.63D-01 BMatP= 8.63D-01
 IDIUse=3 WtCom= 2.90D-01 WtEn= 7.10D-01
 Coeff-Com:  0.100D+01
 Coeff-En:   0.100D+01
 Coeff:      0.100D+01
 Gap=     0.474 Goal=   None    Shift=    0.000
 GapD=    0.474 DampG=2.000 DampE=0.500 DampFc=1.0000 IDamp=-1.
 RMSDP=1.78D-02 MaxDP=1.45D+00              OVMax= 9.55D-02

 Cycle   2  Pass 1  IDiag  1:
 RMSU=  1.19D-02    CP:  7.67D-01
 E= -420.694058674660     Delta-E=       -0.073114811369 Rises=F Damp=F
 DIIS: error= 1.41D-02 at cycle   2 NSaved=   2.
 NSaved= 2 IEnMin= 2 EnMin= -420.694058674660     IErMin= 2 ErrMin= 1.41D-02
 ErrMax= 1.41D-02  0.00D+00 EMaxC= 1.00D-01 BMatC= 5.73D-02 BMatP= 8.63D-01
 IDIUse=3 WtCom= 8.59D-01 WtEn= 1.41D-01
 Coeff-Com:  0.136D+00 0.864D+00
 Coeff-En:   0.909D-01 0.909D+00
 Coeff:      0.129D+00 0.871D+00
 Gap=     0.467 Goal=   None    Shift=    0.000
 RMSDP=8.33D-03 MaxDP=4.02D-01 DE=-7.31D-02 OVMax= 7.16D-02

 Cycle   3  Pass 1  IDiag  1:
 RMSU=  6.63D-03    CP:  7.20D-01  6.41D-01
 E= -420.709962230613     Delta-E=       -0.015903555953 Rises=F Damp=F
 DIIS: error= 1.40D-02 at cycle   3 NSaved=   3.
 NSaved= 3 IEnMin= 3 EnMin= -420.709962230613     IErMin= 3 ErrMin= 1.40D-02
 ErrMax= 1.40D-02  0.00D+00 EMaxC= 1.00D-01 BMatC= 3.63D-02 BMatP= 5.73D-02
 IDIUse=3 WtCom= 8.60D-01 WtEn= 1.40D-01
 Coeff-Com:  0.288D-01 0.449D+00 0.523D+00
 Coeff-En:   0.000D+00 0.387D+00 0.613D+00
 Coeff:      0.248D-01 0.440D+00 0.535D+00
 Gap=     0.372 Goal=   None    Shift=    0.000
 RMSDP=3.97D-03 MaxDP=3.45D-01 DE=-1.59D-02 OVMax= 5.28D-02

 Cycle   4  Pass 1  IDiag  1:
 RMSU=  1.82D-03    CP:  7.08D-01  8.00D-01  5.63D-01
 E= -420.736333372467     Delta-E=       -0.026371141854 Rises=F Damp=F
 DIIS: error= 2.68D-03 at cycle   4 NSaved=   4.
 NSaved= 4 IEnMin= 4 EnMin= -420.736333372467     IErMin= 4 ErrMin= 2.68D-03
 ErrMax= 2.68D-03  0.00D+00 EMaxC= 1.00D-01 BMatC= 2.25D-03 BMatP= 3.63D-02
 IDIUse=3 WtCom= 9.73D-01 WtEn= 2.68D-02
 Coeff-Com:  0.105D-01 0.220D+00 0.305D+00 0.464D+00
 Coeff-En:   0.000D+00 0.000D+00 0.000D+00 0.100D+01
 Coeff:      0.102D-01 0.214D+00 0.297D+00 0.479D+00
 Gap=     0.371 Goal=   None    Shift=    0.000
 RMSDP=6.92D-04 MaxDP=3.84D-02 DE=-2.64D-02 OVMax= 1.40D-02

 Cycle   5  Pass 1  IDiag  1:
 RMSU=  5.63D-04    CP:  7.08D-01  7.96D-01  6.04D-01  8.37D-01
 E= -420.737852546604     Delta-E=       -0.001519174137 Rises=F Damp=F
 DIIS: error= 4.49D-04 at cycle   5 NSaved=   5.
 NSaved= 5 IEnMin= 5 EnMin= -420.737852546604     IErMin= 5 ErrMin= 4.49D-04
 ErrMax= 4.49D-04  0.00D+00 EMaxC= 1.00D-01 BMatC= 5.25D-05 BMatP= 2.25D-03
 IDIUse=3 WtCom= 9.96D-01 WtEn= 4.49D-03
 Coeff-Com:  0.611D-03 0.212D-01 0.384D-01 0.153D+00 0.787D+00
 Coeff-En:   0.000D+00 0.000D+00 0.000D+00 0.000D+00 0.100D+01
 Coeff:      0.608D-03 0.211D-01 0.382D-01 0.152D+00 0.788D+00
 Gap=     0.368 Goal=   None    Shift=    0.000
 RMSDP=1.92D-04 MaxDP=8.77D-03 DE=-1.52D-03 OVMax= 3.15D-03

 Cycle   6  Pass 1  IDiag  1:
 RMSU=  1.40D-04    CP:  7.09D-01  8.01D-01  6.19D-01  8.63D-01  1.05D+00
 E= -420.737893453729     Delta-E=       -0.000040907125 Rises=F Damp=F
 DIIS: error= 1.67D-04 at cycle   6 NSaved=   6.
 NSaved= 6 IEnMin= 6 EnMin= -420.737893453729     IErMin= 6 ErrMin= 1.67D-04
 ErrMax= 1.67D-04  0.00D+00 EMaxC= 1.00D-01 BMatC= 7.48D-06 BMatP= 5.25D-05
 IDIUse=3 WtCom= 9.98D-01 WtEn= 1.67D-03
 Coeff-Com: -0.959D-03-0.163D-01-0.177D-01 0.102D-01 0.338D+00 0.686D+00
 Coeff-En:   0.000D+00 0.000D+00 0.000D+00 0.000D+00 0.000D+00 0.100D+01
 Coeff:     -0.957D-03-0.163D-01-0.176D-01 0.102D-01 0.338D+00 0.687D+00
 Gap=     0.369 Goal=   None    Shift=    0.000
 RMSDP=9.19D-05 MaxDP=4.11D-03 DE=-4.09D-05 OVMax= 1.10D-03

 Cycle   7  Pass 1  IDiag  1:
 RMSU=  4.96D-05    CP:  7.08D-01  8.01D-01  6.23D-01  8.82D-01  1.13D+00
                    CP:  1.14D+00
 E= -420.737901251797     Delta-E=       -0.000007798068 Rises=F Damp=F
 DIIS: error= 4.69D-05 at cycle   7 NSaved=   7.
 NSaved= 7 IEnMin= 7 EnMin= -420.737901251797     IErMin= 7 ErrMin= 4.69D-05
 ErrMax= 4.69D-05  0.00D+00 EMaxC= 1.00D-01 BMatC= 3.27D-07 BMatP= 7.48D-06
 IDIUse=1 WtCom= 1.00D+00 WtEn= 0.00D+00
 Coeff-Com: -0.227D-03-0.534D-02-0.657D-02-0.138D-01-0.682D-02 0.119D+00
 Coeff-Com:  0.913D+00
 Coeff:     -0.227D-03-0.534D-02-0.657D-02-0.138D-01-0.682D-02 0.119D+00
 Coeff:      0.913D+00
 Gap=     0.369 Goal=   None    Shift=    0.000
 RMSDP=4.06D-05 MaxDP=2.19D-03 DE=-7.80D-06 OVMax= 3.96D-04

 Cycle   8  Pass 1  IDiag  1:
 RMSU=  1.43D-05    CP:  7.08D-01  8.01D-01  6.24D-01  8.83D-01  1.19D+00
                    CP:  1.22D+00  1.28D+00
 E= -420.737901961383     Delta-E=       -0.000000709586 Rises=F Damp=F
 DIIS: error= 1.68D-05 at cycle   8 NSaved=   8.
 NSaved= 8 IEnMin= 8 EnMin= -420.737901961383     IErMin= 8 ErrMin= 1.68D-05
 ErrMax= 1.68D-05  0.00D+00 EMaxC= 1.00D-01 BMatC= 5.39D-08 BMatP= 3.27D-07
 IDIUse=1 WtCom= 1.00D+00 WtEn= 0.00D+00
 Coeff-Com:  0.398D-04 0.386D-03 0.409D-03-0.556D-02-0.421D-01-0.483D-01
 Coeff-Com:  0.263D+00 0.832D+00
 Coeff:      0.398D-04 0.386D-03 0.409D-03-0.556D-02-0.421D-01-0.483D-01
 Coeff:      0.263D+00 0.832D+00
 Gap=     0.369 Goal=   None    Shift=    0.000
 RMSDP=1.21D-05 MaxDP=6.53D-04 DE=-7.10D-07 OVMax= 1.92D-04

 Cycle   9  Pass 1  IDiag  1:
 RMSU=  4.71D-06    CP:  7.09D-01  8.01D-01  6.24D-01  8.83D-01  1.20D+00
                    CP:  1.24D+00  1.41D+00  1.19D+00
 E= -420.737902066819     Delta-E=       -0.000000105436 Rises=F Damp=F
 DIIS: error= 9.65D-06 at cycle   9 NSaved=   9.
 NSaved= 9 IEnMin= 9 EnMin= -420.737902066819     IErMin= 9 ErrMin= 9.65D-06
 ErrMax= 9.65D-06  0.00D+00 EMaxC= 1.00D-01 BMatC= 7.91D-09 BMatP= 5.39D-08
 IDIUse=1 WtCom= 1.00D+00 WtEn= 0.00D+00
 Coeff-Com:  0.471D-04 0.912D-03 0.117D-02-0.213D-04-0.126D-01-0.334D-01
 Coeff-Com: -0.357D-01 0.277D+00 0.803D+00
 Coeff:      0.471D-04 0.912D-03 0.117D-02-0.213D-04-0.126D-01-0.334D-01
 Coeff:     -0.357D-01 0.277D+00 0.803D+00
 Gap=     0.369 Goal=   None    Shift=    0.000
 RMSDP=4.46D-06 MaxDP=2.46D-04 DE=-1.05D-07 OVMax= 5.86D-05

 Cycle  10  Pass 1  IDiag  1:
 RMSU=  1.97D-06    CP:  7.08D-01  8.01D-01  6.25D-01  8.82D-01  1.20D+00
                    CP:  1.24D+00  1.42D+00  1.28D+00  1.32D+00
 E= -420.737902081273     Delta-E=       -0.000000014454 Rises=F Damp=F
 DIIS: error= 1.62D-06 at cycle  10 NSaved=  10.
 NSaved=10 IEnMin=10 EnMin= -420.737902081273     IErMin=10 ErrMin= 1.62D-06
 ErrMax= 1.62D-06  0.00D+00 EMaxC= 1.00D-01 BMatC= 9.77D-10 BMatP= 7.91D-09
 IDIUse=1 WtCom= 1.00D+00 WtEn= 0.00D+00
 Coeff-Com:  0.967D-05 0.210D-03 0.296D-03 0.528D-03 0.104D-02-0.498D-02
 Coeff-Com: -0.397D-01-0.134D-01 0.260D+00 0.796D+00
 Coeff:      0.967D-05 0.210D-03 0.296D-03 0.528D-03 0.104D-02-0.498D-02
 Coeff:     -0.397D-01-0.134D-01 0.260D+00 0.796D+00
 Gap=     0.369 Goal=   None    Shift=    0.000
 RMSDP=1.85D-06 MaxDP=1.10D-04 DE=-1.45D-08 OVMax= 2.58D-05

 Cycle  11  Pass 1  IDiag  1:
 RMSU=  5.77D-07    CP:  7.08D-01  8.01D-01  6.25D-01  8.81D-01  1.20D+00
                    CP:  1.24D+00  1.43D+00  1.33D+00  1.47D+00  1.00D+00
 E= -420.737902082881     Delta-E=       -0.000000001608 Rises=F Damp=F
 DIIS: error= 8.09D-07 at cycle  11 NSaved=  11.
 NSaved=11 IEnMin=11 EnMin= -420.737902082881     IErMin=11 ErrMin= 8.09D-07
 ErrMax= 8.09D-07  0.00D+00 EMaxC= 1.00D-01 BMatC= 1.63D-10 BMatP= 9.77D-10
 IDIUse=1 WtCom= 1.00D+00 WtEn= 0.00D+00
 Coeff-Com: -0.209D-05-0.217D-04-0.118D-04 0.249D-03 0.225D-02 0.234D-02
 Coeff-Com: -0.102D-01-0.495D-01-0.179D-01 0.306D+00 0.767D+00
 Coeff:     -0.209D-05-0.217D-04-0.118D-04 0.249D-03 0.225D-02 0.234D-02
 Coeff:     -0.102D-01-0.495D-01-0.179D-01 0.306D+00 0.767D+00
 Gap=     0.369 Goal=   None    Shift=    0.000
 RMSDP=6.01D-07 MaxDP=3.47D-05 DE=-1.61D-09 OVMax= 6.39D-06

 Cycle  12  Pass 1  IDiag  1:
 RMSU=  2.42D-07    CP:  7.08D-01  8.00D-01  6.25D-01  8.81D-01  1.20D+00
                    CP:  1.23D+00  1.43D+00  1.34D+00  1.52D+00  1.07D+00
                    CP:  1.17D+00
 E= -420.737902083120     Delta-E=       -0.000000000240 Rises=F Damp=F
 DIIS: error= 1.76D-07 at cycle  12 NSaved=  12.
 NSaved=12 IEnMin=12 EnMin= -420.737902083120     IErMin=12 ErrMin= 1.76D-07
 ErrMax= 1.76D-07  0.00D+00 EMaxC= 1.00D-01 BMatC= 1.03D-11 BMatP= 1.63D-10
 IDIUse=1 WtCom= 1.00D+00 WtEn= 0.00D+00
 Coeff-Com: -0.125D-05-0.206D-04-0.238D-04 0.247D-04 0.489D-03 0.894D-03
 Coeff-Com:  0.115D-02-0.122D-01-0.236D-01 0.218D-01 0.184D+00 0.827D+00
 Coeff:     -0.125D-05-0.206D-04-0.238D-04 0.247D-04 0.489D-03 0.894D-03
 Coeff:      0.115D-02-0.122D-01-0.236D-01 0.218D-01 0.184D+00 0.827D+00
 Gap=     0.369 Goal=   None    Shift=    0.000
 RMSDP=1.87D-07 MaxDP=9.61D-06 DE=-2.40D-10 OVMax= 2.91D-06

 Cycle  13  Pass 1  IDiag  1:
 RMSU=  7.36D-08    CP:  7.08D-01  8.00D-01  6.25D-01  8.81D-01  1.20D+00
                    CP:  1.23D+00  1.43D+00  1.34D+00  1.54D+00  1.07D+00
                    CP:  1.27D+00  1.15D+00
 E= -420.737902083143     Delta-E=       -0.000000000023 Rises=F Damp=F
 DIIS: error= 8.78D-08 at cycle  13 NSaved=  13.
 NSaved=13 IEnMin=13 EnMin= -420.737902083143     IErMin=13 ErrMin= 8.78D-08
 ErrMax= 8.78D-08  0.00D+00 EMaxC= 1.00D-01 BMatC= 2.12D-12 BMatP= 1.03D-11
 IDIUse=1 WtCom= 1.00D+00 WtEn= 0.00D+00
 Coeff-Com:  0.702D-07-0.362D-05-0.755D-05-0.437D-04-0.304D-03-0.203D-03
 Coeff-Com:  0.240D-02 0.559D-02-0.209D-02-0.512D-01-0.117D+00 0.199D+00
 Coeff-Com:  0.965D+00
 Coeff:      0.702D-07-0.362D-05-0.755D-05-0.437D-04-0.304D-03-0.203D-03
 Coeff:      0.240D-02 0.559D-02-0.209D-02-0.512D-01-0.117D+00 0.199D+00
 Coeff:      0.965D+00
 Gap=     0.369 Goal=   None    Shift=    0.000
 RMSDP=7.83D-08 MaxDP=3.23D-06 DE=-2.26D-11 OVMax= 1.90D-06

 Cycle  14  Pass 1  IDiag  1:
 RMSU=  3.30D-08    CP:  7.08D-01  8.00D-01  6.25D-01  8.81D-01  1.20D+00
                    CP:  1.23D+00  1.43D+00  1.34D+00  1.54D+00  1.07D+00
                    CP:  1.34D+00  1.28D+00  1.30D+00
 E= -420.737902083149     Delta-E=       -0.000000000007 Rises=F Damp=F
 DIIS: error= 2.88D-08 at cycle  14 NSaved=  14.
 NSaved=14 IEnMin=14 EnMin= -420.737902083149     IErMin=14 ErrMin= 2.88D-08
 ErrMax= 2.88D-08  0.00D+00 EMaxC= 1.00D-01 BMatC= 1.60D-13 BMatP= 2.12D-12
 IDIUse=1 WtCom= 1.00D+00 WtEn= 0.00D+00
 Coeff-Com:  0.777D-07 0.200D-05 0.265D-05 0.188D-05-0.416D-04-0.519D-04
 Coeff-Com: -0.255D-03 0.859D-03 0.266D-02-0.514D-03-0.112D-01-0.960D-01
 Coeff-Com: -0.751D-01 0.118D+01
 Coeff:      0.777D-07 0.200D-05 0.265D-05 0.188D-05-0.416D-04-0.519D-04
 Coeff:     -0.255D-03 0.859D-03 0.266D-02-0.514D-03-0.112D-01-0.960D-01
 Coeff:     -0.751D-01 0.118D+01
 Gap=     0.369 Goal=   None    Shift=    0.000
 RMSDP=3.04D-08 MaxDP=1.92D-06 DE=-6.59D-12 OVMax= 7.95D-07

 Cycle  15  Pass 1  IDiag  1:
 RMSU=  8.26D-09    CP:  7.08D-01  8.00D-01  6.25D-01  8.81D-01  1.20D+00
                    CP:  1.23D+00  1.43D+00  1.34D+00  1.54D+00  1.06D+00
                    CP:  1.36D+00  1.30D+00  1.49D+00  1.45D+00
 E= -420.737902083152     Delta-E=       -0.000000000003 Rises=F Damp=F
 DIIS: error= 9.03D-09 at cycle  15 NSaved=  15.
 NSaved=15 IEnMin=15 EnMin= -420.737902083152     IErMin=15 ErrMin= 9.03D-09
 ErrMax= 9.03D-09  0.00D+00 EMaxC= 1.00D-01 BMatC= 2.31D-14 BMatP= 1.60D-13
 IDIUse=1 WtCom= 1.00D+00 WtEn= 0.00D+00
 Coeff-Com:  0.142D-07 0.945D-06 0.160D-05 0.542D-05 0.214D-04 0.111D-04
 Coeff-Com: -0.322D-03-0.352D-03 0.964D-03 0.562D-02 0.111D-01-0.408D-01
 Coeff-Com: -0.121D+00 0.311D+00 0.833D+00
 Coeff:      0.142D-07 0.945D-06 0.160D-05 0.542D-05 0.214D-04 0.111D-04
 Coeff:     -0.322D-03-0.352D-03 0.964D-03 0.562D-02 0.111D-01-0.408D-01
 Coeff:     -0.121D+00 0.311D+00 0.833D+00
 Gap=     0.369 Goal=   None    Shift=    0.000
 RMSDP=8.50D-09 MaxDP=8.06D-07 DE=-2.73D-12 OVMax= 1.69D-07

 SCF Done:  E(RwB97XD) =  -420.737902083     A.U. after   15 cycles
            NFock= 15  Conv=0.85D-08     -V/T= 2.0015
 KE= 4.201113279898D+02 PE=-1.799927531902D+03 EE= 5.508153526314D+02
 Leave Link  502 at Sun Nov  6 23:02:16 2022, MaxMem= 16106127360 cpu:             409.1 elap:              12.8
 (Enter /opt/ap/G16/B01/g16/l601.exe)
 Copying SCF densities to generalized density rwf, IOpCl= 0 IROHF=0.

 **********************************************************************

            Population analysis using the SCF Density.

 **********************************************************************

 Orbital symmetries:
       Occupied  (A) (A) (A) (A) (A) (A) (A) (A) (A) (A) (A) (A)
                 (A) (A) (A) (A) (A) (A) (A) (A) (A) (A) (A) (A)
                 (A) (A) (A) (A) (A) (A) (A) (A)
       Virtual   (A) (A) (A) (A) (A) (A) (A) (A) (A) (A) (A) (A)
                 (A) (A) (A) (A) (A) (A) (A) (A) (A) (A) (A) (A)
                 (A) (A) (A) (A) (A) (A) (A) (A) (A) (A) (A) (A)
                 (A) (A) (A) (A) (A) (A) (A) (A) (A) (A) (A) (A)
                 (A) (A) (A) (A) (A) (A) (A) (A) (A) (A) (A) (A)
                 (A) (A) (A) (A) (A) (A) (A) (A) (A) (A) (A) (A)
                 (A) (A) (A) (A) (A) (A) (A) (A) (A) (A) (A) (A)
                 (A) (A) (A) (A) (A) (A) (A) (A) (A) (A) (A) (A)
                 (A) (A) (A) (A) (A) (A) (A) (A) (A) (A) (A) (A)
                 (A) (A) (A) (A) (A) (A) (A) (A) (A) (A) (A) (A)
                 (A) (A) (A) (A) (A) (A) (A) (A) (A) (A) (A) (A)
                 (A) (A) (A) (A) (A) (A) (A) (A) (A) (A) (A) (A)
                 (A) (A) (A) (A) (A) (A) (A) (A) (A) (A) (A) (A)
                 (A) (A) (A) (A) (A) (A) (A) (A) (A) (A) (A) (A)
                 (A) (A) (A) (A) (A) (A) (A) (A) (A) (A) (A) (A)
                 (A) (A) (A) (A) (A) (A) (A) (A) (A) (A) (A) (A)
                 (A) (A) (A) (A) (A) (A) (A) (A) (A) (A) (A) (A)
                 (A) (A) (A) (A)
 The electronic state is 1-A.
 Alpha  occ. eigenvalues --  -19.31989 -19.23467 -10.43594 -10.31405 -10.29441
 Alpha  occ. eigenvalues --  -10.29284 -10.29010 -10.28750 -10.28679  -1.26090
 Alpha  occ. eigenvalues --   -1.11015  -0.98055  -0.88946  -0.87067  -0.80713
 Alpha  occ. eigenvalues --   -0.73472  -0.72331  -0.65875  -0.60752  -0.58852
 Alpha  occ. eigenvalues --   -0.57930  -0.55774  -0.53856  -0.53381  -0.49320
 Alpha  occ. eigenvalues --   -0.47401  -0.45383  -0.45162  -0.40865  -0.37580
 Alpha  occ. eigenvalues --   -0.34369  -0.33512
 Alpha virt. eigenvalues --    0.03373   0.03812   0.04250   0.04554   0.05077
 Alpha virt. eigenvalues --    0.06402   0.07191   0.07244   0.08652   0.10589
 Alpha virt. eigenvalues --    0.12175   0.12636   0.13017   0.14431   0.14973
 Alpha virt. eigenvalues --    0.16099   0.16157   0.17054   0.17333   0.17964
 Alpha virt. eigenvalues --    0.18614   0.18791   0.19354   0.19938   0.20107
 Alpha virt. eigenvalues --    0.20990   0.21035   0.21132   0.23063   0.23832
 Alpha virt. eigenvalues --    0.24419   0.25572   0.27080   0.27305   0.27761
 Alpha virt. eigenvalues --    0.29323   0.29550   0.30011   0.31082   0.31283
 Alpha virt. eigenvalues --    0.32301   0.34250   0.34995   0.35503   0.36719
 Alpha virt. eigenvalues --    0.37567   0.38100   0.38981   0.39523   0.39757
 Alpha virt. eigenvalues --    0.42196   0.42589   0.43247   0.43607   0.44954
 Alpha virt. eigenvalues --    0.45882   0.46888   0.51071   0.52619   0.56792
 Alpha virt. eigenvalues --    0.59399   0.60961   0.61746   0.62005   0.63504
 Alpha virt. eigenvalues --    0.64206   0.64731   0.64994   0.67311   0.67822
 Alpha virt. eigenvalues --    0.69122   0.70063   0.72894   0.73140   0.74603
 Alpha virt. eigenvalues --    0.75371   0.81358   0.81712   0.82379   0.83051
 Alpha virt. eigenvalues --    0.86662   0.86897   0.90674   0.92769   0.93632
 Alpha virt. eigenvalues --    0.93724   0.95188   0.95932   0.99220   0.99903
 Alpha virt. eigenvalues --    1.01507   1.01714   1.07956   1.09005   1.12615
 Alpha virt. eigenvalues --    1.13847   1.14701   1.16464   1.18653   1.19835
 Alpha virt. eigenvalues --    1.22629   1.26483   1.27587   1.29759   1.33187
 Alpha virt. eigenvalues --    1.37061   1.41760   1.44076   1.45672   1.53392
 Alpha virt. eigenvalues --    1.56851   1.59018   1.59325   1.61251   1.62286
 Alpha virt. eigenvalues --    1.65602   1.67073   1.67418   1.70864   1.73052
 Alpha virt. eigenvalues --    1.74335   1.75755   1.78233   1.84346   1.87141
 Alpha virt. eigenvalues --    1.87951   1.88839   1.91218   1.95507   1.96048
 Alpha virt. eigenvalues --    2.01246   2.02477   2.03542   2.04364   2.05273
 Alpha virt. eigenvalues --    2.05841   2.07875   2.14697   2.17027   2.17877
 Alpha virt. eigenvalues --    2.23343   2.24301   2.33554   2.43533   2.47246
 Alpha virt. eigenvalues --    2.50069   2.52500   2.53947   2.58641   2.62320
 Alpha virt. eigenvalues --    2.67399   2.71714   2.77469   2.80240   2.80993
 Alpha virt. eigenvalues --    2.82859   2.85211   2.88028   2.90633   2.90820
 Alpha virt. eigenvalues --    2.91144   2.91940   2.96543   2.97770   3.00266
 Alpha virt. eigenvalues --    3.01759   3.07108   3.10328   3.16550   3.18752
 Alpha virt. eigenvalues --    3.20123   3.22463   3.25141   3.27588   3.33950
 Alpha virt. eigenvalues --    3.38010   3.43058   3.48363   3.49129   3.64434
 Alpha virt. eigenvalues --    3.66275   3.69204   3.72372   3.86307   3.89265
 Alpha virt. eigenvalues --    4.05199   4.15784   4.27313   4.29463   4.35316
 Alpha virt. eigenvalues --    4.35667   4.40354   4.94998   5.08178   5.19060
 Alpha virt. eigenvalues --    5.27137   5.47893   5.76720   6.07027  23.84549
 Alpha virt. eigenvalues --   23.93689  24.15103  24.21275  24.28625  24.30196
 Alpha virt. eigenvalues --   24.41985  50.04003  50.12083
          Condensed to atoms (all electrons):
               1          2          3          4          5          6
     1  C   11.743766  -3.336244  -2.592946   1.456953  -0.112485  -1.572236
     2  C   -3.336244  11.160777   1.022099  -1.608336   0.469947  -0.714779
     3  C   -2.592946   1.022099  11.081355  -1.717879   0.121568  -0.756229
     4  C    1.456953  -1.608336  -1.717879   6.842527  -0.082941   0.080202
     5  H   -0.112485   0.469947   0.121568  -0.082941   0.488318  -0.049112
     6  C   -1.572236  -0.714779  -0.756229   0.080202  -0.049112   8.245728
     7  C    1.750757  -1.753815  -1.768596   1.229315  -0.029813  -0.046623
     8  H   -0.060035   0.152764   0.404821  -0.034503   0.001248  -0.034981
     9  C   -1.842651   1.388499   1.317885  -0.712488   0.034266  -0.000847
    10  H    0.024983  -0.046131  -0.013594   0.391486  -0.009931   0.007450
    11  O   -0.260502  -0.134626  -0.147229   0.061873  -0.008056   0.458136
    12  O    0.144243   0.029281  -0.241733   0.025312  -0.004177   0.500222
    13  H    0.031645  -0.030280  -0.030182   0.000377   0.000250   0.001031
    14  H    0.007325   0.000938  -0.003574  -0.024543  -0.001002  -0.008618
    15  H   -0.061824   0.011613  -0.005349  -0.000282  -0.000802   0.035842
               7          8          9         10         11         12
     1  C    1.750757  -0.060035  -1.842651   0.024983  -0.260502   0.144243
     2  C   -1.753815   0.152764   1.388499  -0.046131  -0.134626   0.029281
     3  C   -1.768596   0.404821   1.317885  -0.013594  -0.147229  -0.241733
     4  C    1.229315  -0.034503  -0.712488   0.391486   0.061873   0.025312
     5  H   -0.029813   0.001248   0.034266  -0.009931  -0.008056  -0.004177
     6  C   -0.046623  -0.034981  -0.000847   0.007450   0.458136   0.500222
     7  C    6.997952  -0.102879  -0.730920  -0.006973   0.033712  -0.010750
     8  H   -0.102879   0.470427   0.030384   0.000371  -0.011799   0.001975
     9  C   -0.730920   0.030384   6.573979  -0.016378  -0.027289  -0.007049
    10  H   -0.006973   0.000371  -0.016378   0.471262   0.000300   0.000198
    11  O    0.033712  -0.011799  -0.027289   0.000300   7.959273  -0.157746
    12  O   -0.010750   0.001975  -0.007049   0.000198  -0.157746   7.991197
    13  H    0.400572  -0.010438  -0.032601  -0.001248   0.000158  -0.000968
    14  H   -0.015859  -0.000297   0.394219  -0.004367  -0.000558  -0.000060
    15  H   -0.004839   0.000427   0.001191  -0.000045   0.304858  -0.008461
              13         14         15
     1  C    0.031645   0.007325  -0.061824
     2  C   -0.030280   0.000938   0.011613
     3  C   -0.030182  -0.003574  -0.005349
     4  C    0.000377  -0.024543  -0.000282
     5  H    0.000250  -0.001002  -0.000802
     6  C    0.001031  -0.008618   0.035842
     7  C    0.400572  -0.015859  -0.004839
     8  H   -0.010438  -0.000297   0.000427
     9  C   -0.032601   0.394219   0.001191
    10  H   -0.001248  -0.004367  -0.000045
    11  O    0.000158  -0.000558   0.304858
    12  O   -0.000968  -0.000060  -0.008461
    13  H    0.471228  -0.004051  -0.000259
    14  H   -0.004051   0.470330  -0.000004
    15  H   -0.000259  -0.000004   0.402110
 Mulliken charges:
               1
     1  C    0.679250
     2  C   -0.611707
     3  C   -0.670419
     4  C    0.092928
     5  H    0.182723
     6  C   -0.145185
     7  C    0.058760
     8  H    0.192513
     9  C   -0.370200
    10  H    0.202616
    11  O   -0.070506
    12  O   -0.261485
    13  H    0.204767
    14  H    0.190121
    15  H    0.325825
 Sum of Mulliken charges =  -0.00000
 Mulliken charges with hydrogens summed into heavy atoms:
               1
     1  C    0.679250
     2  C   -0.428983
     3  C   -0.477906
     4  C    0.295544
     6  C   -0.145185
     7  C    0.263527
     9  C   -0.180079
    11  O    0.255318
    12  O   -0.261485
 Electronic spatial extent (au):  <R**2>=           1158.2364
 Charge=             -0.0000 electrons
 Dipole moment (field-independent basis, Debye):
    X=             -0.9920    Y=             -1.1254    Z=             -2.0380  Tot=              2.5306
 Quadrupole moment (field-independent basis, Debye-Ang):
   XX=            -43.0800   YY=            -47.0580   ZZ=            -57.3016
   XY=             -3.8014   XZ=             -6.8163   YZ=             -3.6773
 Traceless Quadrupole moment (field-independent basis, Debye-Ang):
   XX=              6.0666   YY=              2.0885   ZZ=             -8.1551
   XY=             -3.8014   XZ=             -6.8163   YZ=             -3.6773
 Octapole moment (field-independent basis, Debye-Ang**2):
  XXX=             23.5060  YYY=             -0.8132  ZZZ=             -3.3203  XYY=             -0.9404
  XXY=            -12.8330  XXZ=            -23.1009  XZZ=              5.6567  YZZ=             -1.5378
  YYZ=             -1.0902  XYZ=             -1.8824
 Hexadecapole moment (field-independent basis, Debye-Ang**3):
 XXXX=           -873.5505 YYYY=           -283.5128 ZZZZ=           -137.9537 XXXY=            -42.8826
 XXXZ=            -78.7736 YYYX=             -3.8831 YYYZ=             -7.3220 ZZZX=            -11.6974
 ZZZY=              1.8019 XXYY=           -214.6012 XXZZ=           -212.1169 YYZZ=            -78.3734
 XXYZ=             -9.2023 YYXZ=             -3.2453 ZZXY=             -4.6724
 N-N= 4.082629491980D+02 E-N=-1.799927531983D+03  KE= 4.201113279898D+02
 No NMR shielding tensors so no spin-rotation constants.
 Leave Link  601 at Sun Nov  6 23:02:16 2022, MaxMem= 16106127360 cpu:               3.4 elap:               0.1
 (Enter /opt/ap/G16/B01/g16/l9999.exe)
 1\1\GINC-N03\SP\RwB97XD\6-311++G(d,p)\C7H6O2\ROOT\06-Nov-2022\0\\#P wB
 97XD/6-311++G(d,p) scf=maxcycle=512\\_conf032.gjf nmol_natom 1_15\\0,1
 \C\C,1,1.39016191\C,1,1.39194539,2,119.895942\C,2,1.38669027,1,119.880
 75721,3,0.70825972,0\H,2,0.98744251,1,119.71654057,3,-179.90726164,0\C
 ,1,1.48428757,2,119.93615286,4,-179.87772406,0\C,3,1.40101108,1,119.72
 36454,2,-0.26266839,0\H,3,0.9902154,1,119.1886159,2,178.85397616,0\C,4
 ,1.37899003,2,120.45785903,1,-0.48041454,0\H,4,0.9834739,2,120.3044270
 6,1,179.36166981,0\O,6,1.27459751,1,118.00615353,2,70.,0\O,6,1.2636257
 2,1,118.77715367,2,-110.,0\H,7,0.98977053,3,119.37861578,1,-178.935457
 41,0\H,9,0.99498061,4,119.46722635,2,-178.58826714,0\H,11,0.89680392,6
 ,118.15823763,1,176.92714093,0\\Version=ES64L-G16RevB.01\State=1-A\HF=
 -420.7379021\RMSD=8.499e-09\Dipole=0.2069067,0.8656197,0.4462773\Quadr
 upole=5.4607989,-6.671915,1.2111161,-4.3388002,-0.0498994,-3.7648493\P
 G=C01 [X(C7H6O2)]\\@


 READER, WHETHER YOU BE DILETTANTE OR PROFESSOR ... SHOW YOURSELF TO BE
 MORE HUMAN THAN CRITICAL, AND THEN YOUR PLEASURE WILL INCREASE.
                                           -- DOMENICO SCARLATTI (1738)
 Job cpu time:       0 days  0 hours  7 minutes 23.6 seconds.
 Elapsed time:       0 days  0 hours  0 minutes 14.0 seconds.
 File lengths (MBytes):  RWF=     35 Int=      0 D2E=      0 Chk=      4 Scr=      1
 Normal termination of Gaussian 16 at Sun Nov  6 23:02:16 2022.
