 Entering Gaussian System, Link 0=g16
 Input=_conf016.gjf
 Output=_conf016.log
 Initial command:
 /opt/ap/G16/B01/g16/l1.exe "/tmp2/scr/Gau-17766.inp" -scrdir="/tmp2/scr/"
 Entering Link 1 = /opt/ap/G16/B01/g16/l1.exe PID=     17767.
  
 Copyright (c) 1988-2017, Gaussian, Inc.  All Rights Reserved.
  
 This is part of the Gaussian(R) 16 program.  It is based on
 the Gaussian(R) 09 system (copyright 2009, Gaussian, Inc.),
 the Gaussian(R) 03 system (copyright 2003, Gaussian, Inc.),
 the Gaussian(R) 98 system (copyright 1998, Gaussian, Inc.),
 the Gaussian(R) 94 system (copyright 1995, Gaussian, Inc.),
 the Gaussian 92(TM) system (copyright 1992, Gaussian, Inc.),
 the Gaussian 90(TM) system (copyright 1990, Gaussian, Inc.),
 the Gaussian 88(TM) system (copyright 1988, Gaussian, Inc.),
 the Gaussian 86(TM) system (copyright 1986, Carnegie Mellon
 University), and the Gaussian 82(TM) system (copyright 1983,
 Carnegie Mellon University). Gaussian is a federally registered
 trademark of Gaussian, Inc.
  
 This software contains proprietary and confidential information,
 including trade secrets, belonging to Gaussian, Inc.
  
 This software is provided under written license and may be
 used, copied, transmitted, or stored only in accord with that
 written license.
  
 The following legend is applicable only to US Government
 contracts under FAR:
  
                    RESTRICTED RIGHTS LEGEND
  
 Use, reproduction and disclosure by the US Government is
 subject to restrictions as set forth in subparagraphs (a)
 and (c) of the Commercial Computer Software - Restricted
 Rights clause in FAR 52.227-19.
  
 Gaussian, Inc.
 340 Quinnipiac St., Bldg. 40, Wallingford CT 06492
  
  
 ---------------------------------------------------------------
 Warning -- This program may not be used in any manner that
 competes with the business of Gaussian, Inc. or will provide
 assistance to any competitor of Gaussian, Inc.  The licensee
 of this program is prohibited from giving any competitor of
 Gaussian, Inc. access to this program.  By using this program,
 the user acknowledges that Gaussian, Inc. is engaged in the
 business of creating and licensing software in the field of
 computational chemistry and represents and warrants to the
 licensee that it is not a competitor of Gaussian, Inc. and that
 it will not use this program in any manner prohibited above.
 ---------------------------------------------------------------
  

 Cite this work as:
 Gaussian 16, Revision B.01,
 M. J. Frisch, G. W. Trucks, H. B. Schlegel, G. E. Scuseria, 
 M. A. Robb, J. R. Cheeseman, G. Scalmani, V. Barone, 
 G. A. Petersson, H. Nakatsuji, X. Li, M. Caricato, A. V. Marenich, 
 J. Bloino, B. G. Janesko, R. Gomperts, B. Mennucci, H. P. Hratchian, 
 J. V. Ortiz, A. F. Izmaylov, J. L. Sonnenberg, D. Williams-Young, 
 F. Ding, F. Lipparini, F. Egidi, J. Goings, B. Peng, A. Petrone, 
 T. Henderson, D. Ranasinghe, V. G. Zakrzewski, J. Gao, N. Rega, 
 G. Zheng, W. Liang, M. Hada, M. Ehara, K. Toyota, R. Fukuda, 
 J. Hasegawa, M. Ishida, T. Nakajima, Y. Honda, O. Kitao, H. Nakai, 
 T. Vreven, K. Throssell, J. A. Montgomery, Jr., J. E. Peralta, 
 F. Ogliaro, M. J. Bearpark, J. J. Heyd, E. N. Brothers, K. N. Kudin, 
 V. N. Staroverov, T. A. Keith, R. Kobayashi, J. Normand, 
 K. Raghavachari, A. P. Rendell, J. C. Burant, S. S. Iyengar, 
 J. Tomasi, M. Cossi, J. M. Millam, M. Klene, C. Adamo, R. Cammi, 
 J. W. Ochterski, R. L. Martin, K. Morokuma, O. Farkas, 
 J. B. Foresman, and D. J. Fox, Gaussian, Inc., Wallingford CT, 2016.
 
 ******************************************
 Gaussian 16:  ES64L-G16RevB.01 20-Dec-2017
                 6-Nov-2022 
 ******************************************
 %nprocshared=32
 Will use up to   32 processors via shared memory.
 %mem=120GB
 %chk=_conf016.chk
 ----------------------------------------
 #P wB97XD/6-311++G(d,p) scf=maxcycle=512
 ----------------------------------------
 1/38=1,172=1/1;
 2/12=2,17=6,18=5,40=1/2;
 3/5=4,6=6,7=1111,11=2,25=1,30=1,74=-58/1,2,3;
 4//1;
 5/5=2,7=512,38=5/2;
 6/7=2,8=2,9=2,10=2,28=1/1;
 99/5=1,9=1/99;
 Leave Link    1 at Sun Nov  6 23:01:06 2022, MaxMem= 16106127360 cpu:               1.8 elap:               0.1
 (Enter /opt/ap/G16/B01/g16/l101.exe)
 ----------------------------
 _conf016.gjf nmol_natom 1_15
 ----------------------------
 Symbolic Z-matrix:
 Charge =  0 Multiplicity = 1
 C
 C                    1     1.39016 
 C                    1     1.39195  2     119.89594 
 C                    2     1.38669  1     119.88076  3     0.70826  0
 H                    2     0.98744  1     119.71654  3    -179.90726  0
 C                    1     1.48429  2     119.93615  4    -179.87772  0
 C                    3     1.40101  1     119.72365  2    -0.26267  0
 H                    3     0.99022  1     119.18862  2     178.85398  0
 C                    4     1.37899  2     120.45786  1    -0.48041  0
 H                    4     0.98347  2     120.30443  1     179.36167  0
 O                    6     1.2746   1     118.00615  2    -10.      0
 O                    6     1.26363  1     118.77715  2     170.     0
 H                    7     0.98977  3     119.37862  1    -178.93546  0
 H                    9     0.99498  4     119.46723  2    -178.58827  0
 H                    11    0.8968   6     118.15824  1     176.92714  0
 
 ITRead=  0  0  0  0  0  0  0  0  0  0  0  0  0  0  0
 MicOpt= -1 -1 -1 -1 -1 -1 -1 -1 -1 -1 -1 -1 -1 -1 -1
 NAtoms=     15 NQM=       15 NQMF=       0 NMMI=      0 NMMIF=      0
                NMic=       0 NMicF=      0.
                    Isotopes and Nuclear Properties:
 (Nuclear quadrupole moments (NQMom) in fm**2, nuclear magnetic moments (NMagM)
  in nuclear magnetons)

  Atom         1           2           3           4           5           6           7           8           9          10
 IAtWgt=          12          12          12          12           1          12          12           1          12           1
 AtmWgt=  12.0000000  12.0000000  12.0000000  12.0000000   1.0078250  12.0000000  12.0000000   1.0078250  12.0000000   1.0078250
 NucSpn=           0           0           0           0           1           0           0           1           0           1
 AtZEff=  -0.0000000  -0.0000000  -0.0000000  -0.0000000  -0.0000000  -0.0000000  -0.0000000  -0.0000000  -0.0000000  -0.0000000
 NQMom=    0.0000000   0.0000000   0.0000000   0.0000000   0.0000000   0.0000000   0.0000000   0.0000000   0.0000000   0.0000000
 NMagM=    0.0000000   0.0000000   0.0000000   0.0000000   2.7928460   0.0000000   0.0000000   2.7928460   0.0000000   2.7928460
 AtZNuc=   6.0000000   6.0000000   6.0000000   6.0000000   1.0000000   6.0000000   6.0000000   1.0000000   6.0000000   1.0000000

  Atom        11          12          13          14          15
 IAtWgt=          16          16           1           1           1
 AtmWgt=  15.9949146  15.9949146   1.0078250   1.0078250   1.0078250
 NucSpn=           0           0           1           1           1
 AtZEff=  -0.0000000  -0.0000000  -0.0000000  -0.0000000  -0.0000000
 NQMom=    0.0000000   0.0000000   0.0000000   0.0000000   0.0000000
 NMagM=    0.0000000   0.0000000   2.7928460   2.7928460   2.7928460
 AtZNuc=   8.0000000   8.0000000   1.0000000   1.0000000   1.0000000
 Leave Link  101 at Sun Nov  6 23:01:06 2022, MaxMem= 16106127360 cpu:               5.1 elap:               0.2
 (Enter /opt/ap/G16/B01/g16/l202.exe)
                          Input orientation:                          
 ---------------------------------------------------------------------
 Center     Atomic      Atomic             Coordinates (Angstroms)
 Number     Number       Type             X           Y           Z
 ---------------------------------------------------------------------
      1          6           0        0.000000    0.000000    0.000000
      2          6           0        0.000000    0.000000    1.390162
      3          6           0        1.206722    0.000000   -0.693782
      4          6           0        1.202258    0.014862    2.081006
      5          1           0       -0.857581   -0.001388    1.879646
      6          6           0       -1.286190   -0.013155   -0.740711
      7          6           0        2.415349    0.005578    0.014752
      8          1           0        1.194584   -0.017290   -1.683772
      9          6           0        2.400563    0.019708    1.398617
     10          1           0        1.209438    0.024411    3.064408
     11          8           0       -2.355843   -0.219518   -0.079005
     12          8           0       -1.270995    0.179338   -1.989497
     13          1           0        3.270315    0.021574   -0.483669
     14          1           0        3.254554    0.009066    1.909081
     15          1           0       -3.137610   -0.186277   -0.517173
 ---------------------------------------------------------------------
                    Distance matrix (angstroms):
                    1          2          3          4          5
     1  C    0.000000
     2  C    1.390162   0.000000
     3  C    1.391945   2.408112   0.000000
     4  C    2.403379   1.386690   2.774832   0.000000
     5  H    2.066039   0.987443   3.299073   2.069721   0.000000
     6  C    1.484288   2.488991   2.493388   3.762345   2.655206
     7  C    2.415401   2.779513   1.401011   2.396056   3.766955
     8  H    2.064563   3.297939   0.990215   3.764924   4.112127
     9  C    2.778349   2.400659   2.409104   1.378990   3.293530
    10  H    3.294530   2.065535   3.758270   0.983474   2.382624
    11  O    2.367367   2.785073   3.621879   4.169012   2.475617
    12  O    2.367633   3.615202   2.801807   4.765818   3.895361
    13  H    3.305958   3.769173   2.074374   3.294611   4.756607
    14  H    3.773167   3.295676   3.311886   2.059493   4.112253
    15  H    3.185399   3.676578   4.351909   5.062158   3.313225
                    6          7          8          9         10
     6  C    0.000000
     7  C    3.777892   0.000000
     8  H    2.653982   2.091836   0.000000
     9  C    4.262622   1.384016   3.310118   0.000000
    10  H    4.550659   3.279477   4.748386   2.047842   0.000000
    11  O    1.274598   4.777419   3.901501   4.986380   4.759388
    12  O    1.263626   4.199564   2.492230   4.998513   5.631918
    13  H    4.563881   0.989771   2.398003   2.073517   4.103177
    14  H    5.257398   2.071897   4.141589   0.994981   2.348938
    15  H    1.872885   5.581676   4.489701   5.863791   5.636395
                   11         12         13         14         15
    11  O    0.000000
    12  O    2.232926   0.000000
    13  H    5.645842   4.787056   0.000000
    14  H    5.956616   5.975658   2.392834   0.000000
    15  H    0.896804   2.405340   6.411383   6.839929   0.000000
 Stoichiometry    C7H6O2
 Framework group  C1[X(C7H6O2)]
 Deg. of freedom    39
 Full point group                 C1      NOp   1
 Largest Abelian subgroup         C1      NOp   1
 Largest concise Abelian subgroup C1      NOp   1
                         Standard orientation:                         
 ---------------------------------------------------------------------
 Center     Atomic      Atomic             Coordinates (Angstroms)
 Number     Number       Type             X           Y           Z
 ---------------------------------------------------------------------
      1          6           0       -0.220621    0.028224    0.005653
      2          6           0        0.443931   -1.191617    0.059578
      3          6           0        0.507564    1.212657   -0.060496
      4          6           0        1.830251   -1.223561    0.062127
      5          1           0       -0.075287   -2.030299    0.105063
      6          6           0       -1.704478    0.063970    0.005605
      7          6           0        1.907842    1.167769   -0.066740
      8          1           0        0.023476    2.074707   -0.115770
      9          6           0        2.556540   -0.052900    0.001533
     10          1           0        2.306759   -2.082578    0.109576
     11          8           0       -2.329682   -1.037169   -0.140046
     12          8           0       -2.286172    1.176554    0.148916
     13          1           0        2.420638    2.013769   -0.097897
     14          1           0        3.550498   -0.093964   -0.017063
     15          1           0       -3.225422   -1.023967   -0.098425
 ---------------------------------------------------------------------
 Rotational constants (GHZ):           3.9688441           1.2361684           0.9457835
 Leave Link  202 at Sun Nov  6 23:01:06 2022, MaxMem= 16106127360 cpu:               0.3 elap:               0.0
 (Enter /opt/ap/G16/B01/g16/l301.exe)
 Standard basis: 6-311++G(d,p) (5D, 7F)
 Ernie: Thresh=  0.10000D-02 Tol=  0.10000D-05 Strict=F.
 There are   249 symmetry adapted cartesian basis functions of A   symmetry.
 There are   240 symmetry adapted basis functions of A   symmetry.
   240 basis functions,   378 primitive gaussians,   249 cartesian basis functions
    32 alpha electrons       32 beta electrons
       nuclear repulsion energy       409.5118797089 Hartrees.
 IExCor= 4639 DFT=T Ex+Corr=wB97XD ExCW=0 ScaHFX=  1.000000
 ScaDFX=  1.000000  1.000000  1.000000  1.000000 ScalE2=  1.000000  1.000000
 IRadAn=      5 IRanWt=     -1 IRanGd=            0 ICorTp=0 IEmpDi=121
 HFx  wShort=  0.000000 wLong=  0.200000 cFull=  0.222036 cShort=  0.000000 cLong=  0.777964
 DFx  wShort=  0.000000 wLong=  0.200000 cFull=  0.000000 cShort=  0.000000 cLong=  1.000000
 NAtoms=   15 NActive=   15 NUniq=   15 SFac= 1.00D+00 NAtFMM=   60 NAOKFM=F Big=F
 Integral buffers will be    131072 words long.
 Raffenetti 2 integral format.
 Two-electron integral symmetry is turned on.
 R6Disp:  Grimme-D2 Dispersion energy=       -0.0063347959 Hartrees.
 Nuclear repulsion after empirical dispersion term =      409.5055449130 Hartrees.
 Leave Link  301 at Sun Nov  6 23:01:06 2022, MaxMem= 16106127360 cpu:               1.1 elap:               0.0
 (Enter /opt/ap/G16/B01/g16/l302.exe)
 NPDir=0 NMtPBC=     1 NCelOv=     1 NCel=       1 NClECP=     1 NCelD=      1
         NCelK=      1 NCelE2=     1 NClLst=     1 CellRange=     0.0.
 One-electron integrals computed using PRISM.
 One-electron integral symmetry used in STVInt
 NBasis=   240 RedAO= T EigKep=  1.22D-06  NBF=   240
 NBsUse=   240 1.00D-06 EigRej= -1.00D+00 NBFU=   240
 Precomputing XC quadrature grid using
 IXCGrd= 4 IRadAn=           5 IRanWt=          -1 IRanGd=           0 AccXCQ= 0.00D+00.
 Generated NRdTot=       0 NPtTot=           0 NUsed=           0 NTot=          32
 NSgBfM=   249   249   249   249   249 MxSgAt=    15 MxSgA2=    15.
 Leave Link  302 at Sun Nov  6 23:01:07 2022, MaxMem= 16106127360 cpu:               5.4 elap:               0.2
 (Enter /opt/ap/G16/B01/g16/l303.exe)
 DipDrv:  MaxL=1.
 Leave Link  303 at Sun Nov  6 23:01:07 2022, MaxMem= 16106127360 cpu:               1.2 elap:               0.0
 (Enter /opt/ap/G16/B01/g16/l401.exe)
 ExpMin= 3.60D-02 ExpMax= 8.59D+03 ExpMxC= 1.30D+03 IAcc=3 IRadAn=         5 AccDes= 0.00D+00
 Harris functional with IExCor= 4639 and IRadAn=       5 diagonalized for initial guess.
 HarFok:  IExCor= 4639 AccDes= 0.00D+00 IRadAn=         5 IDoV= 1 UseB2=F ITyADJ=14
 ICtDFT=  3500011 ScaDFX=  1.000000  1.000000  1.000000  1.000000
 FoFCou: FMM=F IPFlag=           0 FMFlag=      100000 FMFlg1=           0
         NFxFlg=           0 DoJE=T BraDBF=F KetDBF=T FulRan=T
         wScrn=  0.000000 ICntrl=       500 IOpCl=  0 I1Cent=   200000004 NGrid=           0
         NMat0=    1 NMatS0=      1 NMatT0=    0 NMatD0=    1 NMtDS0=    0 NMtDT0=    0
 Petite list used in FoFCou.
 Harris En= -403.254727801828    
 JPrj=0 DoOrth=F DoCkMO=F.
 Leave Link  401 at Sun Nov  6 23:01:07 2022, MaxMem= 16106127360 cpu:              11.7 elap:               0.4
 (Enter /opt/ap/G16/B01/g16/l502.exe)
 Integral symmetry usage will be decided dynamically.
 Closed shell SCF:
 Using DIIS extrapolation, IDIIS=  1040.
 NGot= 16106127360 LenX= 16105992971 LenY= 16105930529
 Requested convergence on RMS density matrix=1.00D-08 within 512 cycles.
 Requested convergence on MAX density matrix=1.00D-06.
 Requested convergence on             energy=1.00D-06.
 No special actions if energy rises.
 Fock matrices will be formed incrementally for  20 cycles.

 Cycle   1  Pass 1  IDiag  1:
 FoFJK:  IHMeth= 1 ICntrl=       0 DoSepK=T KAlg= 0 I1Cent=           0 FoldK=F
 IRaf=         1 NMat=       1 IRICut=       1 DoRegI=T DoRafI=F ISym2E= 0 IDoP0=0 IntGTp=1.
 FoFCou: FMM=F IPFlag=           0 FMFlag=      100000 FMFlg1=           0
         NFxFlg=           0 DoJE=T BraDBF=F KetDBF=F FulRan=T
         wScrn=  0.000000 ICntrl=       500 IOpCl=  0 I1Cent=           0 NGrid=           0
         NMat0=    1 NMatS0=      1 NMatT0=    0 NMatD0=    1 NMtDS0=    0 NMtDT0=    0
 Symmetry not used in FoFCou.
 E= -420.632524886448    
 DIIS: error= 8.10D-02 at cycle   1 NSaved=   1.
 NSaved= 1 IEnMin= 1 EnMin= -420.632524886448     IErMin= 1 ErrMin= 8.10D-02
 ErrMax= 8.10D-02  0.00D+00 EMaxC= 1.00D-01 BMatC= 8.61D-01 BMatP= 8.61D-01
 IDIUse=3 WtCom= 1.90D-01 WtEn= 8.10D-01
 Coeff-Com:  0.100D+01
 Coeff-En:   0.100D+01
 Coeff:      0.100D+01
 Gap=     0.426 Goal=   None    Shift=    0.000
 GapD=    0.426 DampG=2.000 DampE=0.500 DampFc=1.0000 IDamp=-1.
 RMSDP=2.79D-02 MaxDP=2.18D+00              OVMax= 1.10D-01

 Cycle   2  Pass 1  IDiag  1:
 RMSU=  1.42D-02    CP:  6.91D-01
 E= -420.703314364225     Delta-E=       -0.070789477776 Rises=F Damp=F
 DIIS: error= 1.48D-02 at cycle   2 NSaved=   2.
 NSaved= 2 IEnMin= 2 EnMin= -420.703314364225     IErMin= 2 ErrMin= 1.48D-02
 ErrMax= 1.48D-02  0.00D+00 EMaxC= 1.00D-01 BMatC= 5.73D-02 BMatP= 8.61D-01
 IDIUse=3 WtCom= 8.52D-01 WtEn= 1.48D-01
 Coeff-Com:  0.135D+00 0.865D+00
 Coeff-En:   0.987D-01 0.901D+00
 Coeff:      0.130D+00 0.870D+00
 Gap=     0.425 Goal=   None    Shift=    0.000
 RMSDP=7.40D-03 MaxDP=3.13D-01 DE=-7.08D-02 OVMax= 7.96D-02

 Cycle   3  Pass 1  IDiag  1:
 RMSU=  6.48D-03    CP:  6.82D-01  7.55D-01
 E= -420.719516058853     Delta-E=       -0.016201694628 Rises=F Damp=F
 DIIS: error= 1.59D-02 at cycle   3 NSaved=   3.
 NSaved= 3 IEnMin= 3 EnMin= -420.719516058853     IErMin= 2 ErrMin= 1.48D-02
 ErrMax= 1.59D-02  0.00D+00 EMaxC= 1.00D-01 BMatC= 3.60D-02 BMatP= 5.73D-02
 IDIUse=3 WtCom= 8.41D-01 WtEn= 1.59D-01
 Coeff-Com:  0.276D-01 0.447D+00 0.525D+00
 Coeff-En:   0.000D+00 0.384D+00 0.616D+00
 Coeff:      0.232D-01 0.437D+00 0.540D+00
 Gap=     0.359 Goal=   None    Shift=    0.000
 RMSDP=3.95D-03 MaxDP=3.55D-01 DE=-1.62D-02 OVMax= 5.40D-02

 Cycle   4  Pass 1  IDiag  1:
 RMSU=  2.07D-03    CP:  6.52D-01  8.63D-01  7.05D-01
 E= -420.745628328700     Delta-E=       -0.026112269847 Rises=F Damp=F
 DIIS: error= 2.94D-03 at cycle   4 NSaved=   4.
 NSaved= 4 IEnMin= 4 EnMin= -420.745628328700     IErMin= 4 ErrMin= 2.94D-03
 ErrMax= 2.94D-03  0.00D+00 EMaxC= 1.00D-01 BMatC= 1.97D-03 BMatP= 3.60D-02
 IDIUse=3 WtCom= 9.71D-01 WtEn= 2.94D-02
 Coeff-Com:  0.105D-01 0.222D+00 0.305D+00 0.463D+00
 Coeff-En:   0.000D+00 0.000D+00 0.000D+00 0.100D+01
 Coeff:      0.102D-01 0.215D+00 0.296D+00 0.479D+00
 Gap=     0.354 Goal=   None    Shift=    0.000
 RMSDP=8.24D-04 MaxDP=4.84D-02 DE=-2.61D-02 OVMax= 1.25D-02

 Cycle   5  Pass 1  IDiag  1:
 RMSU=  6.74D-04    CP:  6.50D-01  8.50D-01  7.46D-01  8.48D-01
 E= -420.746959989569     Delta-E=       -0.001331660869 Rises=F Damp=F
 DIIS: error= 5.63D-04 at cycle   5 NSaved=   5.
 NSaved= 5 IEnMin= 5 EnMin= -420.746959989569     IErMin= 5 ErrMin= 5.63D-04
 ErrMax= 5.63D-04  0.00D+00 EMaxC= 1.00D-01 BMatC= 5.28D-05 BMatP= 1.97D-03
 IDIUse=3 WtCom= 9.94D-01 WtEn= 5.63D-03
 Coeff-Com:  0.314D-03 0.153D-01 0.304D-01 0.153D+00 0.801D+00
 Coeff-En:   0.000D+00 0.000D+00 0.000D+00 0.000D+00 0.100D+01
 Coeff:      0.313D-03 0.152D-01 0.303D-01 0.152D+00 0.802D+00
 Gap=     0.350 Goal=   None    Shift=    0.000
 RMSDP=2.32D-04 MaxDP=1.25D-02 DE=-1.33D-03 OVMax= 2.55D-03

 Cycle   6  Pass 1  IDiag  1:
 RMSU=  1.30D-04    CP:  6.49D-01  8.53D-01  7.63D-01  8.90D-01  1.00D+00
 E= -420.747000772016     Delta-E=       -0.000040782447 Rises=F Damp=F
 DIIS: error= 2.15D-04 at cycle   6 NSaved=   6.
 NSaved= 6 IEnMin= 6 EnMin= -420.747000772016     IErMin= 6 ErrMin= 2.15D-04
 ErrMax= 2.15D-04  0.00D+00 EMaxC= 1.00D-01 BMatC= 7.37D-06 BMatP= 5.28D-05
 IDIUse=3 WtCom= 9.98D-01 WtEn= 2.15D-03
 Coeff-Com: -0.961D-03-0.165D-01-0.179D-01 0.147D-01 0.347D+00 0.674D+00
 Coeff-En:   0.000D+00 0.000D+00 0.000D+00 0.000D+00 0.000D+00 0.100D+01
 Coeff:     -0.959D-03-0.165D-01-0.178D-01 0.147D-01 0.346D+00 0.675D+00
 Gap=     0.350 Goal=   None    Shift=    0.000
 RMSDP=1.62D-04 MaxDP=1.62D-02 DE=-4.08D-05 OVMax= 8.10D-04

 Cycle   7  Pass 1  IDiag  1:
 RMSU=  5.13D-05    CP:  6.47D-01  8.52D-01  7.71D-01  9.10D-01  1.07D+00
                    CP:  1.09D+00
 E= -420.747007922139     Delta-E=       -0.000007150123 Rises=F Damp=F
 DIIS: error= 6.64D-05 at cycle   7 NSaved=   7.
 NSaved= 7 IEnMin= 7 EnMin= -420.747007922139     IErMin= 7 ErrMin= 6.64D-05
 ErrMax= 6.64D-05  0.00D+00 EMaxC= 1.00D-01 BMatC= 3.11D-07 BMatP= 7.37D-06
 IDIUse=1 WtCom= 1.00D+00 WtEn= 0.00D+00
 Coeff-Com: -0.234D-03-0.544D-02-0.681D-02-0.134D-01-0.500D-03 0.134D+00
 Coeff-Com:  0.892D+00
 Coeff:     -0.234D-03-0.544D-02-0.681D-02-0.134D-01-0.500D-03 0.134D+00
 Coeff:      0.892D+00
 Gap=     0.350 Goal=   None    Shift=    0.000
 RMSDP=4.56D-05 MaxDP=3.18D-03 DE=-7.15D-06 OVMax= 3.15D-04

 Cycle   8  Pass 1  IDiag  1:
 RMSU=  1.30D-05    CP:  6.47D-01  8.51D-01  7.75D-01  9.14D-01  1.11D+00
                    CP:  1.14D+00  1.09D+00
 E= -420.747008494179     Delta-E=       -0.000000572040 Rises=F Damp=F
 DIIS: error= 1.37D-05 at cycle   8 NSaved=   8.
 NSaved= 8 IEnMin= 8 EnMin= -420.747008494179     IErMin= 8 ErrMin= 1.37D-05
 ErrMax= 1.37D-05  0.00D+00 EMaxC= 1.00D-01 BMatC= 4.10D-08 BMatP= 3.11D-07
 IDIUse=1 WtCom= 1.00D+00 WtEn= 0.00D+00
 Coeff-Com:  0.312D-04 0.272D-03 0.161D-03-0.579D-02-0.377D-01-0.376D-01
 Coeff-Com:  0.240D+00 0.840D+00
 Coeff:      0.312D-04 0.272D-03 0.161D-03-0.579D-02-0.377D-01-0.376D-01
 Coeff:      0.240D+00 0.840D+00
 Gap=     0.350 Goal=   None    Shift=    0.000
 RMSDP=1.29D-05 MaxDP=8.06D-04 DE=-5.72D-07 OVMax= 1.16D-04

 Cycle   9  Pass 1  IDiag  1:
 RMSU=  4.43D-06    CP:  6.47D-01  8.51D-01  7.75D-01  9.13D-01  1.12D+00
                    CP:  1.17D+00  1.21D+00  1.09D+00
 E= -420.747008566331     Delta-E=       -0.000000072152 Rises=F Damp=F
 DIIS: error= 1.03D-05 at cycle   9 NSaved=   9.
 NSaved= 9 IEnMin= 9 EnMin= -420.747008566331     IErMin= 9 ErrMin= 1.03D-05
 ErrMax= 1.03D-05  0.00D+00 EMaxC= 1.00D-01 BMatC= 4.65D-09 BMatP= 4.10D-08
 IDIUse=1 WtCom= 1.00D+00 WtEn= 0.00D+00
 Coeff-Com:  0.366D-04 0.701D-03 0.856D-03-0.299D-03-0.101D-01-0.265D-01
 Coeff-Com: -0.282D-01 0.247D+00 0.816D+00
 Coeff:      0.366D-04 0.701D-03 0.856D-03-0.299D-03-0.101D-01-0.265D-01
 Coeff:     -0.282D-01 0.247D+00 0.816D+00
 Gap=     0.350 Goal=   None    Shift=    0.000
 RMSDP=4.51D-06 MaxDP=3.00D-04 DE=-7.22D-08 OVMax= 4.63D-05

 Cycle  10  Pass 1  IDiag  1:
 RMSU=  1.58D-06    CP:  6.47D-01  8.51D-01  7.75D-01  9.12D-01  1.12D+00
                    CP:  1.17D+00  1.24D+00  1.16D+00  1.33D+00
 E= -420.747008574595     Delta-E=       -0.000000008264 Rises=F Damp=F
 DIIS: error= 1.48D-06 at cycle  10 NSaved=  10.
 NSaved=10 IEnMin=10 EnMin= -420.747008574595     IErMin=10 ErrMin= 1.48D-06
 ErrMax= 1.48D-06  0.00D+00 EMaxC= 1.00D-01 BMatC= 5.69D-10 BMatP= 4.65D-09
 IDIUse=1 WtCom= 1.00D+00 WtEn= 0.00D+00
 Coeff-Com:  0.629D-05 0.140D-03 0.197D-03 0.423D-03 0.135D-02-0.373D-02
 Coeff-Com: -0.302D-01-0.270D-01 0.224D+00 0.835D+00
 Coeff:      0.629D-05 0.140D-03 0.197D-03 0.423D-03 0.135D-02-0.373D-02
 Coeff:     -0.302D-01-0.270D-01 0.224D+00 0.835D+00
 Gap=     0.350 Goal=   None    Shift=    0.000
 RMSDP=1.59D-06 MaxDP=8.26D-05 DE=-8.26D-09 OVMax= 1.31D-05

 Cycle  11  Pass 1  IDiag  1:
 RMSU=  4.55D-07    CP:  6.47D-01  8.51D-01  7.75D-01  9.12D-01  1.12D+00
                    CP:  1.17D+00  1.25D+00  1.20D+00  1.45D+00  1.16D+00
 E= -420.747008575517     Delta-E=       -0.000000000921 Rises=F Damp=F
 DIIS: error= 1.02D-06 at cycle  11 NSaved=  11.
 NSaved=11 IEnMin=11 EnMin= -420.747008575517     IErMin=11 ErrMin= 1.02D-06
 ErrMax= 1.02D-06  0.00D+00 EMaxC= 1.00D-01 BMatC= 1.03D-10 BMatP= 5.69D-10
 IDIUse=1 WtCom= 1.00D+00 WtEn= 0.00D+00
 Coeff-Com: -0.149D-05-0.115D-04 0.116D-05 0.242D-03 0.189D-02 0.136D-02
 Coeff-Com: -0.835D-02-0.459D-01-0.134D-01 0.337D+00 0.727D+00
 Coeff:     -0.149D-05-0.115D-04 0.116D-05 0.242D-03 0.189D-02 0.136D-02
 Coeff:     -0.835D-02-0.459D-01-0.134D-01 0.337D+00 0.727D+00
 Gap=     0.350 Goal=   None    Shift=    0.000
 RMSDP=6.15D-07 MaxDP=3.57D-05 DE=-9.21D-10 OVMax= 6.36D-06

 Cycle  12  Pass 1  IDiag  1:
 RMSU=  1.73D-07    CP:  6.47D-01  8.51D-01  7.75D-01  9.12D-01  1.12D+00
                    CP:  1.17D+00  1.25D+00  1.20D+00  1.51D+00  1.27D+00
                    CP:  1.04D+00
 E= -420.747008575651     Delta-E=       -0.000000000135 Rises=F Damp=F
 DIIS: error= 2.12D-07 at cycle  12 NSaved=  12.
 NSaved=12 IEnMin=12 EnMin= -420.747008575651     IErMin=12 ErrMin= 2.12D-07
 ErrMax= 2.12D-07  0.00D+00 EMaxC= 1.00D-01 BMatC= 7.76D-12 BMatP= 1.03D-10
 IDIUse=1 WtCom= 1.00D+00 WtEn= 0.00D+00
 Coeff-Com: -0.959D-06-0.152D-04-0.157D-04 0.375D-04 0.446D-03 0.586D-03
 Coeff-Com:  0.677D-03-0.114D-01-0.220D-01 0.242D-01 0.199D+00 0.808D+00
 Coeff:     -0.959D-06-0.152D-04-0.157D-04 0.375D-04 0.446D-03 0.586D-03
 Coeff:      0.677D-03-0.114D-01-0.220D-01 0.242D-01 0.199D+00 0.808D+00
 Gap=     0.350 Goal=   None    Shift=    0.000
 RMSDP=1.45D-07 MaxDP=7.16D-06 DE=-1.35D-10 OVMax= 2.18D-06

 Cycle  13  Pass 1  IDiag  1:
 RMSU=  7.46D-08    CP:  6.47D-01  8.51D-01  7.75D-01  9.12D-01  1.12D+00
                    CP:  1.17D+00  1.25D+00  1.20D+00  1.52D+00  1.29D+00
                    CP:  1.13D+00  1.05D+00
 E= -420.747008575668     Delta-E=       -0.000000000017 Rises=F Damp=F
 DIIS: error= 1.15D-07 at cycle  13 NSaved=  13.
 NSaved=13 IEnMin=13 EnMin= -420.747008575668     IErMin=13 ErrMin= 1.15D-07
 ErrMax= 1.15D-07  0.00D+00 EMaxC= 1.00D-01 BMatC= 1.39D-12 BMatP= 7.76D-12
 IDIUse=1 WtCom= 1.00D+00 WtEn= 0.00D+00
 Coeff-Com:  0.349D-08-0.392D-05-0.693D-05-0.346D-04-0.215D-03-0.102D-03
 Coeff-Com:  0.189D-02 0.462D-02-0.329D-02-0.551D-01-0.881D-01 0.240D+00
 Coeff-Com:  0.901D+00
 Coeff:      0.349D-08-0.392D-05-0.693D-05-0.346D-04-0.215D-03-0.102D-03
 Coeff:      0.189D-02 0.462D-02-0.329D-02-0.551D-01-0.881D-01 0.240D+00
 Coeff:      0.901D+00
 Gap=     0.350 Goal=   None    Shift=    0.000
 RMSDP=5.69D-08 MaxDP=3.66D-06 DE=-1.69D-11 OVMax= 1.25D-06

 Cycle  14  Pass 1  IDiag  1:
 RMSU=  2.09D-08    CP:  6.47D-01  8.51D-01  7.75D-01  9.12D-01  1.12D+00
                    CP:  1.17D+00  1.25D+00  1.20D+00  1.52D+00  1.29D+00
                    CP:  1.17D+00  1.17D+00  1.22D+00
 E= -420.747008575675     Delta-E=       -0.000000000007 Rises=F Damp=F
 DIIS: error= 5.12D-08 at cycle  14 NSaved=  14.
 NSaved=14 IEnMin=14 EnMin= -420.747008575675     IErMin=14 ErrMin= 5.12D-08
 ErrMax= 5.12D-08  0.00D+00 EMaxC= 1.00D-01 BMatC= 1.12D-13 BMatP= 1.39D-12
 IDIUse=1 WtCom= 1.00D+00 WtEn= 0.00D+00
 Coeff-Com:  0.548D-07 0.936D-06 0.101D-05-0.406D-05-0.580D-04-0.402D-04
 Coeff-Com:  0.251D-04 0.118D-02 0.199D-02-0.574D-02-0.234D-01-0.631D-01
 Coeff-Com:  0.362D-01 0.105D+01
 Coeff:      0.548D-07 0.936D-06 0.101D-05-0.406D-05-0.580D-04-0.402D-04
 Coeff:      0.251D-04 0.118D-02 0.199D-02-0.574D-02-0.234D-01-0.631D-01
 Coeff:      0.362D-01 0.105D+01
 Gap=     0.350 Goal=   None    Shift=    0.000
 RMSDP=2.62D-08 MaxDP=2.06D-06 DE=-7.05D-12 OVMax= 5.37D-07

 Cycle  15  Pass 1  IDiag  1:
 RMSU=  7.28D-09    CP:  6.47D-01  8.51D-01  7.75D-01  9.12D-01  1.12D+00
                    CP:  1.17D+00  1.25D+00  1.20D+00  1.52D+00  1.29D+00
                    CP:  1.17D+00  1.18D+00  1.39D+00  1.34D+00
 E= -420.747008575675     Delta-E=       -0.000000000000 Rises=F Damp=F
 DIIS: error= 3.01D-08 at cycle  15 NSaved=  15.
 NSaved=15 IEnMin=15 EnMin= -420.747008575675     IErMin=15 ErrMin= 3.01D-08
 ErrMax= 3.01D-08  0.00D+00 EMaxC= 1.00D-01 BMatC= 2.92D-14 BMatP= 1.12D-13
 IDIUse=1 WtCom= 1.00D+00 WtEn= 0.00D+00
 Coeff-Com:  0.152D-07 0.914D-06 0.149D-05 0.427D-05 0.126D-04 0.732D-05
 Coeff-Com: -0.282D-03-0.294D-03 0.133D-02 0.671D-02 0.582D-02-0.533D-01
 Coeff-Com: -0.127D+00 0.366D+00 0.801D+00
 Coeff:      0.152D-07 0.914D-06 0.149D-05 0.427D-05 0.126D-04 0.732D-05
 Coeff:     -0.282D-03-0.294D-03 0.133D-02 0.671D-02 0.582D-02-0.533D-01
 Coeff:     -0.127D+00 0.366D+00 0.801D+00
 Gap=     0.350 Goal=   None    Shift=    0.000
 RMSDP=8.04D-09 MaxDP=4.15D-07 DE=-2.27D-13 OVMax= 1.76D-07

 SCF Done:  E(RwB97XD) =  -420.747008576     A.U. after   15 cycles
            NFock= 15  Conv=0.80D-08     -V/T= 2.0015
 KE= 4.201205874266D+02 PE=-1.802520189180D+03 EE= 5.521470482642D+02
 Leave Link  502 at Sun Nov  6 23:01:20 2022, MaxMem= 16106127360 cpu:             409.2 elap:              12.8
 (Enter /opt/ap/G16/B01/g16/l601.exe)
 Copying SCF densities to generalized density rwf, IOpCl= 0 IROHF=0.

 **********************************************************************

            Population analysis using the SCF Density.

 **********************************************************************

 Orbital symmetries:
       Occupied  (A) (A) (A) (A) (A) (A) (A) (A) (A) (A) (A) (A)
                 (A) (A) (A) (A) (A) (A) (A) (A) (A) (A) (A) (A)
                 (A) (A) (A) (A) (A) (A) (A) (A)
       Virtual   (A) (A) (A) (A) (A) (A) (A) (A) (A) (A) (A) (A)
                 (A) (A) (A) (A) (A) (A) (A) (A) (A) (A) (A) (A)
                 (A) (A) (A) (A) (A) (A) (A) (A) (A) (A) (A) (A)
                 (A) (A) (A) (A) (A) (A) (A) (A) (A) (A) (A) (A)
                 (A) (A) (A) (A) (A) (A) (A) (A) (A) (A) (A) (A)
                 (A) (A) (A) (A) (A) (A) (A) (A) (A) (A) (A) (A)
                 (A) (A) (A) (A) (A) (A) (A) (A) (A) (A) (A) (A)
                 (A) (A) (A) (A) (A) (A) (A) (A) (A) (A) (A) (A)
                 (A) (A) (A) (A) (A) (A) (A) (A) (A) (A) (A) (A)
                 (A) (A) (A) (A) (A) (A) (A) (A) (A) (A) (A) (A)
                 (A) (A) (A) (A) (A) (A) (A) (A) (A) (A) (A) (A)
                 (A) (A) (A) (A) (A) (A) (A) (A) (A) (A) (A) (A)
                 (A) (A) (A) (A) (A) (A) (A) (A) (A) (A) (A) (A)
                 (A) (A) (A) (A) (A) (A) (A) (A) (A) (A) (A) (A)
                 (A) (A) (A) (A) (A) (A) (A) (A) (A) (A) (A) (A)
                 (A) (A) (A) (A) (A) (A) (A) (A) (A) (A) (A) (A)
                 (A) (A) (A) (A) (A) (A) (A) (A) (A) (A) (A) (A)
                 (A) (A) (A) (A)
 The electronic state is 1-A.
 Alpha  occ. eigenvalues --  -19.31657 -19.22780 -10.43165 -10.31056 -10.29318
 Alpha  occ. eigenvalues --  -10.29315 -10.29167 -10.28988 -10.28730  -1.25793
 Alpha  occ. eigenvalues --   -1.10608  -0.98073  -0.88922  -0.87012  -0.80559
 Alpha  occ. eigenvalues --   -0.73377  -0.71915  -0.65820  -0.60669  -0.58586
 Alpha  occ. eigenvalues --   -0.56849  -0.56087  -0.54502  -0.53460  -0.48906
 Alpha  occ. eigenvalues --   -0.47397  -0.45560  -0.44746  -0.41015  -0.36206
 Alpha  occ. eigenvalues --   -0.34619  -0.34265
 Alpha virt. eigenvalues --    0.00764   0.03748   0.04305   0.04535   0.05289
 Alpha virt. eigenvalues --    0.06462   0.07786   0.08693   0.10181   0.11344
 Alpha virt. eigenvalues --    0.11931   0.12927   0.13372   0.14396   0.14674
 Alpha virt. eigenvalues --    0.16004   0.16325   0.16943   0.17467   0.17963
 Alpha virt. eigenvalues --    0.18176   0.19519   0.20068   0.20192   0.20506
 Alpha virt. eigenvalues --    0.21148   0.21576   0.21600   0.23217   0.23676
 Alpha virt. eigenvalues --    0.25466   0.26257   0.26991   0.27972   0.28875
 Alpha virt. eigenvalues --    0.29436   0.29994   0.30629   0.30812   0.31822
 Alpha virt. eigenvalues --    0.32143   0.33942   0.34450   0.35271   0.36010
 Alpha virt. eigenvalues --    0.36673   0.37013   0.38164   0.39774   0.40815
 Alpha virt. eigenvalues --    0.41674   0.42276   0.43898   0.44527   0.45206
 Alpha virt. eigenvalues --    0.46660   0.48762   0.53902   0.54901   0.57547
 Alpha virt. eigenvalues --    0.60200   0.60814   0.61951   0.63958   0.64202
 Alpha virt. eigenvalues --    0.64434   0.65167   0.66753   0.67580   0.69100
 Alpha virt. eigenvalues --    0.70379   0.72679   0.73045   0.74065   0.75673
 Alpha virt. eigenvalues --    0.76674   0.81354   0.82696   0.83927   0.86215
 Alpha virt. eigenvalues --    0.88493   0.91242   0.92882   0.93783   0.94421
 Alpha virt. eigenvalues --    0.96240   0.96474   0.97352   0.99803   1.00545
 Alpha virt. eigenvalues --    1.03081   1.05177   1.08086   1.09088   1.11889
 Alpha virt. eigenvalues --    1.14074   1.15768   1.16290   1.17784   1.17996
 Alpha virt. eigenvalues --    1.21633   1.22189   1.24202   1.28779   1.31079
 Alpha virt. eigenvalues --    1.34337   1.36766   1.43939   1.45207   1.56431
 Alpha virt. eigenvalues --    1.57105   1.59474   1.60389   1.60891   1.62236
 Alpha virt. eigenvalues --    1.62286   1.66002   1.67034   1.67397   1.74606
 Alpha virt. eigenvalues --    1.75100   1.78393   1.80259   1.82658   1.87587
 Alpha virt. eigenvalues --    1.88387   1.91427   1.91710   1.96174   1.99542
 Alpha virt. eigenvalues --    2.00270   2.02306   2.03506   2.05101   2.05757
 Alpha virt. eigenvalues --    2.06603   2.11577   2.15024   2.17822   2.19551
 Alpha virt. eigenvalues --    2.23231   2.28445   2.31641   2.42843   2.46022
 Alpha virt. eigenvalues --    2.52048   2.54552   2.54657   2.58011   2.64074
 Alpha virt. eigenvalues --    2.72398   2.72496   2.75150   2.76514   2.81350
 Alpha virt. eigenvalues --    2.81756   2.83259   2.88325   2.89569   2.90532
 Alpha virt. eigenvalues --    2.90663   2.91794   2.95608   2.99911   3.00710
 Alpha virt. eigenvalues --    3.01943   3.06451   3.06976   3.15431   3.18431
 Alpha virt. eigenvalues --    3.19004   3.23391   3.27820   3.31280   3.33576
 Alpha virt. eigenvalues --    3.42673   3.43720   3.48330   3.49580   3.64003
 Alpha virt. eigenvalues --    3.66252   3.69712   3.74370   3.84205   3.87784
 Alpha virt. eigenvalues --    4.08000   4.16694   4.28393   4.30794   4.36700
 Alpha virt. eigenvalues --    4.40877   4.45901   4.95086   5.05652   5.15576
 Alpha virt. eigenvalues --    5.30157   5.49315   5.82263   6.09193  23.84251
 Alpha virt. eigenvalues --   23.94360  24.14185  24.21376  24.28355  24.30427
 Alpha virt. eigenvalues --   24.41837  50.03860  50.16121
          Condensed to atoms (all electrons):
               1          2          3          4          5          6
     1  C   11.431489  -3.038068  -1.860038   2.272818  -0.065466  -2.761720
     2  C   -3.038068  17.318644  -1.654625  -5.819368   0.744991  -0.939820
     3  C   -1.860038  -1.654625  11.715386  -0.073086  -0.023531  -0.571564
     4  C    2.272818  -5.819368  -0.073086   9.286181  -0.212009  -0.136639
     5  H   -0.065466   0.744991  -0.023531  -0.212009   0.472321  -0.094045
     6  C   -2.761720  -0.939820  -0.571564  -0.136639  -0.094045   9.125218
     7  C    0.724765  -1.155507  -2.157866   1.067402  -0.016203   0.474553
     8  H    0.019699   0.075944   0.475354  -0.028724   0.000912  -0.094987
     9  C   -1.273710   1.821047   0.914175  -0.972401   0.037959  -0.180026
    10  H    0.051078  -0.173153   0.020050   0.468866  -0.012556   0.016453
    11  O   -0.260564  -0.236708  -0.048780   0.102393  -0.039048   0.474523
    12  O   -0.161469  -0.104353  -0.039793   0.067754  -0.006118   0.551090
    13  H    0.013687  -0.019051  -0.084097   0.007506   0.000069   0.026235
    14  H    0.008637   0.029055   0.006857  -0.061355   0.000876  -0.015628
    15  H   -0.074114  -0.006099   0.010934  -0.025093   0.003203   0.077015
               7          8          9         10         11         12
     1  C    0.724765   0.019699  -1.273710   0.051078  -0.260564  -0.161469
     2  C   -1.155507   0.075944   1.821047  -0.173153  -0.236708  -0.104353
     3  C   -2.157866   0.475354   0.914175   0.020050  -0.048780  -0.039793
     4  C    1.067402  -0.028724  -0.972401   0.468866   0.102393   0.067754
     5  H   -0.016203   0.000912   0.037959  -0.012556  -0.039048  -0.006118
     6  C    0.474553  -0.094987  -0.180026   0.016453   0.474523   0.551090
     7  C    7.349065  -0.109717  -0.714793   0.000358   0.065395   0.104034
     8  H   -0.109717   0.436817   0.031898  -0.000055  -0.005806  -0.009288
     9  C   -0.714793   0.031898   6.498023  -0.046276  -0.039036  -0.026120
    10  H    0.000358  -0.000055  -0.046276   0.473842   0.003078   0.000767
    11  O    0.065395  -0.005806  -0.039036   0.003078   8.005450  -0.124538
    12  O    0.104034  -0.009288  -0.026120   0.000767  -0.124538   8.092795
    13  H    0.431498  -0.010523  -0.037834  -0.000874   0.001137   0.001880
    14  H   -0.047652   0.001181   0.435352  -0.007613  -0.000608  -0.000441
    15  H    0.011600  -0.000892  -0.003545  -0.000105   0.275184  -0.012044
              13         14         15
     1  C    0.013687   0.008637  -0.074114
     2  C   -0.019051   0.029055  -0.006099
     3  C   -0.084097   0.006857   0.010934
     4  C    0.007506  -0.061355  -0.025093
     5  H    0.000069   0.000876   0.003203
     6  C    0.026235  -0.015628   0.077015
     7  C    0.431498  -0.047652   0.011600
     8  H   -0.010523   0.001181  -0.000892
     9  C   -0.037834   0.435352  -0.003545
    10  H   -0.000874  -0.007613  -0.000105
    11  O    0.001137  -0.000608   0.275184
    12  O    0.001880  -0.000441  -0.012044
    13  H    0.465610  -0.007490   0.000227
    14  H   -0.007490   0.470672  -0.000156
    15  H    0.000227  -0.000156   0.405080
 Mulliken charges:
               1
     1  C    0.972975
     2  C   -0.842928
     3  C   -0.629376
     4  C    0.055755
     5  H    0.208646
     6  C    0.049342
     7  C   -0.026932
     8  H    0.218187
     9  C   -0.444714
    10  H    0.206139
    11  O   -0.172074
    12  O   -0.334157
    13  H    0.212022
    14  H    0.188311
    15  H    0.338804
 Sum of Mulliken charges =  -0.00000
 Mulliken charges with hydrogens summed into heavy atoms:
               1
     1  C    0.972975
     2  C   -0.634282
     3  C   -0.411189
     4  C    0.261894
     6  C    0.049342
     7  C    0.185090
     9  C   -0.256403
    11  O    0.166731
    12  O   -0.334157
 Electronic spatial extent (au):  <R**2>=           1158.2254
 Charge=              0.0000 electrons
 Dipole moment (field-independent basis, Debye):
    X=              1.3421    Y=             -2.2928    Z=             -0.2415  Tot=              2.6677
 Quadrupole moment (field-independent basis, Debye-Ang):
   XX=            -43.3950   YY=            -49.8772   ZZ=            -54.2290
   XY=              8.0349   XZ=              0.7273   YZ=             -1.1298
 Traceless Quadrupole moment (field-independent basis, Debye-Ang):
   XX=              5.7721   YY=             -0.7102   ZZ=             -5.0619
   XY=              8.0349   XZ=              0.7273   YZ=             -1.1298
 Octapole moment (field-independent basis, Debye-Ang**2):
  XXX=            -21.3138  YYY=             -4.1078  ZZZ=             -0.1854  XYY=              7.2177
  XXY=            -26.4292  XXZ=             -2.5918  XZZ=            -11.0426  YZZ=             -0.4261
  YYZ=             -0.4073  XYZ=              0.8967
 Hexadecapole moment (field-independent basis, Debye-Ang**3):
 XXXX=           -873.1075 YYYY=           -356.8932 ZZZZ=            -60.7499 XXXY=             90.4746
 XXXZ=              7.8418 YYYX=             16.0441 YYYZ=             -2.8092 ZZZX=              0.6796
 ZZZY=              1.0598 XXYY=           -233.6417 XXZZ=           -195.5410 YYZZ=            -78.9435
 XXYZ=             -3.3141 YYXZ=              1.3416 ZZXY=              1.9839
 N-N= 4.095055449130D+02 E-N=-1.802520189520D+03  KE= 4.201205874266D+02
 No NMR shielding tensors so no spin-rotation constants.
 Leave Link  601 at Sun Nov  6 23:01:20 2022, MaxMem= 16106127360 cpu:               3.2 elap:               0.1
 (Enter /opt/ap/G16/B01/g16/l9999.exe)
 1\1\GINC-N03\SP\RwB97XD\6-311++G(d,p)\C7H6O2\ROOT\06-Nov-2022\0\\#P wB
 97XD/6-311++G(d,p) scf=maxcycle=512\\_conf016.gjf nmol_natom 1_15\\0,1
 \C\C,1,1.39016191\C,1,1.39194539,2,119.895942\C,2,1.38669027,1,119.880
 75721,3,0.70825972,0\H,2,0.98744251,1,119.71654057,3,-179.90726164,0\C
 ,1,1.48428757,2,119.93615286,4,-179.87772406,0\C,3,1.40101108,1,119.72
 36454,2,-0.26266839,0\H,3,0.9902154,1,119.1886159,2,178.85397616,0\C,4
 ,1.37899003,2,120.45785903,1,-0.48041454,0\H,4,0.9834739,2,120.3044270
 6,1,179.36166981,0\O,6,1.27459751,1,118.00615353,2,-10.,0\O,6,1.263625
 72,1,118.77715367,2,170.,0\H,7,0.98977053,3,119.37861578,1,-178.935457
 41,0\H,9,0.99498061,4,119.46722635,2,-178.58826714,0\H,11,0.89680392,6
 ,118.15823763,1,176.92714093,0\\Version=ES64L-G16RevB.01\State=1-A\HF=
 -420.7470086\RMSD=8.041e-09\Dipole=0.0365024,-0.1343408,1.0402767\Quad
 rupole=8.1870538,-3.8211224,-4.3659314,0.5116755,-1.2435178,0.9797177\
 PG=C01 [X(C7H6O2)]\\@


 IT'S WHAT YOU LEARN AFTER YOU KNOW IT ALL
 THAT COUNTS.
 Job cpu time:       0 days  0 hours  7 minutes 20.9 seconds.
 Elapsed time:       0 days  0 hours  0 minutes 13.9 seconds.
 File lengths (MBytes):  RWF=     35 Int=      0 D2E=      0 Chk=      4 Scr=      1
 Normal termination of Gaussian 16 at Sun Nov  6 23:01:20 2022.
