 Entering Gaussian System, Link 0=g16
 Input=_conf034.gjf
 Output=_conf034.log
 Initial command:
 /opt/ap/G16/B01/g16/l1.exe "/tmp2/scr/Gau-620.inp" -scrdir="/tmp2/scr/"
 Entering Link 1 = /opt/ap/G16/B01/g16/l1.exe PID=       621.
  
 Copyright (c) 1988-2017, Gaussian, Inc.  All Rights Reserved.
  
 This is part of the Gaussian(R) 16 program.  It is based on
 the Gaussian(R) 09 system (copyright 2009, Gaussian, Inc.),
 the Gaussian(R) 03 system (copyright 2003, Gaussian, Inc.),
 the Gaussian(R) 98 system (copyright 1998, Gaussian, Inc.),
 the Gaussian(R) 94 system (copyright 1995, Gaussian, Inc.),
 the Gaussian 92(TM) system (copyright 1992, Gaussian, Inc.),
 the Gaussian 90(TM) system (copyright 1990, Gaussian, Inc.),
 the Gaussian 88(TM) system (copyright 1988, Gaussian, Inc.),
 the Gaussian 86(TM) system (copyright 1986, Carnegie Mellon
 University), and the Gaussian 82(TM) system (copyright 1983,
 Carnegie Mellon University). Gaussian is a federally registered
 trademark of Gaussian, Inc.
  
 This software contains proprietary and confidential information,
 including trade secrets, belonging to Gaussian, Inc.
  
 This software is provided under written license and may be
 used, copied, transmitted, or stored only in accord with that
 written license.
  
 The following legend is applicable only to US Government
 contracts under FAR:
  
                    RESTRICTED RIGHTS LEGEND
  
 Use, reproduction and disclosure by the US Government is
 subject to restrictions as set forth in subparagraphs (a)
 and (c) of the Commercial Computer Software - Restricted
 Rights clause in FAR 52.227-19.
  
 Gaussian, Inc.
 340 Quinnipiac St., Bldg. 40, Wallingford CT 06492
  
  
 ---------------------------------------------------------------
 Warning -- This program may not be used in any manner that
 competes with the business of Gaussian, Inc. or will provide
 assistance to any competitor of Gaussian, Inc.  The licensee
 of this program is prohibited from giving any competitor of
 Gaussian, Inc. access to this program.  By using this program,
 the user acknowledges that Gaussian, Inc. is engaged in the
 business of creating and licensing software in the field of
 computational chemistry and represents and warrants to the
 licensee that it is not a competitor of Gaussian, Inc. and that
 it will not use this program in any manner prohibited above.
 ---------------------------------------------------------------
  

 Cite this work as:
 Gaussian 16, Revision B.01,
 M. J. Frisch, G. W. Trucks, H. B. Schlegel, G. E. Scuseria, 
 M. A. Robb, J. R. Cheeseman, G. Scalmani, V. Barone, 
 G. A. Petersson, H. Nakatsuji, X. Li, M. Caricato, A. V. Marenich, 
 J. Bloino, B. G. Janesko, R. Gomperts, B. Mennucci, H. P. Hratchian, 
 J. V. Ortiz, A. F. Izmaylov, J. L. Sonnenberg, D. Williams-Young, 
 F. Ding, F. Lipparini, F. Egidi, J. Goings, B. Peng, A. Petrone, 
 T. Henderson, D. Ranasinghe, V. G. Zakrzewski, J. Gao, N. Rega, 
 G. Zheng, W. Liang, M. Hada, M. Ehara, K. Toyota, R. Fukuda, 
 J. Hasegawa, M. Ishida, T. Nakajima, Y. Honda, O. Kitao, H. Nakai, 
 T. Vreven, K. Throssell, J. A. Montgomery, Jr., J. E. Peralta, 
 F. Ogliaro, M. J. Bearpark, J. J. Heyd, E. N. Brothers, K. N. Kudin, 
 V. N. Staroverov, T. A. Keith, R. Kobayashi, J. Normand, 
 K. Raghavachari, A. P. Rendell, J. C. Burant, S. S. Iyengar, 
 J. Tomasi, M. Cossi, J. M. Millam, M. Klene, C. Adamo, R. Cammi, 
 J. W. Ochterski, R. L. Martin, K. Morokuma, O. Farkas, 
 J. B. Foresman, and D. J. Fox, Gaussian, Inc., Wallingford CT, 2016.
 
 ******************************************
 Gaussian 16:  ES64L-G16RevB.01 20-Dec-2017
                 6-Nov-2022 
 ******************************************
 %nprocshared=32
 Will use up to   32 processors via shared memory.
 %mem=120GB
 %chk=_conf034.chk
 ----------------------------------------
 #P wB97XD/6-311++G(d,p) scf=maxcycle=512
 ----------------------------------------
 1/38=1,172=1/1;
 2/12=2,17=6,18=5,40=1/2;
 3/5=4,6=6,7=1111,11=2,25=1,30=1,74=-58/1,2,3;
 4//1;
 5/5=2,7=512,38=5/2;
 6/7=2,8=2,9=2,10=2,28=1/1;
 99/5=1,9=1/99;
 Leave Link    1 at Sun Nov  6 23:02:06 2022, MaxMem= 16106127360 cpu:               1.8 elap:               0.1
 (Enter /opt/ap/G16/B01/g16/l101.exe)
 ----------------------------
 _conf034.gjf nmol_natom 1_15
 ----------------------------
 Symbolic Z-matrix:
 Charge =  0 Multiplicity = 1
 C
 C                    1     1.39016 
 C                    1     1.39195  2     119.89594 
 C                    2     1.38669  1     119.88076  3     0.70826  0
 H                    2     0.98744  1     119.71654  3    -179.90726  0
 C                    1     1.48429  2     119.93615  4    -179.87772  0
 C                    3     1.40101  1     119.72365  2    -0.26267  0
 H                    3     0.99022  1     119.18862  2     178.85398  0
 C                    4     1.37899  2     120.45786  1    -0.48041  0
 H                    4     0.98347  2     120.30443  1     179.36167  0
 O                    6     1.2746   1     118.00615  2     80.      0
 O                    6     1.26363  1     118.77715  2    -100.     0
 H                    7     0.98977  3     119.37862  1    -178.93546  0
 H                    9     0.99498  4     119.46723  2    -178.58827  0
 H                    11    0.8968   6     118.15824  1     176.92714  0
 
 ITRead=  0  0  0  0  0  0  0  0  0  0  0  0  0  0  0
 MicOpt= -1 -1 -1 -1 -1 -1 -1 -1 -1 -1 -1 -1 -1 -1 -1
 NAtoms=     15 NQM=       15 NQMF=       0 NMMI=      0 NMMIF=      0
                NMic=       0 NMicF=      0.
                    Isotopes and Nuclear Properties:
 (Nuclear quadrupole moments (NQMom) in fm**2, nuclear magnetic moments (NMagM)
  in nuclear magnetons)

  Atom         1           2           3           4           5           6           7           8           9          10
 IAtWgt=          12          12          12          12           1          12          12           1          12           1
 AtmWgt=  12.0000000  12.0000000  12.0000000  12.0000000   1.0078250  12.0000000  12.0000000   1.0078250  12.0000000   1.0078250
 NucSpn=           0           0           0           0           1           0           0           1           0           1
 AtZEff=  -0.0000000  -0.0000000  -0.0000000  -0.0000000  -0.0000000  -0.0000000  -0.0000000  -0.0000000  -0.0000000  -0.0000000
 NQMom=    0.0000000   0.0000000   0.0000000   0.0000000   0.0000000   0.0000000   0.0000000   0.0000000   0.0000000   0.0000000
 NMagM=    0.0000000   0.0000000   0.0000000   0.0000000   2.7928460   0.0000000   0.0000000   2.7928460   0.0000000   2.7928460
 AtZNuc=   6.0000000   6.0000000   6.0000000   6.0000000   1.0000000   6.0000000   6.0000000   1.0000000   6.0000000   1.0000000

  Atom        11          12          13          14          15
 IAtWgt=          16          16           1           1           1
 AtmWgt=  15.9949146  15.9949146   1.0078250   1.0078250   1.0078250
 NucSpn=           0           0           1           1           1
 AtZEff=  -0.0000000  -0.0000000  -0.0000000  -0.0000000  -0.0000000
 NQMom=    0.0000000   0.0000000   0.0000000   0.0000000   0.0000000
 NMagM=    0.0000000   0.0000000   2.7928460   2.7928460   2.7928460
 AtZNuc=   8.0000000   8.0000000   1.0000000   1.0000000   1.0000000
 Leave Link  101 at Sun Nov  6 23:02:06 2022, MaxMem= 16106127360 cpu:               5.2 elap:               0.2
 (Enter /opt/ap/G16/B01/g16/l202.exe)
                          Input orientation:                          
 ---------------------------------------------------------------------
 Center     Atomic      Atomic             Coordinates (Angstroms)
 Number     Number       Type             X           Y           Z
 ---------------------------------------------------------------------
      1          6           0        0.000000    0.000000    0.000000
      2          6           0        0.000000    0.000000    1.390162
      3          6           0        1.206722    0.000000   -0.693782
      4          6           0        1.202258    0.014862    2.081006
      5          1           0       -0.857581   -0.001388    1.879646
      6          6           0       -1.286190   -0.013155   -0.740711
      7          6           0        2.415349    0.005578    0.014752
      8          1           0        1.194584   -0.017290   -1.683772
      9          6           0        2.400563    0.019708    1.398617
     10          1           0        1.209438    0.024411    3.064408
     11          8           0       -1.913666    1.088728   -0.870046
     12          8           0       -1.706189   -1.108247   -1.210948
     13          1           0        3.270315    0.021574   -0.483669
     14          1           0        3.254554    0.009066    1.909081
     15          1           0       -2.669435    1.091228   -1.352812
 ---------------------------------------------------------------------
                    Distance matrix (angstroms):
                    1          2          3          4          5
     1  C    0.000000
     2  C    1.390162   0.000000
     3  C    1.391945   2.408112   0.000000
     4  C    2.403379   1.386690   2.774832   0.000000
     5  H    2.066039   0.987443   3.299073   2.069721   0.000000
     6  C    1.484288   2.488991   2.493388   3.762345   2.655206
     7  C    2.415401   2.779513   1.401011   2.396056   3.766955
     8  H    2.064563   3.297939   0.990215   3.764924   4.112127
     9  C    2.778349   2.400659   2.409104   1.378990   3.293530
    10  H    3.294530   2.065535   3.758270   0.983474   2.382624
    11  O    2.367367   3.155310   3.309565   4.423898   3.140776
    12  O    2.367633   3.302282   3.159228   4.534027   3.390730
    13  H    3.305958   3.769173   2.074374   3.294611   4.756607
    14  H    3.773167   3.295676   3.311886   2.059493   4.112253
    15  H    3.185399   3.980022   4.080404   5.285800   3.863343
                    6          7          8          9         10
     6  C    0.000000
     7  C    3.777892   0.000000
     8  H    2.653982   2.091836   0.000000
     9  C    4.262622   1.384016   3.310118   0.000000
    10  H    4.550659   3.279477   4.748386   2.047842   0.000000
    11  O    1.274598   4.549335   3.398035   4.990211   5.134829
    12  O    1.263626   4.441849   3.135002   4.994750   5.297402
    13  H    4.563881   0.989771   2.398003   2.073517   4.103177
    14  H    5.257398   2.071897   4.141589   0.994981   2.348938
    15  H    1.872885   5.376235   4.033484   5.867146   5.974579
                   11         12         13         14         15
    11  O    0.000000
    12  O    2.232926   0.000000
    13  H    5.306765   5.154709   0.000000
    14  H    5.966549   5.965897   2.392834   0.000000
    15  H    0.896804   2.405340   6.097557   6.848698   0.000000
 Stoichiometry    C7H6O2
 Framework group  C1[X(C7H6O2)]
 Deg. of freedom    39
 Full point group                 C1      NOp   1
 Largest Abelian subgroup         C1      NOp   1
 Largest concise Abelian subgroup C1      NOp   1
                         Standard orientation:                         
 ---------------------------------------------------------------------
 Center     Atomic      Atomic             Coordinates (Angstroms)
 Number     Number       Type             X           Y           Z
 ---------------------------------------------------------------------
      1          6           0        0.220843    0.008699    0.019503
      2          6           0       -0.470002   -1.190360    0.151948
      3          6           0       -0.481444    1.201260   -0.129164
      4          6           0       -1.856329   -1.196015    0.120743
      5          1           0        0.030848   -2.034640    0.258640
      6          6           0        1.704800    0.015841    0.050004
      7          6           0       -1.882202    1.184566   -0.149899
      8          1           0        0.020857    2.051199   -0.205482
      9          6           0       -2.556916   -0.017990   -0.031076
     10          1           0       -2.351149   -2.041808    0.204460
     11          8           0        2.326873   -0.310111   -1.013659
     12          8           0        2.289656    0.342406    1.121475
     13          1           0       -2.376164    2.033562   -0.271771
     14          1           0       -3.551723   -0.036561   -0.030307
     15          1           0        3.222591   -0.266119   -1.010424
 ---------------------------------------------------------------------
 Rotational constants (GHZ):           3.9687047           1.1315493           1.0177112
 Leave Link  202 at Sun Nov  6 23:02:06 2022, MaxMem= 16106127360 cpu:               0.2 elap:               0.0
 (Enter /opt/ap/G16/B01/g16/l301.exe)
 Standard basis: 6-311++G(d,p) (5D, 7F)
 Ernie: Thresh=  0.10000D-02 Tol=  0.10000D-05 Strict=F.
 There are   249 symmetry adapted cartesian basis functions of A   symmetry.
 There are   240 symmetry adapted basis functions of A   symmetry.
   240 basis functions,   378 primitive gaussians,   249 cartesian basis functions
    32 alpha electrons       32 beta electrons
       nuclear repulsion energy       408.1479911891 Hartrees.
 IExCor= 4639 DFT=T Ex+Corr=wB97XD ExCW=0 ScaHFX=  1.000000
 ScaDFX=  1.000000  1.000000  1.000000  1.000000 ScalE2=  1.000000  1.000000
 IRadAn=      5 IRanWt=     -1 IRanGd=            0 ICorTp=0 IEmpDi=121
 HFx  wShort=  0.000000 wLong=  0.200000 cFull=  0.222036 cShort=  0.000000 cLong=  0.777964
 DFx  wShort=  0.000000 wLong=  0.200000 cFull=  0.000000 cShort=  0.000000 cLong=  1.000000
 NAtoms=   15 NActive=   15 NUniq=   15 SFac= 1.00D+00 NAtFMM=   60 NAOKFM=F Big=F
 Integral buffers will be    131072 words long.
 Raffenetti 2 integral format.
 Two-electron integral symmetry is turned on.
 R6Disp:  Grimme-D2 Dispersion energy=       -0.0064829684 Hartrees.
 Nuclear repulsion after empirical dispersion term =      408.1415082208 Hartrees.
 Leave Link  301 at Sun Nov  6 23:02:06 2022, MaxMem= 16106127360 cpu:               1.2 elap:               0.0
 (Enter /opt/ap/G16/B01/g16/l302.exe)
 NPDir=0 NMtPBC=     1 NCelOv=     1 NCel=       1 NClECP=     1 NCelD=      1
         NCelK=      1 NCelE2=     1 NClLst=     1 CellRange=     0.0.
 One-electron integrals computed using PRISM.
 One-electron integral symmetry used in STVInt
 NBasis=   240 RedAO= T EigKep=  1.10D-06  NBF=   240
 NBsUse=   240 1.00D-06 EigRej= -1.00D+00 NBFU=   240
 Precomputing XC quadrature grid using
 IXCGrd= 4 IRadAn=           5 IRanWt=          -1 IRanGd=           0 AccXCQ= 0.00D+00.
 Generated NRdTot=       0 NPtTot=           0 NUsed=           0 NTot=          32
 NSgBfM=   249   249   249   249   249 MxSgAt=    15 MxSgA2=    15.
 Leave Link  302 at Sun Nov  6 23:02:07 2022, MaxMem= 16106127360 cpu:               6.3 elap:               0.2
 (Enter /opt/ap/G16/B01/g16/l303.exe)
 DipDrv:  MaxL=1.
 Leave Link  303 at Sun Nov  6 23:02:07 2022, MaxMem= 16106127360 cpu:               1.2 elap:               0.0
 (Enter /opt/ap/G16/B01/g16/l401.exe)
 ExpMin= 3.60D-02 ExpMax= 8.59D+03 ExpMxC= 1.30D+03 IAcc=3 IRadAn=         5 AccDes= 0.00D+00
 Harris functional with IExCor= 4639 and IRadAn=       5 diagonalized for initial guess.
 HarFok:  IExCor= 4639 AccDes= 0.00D+00 IRadAn=         5 IDoV= 1 UseB2=F ITyADJ=14
 ICtDFT=  3500011 ScaDFX=  1.000000  1.000000  1.000000  1.000000
 FoFCou: FMM=F IPFlag=           0 FMFlag=      100000 FMFlg1=           0
         NFxFlg=           0 DoJE=T BraDBF=F KetDBF=T FulRan=T
         wScrn=  0.000000 ICntrl=       500 IOpCl=  0 I1Cent=   200000004 NGrid=           0
         NMat0=    1 NMatS0=      1 NMatT0=    0 NMatD0=    1 NMtDS0=    0 NMtDT0=    0
 Petite list used in FoFCou.
 Harris En= -403.249388665862    
 JPrj=0 DoOrth=F DoCkMO=F.
 Leave Link  401 at Sun Nov  6 23:02:07 2022, MaxMem= 16106127360 cpu:              11.8 elap:               0.4
 (Enter /opt/ap/G16/B01/g16/l502.exe)
 Integral symmetry usage will be decided dynamically.
 Closed shell SCF:
 Using DIIS extrapolation, IDIIS=  1040.
 NGot= 16106127360 LenX= 16105992971 LenY= 16105930529
 Requested convergence on RMS density matrix=1.00D-08 within 512 cycles.
 Requested convergence on MAX density matrix=1.00D-06.
 Requested convergence on             energy=1.00D-06.
 No special actions if energy rises.
 Fock matrices will be formed incrementally for  20 cycles.

 Cycle   1  Pass 1  IDiag  1:
 FoFJK:  IHMeth= 1 ICntrl=       0 DoSepK=T KAlg= 0 I1Cent=           0 FoldK=F
 IRaf=         1 NMat=       1 IRICut=       1 DoRegI=T DoRafI=F ISym2E= 0 IDoP0=0 IntGTp=1.
 FoFCou: FMM=F IPFlag=           0 FMFlag=      100000 FMFlg1=           0
         NFxFlg=           0 DoJE=T BraDBF=F KetDBF=F FulRan=T
         wScrn=  0.000000 ICntrl=       500 IOpCl=  0 I1Cent=           0 NGrid=           0
         NMat0=    1 NMatS0=      1 NMatT0=    0 NMatD0=    1 NMtDS0=    0 NMtDT0=    0
 Symmetry not used in FoFCou.
 E= -420.619417399957    
 DIIS: error= 7.05D-02 at cycle   1 NSaved=   1.
 NSaved= 1 IEnMin= 1 EnMin= -420.619417399957     IErMin= 1 ErrMin= 7.05D-02
 ErrMax= 7.05D-02  0.00D+00 EMaxC= 1.00D-01 BMatC= 8.64D-01 BMatP= 8.64D-01
 IDIUse=3 WtCom= 2.95D-01 WtEn= 7.05D-01
 Coeff-Com:  0.100D+01
 Coeff-En:   0.100D+01
 Coeff:      0.100D+01
 Gap=     0.474 Goal=   None    Shift=    0.000
 GapD=    0.474 DampG=2.000 DampE=0.500 DampFc=1.0000 IDamp=-1.
 RMSDP=2.09D-02 MaxDP=1.67D+00              OVMax= 9.45D-02

 Cycle   2  Pass 1  IDiag  1:
 RMSU=  1.28D-02    CP:  7.37D-01
 E= -420.692958444114     Delta-E=       -0.073541044157 Rises=F Damp=F
 DIIS: error= 1.45D-02 at cycle   2 NSaved=   2.
 NSaved= 2 IEnMin= 2 EnMin= -420.692958444114     IErMin= 2 ErrMin= 1.45D-02
 ErrMax= 1.45D-02  0.00D+00 EMaxC= 1.00D-01 BMatC= 5.73D-02 BMatP= 8.64D-01
 IDIUse=3 WtCom= 8.55D-01 WtEn= 1.45D-01
 Coeff-Com:  0.136D+00 0.864D+00
 Coeff-En:   0.897D-01 0.910D+00
 Coeff:      0.129D+00 0.871D+00
 Gap=     0.472 Goal=   None    Shift=    0.000
 RMSDP=7.27D-03 MaxDP=4.16D-01 DE=-7.35D-02 OVMax= 7.39D-02

 Cycle   3  Pass 1  IDiag  1:
 RMSU=  5.86D-03    CP:  7.41D-01  6.64D-01
 E= -420.708849175198     Delta-E=       -0.015890731084 Rises=F Damp=F
 DIIS: error= 1.59D-02 at cycle   3 NSaved=   3.
 NSaved= 3 IEnMin= 3 EnMin= -420.708849175198     IErMin= 2 ErrMin= 1.45D-02
 ErrMax= 1.59D-02  0.00D+00 EMaxC= 1.00D-01 BMatC= 3.63D-02 BMatP= 5.73D-02
 IDIUse=3 WtCom= 8.41D-01 WtEn= 1.59D-01
 Coeff-Com:  0.290D-01 0.449D+00 0.522D+00
 Coeff-En:   0.000D+00 0.387D+00 0.613D+00
 Coeff:      0.244D-01 0.439D+00 0.537D+00
 Gap=     0.372 Goal=   None    Shift=    0.000
 RMSDP=4.51D-03 MaxDP=3.72D-01 DE=-1.59D-02 OVMax= 5.27D-02

 Cycle   4  Pass 1  IDiag  1:
 RMSU=  1.87D-03    CP:  7.21D-01  8.59D-01  4.87D-01
 E= -420.735229633657     Delta-E=       -0.026380458459 Rises=F Damp=F
 DIIS: error= 3.10D-03 at cycle   4 NSaved=   4.
 NSaved= 4 IEnMin= 4 EnMin= -420.735229633657     IErMin= 4 ErrMin= 3.10D-03
 ErrMax= 3.10D-03  0.00D+00 EMaxC= 1.00D-01 BMatC= 2.33D-03 BMatP= 3.63D-02
 IDIUse=3 WtCom= 9.69D-01 WtEn= 3.10D-02
 Coeff-Com:  0.105D-01 0.220D+00 0.306D+00 0.463D+00
 Coeff-En:   0.000D+00 0.000D+00 0.000D+00 0.100D+01
 Coeff:      0.102D-01 0.213D+00 0.297D+00 0.480D+00
 Gap=     0.376 Goal=   None    Shift=    0.000
 RMSDP=7.52D-04 MaxDP=5.08D-02 DE=-2.64D-02 OVMax= 1.44D-02

 Cycle   5  Pass 1  IDiag  1:
 RMSU=  5.38D-04    CP:  7.22D-01  8.41D-01  5.50D-01  8.44D-01
 E= -420.736802983824     Delta-E=       -0.001573350167 Rises=F Damp=F
 DIIS: error= 5.18D-04 at cycle   5 NSaved=   5.
 NSaved= 5 IEnMin= 5 EnMin= -420.736802983824     IErMin= 5 ErrMin= 5.18D-04
 ErrMax= 5.18D-04  0.00D+00 EMaxC= 1.00D-01 BMatC= 5.68D-05 BMatP= 2.33D-03
 IDIUse=3 WtCom= 9.95D-01 WtEn= 5.18D-03
 Coeff-Com:  0.655D-03 0.222D-01 0.399D-01 0.158D+00 0.779D+00
 Coeff-En:   0.000D+00 0.000D+00 0.000D+00 0.000D+00 0.100D+01
 Coeff:      0.652D-03 0.221D-01 0.397D-01 0.157D+00 0.781D+00
 Gap=     0.372 Goal=   None    Shift=    0.000
 RMSDP=2.18D-04 MaxDP=1.21D-02 DE=-1.57D-03 OVMax= 3.34D-03

 Cycle   6  Pass 1  IDiag  1:
 RMSU=  1.42D-04    CP:  7.23D-01  8.47D-01  5.64D-01  8.79D-01  1.02D+00
 E= -420.736846538546     Delta-E=       -0.000043554722 Rises=F Damp=F
 DIIS: error= 1.59D-04 at cycle   6 NSaved=   6.
 NSaved= 6 IEnMin= 6 EnMin= -420.736846538546     IErMin= 6 ErrMin= 1.59D-04
 ErrMax= 1.59D-04  0.00D+00 EMaxC= 1.00D-01 BMatC= 7.55D-06 BMatP= 5.68D-05
 IDIUse=3 WtCom= 9.98D-01 WtEn= 1.59D-03
 Coeff-Com: -0.959D-03-0.163D-01-0.177D-01 0.118D-01 0.335D+00 0.688D+00
 Coeff-En:   0.000D+00 0.000D+00 0.000D+00 0.000D+00 0.000D+00 0.100D+01
 Coeff:     -0.957D-03-0.162D-01-0.176D-01 0.118D-01 0.335D+00 0.688D+00
 Gap=     0.372 Goal=   None    Shift=    0.000
 RMSDP=1.00D-04 MaxDP=4.46D-03 DE=-4.36D-05 OVMax= 1.11D-03

 Cycle   7  Pass 1  IDiag  1:
 RMSU=  6.20D-05    CP:  7.23D-01  8.46D-01  5.71D-01  8.98D-01  1.11D+00
                    CP:  1.10D+00
 E= -420.736854404016     Delta-E=       -0.000007865470 Rises=F Damp=F
 DIIS: error= 5.23D-05 at cycle   7 NSaved=   7.
 NSaved= 7 IEnMin= 7 EnMin= -420.736854404016     IErMin= 7 ErrMin= 5.23D-05
 ErrMax= 5.23D-05  0.00D+00 EMaxC= 1.00D-01 BMatC= 3.25D-07 BMatP= 7.55D-06
 IDIUse=1 WtCom= 1.00D+00 WtEn= 0.00D+00
 Coeff-Com: -0.227D-03-0.533D-02-0.657D-02-0.137D-01-0.650D-02 0.118D+00
 Coeff-Com:  0.915D+00
 Coeff:     -0.227D-03-0.533D-02-0.657D-02-0.137D-01-0.650D-02 0.118D+00
 Coeff:      0.915D+00
 Gap=     0.372 Goal=   None    Shift=    0.000
 RMSDP=4.89D-05 MaxDP=2.37D-03 DE=-7.87D-06 OVMax= 3.77D-04

 Cycle   8  Pass 1  IDiag  1:
 RMSU=  1.40D-05    CP:  7.23D-01  8.45D-01  5.73D-01  9.01D-01  1.18D+00
                    CP:  1.19D+00  1.28D+00
 E= -420.736855107807     Delta-E=       -0.000000703791 Rises=F Damp=F
 DIIS: error= 1.74D-05 at cycle   8 NSaved=   8.
 NSaved= 8 IEnMin= 8 EnMin= -420.736855107807     IErMin= 8 ErrMin= 1.74D-05
 ErrMax= 1.74D-05  0.00D+00 EMaxC= 1.00D-01 BMatC= 5.50D-08 BMatP= 3.25D-07
 IDIUse=1 WtCom= 1.00D+00 WtEn= 0.00D+00
 Coeff-Com:  0.392D-04 0.368D-03 0.406D-03-0.572D-02-0.417D-01-0.487D-01
 Coeff-Com:  0.268D+00 0.828D+00
 Coeff:      0.392D-04 0.368D-03 0.406D-03-0.572D-02-0.417D-01-0.487D-01
 Coeff:      0.268D+00 0.828D+00
 Gap=     0.372 Goal=   None    Shift=    0.000
 RMSDP=1.66D-05 MaxDP=9.68D-04 DE=-7.04D-07 OVMax= 1.95D-04

 Cycle   9  Pass 1  IDiag  1:
 RMSU=  4.63D-06    CP:  7.23D-01  8.45D-01  5.74D-01  9.01D-01  1.19D+00
                    CP:  1.21D+00  1.41D+00  1.20D+00
 E= -420.736855213332     Delta-E=       -0.000000105525 Rises=F Damp=F
 DIIS: error= 1.02D-05 at cycle   9 NSaved=   9.
 NSaved= 9 IEnMin= 9 EnMin= -420.736855213332     IErMin= 9 ErrMin= 1.02D-05
 ErrMax= 1.02D-05  0.00D+00 EMaxC= 1.00D-01 BMatC= 8.09D-09 BMatP= 5.50D-08
 IDIUse=1 WtCom= 1.00D+00 WtEn= 0.00D+00
 Coeff-Com:  0.474D-04 0.916D-03 0.119D-02-0.761D-04-0.127D-01-0.336D-01
 Coeff-Com: -0.352D-01 0.276D+00 0.803D+00
 Coeff:      0.474D-04 0.916D-03 0.119D-02-0.761D-04-0.127D-01-0.336D-01
 Coeff:     -0.352D-01 0.276D+00 0.803D+00
 Gap=     0.372 Goal=   None    Shift=    0.000
 RMSDP=6.01D-06 MaxDP=4.33D-04 DE=-1.06D-07 OVMax= 5.87D-05

 Cycle  10  Pass 1  IDiag  1:
 RMSU=  1.91D-06    CP:  7.23D-01  8.44D-01  5.74D-01  9.00D-01  1.19D+00
                    CP:  1.21D+00  1.44D+00  1.31D+00  1.32D+00
 E= -420.736855227871     Delta-E=       -0.000000014539 Rises=F Damp=F
 DIIS: error= 1.72D-06 at cycle  10 NSaved=  10.
 NSaved=10 IEnMin=10 EnMin= -420.736855227871     IErMin=10 ErrMin= 1.72D-06
 ErrMax= 1.72D-06  0.00D+00 EMaxC= 1.00D-01 BMatC= 9.85D-10 BMatP= 8.09D-09
 IDIUse=1 WtCom= 1.00D+00 WtEn= 0.00D+00
 Coeff-Com:  0.983D-05 0.213D-03 0.304D-03 0.527D-03 0.957D-03-0.499D-02
 Coeff-Com: -0.401D-01-0.127D-01 0.261D+00 0.795D+00
 Coeff:      0.983D-05 0.213D-03 0.304D-03 0.527D-03 0.957D-03-0.499D-02
 Coeff:     -0.401D-01-0.127D-01 0.261D+00 0.795D+00
 Gap=     0.372 Goal=   None    Shift=    0.000
 RMSDP=2.46D-06 MaxDP=1.85D-04 DE=-1.45D-08 OVMax= 2.63D-05

 Cycle  11  Pass 1  IDiag  1:
 RMSU=  5.89D-07    CP:  7.23D-01  8.44D-01  5.74D-01  8.99D-01  1.20D+00
                    CP:  1.20D+00  1.45D+00  1.36D+00  1.47D+00  1.06D+00
 E= -420.736855229431     Delta-E=       -0.000000001559 Rises=F Damp=F
 DIIS: error= 8.52D-07 at cycle  11 NSaved=  11.
 NSaved=11 IEnMin=11 EnMin= -420.736855229431     IErMin=11 ErrMin= 8.52D-07
 ErrMax= 8.52D-07  0.00D+00 EMaxC= 1.00D-01 BMatC= 1.61D-10 BMatP= 9.85D-10
 IDIUse=1 WtCom= 1.00D+00 WtEn= 0.00D+00
 Coeff-Com: -0.198D-05-0.198D-04-0.950D-05 0.253D-03 0.220D-02 0.234D-02
 Coeff-Com: -0.105D-01-0.488D-01-0.162D-01 0.305D+00 0.765D+00
 Coeff:     -0.198D-05-0.198D-04-0.950D-05 0.253D-03 0.220D-02 0.234D-02
 Coeff:     -0.105D-01-0.488D-01-0.162D-01 0.305D+00 0.765D+00
 Gap=     0.372 Goal=   None    Shift=    0.000
 RMSDP=7.97D-07 MaxDP=4.59D-05 DE=-1.56D-09 OVMax= 6.44D-06

 Cycle  12  Pass 1  IDiag  1:
 RMSU=  2.03D-07    CP:  7.23D-01  8.44D-01  5.74D-01  8.99D-01  1.20D+00
                    CP:  1.20D+00  1.45D+00  1.37D+00  1.53D+00  1.16D+00
                    CP:  1.21D+00
 E= -420.736855229645     Delta-E=       -0.000000000214 Rises=F Damp=F
 DIIS: error= 1.85D-07 at cycle  12 NSaved=  12.
 NSaved=12 IEnMin=12 EnMin= -420.736855229645     IErMin=12 ErrMin= 1.85D-07
 ErrMax= 1.85D-07  0.00D+00 EMaxC= 1.00D-01 BMatC= 9.21D-12 BMatP= 1.61D-10
 IDIUse=1 WtCom= 1.00D+00 WtEn= 0.00D+00
 Coeff-Com: -0.121D-05-0.195D-04-0.223D-04 0.306D-04 0.517D-03 0.909D-03
 Coeff-Com:  0.753D-03-0.129D-01-0.220D-01 0.305D-01 0.192D+00 0.810D+00
 Coeff:     -0.121D-05-0.195D-04-0.223D-04 0.306D-04 0.517D-03 0.909D-03
 Coeff:      0.753D-03-0.129D-01-0.220D-01 0.305D-01 0.192D+00 0.810D+00
 Gap=     0.372 Goal=   None    Shift=    0.000
 RMSDP=1.89D-07 MaxDP=1.24D-05 DE=-2.14D-10 OVMax= 2.24D-06

 Cycle  13  Pass 1  IDiag  1:
 RMSU=  6.13D-08    CP:  7.23D-01  8.44D-01  5.74D-01  8.99D-01  1.20D+00
                    CP:  1.20D+00  1.45D+00  1.37D+00  1.54D+00  1.17D+00
                    CP:  1.31D+00  1.14D+00
 E= -420.736855229663     Delta-E=       -0.000000000018 Rises=F Damp=F
 DIIS: error= 1.02D-07 at cycle  13 NSaved=  13.
 NSaved=13 IEnMin=13 EnMin= -420.736855229663     IErMin=13 ErrMin= 1.02D-07
 ErrMax= 1.02D-07  0.00D+00 EMaxC= 1.00D-01 BMatC= 1.76D-12 BMatP= 9.21D-12
 IDIUse=1 WtCom= 1.00D+00 WtEn= 0.00D+00
 Coeff-Com:  0.299D-07-0.384D-05-0.756D-05-0.395D-04-0.250D-03-0.161D-03
 Coeff-Com:  0.220D-02 0.446D-02-0.211D-02-0.435D-01-0.104D+00 0.197D+00
 Coeff-Com:  0.947D+00
 Coeff:      0.299D-07-0.384D-05-0.756D-05-0.395D-04-0.250D-03-0.161D-03
 Coeff:      0.220D-02 0.446D-02-0.211D-02-0.435D-01-0.104D+00 0.197D+00
 Coeff:      0.947D+00
 Gap=     0.372 Goal=   None    Shift=    0.000
 RMSDP=8.14D-08 MaxDP=5.34D-06 DE=-1.81D-11 OVMax= 1.29D-06

 Cycle  14  Pass 1  IDiag  1:
 RMSU=  2.94D-08    CP:  7.23D-01  8.44D-01  5.74D-01  8.99D-01  1.20D+00
                    CP:  1.20D+00  1.45D+00  1.37D+00  1.54D+00  1.17D+00
                    CP:  1.37D+00  1.28D+00  1.23D+00
 E= -420.736855229667     Delta-E=       -0.000000000004 Rises=F Damp=F
 DIIS: error= 2.78D-08 at cycle  14 NSaved=  14.
 NSaved=14 IEnMin=14 EnMin= -420.736855229667     IErMin=14 ErrMin= 2.78D-08
 ErrMax= 2.78D-08  0.00D+00 EMaxC= 1.00D-01 BMatC= 1.18D-13 BMatP= 1.76D-12
 IDIUse=1 WtCom= 1.00D+00 WtEn= 0.00D+00
 Coeff-Com:  0.633D-07 0.145D-05 0.183D-05-0.233D-06-0.458D-04-0.517D-04
 Coeff-Com: -0.109D-03 0.889D-03 0.221D-02-0.244D-02-0.145D-01-0.752D-01
 Coeff-Com: -0.475D-01 0.114D+01
 Coeff:      0.633D-07 0.145D-05 0.183D-05-0.233D-06-0.458D-04-0.517D-04
 Coeff:     -0.109D-03 0.889D-03 0.221D-02-0.244D-02-0.145D-01-0.752D-01
 Coeff:     -0.475D-01 0.114D+01
 Gap=     0.372 Goal=   None    Shift=    0.000
 RMSDP=2.26D-08 MaxDP=9.71D-07 DE=-4.32D-12 OVMax= 5.15D-07

 Cycle  15  Pass 1  IDiag  1:
 RMSU=  6.72D-09    CP:  7.23D-01  8.44D-01  5.74D-01  8.99D-01  1.20D+00
                    CP:  1.20D+00  1.45D+00  1.37D+00  1.54D+00  1.17D+00
                    CP:  1.37D+00  1.30D+00  1.38D+00  1.41D+00
 E= -420.736855229673     Delta-E=       -0.000000000005 Rises=F Damp=F
 DIIS: error= 1.11D-08 at cycle  15 NSaved=  15.
 NSaved=15 IEnMin=15 EnMin= -420.736855229673     IErMin=15 ErrMin= 1.11D-08
 ErrMax= 1.11D-08  0.00D+00 EMaxC= 1.00D-01 BMatC= 1.91D-14 BMatP= 1.18D-13
 IDIUse=1 WtCom= 1.00D+00 WtEn= 0.00D+00
 Coeff-Com:  0.135D-07 0.829D-06 0.139D-05 0.455D-05 0.147D-04 0.648D-05
 Coeff-Com: -0.267D-03-0.249D-03 0.921D-03 0.438D-02 0.860D-02-0.367D-01
 Coeff-Com: -0.114D+00 0.325D+00 0.813D+00
 Coeff:      0.135D-07 0.829D-06 0.139D-05 0.455D-05 0.147D-04 0.648D-05
 Coeff:     -0.267D-03-0.249D-03 0.921D-03 0.438D-02 0.860D-02-0.367D-01
 Coeff:     -0.114D+00 0.325D+00 0.813D+00
 Gap=     0.372 Goal=   None    Shift=    0.000
 RMSDP=9.31D-09 MaxDP=7.92D-07 DE=-5.46D-12 OVMax= 1.47D-07

 SCF Done:  E(RwB97XD) =  -420.736855230     A.U. after   15 cycles
            NFock= 15  Conv=0.93D-08     -V/T= 2.0015
 KE= 4.201101860762D+02 PE=-1.799672996075D+03 EE= 5.506844465479D+02
 Leave Link  502 at Sun Nov  6 23:02:20 2022, MaxMem= 16106127360 cpu:             406.5 elap:              12.7
 (Enter /opt/ap/G16/B01/g16/l601.exe)
 Copying SCF densities to generalized density rwf, IOpCl= 0 IROHF=0.

 **********************************************************************

            Population analysis using the SCF Density.

 **********************************************************************

 Orbital symmetries:
       Occupied  (A) (A) (A) (A) (A) (A) (A) (A) (A) (A) (A) (A)
                 (A) (A) (A) (A) (A) (A) (A) (A) (A) (A) (A) (A)
                 (A) (A) (A) (A) (A) (A) (A) (A)
       Virtual   (A) (A) (A) (A) (A) (A) (A) (A) (A) (A) (A) (A)
                 (A) (A) (A) (A) (A) (A) (A) (A) (A) (A) (A) (A)
                 (A) (A) (A) (A) (A) (A) (A) (A) (A) (A) (A) (A)
                 (A) (A) (A) (A) (A) (A) (A) (A) (A) (A) (A) (A)
                 (A) (A) (A) (A) (A) (A) (A) (A) (A) (A) (A) (A)
                 (A) (A) (A) (A) (A) (A) (A) (A) (A) (A) (A) (A)
                 (A) (A) (A) (A) (A) (A) (A) (A) (A) (A) (A) (A)
                 (A) (A) (A) (A) (A) (A) (A) (A) (A) (A) (A) (A)
                 (A) (A) (A) (A) (A) (A) (A) (A) (A) (A) (A) (A)
                 (A) (A) (A) (A) (A) (A) (A) (A) (A) (A) (A) (A)
                 (A) (A) (A) (A) (A) (A) (A) (A) (A) (A) (A) (A)
                 (A) (A) (A) (A) (A) (A) (A) (A) (A) (A) (A) (A)
                 (A) (A) (A) (A) (A) (A) (A) (A) (A) (A) (A) (A)
                 (A) (A) (A) (A) (A) (A) (A) (A) (A) (A) (A) (A)
                 (A) (A) (A) (A) (A) (A) (A) (A) (A) (A) (A) (A)
                 (A) (A) (A) (A) (A) (A) (A) (A) (A) (A) (A) (A)
                 (A) (A) (A) (A) (A) (A) (A) (A) (A) (A) (A) (A)
                 (A) (A) (A) (A)
 The electronic state is 1-A.
 Alpha  occ. eigenvalues --  -19.32039 -19.23562 -10.43655 -10.31434 -10.29445
 Alpha  occ. eigenvalues --  -10.29259 -10.29009 -10.28711 -10.28648  -1.26134
 Alpha  occ. eigenvalues --   -1.11077  -0.98045  -0.88947  -0.87061  -0.80734
 Alpha  occ. eigenvalues --   -0.73467  -0.72376  -0.65882  -0.60772  -0.58869
 Alpha  occ. eigenvalues --   -0.58037  -0.55752  -0.53797  -0.53365  -0.49378
 Alpha  occ. eigenvalues --   -0.47381  -0.45353  -0.45188  -0.40889  -0.37674
 Alpha  occ. eigenvalues --   -0.34352  -0.33466
 Alpha virt. eigenvalues --    0.03755   0.04006   0.04267   0.04555   0.05039
 Alpha virt. eigenvalues --    0.06369   0.06549   0.07145   0.08628   0.10632
 Alpha virt. eigenvalues --    0.12079   0.12668   0.13130   0.14529   0.14836
 Alpha virt. eigenvalues --    0.16089   0.16144   0.17059   0.17306   0.17994
 Alpha virt. eigenvalues --    0.18588   0.18769   0.19451   0.19892   0.20060
 Alpha virt. eigenvalues --    0.20950   0.20992   0.21116   0.23016   0.23841
 Alpha virt. eigenvalues --    0.24050   0.25475   0.27204   0.27325   0.27732
 Alpha virt. eigenvalues --    0.29455   0.29598   0.30153   0.31105   0.31810
 Alpha virt. eigenvalues --    0.32246   0.33484   0.34971   0.35751   0.36626
 Alpha virt. eigenvalues --    0.37459   0.38025   0.38893   0.39442   0.39836
 Alpha virt. eigenvalues --    0.42324   0.43288   0.43361   0.43672   0.45202
 Alpha virt. eigenvalues --    0.46108   0.47943   0.51638   0.53670   0.56833
 Alpha virt. eigenvalues --    0.58121   0.60691   0.61567   0.62034   0.63628
 Alpha virt. eigenvalues --    0.63994   0.64534   0.64934   0.67437   0.67666
 Alpha virt. eigenvalues --    0.69083   0.69413   0.72330   0.73070   0.74463
 Alpha virt. eigenvalues --    0.75043   0.81790   0.82325   0.82860   0.83040
 Alpha virt. eigenvalues --    0.86536   0.86830   0.90819   0.92947   0.93615
 Alpha virt. eigenvalues --    0.93911   0.95422   0.95869   0.99231   1.00527
 Alpha virt. eigenvalues --    1.00986   1.02615   1.07769   1.08812   1.11807
 Alpha virt. eigenvalues --    1.13627   1.14210   1.16479   1.18146   1.20472
 Alpha virt. eigenvalues --    1.22814   1.27616   1.28690   1.30459   1.33925
 Alpha virt. eigenvalues --    1.36007   1.42591   1.43943   1.45996   1.53448
 Alpha virt. eigenvalues --    1.56998   1.58492   1.60104   1.61264   1.62000
 Alpha virt. eigenvalues --    1.65933   1.67214   1.67595   1.71996   1.72465
 Alpha virt. eigenvalues --    1.74487   1.75911   1.77701   1.84809   1.86500
 Alpha virt. eigenvalues --    1.87894   1.88645   1.91474   1.94875   1.98564
 Alpha virt. eigenvalues --    2.01184   2.02381   2.03382   2.03948   2.05081
 Alpha virt. eigenvalues --    2.05790   2.08463   2.15089   2.16696   2.18063
 Alpha virt. eigenvalues --    2.23213   2.24156   2.33947   2.42964   2.47287
 Alpha virt. eigenvalues --    2.49699   2.52007   2.53923   2.58752   2.62128
 Alpha virt. eigenvalues --    2.66774   2.72146   2.77472   2.80402   2.80996
 Alpha virt. eigenvalues --    2.83089   2.85540   2.88024   2.90372   2.90743
 Alpha virt. eigenvalues --    2.91116   2.91909   2.96484   2.97667   2.99937
 Alpha virt. eigenvalues --    3.01459   3.07316   3.10748   3.16575   3.18832
 Alpha virt. eigenvalues --    3.20670   3.22719   3.25221   3.26950   3.33374
 Alpha virt. eigenvalues --    3.37645   3.43133   3.47910   3.49203   3.65032
 Alpha virt. eigenvalues --    3.66212   3.69547   3.72246   3.86445   3.90500
 Alpha virt. eigenvalues --    4.04842   4.14884   4.27260   4.29067   4.34640
 Alpha virt. eigenvalues --    4.35623   4.40338   4.94975   5.06907   5.19959
 Alpha virt. eigenvalues --    5.27006   5.48750   5.76734   6.06895  23.84639
 Alpha virt. eigenvalues --   23.93658  24.15291  24.21246  24.28734  24.30198
 Alpha virt. eigenvalues --   24.42062  50.04807  50.11493
          Condensed to atoms (all electrons):
               1          2          3          4          5          6
     1  C   12.330875  -4.311980  -2.880006   1.739773  -0.171243  -1.110553
     2  C   -4.311980  12.227060   1.524959  -1.974353   0.545501  -0.765498
     3  C   -2.880006   1.524959  11.452816  -2.070494   0.121513  -0.995594
     4  C    1.739773  -1.974353  -2.070494   7.254947  -0.103050   0.115800
     5  H   -0.171243   0.545501   0.121513  -0.103050   0.489517  -0.046315
     6  C   -1.110553  -0.765498  -0.995594   0.115800  -0.046315   8.153734
     7  C    2.142710  -2.273961  -2.036620   1.430453  -0.052329  -0.023301
     8  H   -0.091559   0.162688   0.455910  -0.047802   0.001535  -0.047177
     9  C   -2.209203   1.658760   1.481281  -0.876864   0.052803  -0.078466
    10  H    0.022802  -0.044003  -0.012826   0.389850  -0.009665   0.008685
    11  O   -0.138380  -0.174046  -0.188438   0.067613  -0.010760   0.428199
    12  O    0.310065  -0.062401  -0.254914   0.024738  -0.004956   0.478140
    13  H    0.023449  -0.028750  -0.033164  -0.001838   0.000109   0.005026
    14  H    0.007129  -0.005221  -0.006712  -0.017550  -0.000644  -0.008745
    15  H   -0.065960   0.012198  -0.010701   0.002058  -0.000156   0.043188
               7          8          9         10         11         12
     1  C    2.142710  -0.091559  -2.209203   0.022802  -0.138380   0.310065
     2  C   -2.273961   0.162688   1.658760  -0.044003  -0.174046  -0.062401
     3  C   -2.036620   0.455910   1.481281  -0.012826  -0.188438  -0.254914
     4  C    1.430453  -0.047802  -0.876864   0.389850   0.067613   0.024738
     5  H   -0.052329   0.001535   0.052803  -0.009665  -0.010760  -0.004956
     6  C   -0.023301  -0.047177  -0.078466   0.008685   0.428199   0.478140
     7  C    7.358253  -0.119769  -0.886975  -0.007220   0.050622  -0.005750
     8  H   -0.119769   0.477844   0.041079   0.000402  -0.015688  -0.001267
     9  C   -0.886975   0.041079   6.835532  -0.015331  -0.032148  -0.013909
    10  H   -0.007220   0.000402  -0.015331   0.471156   0.000539   0.000289
    11  O    0.050622  -0.015688  -0.032148   0.000539   7.931720  -0.172692
    12  O   -0.005750  -0.001267  -0.013909   0.000289  -0.172692   7.951396
    13  H    0.398077  -0.009856  -0.021470  -0.001372   0.000595  -0.000429
    14  H   -0.011326  -0.000233   0.392349  -0.004522  -0.000555  -0.000032
    15  H   -0.002739   0.000178  -0.000539  -0.000051   0.300825  -0.008358
              13         14         15
     1  C    0.023449   0.007129  -0.065960
     2  C   -0.028750  -0.005221   0.012198
     3  C   -0.033164  -0.006712  -0.010701
     4  C   -0.001838  -0.017550   0.002058
     5  H    0.000109  -0.000644  -0.000156
     6  C    0.005026  -0.008745   0.043188
     7  C    0.398077  -0.011326  -0.002739
     8  H   -0.009856  -0.000233   0.000178
     9  C   -0.021470   0.392349  -0.000539
    10  H   -0.001372  -0.004522  -0.000051
    11  O    0.000595  -0.000555   0.300825
    12  O   -0.000429  -0.000032  -0.008358
    13  H    0.470516  -0.003909  -0.000187
    14  H   -0.003909   0.470040  -0.000017
    15  H   -0.000187  -0.000017   0.405900
 Mulliken charges:
               1
     1  C    0.402081
     2  C   -0.490954
     3  C   -0.547009
     4  C    0.066719
     5  H    0.188138
     6  C   -0.157123
     7  C    0.039877
     8  H    0.193714
     9  C   -0.326898
    10  H    0.201268
    11  O   -0.047405
    12  O   -0.239921
    13  H    0.203204
    14  H    0.189948
    15  H    0.324360
 Sum of Mulliken charges =  -0.00000
 Mulliken charges with hydrogens summed into heavy atoms:
               1
     1  C    0.402081
     2  C   -0.302816
     3  C   -0.353295
     4  C    0.267987
     6  C   -0.157123
     7  C    0.243081
     9  C   -0.136950
    11  O    0.276955
    12  O   -0.239921
 Electronic spatial extent (au):  <R**2>=           1158.2436
 Charge=             -0.0000 electrons
 Dipole moment (field-independent basis, Debye):
    X=             -0.9469    Y=             -0.6082    Z=             -2.2467  Tot=              2.5128
 Quadrupole moment (field-independent basis, Debye-Ang):
   XX=            -43.0554   YY=            -46.0336   ZZ=            -58.3522
   XY=             -1.9992   XZ=             -7.5147   YZ=             -2.3659
 Traceless Quadrupole moment (field-independent basis, Debye-Ang):
   XX=              6.0917   YY=              3.1134   ZZ=             -9.2051
   XY=             -1.9992   XZ=             -7.5147   YZ=             -2.3659
 Octapole moment (field-independent basis, Debye-Ang**2):
  XXX=             23.7328  YYY=             -0.2766  ZZZ=             -4.2373  XYY=              0.4716
  XXY=             -6.9184  XXZ=            -25.4471  XZZ=              4.3566  YZZ=             -1.0349
  YYZ=             -0.6091  XYZ=             -1.3329
 Hexadecapole moment (field-independent basis, Debye-Ang**3):
 XXXX=           -873.7691 YYYY=           -270.0201 ZZZZ=           -150.5675 XXXY=            -22.3738
 XXXZ=            -86.7161 YYYX=             -1.6977 YYYZ=             -4.4843 ZZZX=            -14.4882
 ZZZY=              0.9165 XXYY=           -209.9175 XXZZ=           -216.6280 YYZZ=            -78.9407
 XXYZ=             -6.4040 YYXZ=             -2.0015 ZZXY=             -2.8981
 N-N= 4.081415082208D+02 E-N=-1.799672996177D+03  KE= 4.201101860762D+02
 No NMR shielding tensors so no spin-rotation constants.
 Leave Link  601 at Sun Nov  6 23:02:20 2022, MaxMem= 16106127360 cpu:               3.4 elap:               0.1
 (Enter /opt/ap/G16/B01/g16/l9999.exe)
 1\1\GINC-N05\SP\RwB97XD\6-311++G(d,p)\C7H6O2\ROOT\06-Nov-2022\0\\#P wB
 97XD/6-311++G(d,p) scf=maxcycle=512\\_conf034.gjf nmol_natom 1_15\\0,1
 \C\C,1,1.39016191\C,1,1.39194539,2,119.895942\C,2,1.38669027,1,119.880
 75721,3,0.70825972,0\H,2,0.98744251,1,119.71654057,3,-179.90726164,0\C
 ,1,1.48428757,2,119.93615286,4,-179.87772406,0\C,3,1.40101108,1,119.72
 36454,2,-0.26266839,0\H,3,0.9902154,1,119.1886159,2,178.85397616,0\C,4
 ,1.37899003,2,120.45785903,1,-0.48041454,0\H,4,0.9834739,2,120.3044270
 6,1,179.36166981,0\O,6,1.27459751,1,118.00615353,2,80.,0\O,6,1.2636257
 2,1,118.77715367,2,-100.,0\H,7,0.98977053,3,119.37861578,1,-178.935457
 41,0\H,9,0.99498061,4,119.46722635,2,-178.58826714,0\H,11,0.89680392,6
 ,118.15823763,1,176.92714093,0\\Version=ES64L-G16RevB.01\State=1-A\HF=
 -420.7368552\RMSD=9.306e-09\Dipole=0.2659178,0.9012369,0.3073102\Quadr
 upole=4.6640884,-6.9864858,2.3223974,-4.7686234,0.3513437,-3.4683369\P
 G=C01 [X(C7H6O2)]\\@


 The impersonal hand of government can
 never replace the helping hand of a neighbor.
                        -- Hubert H. Humphrey
 Job cpu time:       0 days  0 hours  7 minutes 19.3 seconds.
 Elapsed time:       0 days  0 hours  0 minutes 13.8 seconds.
 File lengths (MBytes):  RWF=     35 Int=      0 D2E=      0 Chk=      4 Scr=      1
 Normal termination of Gaussian 16 at Sun Nov  6 23:02:20 2022.
