 Entering Gaussian System, Link 0=g16
 Input=_conf003.gjf
 Output=_conf003.log
 Initial command:
 /opt/ap/G16/B01/g16/l1.exe "/tmp2/scr/Gau-31909.inp" -scrdir="/tmp2/scr/"
 Entering Link 1 = /opt/ap/G16/B01/g16/l1.exe PID=     31910.
  
 Copyright (c) 1988-2017, Gaussian, Inc.  All Rights Reserved.
  
 This is part of the Gaussian(R) 16 program.  It is based on
 the Gaussian(R) 09 system (copyright 2009, Gaussian, Inc.),
 the Gaussian(R) 03 system (copyright 2003, Gaussian, Inc.),
 the Gaussian(R) 98 system (copyright 1998, Gaussian, Inc.),
 the Gaussian(R) 94 system (copyright 1995, Gaussian, Inc.),
 the Gaussian 92(TM) system (copyright 1992, Gaussian, Inc.),
 the Gaussian 90(TM) system (copyright 1990, Gaussian, Inc.),
 the Gaussian 88(TM) system (copyright 1988, Gaussian, Inc.),
 the Gaussian 86(TM) system (copyright 1986, Carnegie Mellon
 University), and the Gaussian 82(TM) system (copyright 1983,
 Carnegie Mellon University). Gaussian is a federally registered
 trademark of Gaussian, Inc.
  
 This software contains proprietary and confidential information,
 including trade secrets, belonging to Gaussian, Inc.
  
 This software is provided under written license and may be
 used, copied, transmitted, or stored only in accord with that
 written license.
  
 The following legend is applicable only to US Government
 contracts under FAR:
  
                    RESTRICTED RIGHTS LEGEND
  
 Use, reproduction and disclosure by the US Government is
 subject to restrictions as set forth in subparagraphs (a)
 and (c) of the Commercial Computer Software - Restricted
 Rights clause in FAR 52.227-19.
  
 Gaussian, Inc.
 340 Quinnipiac St., Bldg. 40, Wallingford CT 06492
  
  
 ---------------------------------------------------------------
 Warning -- This program may not be used in any manner that
 competes with the business of Gaussian, Inc. or will provide
 assistance to any competitor of Gaussian, Inc.  The licensee
 of this program is prohibited from giving any competitor of
 Gaussian, Inc. access to this program.  By using this program,
 the user acknowledges that Gaussian, Inc. is engaged in the
 business of creating and licensing software in the field of
 computational chemistry and represents and warrants to the
 licensee that it is not a competitor of Gaussian, Inc. and that
 it will not use this program in any manner prohibited above.
 ---------------------------------------------------------------
  

 Cite this work as:
 Gaussian 16, Revision B.01,
 M. J. Frisch, G. W. Trucks, H. B. Schlegel, G. E. Scuseria, 
 M. A. Robb, J. R. Cheeseman, G. Scalmani, V. Barone, 
 G. A. Petersson, H. Nakatsuji, X. Li, M. Caricato, A. V. Marenich, 
 J. Bloino, B. G. Janesko, R. Gomperts, B. Mennucci, H. P. Hratchian, 
 J. V. Ortiz, A. F. Izmaylov, J. L. Sonnenberg, D. Williams-Young, 
 F. Ding, F. Lipparini, F. Egidi, J. Goings, B. Peng, A. Petrone, 
 T. Henderson, D. Ranasinghe, V. G. Zakrzewski, J. Gao, N. Rega, 
 G. Zheng, W. Liang, M. Hada, M. Ehara, K. Toyota, R. Fukuda, 
 J. Hasegawa, M. Ishida, T. Nakajima, Y. Honda, O. Kitao, H. Nakai, 
 T. Vreven, K. Throssell, J. A. Montgomery, Jr., J. E. Peralta, 
 F. Ogliaro, M. J. Bearpark, J. J. Heyd, E. N. Brothers, K. N. Kudin, 
 V. N. Staroverov, T. A. Keith, R. Kobayashi, J. Normand, 
 K. Raghavachari, A. P. Rendell, J. C. Burant, S. S. Iyengar, 
 J. Tomasi, M. Cossi, J. M. Millam, M. Klene, C. Adamo, R. Cammi, 
 J. W. Ochterski, R. L. Martin, K. Morokuma, O. Farkas, 
 J. B. Foresman, and D. J. Fox, Gaussian, Inc., Wallingford CT, 2016.
 
 ******************************************
 Gaussian 16:  ES64L-G16RevB.01 20-Dec-2017
                 6-Nov-2022 
 ******************************************
 %nprocshared=32
 Will use up to   32 processors via shared memory.
 %mem=120GB
 %chk=_conf003.chk
 ----------------------------------------
 #P wB97XD/6-311++G(d,p) scf=maxcycle=512
 ----------------------------------------
 1/38=1,172=1/1;
 2/12=2,17=6,18=5,40=1/2;
 3/5=4,6=6,7=1111,11=2,25=1,30=1,74=-58/1,2,3;
 4//1;
 5/5=2,7=512,38=5/2;
 6/7=2,8=2,9=2,10=2,28=1/1;
 99/5=1,9=1/99;
 Leave Link    1 at Sun Nov  6 23:00:09 2022, MaxMem= 16106127360 cpu:               2.3 elap:               0.1
 (Enter /opt/ap/G16/B01/g16/l101.exe)
 ----------------------------
 _conf003.gjf nmol_natom 1_15
 ----------------------------
 Symbolic Z-matrix:
 Charge =  0 Multiplicity = 1
 C
 C                    1     1.39016 
 C                    1     1.39195  2     119.89594 
 C                    2     1.38669  1     119.88076  3     0.70826  0
 H                    2     0.98744  1     119.71654  3    -179.90726  0
 C                    1     1.48429  2     119.93615  4    -179.87772  0
 C                    3     1.40101  1     119.72365  2    -0.26267  0
 H                    3     0.99022  1     119.18862  2     178.85398  0
 C                    4     1.37899  2     120.45786  1    -0.48041  0
 H                    4     0.98347  2     120.30443  1     179.36167  0
 O                    6     1.2746   1     118.00615  2    -75.      0
 O                    6     1.26363  1     118.77715  2     105.     0
 H                    7     0.98977  3     119.37862  1    -178.93546  0
 H                    9     0.99498  4     119.46723  2    -178.58827  0
 H                    11    0.8968   6     118.15824  1     176.92714  0
 
 ITRead=  0  0  0  0  0  0  0  0  0  0  0  0  0  0  0
 MicOpt= -1 -1 -1 -1 -1 -1 -1 -1 -1 -1 -1 -1 -1 -1 -1
 NAtoms=     15 NQM=       15 NQMF=       0 NMMI=      0 NMMIF=      0
                NMic=       0 NMicF=      0.
                    Isotopes and Nuclear Properties:
 (Nuclear quadrupole moments (NQMom) in fm**2, nuclear magnetic moments (NMagM)
  in nuclear magnetons)

  Atom         1           2           3           4           5           6           7           8           9          10
 IAtWgt=          12          12          12          12           1          12          12           1          12           1
 AtmWgt=  12.0000000  12.0000000  12.0000000  12.0000000   1.0078250  12.0000000  12.0000000   1.0078250  12.0000000   1.0078250
 NucSpn=           0           0           0           0           1           0           0           1           0           1
 AtZEff=  -0.0000000  -0.0000000  -0.0000000  -0.0000000  -0.0000000  -0.0000000  -0.0000000  -0.0000000  -0.0000000  -0.0000000
 NQMom=    0.0000000   0.0000000   0.0000000   0.0000000   0.0000000   0.0000000   0.0000000   0.0000000   0.0000000   0.0000000
 NMagM=    0.0000000   0.0000000   0.0000000   0.0000000   2.7928460   0.0000000   0.0000000   2.7928460   0.0000000   2.7928460
 AtZNuc=   6.0000000   6.0000000   6.0000000   6.0000000   1.0000000   6.0000000   6.0000000   1.0000000   6.0000000   1.0000000

  Atom        11          12          13          14          15
 IAtWgt=          16          16           1           1           1
 AtmWgt=  15.9949146  15.9949146   1.0078250   1.0078250   1.0078250
 NucSpn=           0           0           1           1           1
 AtZEff=  -0.0000000  -0.0000000  -0.0000000  -0.0000000  -0.0000000
 NQMom=    0.0000000   0.0000000   0.0000000   0.0000000   0.0000000
 NMagM=    0.0000000   0.0000000   2.7928460   2.7928460   2.7928460
 AtZNuc=   8.0000000   8.0000000   1.0000000   1.0000000   1.0000000
 Leave Link  101 at Sun Nov  6 23:00:09 2022, MaxMem= 16106127360 cpu:               5.6 elap:               0.2
 (Enter /opt/ap/G16/B01/g16/l202.exe)
                          Input orientation:                          
 ---------------------------------------------------------------------
 Center     Atomic      Atomic             Coordinates (Angstroms)
 Number     Number       Type             X           Y           Z
 ---------------------------------------------------------------------
      1          6           0        0.000000    0.000000    0.000000
      2          6           0        0.000000    0.000000    1.390162
      3          6           0        1.206722    0.000000   -0.693782
      4          6           0        1.202258    0.014862    2.081006
      5          1           0       -0.857581   -0.001388    1.879646
      6          6           0       -1.286190   -0.013155   -0.740711
      7          6           0        2.415349    0.005578    0.014752
      8          1           0        1.194584   -0.017290   -1.683772
      9          6           0        2.400563    0.019708    1.398617
     10          1           0        1.209438    0.024411    3.064408
     11          8           0       -1.939043   -1.106882   -0.786987
     12          8           0       -1.681213    1.052688   -1.292695
     13          1           0        3.270315    0.021574   -0.483669
     14          1           0        3.254554    0.009066    1.909081
     15          1           0       -2.736173   -1.106880   -1.197890
 ---------------------------------------------------------------------
                    Distance matrix (angstroms):
                    1          2          3          4          5
     1  C    0.000000
     2  C    1.390162   0.000000
     3  C    1.391945   2.408112   0.000000
     4  C    2.403379   1.386690   2.774832   0.000000
     5  H    2.066039   0.987443   3.299073   2.069721   0.000000
     6  C    1.484288   2.488991   2.493388   3.762345   2.655206
     7  C    2.415401   2.779513   1.401011   2.396056   3.766955
     8  H    2.064563   3.297939   0.990215   3.764924   4.112127
     9  C    2.778349   2.400659   2.409104   1.378990   3.293530
    10  H    3.294530   2.065535   3.758270   0.983474   2.382624
    11  O    2.367367   3.118502   3.336122   4.399030   3.082631
    12  O    2.367633   3.336517   3.131615   4.557778   3.442847
    13  H    3.305958   3.769173   2.074374   3.294611   4.756607
    14  H    3.773167   3.295676   3.311886   2.059493   4.112253
    15  H    3.185399   3.925536   4.126225   5.246017   3.771266
                    6          7          8          9         10
     6  C    0.000000
     7  C    3.777892   0.000000
     8  H    2.653982   2.091836   0.000000
     9  C    4.262622   1.384016   3.310118   0.000000
    10  H    4.550659   3.279477   4.748386   2.047842   0.000000
    11  O    1.274598   4.565204   3.436721   4.987810   5.101569
    12  O    1.263626   4.425797   3.093219   4.997109   5.328936
    13  H    4.563881   0.989771   2.398003   2.073517   4.103177
    14  H    5.257398   2.071897   4.141589   0.994981   2.348938
    15  H    1.872885   5.407980   4.107815   5.864904   5.917334
                   11         12         13         14         15
    11  O    0.000000
    12  O    2.232926   0.000000
    13  H    5.338804   5.122045   0.000000
    14  H    5.957144   5.975140   2.392834   0.000000
    15  H    0.896804   2.405340   6.153163   6.840132   0.000000
 Stoichiometry    C7H6O2
 Framework group  C1[X(C7H6O2)]
 Deg. of freedom    39
 Full point group                 C1      NOp   1
 Largest Abelian subgroup         C1      NOp   1
 Largest concise Abelian subgroup C1      NOp   1
                         Standard orientation:                         
 ---------------------------------------------------------------------
 Center     Atomic      Atomic             Coordinates (Angstroms)
 Number     Number       Type             X           Y           Z
 ---------------------------------------------------------------------
      1          6           0       -0.220773    0.013745    0.024823
      2          6           0        0.465864   -1.183973    0.187769
      3          6           0        0.485350    1.197064   -0.171795
      4          6           0        1.852388   -1.193555    0.168565
      5          1           0       -0.037754   -2.022057    0.325709
      6          6           0       -1.704833    0.025815    0.047890
      7          6           0        1.885912    1.173948   -0.198712
      8          1           0       -0.014621    2.041539   -0.303766
      9          6           0        2.556947   -0.023414   -0.021124
     10          1           0        2.344599   -2.035913    0.292585
     11          8           0       -2.322930   -0.414158   -0.976306
     12          8           0       -2.293683    0.468578    1.074518
     13          1           0        2.383214    2.020639   -0.323009
     14          1           0        3.551038   -0.050389   -0.053407
     15          1           0       -3.218696   -0.446956   -0.948304
 ---------------------------------------------------------------------
 Rotational constants (GHZ):           3.9684160           1.1371065           1.0133643
 Leave Link  202 at Sun Nov  6 23:00:09 2022, MaxMem= 16106127360 cpu:               0.4 elap:               0.0
 (Enter /opt/ap/G16/B01/g16/l301.exe)
 Standard basis: 6-311++G(d,p) (5D, 7F)
 Ernie: Thresh=  0.10000D-02 Tol=  0.10000D-05 Strict=F.
 There are   249 symmetry adapted cartesian basis functions of A   symmetry.
 There are   240 symmetry adapted basis functions of A   symmetry.
   240 basis functions,   378 primitive gaussians,   249 cartesian basis functions
    32 alpha electrons       32 beta electrons
       nuclear repulsion energy       408.1952521111 Hartrees.
 IExCor= 4639 DFT=T Ex+Corr=wB97XD ExCW=0 ScaHFX=  1.000000
 ScaDFX=  1.000000  1.000000  1.000000  1.000000 ScalE2=  1.000000  1.000000
 IRadAn=      5 IRanWt=     -1 IRanGd=            0 ICorTp=0 IEmpDi=121
 HFx  wShort=  0.000000 wLong=  0.200000 cFull=  0.222036 cShort=  0.000000 cLong=  0.777964
 DFx  wShort=  0.000000 wLong=  0.200000 cFull=  0.000000 cShort=  0.000000 cLong=  1.000000
 NAtoms=   15 NActive=   15 NUniq=   15 SFac= 1.00D+00 NAtFMM=   60 NAOKFM=F Big=F
 Integral buffers will be    131072 words long.
 Raffenetti 2 integral format.
 Two-electron integral symmetry is turned on.
 R6Disp:  Grimme-D2 Dispersion energy=       -0.0064836117 Hartrees.
 Nuclear repulsion after empirical dispersion term =      408.1887684994 Hartrees.
 Leave Link  301 at Sun Nov  6 23:00:09 2022, MaxMem= 16106127360 cpu:               1.4 elap:               0.1
 (Enter /opt/ap/G16/B01/g16/l302.exe)
 NPDir=0 NMtPBC=     1 NCelOv=     1 NCel=       1 NClECP=     1 NCelD=      1
         NCelK=      1 NCelE2=     1 NClLst=     1 CellRange=     0.0.
 One-electron integrals computed using PRISM.
 One-electron integral symmetry used in STVInt
 NBasis=   240 RedAO= T EigKep=  1.14D-06  NBF=   240
 NBsUse=   240 1.00D-06 EigRej= -1.00D+00 NBFU=   240
 Precomputing XC quadrature grid using
 IXCGrd= 4 IRadAn=           5 IRanWt=          -1 IRanGd=           0 AccXCQ= 0.00D+00.
 Generated NRdTot=       0 NPtTot=           0 NUsed=           0 NTot=          32
 NSgBfM=   249   249   249   249   249 MxSgAt=    15 MxSgA2=    15.
 Leave Link  302 at Sun Nov  6 23:00:09 2022, MaxMem= 16106127360 cpu:               5.9 elap:               0.2
 (Enter /opt/ap/G16/B01/g16/l303.exe)
 DipDrv:  MaxL=1.
 Leave Link  303 at Sun Nov  6 23:00:09 2022, MaxMem= 16106127360 cpu:               1.4 elap:               0.1
 (Enter /opt/ap/G16/B01/g16/l401.exe)
 ExpMin= 3.60D-02 ExpMax= 8.59D+03 ExpMxC= 1.30D+03 IAcc=3 IRadAn=         5 AccDes= 0.00D+00
 Harris functional with IExCor= 4639 and IRadAn=       5 diagonalized for initial guess.
 HarFok:  IExCor= 4639 AccDes= 0.00D+00 IRadAn=         5 IDoV= 1 UseB2=F ITyADJ=14
 ICtDFT=  3500011 ScaDFX=  1.000000  1.000000  1.000000  1.000000
 FoFCou: FMM=F IPFlag=           0 FMFlag=      100000 FMFlg1=           0
         NFxFlg=           0 DoJE=T BraDBF=F KetDBF=T FulRan=T
         wScrn=  0.000000 ICntrl=       500 IOpCl=  0 I1Cent=   200000004 NGrid=           0
         NMat0=    1 NMatS0=      1 NMatT0=    0 NMatD0=    1 NMtDS0=    0 NMtDT0=    0
 Petite list used in FoFCou.
 Harris En= -403.249623902279    
 JPrj=0 DoOrth=F DoCkMO=F.
 Leave Link  401 at Sun Nov  6 23:00:10 2022, MaxMem= 16106127360 cpu:              12.4 elap:               0.4
 (Enter /opt/ap/G16/B01/g16/l502.exe)
 Integral symmetry usage will be decided dynamically.
 Closed shell SCF:
 Using DIIS extrapolation, IDIIS=  1040.
 NGot= 16106127360 LenX= 16105992971 LenY= 16105930529
 Requested convergence on RMS density matrix=1.00D-08 within 512 cycles.
 Requested convergence on MAX density matrix=1.00D-06.
 Requested convergence on             energy=1.00D-06.
 No special actions if energy rises.
 Fock matrices will be formed incrementally for  20 cycles.

 Cycle   1  Pass 1  IDiag  1:
 FoFJK:  IHMeth= 1 ICntrl=       0 DoSepK=T KAlg= 0 I1Cent=           0 FoldK=F
 IRaf=         1 NMat=       1 IRICut=       1 DoRegI=T DoRafI=F ISym2E= 0 IDoP0=0 IntGTp=1.
 FoFCou: FMM=F IPFlag=           0 FMFlag=      100000 FMFlg1=           0
         NFxFlg=           0 DoJE=T BraDBF=F KetDBF=F FulRan=T
         wScrn=  0.000000 ICntrl=       500 IOpCl=  0 I1Cent=           0 NGrid=           0
         NMat0=    1 NMatS0=      1 NMatT0=    0 NMatD0=    1 NMtDS0=    0 NMtDT0=    0
 Symmetry not used in FoFCou.
 E= -420.620162549873    
 DIIS: error= 7.21D-02 at cycle   1 NSaved=   1.
 NSaved= 1 IEnMin= 1 EnMin= -420.620162549873     IErMin= 1 ErrMin= 7.21D-02
 ErrMax= 7.21D-02  0.00D+00 EMaxC= 1.00D-01 BMatC= 8.63D-01 BMatP= 8.63D-01
 IDIUse=3 WtCom= 2.79D-01 WtEn= 7.21D-01
 Coeff-Com:  0.100D+01
 Coeff-En:   0.100D+01
 Coeff:      0.100D+01
 Gap=     0.474 Goal=   None    Shift=    0.000
 GapD=    0.474 DampG=2.000 DampE=0.500 DampFc=1.0000 IDamp=-1.
 RMSDP=2.00D-02 MaxDP=1.55D+00              OVMax= 9.46D-02

 Cycle   2  Pass 1  IDiag  1:
 RMSU=  1.27D-02    CP:  7.28D-01
 E= -420.693579481612     Delta-E=       -0.073416931740 Rises=F Damp=F
 DIIS: error= 1.42D-02 at cycle   2 NSaved=   2.
 NSaved= 2 IEnMin= 2 EnMin= -420.693579481612     IErMin= 2 ErrMin= 1.42D-02
 ErrMax= 1.42D-02  0.00D+00 EMaxC= 1.00D-01 BMatC= 5.71D-02 BMatP= 8.63D-01
 IDIUse=3 WtCom= 8.58D-01 WtEn= 1.42D-01
 Coeff-Com:  0.136D+00 0.864D+00
 Coeff-En:   0.888D-01 0.911D+00
 Coeff:      0.129D+00 0.871D+00
 Gap=     0.470 Goal=   None    Shift=    0.000
 RMSDP=6.64D-03 MaxDP=4.99D-01 DE=-7.34D-02 OVMax= 7.06D-02

 Cycle   3  Pass 1  IDiag  1:
 RMSU=  4.92D-03    CP:  7.90D-01  7.89D-01
 E= -420.709485020387     Delta-E=       -0.015905538775 Rises=F Damp=F
 DIIS: error= 1.49D-02 at cycle   3 NSaved=   3.
 NSaved= 3 IEnMin= 3 EnMin= -420.709485020387     IErMin= 2 ErrMin= 1.42D-02
 ErrMax= 1.49D-02  0.00D+00 EMaxC= 1.00D-01 BMatC= 3.61D-02 BMatP= 5.71D-02
 IDIUse=3 WtCom= 8.51D-01 WtEn= 1.49D-01
 Coeff-Com:  0.288D-01 0.448D+00 0.523D+00
 Coeff-En:   0.000D+00 0.386D+00 0.614D+00
 Coeff:      0.245D-01 0.439D+00 0.536D+00
 Gap=     0.373 Goal=   None    Shift=    0.000
 RMSDP=4.45D-03 MaxDP=4.39D-01 DE=-1.59D-02 OVMax= 5.24D-02

 Cycle   4  Pass 1  IDiag  1:
 RMSU=  2.11D-03    CP:  7.49D-01  9.54D-01  5.32D-01
 E= -420.735713655175     Delta-E=       -0.026228634787 Rises=F Damp=F
 DIIS: error= 2.95D-03 at cycle   4 NSaved=   4.
 NSaved= 4 IEnMin= 4 EnMin= -420.735713655175     IErMin= 4 ErrMin= 2.95D-03
 ErrMax= 2.95D-03  0.00D+00 EMaxC= 1.00D-01 BMatC= 2.28D-03 BMatP= 3.61D-02
 IDIUse=3 WtCom= 9.71D-01 WtEn= 2.95D-02
 Coeff-Com:  0.105D-01 0.220D+00 0.306D+00 0.463D+00
 Coeff-En:   0.000D+00 0.000D+00 0.000D+00 0.100D+01
 Coeff:      0.102D-01 0.214D+00 0.297D+00 0.479D+00
 Gap=     0.374 Goal=   None    Shift=    0.000
 RMSDP=7.35D-04 MaxDP=4.64D-02 DE=-2.62D-02 OVMax= 1.42D-02

 Cycle   5  Pass 1  IDiag  1:
 RMSU=  5.03D-04    CP:  7.49D-01  9.35D-01  6.05D-01  8.52D-01
 E= -420.737253377817     Delta-E=       -0.001539722642 Rises=F Damp=F
 DIIS: error= 4.98D-04 at cycle   5 NSaved=   5.
 NSaved= 5 IEnMin= 5 EnMin= -420.737253377817     IErMin= 5 ErrMin= 4.98D-04
 ErrMax= 4.98D-04  0.00D+00 EMaxC= 1.00D-01 BMatC= 5.50D-05 BMatP= 2.28D-03
 IDIUse=3 WtCom= 9.95D-01 WtEn= 4.98D-03
 Coeff-Com:  0.636D-03 0.217D-01 0.392D-01 0.156D+00 0.782D+00
 Coeff-En:   0.000D+00 0.000D+00 0.000D+00 0.000D+00 0.100D+01
 Coeff:      0.633D-03 0.216D-01 0.390D-01 0.155D+00 0.783D+00
 Gap=     0.371 Goal=   None    Shift=    0.000
 RMSDP=2.75D-04 MaxDP=1.66D-02 DE=-1.54D-03 OVMax= 3.26D-03

 Cycle   6  Pass 1  IDiag  1:
 RMSU=  1.38D-04    CP:  7.51D-01  9.45D-01  6.24D-01  9.00D-01  1.01D+00
 E= -420.737295810648     Delta-E=       -0.000042432831 Rises=F Damp=F
 DIIS: error= 1.62D-04 at cycle   6 NSaved=   6.
 NSaved= 6 IEnMin= 6 EnMin= -420.737295810648     IErMin= 6 ErrMin= 1.62D-04
 ErrMax= 1.62D-04  0.00D+00 EMaxC= 1.00D-01 BMatC= 7.50D-06 BMatP= 5.50D-05
 IDIUse=3 WtCom= 9.98D-01 WtEn= 1.62D-03
 Coeff-Com: -0.959D-03-0.163D-01-0.177D-01 0.114D-01 0.337D+00 0.687D+00
 Coeff-En:   0.000D+00 0.000D+00 0.000D+00 0.000D+00 0.000D+00 0.100D+01
 Coeff:     -0.957D-03-0.163D-01-0.177D-01 0.113D-01 0.336D+00 0.687D+00
 Gap=     0.371 Goal=   None    Shift=    0.000
 RMSDP=9.22D-05 MaxDP=3.85D-03 DE=-4.24D-05 OVMax= 1.11D-03

 Cycle   7  Pass 1  IDiag  1:
 RMSU=  5.38D-05    CP:  7.51D-01  9.45D-01  6.32D-01  9.21D-01  1.10D+00
                    CP:  1.09D+00
 E= -420.737303622533     Delta-E=       -0.000007811885 Rises=F Damp=F
 DIIS: error= 5.41D-05 at cycle   7 NSaved=   7.
 NSaved= 7 IEnMin= 7 EnMin= -420.737303622533     IErMin= 7 ErrMin= 5.41D-05
 ErrMax= 5.41D-05  0.00D+00 EMaxC= 1.00D-01 BMatC= 3.24D-07 BMatP= 7.50D-06
 IDIUse=1 WtCom= 1.00D+00 WtEn= 0.00D+00
 Coeff-Com: -0.227D-03-0.534D-02-0.658D-02-0.138D-01-0.659D-02 0.118D+00
 Coeff-Com:  0.914D+00
 Coeff:     -0.227D-03-0.534D-02-0.658D-02-0.138D-01-0.659D-02 0.118D+00
 Coeff:      0.914D+00
 Gap=     0.371 Goal=   None    Shift=    0.000
 RMSDP=5.09D-05 MaxDP=2.66D-03 DE=-7.81D-06 OVMax= 3.85D-04

 Cycle   8  Pass 1  IDiag  1:
 RMSU=  1.60D-05    CP:  7.51D-01  9.45D-01  6.36D-01  9.28D-01  1.16D+00
                    CP:  1.20D+00  1.24D+00
 E= -420.737304325651     Delta-E=       -0.000000703118 Rises=F Damp=F
 DIIS: error= 1.66D-05 at cycle   8 NSaved=   8.
 NSaved= 8 IEnMin= 8 EnMin= -420.737304325651     IErMin= 8 ErrMin= 1.66D-05
 ErrMax= 1.66D-05  0.00D+00 EMaxC= 1.00D-01 BMatC= 5.42D-08 BMatP= 3.24D-07
 IDIUse=1 WtCom= 1.00D+00 WtEn= 0.00D+00
 Coeff-Com:  0.392D-04 0.373D-03 0.404D-03-0.568D-02-0.418D-01-0.483D-01
 Coeff-Com:  0.266D+00 0.829D+00
 Coeff:      0.392D-04 0.373D-03 0.404D-03-0.568D-02-0.418D-01-0.483D-01
 Coeff:      0.266D+00 0.829D+00
 Gap=     0.371 Goal=   None    Shift=    0.000
 RMSDP=1.48D-05 MaxDP=7.59D-04 DE=-7.03D-07 OVMax= 1.93D-04

 Cycle   9  Pass 1  IDiag  1:
 RMSU=  4.87D-06    CP:  7.51D-01  9.44D-01  6.38D-01  9.28D-01  1.18D+00
                    CP:  1.22D+00  1.37D+00  1.15D+00
 E= -420.737304430409     Delta-E=       -0.000000104758 Rises=F Damp=F
 DIIS: error= 1.06D-05 at cycle   9 NSaved=   9.
 NSaved= 9 IEnMin= 9 EnMin= -420.737304430409     IErMin= 9 ErrMin= 1.06D-05
 ErrMax= 1.06D-05  0.00D+00 EMaxC= 1.00D-01 BMatC= 7.98D-09 BMatP= 5.42D-08
 IDIUse=1 WtCom= 1.00D+00 WtEn= 0.00D+00
 Coeff-Com:  0.472D-04 0.914D-03 0.118D-02-0.710D-04-0.127D-01-0.335D-01
 Coeff-Com: -0.352D-01 0.277D+00 0.802D+00
 Coeff:      0.472D-04 0.914D-03 0.118D-02-0.710D-04-0.127D-01-0.335D-01
 Coeff:     -0.352D-01 0.277D+00 0.802D+00
 Gap=     0.371 Goal=   None    Shift=    0.000
 RMSDP=4.83D-06 MaxDP=2.95D-04 DE=-1.05D-07 OVMax= 5.80D-05

 Cycle  10  Pass 1  IDiag  1:
 RMSU=  1.80D-06    CP:  7.51D-01  9.44D-01  6.38D-01  9.27D-01  1.18D+00
                    CP:  1.22D+00  1.39D+00  1.24D+00  1.26D+00
 E= -420.737304444768     Delta-E=       -0.000000014359 Rises=F Damp=F
 DIIS: error= 1.62D-06 at cycle  10 NSaved=  10.
 NSaved=10 IEnMin=10 EnMin= -420.737304444768     IErMin=10 ErrMin= 1.62D-06
 ErrMax= 1.62D-06  0.00D+00 EMaxC= 1.00D-01 BMatC= 9.71D-10 BMatP= 7.98D-09
 IDIUse=1 WtCom= 1.00D+00 WtEn= 0.00D+00
 Coeff-Com:  0.978D-05 0.212D-03 0.301D-03 0.522D-03 0.968D-03-0.501D-02
 Coeff-Com: -0.398D-01-0.124D-01 0.260D+00 0.795D+00
 Coeff:      0.978D-05 0.212D-03 0.301D-03 0.522D-03 0.968D-03-0.501D-02
 Coeff:     -0.398D-01-0.124D-01 0.260D+00 0.795D+00
 Gap=     0.371 Goal=   None    Shift=    0.000
 RMSDP=2.41D-06 MaxDP=1.67D-04 DE=-1.44D-08 OVMax= 2.57D-05

 Cycle  11  Pass 1  IDiag  1:
 RMSU=  6.11D-07    CP:  7.51D-01  9.44D-01  6.38D-01  9.27D-01  1.18D+00
                    CP:  1.21D+00  1.40D+00  1.27D+00  1.41D+00  1.02D+00
 E= -420.737304446307     Delta-E=       -0.000000001539 Rises=F Damp=F
 DIIS: error= 8.67D-07 at cycle  11 NSaved=  11.
 NSaved=11 IEnMin=11 EnMin= -420.737304446307     IErMin=11 ErrMin= 8.67D-07
 ErrMax= 8.67D-07  0.00D+00 EMaxC= 1.00D-01 BMatC= 1.60D-10 BMatP= 9.71D-10
 IDIUse=1 WtCom= 1.00D+00 WtEn= 0.00D+00
 Coeff-Com: -0.198D-05-0.197D-04-0.948D-05 0.252D-03 0.220D-02 0.230D-02
 Coeff-Com: -0.104D-01-0.487D-01-0.159D-01 0.306D+00 0.764D+00
 Coeff:     -0.198D-05-0.197D-04-0.948D-05 0.252D-03 0.220D-02 0.230D-02
 Coeff:     -0.104D-01-0.487D-01-0.159D-01 0.306D+00 0.764D+00
 Gap=     0.371 Goal=   None    Shift=    0.000
 RMSDP=6.65D-07 MaxDP=4.02D-05 DE=-1.54D-09 OVMax= 6.24D-06

 Cycle  12  Pass 1  IDiag  1:
 RMSU=  2.06D-07    CP:  7.51D-01  9.44D-01  6.38D-01  9.26D-01  1.18D+00
                    CP:  1.21D+00  1.40D+00  1.28D+00  1.46D+00  1.11D+00
                    CP:  1.20D+00
 E= -420.737304446530     Delta-E=       -0.000000000224 Rises=F Damp=F
 DIIS: error= 1.81D-07 at cycle  12 NSaved=  12.
 NSaved=12 IEnMin=12 EnMin= -420.737304446530     IErMin=12 ErrMin= 1.81D-07
 ErrMax= 1.81D-07  0.00D+00 EMaxC= 1.00D-01 BMatC= 9.24D-12 BMatP= 1.60D-10
 IDIUse=1 WtCom= 1.00D+00 WtEn= 0.00D+00
 Coeff-Com: -0.120D-05-0.193D-04-0.221D-04 0.301D-04 0.513D-03 0.891D-03
 Coeff-Com:  0.778D-03-0.127D-01-0.219D-01 0.295D-01 0.190D+00 0.813D+00
 Coeff:     -0.120D-05-0.193D-04-0.221D-04 0.301D-04 0.513D-03 0.891D-03
 Coeff:      0.778D-03-0.127D-01-0.219D-01 0.295D-01 0.190D+00 0.813D+00
 Gap=     0.371 Goal=   None    Shift=    0.000
 RMSDP=2.19D-07 MaxDP=1.45D-05 DE=-2.24D-10 OVMax= 2.36D-06

 Cycle  13  Pass 1  IDiag  1:
 RMSU=  6.83D-08    CP:  7.51D-01  9.44D-01  6.38D-01  9.26D-01  1.18D+00
                    CP:  1.21D+00  1.40D+00  1.28D+00  1.48D+00  1.11D+00
                    CP:  1.28D+00  1.07D+00
 E= -420.737304446548     Delta-E=       -0.000000000017 Rises=F Damp=F
 DIIS: error= 9.91D-08 at cycle  13 NSaved=  13.
 NSaved=13 IEnMin=13 EnMin= -420.737304446548     IErMin=13 ErrMin= 9.91D-08
 ErrMax= 9.91D-08  0.00D+00 EMaxC= 1.00D-01 BMatC= 1.80D-12 BMatP= 9.24D-12
 IDIUse=1 WtCom= 1.00D+00 WtEn= 0.00D+00
 Coeff-Com:  0.397D-07-0.373D-05-0.740D-05-0.399D-04-0.260D-03-0.169D-03
 Coeff-Com:  0.222D-02 0.466D-02-0.211D-02-0.450D-01-0.107D+00 0.197D+00
 Coeff-Com:  0.950D+00
 Coeff:      0.397D-07-0.373D-05-0.740D-05-0.399D-04-0.260D-03-0.169D-03
 Coeff:      0.222D-02 0.466D-02-0.211D-02-0.450D-01-0.107D+00 0.197D+00
 Coeff:      0.950D+00
 Gap=     0.371 Goal=   None    Shift=    0.000
 RMSDP=6.90D-08 MaxDP=3.88D-06 DE=-1.73D-11 OVMax= 1.42D-06

 Cycle  14  Pass 1  IDiag  1:
 RMSU=  3.09D-08    CP:  7.51D-01  9.44D-01  6.38D-01  9.26D-01  1.18D+00
                    CP:  1.21D+00  1.40D+00  1.28D+00  1.48D+00  1.11D+00
                    CP:  1.34D+00  1.23D+00  1.19D+00
 E= -420.737304446550     Delta-E=       -0.000000000002 Rises=F Damp=F
 DIIS: error= 2.43D-08 at cycle  14 NSaved=  14.
 NSaved=14 IEnMin=14 EnMin= -420.737304446550     IErMin=14 ErrMin= 2.43D-08
 ErrMax= 2.43D-08  0.00D+00 EMaxC= 1.00D-01 BMatC= 1.25D-13 BMatP= 1.80D-12
 IDIUse=1 WtCom= 1.00D+00 WtEn= 0.00D+00
 Coeff-Com:  0.671D-07 0.159D-05 0.206D-05 0.356D-06-0.443D-04-0.513D-04
 Coeff-Com: -0.147D-03 0.871D-03 0.231D-02-0.188D-02-0.136D-01-0.812D-01
 Coeff-Com: -0.594D-01 0.115D+01
 Coeff:      0.671D-07 0.159D-05 0.206D-05 0.356D-06-0.443D-04-0.513D-04
 Coeff:     -0.147D-03 0.871D-03 0.231D-02-0.188D-02-0.136D-01-0.812D-01
 Coeff:     -0.594D-01 0.115D+01
 Gap=     0.371 Goal=   None    Shift=    0.000
 RMSDP=2.69D-08 MaxDP=1.66D-06 DE=-2.39D-12 OVMax= 6.00D-07

 Cycle  15  Pass 1  IDiag  1:
 RMSU=  7.98D-09    CP:  7.51D-01  9.44D-01  6.38D-01  9.26D-01  1.18D+00
                    CP:  1.21D+00  1.40D+00  1.28D+00  1.48D+00  1.11D+00
                    CP:  1.35D+00  1.26D+00  1.32D+00  1.50D+00
 E= -420.737304446553     Delta-E=       -0.000000000003 Rises=F Damp=F
 DIIS: error= 9.89D-09 at cycle  15 NSaved=  15.
 NSaved=15 IEnMin=15 EnMin= -420.737304446553     IErMin=15 ErrMin= 9.89D-09
 ErrMax= 9.89D-09  0.00D+00 EMaxC= 1.00D-01 BMatC= 1.97D-14 BMatP= 1.25D-13
 IDIUse=1 WtCom= 1.00D+00 WtEn= 0.00D+00
 Coeff-Com:  0.140D-07 0.862D-06 0.145D-05 0.476D-05 0.164D-04 0.759D-05
 Coeff-Com: -0.280D-03-0.276D-03 0.928D-03 0.474D-02 0.926D-02-0.378D-01
 Coeff-Com: -0.118D+00 0.318D+00 0.823D+00
 Coeff:      0.140D-07 0.862D-06 0.145D-05 0.476D-05 0.164D-04 0.759D-05
 Coeff:     -0.280D-03-0.276D-03 0.928D-03 0.474D-02 0.926D-02-0.378D-01
 Coeff:     -0.118D+00 0.318D+00 0.823D+00
 Gap=     0.371 Goal=   None    Shift=    0.000
 RMSDP=1.12D-08 MaxDP=9.22D-07 DE=-2.96D-12 OVMax= 1.57D-07

 Cycle  16  Pass 1  IDiag  1:
 RMSU=  2.16D-09    CP:  7.51D-01  9.44D-01  6.38D-01  9.26D-01  1.18D+00
                    CP:  1.21D+00  1.40D+00  1.28D+00  1.48D+00  1.11D+00
                    CP:  1.34D+00  1.27D+00  1.32D+00  1.66D+00  1.43D+00
 E= -420.737304446554     Delta-E=       -0.000000000002 Rises=F Damp=F
 DIIS: error= 4.80D-09 at cycle  16 NSaved=  16.
 NSaved=16 IEnMin=16 EnMin= -420.737304446554     IErMin=16 ErrMin= 4.80D-09
 ErrMax= 4.80D-09  0.00D+00 EMaxC= 1.00D-01 BMatC= 3.21D-15 BMatP= 1.97D-14
 IDIUse=1 WtCom= 1.00D+00 WtEn= 0.00D+00
 Coeff-Com: -0.411D-08 0.340D-08 0.728D-07 0.126D-05 0.113D-04 0.994D-05
 Coeff-Com: -0.658D-04-0.216D-03-0.149D-03 0.154D-02 0.441D-02-0.169D-03
 Coeff-Com: -0.297D-01-0.880D-01 0.225D+00 0.888D+00
 Coeff:     -0.411D-08 0.340D-08 0.728D-07 0.126D-05 0.113D-04 0.994D-05
 Coeff:     -0.658D-04-0.216D-03-0.149D-03 0.154D-02 0.441D-02-0.169D-03
 Coeff:     -0.297D-01-0.880D-01 0.225D+00 0.888D+00
 Gap=     0.371 Goal=   None    Shift=    0.000
 RMSDP=4.56D-09 MaxDP=4.34D-07 DE=-1.59D-12 OVMax= 7.55D-08

 SCF Done:  E(RwB97XD) =  -420.737304447     A.U. after   16 cycles
            NFock= 16  Conv=0.46D-08     -V/T= 2.0015
 KE= 4.201106355472D+02 PE=-1.799770450270D+03 EE= 5.507337417768D+02
 Leave Link  502 at Sun Nov  6 23:00:24 2022, MaxMem= 16106127360 cpu:             433.1 elap:              13.6
 (Enter /opt/ap/G16/B01/g16/l601.exe)
 Copying SCF densities to generalized density rwf, IOpCl= 0 IROHF=0.

 **********************************************************************

            Population analysis using the SCF Density.

 **********************************************************************

 Orbital symmetries:
       Occupied  (A) (A) (A) (A) (A) (A) (A) (A) (A) (A) (A) (A)
                 (A) (A) (A) (A) (A) (A) (A) (A) (A) (A) (A) (A)
                 (A) (A) (A) (A) (A) (A) (A) (A)
       Virtual   (A) (A) (A) (A) (A) (A) (A) (A) (A) (A) (A) (A)
                 (A) (A) (A) (A) (A) (A) (A) (A) (A) (A) (A) (A)
                 (A) (A) (A) (A) (A) (A) (A) (A) (A) (A) (A) (A)
                 (A) (A) (A) (A) (A) (A) (A) (A) (A) (A) (A) (A)
                 (A) (A) (A) (A) (A) (A) (A) (A) (A) (A) (A) (A)
                 (A) (A) (A) (A) (A) (A) (A) (A) (A) (A) (A) (A)
                 (A) (A) (A) (A) (A) (A) (A) (A) (A) (A) (A) (A)
                 (A) (A) (A) (A) (A) (A) (A) (A) (A) (A) (A) (A)
                 (A) (A) (A) (A) (A) (A) (A) (A) (A) (A) (A) (A)
                 (A) (A) (A) (A) (A) (A) (A) (A) (A) (A) (A) (A)
                 (A) (A) (A) (A) (A) (A) (A) (A) (A) (A) (A) (A)
                 (A) (A) (A) (A) (A) (A) (A) (A) (A) (A) (A) (A)
                 (A) (A) (A) (A) (A) (A) (A) (A) (A) (A) (A) (A)
                 (A) (A) (A) (A) (A) (A) (A) (A) (A) (A) (A) (A)
                 (A) (A) (A) (A) (A) (A) (A) (A) (A) (A) (A) (A)
                 (A) (A) (A) (A) (A) (A) (A) (A) (A) (A) (A) (A)
                 (A) (A) (A) (A) (A) (A) (A) (A) (A) (A) (A) (A)
                 (A) (A) (A) (A)
 The electronic state is 1-A.
 Alpha  occ. eigenvalues --  -19.32019 -19.23517 -10.43621 -10.31425 -10.29444
 Alpha  occ. eigenvalues --  -10.29288 -10.29009 -10.28737 -10.28673  -1.26114
 Alpha  occ. eigenvalues --   -1.11044  -0.98057  -0.88953  -0.87071  -0.80717
 Alpha  occ. eigenvalues --   -0.73471  -0.72371  -0.65888  -0.60776  -0.58831
 Alpha  occ. eigenvalues --   -0.58049  -0.55764  -0.53791  -0.53352  -0.49352
 Alpha  occ. eigenvalues --   -0.47413  -0.45350  -0.45222  -0.40886  -0.37583
 Alpha  occ. eigenvalues --   -0.34365  -0.33518
 Alpha virt. eigenvalues --    0.03624   0.03837   0.04259   0.04557   0.05060
 Alpha virt. eigenvalues --    0.06393   0.06865   0.07150   0.08659   0.10563
 Alpha virt. eigenvalues --    0.12114   0.12759   0.13102   0.14451   0.14801
 Alpha virt. eigenvalues --    0.16102   0.16207   0.17059   0.17263   0.17942
 Alpha virt. eigenvalues --    0.18593   0.18836   0.19407   0.19879   0.20116
 Alpha virt. eigenvalues --    0.20747   0.21061   0.21217   0.23033   0.23806
 Alpha virt. eigenvalues --    0.24296   0.25507   0.27110   0.27322   0.27855
 Alpha virt. eigenvalues --    0.29393   0.29508   0.30346   0.31093   0.31377
 Alpha virt. eigenvalues --    0.32168   0.33830   0.34977   0.35657   0.36671
 Alpha virt. eigenvalues --    0.37588   0.37827   0.38917   0.39537   0.39867
 Alpha virt. eigenvalues --    0.42352   0.43097   0.43288   0.43598   0.45062
 Alpha virt. eigenvalues --    0.45855   0.47776   0.51750   0.52632   0.56851
 Alpha virt. eigenvalues --    0.58679   0.60677   0.61607   0.62049   0.63592
 Alpha virt. eigenvalues --    0.63996   0.64707   0.64948   0.67364   0.67860
 Alpha virt. eigenvalues --    0.69080   0.69673   0.72549   0.73076   0.74503
 Alpha virt. eigenvalues --    0.75129   0.81672   0.82201   0.82666   0.83011
 Alpha virt. eigenvalues --    0.86620   0.87092   0.90712   0.92450   0.93626
 Alpha virt. eigenvalues --    0.93806   0.95585   0.95820   0.99390   1.00253
 Alpha virt. eigenvalues --    1.01204   1.01894   1.07842   1.08299   1.12349
 Alpha virt. eigenvalues --    1.13808   1.15177   1.16513   1.17861   1.20244
 Alpha virt. eigenvalues --    1.22624   1.27249   1.27964   1.30230   1.34210
 Alpha virt. eigenvalues --    1.35558   1.42130   1.43877   1.45981   1.53352
 Alpha virt. eigenvalues --    1.56711   1.58792   1.59911   1.61177   1.61965
 Alpha virt. eigenvalues --    1.66205   1.67047   1.67594   1.71511   1.72623
 Alpha virt. eigenvalues --    1.74288   1.75933   1.77769   1.85217   1.86536
 Alpha virt. eigenvalues --    1.87860   1.88568   1.91434   1.94972   1.97396
 Alpha virt. eigenvalues --    2.01241   2.02076   2.03717   2.04335   2.04854
 Alpha virt. eigenvalues --    2.05904   2.08089   2.14962   2.17010   2.17900
 Alpha virt. eigenvalues --    2.23217   2.24253   2.33769   2.43112   2.47187
 Alpha virt. eigenvalues --    2.49920   2.52201   2.53853   2.58705   2.62083
 Alpha virt. eigenvalues --    2.67021   2.72088   2.77464   2.80325   2.80958
 Alpha virt. eigenvalues --    2.83012   2.85419   2.88024   2.90478   2.90776
 Alpha virt. eigenvalues --    2.91232   2.91839   2.96694   2.97839   3.00018
 Alpha virt. eigenvalues --    3.01407   3.07271   3.10778   3.16558   3.18702
 Alpha virt. eigenvalues --    3.20615   3.22644   3.24994   3.27282   3.33525
 Alpha virt. eigenvalues --    3.37818   3.43158   3.48053   3.49146   3.64722
 Alpha virt. eigenvalues --    3.66200   3.69359   3.72261   3.86434   3.89927
 Alpha virt. eigenvalues --    4.04959   4.15261   4.27310   4.29289   4.34824
 Alpha virt. eigenvalues --    4.35634   4.40314   4.94984   5.07287   5.19698
 Alpha virt. eigenvalues --    5.26987   5.48412   5.76655   6.06943  23.84583
 Alpha virt. eigenvalues --   23.93650  24.15197  24.21249  24.28693  24.30188
 Alpha virt. eigenvalues --   24.42033  50.04488  50.11688
          Condensed to atoms (all electrons):
               1          2          3          4          5          6
     1  C   11.912145  -3.697874  -2.939336   1.565966  -0.130004  -1.174343
     2  C   -3.697874  11.603530   1.220310  -1.727764   0.494477  -0.791996
     3  C   -2.939336   1.220310  11.738484  -2.074997   0.121963  -0.884584
     4  C    1.565966  -1.727764  -2.074997   7.129386  -0.085760   0.099844
     5  H   -0.130004   0.494477   0.121963  -0.085760   0.489208  -0.052846
     6  C   -1.174343  -0.791996  -0.884584   0.099844  -0.052846   8.073822
     7  C    1.949100  -1.897335  -2.086368   1.355341  -0.039348   0.034189
     8  H   -0.083671   0.149066   0.454764  -0.041684   0.000944  -0.035328
     9  C   -1.993414   1.420295   1.553806  -0.761641   0.041916  -0.073361
    10  H    0.020928  -0.044296  -0.016471   0.391983  -0.009679   0.009261
    11  O   -0.197960  -0.120013  -0.189335   0.070374  -0.010531   0.419995
    12  O    0.269953  -0.007819  -0.300860   0.036959  -0.004929   0.483638
    13  H    0.025769  -0.024536  -0.045808  -0.001557   0.000285   0.005149
    14  H    0.004104  -0.002583   0.011819  -0.028121  -0.000709  -0.008892
    15  H   -0.049674   0.001088  -0.006047   0.003199  -0.000732   0.035388
               7          8          9         10         11         12
     1  C    1.949100  -0.083671  -1.993414   0.020928  -0.197960   0.269953
     2  C   -1.897335   0.149066   1.420295  -0.044296  -0.120013  -0.007819
     3  C   -2.086368   0.454764   1.553806  -0.016471  -0.189335  -0.300860
     4  C    1.355341  -0.041684  -0.761641   0.391983   0.070374   0.036959
     5  H   -0.039348   0.000944   0.041916  -0.009679  -0.010531  -0.004929
     6  C    0.034189  -0.035328  -0.073361   0.009261   0.419995   0.483638
     7  C    7.189616  -0.121572  -0.830778  -0.006436   0.036569   0.001017
     8  H   -0.121572   0.475832   0.033655   0.000466  -0.012880  -0.001427
     9  C   -0.830778   0.033655   6.639425  -0.013569  -0.026489  -0.019989
    10  H   -0.006436   0.000466  -0.013569   0.471120   0.000286   0.000548
    11  O    0.036569  -0.012880  -0.026489   0.000286   7.958752  -0.166740
    12  O    0.001017  -0.001427  -0.019989   0.000548  -0.166740   7.967191
    13  H    0.404753  -0.009967  -0.022977  -0.001384   0.000204  -0.000069
    14  H   -0.025858  -0.000193   0.398753  -0.004795  -0.000455  -0.000296
    15  H    0.000087  -0.000008  -0.002134   0.000089   0.296823  -0.007790
              13         14         15
     1  C    0.025769   0.004104  -0.049674
     2  C   -0.024536  -0.002583   0.001088
     3  C   -0.045808   0.011819  -0.006047
     4  C   -0.001557  -0.028121   0.003199
     5  H    0.000285  -0.000709  -0.000732
     6  C    0.005149  -0.008892   0.035388
     7  C    0.404753  -0.025858   0.000087
     8  H   -0.009967  -0.000193  -0.000008
     9  C   -0.022977   0.398753  -0.002134
    10  H   -0.001384  -0.004795   0.000089
    11  O    0.000204  -0.000455   0.296823
    12  O   -0.000069  -0.000296  -0.007790
    13  H    0.469729  -0.004538  -0.000035
    14  H   -0.004538   0.472328  -0.000082
    15  H   -0.000035  -0.000082   0.404514
 Mulliken charges:
               1
     1  C    0.518310
     2  C   -0.574551
     3  C   -0.557341
     4  C    0.068472
     5  H    0.185745
     6  C   -0.139936
     7  C    0.037023
     8  H    0.192002
     9  C   -0.343499
    10  H    0.201948
    11  O   -0.058600
    12  O   -0.249387
    13  H    0.204982
    14  H    0.189519
    15  H    0.325312
 Sum of Mulliken charges =  -0.00000
 Mulliken charges with hydrogens summed into heavy atoms:
               1
     1  C    0.518310
     2  C   -0.388806
     3  C   -0.365339
     4  C    0.270420
     6  C   -0.139936
     7  C    0.242006
     9  C   -0.153980
    11  O    0.266713
    12  O   -0.249387
 Electronic spatial extent (au):  <R**2>=           1158.1987
 Charge=             -0.0000 electrons
 Dipole moment (field-independent basis, Debye):
    X=              0.9792    Y=             -0.9862    Z=             -2.1298  Tot=              2.5431
 Quadrupole moment (field-independent basis, Debye-Ang):
   XX=            -43.1219   YY=            -46.3272   ZZ=            -58.0296
   XY=              3.3474   XZ=              7.0390   YZ=             -2.9368
 Traceless Quadrupole moment (field-independent basis, Debye-Ang):
   XX=              6.0376   YY=              2.8324   ZZ=             -8.8700
   XY=              3.3474   XZ=              7.0390   YZ=             -2.9368
 Octapole moment (field-independent basis, Debye-Ang**2):
  XXX=            -23.3213  YYY=             -0.5672  ZZZ=             -3.7189  XYY=             -0.3428
  XXY=            -11.4744  XXZ=            -24.1093  XZZ=             -4.4715  YZZ=             -1.4452
  YYZ=             -0.9150  XYZ=              1.2455
 Hexadecapole moment (field-independent basis, Debye-Ang**3):
 XXXX=           -874.9493 YYYY=           -275.1787 ZZZZ=           -146.0882 XXXY=             37.8103
 XXXZ=             80.3705 YYYX=              3.2706 YYYZ=             -5.8518 ZZZX=             12.6678
 ZZZY=              1.4824 XXYY=           -210.1923 XXZZ=           -216.1973 YYZZ=            -78.5620
 XXYZ=             -6.2164 YYXZ=              3.3072 ZZXY=              4.1682
 N-N= 4.081887684994D+02 E-N=-1.799770450019D+03  KE= 4.201106355472D+02
 No NMR shielding tensors so no spin-rotation constants.
 Leave Link  601 at Sun Nov  6 23:00:24 2022, MaxMem= 16106127360 cpu:               3.8 elap:               0.1
 (Enter /opt/ap/G16/B01/g16/l9999.exe)
 1\1\GINC-N07\SP\RwB97XD\6-311++G(d,p)\C7H6O2\ROOT\06-Nov-2022\0\\#P wB
 97XD/6-311++G(d,p) scf=maxcycle=512\\_conf003.gjf nmol_natom 1_15\\0,1
 \C\C,1,1.39016191\C,1,1.39194539,2,119.895942\C,2,1.38669027,1,119.880
 75721,3,0.70825972,0\H,2,0.98744251,1,119.71654057,3,-179.90726164,0\C
 ,1,1.48428757,2,119.93615286,4,-179.87772406,0\C,3,1.40101108,1,119.72
 36454,2,-0.26266839,0\H,3,0.9902154,1,119.1886159,2,178.85397616,0\C,4
 ,1.37899003,2,120.45785903,1,-0.48041454,0\H,4,0.9834739,2,120.3044270
 6,1,179.36166981,0\O,6,1.27459751,1,118.00615353,2,-75.,0\O,6,1.263625
 72,1,118.77715367,2,105.,0\H,7,0.98977053,3,119.37861578,1,-178.935457
 41,0\H,9,0.99498061,4,119.46722635,2,-178.58826714,0\H,11,0.89680392,6
 ,118.15823763,1,176.92714093,0\\Version=ES64L-G16RevB.01\State=1-A\HF=
 -420.7373044\RMSD=4.561e-09\Dipole=0.226609,-0.8763278,0.4263688\Quadr
 upole=5.2590341,-6.7555013,1.4964672,4.694725,-0.1643982,3.5427232\PG=
 C01 [X(C7H6O2)]\\@


 What some people mistake for the high cost
 of living is really the cost of living high.
                              -- Doug Larson
 Job cpu time:       0 days  0 hours  7 minutes 48.2 seconds.
 Elapsed time:       0 days  0 hours  0 minutes 14.8 seconds.
 File lengths (MBytes):  RWF=     35 Int=      0 D2E=      0 Chk=      4 Scr=      1
 Normal termination of Gaussian 16 at Sun Nov  6 23:00:24 2022.
