 Entering Gaussian System, Link 0=g16
 Input=_conf009.gjf
 Output=_conf009.log
 Initial command:
 /opt/ap/G16/B01/g16/l1.exe "/tmp2/scr/Gau-20642.inp" -scrdir="/tmp2/scr/"
 Entering Link 1 = /opt/ap/G16/B01/g16/l1.exe PID=     20643.
  
 Copyright (c) 1988-2017, Gaussian, Inc.  All Rights Reserved.
  
 This is part of the Gaussian(R) 16 program.  It is based on
 the Gaussian(R) 09 system (copyright 2009, Gaussian, Inc.),
 the Gaussian(R) 03 system (copyright 2003, Gaussian, Inc.),
 the Gaussian(R) 98 system (copyright 1998, Gaussian, Inc.),
 the Gaussian(R) 94 system (copyright 1995, Gaussian, Inc.),
 the Gaussian 92(TM) system (copyright 1992, Gaussian, Inc.),
 the Gaussian 90(TM) system (copyright 1990, Gaussian, Inc.),
 the Gaussian 88(TM) system (copyright 1988, Gaussian, Inc.),
 the Gaussian 86(TM) system (copyright 1986, Carnegie Mellon
 University), and the Gaussian 82(TM) system (copyright 1983,
 Carnegie Mellon University). Gaussian is a federally registered
 trademark of Gaussian, Inc.
  
 This software contains proprietary and confidential information,
 including trade secrets, belonging to Gaussian, Inc.
  
 This software is provided under written license and may be
 used, copied, transmitted, or stored only in accord with that
 written license.
  
 The following legend is applicable only to US Government
 contracts under FAR:
  
                    RESTRICTED RIGHTS LEGEND
  
 Use, reproduction and disclosure by the US Government is
 subject to restrictions as set forth in subparagraphs (a)
 and (c) of the Commercial Computer Software - Restricted
 Rights clause in FAR 52.227-19.
  
 Gaussian, Inc.
 340 Quinnipiac St., Bldg. 40, Wallingford CT 06492
  
  
 ---------------------------------------------------------------
 Warning -- This program may not be used in any manner that
 competes with the business of Gaussian, Inc. or will provide
 assistance to any competitor of Gaussian, Inc.  The licensee
 of this program is prohibited from giving any competitor of
 Gaussian, Inc. access to this program.  By using this program,
 the user acknowledges that Gaussian, Inc. is engaged in the
 business of creating and licensing software in the field of
 computational chemistry and represents and warrants to the
 licensee that it is not a competitor of Gaussian, Inc. and that
 it will not use this program in any manner prohibited above.
 ---------------------------------------------------------------
  

 Cite this work as:
 Gaussian 16, Revision B.01,
 M. J. Frisch, G. W. Trucks, H. B. Schlegel, G. E. Scuseria, 
 M. A. Robb, J. R. Cheeseman, G. Scalmani, V. Barone, 
 G. A. Petersson, H. Nakatsuji, X. Li, M. Caricato, A. V. Marenich, 
 J. Bloino, B. G. Janesko, R. Gomperts, B. Mennucci, H. P. Hratchian, 
 J. V. Ortiz, A. F. Izmaylov, J. L. Sonnenberg, D. Williams-Young, 
 F. Ding, F. Lipparini, F. Egidi, J. Goings, B. Peng, A. Petrone, 
 T. Henderson, D. Ranasinghe, V. G. Zakrzewski, J. Gao, N. Rega, 
 G. Zheng, W. Liang, M. Hada, M. Ehara, K. Toyota, R. Fukuda, 
 J. Hasegawa, M. Ishida, T. Nakajima, Y. Honda, O. Kitao, H. Nakai, 
 T. Vreven, K. Throssell, J. A. Montgomery, Jr., J. E. Peralta, 
 F. Ogliaro, M. J. Bearpark, J. J. Heyd, E. N. Brothers, K. N. Kudin, 
 V. N. Staroverov, T. A. Keith, R. Kobayashi, J. Normand, 
 K. Raghavachari, A. P. Rendell, J. C. Burant, S. S. Iyengar, 
 J. Tomasi, M. Cossi, J. M. Millam, M. Klene, C. Adamo, R. Cammi, 
 J. W. Ochterski, R. L. Martin, K. Morokuma, O. Farkas, 
 J. B. Foresman, and D. J. Fox, Gaussian, Inc., Wallingford CT, 2016.
 
 ******************************************
 Gaussian 16:  ES64L-G16RevB.01 20-Dec-2017
                 6-Nov-2022 
 ******************************************
 %nprocshared=32
 Will use up to   32 processors via shared memory.
 %mem=120GB
 %chk=_conf009.chk
 ----------------------------------------
 #P wB97XD/6-311++G(d,p) scf=maxcycle=512
 ----------------------------------------
 1/38=1,172=1/1;
 2/12=2,17=6,18=5,40=1/2;
 3/5=4,6=6,7=1111,11=2,25=1,30=1,74=-58/1,2,3;
 4//1;
 5/5=2,7=512,38=5/2;
 6/7=2,8=2,9=2,10=2,28=1/1;
 99/5=1,9=1/99;
 Leave Link    1 at Sun Nov  6 23:00:39 2022, MaxMem= 16106127360 cpu:               1.8 elap:               0.1
 (Enter /opt/ap/G16/B01/g16/l101.exe)
 ----------------------------
 _conf009.gjf nmol_natom 1_15
 ----------------------------
 Symbolic Z-matrix:
 Charge =  0 Multiplicity = 1
 C
 C                    1     1.39016 
 C                    1     1.39195  2     119.89594 
 C                    2     1.38669  1     119.88076  3     0.70826  0
 H                    2     0.98744  1     119.71654  3    -179.90726  0
 C                    1     1.48429  2     119.93615  4    -179.87772  0
 C                    3     1.40101  1     119.72365  2    -0.26267  0
 H                    3     0.99022  1     119.18862  2     178.85398  0
 C                    4     1.37899  2     120.45786  1    -0.48041  0
 H                    4     0.98347  2     120.30443  1     179.36167  0
 O                    6     1.2746   1     118.00615  2    -45.      0
 O                    6     1.26363  1     118.77715  2     135.     0
 H                    7     0.98977  3     119.37862  1    -178.93546  0
 H                    9     0.99498  4     119.46723  2    -178.58827  0
 H                    11    0.8968   6     118.15824  1     176.92714  0
 
 ITRead=  0  0  0  0  0  0  0  0  0  0  0  0  0  0  0
 MicOpt= -1 -1 -1 -1 -1 -1 -1 -1 -1 -1 -1 -1 -1 -1 -1
 NAtoms=     15 NQM=       15 NQMF=       0 NMMI=      0 NMMIF=      0
                NMic=       0 NMicF=      0.
                    Isotopes and Nuclear Properties:
 (Nuclear quadrupole moments (NQMom) in fm**2, nuclear magnetic moments (NMagM)
  in nuclear magnetons)

  Atom         1           2           3           4           5           6           7           8           9          10
 IAtWgt=          12          12          12          12           1          12          12           1          12           1
 AtmWgt=  12.0000000  12.0000000  12.0000000  12.0000000   1.0078250  12.0000000  12.0000000   1.0078250  12.0000000   1.0078250
 NucSpn=           0           0           0           0           1           0           0           1           0           1
 AtZEff=  -0.0000000  -0.0000000  -0.0000000  -0.0000000  -0.0000000  -0.0000000  -0.0000000  -0.0000000  -0.0000000  -0.0000000
 NQMom=    0.0000000   0.0000000   0.0000000   0.0000000   0.0000000   0.0000000   0.0000000   0.0000000   0.0000000   0.0000000
 NMagM=    0.0000000   0.0000000   0.0000000   0.0000000   2.7928460   0.0000000   0.0000000   2.7928460   0.0000000   2.7928460
 AtZNuc=   6.0000000   6.0000000   6.0000000   6.0000000   1.0000000   6.0000000   6.0000000   1.0000000   6.0000000   1.0000000

  Atom        11          12          13          14          15
 IAtWgt=          16          16           1           1           1
 AtmWgt=  15.9949146  15.9949146   1.0078250   1.0078250   1.0078250
 NucSpn=           0           0           1           1           1
 AtZEff=  -0.0000000  -0.0000000  -0.0000000  -0.0000000  -0.0000000
 NQMom=    0.0000000   0.0000000   0.0000000   0.0000000   0.0000000
 NMagM=    0.0000000   0.0000000   2.7928460   2.7928460   2.7928460
 AtZNuc=   8.0000000   8.0000000   1.0000000   1.0000000   1.0000000
 Leave Link  101 at Sun Nov  6 23:00:39 2022, MaxMem= 16106127360 cpu:               9.1 elap:               0.3
 (Enter /opt/ap/G16/B01/g16/l202.exe)
                          Input orientation:                          
 ---------------------------------------------------------------------
 Center     Atomic      Atomic             Coordinates (Angstroms)
 Number     Number       Type             X           Y           Z
 ---------------------------------------------------------------------
      1          6           0        0.000000    0.000000    0.000000
      2          6           0        0.000000    0.000000    1.390162
      3          6           0        1.206722    0.000000   -0.693782
      4          6           0        1.202258    0.014862    2.081006
      5          1           0       -0.857581   -0.001388    1.879646
      6          6           0       -1.286190   -0.013155   -0.740711
      7          6           0        2.415349    0.005578    0.014752
      8          1           0        1.194584   -0.017290   -1.683772
      9          6           0        2.400563    0.019708    1.398617
     10          1           0        1.209438    0.024411    3.064408
     11          8           0       -2.193759   -0.818213   -0.349818
     12          8           0       -1.430519    0.768578   -1.722960
     13          1           0        3.270315    0.021574   -0.483669
     14          1           0        3.254554    0.009066    1.909081
     15          1           0       -2.986269   -0.798408   -0.769094
 ---------------------------------------------------------------------
                    Distance matrix (angstroms):
                    1          2          3          4          5
     1  C    0.000000
     2  C    1.390162   0.000000
     3  C    1.391945   2.408112   0.000000
     4  C    2.403379   1.386690   2.774832   0.000000
     5  H    2.066039   0.987443   3.299073   2.069721   0.000000
     6  C    1.484288   2.488991   2.493388   3.762345   2.655206
     7  C    2.415401   2.779513   1.401011   2.396056   3.766955
     8  H    2.064563   3.297939   0.990215   3.764924   4.112127
     9  C    2.778349   2.400659   2.409104   1.378990   3.293530
    10  H    3.294530   2.065535   3.758270   0.983474   2.382624
    11  O    2.367367   2.917119   3.514407   4.258621   2.724534
    12  O    2.367633   3.511214   2.933421   4.687191   3.728254
    13  H    3.305958   3.769173   2.074374   3.294611   4.756607
    14  H    3.773167   3.295676   3.311886   2.059493   4.112253
    15  H    3.185399   3.770630   4.268993   5.131105   3.490327
                    6          7          8          9         10
     6  C    0.000000
     7  C    3.777892   0.000000
     8  H    2.653982   2.091836   0.000000
     9  C    4.262622   1.384016   3.310118   0.000000
    10  H    4.550659   3.279477   4.748386   2.047842   0.000000
    11  O    1.274598   4.696320   3.728509   4.986676   4.893742
    12  O    1.263626   4.288650   2.740491   4.998224   5.517431
    13  H    4.563881   0.989771   2.398003   2.073517   4.103177
    14  H    5.257398   2.071897   4.141589   0.994981   2.348938
    15  H    1.872885   5.517091   4.350439   5.863979   5.742537
                   11         12         13         14         15
    11  O    0.000000
    12  O    2.232926   0.000000
    13  H    5.529852   4.918505   0.000000
    14  H    5.955764   5.976494   2.392834   0.000000
    15  H    0.896804   2.405340   6.316540   6.839043   0.000000
 Stoichiometry    C7H6O2
 Framework group  C1[X(C7H6O2)]
 Deg. of freedom    39
 Full point group                 C1      NOp   1
 Largest Abelian subgroup         C1      NOp   1
 Largest concise Abelian subgroup C1      NOp   1
                         Standard orientation:                         
 ---------------------------------------------------------------------
 Center     Atomic      Atomic             Coordinates (Angstroms)
 Number     Number       Type             X           Y           Z
 ---------------------------------------------------------------------
      1          6           0       -0.220693    0.024590    0.015670
      2          6           0        0.452413   -1.171730    0.235438
      3          6           0        0.498931    1.191051   -0.227272
      4          6           0        1.838860   -1.196081    0.226466
      5          1           0       -0.060757   -1.997897    0.406165
      6          6           0       -1.704668    0.052576    0.027704
      7          6           0        1.899325    1.152702   -0.243262
      8          1           0        0.008614    2.033956   -0.399403
      9          6           0        2.556737   -0.042466   -0.008991
     10          1           0        2.321492   -2.037139    0.390507
     11          8           0       -2.325726   -0.866443   -0.600221
     12          8           0       -2.290536    0.979658    0.655420
     13          1           0        2.406179    1.988127   -0.400778
     14          1           0        3.550687   -0.080817   -0.033046
     15          1           0       -3.221558   -0.875796   -0.559550
 ---------------------------------------------------------------------
 Rotational constants (GHZ):           3.9685951           1.1918190           0.9735277
 Leave Link  202 at Sun Nov  6 23:00:39 2022, MaxMem= 16106127360 cpu:               0.3 elap:               0.0
 (Enter /opt/ap/G16/B01/g16/l301.exe)
 Standard basis: 6-311++G(d,p) (5D, 7F)
 Ernie: Thresh=  0.10000D-02 Tol=  0.10000D-05 Strict=F.
 There are   249 symmetry adapted cartesian basis functions of A   symmetry.
 There are   240 symmetry adapted basis functions of A   symmetry.
   240 basis functions,   378 primitive gaussians,   249 cartesian basis functions
    32 alpha electrons       32 beta electrons
       nuclear repulsion energy       408.8004502322 Hartrees.
 IExCor= 4639 DFT=T Ex+Corr=wB97XD ExCW=0 ScaHFX=  1.000000
 ScaDFX=  1.000000  1.000000  1.000000  1.000000 ScalE2=  1.000000  1.000000
 IRadAn=      5 IRanWt=     -1 IRanGd=            0 ICorTp=0 IEmpDi=121
 HFx  wShort=  0.000000 wLong=  0.200000 cFull=  0.222036 cShort=  0.000000 cLong=  0.777964
 DFx  wShort=  0.000000 wLong=  0.200000 cFull=  0.000000 cShort=  0.000000 cLong=  1.000000
 NAtoms=   15 NActive=   15 NUniq=   15 SFac= 1.00D+00 NAtFMM=   60 NAOKFM=F Big=F
 Integral buffers will be    131072 words long.
 Raffenetti 2 integral format.
 Two-electron integral symmetry is turned on.
 R6Disp:  Grimme-D2 Dispersion energy=       -0.0064433293 Hartrees.
 Nuclear repulsion after empirical dispersion term =      408.7940069029 Hartrees.
 Leave Link  301 at Sun Nov  6 23:00:39 2022, MaxMem= 16106127360 cpu:               1.8 elap:               0.1
 (Enter /opt/ap/G16/B01/g16/l302.exe)
 NPDir=0 NMtPBC=     1 NCelOv=     1 NCel=       1 NClECP=     1 NCelD=      1
         NCelK=      1 NCelE2=     1 NClLst=     1 CellRange=     0.0.
 One-electron integrals computed using PRISM.
 One-electron integral symmetry used in STVInt
 NBasis=   240 RedAO= T EigKep=  1.22D-06  NBF=   240
 NBsUse=   240 1.00D-06 EigRej= -1.00D+00 NBFU=   240
 Precomputing XC quadrature grid using
 IXCGrd= 4 IRadAn=           5 IRanWt=          -1 IRanGd=           0 AccXCQ= 0.00D+00.
 Generated NRdTot=       0 NPtTot=           0 NUsed=           0 NTot=          32
 NSgBfM=   249   249   249   249   249 MxSgAt=    15 MxSgA2=    15.
 Leave Link  302 at Sun Nov  6 23:00:39 2022, MaxMem= 16106127360 cpu:               5.3 elap:               0.2
 (Enter /opt/ap/G16/B01/g16/l303.exe)
 DipDrv:  MaxL=1.
 Leave Link  303 at Sun Nov  6 23:00:39 2022, MaxMem= 16106127360 cpu:               1.3 elap:               0.0
 (Enter /opt/ap/G16/B01/g16/l401.exe)
 ExpMin= 3.60D-02 ExpMax= 8.59D+03 ExpMxC= 1.30D+03 IAcc=3 IRadAn=         5 AccDes= 0.00D+00
 Harris functional with IExCor= 4639 and IRadAn=       5 diagonalized for initial guess.
 HarFok:  IExCor= 4639 AccDes= 0.00D+00 IRadAn=         5 IDoV= 1 UseB2=F ITyADJ=14
 ICtDFT=  3500011 ScaDFX=  1.000000  1.000000  1.000000  1.000000
 FoFCou: FMM=F IPFlag=           0 FMFlag=      100000 FMFlg1=           0
         NFxFlg=           0 DoJE=T BraDBF=F KetDBF=T FulRan=T
         wScrn=  0.000000 ICntrl=       500 IOpCl=  0 I1Cent=   200000004 NGrid=           0
         NMat0=    1 NMatS0=      1 NMatT0=    0 NMatD0=    1 NMtDS0=    0 NMtDT0=    0
 Petite list used in FoFCou.
 Harris En= -403.252139661244    
 JPrj=0 DoOrth=F DoCkMO=F.
 Leave Link  401 at Sun Nov  6 23:00:40 2022, MaxMem= 16106127360 cpu:              11.8 elap:               0.4
 (Enter /opt/ap/G16/B01/g16/l502.exe)
 Integral symmetry usage will be decided dynamically.
 Closed shell SCF:
 Using DIIS extrapolation, IDIIS=  1040.
 NGot= 16106127360 LenX= 16105992971 LenY= 16105930529
 Requested convergence on RMS density matrix=1.00D-08 within 512 cycles.
 Requested convergence on MAX density matrix=1.00D-06.
 Requested convergence on             energy=1.00D-06.
 No special actions if energy rises.
 Fock matrices will be formed incrementally for  20 cycles.

 Cycle   1  Pass 1  IDiag  1:
 FoFJK:  IHMeth= 1 ICntrl=       0 DoSepK=T KAlg= 0 I1Cent=           0 FoldK=F
 IRaf=         1 NMat=       1 IRICut=       1 DoRegI=T DoRafI=F ISym2E= 0 IDoP0=0 IntGTp=1.
 FoFCou: FMM=F IPFlag=           0 FMFlag=      100000 FMFlg1=           0
         NFxFlg=           0 DoJE=T BraDBF=F KetDBF=F FulRan=T
         wScrn=  0.000000 ICntrl=       500 IOpCl=  0 I1Cent=           0 NGrid=           0
         NMat0=    1 NMatS0=      1 NMatT0=    0 NMatD0=    1 NMtDS0=    0 NMtDT0=    0
 Symmetry not used in FoFCou.
 E= -420.627243280601    
 DIIS: error= 7.73D-02 at cycle   1 NSaved=   1.
 NSaved= 1 IEnMin= 1 EnMin= -420.627243280601     IErMin= 1 ErrMin= 7.73D-02
 ErrMax= 7.73D-02  0.00D+00 EMaxC= 1.00D-01 BMatC= 8.61D-01 BMatP= 8.61D-01
 IDIUse=3 WtCom= 2.27D-01 WtEn= 7.73D-01
 Coeff-Com:  0.100D+01
 Coeff-En:   0.100D+01
 Coeff:      0.100D+01
 Gap=     0.434 Goal=   None    Shift=    0.000
 GapD=    0.434 DampG=2.000 DampE=0.500 DampFc=1.0000 IDamp=-1.
 RMSDP=2.04D-02 MaxDP=1.13D+00              OVMax= 9.81D-02

 Cycle   2  Pass 1  IDiag  1:
 RMSU=  1.30D-02    CP:  7.12D-01
 E= -420.698920121669     Delta-E=       -0.071676841068 Rises=F Damp=F
 DIIS: error= 1.28D-02 at cycle   2 NSaved=   2.
 NSaved= 2 IEnMin= 2 EnMin= -420.698920121669     IErMin= 2 ErrMin= 1.28D-02
 ErrMax= 1.28D-02  0.00D+00 EMaxC= 1.00D-01 BMatC= 5.68D-02 BMatP= 8.61D-01
 IDIUse=3 WtCom= 8.72D-01 WtEn= 1.28D-01
 Coeff-Com:  0.135D+00 0.865D+00
 Coeff-En:   0.929D-01 0.907D+00
 Coeff:      0.130D+00 0.870D+00
 Gap=     0.446 Goal=   None    Shift=    0.000
 RMSDP=6.63D-03 MaxDP=2.92D-01 DE=-7.17D-02 OVMax= 9.10D-02

 Cycle   3  Pass 1  IDiag  1:
 RMSU=  5.20D-03    CP:  7.09D-01  6.83D-01
 E= -420.714819742764     Delta-E=       -0.015899621096 Rises=F Damp=F
 DIIS: error= 1.27D-02 at cycle   3 NSaved=   3.
 NSaved= 3 IEnMin= 3 EnMin= -420.714819742764     IErMin= 3 ErrMin= 1.27D-02
 ErrMax= 1.27D-02  0.00D+00 EMaxC= 1.00D-01 BMatC= 3.58D-02 BMatP= 5.68D-02
 IDIUse=3 WtCom= 8.73D-01 WtEn= 1.27D-01
 Coeff-Com:  0.282D-01 0.448D+00 0.524D+00
 Coeff-En:   0.000D+00 0.386D+00 0.614D+00
 Coeff:      0.246D-01 0.440D+00 0.535D+00
 Gap=     0.359 Goal=   None    Shift=    0.000
 RMSDP=3.46D-03 MaxDP=1.11D-01 DE=-1.59D-02 OVMax= 5.30D-02

 Cycle   4  Pass 1  IDiag  1:
 RMSU=  1.84D-03    CP:  6.97D-01  8.73D-01  7.24D-01
 E= -420.740902678723     Delta-E=       -0.026082935958 Rises=F Damp=F
 DIIS: error= 2.57D-03 at cycle   4 NSaved=   4.
 NSaved= 4 IEnMin= 4 EnMin= -420.740902678723     IErMin= 4 ErrMin= 2.57D-03
 ErrMax= 2.57D-03  0.00D+00 EMaxC= 1.00D-01 BMatC= 2.05D-03 BMatP= 3.58D-02
 IDIUse=3 WtCom= 9.74D-01 WtEn= 2.57D-02
 Coeff-Com:  0.105D-01 0.221D+00 0.303D+00 0.465D+00
 Coeff-En:   0.000D+00 0.000D+00 0.000D+00 0.100D+01
 Coeff:      0.103D-01 0.216D+00 0.296D+00 0.479D+00
 Gap=     0.360 Goal=   None    Shift=    0.000
 RMSDP=7.71D-04 MaxDP=4.49D-02 DE=-2.61D-02 OVMax= 1.30D-02

 Cycle   5  Pass 1  IDiag  1:
 RMSU=  5.23D-04    CP:  6.92D-01  8.57D-01  7.87D-01  8.51D-01
 E= -420.742290887763     Delta-E=       -0.001388209041 Rises=F Damp=F
 DIIS: error= 4.18D-04 at cycle   5 NSaved=   5.
 NSaved= 5 IEnMin= 5 EnMin= -420.742290887763     IErMin= 5 ErrMin= 4.18D-04
 ErrMax= 4.18D-04  0.00D+00 EMaxC= 1.00D-01 BMatC= 4.93D-05 BMatP= 2.05D-03
 IDIUse=3 WtCom= 9.96D-01 WtEn= 4.18D-03
 Coeff-Com:  0.449D-03 0.179D-01 0.333D-01 0.149D+00 0.799D+00
 Coeff-En:   0.000D+00 0.000D+00 0.000D+00 0.000D+00 0.100D+01
 Coeff:      0.447D-03 0.178D-01 0.331D-01 0.149D+00 0.800D+00
 Gap=     0.357 Goal=   None    Shift=    0.000
 RMSDP=2.49D-04 MaxDP=1.47D-02 DE=-1.39D-03 OVMax= 2.72D-03

 Cycle   6  Pass 1  IDiag  1:
 RMSU=  1.35D-04    CP:  6.93D-01  8.62D-01  8.14D-01  9.13D-01  1.06D+00
 E= -420.742329733972     Delta-E=       -0.000038846209 Rises=F Damp=F
 DIIS: error= 1.95D-04 at cycle   6 NSaved=   6.
 NSaved= 6 IEnMin= 6 EnMin= -420.742329733972     IErMin= 6 ErrMin= 1.95D-04
 ErrMax= 1.95D-04  0.00D+00 EMaxC= 1.00D-01 BMatC= 7.23D-06 BMatP= 4.93D-05
 IDIUse=3 WtCom= 9.98D-01 WtEn= 1.95D-03
 Coeff-Com: -0.956D-03-0.164D-01-0.178D-01 0.110D-01 0.344D+00 0.680D+00
 Coeff-En:   0.000D+00 0.000D+00 0.000D+00 0.000D+00 0.000D+00 0.100D+01
 Coeff:     -0.954D-03-0.163D-01-0.177D-01 0.110D-01 0.343D+00 0.681D+00
 Gap=     0.357 Goal=   None    Shift=    0.000
 RMSDP=1.05D-04 MaxDP=6.52D-03 DE=-3.88D-05 OVMax= 9.93D-04

 Cycle   7  Pass 1  IDiag  1:
 RMSU=  3.87D-05    CP:  6.92D-01  8.62D-01  8.28D-01  9.36D-01  1.13D+00
                    CP:  1.09D+00
 E= -420.742337112992     Delta-E=       -0.000007379020 Rises=F Damp=F
 DIIS: error= 5.51D-05 at cycle   7 NSaved=   7.
 NSaved= 7 IEnMin= 7 EnMin= -420.742337112992     IErMin= 7 ErrMin= 5.51D-05
 ErrMax= 5.51D-05  0.00D+00 EMaxC= 1.00D-01 BMatC= 3.21D-07 BMatP= 7.23D-06
 IDIUse=1 WtCom= 1.00D+00 WtEn= 0.00D+00
 Coeff-Com: -0.229D-03-0.536D-02-0.663D-02-0.139D-01-0.536D-02 0.127D+00
 Coeff-Com:  0.904D+00
 Coeff:     -0.229D-03-0.536D-02-0.663D-02-0.139D-01-0.536D-02 0.127D+00
 Coeff:      0.904D+00
 Gap=     0.357 Goal=   None    Shift=    0.000
 RMSDP=4.37D-05 MaxDP=2.27D-03 DE=-7.38D-06 OVMax= 4.01D-04

 Cycle   8  Pass 1  IDiag  1:
 RMSU=  1.39D-05    CP:  6.92D-01  8.62D-01  8.32D-01  9.45D-01  1.18D+00
                    CP:  1.16D+00  1.10D+00
 E= -420.742337779660     Delta-E=       -0.000000666668 Rises=F Damp=F
 DIIS: error= 1.20D-05 at cycle   8 NSaved=   8.
 NSaved= 8 IEnMin= 8 EnMin= -420.742337779660     IErMin= 8 ErrMin= 1.20D-05
 ErrMax= 1.20D-05  0.00D+00 EMaxC= 1.00D-01 BMatC= 4.75D-08 BMatP= 3.21D-07
 IDIUse=1 WtCom= 1.00D+00 WtEn= 0.00D+00
 Coeff-Com:  0.381D-04 0.384D-03 0.357D-03-0.559D-02-0.411D-01-0.444D-01
 Coeff-Com:  0.248D+00 0.843D+00
 Coeff:      0.381D-04 0.384D-03 0.357D-03-0.559D-02-0.411D-01-0.444D-01
 Coeff:      0.248D+00 0.843D+00
 Gap=     0.357 Goal=   None    Shift=    0.000
 RMSDP=1.09D-05 MaxDP=4.54D-04 DE=-6.67D-07 OVMax= 1.63D-04

 Cycle   9  Pass 1  IDiag  1:
 RMSU=  4.11D-06    CP:  6.92D-01  8.61D-01  8.34D-01  9.46D-01  1.18D+00
                    CP:  1.17D+00  1.20D+00  1.16D+00
 E= -420.742337873584     Delta-E=       -0.000000093924 Rises=F Damp=F
 DIIS: error= 9.35D-06 at cycle   9 NSaved=   9.
 NSaved= 9 IEnMin= 9 EnMin= -420.742337873584     IErMin= 9 ErrMin= 9.35D-06
 ErrMax= 9.35D-06  0.00D+00 EMaxC= 1.00D-01 BMatC= 6.54D-09 BMatP= 4.75D-08
 IDIUse=1 WtCom= 1.00D+00 WtEn= 0.00D+00
 Coeff-Com:  0.436D-04 0.842D-03 0.105D-02-0.997D-04-0.118D-01-0.311D-01
 Coeff-Com: -0.345D-01 0.269D+00 0.806D+00
 Coeff:      0.436D-04 0.842D-03 0.105D-02-0.997D-04-0.118D-01-0.311D-01
 Coeff:     -0.345D-01 0.269D+00 0.806D+00
 Gap=     0.357 Goal=   None    Shift=    0.000
 RMSDP=4.13D-06 MaxDP=3.24D-04 DE=-9.39D-08 OVMax= 5.77D-05

 Cycle  10  Pass 1  IDiag  1:
 RMSU=  1.89D-06    CP:  6.92D-01  8.61D-01  8.34D-01  9.45D-01  1.18D+00
                    CP:  1.17D+00  1.23D+00  1.21D+00  1.28D+00
 E= -420.742337885956     Delta-E=       -0.000000012372 Rises=F Damp=F
 DIIS: error= 1.24D-06 at cycle  10 NSaved=  10.
 NSaved=10 IEnMin=10 EnMin= -420.742337885956     IErMin=10 ErrMin= 1.24D-06
 ErrMax= 1.24D-06  0.00D+00 EMaxC= 1.00D-01 BMatC= 8.45D-10 BMatP= 6.54D-09
 IDIUse=1 WtCom= 1.00D+00 WtEn= 0.00D+00
 Coeff-Com:  0.844D-05 0.185D-03 0.257D-03 0.503D-03 0.127D-02-0.466D-02
 Coeff-Com: -0.365D-01-0.188D-01 0.250D+00 0.808D+00
 Coeff:      0.844D-05 0.185D-03 0.257D-03 0.503D-03 0.127D-02-0.466D-02
 Coeff:     -0.365D-01-0.188D-01 0.250D+00 0.808D+00
 Gap=     0.357 Goal=   None    Shift=    0.000
 RMSDP=1.50D-06 MaxDP=9.71D-05 DE=-1.24D-08 OVMax= 2.21D-05

 Cycle  11  Pass 1  IDiag  1:
 RMSU=  5.24D-07    CP:  6.92D-01  8.61D-01  8.34D-01  9.45D-01  1.18D+00
                    CP:  1.17D+00  1.23D+00  1.25D+00  1.41D+00  1.08D+00
 E= -420.742337887469     Delta-E=       -0.000000001514 Rises=F Damp=F
 DIIS: error= 7.83D-07 at cycle  11 NSaved=  11.
 NSaved=11 IEnMin=11 EnMin= -420.742337887469     IErMin=11 ErrMin= 7.83D-07
 ErrMax= 7.83D-07  0.00D+00 EMaxC= 1.00D-01 BMatC= 1.54D-10 BMatP= 8.45D-10
 IDIUse=1 WtCom= 1.00D+00 WtEn= 0.00D+00
 Coeff-Com: -0.220D-05-0.235D-04-0.140D-04 0.258D-03 0.227D-02 0.215D-02
 Coeff-Com: -0.929D-02-0.512D-01-0.217D-01 0.317D+00 0.760D+00
 Coeff:     -0.220D-05-0.235D-04-0.140D-04 0.258D-03 0.227D-02 0.215D-02
 Coeff:     -0.929D-02-0.512D-01-0.217D-01 0.317D+00 0.760D+00
 Gap=     0.357 Goal=   None    Shift=    0.000
 RMSDP=5.85D-07 MaxDP=3.23D-05 DE=-1.51D-09 OVMax= 8.69D-06

 Cycle  12  Pass 1  IDiag  1:
 RMSU=  2.77D-07    CP:  6.92D-01  8.61D-01  8.34D-01  9.45D-01  1.18D+00
                    CP:  1.16D+00  1.23D+00  1.26D+00  1.44D+00  1.18D+00
                    CP:  1.11D+00
 E= -420.742337887723     Delta-E=       -0.000000000253 Rises=F Damp=F
 DIIS: error= 1.87D-07 at cycle  12 NSaved=  12.
 NSaved=12 IEnMin=12 EnMin= -420.742337887723     IErMin=12 ErrMin= 1.87D-07
 ErrMax= 1.87D-07  0.00D+00 EMaxC= 1.00D-01 BMatC= 1.18D-11 BMatP= 1.54D-10
 IDIUse=1 WtCom= 1.00D+00 WtEn= 0.00D+00
 Coeff-Com: -0.125D-05-0.215D-04-0.248D-04 0.189D-04 0.406D-03 0.809D-03
 Coeff-Com:  0.188D-02-0.105D-01-0.272D-01 0.200D-02 0.167D+00 0.866D+00
 Coeff:     -0.125D-05-0.215D-04-0.248D-04 0.189D-04 0.406D-03 0.809D-03
 Coeff:      0.188D-02-0.105D-01-0.272D-01 0.200D-02 0.167D+00 0.866D+00
 Gap=     0.357 Goal=   None    Shift=    0.000
 RMSDP=1.65D-07 MaxDP=6.48D-06 DE=-2.53D-10 OVMax= 3.86D-06

 Cycle  13  Pass 1  IDiag  1:
 RMSU=  8.70D-08    CP:  6.92D-01  8.61D-01  8.34D-01  9.45D-01  1.18D+00
                    CP:  1.16D+00  1.23D+00  1.26D+00  1.45D+00  1.17D+00
                    CP:  1.20D+00  1.08D+00
 E= -420.742337887760     Delta-E=       -0.000000000038 Rises=F Damp=F
 DIIS: error= 1.31D-07 at cycle  13 NSaved=  13.
 NSaved=13 IEnMin=13 EnMin= -420.742337887760     IErMin=13 ErrMin= 1.31D-07
 ErrMax= 1.31D-07  0.00D+00 EMaxC= 1.00D-01 BMatC= 2.68D-12 BMatP= 1.18D-11
 IDIUse=1 WtCom= 1.00D+00 WtEn= 0.00D+00
 Coeff-Com:  0.112D-06-0.355D-05-0.757D-05-0.511D-04-0.375D-03-0.222D-03
 Coeff-Com:  0.264D-02 0.745D-02-0.271D-02-0.666D-01-0.131D+00 0.233D+00
 Coeff-Com:  0.959D+00
 Coeff:      0.112D-06-0.355D-05-0.757D-05-0.511D-04-0.375D-03-0.222D-03
 Coeff:      0.264D-02 0.745D-02-0.271D-02-0.666D-01-0.131D+00 0.233D+00
 Coeff:      0.959D+00
 Gap=     0.357 Goal=   None    Shift=    0.000
 RMSDP=8.55D-08 MaxDP=5.60D-06 DE=-3.79D-11 OVMax= 2.52D-06

 Cycle  14  Pass 1  IDiag  1:
 RMSU=  3.75D-08    CP:  6.92D-01  8.61D-01  8.34D-01  9.45D-01  1.18D+00
                    CP:  1.16D+00  1.23D+00  1.26D+00  1.45D+00  1.17D+00
                    CP:  1.25D+00  1.25D+00  1.26D+00
 E= -420.742337887772     Delta-E=       -0.000000000011 Rises=F Damp=F
 DIIS: error= 3.97D-08 at cycle  14 NSaved=  14.
 NSaved=14 IEnMin=14 EnMin= -420.742337887772     IErMin=14 ErrMin= 3.97D-08
 ErrMax= 3.97D-08  0.00D+00 EMaxC= 1.00D-01 BMatC= 2.09D-13 BMatP= 2.68D-12
 IDIUse=1 WtCom= 1.00D+00 WtEn= 0.00D+00
 Coeff-Com:  0.916D-07 0.225D-05 0.291D-05 0.800D-06-0.517D-04-0.506D-04
 Coeff-Com: -0.274D-03 0.107D-02 0.299D-02-0.489D-03-0.150D-01-0.982D-01
 Coeff-Com: -0.326D-01 0.114D+01
 Coeff:      0.916D-07 0.225D-05 0.291D-05 0.800D-06-0.517D-04-0.506D-04
 Coeff:     -0.274D-03 0.107D-02 0.299D-02-0.489D-03-0.150D-01-0.982D-01
 Coeff:     -0.326D-01 0.114D+01
 Gap=     0.357 Goal=   None    Shift=    0.000
 RMSDP=4.17D-08 MaxDP=3.45D-06 DE=-1.14D-11 OVMax= 9.10D-07

 Cycle  15  Pass 1  IDiag  1:
 RMSU=  8.20D-09    CP:  6.92D-01  8.61D-01  8.34D-01  9.45D-01  1.18D+00
                    CP:  1.16D+00  1.23D+00  1.26D+00  1.45D+00  1.16D+00
                    CP:  1.25D+00  1.28D+00  1.43D+00  1.43D+00
 E= -420.742337887775     Delta-E=       -0.000000000003 Rises=F Damp=F
 DIIS: error= 1.18D-08 at cycle  15 NSaved=  15.
 NSaved=15 IEnMin=15 EnMin= -420.742337887775     IErMin=15 ErrMin= 1.18D-08
 ErrMax= 1.18D-08  0.00D+00 EMaxC= 1.00D-01 BMatC= 3.40D-14 BMatP= 2.09D-13
 IDIUse=1 WtCom= 1.00D+00 WtEn= 0.00D+00
 Coeff-Com:  0.184D-07 0.112D-05 0.182D-05 0.584D-05 0.221D-04 0.125D-04
 Coeff-Com: -0.363D-03-0.395D-03 0.126D-02 0.705D-02 0.100D-01-0.498D-01
 Coeff-Com: -0.112D+00 0.351D+00 0.794D+00
 Coeff:      0.184D-07 0.112D-05 0.182D-05 0.584D-05 0.221D-04 0.125D-04
 Coeff:     -0.363D-03-0.395D-03 0.126D-02 0.705D-02 0.100D-01-0.498D-01
 Coeff:     -0.112D+00 0.351D+00 0.794D+00
 Gap=     0.357 Goal=   None    Shift=    0.000
 RMSDP=8.45D-09 MaxDP=4.59D-07 DE=-3.30D-12 OVMax= 1.73D-07

 SCF Done:  E(RwB97XD) =  -420.742337888     A.U. after   15 cycles
            NFock= 15  Conv=0.85D-08     -V/T= 2.0015
 KE= 4.201154284910D+02 PE=-1.801035600441D+03 EE= 5.513838271596D+02
 Leave Link  502 at Sun Nov  6 23:00:52 2022, MaxMem= 16106127360 cpu:             406.8 elap:              12.8
 (Enter /opt/ap/G16/B01/g16/l601.exe)
 Copying SCF densities to generalized density rwf, IOpCl= 0 IROHF=0.

 **********************************************************************

            Population analysis using the SCF Density.

 **********************************************************************

 Orbital symmetries:
       Occupied  (A) (A) (A) (A) (A) (A) (A) (A) (A) (A) (A) (A)
                 (A) (A) (A) (A) (A) (A) (A) (A) (A) (A) (A) (A)
                 (A) (A) (A) (A) (A) (A) (A) (A)
       Virtual   (A) (A) (A) (A) (A) (A) (A) (A) (A) (A) (A) (A)
                 (A) (A) (A) (A) (A) (A) (A) (A) (A) (A) (A) (A)
                 (A) (A) (A) (A) (A) (A) (A) (A) (A) (A) (A) (A)
                 (A) (A) (A) (A) (A) (A) (A) (A) (A) (A) (A) (A)
                 (A) (A) (A) (A) (A) (A) (A) (A) (A) (A) (A) (A)
                 (A) (A) (A) (A) (A) (A) (A) (A) (A) (A) (A) (A)
                 (A) (A) (A) (A) (A) (A) (A) (A) (A) (A) (A) (A)
                 (A) (A) (A) (A) (A) (A) (A) (A) (A) (A) (A) (A)
                 (A) (A) (A) (A) (A) (A) (A) (A) (A) (A) (A) (A)
                 (A) (A) (A) (A) (A) (A) (A) (A) (A) (A) (A) (A)
                 (A) (A) (A) (A) (A) (A) (A) (A) (A) (A) (A) (A)
                 (A) (A) (A) (A) (A) (A) (A) (A) (A) (A) (A) (A)
                 (A) (A) (A) (A) (A) (A) (A) (A) (A) (A) (A) (A)
                 (A) (A) (A) (A) (A) (A) (A) (A) (A) (A) (A) (A)
                 (A) (A) (A) (A) (A) (A) (A) (A) (A) (A) (A) (A)
                 (A) (A) (A) (A) (A) (A) (A) (A) (A) (A) (A) (A)
                 (A) (A) (A) (A) (A) (A) (A) (A) (A) (A) (A) (A)
                 (A) (A) (A) (A)
 The electronic state is 1-A.
 Alpha  occ. eigenvalues --  -19.31801 -19.23098 -10.43346 -10.31270 -10.29440
 Alpha  occ. eigenvalues --  -10.29353 -10.29038 -10.28957 -10.28744  -1.25918
 Alpha  occ. eigenvalues --   -1.10775  -0.98096  -0.88948  -0.87081  -0.80622
 Alpha  occ. eigenvalues --   -0.73456  -0.72176  -0.65860  -0.60691  -0.58699
 Alpha  occ. eigenvalues --   -0.57609  -0.55872  -0.54033  -0.53406  -0.49124
 Alpha  occ. eigenvalues --   -0.47464  -0.45476  -0.45074  -0.40857  -0.37070
 Alpha  occ. eigenvalues --   -0.34453  -0.33788
 Alpha virt. eigenvalues --    0.01934   0.03765   0.04222   0.04556   0.05192
 Alpha virt. eigenvalues --    0.06431   0.07408   0.08696   0.09353   0.10302
 Alpha virt. eigenvalues --    0.12260   0.12770   0.12858   0.14305   0.15048
 Alpha virt. eigenvalues --    0.16060   0.16328   0.17020   0.17258   0.17896
 Alpha virt. eigenvalues --    0.18511   0.19196   0.19293   0.20229   0.20263
 Alpha virt. eigenvalues --    0.20892   0.21027   0.21375   0.23114   0.23779
 Alpha virt. eigenvalues --    0.25842   0.26007   0.26540   0.27487   0.27741
 Alpha virt. eigenvalues --    0.29146   0.29434   0.30212   0.30786   0.31199
 Alpha virt. eigenvalues --    0.32398   0.34535   0.35088   0.35858   0.36396
 Alpha virt. eigenvalues --    0.36587   0.37936   0.38327   0.38936   0.40006
 Alpha virt. eigenvalues --    0.40734   0.41358   0.42537   0.43339   0.43932
 Alpha virt. eigenvalues --    0.44470   0.45720   0.50556   0.53693   0.56900
 Alpha virt. eigenvalues --    0.59450   0.61236   0.62032   0.63317   0.63699
 Alpha virt. eigenvalues --    0.64690   0.64758   0.66144   0.67661   0.69113
 Alpha virt. eigenvalues --    0.69898   0.71131   0.72698   0.74651   0.75924
 Alpha virt. eigenvalues --    0.77507   0.80393   0.81005   0.82142   0.83186
 Alpha virt. eigenvalues --    0.87258   0.87776   0.90305   0.91445   0.93719
 Alpha virt. eigenvalues --    0.93889   0.95746   0.96026   0.97735   1.00258
 Alpha virt. eigenvalues --    1.01274   1.02804   1.07980   1.08884   1.13516
 Alpha virt. eigenvalues --    1.13751   1.15515   1.17197   1.18902   1.20560
 Alpha virt. eigenvalues --    1.22049   1.24647   1.25542   1.27933   1.31398
 Alpha virt. eigenvalues --    1.36709   1.38162   1.44099   1.45595   1.54338
 Alpha virt. eigenvalues --    1.56652   1.58898   1.59209   1.61457   1.62120
 Alpha virt. eigenvalues --    1.65240   1.65783   1.67045   1.67366   1.74293
 Alpha virt. eigenvalues --    1.74932   1.75679   1.80437   1.83838   1.87434
 Alpha virt. eigenvalues --    1.88312   1.89032   1.90735   1.93275   1.98314
 Alpha virt. eigenvalues --    2.00725   2.02064   2.02922   2.04987   2.05442
 Alpha virt. eigenvalues --    2.06691   2.07312   2.13780   2.17789   2.18604
 Alpha virt. eigenvalues --    2.23414   2.25218   2.31981   2.44245   2.46820
 Alpha virt. eigenvalues --    2.52150   2.53273   2.54039   2.58070   2.62745
 Alpha virt. eigenvalues --    2.69309   2.70982   2.77149   2.79771   2.80940
 Alpha virt. eigenvalues --    2.82746   2.83608   2.88079   2.90391   2.90937
 Alpha virt. eigenvalues --    2.91311   2.91937   2.96552   2.98764   3.01004
 Alpha virt. eigenvalues --    3.01885   3.06686   3.08556   3.16463   3.18308
 Alpha virt. eigenvalues --    3.19521   3.22429   3.25212   3.28974   3.35318
 Alpha virt. eigenvalues --    3.39781   3.43131   3.48633   3.49491   3.63885
 Alpha virt. eigenvalues --    3.66100   3.69251   3.72903   3.84957   3.87620
 Alpha virt. eigenvalues --    4.05254   4.15334   4.27452   4.30358   4.35736
 Alpha virt. eigenvalues --    4.39149   4.40547   4.94995   5.09004   5.18301
 Alpha virt. eigenvalues --    5.27626   5.46946   5.77744   6.07438  23.84361
 Alpha virt. eigenvalues --   23.93876  24.14527  24.21324  24.28370  24.30240
 Alpha virt. eigenvalues --   24.41817  50.02693  50.13457
          Condensed to atoms (all electrons):
               1          2          3          4          5          6
     1  C   12.353608  -2.236481  -3.323365   1.537546  -0.003519  -2.377919
     2  C   -2.236481  10.940301   0.039784  -1.396575   0.377161  -0.706288
     3  C   -3.323365   0.039784  11.236192  -1.349897   0.104033  -0.240455
     4  C    1.537546  -1.396575  -1.349897   6.401841  -0.052208  -0.006711
     5  H   -0.003519   0.377161   0.104033  -0.052208   0.472688  -0.063639
     6  C   -2.377919  -0.706288  -0.240455  -0.006711  -0.063639   8.494528
     7  C    1.135587  -1.289457  -1.275376   0.971041  -0.003219  -0.007654
     8  H   -0.029464   0.110283   0.389333  -0.021415  -0.000943  -0.029109
     9  C   -1.711305   1.148677   1.323980  -0.585709   0.014624   0.059683
    10  H    0.031555  -0.041153  -0.021911   0.394178  -0.008912   0.008092
    11  O   -0.353209  -0.119133  -0.042063   0.048955  -0.015228   0.427256
    12  O   -0.116555   0.029866  -0.067131   0.018207  -0.002956   0.502522
    13  H    0.040276  -0.030119  -0.045356   0.003784   0.000773   0.003752
    14  H    0.003176   0.000402   0.004030  -0.030268  -0.000601  -0.009069
    15  H   -0.040882  -0.000461   0.011183  -0.006873  -0.001639   0.024351
               7          8          9         10         11         12
     1  C    1.135587  -0.029464  -1.711305   0.031555  -0.353209  -0.116555
     2  C   -1.289457   0.110283   1.148677  -0.041153  -0.119133   0.029866
     3  C   -1.275376   0.389333   1.323980  -0.021911  -0.042063  -0.067131
     4  C    0.971041  -0.021415  -0.585709   0.394178   0.048955   0.018207
     5  H   -0.003219  -0.000943   0.014624  -0.008912  -0.015228  -0.002956
     6  C   -0.007654  -0.029109   0.059683   0.008092   0.427256   0.502522
     7  C    6.681074  -0.081325  -0.564986  -0.007629   0.019037   0.020274
     8  H   -0.081325   0.451718   0.023471   0.000535  -0.003528   0.000968
     9  C   -0.564986   0.023471   6.394904  -0.024020  -0.020775  -0.002816
    10  H   -0.007629   0.000535  -0.024020   0.470934   0.000292   0.000211
    11  O    0.019037  -0.003528  -0.020775   0.000292   8.014645  -0.133281
    12  O    0.020274   0.000968  -0.002816   0.000211  -0.133281   8.063177
    13  H    0.408093  -0.010495  -0.039708  -0.001396  -0.000046  -0.000711
    14  H   -0.022878   0.000139   0.405683  -0.004693  -0.000378  -0.000143
    15  H   -0.002169   0.000216   0.000849   0.000049   0.300495  -0.006674
              13         14         15
     1  C    0.040276   0.003176  -0.040882
     2  C   -0.030119   0.000402  -0.000461
     3  C   -0.045356   0.004030   0.011183
     4  C    0.003784  -0.030268  -0.006873
     5  H    0.000773  -0.000601  -0.001639
     6  C    0.003752  -0.009069   0.024351
     7  C    0.408093  -0.022878  -0.002169
     8  H   -0.010495   0.000139   0.000216
     9  C   -0.039708   0.405683   0.000849
    10  H   -0.001396  -0.004693   0.000049
    11  O   -0.000046  -0.000378   0.300495
    12  O   -0.000711  -0.000143  -0.006674
    13  H    0.467713  -0.004999  -0.000064
    14  H   -0.004999   0.469093  -0.000054
    15  H   -0.000064  -0.000054   0.392771
 Mulliken charges:
               1
     1  C    1.090952
     2  C   -0.826808
     3  C   -0.742981
     4  C    0.074105
     5  H    0.183585
     6  C   -0.079341
     7  C    0.019588
     8  H    0.199617
     9  C   -0.422552
    10  H    0.203868
    11  O   -0.123039
    12  O   -0.304957
    13  H    0.208503
    14  H    0.190560
    15  H    0.328902
 Sum of Mulliken charges =  -0.00000
 Mulliken charges with hydrogens summed into heavy atoms:
               1
     1  C    1.090952
     2  C   -0.643224
     3  C   -0.543364
     4  C    0.277973
     6  C   -0.079341
     7  C    0.228090
     9  C   -0.231993
    11  O    0.205863
    12  O   -0.304957
 Electronic spatial extent (au):  <R**2>=           1158.2095
 Charge=             -0.0000 electrons
 Dipole moment (field-independent basis, Debye):
    X=              1.1905    Y=             -1.9510    Z=             -1.2801  Tot=              2.6196
 Quadrupole moment (field-independent basis, Debye-Ang):
   XX=            -43.2505   YY=            -48.8095   ZZ=            -55.4361
   XY=              6.7606   XZ=              4.1614   YZ=             -3.8804
 Traceless Quadrupole moment (field-independent basis, Debye-Ang):
   XX=              5.9149   YY=              0.3558   ZZ=             -6.2707
   XY=              6.7606   XZ=              4.1614   YZ=             -3.8804
 Octapole moment (field-independent basis, Debye-Ang**2):
  XXX=            -22.1853  YYY=             -2.7118  ZZZ=             -1.2928  XYY=              4.0501
  XXY=            -22.4974  XXZ=            -14.3731  XZZ=             -8.2712  YZZ=             -1.2225
  YYZ=             -1.5994  XYZ=              2.0976
 Hexadecapole moment (field-independent basis, Debye-Ang**3):
 XXXX=           -873.8923 YYYY=           -322.5825 ZZZZ=            -98.2368 XXXY=             76.2421
 XXXZ=             47.4167 YYYX=             11.1596 YYYZ=             -8.7552 ZZZX=              4.8566
 ZZZY=              2.8084 XXYY=           -223.7720 XXZZ=           -203.8766 YYZZ=            -78.1566
 XXYZ=             -9.3048 YYXZ=              4.8617 ZZXY=              3.9560
 N-N= 4.087940069029D+02 E-N=-1.801035600634D+03  KE= 4.201154284910D+02
 No NMR shielding tensors so no spin-rotation constants.
 Leave Link  601 at Sun Nov  6 23:00:53 2022, MaxMem= 16106127360 cpu:               3.2 elap:               0.1
 (Enter /opt/ap/G16/B01/g16/l9999.exe)
 1\1\GINC-N04\SP\RwB97XD\6-311++G(d,p)\C7H6O2\ROOT\06-Nov-2022\0\\#P wB
 97XD/6-311++G(d,p) scf=maxcycle=512\\_conf009.gjf nmol_natom 1_15\\0,1
 \C\C,1,1.39016191\C,1,1.39194539,2,119.895942\C,2,1.38669027,1,119.880
 75721,3,0.70825972,0\H,2,0.98744251,1,119.71654057,3,-179.90726164,0\C
 ,1,1.48428757,2,119.93615286,4,-179.87772406,0\C,3,1.40101108,1,119.72
 36454,2,-0.26266839,0\H,3,0.9902154,1,119.1886159,2,178.85397616,0\C,4
 ,1.37899003,2,120.45785903,1,-0.48041454,0\H,4,0.9834739,2,120.3044270
 6,1,179.36166981,0\O,6,1.27459751,1,118.00615353,2,-45.,0\O,6,1.263625
 72,1,118.77715367,2,135.,0\H,7,0.98977053,3,119.37861578,1,-178.935457
 41,0\H,9,0.99498061,4,119.46722635,2,-178.58826714,0\H,11,0.89680392,6
 ,118.15823763,1,176.92714093,0\\Version=ES64L-G16RevB.01\State=1-A\HF=
 -420.7423379\RMSD=8.451e-09\Dipole=0.1031178,-0.6317768,0.8077368\Quad
 rupole=7.2190448,-5.3993631,-1.8196817,2.8731288,-1.0256752,3.4835302\
 PG=C01 [X(C7H6O2)]\\@


 ... I FELL INTO A REVERIE ... THE ATOMS WERE GAMBOLING BEFORE MY EYES
 ... I SAW HOW TWO SMALL ONES UNITED TO FORM A PAIR;
 HOW THE LARGER ONES SEIZED TWO OF THE SMALLER ONES;
 HOW STILL LARGER ONES KEPT HOLD OF THREE OR FOUR
 SMALLER ONES ... I SAW HOW THE LARGER ONES FORMED A CHAIN ...
 THIS WAS THE ORIGIN OF THE STRUCTURE THEORY.

                                   -- C.F.KEKULE VON STRADONITZ
 Job cpu time:       0 days  0 hours  7 minutes 23.2 seconds.
 Elapsed time:       0 days  0 hours  0 minutes 14.0 seconds.
 File lengths (MBytes):  RWF=     35 Int=      0 D2E=      0 Chk=      4 Scr=      1
 Normal termination of Gaussian 16 at Sun Nov  6 23:00:53 2022.
