 Entering Gaussian System, Link 0=g16
 Input=_conf019.gjf
 Output=_conf019.log
 Initial command:
 /opt/ap/G16/B01/g16/l1.exe "/tmp2/scr/Gau-991.inp" -scrdir="/tmp2/scr/"
 Entering Link 1 = /opt/ap/G16/B01/g16/l1.exe PID=       992.
  
 Copyright (c) 1988-2017, Gaussian, Inc.  All Rights Reserved.
  
 This is part of the Gaussian(R) 16 program.  It is based on
 the Gaussian(R) 09 system (copyright 2009, Gaussian, Inc.),
 the Gaussian(R) 03 system (copyright 2003, Gaussian, Inc.),
 the Gaussian(R) 98 system (copyright 1998, Gaussian, Inc.),
 the Gaussian(R) 94 system (copyright 1995, Gaussian, Inc.),
 the Gaussian 92(TM) system (copyright 1992, Gaussian, Inc.),
 the Gaussian 90(TM) system (copyright 1990, Gaussian, Inc.),
 the Gaussian 88(TM) system (copyright 1988, Gaussian, Inc.),
 the Gaussian 86(TM) system (copyright 1986, Carnegie Mellon
 University), and the Gaussian 82(TM) system (copyright 1983,
 Carnegie Mellon University). Gaussian is a federally registered
 trademark of Gaussian, Inc.
  
 This software contains proprietary and confidential information,
 including trade secrets, belonging to Gaussian, Inc.
  
 This software is provided under written license and may be
 used, copied, transmitted, or stored only in accord with that
 written license.
  
 The following legend is applicable only to US Government
 contracts under FAR:
  
                    RESTRICTED RIGHTS LEGEND
  
 Use, reproduction and disclosure by the US Government is
 subject to restrictions as set forth in subparagraphs (a)
 and (c) of the Commercial Computer Software - Restricted
 Rights clause in FAR 52.227-19.
  
 Gaussian, Inc.
 340 Quinnipiac St., Bldg. 40, Wallingford CT 06492
  
  
 ---------------------------------------------------------------
 Warning -- This program may not be used in any manner that
 competes with the business of Gaussian, Inc. or will provide
 assistance to any competitor of Gaussian, Inc.  The licensee
 of this program is prohibited from giving any competitor of
 Gaussian, Inc. access to this program.  By using this program,
 the user acknowledges that Gaussian, Inc. is engaged in the
 business of creating and licensing software in the field of
 computational chemistry and represents and warrants to the
 licensee that it is not a competitor of Gaussian, Inc. and that
 it will not use this program in any manner prohibited above.
 ---------------------------------------------------------------
  

 Cite this work as:
 Gaussian 16, Revision B.01,
 M. J. Frisch, G. W. Trucks, H. B. Schlegel, G. E. Scuseria, 
 M. A. Robb, J. R. Cheeseman, G. Scalmani, V. Barone, 
 G. A. Petersson, H. Nakatsuji, X. Li, M. Caricato, A. V. Marenich, 
 J. Bloino, B. G. Janesko, R. Gomperts, B. Mennucci, H. P. Hratchian, 
 J. V. Ortiz, A. F. Izmaylov, J. L. Sonnenberg, D. Williams-Young, 
 F. Ding, F. Lipparini, F. Egidi, J. Goings, B. Peng, A. Petrone, 
 T. Henderson, D. Ranasinghe, V. G. Zakrzewski, J. Gao, N. Rega, 
 G. Zheng, W. Liang, M. Hada, M. Ehara, K. Toyota, R. Fukuda, 
 J. Hasegawa, M. Ishida, T. Nakajima, Y. Honda, O. Kitao, H. Nakai, 
 T. Vreven, K. Throssell, J. A. Montgomery, Jr., J. E. Peralta, 
 F. Ogliaro, M. J. Bearpark, J. J. Heyd, E. N. Brothers, K. N. Kudin, 
 V. N. Staroverov, T. A. Keith, R. Kobayashi, J. Normand, 
 K. Raghavachari, A. P. Rendell, J. C. Burant, S. S. Iyengar, 
 J. Tomasi, M. Cossi, J. M. Millam, M. Klene, C. Adamo, R. Cammi, 
 J. W. Ochterski, R. L. Martin, K. Morokuma, O. Farkas, 
 J. B. Foresman, and D. J. Fox, Gaussian, Inc., Wallingford CT, 2016.
 
 ******************************************
 Gaussian 16:  ES64L-G16RevB.01 20-Dec-2017
                 6-Nov-2022 
 ******************************************
 %nprocshared=32
 Will use up to   32 processors via shared memory.
 %mem=120GB
 %chk=_conf019.chk
 ----------------------------------------
 #P wB97XD/6-311++G(d,p) scf=maxcycle=512
 ----------------------------------------
 1/38=1,172=1/1;
 2/12=2,17=6,18=5,40=1/2;
 3/5=4,6=6,7=1111,11=2,25=1,30=1,74=-58/1,2,3;
 4//1;
 5/5=2,7=512,38=5/2;
 6/7=2,8=2,9=2,10=2,28=1/1;
 99/5=1,9=1/99;
 Leave Link    1 at Sun Nov  6 23:01:06 2022, MaxMem= 16106127360 cpu:               2.3 elap:               0.1
 (Enter /opt/ap/G16/B01/g16/l101.exe)
 ----------------------------
 _conf019.gjf nmol_natom 1_15
 ----------------------------
 Symbolic Z-matrix:
 Charge =  0 Multiplicity = 1
 C
 C                    1     1.39016 
 C                    1     1.39195  2     119.89594 
 C                    2     1.38669  1     119.88076  3     0.70826  0
 H                    2     0.98744  1     119.71654  3    -179.90726  0
 C                    1     1.48429  2     119.93615  4    -179.87772  0
 C                    3     1.40101  1     119.72365  2    -0.26267  0
 H                    3     0.99022  1     119.18862  2     178.85398  0
 C                    4     1.37899  2     120.45786  1    -0.48041  0
 H                    4     0.98347  2     120.30443  1     179.36167  0
 O                    6     1.2746   1     118.00615  2     5.       0
 O                    6     1.26363  1     118.77715  2    -175.     0
 H                    7     0.98977  3     119.37862  1    -178.93546  0
 H                    9     0.99498  4     119.46723  2    -178.58827  0
 H                    11    0.8968   6     118.15824  1     176.92714  0
 
 ITRead=  0  0  0  0  0  0  0  0  0  0  0  0  0  0  0
 MicOpt= -1 -1 -1 -1 -1 -1 -1 -1 -1 -1 -1 -1 -1 -1 -1
 NAtoms=     15 NQM=       15 NQMF=       0 NMMI=      0 NMMIF=      0
                NMic=       0 NMicF=      0.
                    Isotopes and Nuclear Properties:
 (Nuclear quadrupole moments (NQMom) in fm**2, nuclear magnetic moments (NMagM)
  in nuclear magnetons)

  Atom         1           2           3           4           5           6           7           8           9          10
 IAtWgt=          12          12          12          12           1          12          12           1          12           1
 AtmWgt=  12.0000000  12.0000000  12.0000000  12.0000000   1.0078250  12.0000000  12.0000000   1.0078250  12.0000000   1.0078250
 NucSpn=           0           0           0           0           1           0           0           1           0           1
 AtZEff=  -0.0000000  -0.0000000  -0.0000000  -0.0000000  -0.0000000  -0.0000000  -0.0000000  -0.0000000  -0.0000000  -0.0000000
 NQMom=    0.0000000   0.0000000   0.0000000   0.0000000   0.0000000   0.0000000   0.0000000   0.0000000   0.0000000   0.0000000
 NMagM=    0.0000000   0.0000000   0.0000000   0.0000000   2.7928460   0.0000000   0.0000000   2.7928460   0.0000000   2.7928460
 AtZNuc=   6.0000000   6.0000000   6.0000000   6.0000000   1.0000000   6.0000000   6.0000000   1.0000000   6.0000000   1.0000000

  Atom        11          12          13          14          15
 IAtWgt=          16          16           1           1           1
 AtmWgt=  15.9949146  15.9949146   1.0078250   1.0078250   1.0078250
 NucSpn=           0           0           1           1           1
 AtZEff=  -0.0000000  -0.0000000  -0.0000000  -0.0000000  -0.0000000
 NQMom=    0.0000000   0.0000000   0.0000000   0.0000000   0.0000000
 NMagM=    0.0000000   0.0000000   2.7928460   2.7928460   2.7928460
 AtZNuc=   8.0000000   8.0000000   1.0000000   1.0000000   1.0000000
 Leave Link  101 at Sun Nov  6 23:01:07 2022, MaxMem= 16106127360 cpu:               5.9 elap:               0.2
 (Enter /opt/ap/G16/B01/g16/l202.exe)
                          Input orientation:                          
 ---------------------------------------------------------------------
 Center     Atomic      Atomic             Coordinates (Angstroms)
 Number     Number       Type             X           Y           Z
 ---------------------------------------------------------------------
      1          6           0        0.000000    0.000000    0.000000
      2          6           0        0.000000    0.000000    1.390162
      3          6           0        1.206722    0.000000   -0.693782
      4          6           0        1.202258    0.014862    2.081006
      5          1           0       -0.857581   -0.001388    1.879646
      6          6           0       -1.286190   -0.013155   -0.740711
      7          6           0        2.415349    0.005578    0.014752
      8          1           0        1.194584   -0.017290   -1.683772
      9          6           0        2.400563    0.019708    1.398617
     10          1           0        1.209438    0.024411    3.064408
     11          8           0       -2.365239    0.073894   -0.067900
     12          8           0       -1.261748   -0.109441   -2.000426
     13          1           0        3.270315    0.021574   -0.483669
     14          1           0        3.254554    0.009066    1.909081
     15          1           0       -3.141520    0.108433   -0.515619
 ---------------------------------------------------------------------
                    Distance matrix (angstroms):
                    1          2          3          4          5
     1  C    0.000000
     2  C    1.390162   0.000000
     3  C    1.391945   2.408112   0.000000
     4  C    2.403379   1.386690   2.774832   0.000000
     5  H    2.066039   0.987443   3.299073   2.069721   0.000000
     6  C    1.484288   2.488991   2.493388   3.762345   2.655206
     7  C    2.415401   2.779513   1.401011   2.396056   3.766955
     8  H    2.064563   3.297939   0.990215   3.764924   4.112127
     9  C    2.778349   2.400659   2.409104   1.378990   3.293530
    10  H    3.294530   2.065535   3.758270   0.983474   2.382624
    11  O    2.367367   2.779525   3.627133   4.165130   2.464069
    12  O    2.367633   3.619402   2.795109   4.769157   3.902562
    13  H    3.305958   3.769173   2.074374   3.294611   4.756607
    14  H    3.773167   3.295676   3.311886   2.059493   4.112253
    15  H    3.185399   3.675990   4.353241   5.061582   3.311455
                    6          7          8          9         10
     6  C    0.000000
     7  C    3.777892   0.000000
     8  H    2.653982   2.091836   0.000000
     9  C    4.262622   1.384016   3.310118   0.000000
    10  H    4.550659   3.279477   4.748386   2.047842   0.000000
    11  O    1.274598   4.781790   3.910460   4.986629   4.753116
    12  O    1.263626   4.194665   2.478372   4.998269   5.637128
    13  H    4.563881   0.989771   2.398003   2.073517   4.103177
    14  H    5.257398   2.071897   4.141589   0.994981   2.348938
    15  H    1.872885   5.583069   4.492459   5.864030   5.635112
                   11         12         13         14         15
    11  O    0.000000
    12  O    2.232926   0.000000
    13  H    5.651112   4.780932   0.000000
    14  H    5.957745   5.974551   2.392834   0.000000
    15  H    0.896804   2.405340   6.412502   6.840964   0.000000
 Stoichiometry    C7H6O2
 Framework group  C1[X(C7H6O2)]
 Deg. of freedom    39
 Full point group                 C1      NOp   1
 Largest Abelian subgroup         C1      NOp   1
 Largest concise Abelian subgroup C1      NOp   1
                         Standard orientation:                         
 ---------------------------------------------------------------------
 Center     Atomic      Atomic             Coordinates (Angstroms)
 Number     Number       Type             X           Y           Z
 ---------------------------------------------------------------------
      1          6           0        0.220627    0.028002   -0.001456
      2          6           0       -0.443713   -1.192643    0.033593
      3          6           0       -0.507818    1.213806   -0.028803
      4          6           0       -1.830004   -1.225144    0.026335
      5          1           0        0.075682   -2.032192    0.054326
      6          6           0        1.704466    0.064137    0.003523
      7          6           0       -1.908112    1.169058   -0.026386
      8          1           0       -0.023969    2.077727   -0.036380
      9          6           0       -2.556523   -0.053492   -0.005500
     10          1           0       -2.306312   -2.085446    0.041525
     11          8           0        2.330359   -1.044513   -0.057719
     12          8           0        2.285466    1.184430    0.067815
     13          1           0       -2.421010    2.014823   -0.061926
     14          1           0       -3.550568   -0.093359    0.011034
     15          1           0        3.226041   -1.023228   -0.097194
 ---------------------------------------------------------------------
 Rotational constants (GHZ):           3.9688906           1.2383391           0.9445046
 Leave Link  202 at Sun Nov  6 23:01:07 2022, MaxMem= 16106127360 cpu:               0.2 elap:               0.0
 (Enter /opt/ap/G16/B01/g16/l301.exe)
 Standard basis: 6-311++G(d,p) (5D, 7F)
 Ernie: Thresh=  0.10000D-02 Tol=  0.10000D-05 Strict=F.
 There are   249 symmetry adapted cartesian basis functions of A   symmetry.
 There are   240 symmetry adapted basis functions of A   symmetry.
   240 basis functions,   378 primitive gaussians,   249 cartesian basis functions
    32 alpha electrons       32 beta electrons
       nuclear repulsion energy       409.5514010802 Hartrees.
 IExCor= 4639 DFT=T Ex+Corr=wB97XD ExCW=0 ScaHFX=  1.000000
 ScaDFX=  1.000000  1.000000  1.000000  1.000000 ScalE2=  1.000000  1.000000
 IRadAn=      5 IRanWt=     -1 IRanGd=            0 ICorTp=0 IEmpDi=121
 HFx  wShort=  0.000000 wLong=  0.200000 cFull=  0.222036 cShort=  0.000000 cLong=  0.777964
 DFx  wShort=  0.000000 wLong=  0.200000 cFull=  0.000000 cShort=  0.000000 cLong=  1.000000
 NAtoms=   15 NActive=   15 NUniq=   15 SFac= 1.00D+00 NAtFMM=   60 NAOKFM=F Big=F
 Integral buffers will be    131072 words long.
 Raffenetti 2 integral format.
 Two-electron integral symmetry is turned on.
 R6Disp:  Grimme-D2 Dispersion energy=       -0.0063270733 Hartrees.
 Nuclear repulsion after empirical dispersion term =      409.5450740069 Hartrees.
 Leave Link  301 at Sun Nov  6 23:01:07 2022, MaxMem= 16106127360 cpu:               1.2 elap:               0.0
 (Enter /opt/ap/G16/B01/g16/l302.exe)
 NPDir=0 NMtPBC=     1 NCelOv=     1 NCel=       1 NClECP=     1 NCelD=      1
         NCelK=      1 NCelE2=     1 NClLst=     1 CellRange=     0.0.
 One-electron integrals computed using PRISM.
 One-electron integral symmetry used in STVInt
 NBasis=   240 RedAO= T EigKep=  1.21D-06  NBF=   240
 NBsUse=   240 1.00D-06 EigRej= -1.00D+00 NBFU=   240
 Precomputing XC quadrature grid using
 IXCGrd= 4 IRadAn=           5 IRanWt=          -1 IRanGd=           0 AccXCQ= 0.00D+00.
 Generated NRdTot=       0 NPtTot=           0 NUsed=           0 NTot=          32
 NSgBfM=   249   249   249   249   249 MxSgAt=    15 MxSgA2=    15.
 Leave Link  302 at Sun Nov  6 23:01:07 2022, MaxMem= 16106127360 cpu:               5.2 elap:               0.2
 (Enter /opt/ap/G16/B01/g16/l303.exe)
 DipDrv:  MaxL=1.
 Leave Link  303 at Sun Nov  6 23:01:07 2022, MaxMem= 16106127360 cpu:               1.3 elap:               0.0
 (Enter /opt/ap/G16/B01/g16/l401.exe)
 ExpMin= 3.60D-02 ExpMax= 8.59D+03 ExpMxC= 1.30D+03 IAcc=3 IRadAn=         5 AccDes= 0.00D+00
 Harris functional with IExCor= 4639 and IRadAn=       5 diagonalized for initial guess.
 HarFok:  IExCor= 4639 AccDes= 0.00D+00 IRadAn=         5 IDoV= 1 UseB2=F ITyADJ=14
 ICtDFT=  3500011 ScaDFX=  1.000000  1.000000  1.000000  1.000000
 FoFCou: FMM=F IPFlag=           0 FMFlag=      100000 FMFlg1=           0
         NFxFlg=           0 DoJE=T BraDBF=F KetDBF=T FulRan=T
         wScrn=  0.000000 ICntrl=       500 IOpCl=  0 I1Cent=   200000004 NGrid=           0
         NMat0=    1 NMatS0=      1 NMatT0=    0 NMatD0=    1 NMtDS0=    0 NMtDT0=    0
 Petite list used in FoFCou.
 Harris En= -403.254838609183    
 JPrj=0 DoOrth=F DoCkMO=F.
 Leave Link  401 at Sun Nov  6 23:01:07 2022, MaxMem= 16106127360 cpu:              12.4 elap:               0.4
 (Enter /opt/ap/G16/B01/g16/l502.exe)
 Integral symmetry usage will be decided dynamically.
 Closed shell SCF:
 Using DIIS extrapolation, IDIIS=  1040.
 NGot= 16106127360 LenX= 16105992971 LenY= 16105930529
 Requested convergence on RMS density matrix=1.00D-08 within 512 cycles.
 Requested convergence on MAX density matrix=1.00D-06.
 Requested convergence on             energy=1.00D-06.
 No special actions if energy rises.
 Fock matrices will be formed incrementally for  20 cycles.

 Cycle   1  Pass 1  IDiag  1:
 FoFJK:  IHMeth= 1 ICntrl=       0 DoSepK=T KAlg= 0 I1Cent=           0 FoldK=F
 IRaf=         1 NMat=       1 IRICut=       1 DoRegI=T DoRafI=F ISym2E= 0 IDoP0=0 IntGTp=1.
 FoFCou: FMM=F IPFlag=           0 FMFlag=      100000 FMFlg1=           0
         NFxFlg=           0 DoJE=T BraDBF=F KetDBF=F FulRan=T
         wScrn=  0.000000 ICntrl=       500 IOpCl=  0 I1Cent=           0 NGrid=           0
         NMat0=    1 NMatS0=      1 NMatT0=    0 NMatD0=    1 NMtDS0=    0 NMtDT0=    0
 Symmetry not used in FoFCou.
 E= -420.632586507027    
 DIIS: error= 8.23D-02 at cycle   1 NSaved=   1.
 NSaved= 1 IEnMin= 1 EnMin= -420.632586507027     IErMin= 1 ErrMin= 8.23D-02
 ErrMax= 8.23D-02  0.00D+00 EMaxC= 1.00D-01 BMatC= 8.61D-01 BMatP= 8.61D-01
 IDIUse=3 WtCom= 1.77D-01 WtEn= 8.23D-01
 Coeff-Com:  0.100D+01
 Coeff-En:   0.100D+01
 Coeff:      0.100D+01
 Gap=     0.427 Goal=   None    Shift=    0.000
 GapD=    0.427 DampG=2.000 DampE=0.500 DampFc=1.0000 IDamp=-1.
 RMSDP=3.31D-02 MaxDP=2.81D+00              OVMax= 1.11D-01

 Cycle   2  Pass 1  IDiag  1:
 RMSU=  1.43D-02    CP:  6.70D-01
 E= -420.703385777232     Delta-E=       -0.070799270204 Rises=F Damp=F
 DIIS: error= 1.62D-02 at cycle   2 NSaved=   2.
 NSaved= 2 IEnMin= 2 EnMin= -420.703385777232     IErMin= 2 ErrMin= 1.62D-02
 ErrMax= 1.62D-02  0.00D+00 EMaxC= 1.00D-01 BMatC= 5.75D-02 BMatP= 8.61D-01
 IDIUse=3 WtCom= 8.38D-01 WtEn= 1.62D-01
 Coeff-Com:  0.136D+00 0.864D+00
 Coeff-En:   0.994D-01 0.901D+00
 Coeff:      0.130D+00 0.870D+00
 Gap=     0.424 Goal=   None    Shift=    0.000
 RMSDP=6.94D-03 MaxDP=2.67D-01 DE=-7.08D-02 OVMax= 7.83D-02

 Cycle   3  Pass 1  IDiag  1:
 RMSU=  6.48D-03    CP:  6.55D-01  8.56D-01
 E= -420.719593420997     Delta-E=       -0.016207643765 Rises=F Damp=F
 DIIS: error= 1.71D-02 at cycle   3 NSaved=   3.
 NSaved= 3 IEnMin= 3 EnMin= -420.719593420997     IErMin= 2 ErrMin= 1.62D-02
 ErrMax= 1.71D-02  0.00D+00 EMaxC= 1.00D-01 BMatC= 3.61D-02 BMatP= 5.75D-02
 IDIUse=3 WtCom= 8.29D-01 WtEn= 1.71D-01
 Coeff-Com:  0.276D-01 0.447D+00 0.525D+00
 Coeff-En:   0.000D+00 0.384D+00 0.616D+00
 Coeff:      0.229D-01 0.437D+00 0.541D+00
 Gap=     0.360 Goal=   None    Shift=    0.000
 RMSDP=4.09D-03 MaxDP=3.81D-01 DE=-1.62D-02 OVMax= 5.43D-02

 Cycle   4  Pass 1  IDiag  1:
 RMSU=  2.24D-03    CP:  6.31D-01  9.17D-01  6.12D-01
 E= -420.745784788830     Delta-E=       -0.026191367832 Rises=F Damp=F
 DIIS: error= 3.26D-03 at cycle   4 NSaved=   4.
 NSaved= 4 IEnMin= 4 EnMin= -420.745784788830     IErMin= 4 ErrMin= 3.26D-03
 ErrMax= 3.26D-03  0.00D+00 EMaxC= 1.00D-01 BMatC= 1.99D-03 BMatP= 3.61D-02
 IDIUse=3 WtCom= 9.67D-01 WtEn= 3.26D-02
 Coeff-Com:  0.105D-01 0.222D+00 0.306D+00 0.462D+00
 Coeff-En:   0.000D+00 0.000D+00 0.000D+00 0.100D+01
 Coeff:      0.101D-01 0.215D+00 0.296D+00 0.480D+00
 Gap=     0.352 Goal=   None    Shift=    0.000
 RMSDP=9.36D-04 MaxDP=5.66D-02 DE=-2.62D-02 OVMax= 1.27D-02

 Cycle   5  Pass 1  IDiag  1:
 RMSU=  7.46D-04    CP:  6.30D-01  9.06D-01  6.70D-01  8.39D-01
 E= -420.747128625815     Delta-E=       -0.001343836985 Rises=F Damp=F
 DIIS: error= 6.28D-04 at cycle   5 NSaved=   5.
 NSaved= 5 IEnMin= 5 EnMin= -420.747128625815     IErMin= 5 ErrMin= 6.28D-04
 ErrMax= 6.28D-04  0.00D+00 EMaxC= 1.00D-01 BMatC= 5.55D-05 BMatP= 1.99D-03
 IDIUse=3 WtCom= 9.94D-01 WtEn= 6.28D-03
 Coeff-Com:  0.310D-03 0.153D-01 0.305D-01 0.156D+00 0.798D+00
 Coeff-En:   0.000D+00 0.000D+00 0.000D+00 0.000D+00 0.100D+01
 Coeff:      0.308D-03 0.152D-01 0.303D-01 0.155D+00 0.799D+00
 Gap=     0.350 Goal=   None    Shift=    0.000
 RMSDP=2.51D-04 MaxDP=1.62D-02 DE=-1.34D-03 OVMax= 2.61D-03

 Cycle   6  Pass 1  IDiag  1:
 RMSU=  1.27D-04    CP:  6.28D-01  9.11D-01  6.83D-01  8.71D-01  9.99D-01
 E= -420.747171229531     Delta-E=       -0.000042603716 Rises=F Damp=F
 DIIS: error= 2.16D-04 at cycle   6 NSaved=   6.
 NSaved= 6 IEnMin= 6 EnMin= -420.747171229531     IErMin= 6 ErrMin= 2.16D-04
 ErrMax= 2.16D-04  0.00D+00 EMaxC= 1.00D-01 BMatC= 7.44D-06 BMatP= 5.55D-05
 IDIUse=3 WtCom= 9.98D-01 WtEn= 2.16D-03
 Coeff-Com: -0.963D-03-0.165D-01-0.179D-01 0.160D-01 0.346D+00 0.673D+00
 Coeff-En:   0.000D+00 0.000D+00 0.000D+00 0.000D+00 0.000D+00 0.100D+01
 Coeff:     -0.961D-03-0.165D-01-0.179D-01 0.160D-01 0.345D+00 0.674D+00
 Gap=     0.350 Goal=   None    Shift=    0.000
 RMSDP=1.89D-04 MaxDP=1.89D-02 DE=-4.26D-05 OVMax= 8.51D-04

 Cycle   7  Pass 1  IDiag  1:
 RMSU=  5.86D-05    CP:  6.26D-01  9.09D-01  6.91D-01  8.84D-01  1.07D+00
                    CP:  1.14D+00
 E= -420.747178427108     Delta-E=       -0.000007197576 Rises=F Damp=F
 DIIS: error= 6.79D-05 at cycle   7 NSaved=   7.
 NSaved= 7 IEnMin= 7 EnMin= -420.747178427108     IErMin= 7 ErrMin= 6.79D-05
 ErrMax= 6.79D-05  0.00D+00 EMaxC= 1.00D-01 BMatC= 3.11D-07 BMatP= 7.44D-06
 IDIUse=1 WtCom= 1.00D+00 WtEn= 0.00D+00
 Coeff-Com: -0.234D-03-0.544D-02-0.682D-02-0.134D-01-0.338D-03 0.134D+00
 Coeff-Com:  0.892D+00
 Coeff:     -0.234D-03-0.544D-02-0.682D-02-0.134D-01-0.338D-03 0.134D+00
 Coeff:      0.892D+00
 Gap=     0.350 Goal=   None    Shift=    0.000
 RMSDP=4.67D-05 MaxDP=3.47D-03 DE=-7.20D-06 OVMax= 3.12D-04

 Cycle   8  Pass 1  IDiag  1:
 RMSU=  1.34D-05    CP:  6.26D-01  9.09D-01  6.94D-01  8.87D-01  1.11D+00
                    CP:  1.18D+00  1.05D+00
 E= -420.747178997358     Delta-E=       -0.000000570250 Rises=F Damp=F
 DIIS: error= 1.41D-05 at cycle   8 NSaved=   8.
 NSaved= 8 IEnMin= 8 EnMin= -420.747178997358     IErMin= 8 ErrMin= 1.41D-05
 ErrMax= 1.41D-05  0.00D+00 EMaxC= 1.00D-01 BMatC= 4.10D-08 BMatP= 3.11D-07
 IDIUse=1 WtCom= 1.00D+00 WtEn= 0.00D+00
 Coeff-Com:  0.309D-04 0.266D-03 0.150D-03-0.594D-02-0.375D-01-0.374D-01
 Coeff-Com:  0.241D+00 0.840D+00
 Coeff:      0.309D-04 0.266D-03 0.150D-03-0.594D-02-0.375D-01-0.374D-01
 Coeff:      0.241D+00 0.840D+00
 Gap=     0.350 Goal=   None    Shift=    0.000
 RMSDP=1.35D-05 MaxDP=7.03D-04 DE=-5.70D-07 OVMax= 1.15D-04

 Cycle   9  Pass 1  IDiag  1:
 RMSU=  4.67D-06    CP:  6.26D-01  9.09D-01  6.95D-01  8.85D-01  1.12D+00
                    CP:  1.20D+00  1.13D+00  1.15D+00
 E= -420.747179069083     Delta-E=       -0.000000071725 Rises=F Damp=F
 DIIS: error= 1.03D-05 at cycle   9 NSaved=   9.
 NSaved= 9 IEnMin= 9 EnMin= -420.747179069083     IErMin= 9 ErrMin= 1.03D-05
 ErrMax= 1.03D-05  0.00D+00 EMaxC= 1.00D-01 BMatC= 4.59D-09 BMatP= 4.10D-08
 IDIUse=1 WtCom= 1.00D+00 WtEn= 0.00D+00
 Coeff-Com:  0.364D-04 0.695D-03 0.851D-03-0.336D-03-0.100D-01-0.263D-01
 Coeff-Com: -0.281D-01 0.245D+00 0.818D+00
 Coeff:      0.364D-04 0.695D-03 0.851D-03-0.336D-03-0.100D-01-0.263D-01
 Coeff:     -0.281D-01 0.245D+00 0.818D+00
 Gap=     0.350 Goal=   None    Shift=    0.000
 RMSDP=5.24D-06 MaxDP=3.46D-04 DE=-7.17D-08 OVMax= 4.87D-05

 Cycle  10  Pass 1  IDiag  1:
 RMSU=  1.51D-06    CP:  6.26D-01  9.09D-01  6.95D-01  8.83D-01  1.12D+00
                    CP:  1.21D+00  1.16D+00  1.25D+00  1.25D+00
 E= -420.747179077272     Delta-E=       -0.000000008189 Rises=F Damp=F
 DIIS: error= 1.56D-06 at cycle  10 NSaved=  10.
 NSaved=10 IEnMin=10 EnMin= -420.747179077272     IErMin=10 ErrMin= 1.56D-06
 ErrMax= 1.56D-06  0.00D+00 EMaxC= 1.00D-01 BMatC= 5.60D-10 BMatP= 4.59D-09
 IDIUse=1 WtCom= 1.00D+00 WtEn= 0.00D+00
 Coeff-Com:  0.613D-05 0.137D-03 0.194D-03 0.429D-03 0.138D-02-0.363D-02
 Coeff-Com: -0.301D-01-0.281D-01 0.221D+00 0.838D+00
 Coeff:      0.613D-05 0.137D-03 0.194D-03 0.429D-03 0.138D-02-0.363D-02
 Coeff:     -0.301D-01-0.281D-01 0.221D+00 0.838D+00
 Gap=     0.350 Goal=   None    Shift=    0.000
 RMSDP=1.75D-06 MaxDP=9.57D-05 DE=-8.19D-09 OVMax= 1.34D-05

 Cycle  11  Pass 1  IDiag  1:
 RMSU=  4.30D-07    CP:  6.26D-01  9.09D-01  6.95D-01  8.82D-01  1.12D+00
                    CP:  1.20D+00  1.16D+00  1.30D+00  1.37D+00  1.23D+00
 E= -420.747179078186     Delta-E=       -0.000000000914 Rises=F Damp=F
 DIIS: error= 1.03D-06 at cycle  11 NSaved=  11.
 NSaved=11 IEnMin=11 EnMin= -420.747179078186     IErMin=11 ErrMin= 1.03D-06
 ErrMax= 1.03D-06  0.00D+00 EMaxC= 1.00D-01 BMatC= 1.01D-10 BMatP= 5.60D-10
 IDIUse=1 WtCom= 1.00D+00 WtEn= 0.00D+00
 Coeff-Com: -0.150D-05-0.117D-04 0.902D-06 0.248D-03 0.188D-02 0.135D-02
 Coeff-Com: -0.826D-02-0.458D-01-0.141D-01 0.338D+00 0.727D+00
 Coeff:     -0.150D-05-0.117D-04 0.902D-06 0.248D-03 0.188D-02 0.135D-02
 Coeff:     -0.826D-02-0.458D-01-0.141D-01 0.338D+00 0.727D+00
 Gap=     0.350 Goal=   None    Shift=    0.000
 RMSDP=6.68D-07 MaxDP=3.80D-05 DE=-9.14D-10 OVMax= 6.84D-06

 Cycle  12  Pass 1  IDiag  1:
 RMSU=  2.13D-07    CP:  6.26D-01  9.08D-01  6.95D-01  8.82D-01  1.12D+00
                    CP:  1.20D+00  1.17D+00  1.30D+00  1.42D+00  1.38D+00
                    CP:  1.06D+00
 E= -420.747179078323     Delta-E=       -0.000000000137 Rises=F Damp=F
 DIIS: error= 2.35D-07 at cycle  12 NSaved=  12.
 NSaved=12 IEnMin=12 EnMin= -420.747179078323     IErMin=12 ErrMin= 2.35D-07
 ErrMax= 2.35D-07  0.00D+00 EMaxC= 1.00D-01 BMatC= 7.80D-12 BMatP= 1.01D-10
 IDIUse=1 WtCom= 1.00D+00 WtEn= 0.00D+00
 Coeff-Com: -0.961D-06-0.153D-04-0.159D-04 0.387D-04 0.441D-03 0.583D-03
 Coeff-Com:  0.699D-03-0.113D-01-0.223D-01 0.234D-01 0.200D+00 0.808D+00
 Coeff:     -0.961D-06-0.153D-04-0.159D-04 0.387D-04 0.441D-03 0.583D-03
 Coeff:      0.699D-03-0.113D-01-0.223D-01 0.234D-01 0.200D+00 0.808D+00
 Gap=     0.350 Goal=   None    Shift=    0.000
 RMSDP=1.61D-07 MaxDP=1.11D-05 DE=-1.37D-10 OVMax= 2.22D-06

 Cycle  13  Pass 1  IDiag  1:
 RMSU=  6.80D-08    CP:  6.26D-01  9.08D-01  6.95D-01  8.82D-01  1.12D+00
                    CP:  1.20D+00  1.17D+00  1.30D+00  1.43D+00  1.40D+00
                    CP:  1.14D+00  1.02D+00
 E= -420.747179078334     Delta-E=       -0.000000000011 Rises=F Damp=F
 DIIS: error= 1.28D-07 at cycle  13 NSaved=  13.
 NSaved=13 IEnMin=13 EnMin= -420.747179078334     IErMin=13 ErrMin= 1.28D-07
 ErrMax= 1.28D-07  0.00D+00 EMaxC= 1.00D-01 BMatC= 1.40D-12 BMatP= 7.80D-12
 IDIUse=1 WtCom= 1.00D+00 WtEn= 0.00D+00
 Coeff-Com:  0.282D-08-0.394D-05-0.701D-05-0.355D-04-0.214D-03-0.101D-03
 Coeff-Com:  0.189D-02 0.464D-02-0.330D-02-0.557D-01-0.878D-01 0.241D+00
 Coeff-Com:  0.899D+00
 Coeff:      0.282D-08-0.394D-05-0.701D-05-0.355D-04-0.214D-03-0.101D-03
 Coeff:      0.189D-02 0.464D-02-0.330D-02-0.557D-01-0.878D-01 0.241D+00
 Coeff:      0.899D+00
 Gap=     0.350 Goal=   None    Shift=    0.000
 RMSDP=8.32D-08 MaxDP=7.36D-06 DE=-1.08D-11 OVMax= 1.33D-06

 Cycle  14  Pass 1  IDiag  1:
 RMSU=  2.31D-08    CP:  6.26D-01  9.08D-01  6.95D-01  8.82D-01  1.12D+00
                    CP:  1.20D+00  1.17D+00  1.29D+00  1.43D+00  1.42D+00
                    CP:  1.18D+00  1.13D+00  1.25D+00
 E= -420.747179078344     Delta-E=       -0.000000000010 Rises=F Damp=F
 DIIS: error= 5.97D-08 at cycle  14 NSaved=  14.
 NSaved=14 IEnMin=14 EnMin= -420.747179078344     IErMin=14 ErrMin= 5.97D-08
 ErrMax= 5.97D-08  0.00D+00 EMaxC= 1.00D-01 BMatC= 1.14D-13 BMatP= 1.40D-12
 IDIUse=1 WtCom= 1.00D+00 WtEn= 0.00D+00
 Coeff-Com:  0.538D-07 0.919D-06 0.995D-06-0.431D-05-0.573D-04-0.394D-04
 Coeff-Com:  0.221D-04 0.117D-02 0.201D-02-0.571D-02-0.234D-01-0.642D-01
 Coeff-Com:  0.376D-01 0.105D+01
 Coeff:      0.538D-07 0.919D-06 0.995D-06-0.431D-05-0.573D-04-0.394D-04
 Coeff:      0.221D-04 0.117D-02 0.201D-02-0.571D-02-0.234D-01-0.642D-01
 Coeff:      0.376D-01 0.105D+01
 Gap=     0.350 Goal=   None    Shift=    0.000
 RMSDP=3.00D-08 MaxDP=2.67D-06 DE=-1.03D-11 OVMax= 5.44D-07

 Cycle  15  Pass 1  IDiag  1:
 RMSU=  7.99D-09    CP:  6.26D-01  9.08D-01  6.95D-01  8.82D-01  1.12D+00
                    CP:  1.20D+00  1.17D+00  1.29D+00  1.42D+00  1.41D+00
                    CP:  1.19D+00  1.12D+00  1.44D+00  1.30D+00
 E= -420.747179078343     Delta-E=        0.000000000001 Rises=F Damp=F
 DIIS: error= 3.26D-08 at cycle  15 NSaved=  15.
 NSaved=15 IEnMin=14 EnMin= -420.747179078344     IErMin=15 ErrMin= 3.26D-08
 ErrMax= 3.26D-08  0.00D+00 EMaxC= 1.00D-01 BMatC= 3.05D-14 BMatP= 1.14D-13
 IDIUse=1 WtCom= 1.00D+00 WtEn= 0.00D+00
 Coeff-Com:  0.148D-07 0.923D-06 0.151D-05 0.440D-05 0.133D-04 0.784D-05
 Coeff-Com: -0.289D-03-0.309D-03 0.135D-02 0.696D-02 0.601D-02-0.553D-01
 Coeff-Com: -0.129D+00 0.371D+00 0.799D+00
 Coeff:      0.148D-07 0.923D-06 0.151D-05 0.440D-05 0.133D-04 0.784D-05
 Coeff:     -0.289D-03-0.309D-03 0.135D-02 0.696D-02 0.601D-02-0.553D-01
 Coeff:     -0.129D+00 0.371D+00 0.799D+00
 Gap=     0.350 Goal=   None    Shift=    0.000
 RMSDP=8.55D-09 MaxDP=5.64D-07 DE= 1.36D-12 OVMax= 1.92D-07

 SCF Done:  E(RwB97XD) =  -420.747179078     A.U. after   15 cycles
            NFock= 15  Conv=0.86D-08     -V/T= 2.0015
 KE= 4.201208783608D+02 PE=-1.802603482280D+03 EE= 5.521903508341D+02
 Leave Link  502 at Sun Nov  6 23:01:20 2022, MaxMem= 16106127360 cpu:             408.3 elap:              12.8
 (Enter /opt/ap/G16/B01/g16/l601.exe)
 Copying SCF densities to generalized density rwf, IOpCl= 0 IROHF=0.

 **********************************************************************

            Population analysis using the SCF Density.

 **********************************************************************

 Orbital symmetries:
       Occupied  (A) (A) (A) (A) (A) (A) (A) (A) (A) (A) (A) (A)
                 (A) (A) (A) (A) (A) (A) (A) (A) (A) (A) (A) (A)
                 (A) (A) (A) (A) (A) (A) (A) (A)
       Virtual   (A) (A) (A) (A) (A) (A) (A) (A) (A) (A) (A) (A)
                 (A) (A) (A) (A) (A) (A) (A) (A) (A) (A) (A) (A)
                 (A) (A) (A) (A) (A) (A) (A) (A) (A) (A) (A) (A)
                 (A) (A) (A) (A) (A) (A) (A) (A) (A) (A) (A) (A)
                 (A) (A) (A) (A) (A) (A) (A) (A) (A) (A) (A) (A)
                 (A) (A) (A) (A) (A) (A) (A) (A) (A) (A) (A) (A)
                 (A) (A) (A) (A) (A) (A) (A) (A) (A) (A) (A) (A)
                 (A) (A) (A) (A) (A) (A) (A) (A) (A) (A) (A) (A)
                 (A) (A) (A) (A) (A) (A) (A) (A) (A) (A) (A) (A)
                 (A) (A) (A) (A) (A) (A) (A) (A) (A) (A) (A) (A)
                 (A) (A) (A) (A) (A) (A) (A) (A) (A) (A) (A) (A)
                 (A) (A) (A) (A) (A) (A) (A) (A) (A) (A) (A) (A)
                 (A) (A) (A) (A) (A) (A) (A) (A) (A) (A) (A) (A)
                 (A) (A) (A) (A) (A) (A) (A) (A) (A) (A) (A) (A)
                 (A) (A) (A) (A) (A) (A) (A) (A) (A) (A) (A) (A)
                 (A) (A) (A) (A) (A) (A) (A) (A) (A) (A) (A) (A)
                 (A) (A) (A) (A) (A) (A) (A) (A) (A) (A) (A) (A)
                 (A) (A) (A) (A)
 The electronic state is 1-A.
 Alpha  occ. eigenvalues --  -19.31654 -19.22771 -10.43164 -10.31041 -10.29306
 Alpha  occ. eigenvalues --  -10.29299 -10.29167 -10.28979 -10.28723  -1.25794
 Alpha  occ. eigenvalues --   -1.10608  -0.98065  -0.88917  -0.87001  -0.80559
 Alpha  occ. eigenvalues --   -0.73370  -0.71893  -0.65813  -0.60672  -0.58588
 Alpha  occ. eigenvalues --   -0.56734  -0.56132  -0.54570  -0.53458  -0.48893
 Alpha  occ. eigenvalues --   -0.47389  -0.45552  -0.44714  -0.41031  -0.36148
 Alpha  occ. eigenvalues --   -0.34640  -0.34285
 Alpha virt. eigenvalues --    0.00715   0.03748   0.04320   0.04535   0.05292
 Alpha virt. eigenvalues --    0.06468   0.07813   0.08686   0.10204   0.11452
 Alpha virt. eigenvalues --    0.11911   0.12916   0.13448   0.14374   0.14639
 Alpha virt. eigenvalues --    0.16002   0.16300   0.16939   0.17514   0.18036
 Alpha virt. eigenvalues --    0.18076   0.19580   0.20062   0.20291   0.20398
 Alpha virt. eigenvalues --    0.21178   0.21614   0.21743   0.23217   0.23669
 Alpha virt. eigenvalues --    0.25413   0.26340   0.26823   0.27955   0.28927
 Alpha virt. eigenvalues --    0.29496   0.30086   0.30634   0.30994   0.31816
 Alpha virt. eigenvalues --    0.32026   0.33728   0.34342   0.35288   0.36052
 Alpha virt. eigenvalues --    0.36590   0.37020   0.38178   0.39870   0.40855
 Alpha virt. eigenvalues --    0.41856   0.42202   0.44003   0.44688   0.46357
 Alpha virt. eigenvalues --    0.48818   0.50119   0.54557   0.54990   0.57630
 Alpha virt. eigenvalues --    0.60572   0.61161   0.62278   0.64009   0.64178
 Alpha virt. eigenvalues --    0.64734   0.65277   0.66575   0.67801   0.68889
 Alpha virt. eigenvalues --    0.69067   0.72328   0.73082   0.74128   0.75797
 Alpha virt. eigenvalues --    0.76685   0.81411   0.82827   0.84524   0.86369
 Alpha virt. eigenvalues --    0.88506   0.91695   0.93104   0.93684   0.94710
 Alpha virt. eigenvalues --    0.96715   0.97335   0.98085   1.00401   1.00855
 Alpha virt. eigenvalues --    1.04339   1.06400   1.08092   1.09241   1.11560
 Alpha virt. eigenvalues --    1.14262   1.15603   1.16253   1.17509   1.17728
 Alpha virt. eigenvalues --    1.20827   1.21709   1.24120   1.28998   1.31233
 Alpha virt. eigenvalues --    1.33714   1.37955   1.43825   1.45087   1.56257
 Alpha virt. eigenvalues --    1.57015   1.59428   1.60550   1.61004   1.61827
 Alpha virt. eigenvalues --    1.62577   1.66244   1.67069   1.67420   1.74614
 Alpha virt. eigenvalues --    1.75157   1.78691   1.80576   1.82374   1.87835
 Alpha virt. eigenvalues --    1.88493   1.91413   1.91770   1.96522   2.00079
 Alpha virt. eigenvalues --    2.00359   2.02488   2.03894   2.04833   2.05787
 Alpha virt. eigenvalues --    2.06758   2.12688   2.15255   2.17510   2.19931
 Alpha virt. eigenvalues --    2.23229   2.29025   2.31826   2.42680   2.45947
 Alpha virt. eigenvalues --    2.52120   2.54653   2.54830   2.58274   2.64429
 Alpha virt. eigenvalues --    2.71745   2.72929   2.74610   2.76466   2.81451
 Alpha virt. eigenvalues --    2.81785   2.83328   2.88378   2.89221   2.90418
 Alpha virt. eigenvalues --    2.90722   2.91854   2.95526   2.99560   3.00826
 Alpha virt. eigenvalues --    3.01974   3.06456   3.07055   3.15297   3.18517
 Alpha virt. eigenvalues --    3.18913   3.23574   3.27971   3.31819   3.33298
 Alpha virt. eigenvalues --    3.42836   3.43824   3.48398   3.49650   3.64071
 Alpha virt. eigenvalues --    3.66332   3.69795   3.74656   3.84316   3.87806
 Alpha virt. eigenvalues --    4.08345   4.17232   4.28530   4.30824   4.36844
 Alpha virt. eigenvalues --    4.40981   4.46376   4.95162   5.05209   5.15287
 Alpha virt. eigenvalues --    5.30794   5.50192   5.82780   6.09420  23.84278
 Alpha virt. eigenvalues --   23.94413  24.14197  24.21389  24.28366  24.30447
 Alpha virt. eigenvalues --   24.41843  50.04021  50.16569
          Condensed to atoms (all electrons):
               1          2          3          4          5          6
     1  C   11.225385  -3.549427  -1.525931   2.774024  -0.117012  -2.838734
     2  C   -3.549427  19.123365  -1.813336  -7.561084   0.871884  -0.771269
     3  C   -1.525931  -1.813336  11.947191   0.159845  -0.037616  -0.798235
     4  C    2.774024  -7.561084   0.159845  10.701183  -0.301487  -0.301259
     5  H   -0.117012   0.871884  -0.037616  -0.301487   0.473215  -0.077262
     6  C   -2.838734  -0.771269  -0.798235  -0.301259  -0.077262   9.314926
     7  C    0.784492  -1.277141  -2.502315   1.309484  -0.027381   0.559276
     8  H   -0.002721   0.065918   0.512674  -0.035516   0.001670  -0.097732
     9  C   -1.307316   2.318645   0.850020  -1.422392   0.058290  -0.189908
    10  H    0.063637  -0.239428   0.024027   0.526191  -0.016000   0.013159
    11  O   -0.223163  -0.256462  -0.056716   0.109517  -0.038919   0.461393
    12  O   -0.139108  -0.128739  -0.034358   0.084220  -0.007444   0.529913
    13  H    0.027351  -0.028408  -0.094567   0.021307  -0.000746   0.025740
    14  H    0.002659   0.064723   0.003905  -0.089270   0.002115  -0.015142
    15  H   -0.098881   0.002710   0.009159  -0.034059   0.004811   0.103699
               7          8          9         10         11         12
     1  C    0.784492  -0.002721  -1.307316   0.063637  -0.223163  -0.139108
     2  C   -1.277141   0.065918   2.318645  -0.239428  -0.256462  -0.128739
     3  C   -2.502315   0.512674   0.850020   0.024027  -0.056716  -0.034358
     4  C    1.309484  -0.035516  -1.422392   0.526191   0.109517   0.084220
     5  H   -0.027381   0.001670   0.058290  -0.016000  -0.038919  -0.007444
     6  C    0.559276  -0.097732  -0.189908   0.013159   0.461393   0.529913
     7  C    7.547379  -0.109826  -0.843685   0.012850   0.072967   0.107112
     8  H   -0.109826   0.434074   0.038375  -0.000223  -0.006064  -0.009644
     9  C   -0.843685   0.038375   6.678714  -0.063083  -0.039491  -0.029131
    10  H    0.012850  -0.000223  -0.063083   0.477388   0.003383   0.001012
    11  O    0.072967  -0.006064  -0.039491   0.003383   8.005922  -0.119022
    12  O    0.107112  -0.009644  -0.029131   0.001012  -0.119022   8.097738
    13  H    0.434625  -0.009777  -0.047865  -0.000290   0.001134   0.002005
    14  H   -0.062457   0.001228   0.451083  -0.009533  -0.000590  -0.000475
    15  H    0.012076  -0.000713  -0.002719  -0.000294   0.261053  -0.016727
              13         14         15
     1  C    0.027351   0.002659  -0.098881
     2  C   -0.028408   0.064723   0.002710
     3  C   -0.094567   0.003905   0.009159
     4  C    0.021307  -0.089270  -0.034059
     5  H   -0.000746   0.002115   0.004811
     6  C    0.025740  -0.015142   0.103699
     7  C    0.434625  -0.062457   0.012076
     8  H   -0.009777   0.001228  -0.000713
     9  C   -0.047865   0.451083  -0.002719
    10  H   -0.000290  -0.009533  -0.000294
    11  O    0.001134  -0.000590   0.261053
    12  O    0.002005  -0.000475  -0.016727
    13  H    0.464205  -0.007913   0.000160
    14  H   -0.007913   0.472440  -0.000131
    15  H    0.000160  -0.000131   0.418107
 Mulliken charges:
               1
     1  C    0.924746
     2  C   -0.821952
     3  C   -0.643747
     4  C    0.059298
     5  H    0.211881
     6  C    0.081435
     7  C   -0.017457
     8  H    0.218278
     9  C   -0.449536
    10  H    0.207205
    11  O   -0.174941
    12  O   -0.337351
    13  H    0.213037
    14  H    0.187358
    15  H    0.341747
 Sum of Mulliken charges =  -0.00000
 Mulliken charges with hydrogens summed into heavy atoms:
               1
     1  C    0.924746
     2  C   -0.610071
     3  C   -0.425469
     4  C    0.266503
     6  C    0.081435
     7  C    0.195580
     9  C   -0.262178
    11  O    0.166805
    12  O   -0.337351
 Electronic spatial extent (au):  <R**2>=           1158.2270
 Charge=             -0.0000 electrons
 Dipole moment (field-independent basis, Debye):
    X=             -1.3381    Y=             -2.2948    Z=             -0.2011  Tot=              2.6640
 Quadrupole moment (field-independent basis, Debye-Ang):
   XX=            -43.3902   YY=            -49.9508   ZZ=            -54.1500
   XY=             -8.0394   XZ=             -0.7229   YZ=             -0.3797
 Traceless Quadrupole moment (field-independent basis, Debye-Ang):
   XX=              5.7735   YY=             -0.7871   ZZ=             -4.9864
   XY=             -8.0394   XZ=             -0.7229   YZ=             -0.3797
 Octapole moment (field-independent basis, Debye-Ang**2):
  XXX=             21.3834  YYY=             -4.1343  ZZZ=             -0.0876  XYY=             -7.4460
  XXY=            -26.4152  XXZ=             -2.3782  XZZ=             11.2864  YZZ=             -0.4099
  YYZ=             -0.3310  XYZ=              0.1120
 Hexadecapole moment (field-independent basis, Debye-Ang**3):
 XXXX=           -872.8848 YYYY=           -358.5677 ZZZZ=            -58.9637 XXXY=            -90.5234
 XXXZ=             -8.7935 YYYX=            -16.0349 YYYZ=             -1.0201 ZZZX=             -0.5166
 ZZZY=              0.5763 XXYY=           -234.4905 XXZZ=           -194.7866 YYZZ=            -78.9670
 XXYZ=             -0.1903 YYXZ=             -0.7764 ZZXY=             -2.0147
 N-N= 4.095450740069D+02 E-N=-1.802603482623D+03  KE= 4.201208783608D+02
 No NMR shielding tensors so no spin-rotation constants.
 Leave Link  601 at Sun Nov  6 23:01:20 2022, MaxMem= 16106127360 cpu:               3.2 elap:               0.1
 (Enter /opt/ap/G16/B01/g16/l9999.exe)
 1\1\GINC-N07\SP\RwB97XD\6-311++G(d,p)\C7H6O2\ROOT\06-Nov-2022\0\\#P wB
 97XD/6-311++G(d,p) scf=maxcycle=512\\_conf019.gjf nmol_natom 1_15\\0,1
 \C\C,1,1.39016191\C,1,1.39194539,2,119.895942\C,2,1.38669027,1,119.880
 75721,3,0.70825972,0\H,2,0.98744251,1,119.71654057,3,-179.90726164,0\C
 ,1,1.48428757,2,119.93615286,4,-179.87772406,0\C,3,1.40101108,1,119.72
 36454,2,-0.26266839,0\H,3,0.9902154,1,119.1886159,2,178.85397616,0\C,4
 ,1.37899003,2,120.45785903,1,-0.48041454,0\H,4,0.9834739,2,120.3044270
 6,1,179.36166981,0\O,6,1.27459751,1,118.00615353,2,5.,0\O,6,1.26362572
 ,1,118.77715367,2,-175.,0\H,7,0.98977053,3,119.37861578,1,-178.9354574
 1,0\H,9,0.99498061,4,119.46722635,2,-178.58826714,0\H,11,0.89680392,6,
 118.15823763,1,176.92714093,0\\Version=ES64L-G16RevB.01\State=1-A\HF=-
 420.7471791\RMSD=8.552e-09\Dipole=0.031675,0.1051754,1.0423284\Quadrup
 ole=8.1903066,-3.7263913,-4.4639154,-0.464645,-1.192646,-0.5142254\PG=
 C01 [X(C7H6O2)]\\@


 IT'S WHAT YOU LEARN AFTER YOU KNOW IT ALL
 THAT COUNTS.
 Job cpu time:       0 days  0 hours  7 minutes 21.9 seconds.
 Elapsed time:       0 days  0 hours  0 minutes 13.9 seconds.
 File lengths (MBytes):  RWF=     35 Int=      0 D2E=      0 Chk=      4 Scr=      1
 Normal termination of Gaussian 16 at Sun Nov  6 23:01:20 2022.
