 Entering Gaussian System, Link 0=g16
 Input=_conf006.gjf
 Output=_conf006.log
 Initial command:
 /opt/ap/G16/B01/g16/l1.exe "/tmp2/scr/Gau-30588.inp" -scrdir="/tmp2/scr/"
 Entering Link 1 = /opt/ap/G16/B01/g16/l1.exe PID=     30589.
  
 Copyright (c) 1988-2017, Gaussian, Inc.  All Rights Reserved.
  
 This is part of the Gaussian(R) 16 program.  It is based on
 the Gaussian(R) 09 system (copyright 2009, Gaussian, Inc.),
 the Gaussian(R) 03 system (copyright 2003, Gaussian, Inc.),
 the Gaussian(R) 98 system (copyright 1998, Gaussian, Inc.),
 the Gaussian(R) 94 system (copyright 1995, Gaussian, Inc.),
 the Gaussian 92(TM) system (copyright 1992, Gaussian, Inc.),
 the Gaussian 90(TM) system (copyright 1990, Gaussian, Inc.),
 the Gaussian 88(TM) system (copyright 1988, Gaussian, Inc.),
 the Gaussian 86(TM) system (copyright 1986, Carnegie Mellon
 University), and the Gaussian 82(TM) system (copyright 1983,
 Carnegie Mellon University). Gaussian is a federally registered
 trademark of Gaussian, Inc.
  
 This software contains proprietary and confidential information,
 including trade secrets, belonging to Gaussian, Inc.
  
 This software is provided under written license and may be
 used, copied, transmitted, or stored only in accord with that
 written license.
  
 The following legend is applicable only to US Government
 contracts under FAR:
  
                    RESTRICTED RIGHTS LEGEND
  
 Use, reproduction and disclosure by the US Government is
 subject to restrictions as set forth in subparagraphs (a)
 and (c) of the Commercial Computer Software - Restricted
 Rights clause in FAR 52.227-19.
  
 Gaussian, Inc.
 340 Quinnipiac St., Bldg. 40, Wallingford CT 06492
  
  
 ---------------------------------------------------------------
 Warning -- This program may not be used in any manner that
 competes with the business of Gaussian, Inc. or will provide
 assistance to any competitor of Gaussian, Inc.  The licensee
 of this program is prohibited from giving any competitor of
 Gaussian, Inc. access to this program.  By using this program,
 the user acknowledges that Gaussian, Inc. is engaged in the
 business of creating and licensing software in the field of
 computational chemistry and represents and warrants to the
 licensee that it is not a competitor of Gaussian, Inc. and that
 it will not use this program in any manner prohibited above.
 ---------------------------------------------------------------
  

 Cite this work as:
 Gaussian 16, Revision B.01,
 M. J. Frisch, G. W. Trucks, H. B. Schlegel, G. E. Scuseria, 
 M. A. Robb, J. R. Cheeseman, G. Scalmani, V. Barone, 
 G. A. Petersson, H. Nakatsuji, X. Li, M. Caricato, A. V. Marenich, 
 J. Bloino, B. G. Janesko, R. Gomperts, B. Mennucci, H. P. Hratchian, 
 J. V. Ortiz, A. F. Izmaylov, J. L. Sonnenberg, D. Williams-Young, 
 F. Ding, F. Lipparini, F. Egidi, J. Goings, B. Peng, A. Petrone, 
 T. Henderson, D. Ranasinghe, V. G. Zakrzewski, J. Gao, N. Rega, 
 G. Zheng, W. Liang, M. Hada, M. Ehara, K. Toyota, R. Fukuda, 
 J. Hasegawa, M. Ishida, T. Nakajima, Y. Honda, O. Kitao, H. Nakai, 
 T. Vreven, K. Throssell, J. A. Montgomery, Jr., J. E. Peralta, 
 F. Ogliaro, M. J. Bearpark, J. J. Heyd, E. N. Brothers, K. N. Kudin, 
 V. N. Staroverov, T. A. Keith, R. Kobayashi, J. Normand, 
 K. Raghavachari, A. P. Rendell, J. C. Burant, S. S. Iyengar, 
 J. Tomasi, M. Cossi, J. M. Millam, M. Klene, C. Adamo, R. Cammi, 
 J. W. Ochterski, R. L. Martin, K. Morokuma, O. Farkas, 
 J. B. Foresman, and D. J. Fox, Gaussian, Inc., Wallingford CT, 2016.
 
 ******************************************
 Gaussian 16:  ES64L-G16RevB.01 20-Dec-2017
                 6-Nov-2022 
 ******************************************
 %nprocshared=32
 Will use up to   32 processors via shared memory.
 %mem=120GB
 %chk=_conf006.chk
 ----------------------------------------
 #P wB97XD/6-311++G(d,p) scf=maxcycle=512
 ----------------------------------------
 1/38=1,172=1/1;
 2/12=2,17=6,18=5,40=1/2;
 3/5=4,6=6,7=1111,11=2,25=1,30=1,74=-58/1,2,3;
 4//1;
 5/5=2,7=512,38=5/2;
 6/7=2,8=2,9=2,10=2,28=1/1;
 99/5=1,9=1/99;
 Leave Link    1 at Sun Nov  6 23:00:25 2022, MaxMem= 16106127360 cpu:               1.9 elap:               0.1
 (Enter /opt/ap/G16/B01/g16/l101.exe)
 ----------------------------
 _conf006.gjf nmol_natom 1_15
 ----------------------------
 Symbolic Z-matrix:
 Charge =  0 Multiplicity = 1
 C
 C                    1     1.39016 
 C                    1     1.39195  2     119.89594 
 C                    2     1.38669  1     119.88076  3     0.70826  0
 H                    2     0.98744  1     119.71654  3    -179.90726  0
 C                    1     1.48429  2     119.93615  4    -179.87772  0
 C                    3     1.40101  1     119.72365  2    -0.26267  0
 H                    3     0.99022  1     119.18862  2     178.85398  0
 C                    4     1.37899  2     120.45786  1    -0.48041  0
 H                    4     0.98347  2     120.30443  1     179.36167  0
 O                    6     1.2746   1     118.00615  2    -60.      0
 O                    6     1.26363  1     118.77715  2     120.     0
 H                    7     0.98977  3     119.37862  1    -178.93546  0
 H                    9     0.99498  4     119.46723  2    -178.58827  0
 H                    11    0.8968   6     118.15824  1     176.92714  0
 
 ITRead=  0  0  0  0  0  0  0  0  0  0  0  0  0  0  0
 MicOpt= -1 -1 -1 -1 -1 -1 -1 -1 -1 -1 -1 -1 -1 -1 -1
 NAtoms=     15 NQM=       15 NQMF=       0 NMMI=      0 NMMIF=      0
                NMic=       0 NMicF=      0.
                    Isotopes and Nuclear Properties:
 (Nuclear quadrupole moments (NQMom) in fm**2, nuclear magnetic moments (NMagM)
  in nuclear magnetons)

  Atom         1           2           3           4           5           6           7           8           9          10
 IAtWgt=          12          12          12          12           1          12          12           1          12           1
 AtmWgt=  12.0000000  12.0000000  12.0000000  12.0000000   1.0078250  12.0000000  12.0000000   1.0078250  12.0000000   1.0078250
 NucSpn=           0           0           0           0           1           0           0           1           0           1
 AtZEff=  -0.0000000  -0.0000000  -0.0000000  -0.0000000  -0.0000000  -0.0000000  -0.0000000  -0.0000000  -0.0000000  -0.0000000
 NQMom=    0.0000000   0.0000000   0.0000000   0.0000000   0.0000000   0.0000000   0.0000000   0.0000000   0.0000000   0.0000000
 NMagM=    0.0000000   0.0000000   0.0000000   0.0000000   2.7928460   0.0000000   0.0000000   2.7928460   0.0000000   2.7928460
 AtZNuc=   6.0000000   6.0000000   6.0000000   6.0000000   1.0000000   6.0000000   6.0000000   1.0000000   6.0000000   1.0000000

  Atom        11          12          13          14          15
 IAtWgt=          16          16           1           1           1
 AtmWgt=  15.9949146  15.9949146   1.0078250   1.0078250   1.0078250
 NucSpn=           0           0           1           1           1
 AtZEff=  -0.0000000  -0.0000000  -0.0000000  -0.0000000  -0.0000000
 NQMom=    0.0000000   0.0000000   0.0000000   0.0000000   0.0000000
 NMagM=    0.0000000   0.0000000   2.7928460   2.7928460   2.7928460
 AtZNuc=   8.0000000   8.0000000   1.0000000   1.0000000   1.0000000
 Leave Link  101 at Sun Nov  6 23:00:26 2022, MaxMem= 16106127360 cpu:               5.3 elap:               0.2
 (Enter /opt/ap/G16/B01/g16/l202.exe)
                          Input orientation:                          
 ---------------------------------------------------------------------
 Center     Atomic      Atomic             Coordinates (Angstroms)
 Number     Number       Type             X           Y           Z
 ---------------------------------------------------------------------
      1          6           0        0.000000    0.000000    0.000000
      2          6           0        0.000000    0.000000    1.390162
      3          6           0        1.206722    0.000000   -0.693782
      4          6           0        1.202258    0.014862    2.081006
      5          1           0       -0.857581   -0.001388    1.879646
      6          6           0       -1.286190   -0.013155   -0.740711
      7          6           0        2.415349    0.005578    0.014752
      8          1           0        1.194584   -0.017290   -1.683772
      9          6           0        2.400563    0.019708    1.398617
     10          1           0        1.209438    0.024411    3.064408
     11          8           0       -2.075629   -0.995852   -0.551788
     12          8           0       -1.546784    0.943411   -1.524180
     13          1           0        3.270315    0.021574   -0.483669
     14          1           0        3.254554    0.009066    1.909081
     15          1           0       -2.871104   -0.985318   -0.965751
 ---------------------------------------------------------------------
                    Distance matrix (angstroms):
                    1          2          3          4          5
     1  C    0.000000
     2  C    1.390162   0.000000
     3  C    1.391945   2.408112   0.000000
     4  C    2.403379   1.386690   2.774832   0.000000
     5  H    2.066039   0.987443   3.299073   2.069721   0.000000
     6  C    1.484288   2.488991   2.493388   3.762345   2.655206
     7  C    2.415401   2.779513   1.401011   2.396056   3.766955
     8  H    2.064563   3.297939   0.990215   3.764924   4.112127
     9  C    2.778349   2.400659   2.409104   1.378990   3.293530
    10  H    3.294530   2.065535   3.758270   0.983474   2.382624
    11  O    2.367367   3.011831   3.433032   4.324082   2.895595
    12  O    2.367633   3.431610   3.026777   4.627828   3.599122
    13  H    3.305958   3.769173   2.074374   3.294611   4.756607
    14  H    3.773167   3.295676   3.311886   2.059493   4.112253
    15  H    3.185399   3.842449   4.203985   5.184145   3.621971
                    6          7          8          9         10
     6  C    0.000000
     7  C    3.777892   0.000000
     8  H    2.653982   2.091836   0.000000
     9  C    4.262622   1.384016   3.310118   0.000000
    10  H    4.550659   3.279477   4.748386   2.047842   0.000000
    11  O    1.274598   4.636023   3.596285   4.987157   4.990939
    12  O    1.263626   4.352740   2.909212   4.997751   5.431064
    13  H    4.563881   0.989771   2.398003   2.073517   4.103177
    14  H    5.257398   2.071897   4.141589   0.994981   2.348938
    15  H    1.872885   5.467161   4.240573   5.864366   5.823449
                   11         12         13         14         15
    11  O    0.000000
    12  O    2.232926   0.000000
    13  H    5.442326   5.013670   0.000000
    14  H    5.956222   5.976045   2.392834   0.000000
    15  H    0.896804   2.405340   6.242056   6.839381   0.000000
 Stoichiometry    C7H6O2
 Framework group  C1[X(C7H6O2)]
 Deg. of freedom    39
 Full point group                 C1      NOp   1
 Largest Abelian subgroup         C1      NOp   1
 Largest concise Abelian subgroup C1      NOp   1
                         Standard orientation:                         
 ---------------------------------------------------------------------
 Center     Atomic      Atomic             Coordinates (Angstroms)
 Number     Number       Type             X           Y           Z
 ---------------------------------------------------------------------
      1          6           0       -0.220737    0.020563    0.020240
      2          6           0        0.458664   -1.169428    0.254517
      3          6           0        0.492608    1.186605   -0.242433
      4          6           0        1.845161   -1.187694    0.240265
      5          1           0       -0.050064   -1.995333    0.439232
      6          6           0       -1.704764    0.042071    0.037897
      7          6           0        1.893088    1.154303   -0.263556
      8          1           0       -0.002213    2.024728   -0.424719
      9          6           0        2.556848   -0.034398   -0.014732
     10          1           0        2.332257   -2.024123    0.414466
     11          8           0       -2.324004   -0.696395   -0.796254
     12          8           0       -2.292463    0.786225    0.873118
     13          1           0        2.395510    1.989627   -0.435170
     14          1           0        3.550858   -0.068638   -0.042267
     15          1           0       -3.219822   -0.717038   -0.759631
 ---------------------------------------------------------------------
 Rotational constants (GHZ):           3.9684866           1.1632084           0.9934954
 Leave Link  202 at Sun Nov  6 23:00:26 2022, MaxMem= 16106127360 cpu:               0.3 elap:               0.0
 (Enter /opt/ap/G16/B01/g16/l301.exe)
 Standard basis: 6-311++G(d,p) (5D, 7F)
 Ernie: Thresh=  0.10000D-02 Tol=  0.10000D-05 Strict=F.
 There are   249 symmetry adapted cartesian basis functions of A   symmetry.
 There are   240 symmetry adapted basis functions of A   symmetry.
   240 basis functions,   378 primitive gaussians,   249 cartesian basis functions
    32 alpha electrons       32 beta electrons
       nuclear repulsion energy       408.4454730295 Hartrees.
 IExCor= 4639 DFT=T Ex+Corr=wB97XD ExCW=0 ScaHFX=  1.000000
 ScaDFX=  1.000000  1.000000  1.000000  1.000000 ScalE2=  1.000000  1.000000
 IRadAn=      5 IRanWt=     -1 IRanGd=            0 ICorTp=0 IEmpDi=121
 HFx  wShort=  0.000000 wLong=  0.200000 cFull=  0.222036 cShort=  0.000000 cLong=  0.777964
 DFx  wShort=  0.000000 wLong=  0.200000 cFull=  0.000000 cShort=  0.000000 cLong=  1.000000
 NAtoms=   15 NActive=   15 NUniq=   15 SFac= 1.00D+00 NAtFMM=   60 NAOKFM=F Big=F
 Integral buffers will be    131072 words long.
 Raffenetti 2 integral format.
 Two-electron integral symmetry is turned on.
 R6Disp:  Grimme-D2 Dispersion energy=       -0.0064747308 Hartrees.
 Nuclear repulsion after empirical dispersion term =      408.4389982988 Hartrees.
 Leave Link  301 at Sun Nov  6 23:00:26 2022, MaxMem= 16106127360 cpu:               1.3 elap:               0.0
 (Enter /opt/ap/G16/B01/g16/l302.exe)
 NPDir=0 NMtPBC=     1 NCelOv=     1 NCel=       1 NClECP=     1 NCelD=      1
         NCelK=      1 NCelE2=     1 NClLst=     1 CellRange=     0.0.
 One-electron integrals computed using PRISM.
 One-electron integral symmetry used in STVInt
 NBasis=   240 RedAO= T EigKep=  1.19D-06  NBF=   240
 NBsUse=   240 1.00D-06 EigRej= -1.00D+00 NBFU=   240
 Precomputing XC quadrature grid using
 IXCGrd= 4 IRadAn=           5 IRanWt=          -1 IRanGd=           0 AccXCQ= 0.00D+00.
 Generated NRdTot=       0 NPtTot=           0 NUsed=           0 NTot=          32
 NSgBfM=   249   249   249   249   249 MxSgAt=    15 MxSgA2=    15.
 Leave Link  302 at Sun Nov  6 23:00:26 2022, MaxMem= 16106127360 cpu:               5.4 elap:               0.2
 (Enter /opt/ap/G16/B01/g16/l303.exe)
 DipDrv:  MaxL=1.
 Leave Link  303 at Sun Nov  6 23:00:26 2022, MaxMem= 16106127360 cpu:               1.4 elap:               0.1
 (Enter /opt/ap/G16/B01/g16/l401.exe)
 ExpMin= 3.60D-02 ExpMax= 8.59D+03 ExpMxC= 1.30D+03 IAcc=3 IRadAn=         5 AccDes= 0.00D+00
 Harris functional with IExCor= 4639 and IRadAn=       5 diagonalized for initial guess.
 HarFok:  IExCor= 4639 AccDes= 0.00D+00 IRadAn=         5 IDoV= 1 UseB2=F ITyADJ=14
 ICtDFT=  3500011 ScaDFX=  1.000000  1.000000  1.000000  1.000000
 FoFCou: FMM=F IPFlag=           0 FMFlag=      100000 FMFlg1=           0
         NFxFlg=           0 DoJE=T BraDBF=F KetDBF=T FulRan=T
         wScrn=  0.000000 ICntrl=       500 IOpCl=  0 I1Cent=   200000004 NGrid=           0
         NMat0=    1 NMatS0=      1 NMatT0=    0 NMatD0=    1 NMtDS0=    0 NMtDT0=    0
 Petite list used in FoFCou.
 Harris En= -403.250694488535    
 JPrj=0 DoOrth=F DoCkMO=F.
 Leave Link  401 at Sun Nov  6 23:00:26 2022, MaxMem= 16106127360 cpu:              11.8 elap:               0.4
 (Enter /opt/ap/G16/B01/g16/l502.exe)
 Integral symmetry usage will be decided dynamically.
 Closed shell SCF:
 Using DIIS extrapolation, IDIIS=  1040.
 NGot= 16106127360 LenX= 16105992971 LenY= 16105930529
 Requested convergence on RMS density matrix=1.00D-08 within 512 cycles.
 Requested convergence on MAX density matrix=1.00D-06.
 Requested convergence on             energy=1.00D-06.
 No special actions if energy rises.
 Fock matrices will be formed incrementally for  20 cycles.

 Cycle   1  Pass 1  IDiag  1:
 FoFJK:  IHMeth= 1 ICntrl=       0 DoSepK=T KAlg= 0 I1Cent=           0 FoldK=F
 IRaf=         1 NMat=       1 IRICut=       1 DoRegI=T DoRafI=F ISym2E= 0 IDoP0=0 IntGTp=1.
 FoFCou: FMM=F IPFlag=           0 FMFlag=      100000 FMFlg1=           0
         NFxFlg=           0 DoJE=T BraDBF=F KetDBF=F FulRan=T
         wScrn=  0.000000 ICntrl=       500 IOpCl=  0 I1Cent=           0 NGrid=           0
         NMat0=    1 NMatS0=      1 NMatT0=    0 NMatD0=    1 NMtDS0=    0 NMtDT0=    0
 Symmetry not used in FoFCou.
 E= -420.623346738504    
 DIIS: error= 7.44D-02 at cycle   1 NSaved=   1.
 NSaved= 1 IEnMin= 1 EnMin= -420.623346738504     IErMin= 1 ErrMin= 7.44D-02
 ErrMax= 7.44D-02  0.00D+00 EMaxC= 1.00D-01 BMatC= 8.62D-01 BMatP= 8.62D-01
 IDIUse=3 WtCom= 2.56D-01 WtEn= 7.44D-01
 Coeff-Com:  0.100D+01
 Coeff-En:   0.100D+01
 Coeff:      0.100D+01
 Gap=     0.474 Goal=   None    Shift=    0.000
 GapD=    0.474 DampG=2.000 DampE=0.500 DampFc=1.0000 IDamp=-1.
 RMSDP=1.73D-02 MaxDP=1.30D+00              OVMax= 9.64D-02

 Cycle   2  Pass 1  IDiag  1:
 RMSU=  1.17D-02    CP:  7.52D-01
 E= -420.695934121194     Delta-E=       -0.072587382690 Rises=F Damp=F
 DIIS: error= 1.34D-02 at cycle   2 NSaved=   2.
 NSaved= 2 IEnMin= 2 EnMin= -420.695934121194     IErMin= 2 ErrMin= 1.34D-02
 ErrMax= 1.34D-02  0.00D+00 EMaxC= 1.00D-01 BMatC= 5.69D-02 BMatP= 8.62D-01
 IDIUse=3 WtCom= 8.66D-01 WtEn= 1.34D-01
 Coeff-Com:  0.135D+00 0.865D+00
 Coeff-En:   0.906D-01 0.909D+00
 Coeff:      0.129D+00 0.871D+00
 Gap=     0.460 Goal=   None    Shift=    0.000
 RMSDP=6.11D-03 MaxDP=2.10D-01 DE=-7.26D-02 OVMax= 8.05D-02

 Cycle   3  Pass 1  IDiag  1:
 RMSU=  5.10D-03    CP:  7.70D-01  7.24D-01
 E= -420.711847537960     Delta-E=       -0.015913416766 Rises=F Damp=F
 DIIS: error= 1.36D-02 at cycle   3 NSaved=   3.
 NSaved= 3 IEnMin= 3 EnMin= -420.711847537960     IErMin= 2 ErrMin= 1.34D-02
 ErrMax= 1.36D-02  0.00D+00 EMaxC= 1.00D-01 BMatC= 3.59D-02 BMatP= 5.69D-02
 IDIUse=3 WtCom= 8.64D-01 WtEn= 1.36D-01
 Coeff-Com:  0.285D-01 0.448D+00 0.523D+00
 Coeff-En:   0.000D+00 0.386D+00 0.614D+00
 Coeff:      0.247D-01 0.440D+00 0.536D+00
 Gap=     0.366 Goal=   None    Shift=    0.000
 RMSDP=3.39D-03 MaxDP=2.68D-01 DE=-1.59D-02 OVMax= 5.26D-02

 Cycle   4  Pass 1  IDiag  1:
 RMSU=  1.75D-03    CP:  7.42D-01  8.71D-01  6.39D-01
 E= -420.737980039594     Delta-E=       -0.026132501634 Rises=F Damp=F
 DIIS: error= 2.69D-03 at cycle   4 NSaved=   4.
 NSaved= 4 IEnMin= 4 EnMin= -420.737980039594     IErMin= 4 ErrMin= 2.69D-03
 ErrMax= 2.69D-03  0.00D+00 EMaxC= 1.00D-01 BMatC= 2.16D-03 BMatP= 3.59D-02
 IDIUse=3 WtCom= 9.73D-01 WtEn= 2.69D-02
 Coeff-Com:  0.105D-01 0.221D+00 0.305D+00 0.464D+00
 Coeff-En:   0.000D+00 0.000D+00 0.000D+00 0.100D+01
 Coeff:      0.102D-01 0.215D+00 0.296D+00 0.479D+00
 Gap=     0.366 Goal=   None    Shift=    0.000
 RMSDP=6.64D-04 MaxDP=3.57D-02 DE=-2.61D-02 OVMax= 1.36D-02

 Cycle   5  Pass 1  IDiag  1:
 RMSU=  5.05D-04    CP:  7.39D-01  8.63D-01  7.05D-01  8.74D-01
 E= -420.739444500488     Delta-E=       -0.001464460894 Rises=F Damp=F
 DIIS: error= 4.55D-04 at cycle   5 NSaved=   5.
 NSaved= 5 IEnMin= 5 EnMin= -420.739444500488     IErMin= 5 ErrMin= 4.55D-04
 ErrMax= 4.55D-04  0.00D+00 EMaxC= 1.00D-01 BMatC= 5.14D-05 BMatP= 2.16D-03
 IDIUse=3 WtCom= 9.95D-01 WtEn= 4.55D-03
 Coeff-Com:  0.549D-03 0.199D-01 0.364D-01 0.152D+00 0.791D+00
 Coeff-En:   0.000D+00 0.000D+00 0.000D+00 0.000D+00 0.100D+01
 Coeff:      0.547D-03 0.198D-01 0.362D-01 0.151D+00 0.792D+00
 Gap=     0.363 Goal=   None    Shift=    0.000
 RMSDP=2.23D-04 MaxDP=1.24D-02 DE=-1.46D-03 OVMax= 2.99D-03

 Cycle   6  Pass 1  IDiag  1:
 RMSU=  1.34D-04    CP:  7.41D-01  8.69D-01  7.26D-01  9.18D-01  1.05D+00
 E= -420.739484766230     Delta-E=       -0.000040265742 Rises=F Damp=F
 DIIS: error= 1.77D-04 at cycle   6 NSaved=   6.
 NSaved= 6 IEnMin= 6 EnMin= -420.739484766230     IErMin= 6 ErrMin= 1.77D-04
 ErrMax= 1.77D-04  0.00D+00 EMaxC= 1.00D-01 BMatC= 7.36D-06 BMatP= 5.14D-05
 IDIUse=3 WtCom= 9.98D-01 WtEn= 1.77D-03
 Coeff-Com: -0.958D-03-0.163D-01-0.177D-01 0.107D-01 0.341D+00 0.684D+00
 Coeff-En:   0.000D+00 0.000D+00 0.000D+00 0.000D+00 0.000D+00 0.100D+01
 Coeff:     -0.956D-03-0.163D-01-0.177D-01 0.107D-01 0.340D+00 0.684D+00
 Gap=     0.364 Goal=   None    Shift=    0.000
 RMSDP=9.50D-05 MaxDP=4.49D-03 DE=-4.03D-05 OVMax= 1.08D-03

 Cycle   7  Pass 1  IDiag  1:
 RMSU=  3.97D-05    CP:  7.41D-01  8.69D-01  7.36D-01  9.46D-01  1.11D+00
                    CP:  1.11D+00
 E= -420.739492407366     Delta-E=       -0.000007641136 Rises=F Damp=F
 DIIS: error= 5.18D-05 at cycle   7 NSaved=   7.
 NSaved= 7 IEnMin= 7 EnMin= -420.739492407366     IErMin= 7 ErrMin= 5.18D-05
 ErrMax= 5.18D-05  0.00D+00 EMaxC= 1.00D-01 BMatC= 3.24D-07 BMatP= 7.36D-06
 IDIUse=1 WtCom= 1.00D+00 WtEn= 0.00D+00
 Coeff-Com: -0.228D-03-0.534D-02-0.661D-02-0.139D-01-0.661D-02 0.122D+00
 Coeff-Com:  0.911D+00
 Coeff:     -0.228D-03-0.534D-02-0.661D-02-0.139D-01-0.661D-02 0.122D+00
 Coeff:      0.911D+00
 Gap=     0.364 Goal=   None    Shift=    0.000
 RMSDP=4.27D-05 MaxDP=2.42D-03 DE=-7.64D-06 OVMax= 4.07D-04

 Cycle   8  Pass 1  IDiag  1:
 RMSU=  1.58D-05    CP:  7.41D-01  8.70D-01  7.40D-01  9.55D-01  1.16D+00
                    CP:  1.21D+00  1.18D+00
 E= -420.739493106954     Delta-E=       -0.000000699588 Rises=F Damp=F
 DIIS: error= 1.48D-05 at cycle   8 NSaved=   8.
 NSaved= 8 IEnMin= 8 EnMin= -420.739493106954     IErMin= 8 ErrMin= 1.48D-05
 ErrMax= 1.48D-05  0.00D+00 EMaxC= 1.00D-01 BMatC= 5.15D-08 BMatP= 3.24D-07
 IDIUse=1 WtCom= 1.00D+00 WtEn= 0.00D+00
 Coeff-Com:  0.395D-04 0.392D-03 0.396D-03-0.562D-02-0.419D-01-0.470D-01
 Coeff-Com:  0.257D+00 0.837D+00
 Coeff:      0.395D-04 0.392D-03 0.396D-03-0.562D-02-0.419D-01-0.470D-01
 Coeff:      0.257D+00 0.837D+00
 Gap=     0.364 Goal=   None    Shift=    0.000
 RMSDP=1.05D-05 MaxDP=6.76D-04 DE=-7.00D-07 OVMax= 1.84D-04

 Cycle   9  Pass 1  IDiag  1:
 RMSU=  4.39D-06    CP:  7.41D-01  8.70D-01  7.40D-01  9.56D-01  1.17D+00
                    CP:  1.23D+00  1.29D+00  1.16D+00
 E= -420.739493209060     Delta-E=       -0.000000102106 Rises=F Damp=F
 DIIS: error= 8.90D-06 at cycle   9 NSaved=   9.
 NSaved= 9 IEnMin= 9 EnMin= -420.739493209060     IErMin= 9 ErrMin= 8.90D-06
 ErrMax= 8.90D-06  0.00D+00 EMaxC= 1.00D-01 BMatC= 7.48D-09 BMatP= 5.15D-08
 IDIUse=1 WtCom= 1.00D+00 WtEn= 0.00D+00
 Coeff-Com:  0.462D-04 0.894D-03 0.113D-02-0.642D-04-0.124D-01-0.328D-01
 Coeff-Com: -0.356D-01 0.276D+00 0.803D+00
 Coeff:      0.462D-04 0.894D-03 0.113D-02-0.642D-04-0.124D-01-0.328D-01
 Coeff:     -0.356D-01 0.276D+00 0.803D+00
 Gap=     0.364 Goal=   None    Shift=    0.000
 RMSDP=3.68D-06 MaxDP=2.42D-04 DE=-1.02D-07 OVMax= 5.73D-05

 Cycle  10  Pass 1  IDiag  1:
 RMSU=  2.06D-06    CP:  7.41D-01  8.70D-01  7.41D-01  9.55D-01  1.17D+00
                    CP:  1.23D+00  1.31D+00  1.21D+00  1.23D+00
 E= -420.739493222887     Delta-E=       -0.000000013827 Rises=F Damp=F
 DIIS: error= 1.40D-06 at cycle  10 NSaved=  10.
 NSaved=10 IEnMin=10 EnMin= -420.739493222887     IErMin=10 ErrMin= 1.40D-06
 ErrMax= 1.40D-06  0.00D+00 EMaxC= 1.00D-01 BMatC= 9.35D-10 BMatP= 7.48D-09
 IDIUse=1 WtCom= 1.00D+00 WtEn= 0.00D+00
 Coeff-Com:  0.933D-05 0.203D-03 0.284D-03 0.520D-03 0.111D-02-0.495D-02
 Coeff-Com: -0.387D-01-0.143D-01 0.257D+00 0.799D+00
 Coeff:      0.933D-05 0.203D-03 0.284D-03 0.520D-03 0.111D-02-0.495D-02
 Coeff:     -0.387D-01-0.143D-01 0.257D+00 0.799D+00
 Gap=     0.364 Goal=   None    Shift=    0.000
 RMSDP=1.56D-06 MaxDP=1.06D-04 DE=-1.38D-08 OVMax= 2.45D-05

 Cycle  11  Pass 1  IDiag  1:
 RMSU=  5.41D-07    CP:  7.41D-01  8.70D-01  7.41D-01  9.54D-01  1.17D+00
                    CP:  1.23D+00  1.32D+00  1.25D+00  1.37D+00  1.01D+00
 E= -420.739493224467     Delta-E=       -0.000000001580 Rises=F Damp=F
 DIIS: error= 7.37D-07 at cycle  11 NSaved=  11.
 NSaved=11 IEnMin=11 EnMin= -420.739493224467     IErMin=11 ErrMin= 7.37D-07
 ErrMax= 7.37D-07  0.00D+00 EMaxC= 1.00D-01 BMatC= 1.61D-10 BMatP= 9.35D-10
 IDIUse=1 WtCom= 1.00D+00 WtEn= 0.00D+00
 Coeff-Com: -0.214D-05-0.224D-04-0.130D-04 0.254D-03 0.226D-02 0.227D-02
 Coeff-Com: -0.990D-02-0.500D-01-0.189D-01 0.309D+00 0.765D+00
 Coeff:     -0.214D-05-0.224D-04-0.130D-04 0.254D-03 0.226D-02 0.227D-02
 Coeff:     -0.990D-02-0.500D-01-0.189D-01 0.309D+00 0.765D+00
 Gap=     0.364 Goal=   None    Shift=    0.000
 RMSDP=5.31D-07 MaxDP=2.26D-05 DE=-1.58D-09 OVMax= 7.32D-06

 Cycle  12  Pass 1  IDiag  1:
 RMSU=  2.88D-07    CP:  7.41D-01  8.70D-01  7.41D-01  9.54D-01  1.17D+00
                    CP:  1.23D+00  1.31D+00  1.26D+00  1.41D+00  1.12D+00
                    CP:  1.11D+00
 E= -420.739493224717     Delta-E=       -0.000000000250 Rises=F Damp=F
 DIIS: error= 1.67D-07 at cycle  12 NSaved=  12.
 NSaved=12 IEnMin=12 EnMin= -420.739493224717     IErMin=12 ErrMin= 1.67D-07
 ErrMax= 1.67D-07  0.00D+00 EMaxC= 1.00D-01 BMatC= 1.09D-11 BMatP= 1.61D-10
 IDIUse=1 WtCom= 1.00D+00 WtEn= 0.00D+00
 Coeff-Com: -0.125D-05-0.209D-04-0.242D-04 0.233D-04 0.459D-03 0.856D-03
 Coeff-Com:  0.142D-02-0.115D-01-0.247D-01 0.145D-01 0.177D+00 0.842D+00
 Coeff:     -0.125D-05-0.209D-04-0.242D-04 0.233D-04 0.459D-03 0.856D-03
 Coeff:      0.142D-02-0.115D-01-0.247D-01 0.145D-01 0.177D+00 0.842D+00
 Gap=     0.364 Goal=   None    Shift=    0.000
 RMSDP=1.74D-07 MaxDP=7.61D-06 DE=-2.50D-10 OVMax= 3.37D-06

 Cycle  13  Pass 1  IDiag  1:
 RMSU=  8.20D-08    CP:  7.41D-01  8.70D-01  7.41D-01  9.54D-01  1.17D+00
                    CP:  1.23D+00  1.31D+00  1.26D+00  1.42D+00  1.12D+00
                    CP:  1.17D+00  1.08D+00
 E= -420.739493224747     Delta-E=       -0.000000000030 Rises=F Damp=F
 DIIS: error= 1.11D-07 at cycle  13 NSaved=  13.
 NSaved=13 IEnMin=13 EnMin= -420.739493224747     IErMin=13 ErrMin= 1.11D-07
 ErrMax= 1.11D-07  0.00D+00 EMaxC= 1.00D-01 BMatC= 2.36D-12 BMatP= 1.09D-11
 IDIUse=1 WtCom= 1.00D+00 WtEn= 0.00D+00
 Coeff-Com:  0.968D-07-0.347D-05-0.741D-05-0.473D-04-0.339D-03-0.222D-03
 Coeff-Com:  0.252D-02 0.642D-02-0.224D-02-0.575D-01-0.125D+00 0.208D+00
 Coeff-Com:  0.969D+00
 Coeff:      0.968D-07-0.347D-05-0.741D-05-0.473D-04-0.339D-03-0.222D-03
 Coeff:      0.252D-02 0.642D-02-0.224D-02-0.575D-01-0.125D+00 0.208D+00
 Coeff:      0.969D+00
 Gap=     0.364 Goal=   None    Shift=    0.000
 RMSDP=8.06D-08 MaxDP=4.90D-06 DE=-3.04D-11 OVMax= 2.26D-06

 Cycle  14  Pass 1  IDiag  1:
 RMSU=  3.48D-08    CP:  7.41D-01  8.70D-01  7.41D-01  9.54D-01  1.17D+00
                    CP:  1.23D+00  1.31D+00  1.26D+00  1.42D+00  1.12D+00
                    CP:  1.23D+00  1.23D+00  1.27D+00
 E= -420.739493224749     Delta-E=       -0.000000000001 Rises=F Damp=F
 DIIS: error= 2.79D-08 at cycle  14 NSaved=  14.
 NSaved=14 IEnMin=14 EnMin= -420.739493224749     IErMin=14 ErrMin= 2.79D-08
 ErrMax= 2.79D-08  0.00D+00 EMaxC= 1.00D-01 BMatC= 1.84D-13 BMatP= 2.36D-12
 IDIUse=1 WtCom= 1.00D+00 WtEn= 0.00D+00
 Coeff-Com:  0.854D-07 0.221D-05 0.295D-05 0.201D-05-0.431D-04-0.513D-04
 Coeff-Com: -0.296D-03 0.898D-03 0.285D-02 0.593D-04-0.115D-01-0.102D+00
 Coeff-Com: -0.682D-01 0.118D+01
 Coeff:      0.854D-07 0.221D-05 0.295D-05 0.201D-05-0.431D-04-0.513D-04
 Coeff:     -0.296D-03 0.898D-03 0.285D-02 0.593D-04-0.115D-01-0.102D+00
 Coeff:     -0.682D-01 0.118D+01
 Gap=     0.364 Goal=   None    Shift=    0.000
 RMSDP=3.80D-08 MaxDP=3.08D-06 DE=-1.48D-12 OVMax= 9.09D-07

 Cycle  15  Pass 1  IDiag  1:
 RMSU=  7.79D-09    CP:  7.41D-01  8.70D-01  7.41D-01  9.54D-01  1.17D+00
                    CP:  1.23D+00  1.31D+00  1.26D+00  1.42D+00  1.11D+00
                    CP:  1.23D+00  1.25D+00  1.46D+00  1.47D+00
 E= -420.739493224756     Delta-E=       -0.000000000008 Rises=F Damp=F
 DIIS: error= 9.29D-09 at cycle  15 NSaved=  15.
 NSaved=15 IEnMin=15 EnMin= -420.739493224756     IErMin=15 ErrMin= 9.29D-09
 ErrMax= 9.29D-09  0.00D+00 EMaxC= 1.00D-01 BMatC= 2.60D-14 BMatP= 1.84D-13
 IDIUse=1 WtCom= 1.00D+00 WtEn= 0.00D+00
 Coeff-Com:  0.154D-07 0.101D-05 0.169D-05 0.569D-05 0.228D-04 0.124D-04
 Coeff-Com: -0.340D-03-0.383D-03 0.104D-02 0.623D-02 0.112D-01-0.437D-01
 Coeff-Com: -0.118D+00 0.316D+00 0.828D+00
 Coeff:      0.154D-07 0.101D-05 0.169D-05 0.569D-05 0.228D-04 0.124D-04
 Coeff:     -0.340D-03-0.383D-03 0.104D-02 0.623D-02 0.112D-01-0.437D-01
 Coeff:     -0.118D+00 0.316D+00 0.828D+00
 Gap=     0.364 Goal=   None    Shift=    0.000
 RMSDP=8.75D-09 MaxDP=6.74D-07 DE=-7.50D-12 OVMax= 1.71D-07

 SCF Done:  E(RwB97XD) =  -420.739493225     A.U. after   15 cycles
            NFock= 15  Conv=0.88D-08     -V/T= 2.0015
 KE= 4.201127527756D+02 PE=-1.800294110636D+03 EE= 5.510028663370D+02
 Leave Link  502 at Sun Nov  6 23:00:39 2022, MaxMem= 16106127360 cpu:             408.3 elap:              12.8
 (Enter /opt/ap/G16/B01/g16/l601.exe)
 Copying SCF densities to generalized density rwf, IOpCl= 0 IROHF=0.

 **********************************************************************

            Population analysis using the SCF Density.

 **********************************************************************

 Orbital symmetries:
       Occupied  (A) (A) (A) (A) (A) (A) (A) (A) (A) (A) (A) (A)
                 (A) (A) (A) (A) (A) (A) (A) (A) (A) (A) (A) (A)
                 (A) (A) (A) (A) (A) (A) (A) (A)
       Virtual   (A) (A) (A) (A) (A) (A) (A) (A) (A) (A) (A) (A)
                 (A) (A) (A) (A) (A) (A) (A) (A) (A) (A) (A) (A)
                 (A) (A) (A) (A) (A) (A) (A) (A) (A) (A) (A) (A)
                 (A) (A) (A) (A) (A) (A) (A) (A) (A) (A) (A) (A)
                 (A) (A) (A) (A) (A) (A) (A) (A) (A) (A) (A) (A)
                 (A) (A) (A) (A) (A) (A) (A) (A) (A) (A) (A) (A)
                 (A) (A) (A) (A) (A) (A) (A) (A) (A) (A) (A) (A)
                 (A) (A) (A) (A) (A) (A) (A) (A) (A) (A) (A) (A)
                 (A) (A) (A) (A) (A) (A) (A) (A) (A) (A) (A) (A)
                 (A) (A) (A) (A) (A) (A) (A) (A) (A) (A) (A) (A)
                 (A) (A) (A) (A) (A) (A) (A) (A) (A) (A) (A) (A)
                 (A) (A) (A) (A) (A) (A) (A) (A) (A) (A) (A) (A)
                 (A) (A) (A) (A) (A) (A) (A) (A) (A) (A) (A) (A)
                 (A) (A) (A) (A) (A) (A) (A) (A) (A) (A) (A) (A)
                 (A) (A) (A) (A) (A) (A) (A) (A) (A) (A) (A) (A)
                 (A) (A) (A) (A) (A) (A) (A) (A) (A) (A) (A) (A)
                 (A) (A) (A) (A) (A) (A) (A) (A) (A) (A) (A) (A)
                 (A) (A) (A) (A)
 The electronic state is 1-A.
 Alpha  occ. eigenvalues --  -19.31918 -19.23325 -10.43494 -10.31363 -10.29450
 Alpha  occ. eigenvalues --  -10.29328 -10.29021 -10.28832 -10.28719  -1.26022
 Alpha  occ. eigenvalues --   -1.10918  -0.98079  -0.88952  -0.87083  -0.80673
 Alpha  occ. eigenvalues --   -0.73473  -0.72290  -0.65877  -0.60737  -0.58768
 Alpha  occ. eigenvalues --   -0.57880  -0.55810  -0.53877  -0.53372  -0.49254
 Alpha  occ. eigenvalues --   -0.47446  -0.45401  -0.45177  -0.40858  -0.37383
 Alpha  occ. eigenvalues --   -0.34402  -0.33618
 Alpha virt. eigenvalues --    0.02759   0.03785   0.04231   0.04555   0.05124
 Alpha virt. eigenvalues --    0.06411   0.07250   0.08074   0.08699   0.10452
 Alpha virt. eigenvalues --    0.12257   0.12702   0.12937   0.14340   0.14973
 Alpha virt. eigenvalues --    0.16088   0.16266   0.17043   0.17280   0.17890
 Alpha virt. eigenvalues --    0.18585   0.18951   0.19308   0.19999   0.20181
 Alpha virt. eigenvalues --    0.20878   0.20984   0.21308   0.23080   0.23788
 Alpha virt. eigenvalues --    0.25057   0.25703   0.26838   0.27411   0.27702
 Alpha virt. eigenvalues --    0.29168   0.29498   0.30158   0.30771   0.31184
 Alpha virt. eigenvalues --    0.32321   0.34627   0.35109   0.35559   0.36661
 Alpha virt. eigenvalues --    0.37208   0.38012   0.38948   0.39489   0.40250
 Alpha virt. eigenvalues --    0.41020   0.42313   0.43023   0.43499   0.44393
 Alpha virt. eigenvalues --    0.44859   0.45866   0.50495   0.52962   0.56805
 Alpha virt. eigenvalues --    0.59486   0.61452   0.62053   0.62344   0.63528
 Alpha virt. eigenvalues --    0.64452   0.64739   0.65364   0.67186   0.68287
 Alpha virt. eigenvalues --    0.69280   0.70498   0.72870   0.74347   0.74801
 Alpha virt. eigenvalues --    0.76076   0.80838   0.81263   0.82215   0.83074
 Alpha virt. eigenvalues --    0.86848   0.87365   0.90557   0.91748   0.93537
 Alpha virt. eigenvalues --    0.93737   0.95581   0.95876   0.98388   1.00040
 Alpha virt. eigenvalues --    1.01325   1.02309   1.07931   1.08720   1.13500
 Alpha virt. eigenvalues --    1.13710   1.15565   1.16753   1.18929   1.19870
 Alpha virt. eigenvalues --    1.22348   1.25941   1.26315   1.28737   1.32572
 Alpha virt. eigenvalues --    1.36499   1.40388   1.43986   1.45746   1.53471
 Alpha virt. eigenvalues --    1.56742   1.58890   1.59098   1.61444   1.62201
 Alpha virt. eigenvalues --    1.65853   1.66698   1.67419   1.69045   1.73755
 Alpha virt. eigenvalues --    1.74247   1.75414   1.79140   1.84517   1.87445
 Alpha virt. eigenvalues --    1.88064   1.88859   1.90854   1.93653   1.97121
 Alpha virt. eigenvalues --    2.01303   2.02336   2.03335   2.04784   2.05256
 Alpha virt. eigenvalues --    2.06108   2.07494   2.14216   2.17679   2.18016
 Alpha virt. eigenvalues --    2.23388   2.24582   2.32958   2.43934   2.47104
 Alpha virt. eigenvalues --    2.50893   2.52922   2.53915   2.58454   2.62374
 Alpha virt. eigenvalues --    2.68170   2.71417   2.77396   2.79949   2.80935
 Alpha virt. eigenvalues --    2.82776   2.84734   2.88027   2.90681   2.90853
 Alpha virt. eigenvalues --    2.91240   2.92066   2.96655   2.98186   3.00643
 Alpha virt. eigenvalues --    3.01671   3.06948   3.09896   3.16531   3.18500
 Alpha virt. eigenvalues --    3.19879   3.22361   3.24855   3.28286   3.34741
 Alpha virt. eigenvalues --    3.38542   3.43086   3.48619   3.49282   3.64016
 Alpha virt. eigenvalues --    3.66205   3.69138   3.72515   3.86097   3.88144
 Alpha virt. eigenvalues --    4.05226   4.16097   4.27363   4.29932   4.35671
 Alpha virt. eigenvalues --    4.36413   4.40354   4.95016   5.08897   5.18645
 Alpha virt. eigenvalues --    5.27220   5.47343   5.76891   6.07173  23.84462
 Alpha virt. eigenvalues --   23.93732  24.14864  24.21297  24.28510  24.30196
 Alpha virt. eigenvalues --   24.41915  50.03263  50.12727
          Condensed to atoms (all electrons):
               1          2          3          4          5          6
     1  C   11.626682  -2.581024  -2.922321   1.433040  -0.043868  -1.847262
     2  C   -2.581024  10.631425   0.538081  -1.328102   0.393185  -0.676555
     3  C   -2.922321   0.538081  11.298690  -1.586678   0.127427  -0.575397
     4  C    1.433040  -1.328102  -1.586678   6.509205  -0.067567   0.059465
     5  H   -0.043868   0.393185   0.127427  -0.067567   0.484507  -0.057855
     6  C   -1.847262  -0.676555  -0.575397   0.059465  -0.057855   8.253377
     7  C    1.435993  -1.403714  -1.657392   1.105243  -0.012021  -0.001090
     8  H   -0.054171   0.128059   0.401621  -0.025272   0.000139  -0.023026
     9  C   -1.692797   1.175032   1.417974  -0.624877   0.021277   0.016019
    10  H    0.025014  -0.039392  -0.021352   0.392260  -0.010138   0.008541
    11  O   -0.318256  -0.113168  -0.096792   0.052751  -0.009513   0.436596
    12  O    0.024287   0.053559  -0.189415   0.026401  -0.004011   0.502069
    13  H    0.040899  -0.026950  -0.046934   0.002226   0.000467   0.001738
    14  H    0.002236   0.000187   0.011922  -0.032323  -0.000762  -0.008985
    15  H   -0.042181   0.002765   0.001534  -0.001824  -0.001663   0.025719
               7          8          9         10         11         12
     1  C    1.435993  -0.054171  -1.692797   0.025014  -0.318256   0.024287
     2  C   -1.403714   0.128059   1.175032  -0.039392  -0.113168   0.053559
     3  C   -1.657392   0.401621   1.417974  -0.021352  -0.096792  -0.189415
     4  C    1.105243  -0.025272  -0.624877   0.392260   0.052751   0.026401
     5  H   -0.012021   0.000139   0.021277  -0.010138  -0.009513  -0.004011
     6  C   -0.001090  -0.023026   0.016019   0.008541   0.436596   0.502069
     7  C    6.863630  -0.093918  -0.675715  -0.006627   0.021253   0.003462
     8  H   -0.093918   0.464533   0.024984   0.000438  -0.007593   0.002405
     9  C   -0.675715   0.024984   6.417936  -0.018401  -0.021182  -0.007380
    10  H   -0.006627   0.000438  -0.018401   0.471450   0.000008   0.000322
    11  O    0.021253  -0.007593  -0.021182   0.000008   7.997101  -0.146475
    12  O    0.003462   0.002405  -0.007380   0.000322  -0.146475   8.025503
    13  H    0.407597  -0.010822  -0.038179  -0.001259  -0.000125  -0.000800
    14  H   -0.026696  -0.000156   0.403531  -0.004556  -0.000412  -0.000204
    15  H   -0.002654   0.000248   0.000152   0.000096   0.300364  -0.007278
              13         14         15
     1  C    0.040899   0.002236  -0.042181
     2  C   -0.026950   0.000187   0.002765
     3  C   -0.046934   0.011922   0.001534
     4  C    0.002226  -0.032323  -0.001824
     5  H    0.000467  -0.000762  -0.001663
     6  C    0.001738  -0.008985   0.025719
     7  C    0.407597  -0.026696  -0.002654
     8  H   -0.010822  -0.000156   0.000248
     9  C   -0.038179   0.403531   0.000152
    10  H   -0.001259  -0.004556   0.000096
    11  O   -0.000125  -0.000412   0.300364
    12  O   -0.000800  -0.000204  -0.007278
    13  H    0.469694  -0.004650  -0.000105
    14  H   -0.004650   0.470893  -0.000056
    15  H   -0.000105  -0.000056   0.397990
 Mulliken charges:
               1
     1  C    0.913731
     2  C   -0.753387
     3  C   -0.700969
     4  C    0.086053
     5  H    0.180396
     6  C   -0.113353
     7  C    0.042649
     8  H    0.192533
     9  C   -0.398376
    10  H    0.203596
    11  O   -0.094556
    12  O   -0.282444
    13  H    0.207201
    14  H    0.190031
    15  H    0.326894
 Sum of Mulliken charges =  -0.00000
 Mulliken charges with hydrogens summed into heavy atoms:
               1
     1  C    0.913731
     2  C   -0.572991
     3  C   -0.508436
     4  C    0.289649
     6  C   -0.113353
     7  C    0.249850
     9  C   -0.208345
    11  O    0.232339
    12  O   -0.282444
 Electronic spatial extent (au):  <R**2>=           1158.2001
 Charge=             -0.0000 electrons
 Dipole moment (field-independent basis, Debye):
    X=              1.0745    Y=             -1.5908    Z=             -1.7196  Tot=              2.5773
 Quadrupole moment (field-independent basis, Debye-Ang):
   XX=            -43.1745   YY=            -47.7674   ZZ=            -56.5421
   XY=              5.4671   XZ=              5.6454   YZ=             -4.0918
 Traceless Quadrupole moment (field-independent basis, Debye-Ang):
   XX=              5.9868   YY=              1.3939   ZZ=             -7.3807
   XY=              5.4671   XZ=              5.6454   YZ=             -4.0918
 Octapole moment (field-independent basis, Debye-Ang**2):
  XXX=            -22.8251  YYY=             -1.6420  ZZZ=             -2.2856  XYY=              1.8199
  XXY=            -18.3804  XXZ=            -19.4029  XZZ=             -6.3733  YZZ=             -1.5878
  YYZ=             -1.5141  XYZ=              2.0022
 Hexadecapole moment (field-independent basis, Debye-Ang**3):
 XXXX=           -874.4388 YYYY=           -298.6049 ZZZZ=           -123.2333 XXXY=             61.7426
 XXXZ=             64.4468 YYYX=              7.3540 YYYZ=             -8.5521 ZZZX=              8.1665
 ZZZY=              2.3654 XXYY=           -217.0348 XXZZ=           -209.8459 YYZZ=            -78.0186
 XXYZ=             -9.4071 YYXZ=              4.7832 ZZXY=              4.8328
 N-N= 4.084389982988D+02 E-N=-1.800294110745D+03  KE= 4.201127527756D+02
 No NMR shielding tensors so no spin-rotation constants.
 Leave Link  601 at Sun Nov  6 23:00:39 2022, MaxMem= 16106127360 cpu:               3.7 elap:               0.1
 (Enter /opt/ap/G16/B01/g16/l9999.exe)
 1\1\GINC-N05\SP\RwB97XD\6-311++G(d,p)\C7H6O2\ROOT\06-Nov-2022\0\\#P wB
 97XD/6-311++G(d,p) scf=maxcycle=512\\_conf006.gjf nmol_natom 1_15\\0,1
 \C\C,1,1.39016191\C,1,1.39194539,2,119.895942\C,2,1.38669027,1,119.880
 75721,3,0.70825972,0\H,2,0.98744251,1,119.71654057,3,-179.90726164,0\C
 ,1,1.48428757,2,119.93615286,4,-179.87772406,0\C,3,1.40101108,1,119.72
 36454,2,-0.26266839,0\H,3,0.9902154,1,119.1886159,2,178.85397616,0\C,4
 ,1.37899003,2,120.45785903,1,-0.48041454,0\H,4,0.9834739,2,120.3044270
 6,1,179.36166981,0\O,6,1.27459751,1,118.00615353,2,-60.,0\O,6,1.263625
 72,1,118.77715367,2,120.,0\H,7,0.98977053,3,119.37861578,1,-178.935457
 41,0\H,9,0.99498061,4,119.46722635,2,-178.58826714,0\H,11,0.89680392,6
 ,118.15823763,1,176.92714093,0\\Version=ES64L-G16RevB.01\State=1-A\HF=
 -420.7394932\RMSD=8.753e-09\Dipole=0.1536613,-0.7808426,0.6283536\Quad
 rupole=6.3640836,-6.1989744,-0.1651093,3.8500056,-0.6928407,3.7563693\
 PG=C01 [X(C7H6O2)]\\@


 Discoveries are often made by not following instructions,
 by going off the main road, by trying the untried.
 -- Frank Tyger
 Job cpu time:       0 days  0 hours  7 minutes 21.4 seconds.
 Elapsed time:       0 days  0 hours  0 minutes 13.9 seconds.
 File lengths (MBytes):  RWF=     35 Int=      0 D2E=      0 Chk=      4 Scr=      1
 Normal termination of Gaussian 16 at Sun Nov  6 23:00:39 2022.
