 Entering Gaussian System, Link 0=g16
 Input=_conf013.gjf
 Output=_conf013.log
 Initial command:
 /opt/ap/G16/B01/g16/l1.exe "/tmp2/scr/Gau-20960.inp" -scrdir="/tmp2/scr/"
 Entering Link 1 = /opt/ap/G16/B01/g16/l1.exe PID=     20961.
  
 Copyright (c) 1988-2017, Gaussian, Inc.  All Rights Reserved.
  
 This is part of the Gaussian(R) 16 program.  It is based on
 the Gaussian(R) 09 system (copyright 2009, Gaussian, Inc.),
 the Gaussian(R) 03 system (copyright 2003, Gaussian, Inc.),
 the Gaussian(R) 98 system (copyright 1998, Gaussian, Inc.),
 the Gaussian(R) 94 system (copyright 1995, Gaussian, Inc.),
 the Gaussian 92(TM) system (copyright 1992, Gaussian, Inc.),
 the Gaussian 90(TM) system (copyright 1990, Gaussian, Inc.),
 the Gaussian 88(TM) system (copyright 1988, Gaussian, Inc.),
 the Gaussian 86(TM) system (copyright 1986, Carnegie Mellon
 University), and the Gaussian 82(TM) system (copyright 1983,
 Carnegie Mellon University). Gaussian is a federally registered
 trademark of Gaussian, Inc.
  
 This software contains proprietary and confidential information,
 including trade secrets, belonging to Gaussian, Inc.
  
 This software is provided under written license and may be
 used, copied, transmitted, or stored only in accord with that
 written license.
  
 The following legend is applicable only to US Government
 contracts under FAR:
  
                    RESTRICTED RIGHTS LEGEND
  
 Use, reproduction and disclosure by the US Government is
 subject to restrictions as set forth in subparagraphs (a)
 and (c) of the Commercial Computer Software - Restricted
 Rights clause in FAR 52.227-19.
  
 Gaussian, Inc.
 340 Quinnipiac St., Bldg. 40, Wallingford CT 06492
  
  
 ---------------------------------------------------------------
 Warning -- This program may not be used in any manner that
 competes with the business of Gaussian, Inc. or will provide
 assistance to any competitor of Gaussian, Inc.  The licensee
 of this program is prohibited from giving any competitor of
 Gaussian, Inc. access to this program.  By using this program,
 the user acknowledges that Gaussian, Inc. is engaged in the
 business of creating and licensing software in the field of
 computational chemistry and represents and warrants to the
 licensee that it is not a competitor of Gaussian, Inc. and that
 it will not use this program in any manner prohibited above.
 ---------------------------------------------------------------
  

 Cite this work as:
 Gaussian 16, Revision B.01,
 M. J. Frisch, G. W. Trucks, H. B. Schlegel, G. E. Scuseria, 
 M. A. Robb, J. R. Cheeseman, G. Scalmani, V. Barone, 
 G. A. Petersson, H. Nakatsuji, X. Li, M. Caricato, A. V. Marenich, 
 J. Bloino, B. G. Janesko, R. Gomperts, B. Mennucci, H. P. Hratchian, 
 J. V. Ortiz, A. F. Izmaylov, J. L. Sonnenberg, D. Williams-Young, 
 F. Ding, F. Lipparini, F. Egidi, J. Goings, B. Peng, A. Petrone, 
 T. Henderson, D. Ranasinghe, V. G. Zakrzewski, J. Gao, N. Rega, 
 G. Zheng, W. Liang, M. Hada, M. Ehara, K. Toyota, R. Fukuda, 
 J. Hasegawa, M. Ishida, T. Nakajima, Y. Honda, O. Kitao, H. Nakai, 
 T. Vreven, K. Throssell, J. A. Montgomery, Jr., J. E. Peralta, 
 F. Ogliaro, M. J. Bearpark, J. J. Heyd, E. N. Brothers, K. N. Kudin, 
 V. N. Staroverov, T. A. Keith, R. Kobayashi, J. Normand, 
 K. Raghavachari, A. P. Rendell, J. C. Burant, S. S. Iyengar, 
 J. Tomasi, M. Cossi, J. M. Millam, M. Klene, C. Adamo, R. Cammi, 
 J. W. Ochterski, R. L. Martin, K. Morokuma, O. Farkas, 
 J. B. Foresman, and D. J. Fox, Gaussian, Inc., Wallingford CT, 2016.
 
 ******************************************
 Gaussian 16:  ES64L-G16RevB.01 20-Dec-2017
                 6-Nov-2022 
 ******************************************
 %nprocshared=32
 Will use up to   32 processors via shared memory.
 %mem=120GB
 %chk=_conf013.chk
 ----------------------------------------
 #P wB97XD/6-311++G(d,p) scf=maxcycle=512
 ----------------------------------------
 1/38=1,172=1/1;
 2/12=2,17=6,18=5,40=1/2;
 3/5=4,6=6,7=1111,11=2,25=1,30=1,74=-58/1,2,3;
 4//1;
 5/5=2,7=512,38=5/2;
 6/7=2,8=2,9=2,10=2,28=1/1;
 99/5=1,9=1/99;
 Leave Link    1 at Sun Nov  6 23:00:53 2022, MaxMem= 16106127360 cpu:               1.8 elap:               0.1
 (Enter /opt/ap/G16/B01/g16/l101.exe)
 ----------------------------
 _conf013.gjf nmol_natom 1_15
 ----------------------------
 Symbolic Z-matrix:
 Charge =  0 Multiplicity = 1
 C
 C                    1     1.39016 
 C                    1     1.39195  2     119.89594 
 C                    2     1.38669  1     119.88076  3     0.70826  0
 H                    2     0.98744  1     119.71654  3    -179.90726  0
 C                    1     1.48429  2     119.93615  4    -179.87772  0
 C                    3     1.40101  1     119.72365  2    -0.26267  0
 H                    3     0.99022  1     119.18862  2     178.85398  0
 C                    4     1.37899  2     120.45786  1    -0.48041  0
 H                    4     0.98347  2     120.30443  1     179.36167  0
 O                    6     1.2746   1     118.00615  2    -25.      0
 O                    6     1.26363  1     118.77715  2     155.     0
 H                    7     0.98977  3     119.37862  1    -178.93546  0
 H                    9     0.99498  4     119.46723  2    -178.58827  0
 H                    11    0.8968   6     118.15824  1     176.92714  0
 
 ITRead=  0  0  0  0  0  0  0  0  0  0  0  0  0  0  0
 MicOpt= -1 -1 -1 -1 -1 -1 -1 -1 -1 -1 -1 -1 -1 -1 -1
 NAtoms=     15 NQM=       15 NQMF=       0 NMMI=      0 NMMIF=      0
                NMic=       0 NMicF=      0.
                    Isotopes and Nuclear Properties:
 (Nuclear quadrupole moments (NQMom) in fm**2, nuclear magnetic moments (NMagM)
  in nuclear magnetons)

  Atom         1           2           3           4           5           6           7           8           9          10
 IAtWgt=          12          12          12          12           1          12          12           1          12           1
 AtmWgt=  12.0000000  12.0000000  12.0000000  12.0000000   1.0078250  12.0000000  12.0000000   1.0078250  12.0000000   1.0078250
 NucSpn=           0           0           0           0           1           0           0           1           0           1
 AtZEff=  -0.0000000  -0.0000000  -0.0000000  -0.0000000  -0.0000000  -0.0000000  -0.0000000  -0.0000000  -0.0000000  -0.0000000
 NQMom=    0.0000000   0.0000000   0.0000000   0.0000000   0.0000000   0.0000000   0.0000000   0.0000000   0.0000000   0.0000000
 NMagM=    0.0000000   0.0000000   0.0000000   0.0000000   2.7928460   0.0000000   0.0000000   2.7928460   0.0000000   2.7928460
 AtZNuc=   6.0000000   6.0000000   6.0000000   6.0000000   1.0000000   6.0000000   6.0000000   1.0000000   6.0000000   1.0000000

  Atom        11          12          13          14          15
 IAtWgt=          16          16           1           1           1
 AtmWgt=  15.9949146  15.9949146   1.0078250   1.0078250   1.0078250
 NucSpn=           0           0           1           1           1
 AtZEff=  -0.0000000  -0.0000000  -0.0000000  -0.0000000  -0.0000000
 NQMom=    0.0000000   0.0000000   0.0000000   0.0000000   0.0000000
 NMagM=    0.0000000   0.0000000   2.7928460   2.7928460   2.7928460
 AtZNuc=   8.0000000   8.0000000   1.0000000   1.0000000   1.0000000
 Leave Link  101 at Sun Nov  6 23:00:53 2022, MaxMem= 16106127360 cpu:               5.2 elap:               0.2
 (Enter /opt/ap/G16/B01/g16/l202.exe)
                          Input orientation:                          
 ---------------------------------------------------------------------
 Center     Atomic      Atomic             Coordinates (Angstroms)
 Number     Number       Type             X           Y           Z
 ---------------------------------------------------------------------
      1          6           0        0.000000    0.000000    0.000000
      2          6           0        0.000000    0.000000    1.390162
      3          6           0        1.206722    0.000000   -0.693782
      4          6           0        1.202258    0.014862    2.081006
      5          1           0       -0.857581   -0.001388    1.879646
      6          6           0       -1.286190   -0.013155   -0.740711
      7          6           0        2.415349    0.005578    0.014752
      8          1           0        1.194584   -0.017290   -1.683772
      9          6           0        2.400563    0.019708    1.398617
     10          1           0        1.209438    0.024411    3.064408
     11          8           0       -2.308895   -0.499228   -0.155558
     12          8           0       -1.317201    0.454630   -1.914153
     13          1           0        3.270315    0.021574   -0.483669
     14          1           0        3.254554    0.009066    1.909081
     15          1           0       -3.095773   -0.470093   -0.584780
 ---------------------------------------------------------------------
                    Distance matrix (angstroms):
                    1          2          3          4          5
     1  C    0.000000
     2  C    1.390162   0.000000
     3  C    1.391945   2.408112   0.000000
     4  C    2.403379   1.386690   2.774832   0.000000
     5  H    2.066039   0.987443   3.299073   2.069721   0.000000
     6  C    1.484288   2.488991   2.493388   3.762345   2.655206
     7  C    2.415401   2.779513   1.401011   2.396056   3.766955
     8  H    2.064563   3.297939   0.990215   3.764924   4.112127
     9  C    2.778349   2.400659   2.409104   1.378990   3.293530
    10  H    3.294530   2.065535   3.758270   0.983474   2.382624
    11  O    2.367367   2.823026   3.591445   4.194604   2.548767
    12  O    2.367633   3.586112   2.840102   4.743665   3.848651
    13  H    3.305958   3.769173   2.074374   3.294611   4.756607
    14  H    3.773167   3.295676   3.311886   2.059493   4.112253
    15  H    3.185399   3.702053   4.329473   5.080813   3.361932
                    6          7          8          9         10
     6  C    0.000000
     7  C    3.777892   0.000000
     8  H    2.653982   2.091836   0.000000
     9  C    4.262622   1.384016   3.310118   0.000000
    10  H    4.550659   3.279477   4.748386   2.047842   0.000000
    11  O    1.274598   4.754190   3.852541   4.986356   4.798025
    12  O    1.263626   4.225430   2.566096   4.998537   5.599559
    13  H    4.563881   0.989771   2.398003   2.073517   4.103177
    14  H    5.257398   2.071897   4.141589   0.994981   2.348938
    15  H    1.872885   5.564007   4.451964   5.863743   5.665329
                   11         12         13         14         15
    11  O    0.000000
    12  O    2.232926   0.000000
    13  H    5.613063   4.824844   0.000000
    14  H    5.955926   5.976335   2.392834   0.000000
    15  H    0.896804   2.405340   6.385846   6.839268   0.000000
 Stoichiometry    C7H6O2
 Framework group  C1[X(C7H6O2)]
 Deg. of freedom    39
 Full point group                 C1      NOp   1
 Largest Abelian subgroup         C1      NOp   1
 Largest concise Abelian subgroup C1      NOp   1
                         Standard orientation:                         
 ---------------------------------------------------------------------
 Center     Atomic      Atomic             Coordinates (Angstroms)
 Number     Number       Type             X           Y           Z
 ---------------------------------------------------------------------
      1          6           0       -0.220641    0.027440    0.009880
      2          6           0        0.446315   -1.184551    0.146990
      3          6           0        0.505124    1.205190   -0.144011
      4          6           0        1.832684   -1.214294    0.144733
      5          1           0       -0.071196   -2.018601    0.254626
      6          6           0       -1.704540    0.061017    0.014858
      7          6           0        1.905430    1.161929   -0.154190
      8          1           0        0.019252    2.060451   -0.257955
      9          6           0        2.556603   -0.049889   -0.002628
     10          1           0        2.310931   -2.067097    0.250695
     11          8           0       -2.328243   -0.993238   -0.337475
     12          8           0       -2.287745    1.125711    0.365643
     13          1           0        2.416576    2.004289   -0.248022
     14          1           0        3.550528   -0.090782   -0.023327
     15          1           0       -3.224038   -0.989084   -0.295160
 ---------------------------------------------------------------------
 Rotational constants (GHZ):           3.9687525           1.2229629           0.9536749
 Leave Link  202 at Sun Nov  6 23:00:53 2022, MaxMem= 16106127360 cpu:               1.4 elap:               0.0
 (Enter /opt/ap/G16/B01/g16/l301.exe)
 Standard basis: 6-311++G(d,p) (5D, 7F)
 Ernie: Thresh=  0.10000D-02 Tol=  0.10000D-05 Strict=F.
 There are   249 symmetry adapted cartesian basis functions of A   symmetry.
 There are   240 symmetry adapted basis functions of A   symmetry.
   240 basis functions,   378 primitive gaussians,   249 cartesian basis functions
    32 alpha electrons       32 beta electrons
       nuclear repulsion energy       409.2796489738 Hartrees.
 IExCor= 4639 DFT=T Ex+Corr=wB97XD ExCW=0 ScaHFX=  1.000000
 ScaDFX=  1.000000  1.000000  1.000000  1.000000 ScalE2=  1.000000  1.000000
 IRadAn=      5 IRanWt=     -1 IRanGd=            0 ICorTp=0 IEmpDi=121
 HFx  wShort=  0.000000 wLong=  0.200000 cFull=  0.222036 cShort=  0.000000 cLong=  0.777964
 DFx  wShort=  0.000000 wLong=  0.200000 cFull=  0.000000 cShort=  0.000000 cLong=  1.000000
 NAtoms=   15 NActive=   15 NUniq=   15 SFac= 1.00D+00 NAtFMM=   60 NAOKFM=F Big=F
 Integral buffers will be    131072 words long.
 Raffenetti 2 integral format.
 Two-electron integral symmetry is turned on.
 R6Disp:  Grimme-D2 Dispersion energy=       -0.0063740662 Hartrees.
 Nuclear repulsion after empirical dispersion term =      409.2732749076 Hartrees.
 Leave Link  301 at Sun Nov  6 23:00:53 2022, MaxMem= 16106127360 cpu:               1.3 elap:               0.0
 (Enter /opt/ap/G16/B01/g16/l302.exe)
 NPDir=0 NMtPBC=     1 NCelOv=     1 NCel=       1 NClECP=     1 NCelD=      1
         NCelK=      1 NCelE2=     1 NClLst=     1 CellRange=     0.0.
 One-electron integrals computed using PRISM.
 One-electron integral symmetry used in STVInt
 NBasis=   240 RedAO= T EigKep=  1.24D-06  NBF=   240
 NBsUse=   240 1.00D-06 EigRej= -1.00D+00 NBFU=   240
 Precomputing XC quadrature grid using
 IXCGrd= 4 IRadAn=           5 IRanWt=          -1 IRanGd=           0 AccXCQ= 0.00D+00.
 Generated NRdTot=       0 NPtTot=           0 NUsed=           0 NTot=          32
 NSgBfM=   249   249   249   249   249 MxSgAt=    15 MxSgA2=    15.
 Leave Link  302 at Sun Nov  6 23:00:53 2022, MaxMem= 16106127360 cpu:               5.5 elap:               0.2
 (Enter /opt/ap/G16/B01/g16/l303.exe)
 DipDrv:  MaxL=1.
 Leave Link  303 at Sun Nov  6 23:00:53 2022, MaxMem= 16106127360 cpu:               1.2 elap:               0.0
 (Enter /opt/ap/G16/B01/g16/l401.exe)
 ExpMin= 3.60D-02 ExpMax= 8.59D+03 ExpMxC= 1.30D+03 IAcc=3 IRadAn=         5 AccDes= 0.00D+00
 Harris functional with IExCor= 4639 and IRadAn=       5 diagonalized for initial guess.
 HarFok:  IExCor= 4639 AccDes= 0.00D+00 IRadAn=         5 IDoV= 1 UseB2=F ITyADJ=14
 ICtDFT=  3500011 ScaDFX=  1.000000  1.000000  1.000000  1.000000
 FoFCou: FMM=F IPFlag=           0 FMFlag=      100000 FMFlg1=           0
         NFxFlg=           0 DoJE=T BraDBF=F KetDBF=T FulRan=T
         wScrn=  0.000000 ICntrl=       500 IOpCl=  0 I1Cent=   200000004 NGrid=           0
         NMat0=    1 NMatS0=      1 NMatT0=    0 NMatD0=    1 NMtDS0=    0 NMtDT0=    0
 Petite list used in FoFCou.
 Harris En= -403.253929595373    
 JPrj=0 DoOrth=F DoCkMO=F.
 Leave Link  401 at Sun Nov  6 23:00:54 2022, MaxMem= 16106127360 cpu:              12.0 elap:               0.4
 (Enter /opt/ap/G16/B01/g16/l502.exe)
 Integral symmetry usage will be decided dynamically.
 Closed shell SCF:
 Using DIIS extrapolation, IDIIS=  1040.
 NGot= 16106127360 LenX= 16105992971 LenY= 16105930529
 Requested convergence on RMS density matrix=1.00D-08 within 512 cycles.
 Requested convergence on MAX density matrix=1.00D-06.
 Requested convergence on             energy=1.00D-06.
 No special actions if energy rises.
 Fock matrices will be formed incrementally for  20 cycles.

 Cycle   1  Pass 1  IDiag  1:
 FoFJK:  IHMeth= 1 ICntrl=       0 DoSepK=T KAlg= 0 I1Cent=           0 FoldK=F
 IRaf=         1 NMat=       1 IRICut=       1 DoRegI=T DoRafI=F ISym2E= 0 IDoP0=0 IntGTp=1.
 FoFCou: FMM=F IPFlag=           0 FMFlag=      100000 FMFlg1=           0
         NFxFlg=           0 DoJE=T BraDBF=F KetDBF=F FulRan=T
         wScrn=  0.000000 ICntrl=       500 IOpCl=  0 I1Cent=           0 NGrid=           0
         NMat0=    1 NMatS0=      1 NMatT0=    0 NMatD0=    1 NMtDS0=    0 NMtDT0=    0
 Symmetry not used in FoFCou.
 E= -420.631249393767    
 DIIS: error= 7.83D-02 at cycle   1 NSaved=   1.
 NSaved= 1 IEnMin= 1 EnMin= -420.631249393767     IErMin= 1 ErrMin= 7.83D-02
 ErrMax= 7.83D-02  0.00D+00 EMaxC= 1.00D-01 BMatC= 8.60D-01 BMatP= 8.60D-01
 IDIUse=3 WtCom= 2.17D-01 WtEn= 7.83D-01
 Coeff-Com:  0.100D+01
 Coeff-En:   0.100D+01
 Coeff:      0.100D+01
 Gap=     0.426 Goal=   None    Shift=    0.000
 GapD=    0.426 DampG=2.000 DampE=0.500 DampFc=1.0000 IDamp=-1.
 RMSDP=2.46D-02 MaxDP=1.51D+00              OVMax= 1.03D-01

 Cycle   2  Pass 1  IDiag  1:
 RMSU=  1.44D-02    CP:  6.78D-01
 E= -420.702179417656     Delta-E=       -0.070930023889 Rises=F Damp=F
 DIIS: error= 1.18D-02 at cycle   2 NSaved=   2.
 NSaved= 2 IEnMin= 2 EnMin= -420.702179417656     IErMin= 2 ErrMin= 1.18D-02
 ErrMax= 1.18D-02  0.00D+00 EMaxC= 1.00D-01 BMatC= 5.70D-02 BMatP= 8.60D-01
 IDIUse=3 WtCom= 8.82D-01 WtEn= 1.18D-01
 Coeff-Com:  0.135D+00 0.865D+00
 Coeff-En:   0.963D-01 0.904D+00
 Coeff:      0.130D+00 0.870D+00
 Gap=     0.431 Goal=   None    Shift=    0.000
 RMSDP=7.28D-03 MaxDP=3.74D-01 DE=-7.09D-02 OVMax= 8.52D-02

 Cycle   3  Pass 1  IDiag  1:
 RMSU=  5.85D-03    CP:  6.75D-01  6.99D-01
 E= -420.718285171704     Delta-E=       -0.016105754047 Rises=F Damp=F
 DIIS: error= 1.10D-02 at cycle   3 NSaved=   3.
 NSaved= 3 IEnMin= 3 EnMin= -420.718285171704     IErMin= 3 ErrMin= 1.10D-02
 ErrMax= 1.10D-02  0.00D+00 EMaxC= 1.00D-01 BMatC= 3.58D-02 BMatP= 5.70D-02
 IDIUse=3 WtCom= 8.90D-01 WtEn= 1.10D-01
 Coeff-Com:  0.278D-01 0.447D+00 0.525D+00
 Coeff-En:   0.000D+00 0.384D+00 0.616D+00
 Coeff:      0.248D-01 0.440D+00 0.535D+00
 Gap=     0.356 Goal=   None    Shift=    0.000
 RMSDP=3.82D-03 MaxDP=1.99D-01 DE=-1.61D-02 OVMax= 5.34D-02

 Cycle   4  Pass 1  IDiag  1:
 RMSU=  2.20D-03    CP:  6.55D-01  8.69D-01  7.44D-01
 E= -420.744317228423     Delta-E=       -0.026032056719 Rises=F Damp=F
 DIIS: error= 2.52D-03 at cycle   4 NSaved=   4.
 NSaved= 4 IEnMin= 4 EnMin= -420.744317228423     IErMin= 4 ErrMin= 2.52D-03
 ErrMax= 2.52D-03  0.00D+00 EMaxC= 1.00D-01 BMatC= 1.92D-03 BMatP= 3.58D-02
 IDIUse=3 WtCom= 9.75D-01 WtEn= 2.52D-02
 Coeff-Com:  0.105D-01 0.221D+00 0.302D+00 0.467D+00
 Coeff-En:   0.000D+00 0.000D+00 0.000D+00 0.100D+01
 Coeff:      0.102D-01 0.216D+00 0.294D+00 0.480D+00
 Gap=     0.355 Goal=   None    Shift=    0.000
 RMSDP=7.88D-04 MaxDP=4.43D-02 DE=-2.60D-02 OVMax= 1.23D-02

 Cycle   5  Pass 1  IDiag  1:
 RMSU=  5.89D-04    CP:  6.51D-01  8.55D-01  7.87D-01  8.57D-01
 E= -420.745615907190     Delta-E=       -0.001298678768 Rises=F Damp=F
 DIIS: error= 4.55D-04 at cycle   5 NSaved=   5.
 NSaved= 5 IEnMin= 5 EnMin= -420.745615907190     IErMin= 5 ErrMin= 4.55D-04
 ErrMax= 4.55D-04  0.00D+00 EMaxC= 1.00D-01 BMatC= 4.87D-05 BMatP= 1.92D-03
 IDIUse=3 WtCom= 9.95D-01 WtEn= 4.55D-03
 Coeff-Com:  0.350D-03 0.158D-01 0.303D-01 0.149D+00 0.805D+00
 Coeff-En:   0.000D+00 0.000D+00 0.000D+00 0.000D+00 0.100D+01
 Coeff:      0.348D-03 0.158D-01 0.302D-01 0.148D+00 0.805D+00
 Gap=     0.352 Goal=   None    Shift=    0.000
 RMSDP=2.78D-04 MaxDP=1.55D-02 DE=-1.30D-03 OVMax= 2.51D-03

 Cycle   6  Pass 1  IDiag  1:
 RMSU=  1.60D-04    CP:  6.50D-01  8.60D-01  8.14D-01  9.22D-01  1.06D+00
 E= -420.745654121407     Delta-E=       -0.000038214217 Rises=F Damp=F
 DIIS: error= 2.10D-04 at cycle   6 NSaved=   6.
 NSaved= 6 IEnMin= 6 EnMin= -420.745654121407     IErMin= 6 ErrMin= 2.10D-04
 ErrMax= 2.10D-04  0.00D+00 EMaxC= 1.00D-01 BMatC= 7.20D-06 BMatP= 4.87D-05
 IDIUse=3 WtCom= 9.98D-01 WtEn= 2.10D-03
 Coeff-Com: -0.956D-03-0.164D-01-0.178D-01 0.122D-01 0.347D+00 0.676D+00
 Coeff-En:   0.000D+00 0.000D+00 0.000D+00 0.000D+00 0.000D+00 0.100D+01
 Coeff:     -0.954D-03-0.164D-01-0.177D-01 0.121D-01 0.346D+00 0.677D+00
 Gap=     0.352 Goal=   None    Shift=    0.000
 RMSDP=1.19D-04 MaxDP=1.08D-02 DE=-3.82D-05 OVMax= 7.85D-04

 Cycle   7  Pass 1  IDiag  1:
 RMSU=  4.23D-05    CP:  6.49D-01  8.59D-01  8.24D-01  9.44D-01  1.13D+00
                    CP:  1.09D+00
 E= -420.745661242573     Delta-E=       -0.000007121166 Rises=F Damp=F
 DIIS: error= 6.44D-05 at cycle   7 NSaved=   7.
 NSaved= 7 IEnMin= 7 EnMin= -420.745661242573     IErMin= 7 ErrMin= 6.44D-05
 ErrMax= 6.44D-05  0.00D+00 EMaxC= 1.00D-01 BMatC= 3.14D-07 BMatP= 7.20D-06
 IDIUse=1 WtCom= 1.00D+00 WtEn= 0.00D+00
 Coeff-Com: -0.233D-03-0.541D-02-0.669D-02-0.137D-01-0.228D-02 0.133D+00
 Coeff-Com:  0.895D+00
 Coeff:     -0.233D-03-0.541D-02-0.669D-02-0.137D-01-0.228D-02 0.133D+00
 Coeff:      0.895D+00
 Gap=     0.352 Goal=   None    Shift=    0.000
 RMSDP=4.54D-05 MaxDP=2.80D-03 DE=-7.12D-06 OVMax= 3.44D-04

 Cycle   8  Pass 1  IDiag  1:
 RMSU=  1.24D-05    CP:  6.49D-01  8.59D-01  8.28D-01  9.53D-01  1.17D+00
                    CP:  1.14D+00  1.07D+00
 E= -420.745661844556     Delta-E=       -0.000000601983 Rises=F Damp=F
 DIIS: error= 1.42D-05 at cycle   8 NSaved=   8.
 NSaved= 8 IEnMin= 8 EnMin= -420.745661844556     IErMin= 8 ErrMin= 1.42D-05
 ErrMax= 1.42D-05  0.00D+00 EMaxC= 1.00D-01 BMatC= 4.27D-08 BMatP= 3.14D-07
 IDIUse=1 WtCom= 1.00D+00 WtEn= 0.00D+00
 Coeff-Com:  0.337D-04 0.320D-03 0.257D-03-0.560D-02-0.391D-01-0.400D-01
 Coeff-Com:  0.241D+00 0.844D+00
 Coeff:      0.337D-04 0.320D-03 0.257D-03-0.560D-02-0.391D-01-0.400D-01
 Coeff:      0.241D+00 0.844D+00
 Gap=     0.352 Goal=   None    Shift=    0.000
 RMSDP=1.17D-05 MaxDP=7.58D-04 DE=-6.02D-07 OVMax= 1.37D-04

 Cycle   9  Pass 1  IDiag  1:
 RMSU=  4.16D-06    CP:  6.49D-01  8.59D-01  8.29D-01  9.53D-01  1.18D+00
                    CP:  1.17D+00  1.19D+00  1.11D+00
 E= -420.745661923609     Delta-E=       -0.000000079052 Rises=F Damp=F
 DIIS: error= 1.06D-05 at cycle   9 NSaved=   9.
 NSaved= 9 IEnMin= 9 EnMin= -420.745661923609     IErMin= 9 ErrMin= 1.06D-05
 ErrMax= 1.06D-05  0.00D+00 EMaxC= 1.00D-01 BMatC= 5.21D-09 BMatP= 4.27D-08
 IDIUse=1 WtCom= 1.00D+00 WtEn= 0.00D+00
 Coeff-Com:  0.390D-04 0.749D-03 0.920D-03-0.190D-03-0.107D-01-0.282D-01
 Coeff-Com: -0.306D-01 0.255D+00 0.812D+00
 Coeff:      0.390D-04 0.749D-03 0.920D-03-0.190D-03-0.107D-01-0.282D-01
 Coeff:     -0.306D-01 0.255D+00 0.812D+00
 Gap=     0.352 Goal=   None    Shift=    0.000
 RMSDP=4.00D-06 MaxDP=2.95D-04 DE=-7.91D-08 OVMax= 4.90D-05

 Cycle  10  Pass 1  IDiag  1:
 RMSU=  1.67D-06    CP:  6.49D-01  8.59D-01  8.29D-01  9.52D-01  1.18D+00
                    CP:  1.17D+00  1.22D+00  1.16D+00  1.37D+00
 E= -420.745661933231     Delta-E=       -0.000000009622 Rises=F Damp=F
 DIIS: error= 1.33D-06 at cycle  10 NSaved=  10.
 NSaved=10 IEnMin=10 EnMin= -420.745661933231     IErMin=10 ErrMin= 1.33D-06
 ErrMax= 1.33D-06  0.00D+00 EMaxC= 1.00D-01 BMatC= 6.65D-10 BMatP= 5.21D-09
 IDIUse=1 WtCom= 1.00D+00 WtEn= 0.00D+00
 Coeff-Com:  0.704D-05 0.156D-03 0.215D-03 0.453D-03 0.135D-02-0.410D-02
 Coeff-Com: -0.324D-01-0.247D-01 0.235D+00 0.824D+00
 Coeff:      0.704D-05 0.156D-03 0.215D-03 0.453D-03 0.135D-02-0.410D-02
 Coeff:     -0.324D-01-0.247D-01 0.235D+00 0.824D+00
 Gap=     0.352 Goal=   None    Shift=    0.000
 RMSDP=1.45D-06 MaxDP=7.64D-05 DE=-9.62D-09 OVMax= 1.58D-05

 Cycle  11  Pass 1  IDiag  1:
 RMSU=  5.09D-07    CP:  6.49D-01  8.59D-01  8.29D-01  9.52D-01  1.19D+00
                    CP:  1.17D+00  1.23D+00  1.20D+00  1.49D+00  1.08D+00
 E= -420.745661934387     Delta-E=       -0.000000001156 Rises=F Damp=F
 DIIS: error= 1.02D-06 at cycle  11 NSaved=  11.
 NSaved=11 IEnMin=11 EnMin= -420.745661934387     IErMin=11 ErrMin= 1.02D-06
 ErrMax= 1.02D-06  0.00D+00 EMaxC= 1.00D-01 BMatC= 1.25D-10 BMatP= 6.65D-10
 IDIUse=1 WtCom= 1.00D+00 WtEn= 0.00D+00
 Coeff-Com: -0.182D-05-0.170D-04-0.626D-05 0.247D-03 0.207D-02 0.168D-02
 Coeff-Com: -0.866D-02-0.491D-01-0.180D-01 0.332D+00 0.740D+00
 Coeff:     -0.182D-05-0.170D-04-0.626D-05 0.247D-03 0.207D-02 0.168D-02
 Coeff:     -0.866D-02-0.491D-01-0.180D-01 0.332D+00 0.740D+00
 Gap=     0.352 Goal=   None    Shift=    0.000
 RMSDP=6.11D-07 MaxDP=3.12D-05 DE=-1.16D-09 OVMax= 7.31D-06

 Cycle  12  Pass 1  IDiag  1:
 RMSU=  2.14D-07    CP:  6.49D-01  8.59D-01  8.29D-01  9.52D-01  1.19D+00
                    CP:  1.17D+00  1.23D+00  1.20D+00  1.54D+00  1.16D+00
                    CP:  1.15D+00
 E= -420.745661934577     Delta-E=       -0.000000000190 Rises=F Damp=F
 DIIS: error= 1.68D-07 at cycle  12 NSaved=  12.
 NSaved=12 IEnMin=12 EnMin= -420.745661934577     IErMin=12 ErrMin= 1.68D-07
 ErrMax= 1.68D-07  0.00D+00 EMaxC= 1.00D-01 BMatC= 9.71D-12 BMatP= 1.25D-10
 IDIUse=1 WtCom= 1.00D+00 WtEn= 0.00D+00
 Coeff-Com: -0.110D-05-0.184D-04-0.202D-04 0.261D-04 0.410D-03 0.684D-03
 Coeff-Com:  0.138D-02-0.106D-01-0.254D-01 0.839D-02 0.178D+00 0.847D+00
 Coeff:     -0.110D-05-0.184D-04-0.202D-04 0.261D-04 0.410D-03 0.684D-03
 Coeff:      0.138D-02-0.106D-01-0.254D-01 0.839D-02 0.178D+00 0.847D+00
 Gap=     0.352 Goal=   None    Shift=    0.000
 RMSDP=1.73D-07 MaxDP=9.21D-06 DE=-1.90D-10 OVMax= 2.77D-06

 Cycle  13  Pass 1  IDiag  1:
 RMSU=  8.37D-08    CP:  6.49D-01  8.59D-01  8.29D-01  9.52D-01  1.19D+00
                    CP:  1.17D+00  1.23D+00  1.20D+00  1.56D+00  1.15D+00
                    CP:  1.27D+00  1.09D+00
 E= -420.745661934606     Delta-E=       -0.000000000029 Rises=F Damp=F
 DIIS: error= 1.03D-07 at cycle  13 NSaved=  13.
 NSaved=13 IEnMin=13 EnMin= -420.745661934606     IErMin=13 ErrMin= 1.03D-07
 ErrMax= 1.03D-07  0.00D+00 EMaxC= 1.00D-01 BMatC= 2.08D-12 BMatP= 9.71D-12
 IDIUse=1 WtCom= 1.00D+00 WtEn= 0.00D+00
 Coeff-Com:  0.583D-07-0.384D-05-0.734D-05-0.442D-04-0.308D-03-0.155D-03
 Coeff-Com:  0.231D-02 0.649D-02-0.320D-02-0.654D-01-0.115D+00 0.245D+00
 Coeff-Com:  0.930D+00
 Coeff:      0.583D-07-0.384D-05-0.734D-05-0.442D-04-0.308D-03-0.155D-03
 Coeff:      0.231D-02 0.649D-02-0.320D-02-0.654D-01-0.115D+00 0.245D+00
 Coeff:      0.930D+00
 Gap=     0.352 Goal=   None    Shift=    0.000
 RMSDP=6.63D-08 MaxDP=2.52D-06 DE=-2.91D-11 OVMax= 1.92D-06

 Cycle  14  Pass 1  IDiag  1:
 RMSU=  3.20D-08    CP:  6.49D-01  8.59D-01  8.29D-01  9.52D-01  1.19D+00
                    CP:  1.17D+00  1.23D+00  1.20D+00  1.55D+00  1.15D+00
                    CP:  1.34D+00  1.24D+00  1.20D+00
 E= -420.745661934614     Delta-E=       -0.000000000008 Rises=F Damp=F
 DIIS: error= 3.94D-08 at cycle  14 NSaved=  14.
 NSaved=14 IEnMin=14 EnMin= -420.745661934614     IErMin=14 ErrMin= 3.94D-08
 ErrMax= 3.94D-08  0.00D+00 EMaxC= 1.00D-01 BMatC= 1.72D-13 BMatP= 2.08D-12
 IDIUse=1 WtCom= 1.00D+00 WtEn= 0.00D+00
 Coeff-Com:  0.800D-07 0.171D-05 0.207D-05-0.197D-05-0.603D-04-0.464D-04
 Coeff-Com: -0.130D-03 0.124D-02 0.268D-02-0.300D-02-0.212D-01-0.853D-01
 Coeff-Com: -0.143D-02 0.111D+01
 Coeff:      0.800D-07 0.171D-05 0.207D-05-0.197D-05-0.603D-04-0.464D-04
 Coeff:     -0.130D-03 0.124D-02 0.268D-02-0.300D-02-0.212D-01-0.853D-01
 Coeff:     -0.143D-02 0.111D+01
 Gap=     0.352 Goal=   None    Shift=    0.000
 RMSDP=3.38D-08 MaxDP=2.30D-06 DE=-7.96D-12 OVMax= 8.00D-07

 Cycle  15  Pass 1  IDiag  1:
 RMSU=  8.05D-09    CP:  6.49D-01  8.59D-01  8.29D-01  9.52D-01  1.19D+00
                    CP:  1.17D+00  1.23D+00  1.20D+00  1.55D+00  1.14D+00
                    CP:  1.35D+00  1.27D+00  1.35D+00  1.44D+00
 E= -420.745661934610     Delta-E=        0.000000000004 Rises=F Damp=F
 DIIS: error= 1.64D-08 at cycle  15 NSaved=  15.
 NSaved=15 IEnMin=14 EnMin= -420.745661934614     IErMin=15 ErrMin= 1.64D-08
 ErrMax= 1.64D-08  0.00D+00 EMaxC= 1.00D-01 BMatC= 3.77D-14 BMatP= 1.72D-13
 IDIUse=1 WtCom= 1.00D+00 WtEn= 0.00D+00
 Coeff-Com:  0.193D-07 0.111D-05 0.176D-05 0.533D-05 0.180D-04 0.102D-04
 Coeff-Com: -0.346D-03-0.369D-03 0.143D-02 0.764D-02 0.801D-02-0.554D-01
 Coeff-Com: -0.123D+00 0.380D+00 0.781D+00
 Coeff:      0.193D-07 0.111D-05 0.176D-05 0.533D-05 0.180D-04 0.102D-04
 Coeff:     -0.346D-03-0.369D-03 0.143D-02 0.764D-02 0.801D-02-0.554D-01
 Coeff:     -0.123D+00 0.380D+00 0.781D+00
 Gap=     0.352 Goal=   None    Shift=    0.000
 RMSDP=9.07D-09 MaxDP=5.49D-07 DE= 3.52D-12 OVMax= 1.97D-07

 SCF Done:  E(RwB97XD) =  -420.745661935     A.U. after   15 cycles
            NFock= 15  Conv=0.91D-08     -V/T= 2.0015
 KE= 4.201189708143D+02 PE=-1.802035287557D+03 EE= 5.518973799005D+02
 Leave Link  502 at Sun Nov  6 23:01:07 2022, MaxMem= 16106127360 cpu:             413.7 elap:              13.0
 (Enter /opt/ap/G16/B01/g16/l601.exe)
 Copying SCF densities to generalized density rwf, IOpCl= 0 IROHF=0.

 **********************************************************************

            Population analysis using the SCF Density.

 **********************************************************************

 Orbital symmetries:
       Occupied  (A) (A) (A) (A) (A) (A) (A) (A) (A) (A) (A) (A)
                 (A) (A) (A) (A) (A) (A) (A) (A) (A) (A) (A) (A)
                 (A) (A) (A) (A) (A) (A) (A) (A)
       Virtual   (A) (A) (A) (A) (A) (A) (A) (A) (A) (A) (A) (A)
                 (A) (A) (A) (A) (A) (A) (A) (A) (A) (A) (A) (A)
                 (A) (A) (A) (A) (A) (A) (A) (A) (A) (A) (A) (A)
                 (A) (A) (A) (A) (A) (A) (A) (A) (A) (A) (A) (A)
                 (A) (A) (A) (A) (A) (A) (A) (A) (A) (A) (A) (A)
                 (A) (A) (A) (A) (A) (A) (A) (A) (A) (A) (A) (A)
                 (A) (A) (A) (A) (A) (A) (A) (A) (A) (A) (A) (A)
                 (A) (A) (A) (A) (A) (A) (A) (A) (A) (A) (A) (A)
                 (A) (A) (A) (A) (A) (A) (A) (A) (A) (A) (A) (A)
                 (A) (A) (A) (A) (A) (A) (A) (A) (A) (A) (A) (A)
                 (A) (A) (A) (A) (A) (A) (A) (A) (A) (A) (A) (A)
                 (A) (A) (A) (A) (A) (A) (A) (A) (A) (A) (A) (A)
                 (A) (A) (A) (A) (A) (A) (A) (A) (A) (A) (A) (A)
                 (A) (A) (A) (A) (A) (A) (A) (A) (A) (A) (A) (A)
                 (A) (A) (A) (A) (A) (A) (A) (A) (A) (A) (A) (A)
                 (A) (A) (A) (A) (A) (A) (A) (A) (A) (A) (A) (A)
                 (A) (A) (A) (A) (A) (A) (A) (A) (A) (A) (A) (A)
                 (A) (A) (A) (A)
 The electronic state is 1-A.
 Alpha  occ. eigenvalues --  -19.31691 -19.22863 -10.43206 -10.31130 -10.29376
 Alpha  occ. eigenvalues --  -10.29341 -10.29123 -10.29005 -10.28745  -1.25821
 Alpha  occ. eigenvalues --   -1.10644  -0.98091  -0.88934  -0.87046  -0.80574
 Alpha  occ. eigenvalues --   -0.73410  -0.72008  -0.65834  -0.60663  -0.58621
 Alpha  occ. eigenvalues --   -0.57164  -0.55980  -0.54316  -0.53447  -0.48971
 Alpha  occ. eigenvalues --   -0.47435  -0.45548  -0.44874  -0.40938  -0.36545
 Alpha  occ. eigenvalues --   -0.34531  -0.34095
 Alpha virt. eigenvalues --    0.01104   0.03752   0.04259   0.04547   0.05262
 Alpha virt. eigenvalues --    0.06455   0.07653   0.08709   0.10151   0.10742
 Alpha virt. eigenvalues --    0.12062   0.12890   0.13074   0.14341   0.14916
 Alpha virt. eigenvalues --    0.16020   0.16361   0.16975   0.17317   0.17940
 Alpha virt. eigenvalues --    0.18353   0.19373   0.19732   0.20212   0.20536
 Alpha virt. eigenvalues --    0.21072   0.21168   0.21492   0.23185   0.23750
 Alpha virt. eigenvalues --    0.25758   0.26086   0.27291   0.27818   0.28022
 Alpha virt. eigenvalues --    0.29315   0.29506   0.30494   0.30855   0.31676
 Alpha virt. eigenvalues --    0.32425   0.34173   0.35104   0.35283   0.35651
 Alpha virt. eigenvalues --    0.36715   0.36859   0.38196   0.39647   0.39855
 Alpha virt. eigenvalues --    0.41004   0.41471   0.42264   0.43261   0.44148
 Alpha virt. eigenvalues --    0.45250   0.47098   0.51851   0.54386   0.57254
 Alpha virt. eigenvalues --    0.59639   0.60922   0.61899   0.63816   0.63937
 Alpha virt. eigenvalues --    0.64568   0.64968   0.66728   0.67583   0.69420
 Alpha virt. eigenvalues --    0.71365   0.72329   0.73207   0.74943   0.76145
 Alpha virt. eigenvalues --    0.76877   0.81080   0.82254   0.82723   0.84610
 Alpha virt. eigenvalues --    0.88114   0.89354   0.91209   0.92076   0.93858
 Alpha virt. eigenvalues --    0.94229   0.95964   0.96791   0.98309   1.00292
 Alpha virt. eigenvalues --    1.01732   1.02406   1.08050   1.08997   1.13155
 Alpha virt. eigenvalues --    1.13933   1.14871   1.16723   1.18164   1.19574
 Alpha virt. eigenvalues --    1.22326   1.23813   1.24931   1.28038   1.30996
 Alpha virt. eigenvalues --    1.35817   1.36154   1.44128   1.45382   1.55877
 Alpha virt. eigenvalues --    1.56869   1.59093   1.59896   1.61098   1.61912
 Alpha virt. eigenvalues --    1.63425   1.65002   1.67008   1.67410   1.74626
 Alpha virt. eigenvalues --    1.74868   1.77708   1.80109   1.83266   1.87109
 Alpha virt. eigenvalues --    1.88186   1.90926   1.91453   1.94675   1.97971
 Alpha virt. eigenvalues --    1.99889   2.02431   2.02909   2.05190   2.05785
 Alpha virt. eigenvalues --    2.06446   2.08450   2.14317   2.18015   2.18774
 Alpha virt. eigenvalues --    2.23308   2.26646   2.31364   2.43591   2.46322
 Alpha virt. eigenvalues --    2.52142   2.53931   2.54329   2.57730   2.63345
 Alpha virt. eigenvalues --    2.71094   2.71680   2.76702   2.78470   2.81093
 Alpha virt. eigenvalues --    2.81804   2.83049   2.88220   2.90257   2.90606
 Alpha virt. eigenvalues --    2.91063   2.91593   2.96110   2.99931   3.00736
 Alpha virt. eigenvalues --    3.02027   3.06510   3.07111   3.15967   3.18328
 Alpha virt. eigenvalues --    3.19302   3.22855   3.26821   3.29508   3.34582
 Alpha virt. eigenvalues --    3.41749   3.43466   3.48287   3.49445   3.63800
 Alpha virt. eigenvalues --    3.66101   3.69443   3.73622   3.84038   3.87706
 Alpha virt. eigenvalues --    4.06371   4.15146   4.27956   4.30640   4.36179
 Alpha virt. eigenvalues --    4.40588   4.43653   4.94986   5.07379   5.16904
 Alpha virt. eigenvalues --    5.28705   5.47685   5.80086   6.08338  23.84239
 Alpha virt. eigenvalues --   23.94137  24.14245  24.21345  24.28323  24.30342
 Alpha virt. eigenvalues --   24.41793  50.03142  50.14541
          Condensed to atoms (all electrons):
               1          2          3          4          5          6
     1  C   12.469726  -2.243110  -2.963216   1.653449   0.012729  -2.889955
     2  C   -2.243110  13.102287  -0.677657  -2.696872   0.488895  -0.960055
     3  C   -2.963216  -0.677657  11.155364  -0.902692   0.040319  -0.058847
     4  C    1.653449  -2.696872  -0.902692   7.204850  -0.078304  -0.031496
     5  H    0.012729   0.488895   0.040319  -0.078304   0.466027  -0.089570
     6  C   -2.889955  -0.960055  -0.058847  -0.031496  -0.089570   8.922450
     7  C    0.819895  -1.262882  -1.237760   0.945482  -0.009971   0.170505
     8  H    0.038384   0.101430   0.386978  -0.023041  -0.000262  -0.071480
     9  C   -1.498176   1.296645   1.054064  -0.590444   0.013357  -0.010574
    10  H    0.033220  -0.075767  -0.002727   0.405325  -0.007923   0.012586
    11  O   -0.323969  -0.162953  -0.041298   0.078038  -0.029935   0.450445
    12  O   -0.158953  -0.036285  -0.039023   0.033898  -0.003073   0.530685
    13  H    0.013843  -0.028258  -0.042253   0.001158   0.000639   0.016540
    14  H    0.009807   0.007357  -0.001840  -0.036436  -0.000220  -0.012086
    15  H   -0.051877  -0.012891   0.019305  -0.013377   0.000276   0.042939
               7          8          9         10         11         12
     1  C    0.819895   0.038384  -1.498176   0.033220  -0.323969  -0.158953
     2  C   -1.262882   0.101430   1.296645  -0.075767  -0.162953  -0.036285
     3  C   -1.237760   0.386978   1.054064  -0.002727  -0.041298  -0.039023
     4  C    0.945482  -0.023041  -0.590444   0.405325   0.078038   0.033898
     5  H   -0.009971  -0.000262   0.013357  -0.007923  -0.029935  -0.003073
     6  C    0.170505  -0.071480  -0.010574   0.012586   0.450445   0.530685
     7  C    6.690671  -0.086149  -0.495026  -0.008620   0.039152   0.067442
     8  H   -0.086149   0.441463   0.018223   0.000405  -0.003241  -0.005333
     9  C   -0.495026   0.018223   6.331256  -0.025751  -0.031663  -0.015049
    10  H   -0.008620   0.000405  -0.025751   0.469932   0.001832   0.000350
    11  O    0.039152  -0.003241  -0.031663   0.001832   8.011575  -0.127757
    12  O    0.067442  -0.005333  -0.015049   0.000350  -0.127757   8.083815
    13  H    0.408385  -0.010114  -0.029234  -0.001447   0.000579   0.000728
    14  H   -0.026815   0.000631   0.413220  -0.005584  -0.000494  -0.000288
    15  H    0.004487  -0.000475  -0.001195  -0.000016   0.293819  -0.007488
              13         14         15
     1  C    0.013843   0.009807  -0.051877
     2  C   -0.028258   0.007357  -0.012891
     3  C   -0.042253  -0.001840   0.019305
     4  C    0.001158  -0.036436  -0.013377
     5  H    0.000639  -0.000220   0.000276
     6  C    0.016540  -0.012086   0.042939
     7  C    0.408385  -0.026815   0.004487
     8  H   -0.010114   0.000631  -0.000475
     9  C   -0.029234   0.413220  -0.001195
    10  H   -0.001447  -0.005584  -0.000016
    11  O    0.000579  -0.000494   0.293819
    12  O    0.000728  -0.000288  -0.007488
    13  H    0.465386  -0.006043   0.000128
    14  H   -0.006043   0.468837  -0.000112
    15  H    0.000128  -0.000112   0.392022
 Mulliken charges:
               1
     1  C    1.078201
     2  C   -0.839885
     3  C   -0.688715
     4  C    0.050461
     5  H    0.197017
     6  C   -0.022085
     7  C   -0.018796
     8  H    0.212583
     9  C   -0.429653
    10  H    0.204186
    11  O   -0.154129
    12  O   -0.323670
    13  H    0.209962
    14  H    0.190066
    15  H    0.334456
 Sum of Mulliken charges =  -0.00000
 Mulliken charges with hydrogens summed into heavy atoms:
               1
     1  C    1.078201
     2  C   -0.642868
     3  C   -0.476133
     4  C    0.254647
     6  C   -0.022085
     7  C    0.191166
     9  C   -0.239586
    11  O    0.180327
    12  O   -0.323670
 Electronic spatial extent (au):  <R**2>=           1158.2208
 Charge=             -0.0000 electrons
 Dipole moment (field-independent basis, Debye):
    X=              1.3087    Y=             -2.2110    Z=             -0.6873  Tot=              2.6597
 Quadrupole moment (field-independent basis, Debye-Ang):
   XX=            -43.3513   YY=            -49.5991   ZZ=            -54.5540
   XY=              7.7247   XZ=              2.1920   YZ=             -2.5330
 Traceless Quadrupole moment (field-independent basis, Debye-Ang):
   XX=              5.8168   YY=             -0.4309   ZZ=             -5.3859
   XY=              7.7247   XZ=              2.1920   YZ=             -2.5330
 Octapole moment (field-independent basis, Debye-Ang**2):
  XXX=            -21.5025  YYY=             -3.7296  ZZZ=             -0.5252  XYY=              6.3057
  XXY=            -25.4919  XXZ=             -7.6347  XZZ=            -10.2007  YZZ=             -0.6698
  YYZ=             -1.0764  XYZ=              1.5820
 Hexadecapole moment (field-independent basis, Debye-Ang**3):
 XXXX=           -873.3490 YYYY=           -346.9877 ZZZZ=            -71.7097 XXXY=             87.0058
 XXXZ=             24.7284 YYYX=             14.7549 YYYZ=             -6.1838 ZZZX=              2.0682
 ZZZY=              2.2980 XXYY=           -230.6467 XXZZ=           -198.0346 YYZZ=            -78.6747
 XXYZ=             -6.4779 YYXZ=              3.2699 ZZXY=              2.5553
 N-N= 4.092732749076D+02 E-N=-1.802035287854D+03  KE= 4.201189708143D+02
 No NMR shielding tensors so no spin-rotation constants.
 Leave Link  601 at Sun Nov  6 23:01:07 2022, MaxMem= 16106127360 cpu:               3.6 elap:               0.1
 (Enter /opt/ap/G16/B01/g16/l9999.exe)
 1\1\GINC-N04\SP\RwB97XD\6-311++G(d,p)\C7H6O2\ROOT\06-Nov-2022\0\\#P wB
 97XD/6-311++G(d,p) scf=maxcycle=512\\_conf013.gjf nmol_natom 1_15\\0,1
 \C\C,1,1.39016191\C,1,1.39194539,2,119.895942\C,2,1.38669027,1,119.880
 75721,3,0.70825972,0\H,2,0.98744251,1,119.71654057,3,-179.90726164,0\C
 ,1,1.48428757,2,119.93615286,4,-179.87772406,0\C,3,1.40101108,1,119.72
 36454,2,-0.26266839,0\H,3,0.9902154,1,119.1886159,2,178.85397616,0\C,4
 ,1.37899003,2,120.45785903,1,-0.48041454,0\H,4,0.9834739,2,120.3044270
 6,1,179.36166981,0\O,6,1.27459751,1,118.00615353,2,-25.,0\O,6,1.263625
 72,1,118.77715367,2,155.,0\H,7,0.98977053,3,119.37861578,1,-178.935457
 41,0\H,9,0.99498061,4,119.46722635,2,-178.58826714,0\H,11,0.89680392,6
 ,118.15823763,1,176.92714093,0\\Version=ES64L-G16RevB.01\State=1-A\HF=
 -420.7456619\RMSD=9.074e-09\Dipole=0.0578531,-0.3655648,0.9787472\Quad
 rupole=7.943868,-4.3304998,-3.6133681,1.5135956,-1.2224783,2.3157138\P
 G=C01 [X(C7H6O2)]\\@


 ... THIS SEEMS PLAINLY ABSURD; BUT WHOEVER WISHES TO BECOME A 
 PHILOSOPHER MUST LEARN NOT TO BE FRIGHTENED BY ABSURDITIES.

                          -- BERTRAND RUSSELL
 Job cpu time:       0 days  0 hours  7 minutes 28.8 seconds.
 Elapsed time:       0 days  0 hours  0 minutes 14.1 seconds.
 File lengths (MBytes):  RWF=     35 Int=      0 D2E=      0 Chk=      4 Scr=      1
 Normal termination of Gaussian 16 at Sun Nov  6 23:01:07 2022.
