 Entering Gaussian System, Link 0=g16
 Input=_conf026.gjf
 Output=_conf026.log
 Initial command:
 /opt/ap/G16/B01/g16/l1.exe "/tmp2/scr/Gau-32213.inp" -scrdir="/tmp2/scr/"
 Entering Link 1 = /opt/ap/G16/B01/g16/l1.exe PID=     32214.
  
 Copyright (c) 1988-2017, Gaussian, Inc.  All Rights Reserved.
  
 This is part of the Gaussian(R) 16 program.  It is based on
 the Gaussian(R) 09 system (copyright 2009, Gaussian, Inc.),
 the Gaussian(R) 03 system (copyright 2003, Gaussian, Inc.),
 the Gaussian(R) 98 system (copyright 1998, Gaussian, Inc.),
 the Gaussian(R) 94 system (copyright 1995, Gaussian, Inc.),
 the Gaussian 92(TM) system (copyright 1992, Gaussian, Inc.),
 the Gaussian 90(TM) system (copyright 1990, Gaussian, Inc.),
 the Gaussian 88(TM) system (copyright 1988, Gaussian, Inc.),
 the Gaussian 86(TM) system (copyright 1986, Carnegie Mellon
 University), and the Gaussian 82(TM) system (copyright 1983,
 Carnegie Mellon University). Gaussian is a federally registered
 trademark of Gaussian, Inc.
  
 This software contains proprietary and confidential information,
 including trade secrets, belonging to Gaussian, Inc.
  
 This software is provided under written license and may be
 used, copied, transmitted, or stored only in accord with that
 written license.
  
 The following legend is applicable only to US Government
 contracts under FAR:
  
                    RESTRICTED RIGHTS LEGEND
  
 Use, reproduction and disclosure by the US Government is
 subject to restrictions as set forth in subparagraphs (a)
 and (c) of the Commercial Computer Software - Restricted
 Rights clause in FAR 52.227-19.
  
 Gaussian, Inc.
 340 Quinnipiac St., Bldg. 40, Wallingford CT 06492
  
  
 ---------------------------------------------------------------
 Warning -- This program may not be used in any manner that
 competes with the business of Gaussian, Inc. or will provide
 assistance to any competitor of Gaussian, Inc.  The licensee
 of this program is prohibited from giving any competitor of
 Gaussian, Inc. access to this program.  By using this program,
 the user acknowledges that Gaussian, Inc. is engaged in the
 business of creating and licensing software in the field of
 computational chemistry and represents and warrants to the
 licensee that it is not a competitor of Gaussian, Inc. and that
 it will not use this program in any manner prohibited above.
 ---------------------------------------------------------------
  

 Cite this work as:
 Gaussian 16, Revision B.01,
 M. J. Frisch, G. W. Trucks, H. B. Schlegel, G. E. Scuseria, 
 M. A. Robb, J. R. Cheeseman, G. Scalmani, V. Barone, 
 G. A. Petersson, H. Nakatsuji, X. Li, M. Caricato, A. V. Marenich, 
 J. Bloino, B. G. Janesko, R. Gomperts, B. Mennucci, H. P. Hratchian, 
 J. V. Ortiz, A. F. Izmaylov, J. L. Sonnenberg, D. Williams-Young, 
 F. Ding, F. Lipparini, F. Egidi, J. Goings, B. Peng, A. Petrone, 
 T. Henderson, D. Ranasinghe, V. G. Zakrzewski, J. Gao, N. Rega, 
 G. Zheng, W. Liang, M. Hada, M. Ehara, K. Toyota, R. Fukuda, 
 J. Hasegawa, M. Ishida, T. Nakajima, Y. Honda, O. Kitao, H. Nakai, 
 T. Vreven, K. Throssell, J. A. Montgomery, Jr., J. E. Peralta, 
 F. Ogliaro, M. J. Bearpark, J. J. Heyd, E. N. Brothers, K. N. Kudin, 
 V. N. Staroverov, T. A. Keith, R. Kobayashi, J. Normand, 
 K. Raghavachari, A. P. Rendell, J. C. Burant, S. S. Iyengar, 
 J. Tomasi, M. Cossi, J. M. Millam, M. Klene, C. Adamo, R. Cammi, 
 J. W. Ochterski, R. L. Martin, K. Morokuma, O. Farkas, 
 J. B. Foresman, and D. J. Fox, Gaussian, Inc., Wallingford CT, 2016.
 
 ******************************************
 Gaussian 16:  ES64L-G16RevB.01 20-Dec-2017
                 6-Nov-2022 
 ******************************************
 %nprocshared=32
 Will use up to   32 processors via shared memory.
 %mem=120GB
 %chk=_conf026.chk
 ----------------------------------------
 #P wB97XD/6-311++G(d,p) scf=maxcycle=512
 ----------------------------------------
 1/38=1,172=1/1;
 2/12=2,17=6,18=5,40=1/2;
 3/5=4,6=6,7=1111,11=2,25=1,30=1,74=-58/1,2,3;
 4//1;
 5/5=2,7=512,38=5/2;
 6/7=2,8=2,9=2,10=2,28=1/1;
 99/5=1,9=1/99;
 Leave Link    1 at Sun Nov  6 23:01:37 2022, MaxMem= 16106127360 cpu:               1.4 elap:               0.1
 (Enter /opt/ap/G16/B01/g16/l101.exe)
 ----------------------------
 _conf026.gjf nmol_natom 1_15
 ----------------------------
 Symbolic Z-matrix:
 Charge =  0 Multiplicity = 1
 C
 C                    1     1.39016 
 C                    1     1.39195  2     119.89594 
 C                    2     1.38669  1     119.88076  3     0.70826  0
 H                    2     0.98744  1     119.71654  3    -179.90726  0
 C                    1     1.48429  2     119.93615  4    -179.87772  0
 C                    3     1.40101  1     119.72365  2    -0.26267  0
 H                    3     0.99022  1     119.18862  2     178.85398  0
 C                    4     1.37899  2     120.45786  1    -0.48041  0
 H                    4     0.98347  2     120.30443  1     179.36167  0
 O                    6     1.2746   1     118.00615  2     40.      0
 O                    6     1.26363  1     118.77715  2    -140.     0
 H                    7     0.98977  3     119.37862  1    -178.93546  0
 H                    9     0.99498  4     119.46723  2    -178.58827  0
 H                    11    0.8968   6     118.15824  1     176.92714  0
 
 ITRead=  0  0  0  0  0  0  0  0  0  0  0  0  0  0  0
 MicOpt= -1 -1 -1 -1 -1 -1 -1 -1 -1 -1 -1 -1 -1 -1 -1
 NAtoms=     15 NQM=       15 NQMF=       0 NMMI=      0 NMMIF=      0
                NMic=       0 NMicF=      0.
                    Isotopes and Nuclear Properties:
 (Nuclear quadrupole moments (NQMom) in fm**2, nuclear magnetic moments (NMagM)
  in nuclear magnetons)

  Atom         1           2           3           4           5           6           7           8           9          10
 IAtWgt=          12          12          12          12           1          12          12           1          12           1
 AtmWgt=  12.0000000  12.0000000  12.0000000  12.0000000   1.0078250  12.0000000  12.0000000   1.0078250  12.0000000   1.0078250
 NucSpn=           0           0           0           0           1           0           0           1           0           1
 AtZEff=  -0.0000000  -0.0000000  -0.0000000  -0.0000000  -0.0000000  -0.0000000  -0.0000000  -0.0000000  -0.0000000  -0.0000000
 NQMom=    0.0000000   0.0000000   0.0000000   0.0000000   0.0000000   0.0000000   0.0000000   0.0000000   0.0000000   0.0000000
 NMagM=    0.0000000   0.0000000   0.0000000   0.0000000   2.7928460   0.0000000   0.0000000   2.7928460   0.0000000   2.7928460
 AtZNuc=   6.0000000   6.0000000   6.0000000   6.0000000   1.0000000   6.0000000   6.0000000   1.0000000   6.0000000   1.0000000

  Atom        11          12          13          14          15
 IAtWgt=          16          16           1           1           1
 AtmWgt=  15.9949146  15.9949146   1.0078250   1.0078250   1.0078250
 NucSpn=           0           0           1           1           1
 AtZEff=  -0.0000000  -0.0000000  -0.0000000  -0.0000000  -0.0000000
 NQMom=    0.0000000   0.0000000   0.0000000   0.0000000   0.0000000
 NMagM=    0.0000000   0.0000000   2.7928460   2.7928460   2.7928460
 AtZNuc=   8.0000000   8.0000000   1.0000000   1.0000000   1.0000000
 Leave Link  101 at Sun Nov  6 23:01:38 2022, MaxMem= 16106127360 cpu:               5.1 elap:               0.2
 (Enter /opt/ap/G16/B01/g16/l202.exe)
                          Input orientation:                          
 ---------------------------------------------------------------------
 Center     Atomic      Atomic             Coordinates (Angstroms)
 Number     Number       Type             X           Y           Z
 ---------------------------------------------------------------------
      1          6           0        0.000000    0.000000    0.000000
      2          6           0        0.000000    0.000000    1.390162
      3          6           0        1.206722    0.000000   -0.693782
      4          6           0        1.202258    0.014862    2.081006
      5          1           0       -0.857581   -0.001388    1.879646
      6          6           0       -1.286190   -0.013155   -0.740711
      7          6           0        2.415349    0.005578    0.014752
      8          1           0        1.194584   -0.017290   -1.683772
      9          6           0        2.400563    0.019708    1.398617
     10          1           0        1.209438    0.024411    3.064408
     11          8           0       -2.242392    0.700457   -0.292342
     12          8           0       -1.382654   -0.726109   -1.779528
     13          1           0        3.270315    0.021574   -0.483669
     14          1           0        3.254554    0.009066    1.909081
     15          1           0       -3.006503    0.726985   -0.761050
 ---------------------------------------------------------------------
                    Distance matrix (angstroms):
                    1          2          3          4          5
     1  C    0.000000
     2  C    1.390162   0.000000
     3  C    1.391945   2.408112   0.000000
     4  C    2.403379   1.386690   2.774832   0.000000
     5  H    2.066039   0.987443   3.299073   2.069721   0.000000
     6  C    1.484288   2.488991   2.493388   3.762345   2.655206
     7  C    2.415401   2.779513   1.401011   2.396056   3.766955
     8  H    2.064563   3.297939   0.990215   3.764924   4.112127
     9  C    2.778349   2.400659   2.409104   1.378990   3.293530
    10  H    3.294530   2.065535   3.758270   0.983474   2.382624
    11  O    2.367367   2.889599   3.542341   4.238919   2.669798
    12  O    2.367633   3.533540   2.900164   4.704735   3.767025
    13  H    3.305958   3.769173   2.074374   3.294611   4.756607
    14  H    3.773167   3.295676   3.311886   2.059493   4.112253
    15  H    3.185399   3.767663   4.276014   5.128164   3.481619
                    6          7          8          9         10
     6  C    0.000000
     7  C    3.777892   0.000000
     8  H    2.653982   2.091836   0.000000
     9  C    4.262622   1.384016   3.310118   0.000000
    10  H    4.550659   3.279477   4.748386   2.047842   0.000000
    11  O    1.274598   4.719292   3.776777   4.987964   4.862092
    12  O    1.263626   4.263759   2.674650   4.996958   5.544902
    13  H    4.563881   0.989771   2.398003   2.073517   4.103177
    14  H    5.257398   2.071897   4.141589   0.994981   2.348938
    15  H    1.872885   5.524381   4.365145   5.865217   5.736018
                   11         12         13         14         15
    11  O    0.000000
    12  O    2.232926   0.000000
    13  H    5.557645   4.887577   0.000000
    14  H    5.961602   5.970763   2.392834   0.000000
    15  H    0.896804   2.405340   6.322419   6.844402   0.000000
 Stoichiometry    C7H6O2
 Framework group  C1[X(C7H6O2)]
 Deg. of freedom    39
 Full point group                 C1      NOp   1
 Largest Abelian subgroup         C1      NOp   1
 Largest concise Abelian subgroup C1      NOp   1
                         Standard orientation:                         
 ---------------------------------------------------------------------
 Center     Atomic      Atomic             Coordinates (Angstroms)
 Number     Number       Type             X           Y           Z
 ---------------------------------------------------------------------
      1          6           0        0.220723    0.023637    0.008430
      2          6           0       -0.451452   -1.173975    0.223970
      3          6           0       -0.500075    1.194121   -0.210494
      4          6           0       -1.837753   -1.201133    0.205521
      5          1           0        0.062514   -2.002481    0.380366
      6          6           0        1.704614    0.053606    0.025214
      7          6           0       -1.900560    1.156421   -0.217656
      8          1           0       -0.010870    2.044345   -0.345863
      9          6           0       -2.556665   -0.045333   -0.015627
     10          1           0       -2.319479   -2.046637    0.347939
     11          8           0        2.329003   -0.915230   -0.518930
     12          8           0        2.287135    1.031318    0.574303
     13          1           0       -2.407830    1.988750   -0.389565
     14          1           0       -3.551057   -0.077807   -0.004819
     15          1           0        3.224627   -0.878929   -0.547183
 ---------------------------------------------------------------------
 Rotational constants (GHZ):           3.9688223           1.2018258           0.9668857
 Leave Link  202 at Sun Nov  6 23:01:38 2022, MaxMem= 16106127360 cpu:               0.2 elap:               0.0
 (Enter /opt/ap/G16/B01/g16/l301.exe)
 Standard basis: 6-311++G(d,p) (5D, 7F)
 Ernie: Thresh=  0.10000D-02 Tol=  0.10000D-05 Strict=F.
 There are   249 symmetry adapted cartesian basis functions of A   symmetry.
 There are   240 symmetry adapted basis functions of A   symmetry.
   240 basis functions,   378 primitive gaussians,   249 cartesian basis functions
    32 alpha electrons       32 beta electrons
       nuclear repulsion energy       408.9416841348 Hartrees.
 IExCor= 4639 DFT=T Ex+Corr=wB97XD ExCW=0 ScaHFX=  1.000000
 ScaDFX=  1.000000  1.000000  1.000000  1.000000 ScalE2=  1.000000  1.000000
 IRadAn=      5 IRanWt=     -1 IRanGd=            0 ICorTp=0 IEmpDi=121
 HFx  wShort=  0.000000 wLong=  0.200000 cFull=  0.222036 cShort=  0.000000 cLong=  0.777964
 DFx  wShort=  0.000000 wLong=  0.200000 cFull=  0.000000 cShort=  0.000000 cLong=  1.000000
 NAtoms=   15 NActive=   15 NUniq=   15 SFac= 1.00D+00 NAtFMM=   60 NAOKFM=F Big=F
 Integral buffers will be    131072 words long.
 Raffenetti 2 integral format.
 Two-electron integral symmetry is turned on.
 R6Disp:  Grimme-D2 Dispersion energy=       -0.0064218843 Hartrees.
 Nuclear repulsion after empirical dispersion term =      408.9352622505 Hartrees.
 Leave Link  301 at Sun Nov  6 23:01:38 2022, MaxMem= 16106127360 cpu:               1.3 elap:               0.0
 (Enter /opt/ap/G16/B01/g16/l302.exe)
 NPDir=0 NMtPBC=     1 NCelOv=     1 NCel=       1 NClECP=     1 NCelD=      1
         NCelK=      1 NCelE2=     1 NClLst=     1 CellRange=     0.0.
 One-electron integrals computed using PRISM.
 One-electron integral symmetry used in STVInt
 NBasis=   240 RedAO= T EigKep=  1.23D-06  NBF=   240
 NBsUse=   240 1.00D-06 EigRej= -1.00D+00 NBFU=   240
 Precomputing XC quadrature grid using
 IXCGrd= 4 IRadAn=           5 IRanWt=          -1 IRanGd=           0 AccXCQ= 0.00D+00.
 Generated NRdTot=       0 NPtTot=           0 NUsed=           0 NTot=          32
 NSgBfM=   249   249   249   249   249 MxSgAt=    15 MxSgA2=    15.
 Leave Link  302 at Sun Nov  6 23:01:38 2022, MaxMem= 16106127360 cpu:               5.3 elap:               0.2
 (Enter /opt/ap/G16/B01/g16/l303.exe)
 DipDrv:  MaxL=1.
 Leave Link  303 at Sun Nov  6 23:01:38 2022, MaxMem= 16106127360 cpu:               1.3 elap:               0.0
 (Enter /opt/ap/G16/B01/g16/l401.exe)
 ExpMin= 3.60D-02 ExpMax= 8.59D+03 ExpMxC= 1.30D+03 IAcc=3 IRadAn=         5 AccDes= 0.00D+00
 Harris functional with IExCor= 4639 and IRadAn=       5 diagonalized for initial guess.
 HarFok:  IExCor= 4639 AccDes= 0.00D+00 IRadAn=         5 IDoV= 1 UseB2=F ITyADJ=14
 ICtDFT=  3500011 ScaDFX=  1.000000  1.000000  1.000000  1.000000
 FoFCou: FMM=F IPFlag=           0 FMFlag=      100000 FMFlg1=           0
         NFxFlg=           0 DoJE=T BraDBF=F KetDBF=T FulRan=T
         wScrn=  0.000000 ICntrl=       500 IOpCl=  0 I1Cent=   200000004 NGrid=           0
         NMat0=    1 NMatS0=      1 NMatT0=    0 NMatD0=    1 NMtDS0=    0 NMtDT0=    0
 Petite list used in FoFCou.
 Harris En= -403.252578219596    
 JPrj=0 DoOrth=F DoCkMO=F.
 Leave Link  401 at Sun Nov  6 23:01:39 2022, MaxMem= 16106127360 cpu:              32.4 elap:               1.1
 (Enter /opt/ap/G16/B01/g16/l502.exe)
 Integral symmetry usage will be decided dynamically.
 Closed shell SCF:
 Using DIIS extrapolation, IDIIS=  1040.
 NGot= 16106127360 LenX= 16105992971 LenY= 16105930529
 Requested convergence on RMS density matrix=1.00D-08 within 512 cycles.
 Requested convergence on MAX density matrix=1.00D-06.
 Requested convergence on             energy=1.00D-06.
 No special actions if energy rises.
 Fock matrices will be formed incrementally for  20 cycles.

 Cycle   1  Pass 1  IDiag  1:
 FoFJK:  IHMeth= 1 ICntrl=       0 DoSepK=T KAlg= 0 I1Cent=           0 FoldK=F
 IRaf=         1 NMat=       1 IRICut=       1 DoRegI=T DoRafI=F ISym2E= 0 IDoP0=0 IntGTp=1.
 FoFCou: FMM=F IPFlag=           0 FMFlag=      100000 FMFlg1=           0
         NFxFlg=           0 DoJE=T BraDBF=F KetDBF=F FulRan=T
         wScrn=  0.000000 ICntrl=       500 IOpCl=  0 I1Cent=           0 NGrid=           0
         NMat0=    1 NMatS0=      1 NMatT0=    0 NMatD0=    1 NMtDS0=    0 NMtDT0=    0
 Symmetry not used in FoFCou.
 E= -420.628215344814    
 DIIS: error= 7.75D-02 at cycle   1 NSaved=   1.
 NSaved= 1 IEnMin= 1 EnMin= -420.628215344814     IErMin= 1 ErrMin= 7.75D-02
 ErrMax= 7.75D-02  0.00D+00 EMaxC= 1.00D-01 BMatC= 8.61D-01 BMatP= 8.61D-01
 IDIUse=3 WtCom= 2.25D-01 WtEn= 7.75D-01
 Coeff-Com:  0.100D+01
 Coeff-En:   0.100D+01
 Coeff:      0.100D+01
 Gap=     0.430 Goal=   None    Shift=    0.000
 GapD=    0.430 DampG=2.000 DampE=0.500 DampFc=1.0000 IDamp=-1.
 RMSDP=2.33D-02 MaxDP=1.19D+00              OVMax= 9.90D-02

 Cycle   2  Pass 1  IDiag  1:
 RMSU=  1.36D-02    CP:  6.92D-01
 E= -420.699596687380     Delta-E=       -0.071381342566 Rises=F Damp=F
 DIIS: error= 1.28D-02 at cycle   2 NSaved=   2.
 NSaved= 2 IEnMin= 2 EnMin= -420.699596687380     IErMin= 2 ErrMin= 1.28D-02
 ErrMax= 1.28D-02  0.00D+00 EMaxC= 1.00D-01 BMatC= 5.71D-02 BMatP= 8.61D-01
 IDIUse=3 WtCom= 8.72D-01 WtEn= 1.28D-01
 Coeff-Com:  0.135D+00 0.865D+00
 Coeff-En:   0.959D-01 0.904D+00
 Coeff:      0.130D+00 0.870D+00
 Gap=     0.441 Goal=   None    Shift=    0.000
 RMSDP=8.05D-03 MaxDP=4.36D-01 DE=-7.14D-02 OVMax= 9.00D-02

 Cycle   3  Pass 1  IDiag  1:
 RMSU=  5.91D-03    CP:  6.36D-01  6.89D-01
 E= -420.715534541406     Delta-E=       -0.015937854026 Rises=F Damp=F
 DIIS: error= 1.25D-02 at cycle   3 NSaved=   3.
 NSaved= 3 IEnMin= 3 EnMin= -420.715534541406     IErMin= 3 ErrMin= 1.25D-02
 ErrMax= 1.25D-02  0.00D+00 EMaxC= 1.00D-01 BMatC= 3.61D-02 BMatP= 5.71D-02
 IDIUse=3 WtCom= 8.75D-01 WtEn= 1.25D-01
 Coeff-Com:  0.282D-01 0.448D+00 0.523D+00
 Coeff-En:   0.000D+00 0.386D+00 0.614D+00
 Coeff:      0.247D-01 0.441D+00 0.535D+00
 Gap=     0.358 Goal=   None    Shift=    0.000
 RMSDP=3.74D-03 MaxDP=1.51D-01 DE=-1.59D-02 OVMax= 5.36D-02

 Cycle   4  Pass 1  IDiag  1:
 RMSU=  2.15D-03    CP:  6.36D-01  8.72D-01  6.98D-01
 E= -420.741811666166     Delta-E=       -0.026277124760 Rises=F Damp=F
 DIIS: error= 2.44D-03 at cycle   4 NSaved=   4.
 NSaved= 4 IEnMin= 4 EnMin= -420.741811666166     IErMin= 4 ErrMin= 2.44D-03
 ErrMax= 2.44D-03  0.00D+00 EMaxC= 1.00D-01 BMatC= 2.03D-03 BMatP= 3.61D-02
 IDIUse=3 WtCom= 9.76D-01 WtEn= 2.44D-02
 Coeff-Com:  0.105D-01 0.221D+00 0.303D+00 0.465D+00
 Coeff-En:   0.000D+00 0.000D+00 0.000D+00 0.100D+01
 Coeff:      0.103D-01 0.216D+00 0.295D+00 0.479D+00
 Gap=     0.358 Goal=   None    Shift=    0.000
 RMSDP=8.35D-04 MaxDP=5.13D-02 DE=-2.63D-02 OVMax= 1.28D-02

 Cycle   5  Pass 1  IDiag  1:
 RMSU=  6.56D-04    CP:  6.31D-01  8.57D-01  7.30D-01  8.53D-01
 E= -420.743190088008     Delta-E=       -0.001378421842 Rises=F Damp=F
 DIIS: error= 4.20D-04 at cycle   5 NSaved=   5.
 NSaved= 5 IEnMin= 5 EnMin= -420.743190088008     IErMin= 5 ErrMin= 4.20D-04
 ErrMax= 4.20D-04  0.00D+00 EMaxC= 1.00D-01 BMatC= 4.85D-05 BMatP= 2.03D-03
 IDIUse=3 WtCom= 9.96D-01 WtEn= 4.20D-03
 Coeff-Com:  0.419D-03 0.173D-01 0.325D-01 0.148D+00 0.802D+00
 Coeff-En:   0.000D+00 0.000D+00 0.000D+00 0.000D+00 0.100D+01
 Coeff:      0.417D-03 0.172D-01 0.324D-01 0.147D+00 0.803D+00
 Gap=     0.355 Goal=   None    Shift=    0.000
 RMSDP=2.57D-04 MaxDP=1.29D-02 DE=-1.38D-03 OVMax= 2.64D-03

 Cycle   6  Pass 1  IDiag  1:
 RMSU=  1.46D-04    CP:  6.31D-01  8.61D-01  7.55D-01  9.14D-01  1.08D+00
 E= -420.743228440880     Delta-E=       -0.000038352872 Rises=F Damp=F
 DIIS: error= 2.00D-04 at cycle   6 NSaved=   6.
 NSaved= 6 IEnMin= 6 EnMin= -420.743228440880     IErMin= 6 ErrMin= 2.00D-04
 ErrMax= 2.00D-04  0.00D+00 EMaxC= 1.00D-01 BMatC= 7.27D-06 BMatP= 4.85D-05
 IDIUse=3 WtCom= 9.98D-01 WtEn= 2.00D-03
 Coeff-Com: -0.958D-03-0.164D-01-0.177D-01 0.106D-01 0.345D+00 0.679D+00
 Coeff-En:   0.000D+00 0.000D+00 0.000D+00 0.000D+00 0.000D+00 0.100D+01
 Coeff:     -0.956D-03-0.164D-01-0.177D-01 0.106D-01 0.345D+00 0.680D+00
 Gap=     0.355 Goal=   None    Shift=    0.000
 RMSDP=1.23D-04 MaxDP=1.05D-02 DE=-3.84D-05 OVMax= 9.51D-04

 Cycle   7  Pass 1  IDiag  1:
 RMSU=  4.10D-05    CP:  6.30D-01  8.60D-01  7.64D-01  9.38D-01  1.16D+00
                    CP:  1.11D+00
 E= -420.743235814210     Delta-E=       -0.000007373330 Rises=F Damp=F
 DIIS: error= 6.18D-05 at cycle   7 NSaved=   7.
 NSaved= 7 IEnMin= 7 EnMin= -420.743235814210     IErMin= 7 ErrMin= 6.18D-05
 ErrMax= 6.18D-05  0.00D+00 EMaxC= 1.00D-01 BMatC= 3.22D-07 BMatP= 7.27D-06
 IDIUse=1 WtCom= 1.00D+00 WtEn= 0.00D+00
 Coeff-Com: -0.230D-03-0.537D-02-0.664D-02-0.139D-01-0.486D-02 0.128D+00
 Coeff-Com:  0.903D+00
 Coeff:     -0.230D-03-0.537D-02-0.664D-02-0.139D-01-0.486D-02 0.128D+00
 Coeff:      0.903D+00
 Gap=     0.355 Goal=   None    Shift=    0.000
 RMSDP=4.56D-05 MaxDP=2.68D-03 DE=-7.37D-06 OVMax= 3.99D-04

 Cycle   8  Pass 1  IDiag  1:
 RMSU=  1.28D-05    CP:  6.30D-01  8.60D-01  7.67D-01  9.47D-01  1.21D+00
                    CP:  1.16D+00  1.13D+00
 E= -420.743236475148     Delta-E=       -0.000000660938 Rises=F Damp=F
 DIIS: error= 1.22D-05 at cycle   8 NSaved=   8.
 NSaved= 8 IEnMin= 8 EnMin= -420.743236475148     IErMin= 8 ErrMin= 1.22D-05
 ErrMax= 1.22D-05  0.00D+00 EMaxC= 1.00D-01 BMatC= 4.69D-08 BMatP= 3.22D-07
 IDIUse=1 WtCom= 1.00D+00 WtEn= 0.00D+00
 Coeff-Com:  0.379D-04 0.383D-03 0.346D-03-0.552D-02-0.409D-01-0.439D-01
 Coeff-Com:  0.246D+00 0.844D+00
 Coeff:      0.379D-04 0.383D-03 0.346D-03-0.552D-02-0.409D-01-0.439D-01
 Coeff:      0.246D+00 0.844D+00
 Gap=     0.355 Goal=   None    Shift=    0.000
 RMSDP=1.22D-05 MaxDP=7.38D-04 DE=-6.61D-07 OVMax= 1.57D-04

 Cycle   9  Pass 1  IDiag  1:
 RMSU=  4.28D-06    CP:  6.30D-01  8.60D-01  7.68D-01  9.48D-01  1.22D+00
                    CP:  1.18D+00  1.23D+00  1.16D+00
 E= -420.743236567477     Delta-E=       -0.000000092329 Rises=F Damp=F
 DIIS: error= 1.05D-05 at cycle   9 NSaved=   9.
 NSaved= 9 IEnMin= 9 EnMin= -420.743236567477     IErMin= 9 ErrMin= 1.05D-05
 ErrMax= 1.05D-05  0.00D+00 EMaxC= 1.00D-01 BMatC= 6.26D-09 BMatP= 4.69D-08
 IDIUse=1 WtCom= 1.00D+00 WtEn= 0.00D+00
 Coeff-Com:  0.427D-04 0.825D-03 0.102D-02-0.746D-04-0.115D-01-0.305D-01
 Coeff-Com: -0.345D-01 0.265D+00 0.810D+00
 Coeff:      0.427D-04 0.825D-03 0.102D-02-0.746D-04-0.115D-01-0.305D-01
 Coeff:     -0.345D-01 0.265D+00 0.810D+00
 Gap=     0.355 Goal=   None    Shift=    0.000
 RMSDP=4.49D-06 MaxDP=3.73D-04 DE=-9.23D-08 OVMax= 5.84D-05

 Cycle  10  Pass 1  IDiag  1:
 RMSU=  2.07D-06    CP:  6.30D-01  8.60D-01  7.68D-01  9.47D-01  1.22D+00
                    CP:  1.18D+00  1.25D+00  1.22D+00  1.39D+00
 E= -420.743236579558     Delta-E=       -0.000000012081 Rises=F Damp=F
 DIIS: error= 1.21D-06 at cycle  10 NSaved=  10.
 NSaved=10 IEnMin=10 EnMin= -420.743236579558     IErMin=10 ErrMin= 1.21D-06
 ErrMax= 1.21D-06  0.00D+00 EMaxC= 1.00D-01 BMatC= 8.21D-10 BMatP= 6.26D-09
 IDIUse=1 WtCom= 1.00D+00 WtEn= 0.00D+00
 Coeff-Com:  0.799D-05 0.177D-03 0.245D-03 0.506D-03 0.139D-02-0.442D-02
 Coeff-Com: -0.359D-01-0.223D-01 0.246D+00 0.814D+00
 Coeff:      0.799D-05 0.177D-03 0.245D-03 0.506D-03 0.139D-02-0.442D-02
 Coeff:     -0.359D-01-0.223D-01 0.246D+00 0.814D+00
 Gap=     0.355 Goal=   None    Shift=    0.000
 RMSDP=1.49D-06 MaxDP=8.17D-05 DE=-1.21D-08 OVMax= 2.17D-05

 Cycle  11  Pass 1  IDiag  1:
 RMSU=  4.93D-07    CP:  6.30D-01  8.60D-01  7.68D-01  9.47D-01  1.22D+00
                    CP:  1.18D+00  1.25D+00  1.26D+00  1.53D+00  1.04D+00
 E= -420.743236581086     Delta-E=       -0.000000001528 Rises=F Damp=F
 DIIS: error= 9.10D-07 at cycle  11 NSaved=  11.
 NSaved=11 IEnMin=11 EnMin= -420.743236581086     IErMin=11 ErrMin= 9.10D-07
 ErrMax= 9.10D-07  0.00D+00 EMaxC= 1.00D-01 BMatC= 1.55D-10 BMatP= 8.21D-10
 IDIUse=1 WtCom= 1.00D+00 WtEn= 0.00D+00
 Coeff-Com: -0.228D-05-0.250D-04-0.154D-04 0.257D-03 0.228D-02 0.216D-02
 Coeff-Com: -0.900D-02-0.520D-01-0.242D-01 0.321D+00 0.760D+00
 Coeff:     -0.228D-05-0.250D-04-0.154D-04 0.257D-03 0.228D-02 0.216D-02
 Coeff:     -0.900D-02-0.520D-01-0.242D-01 0.321D+00 0.760D+00
 Gap=     0.355 Goal=   None    Shift=    0.000
 RMSDP=6.46D-07 MaxDP=3.92D-05 DE=-1.53D-09 OVMax= 9.38D-06

 Cycle  12  Pass 1  IDiag  1:
 RMSU=  2.59D-07    CP:  6.30D-01  8.60D-01  7.68D-01  9.47D-01  1.22D+00
                    CP:  1.17D+00  1.25D+00  1.27D+00  1.57D+00  1.10D+00
                    CP:  1.20D+00
 E= -420.743236581357     Delta-E=       -0.000000000271 Rises=F Damp=F
 DIIS: error= 2.18D-07 at cycle  12 NSaved=  12.
 NSaved=12 IEnMin=12 EnMin= -420.743236581357     IErMin=12 ErrMin= 2.18D-07
 ErrMax= 2.18D-07  0.00D+00 EMaxC= 1.00D-01 BMatC= 1.26D-11 BMatP= 1.55D-10
 IDIUse=1 WtCom= 1.00D+00 WtEn= 0.00D+00
 Coeff-Com: -0.128D-05-0.225D-04-0.261D-04 0.149D-04 0.381D-03 0.812D-03
 Coeff-Com:  0.216D-02-0.998D-02-0.291D-01-0.456D-02 0.164D+00 0.876D+00
 Coeff:     -0.128D-05-0.225D-04-0.261D-04 0.149D-04 0.381D-03 0.812D-03
 Coeff:      0.216D-02-0.998D-02-0.291D-01-0.456D-02 0.164D+00 0.876D+00
 Gap=     0.355 Goal=   None    Shift=    0.000
 RMSDP=1.92D-07 MaxDP=9.52D-06 DE=-2.71D-10 OVMax= 4.08D-06

 Cycle  13  Pass 1  IDiag  1:
 RMSU=  9.01D-08    CP:  6.30D-01  8.60D-01  7.68D-01  9.47D-01  1.22D+00
                    CP:  1.17D+00  1.25D+00  1.27D+00  1.58D+00  1.09D+00
                    CP:  1.33D+00  1.18D+00
 E= -420.743236581398     Delta-E=       -0.000000000041 Rises=F Damp=F
 DIIS: error= 1.43D-07 at cycle  13 NSaved=  13.
 NSaved=13 IEnMin=13 EnMin= -420.743236581398     IErMin=13 ErrMin= 1.43D-07
 ErrMax= 1.43D-07  0.00D+00 EMaxC= 1.00D-01 BMatC= 2.90D-12 BMatP= 1.26D-11
 IDIUse=1 WtCom= 1.00D+00 WtEn= 0.00D+00
 Coeff-Com:  0.115D-06-0.368D-05-0.788D-05-0.526D-04-0.391D-03-0.220D-03
 Coeff-Com:  0.270D-02 0.788D-02-0.297D-02-0.705D-01-0.132D+00 0.245D+00
 Coeff-Com:  0.950D+00
 Coeff:      0.115D-06-0.368D-05-0.788D-05-0.526D-04-0.391D-03-0.220D-03
 Coeff:      0.270D-02 0.788D-02-0.297D-02-0.705D-01-0.132D+00 0.245D+00
 Coeff:      0.950D+00
 Gap=     0.355 Goal=   None    Shift=    0.000
 RMSDP=9.23D-08 MaxDP=4.48D-06 DE=-4.12D-11 OVMax= 2.59D-06

 Cycle  14  Pass 1  IDiag  1:
 RMSU=  3.74D-08    CP:  6.30D-01  8.60D-01  7.68D-01  9.47D-01  1.22D+00
                    CP:  1.17D+00  1.25D+00  1.27D+00  1.58D+00  1.07D+00
                    CP:  1.41D+00  1.35D+00  1.32D+00
 E= -420.743236581408     Delta-E=       -0.000000000010 Rises=F Damp=F
 DIIS: error= 4.21D-08 at cycle  14 NSaved=  14.
 NSaved=14 IEnMin=14 EnMin= -420.743236581408     IErMin=14 ErrMin= 4.21D-08
 ErrMax= 4.21D-08  0.00D+00 EMaxC= 1.00D-01 BMatC= 2.25D-13 BMatP= 2.90D-12
 IDIUse=1 WtCom= 1.00D+00 WtEn= 0.00D+00
 Coeff-Com:  0.937D-07 0.224D-05 0.283D-05 0.195D-06-0.564D-04-0.511D-04
 Coeff-Com: -0.255D-03 0.116D-02 0.304D-02-0.106D-02-0.169D-01-0.937D-01
 Coeff-Com: -0.130D-01 0.112D+01
 Coeff:      0.937D-07 0.224D-05 0.283D-05 0.195D-06-0.564D-04-0.511D-04
 Coeff:     -0.255D-03 0.116D-02 0.304D-02-0.106D-02-0.169D-01-0.937D-01
 Coeff:     -0.130D-01 0.112D+01
 Gap=     0.355 Goal=   None    Shift=    0.000
 RMSDP=4.17D-08 MaxDP=3.18D-06 DE=-9.89D-12 OVMax= 8.76D-07

 Cycle  15  Pass 1  IDiag  1:
 RMSU=  9.08D-09    CP:  6.30D-01  8.60D-01  7.68D-01  9.47D-01  1.22D+00
                    CP:  1.17D+00  1.25D+00  1.27D+00  1.58D+00  1.06D+00
                    CP:  1.42D+00  1.38D+00  1.52D+00  1.37D+00
 E= -420.743236581414     Delta-E=       -0.000000000007 Rises=F Damp=F
 DIIS: error= 1.43D-08 at cycle  15 NSaved=  15.
 NSaved=15 IEnMin=15 EnMin= -420.743236581414     IErMin=15 ErrMin= 1.43D-08
 ErrMax= 1.43D-08  0.00D+00 EMaxC= 1.00D-01 BMatC= 4.01D-14 BMatP= 2.25D-13
 IDIUse=1 WtCom= 1.00D+00 WtEn= 0.00D+00
 Coeff-Com:  0.199D-07 0.118D-05 0.190D-05 0.596D-05 0.219D-04 0.124D-04
 Coeff-Com: -0.378D-03-0.400D-03 0.138D-02 0.741D-02 0.935D-02-0.530D-01
 Coeff-Com: -0.108D+00 0.371D+00 0.773D+00
 Coeff:      0.199D-07 0.118D-05 0.190D-05 0.596D-05 0.219D-04 0.124D-04
 Coeff:     -0.378D-03-0.400D-03 0.138D-02 0.741D-02 0.935D-02-0.530D-01
 Coeff:     -0.108D+00 0.371D+00 0.773D+00
 Gap=     0.355 Goal=   None    Shift=    0.000
 RMSDP=8.47D-09 MaxDP=4.42D-07 DE=-6.59D-12 OVMax= 1.74D-07

 SCF Done:  E(RwB97XD) =  -420.743236581     A.U. after   15 cycles
            NFock= 15  Conv=0.85D-08     -V/T= 2.0015
 KE= 4.201165505596D+02 PE=-1.801331972591D+03 EE= 5.515369231997D+02
 Leave Link  502 at Sun Nov  6 23:01:52 2022, MaxMem= 16106127360 cpu:             412.7 elap:              13.0
 (Enter /opt/ap/G16/B01/g16/l601.exe)
 Copying SCF densities to generalized density rwf, IOpCl= 0 IROHF=0.

 **********************************************************************

            Population analysis using the SCF Density.

 **********************************************************************

 Orbital symmetries:
       Occupied  (A) (A) (A) (A) (A) (A) (A) (A) (A) (A) (A) (A)
                 (A) (A) (A) (A) (A) (A) (A) (A) (A) (A) (A) (A)
                 (A) (A) (A) (A) (A) (A) (A) (A)
       Virtual   (A) (A) (A) (A) (A) (A) (A) (A) (A) (A) (A) (A)
                 (A) (A) (A) (A) (A) (A) (A) (A) (A) (A) (A) (A)
                 (A) (A) (A) (A) (A) (A) (A) (A) (A) (A) (A) (A)
                 (A) (A) (A) (A) (A) (A) (A) (A) (A) (A) (A) (A)
                 (A) (A) (A) (A) (A) (A) (A) (A) (A) (A) (A) (A)
                 (A) (A) (A) (A) (A) (A) (A) (A) (A) (A) (A) (A)
                 (A) (A) (A) (A) (A) (A) (A) (A) (A) (A) (A) (A)
                 (A) (A) (A) (A) (A) (A) (A) (A) (A) (A) (A) (A)
                 (A) (A) (A) (A) (A) (A) (A) (A) (A) (A) (A) (A)
                 (A) (A) (A) (A) (A) (A) (A) (A) (A) (A) (A) (A)
                 (A) (A) (A) (A) (A) (A) (A) (A) (A) (A) (A) (A)
                 (A) (A) (A) (A) (A) (A) (A) (A) (A) (A) (A) (A)
                 (A) (A) (A) (A) (A) (A) (A) (A) (A) (A) (A) (A)
                 (A) (A) (A) (A) (A) (A) (A) (A) (A) (A) (A) (A)
                 (A) (A) (A) (A) (A) (A) (A) (A) (A) (A) (A) (A)
                 (A) (A) (A) (A) (A) (A) (A) (A) (A) (A) (A) (A)
                 (A) (A) (A) (A) (A) (A) (A) (A) (A) (A) (A) (A)
                 (A) (A) (A) (A)
 The electronic state is 1-A.
 Alpha  occ. eigenvalues --  -19.31766 -19.23035 -10.43316 -10.31229 -10.29410
 Alpha  occ. eigenvalues --  -10.29340 -10.29039 -10.28977 -10.28737  -1.25893
 Alpha  occ. eigenvalues --   -1.10745  -0.98086  -0.88940  -0.87062  -0.80614
 Alpha  occ. eigenvalues --   -0.73444  -0.72108  -0.65839  -0.60676  -0.58720
 Alpha  occ. eigenvalues --   -0.57376  -0.55894  -0.54219  -0.53429  -0.49061
 Alpha  occ. eigenvalues --   -0.47455  -0.45497  -0.44984  -0.40857  -0.36974
 Alpha  occ. eigenvalues --   -0.34463  -0.33839
 Alpha virt. eigenvalues --    0.01696   0.03768   0.04237   0.04564   0.05207
 Alpha virt. eigenvalues --    0.06450   0.07487   0.08704   0.09717   0.10302
 Alpha virt. eigenvalues --    0.12240   0.12735   0.12829   0.14312   0.15129
 Alpha virt. eigenvalues --    0.16053   0.16279   0.17014   0.17296   0.17978
 Alpha virt. eigenvalues --    0.18450   0.19247   0.19333   0.20258   0.20327
 Alpha virt. eigenvalues --    0.20978   0.21116   0.21374   0.23135   0.23808
 Alpha virt. eigenvalues --    0.25812   0.26163   0.26514   0.27527   0.27798
 Alpha virt. eigenvalues --    0.29192   0.29416   0.30384   0.30827   0.31077
 Alpha virt. eigenvalues --    0.32368   0.34364   0.35031   0.35755   0.36101
 Alpha virt. eigenvalues --    0.36586   0.37417   0.38460   0.39201   0.39969
 Alpha virt. eigenvalues --    0.40765   0.41237   0.42517   0.43469   0.44068
 Alpha virt. eigenvalues --    0.44596   0.46152   0.50678   0.53765   0.56971
 Alpha virt. eigenvalues --    0.59415   0.61181   0.61951   0.63529   0.63759
 Alpha virt. eigenvalues --    0.64678   0.64768   0.66398   0.67782   0.69168
 Alpha virt. eigenvalues --    0.70240   0.71619   0.72757   0.74685   0.76137
 Alpha virt. eigenvalues --    0.77550   0.80731   0.81054   0.82170   0.83270
 Alpha virt. eigenvalues --    0.87412   0.87595   0.90291   0.92096   0.93807
 Alpha virt. eigenvalues --    0.94209   0.95461   0.96324   0.97710   1.00274
 Alpha virt. eigenvalues --    1.01269   1.02400   1.08581   1.08973   1.13224
 Alpha virt. eigenvalues --    1.13771   1.15879   1.16676   1.18379   1.20426
 Alpha virt. eigenvalues --    1.22082   1.24432   1.25518   1.27968   1.31084
 Alpha virt. eigenvalues --    1.36747   1.38542   1.44326   1.45169   1.54982
 Alpha virt. eigenvalues --    1.56283   1.59016   1.59449   1.61443   1.62221
 Alpha virt. eigenvalues --    1.64596   1.64883   1.66897   1.67454   1.74562
 Alpha virt. eigenvalues --    1.74851   1.76554   1.80443   1.83121   1.87387
 Alpha virt. eigenvalues --    1.88062   1.89584   1.90911   1.93780   1.98520
 Alpha virt. eigenvalues --    2.00281   2.02044   2.03343   2.04851   2.05611
 Alpha virt. eigenvalues --    2.06545   2.07529   2.13841   2.17888   2.18233
 Alpha virt. eigenvalues --    2.23411   2.25578   2.31700   2.44208   2.46759
 Alpha virt. eigenvalues --    2.52247   2.53374   2.54147   2.57968   2.63055
 Alpha virt. eigenvalues --    2.69501   2.70805   2.77075   2.80019   2.81014
 Alpha virt. eigenvalues --    2.82698   2.83204   2.88110   2.90387   2.90929
 Alpha virt. eigenvalues --    2.91107   2.91740   2.96418   2.98878   3.00881
 Alpha virt. eigenvalues --    3.02400   3.06556   3.07902   3.16370   3.18359
 Alpha virt. eigenvalues --    3.19470   3.22524   3.25618   3.29090   3.35064
 Alpha virt. eigenvalues --    3.40279   3.43210   3.48624   3.49382   3.63878
 Alpha virt. eigenvalues --    3.66105   3.69308   3.73162   3.84495   3.87641
 Alpha virt. eigenvalues --    4.05412   4.14984   4.27603   4.30421   4.35811
 Alpha virt. eigenvalues --    4.40225   4.40983   4.94992   5.08708   5.18042
 Alpha virt. eigenvalues --    5.27890   5.47017   5.78314   6.07633  23.84313
 Alpha virt. eigenvalues --   23.93948  24.14435  24.21338  24.28346  24.30270
 Alpha virt. eigenvalues --   24.41775  50.02673  50.13634
          Condensed to atoms (all electrons):
               1          2          3          4          5          6
     1  C   12.471238  -2.225797  -3.270521   1.637741  -0.002047  -2.598788
     2  C   -2.225797  11.514035   0.028899  -1.946647   0.405229  -0.828658
     3  C   -3.270521   0.028899  11.125711  -1.323525   0.086331  -0.108775
     4  C    1.637741  -1.946647  -1.323525   6.857190  -0.058390  -0.045019
     5  H   -0.002047   0.405229   0.086331  -0.058390   0.465987  -0.061678
     6  C   -2.598788  -0.828658  -0.108775  -0.045019  -0.061678   8.717090
     7  C    1.046804  -1.500813  -1.183982   1.149839  -0.007364   0.002006
     8  H   -0.005960   0.115301   0.377692  -0.029642  -0.000750  -0.043802
     9  C   -1.681869   1.409798   1.193768  -0.753212   0.014102   0.066970
    10  H    0.032188  -0.065559  -0.019828   0.412108  -0.008484   0.007502
    11  O   -0.343562  -0.125968  -0.052664   0.058164  -0.017543   0.434348
    12  O   -0.131323   0.016397  -0.038607   0.016457  -0.002286   0.489596
    13  H    0.039166  -0.043241  -0.038310   0.012052   0.000666   0.004987
    14  H    0.003426   0.026777  -0.003649  -0.043422  -0.000369  -0.009324
    15  H   -0.055345   0.001489   0.015139  -0.010426  -0.001032   0.034934
               7          8          9         10         11         12
     1  C    1.046804  -0.005960  -1.681869   0.032188  -0.343562  -0.131323
     2  C   -1.500813   0.115301   1.409798  -0.065559  -0.125968   0.016397
     3  C   -1.183982   0.377692   1.193768  -0.019828  -0.052664  -0.038607
     4  C    1.149839  -0.029642  -0.753212   0.412108   0.058164   0.016457
     5  H   -0.007364  -0.000750   0.014102  -0.008484  -0.017543  -0.002286
     6  C    0.002006  -0.043802   0.066970   0.007502   0.434348   0.489596
     7  C    6.720801  -0.079303  -0.594322  -0.001292   0.024581   0.026073
     8  H   -0.079303   0.445398   0.027265   0.000413  -0.002150   0.000004
     9  C   -0.594322   0.027265   6.428589  -0.025596  -0.025846  -0.000839
    10  H   -0.001292   0.000413  -0.025596   0.471068   0.000860   0.000120
    11  O    0.024581  -0.002150  -0.025846   0.000860   8.010407  -0.127542
    12  O    0.026073   0.000004  -0.000839   0.000120  -0.127542   8.072880
    13  H    0.414005  -0.010272  -0.046735  -0.001211  -0.000041  -0.000871
    14  H   -0.034656   0.000533   0.411577  -0.005540  -0.000453  -0.000042
    15  H   -0.004408   0.000570   0.002636  -0.000106   0.299374  -0.008809
              13         14         15
     1  C    0.039166   0.003426  -0.055345
     2  C   -0.043241   0.026777   0.001489
     3  C   -0.038310  -0.003649   0.015139
     4  C    0.012052  -0.043422  -0.010426
     5  H    0.000666  -0.000369  -0.001032
     6  C    0.004987  -0.009324   0.034934
     7  C    0.414005  -0.034656  -0.004408
     8  H   -0.010272   0.000533   0.000570
     9  C   -0.046735   0.411577   0.002636
    10  H   -0.001211  -0.005540  -0.000106
    11  O   -0.000041  -0.000453   0.299374
    12  O   -0.000871  -0.000042  -0.008809
    13  H    0.467831  -0.005864  -0.000179
    14  H   -0.005864   0.470179  -0.000008
    15  H   -0.000179  -0.000008   0.394361
 Mulliken charges:
               1
     1  C    1.084651
     2  C   -0.781241
     3  C   -0.787680
     4  C    0.066731
     5  H    0.187629
     6  C   -0.061389
     7  C    0.022031
     8  H    0.204705
     9  C   -0.426286
    10  H    0.203359
    11  O   -0.131967
    12  O   -0.311209
    13  H    0.208019
    14  H    0.190835
    15  H    0.331810
 Sum of Mulliken charges =  -0.00000
 Mulliken charges with hydrogens summed into heavy atoms:
               1
     1  C    1.084651
     2  C   -0.593612
     3  C   -0.582975
     4  C    0.270091
     6  C   -0.061389
     7  C    0.230050
     9  C   -0.235451
    11  O    0.199843
    12  O   -0.311209
 Electronic spatial extent (au):  <R**2>=           1158.2369
 Charge=              0.0000 electrons
 Dipole moment (field-independent basis, Debye):
    X=             -1.2113    Y=             -1.9726    Z=             -1.2208  Tot=              2.6170
 Quadrupole moment (field-independent basis, Debye-Ang):
   XX=            -43.2406   YY=            -49.2594   ZZ=            -54.9693
   XY=             -6.8299   XZ=             -4.0750   YZ=             -3.4942
 Traceless Quadrupole moment (field-independent basis, Debye-Ang):
   XX=              5.9159   YY=             -0.1030   ZZ=             -5.8129
   XY=             -6.8299   XZ=             -4.0750   YZ=             -3.4942
 Octapole moment (field-independent basis, Debye-Ang**2):
  XXX=             22.2348  YYY=             -2.8525  ZZZ=             -1.1416  XYY=             -5.3089
  XXY=            -22.5905  XXZ=            -13.8536  XZZ=              9.4304  YZZ=             -1.1469
  YYZ=             -1.5708  XYZ=             -1.6199
 Hexadecapole moment (field-independent basis, Debye-Ang**3):
 XXXX=           -872.9318 YYYY=           -330.9033 ZZZZ=            -89.4603 XXXY=            -77.0232
 XXXZ=            -47.3559 YYYX=            -11.2850 YYYZ=             -8.2093 ZZZX=             -4.5402
 ZZZY=              2.9748 XXYY=           -227.9414 XXZZ=           -200.1110 YYZZ=            -78.2193
 XXYZ=             -7.9264 YYXZ=             -4.3763 ZZXY=             -4.0244
 N-N= 4.089352622505D+02 E-N=-1.801331972822D+03  KE= 4.201165505596D+02
 No NMR shielding tensors so no spin-rotation constants.
 Leave Link  601 at Sun Nov  6 23:01:52 2022, MaxMem= 16106127360 cpu:               3.4 elap:               0.1
 (Enter /opt/ap/G16/B01/g16/l9999.exe)
 1\1\GINC-N05\SP\RwB97XD\6-311++G(d,p)\C7H6O2\ROOT\06-Nov-2022\0\\#P wB
 97XD/6-311++G(d,p) scf=maxcycle=512\\_conf026.gjf nmol_natom 1_15\\0,1
 \C\C,1,1.39016191\C,1,1.39194539,2,119.895942\C,2,1.38669027,1,119.880
 75721,3,0.70825972,0\H,2,0.98744251,1,119.71654057,3,-179.90726164,0\C
 ,1,1.48428757,2,119.93615286,4,-179.87772406,0\C,3,1.40101108,1,119.72
 36454,2,-0.26266839,0\H,3,0.9902154,1,119.1886159,2,178.85397616,0\C,4
 ,1.37899003,2,120.45785903,1,-0.48041454,0\H,4,0.9834739,2,120.3044270
 6,1,179.36166981,0\O,6,1.27459751,1,118.00615353,2,40.,0\O,6,1.2636257
 2,1,118.77715367,2,-140.,0\H,7,0.98977053,3,119.37861578,1,-178.935457
 41,0\H,9,0.99498061,4,119.46722635,2,-178.58826714,0\H,11,0.89680392,6
 ,118.15823763,1,176.92714093,0\\Version=ES64L-G16RevB.01\State=1-A\HF=
 -420.7432366\RMSD=8.471e-09\Dipole=0.0930763,0.609553,0.8245666\Quadru
 pole=7.2734827,-5.0589599,-2.2145228,-2.6612789,-0.8306915,-3.3546045\
 PG=C01 [X(C7H6O2)]\\@


 IF YOU DON'T HAVE THE LAW - ARGUE THE FACTS.
 IF YOU DON'T HAVE THE FACTS - ARGUE THE LAW.
 IF YOU DON'T HAVE EITHER - POUND THE TABLE.
 Job cpu time:       0 days  0 hours  7 minutes 44.9 seconds.
 Elapsed time:       0 days  0 hours  0 minutes 14.7 seconds.
 File lengths (MBytes):  RWF=     35 Int=      0 D2E=      0 Chk=      4 Scr=      1
 Normal termination of Gaussian 16 at Sun Nov  6 23:01:52 2022.
