 Entering Gaussian System, Link 0=g16
 Input=_conf031.gjf
 Output=_conf031.log
 Initial command:
 /opt/ap/G16/B01/g16/l1.exe "/tmp2/scr/Gau-1960.inp" -scrdir="/tmp2/scr/"
 Entering Link 1 = /opt/ap/G16/B01/g16/l1.exe PID=      1961.
  
 Copyright (c) 1988-2017, Gaussian, Inc.  All Rights Reserved.
  
 This is part of the Gaussian(R) 16 program.  It is based on
 the Gaussian(R) 09 system (copyright 2009, Gaussian, Inc.),
 the Gaussian(R) 03 system (copyright 2003, Gaussian, Inc.),
 the Gaussian(R) 98 system (copyright 1998, Gaussian, Inc.),
 the Gaussian(R) 94 system (copyright 1995, Gaussian, Inc.),
 the Gaussian 92(TM) system (copyright 1992, Gaussian, Inc.),
 the Gaussian 90(TM) system (copyright 1990, Gaussian, Inc.),
 the Gaussian 88(TM) system (copyright 1988, Gaussian, Inc.),
 the Gaussian 86(TM) system (copyright 1986, Carnegie Mellon
 University), and the Gaussian 82(TM) system (copyright 1983,
 Carnegie Mellon University). Gaussian is a federally registered
 trademark of Gaussian, Inc.
  
 This software contains proprietary and confidential information,
 including trade secrets, belonging to Gaussian, Inc.
  
 This software is provided under written license and may be
 used, copied, transmitted, or stored only in accord with that
 written license.
  
 The following legend is applicable only to US Government
 contracts under FAR:
  
                    RESTRICTED RIGHTS LEGEND
  
 Use, reproduction and disclosure by the US Government is
 subject to restrictions as set forth in subparagraphs (a)
 and (c) of the Commercial Computer Software - Restricted
 Rights clause in FAR 52.227-19.
  
 Gaussian, Inc.
 340 Quinnipiac St., Bldg. 40, Wallingford CT 06492
  
  
 ---------------------------------------------------------------
 Warning -- This program may not be used in any manner that
 competes with the business of Gaussian, Inc. or will provide
 assistance to any competitor of Gaussian, Inc.  The licensee
 of this program is prohibited from giving any competitor of
 Gaussian, Inc. access to this program.  By using this program,
 the user acknowledges that Gaussian, Inc. is engaged in the
 business of creating and licensing software in the field of
 computational chemistry and represents and warrants to the
 licensee that it is not a competitor of Gaussian, Inc. and that
 it will not use this program in any manner prohibited above.
 ---------------------------------------------------------------
  

 Cite this work as:
 Gaussian 16, Revision B.01,
 M. J. Frisch, G. W. Trucks, H. B. Schlegel, G. E. Scuseria, 
 M. A. Robb, J. R. Cheeseman, G. Scalmani, V. Barone, 
 G. A. Petersson, H. Nakatsuji, X. Li, M. Caricato, A. V. Marenich, 
 J. Bloino, B. G. Janesko, R. Gomperts, B. Mennucci, H. P. Hratchian, 
 J. V. Ortiz, A. F. Izmaylov, J. L. Sonnenberg, D. Williams-Young, 
 F. Ding, F. Lipparini, F. Egidi, J. Goings, B. Peng, A. Petrone, 
 T. Henderson, D. Ranasinghe, V. G. Zakrzewski, J. Gao, N. Rega, 
 G. Zheng, W. Liang, M. Hada, M. Ehara, K. Toyota, R. Fukuda, 
 J. Hasegawa, M. Ishida, T. Nakajima, Y. Honda, O. Kitao, H. Nakai, 
 T. Vreven, K. Throssell, J. A. Montgomery, Jr., J. E. Peralta, 
 F. Ogliaro, M. J. Bearpark, J. J. Heyd, E. N. Brothers, K. N. Kudin, 
 V. N. Staroverov, T. A. Keith, R. Kobayashi, J. Normand, 
 K. Raghavachari, A. P. Rendell, J. C. Burant, S. S. Iyengar, 
 J. Tomasi, M. Cossi, J. M. Millam, M. Klene, C. Adamo, R. Cammi, 
 J. W. Ochterski, R. L. Martin, K. Morokuma, O. Farkas, 
 J. B. Foresman, and D. J. Fox, Gaussian, Inc., Wallingford CT, 2016.
 
 ******************************************
 Gaussian 16:  ES64L-G16RevB.01 20-Dec-2017
                 6-Nov-2022 
 ******************************************
 %nprocshared=32
 Will use up to   32 processors via shared memory.
 %mem=120GB
 %chk=_conf031.chk
 ----------------------------------------
 #P wB97XD/6-311++G(d,p) scf=maxcycle=512
 ----------------------------------------
 1/38=1,172=1/1;
 2/12=2,17=6,18=5,40=1/2;
 3/5=4,6=6,7=1111,11=2,25=1,30=1,74=-58/1,2,3;
 4//1;
 5/5=2,7=512,38=5/2;
 6/7=2,8=2,9=2,10=2,28=1/1;
 99/5=1,9=1/99;
 Leave Link    1 at Sun Nov  6 23:01:48 2022, MaxMem= 16106127360 cpu:               1.7 elap:               0.1
 (Enter /opt/ap/G16/B01/g16/l101.exe)
 ----------------------------
 _conf031.gjf nmol_natom 1_15
 ----------------------------
 Symbolic Z-matrix:
 Charge =  0 Multiplicity = 1
 C
 C                    1     1.39016 
 C                    1     1.39195  2     119.89594 
 C                    2     1.38669  1     119.88076  3     0.70826  0
 H                    2     0.98744  1     119.71654  3    -179.90726  0
 C                    1     1.48429  2     119.93615  4    -179.87772  0
 C                    3     1.40101  1     119.72365  2    -0.26267  0
 H                    3     0.99022  1     119.18862  2     178.85398  0
 C                    4     1.37899  2     120.45786  1    -0.48041  0
 H                    4     0.98347  2     120.30443  1     179.36167  0
 O                    6     1.2746   1     118.00615  2     65.      0
 O                    6     1.26363  1     118.77715  2    -115.     0
 H                    7     0.98977  3     119.37862  1    -178.93546  0
 H                    9     0.99498  4     119.46723  2    -178.58827  0
 H                    11    0.8968   6     118.15824  1     176.92714  0
 
 ITRead=  0  0  0  0  0  0  0  0  0  0  0  0  0  0  0
 MicOpt= -1 -1 -1 -1 -1 -1 -1 -1 -1 -1 -1 -1 -1 -1 -1
 NAtoms=     15 NQM=       15 NQMF=       0 NMMI=      0 NMMIF=      0
                NMic=       0 NMicF=      0.
                    Isotopes and Nuclear Properties:
 (Nuclear quadrupole moments (NQMom) in fm**2, nuclear magnetic moments (NMagM)
  in nuclear magnetons)

  Atom         1           2           3           4           5           6           7           8           9          10
 IAtWgt=          12          12          12          12           1          12          12           1          12           1
 AtmWgt=  12.0000000  12.0000000  12.0000000  12.0000000   1.0078250  12.0000000  12.0000000   1.0078250  12.0000000   1.0078250
 NucSpn=           0           0           0           0           1           0           0           1           0           1
 AtZEff=  -0.0000000  -0.0000000  -0.0000000  -0.0000000  -0.0000000  -0.0000000  -0.0000000  -0.0000000  -0.0000000  -0.0000000
 NQMom=    0.0000000   0.0000000   0.0000000   0.0000000   0.0000000   0.0000000   0.0000000   0.0000000   0.0000000   0.0000000
 NMagM=    0.0000000   0.0000000   0.0000000   0.0000000   2.7928460   0.0000000   0.0000000   2.7928460   0.0000000   2.7928460
 AtZNuc=   6.0000000   6.0000000   6.0000000   6.0000000   1.0000000   6.0000000   6.0000000   1.0000000   6.0000000   1.0000000

  Atom        11          12          13          14          15
 IAtWgt=          16          16           1           1           1
 AtmWgt=  15.9949146  15.9949146   1.0078250   1.0078250   1.0078250
 NucSpn=           0           0           1           1           1
 AtZEff=  -0.0000000  -0.0000000  -0.0000000  -0.0000000  -0.0000000
 NQMom=    0.0000000   0.0000000   0.0000000   0.0000000   0.0000000
 NMagM=    0.0000000   0.0000000   2.7928460   2.7928460   2.7928460
 AtZNuc=   8.0000000   8.0000000   1.0000000   1.0000000   1.0000000
 Leave Link  101 at Sun Nov  6 23:01:49 2022, MaxMem= 16106127360 cpu:               5.2 elap:               0.2
 (Enter /opt/ap/G16/B01/g16/l202.exe)
                          Input orientation:                          
 ---------------------------------------------------------------------
 Center     Atomic      Atomic             Coordinates (Angstroms)
 Number     Number       Type             X           Y           Z
 ---------------------------------------------------------------------
      1          6           0        0.000000    0.000000    0.000000
      2          6           0        0.000000    0.000000    1.390162
      3          6           0        1.206722    0.000000   -0.693782
      4          6           0        1.202258    0.014862    2.081006
      5          1           0       -0.857581   -0.001388    1.879646
      6          6           0       -1.286190   -0.013155   -0.740711
      7          6           0        2.415349    0.005578    0.014752
      8          1           0        1.194584   -0.017290   -1.683772
      9          6           0        2.400563    0.019708    1.398617
     10          1           0        1.209438    0.024411    3.064408
     11          8           0       -2.052572    0.998963   -0.627251
     12          8           0       -1.569476   -1.019901   -1.449909
     13          1           0        3.270315    0.021574   -0.483669
     14          1           0        3.254554    0.009066    1.909081
     15          1           0       -2.810470    1.011766   -1.106505
 ---------------------------------------------------------------------
                    Distance matrix (angstroms):
                    1          2          3          4          5
     1  C    0.000000
     2  C    1.390162   0.000000
     3  C    1.391945   2.408112   0.000000
     4  C    2.403379   1.386690   2.774832   0.000000
     5  H    2.066039   0.987443   3.299073   2.069721   0.000000
     6  C    1.484288   2.488991   2.493388   3.762345   2.655206
     7  C    2.415401   2.779513   1.401011   2.396056   3.766955
     8  H    2.064563   3.297939   0.990215   3.764924   4.112127
     9  C    2.778349   2.400659   2.409104   1.378990   3.293530
    10  H    3.294530   2.065535   3.758270   0.983474   2.382624
    11  O    2.367367   3.046463   3.409597   4.347071   2.951820
    12  O    2.367633   3.401390   3.052736   4.606582   3.553885
    13  H    3.305958   3.769173   2.074374   3.294611   4.756607
    14  H    3.773167   3.295676   3.311886   2.059493   4.112253
    15  H    3.185399   3.893040   4.163153   5.220731   3.709091
                    6          7          8          9         10
     6  C    0.000000
     7  C    3.777892   0.000000
     8  H    2.653982   2.091836   0.000000
     9  C    4.262622   1.384016   3.310118   0.000000
    10  H    4.550659   3.279477   4.748386   2.047842   0.000000
    11  O    1.274598   4.621829   3.562729   4.989338   5.021833
    12  O    1.263626   4.367570   2.949568   4.995608   5.402963
    13  H    4.563881   0.989771   2.398003   2.073517   4.103177
    14  H    5.257398   2.071897   4.141589   0.994981   2.348938
    15  H    1.872885   5.438641   4.175243   5.866403   5.876312
                   11         12         13         14         15
    11  O    0.000000
    12  O    2.232926   0.000000
    13  H    5.413782   5.043993   0.000000
    14  H    5.964768   5.967650   2.392834   0.000000
    15  H    0.896804   2.405340   6.192281   6.847166   0.000000
 Stoichiometry    C7H6O2
 Framework group  C1[X(C7H6O2)]
 Deg. of freedom    39
 Full point group                 C1      NOp   1
 Largest Abelian subgroup         C1      NOp   1
 Largest concise Abelian subgroup C1      NOp   1
                         Standard orientation:                         
 ---------------------------------------------------------------------
 Center     Atomic      Atomic             Coordinates (Angstroms)
 Number     Number       Type             X           Y           Z
 ---------------------------------------------------------------------
      1          6           0        0.220810    0.016284    0.015688
      2          6           0       -0.462330   -1.170737    0.254127
      3          6           0       -0.489147    1.187089   -0.234687
      4          6           0       -1.848658   -1.187380    0.227175
      5          1           0        0.043952   -1.999467    0.432809
      6          6           0        1.704755    0.034930    0.041554
      7          6           0       -1.889815    1.160277   -0.250208
      8          1           0        0.007729    2.030104   -0.386238
      9          6           0       -2.556832   -0.031320   -0.025075
     10          1           0       -2.338063   -2.025574    0.385715
     11          8           0        2.327294   -0.634621   -0.846560
     12          8           0        2.289142    0.708948    0.936507
     13          1           0       -2.389271    1.992421   -0.444442
     14          1           0       -3.551501   -0.055698   -0.020076
     15          1           0        3.222966   -0.591270   -0.858783
 ---------------------------------------------------------------------
 Rotational constants (GHZ):           3.9687264           1.1549985           0.9994708
 Leave Link  202 at Sun Nov  6 23:01:49 2022, MaxMem= 16106127360 cpu:               0.4 elap:               0.0
 (Enter /opt/ap/G16/B01/g16/l301.exe)
 Standard basis: 6-311++G(d,p) (5D, 7F)
 Ernie: Thresh=  0.10000D-02 Tol=  0.10000D-05 Strict=F.
 There are   249 symmetry adapted cartesian basis functions of A   symmetry.
 There are   240 symmetry adapted basis functions of A   symmetry.
   240 basis functions,   378 primitive gaussians,   249 cartesian basis functions
    32 alpha electrons       32 beta electrons
       nuclear repulsion energy       408.3557422519 Hartrees.
 IExCor= 4639 DFT=T Ex+Corr=wB97XD ExCW=0 ScaHFX=  1.000000
 ScaDFX=  1.000000  1.000000  1.000000  1.000000 ScalE2=  1.000000  1.000000
 IRadAn=      5 IRanWt=     -1 IRanGd=            0 ICorTp=0 IEmpDi=121
 HFx  wShort=  0.000000 wLong=  0.200000 cFull=  0.222036 cShort=  0.000000 cLong=  0.777964
 DFx  wShort=  0.000000 wLong=  0.200000 cFull=  0.000000 cShort=  0.000000 cLong=  1.000000
 NAtoms=   15 NActive=   15 NUniq=   15 SFac= 1.00D+00 NAtFMM=   60 NAOKFM=F Big=F
 Integral buffers will be    131072 words long.
 Raffenetti 2 integral format.
 Two-electron integral symmetry is turned on.
 R6Disp:  Grimme-D2 Dispersion energy=       -0.0064772683 Hartrees.
 Nuclear repulsion after empirical dispersion term =      408.3492649836 Hartrees.
 Leave Link  301 at Sun Nov  6 23:01:49 2022, MaxMem= 16106127360 cpu:               1.2 elap:               0.0
 (Enter /opt/ap/G16/B01/g16/l302.exe)
 NPDir=0 NMtPBC=     1 NCelOv=     1 NCel=       1 NClECP=     1 NCelD=      1
         NCelK=      1 NCelE2=     1 NClLst=     1 CellRange=     0.0.
 One-electron integrals computed using PRISM.
 One-electron integral symmetry used in STVInt
 NBasis=   240 RedAO= T EigKep=  1.17D-06  NBF=   240
 NBsUse=   240 1.00D-06 EigRej= -1.00D+00 NBFU=   240
 Precomputing XC quadrature grid using
 IXCGrd= 4 IRadAn=           5 IRanWt=          -1 IRanGd=           0 AccXCQ= 0.00D+00.
 Generated NRdTot=       0 NPtTot=           0 NUsed=           0 NTot=          32
 NSgBfM=   249   249   249   249   249 MxSgAt=    15 MxSgA2=    15.
 Leave Link  302 at Sun Nov  6 23:01:49 2022, MaxMem= 16106127360 cpu:               5.3 elap:               0.2
 (Enter /opt/ap/G16/B01/g16/l303.exe)
 DipDrv:  MaxL=1.
 Leave Link  303 at Sun Nov  6 23:01:49 2022, MaxMem= 16106127360 cpu:               1.2 elap:               0.0
 (Enter /opt/ap/G16/B01/g16/l401.exe)
 ExpMin= 3.60D-02 ExpMax= 8.59D+03 ExpMxC= 1.30D+03 IAcc=3 IRadAn=         5 AccDes= 0.00D+00
 Harris functional with IExCor= 4639 and IRadAn=       5 diagonalized for initial guess.
 HarFok:  IExCor= 4639 AccDes= 0.00D+00 IRadAn=         5 IDoV= 1 UseB2=F ITyADJ=14
 ICtDFT=  3500011 ScaDFX=  1.000000  1.000000  1.000000  1.000000
 FoFCou: FMM=F IPFlag=           0 FMFlag=      100000 FMFlg1=           0
         NFxFlg=           0 DoJE=T BraDBF=F KetDBF=T FulRan=T
         wScrn=  0.000000 ICntrl=       500 IOpCl=  0 I1Cent=   200000004 NGrid=           0
         NMat0=    1 NMatS0=      1 NMatT0=    0 NMatD0=    1 NMtDS0=    0 NMtDT0=    0
 Petite list used in FoFCou.
 Harris En= -403.250241704108    
 JPrj=0 DoOrth=F DoCkMO=F.
 Leave Link  401 at Sun Nov  6 23:01:49 2022, MaxMem= 16106127360 cpu:              11.6 elap:               0.4
 (Enter /opt/ap/G16/B01/g16/l502.exe)
 Integral symmetry usage will be decided dynamically.
 Closed shell SCF:
 Using DIIS extrapolation, IDIIS=  1040.
 NGot= 16106127360 LenX= 16105992971 LenY= 16105930529
 Requested convergence on RMS density matrix=1.00D-08 within 512 cycles.
 Requested convergence on MAX density matrix=1.00D-06.
 Requested convergence on             energy=1.00D-06.
 No special actions if energy rises.
 Fock matrices will be formed incrementally for  20 cycles.

 Cycle   1  Pass 1  IDiag  1:
 FoFJK:  IHMeth= 1 ICntrl=       0 DoSepK=T KAlg= 0 I1Cent=           0 FoldK=F
 IRaf=         1 NMat=       1 IRICut=       1 DoRegI=T DoRafI=F ISym2E= 0 IDoP0=0 IntGTp=1.
 FoFCou: FMM=F IPFlag=           0 FMFlag=      100000 FMFlg1=           0
         NFxFlg=           0 DoJE=T BraDBF=F KetDBF=F FulRan=T
         wScrn=  0.000000 ICntrl=       500 IOpCl=  0 I1Cent=           0 NGrid=           0
         NMat0=    1 NMatS0=      1 NMatT0=    0 NMatD0=    1 NMtDS0=    0 NMtDT0=    0
 Symmetry not used in FoFCou.
 E= -420.621997687149    
 DIIS: error= 7.21D-02 at cycle   1 NSaved=   1.
 NSaved= 1 IEnMin= 1 EnMin= -420.621997687149     IErMin= 1 ErrMin= 7.21D-02
 ErrMax= 7.21D-02  0.00D+00 EMaxC= 1.00D-01 BMatC= 8.63D-01 BMatP= 8.63D-01
 IDIUse=3 WtCom= 2.79D-01 WtEn= 7.21D-01
 Coeff-Com:  0.100D+01
 Coeff-En:   0.100D+01
 Coeff:      0.100D+01
 Gap=     0.474 Goal=   None    Shift=    0.000
 GapD=    0.474 DampG=2.000 DampE=0.500 DampFc=1.0000 IDamp=-1.
 RMSDP=1.73D-02 MaxDP=1.39D+00              OVMax= 9.61D-02

 Cycle   2  Pass 1  IDiag  1:
 RMSU=  1.17D-02    CP:  7.71D-01
 E= -420.694828109339     Delta-E=       -0.072830422190 Rises=F Damp=F
 DIIS: error= 1.39D-02 at cycle   2 NSaved=   2.
 NSaved= 2 IEnMin= 2 EnMin= -420.694828109339     IErMin= 2 ErrMin= 1.39D-02
 ErrMax= 1.39D-02  0.00D+00 EMaxC= 1.00D-01 BMatC= 5.72D-02 BMatP= 8.63D-01
 IDIUse=3 WtCom= 8.61D-01 WtEn= 1.39D-01
 Coeff-Com:  0.136D+00 0.864D+00
 Coeff-En:   0.917D-01 0.908D+00
 Coeff:      0.129D+00 0.871D+00
 Gap=     0.464 Goal=   None    Shift=    0.000
 RMSDP=8.73D-03 MaxDP=4.32D-01 DE=-7.28D-02 OVMax= 7.55D-02

 Cycle   3  Pass 1  IDiag  1:
 RMSU=  6.66D-03    CP:  7.09D-01  6.19D-01
 E= -420.710732717988     Delta-E=       -0.015904608649 Rises=F Damp=F
 DIIS: error= 1.36D-02 at cycle   3 NSaved=   3.
 NSaved= 3 IEnMin= 3 EnMin= -420.710732717988     IErMin= 3 ErrMin= 1.36D-02
 ErrMax= 1.36D-02  0.00D+00 EMaxC= 1.00D-01 BMatC= 3.62D-02 BMatP= 5.72D-02
 IDIUse=3 WtCom= 8.64D-01 WtEn= 1.36D-01
 Coeff-Com:  0.287D-01 0.449D+00 0.523D+00
 Coeff-En:   0.000D+00 0.387D+00 0.613D+00
 Coeff:      0.248D-01 0.440D+00 0.535D+00
 Gap=     0.373 Goal=   None    Shift=    0.000
 RMSDP=3.66D-03 MaxDP=2.84D-01 DE=-1.59D-02 OVMax= 5.29D-02

 Cycle   4  Pass 1  IDiag  1:
 RMSU=  1.76D-03    CP:  7.01D-01  7.77D-01  6.12D-01
 E= -420.737091564225     Delta-E=       -0.026358846237 Rises=F Damp=F
 DIIS: error= 2.84D-03 at cycle   4 NSaved=   4.
 NSaved= 4 IEnMin= 4 EnMin= -420.737091564225     IErMin= 4 ErrMin= 2.84D-03
 ErrMax= 2.84D-03  0.00D+00 EMaxC= 1.00D-01 BMatC= 2.21D-03 BMatP= 3.62D-02
 IDIUse=3 WtCom= 9.72D-01 WtEn= 2.84D-02
 Coeff-Com:  0.105D-01 0.220D+00 0.304D+00 0.465D+00
 Coeff-En:   0.000D+00 0.000D+00 0.000D+00 0.100D+01
 Coeff:      0.102D-01 0.214D+00 0.296D+00 0.480D+00
 Gap=     0.369 Goal=   None    Shift=    0.000
 RMSDP=6.94D-04 MaxDP=3.98D-02 DE=-2.64D-02 OVMax= 1.38D-02

 Cycle   5  Pass 1  IDiag  1:
 RMSU=  5.83D-04    CP:  7.00D-01  7.73D-01  6.47D-01  8.37D-01
 E= -420.738586385595     Delta-E=       -0.001494821369 Rises=F Damp=F
 DIIS: error= 4.50D-04 at cycle   5 NSaved=   5.
 NSaved= 5 IEnMin= 5 EnMin= -420.738586385595     IErMin= 5 ErrMin= 4.50D-04
 ErrMax= 4.50D-04  0.00D+00 EMaxC= 1.00D-01 BMatC= 5.32D-05 BMatP= 2.21D-03
 IDIUse=3 WtCom= 9.96D-01 WtEn= 4.50D-03
 Coeff-Com:  0.581D-03 0.206D-01 0.373D-01 0.154D+00 0.788D+00
 Coeff-En:   0.000D+00 0.000D+00 0.000D+00 0.000D+00 0.100D+01
 Coeff:      0.579D-03 0.205D-01 0.371D-01 0.153D+00 0.789D+00
 Gap=     0.366 Goal=   None    Shift=    0.000
 RMSDP=1.87D-04 MaxDP=7.90D-03 DE=-1.49D-03 OVMax= 3.10D-03

 Cycle   6  Pass 1  IDiag  1:
 RMSU=  1.37D-04    CP:  7.00D-01  7.77D-01  6.63D-01  8.62D-01  1.05D+00
 E= -420.738627858474     Delta-E=       -0.000041472879 Rises=F Damp=F
 DIIS: error= 1.72D-04 at cycle   6 NSaved=   6.
 NSaved= 6 IEnMin= 6 EnMin= -420.738627858474     IErMin= 6 ErrMin= 1.72D-04
 ErrMax= 1.72D-04  0.00D+00 EMaxC= 1.00D-01 BMatC= 7.44D-06 BMatP= 5.32D-05
 IDIUse=3 WtCom= 9.98D-01 WtEn= 1.72D-03
 Coeff-Com: -0.959D-03-0.163D-01-0.177D-01 0.110D-01 0.339D+00 0.685D+00
 Coeff-En:   0.000D+00 0.000D+00 0.000D+00 0.000D+00 0.000D+00 0.100D+01
 Coeff:     -0.957D-03-0.163D-01-0.177D-01 0.110D-01 0.338D+00 0.686D+00
 Gap=     0.366 Goal=   None    Shift=    0.000
 RMSDP=9.78D-05 MaxDP=4.56D-03 DE=-4.15D-05 OVMax= 1.09D-03

 Cycle   7  Pass 1  IDiag  1:
 RMSU=  4.50D-05    CP:  6.99D-01  7.76D-01  6.68D-01  8.84D-01  1.13D+00
                    CP:  1.14D+00
 E= -420.738635611974     Delta-E=       -0.000007753500 Rises=F Damp=F
 DIIS: error= 5.14D-05 at cycle   7 NSaved=   7.
 NSaved= 7 IEnMin= 7 EnMin= -420.738635611974     IErMin= 7 ErrMin= 5.14D-05
 ErrMax= 5.14D-05  0.00D+00 EMaxC= 1.00D-01 BMatC= 3.27D-07 BMatP= 7.44D-06
 IDIUse=1 WtCom= 1.00D+00 WtEn= 0.00D+00
 Coeff-Com: -0.227D-03-0.534D-02-0.657D-02-0.139D-01-0.689D-02 0.120D+00
 Coeff-Com:  0.912D+00
 Coeff:     -0.227D-03-0.534D-02-0.657D-02-0.139D-01-0.689D-02 0.120D+00
 Coeff:      0.912D+00
 Gap=     0.366 Goal=   None    Shift=    0.000
 RMSDP=3.88D-05 MaxDP=2.19D-03 DE=-7.75D-06 OVMax= 4.05D-04

 Cycle   8  Pass 1  IDiag  1:
 RMSU=  1.45D-05    CP:  6.99D-01  7.77D-01  6.69D-01  8.86D-01  1.19D+00
                    CP:  1.22D+00  1.24D+00
 E= -420.738636322002     Delta-E=       -0.000000710029 Rises=F Damp=F
 DIIS: error= 1.63D-05 at cycle   8 NSaved=   8.
 NSaved= 8 IEnMin= 8 EnMin= -420.738636322002     IErMin= 8 ErrMin= 1.63D-05
 ErrMax= 1.63D-05  0.00D+00 EMaxC= 1.00D-01 BMatC= 5.31D-08 BMatP= 3.27D-07
 IDIUse=1 WtCom= 1.00D+00 WtEn= 0.00D+00
 Coeff-Com:  0.400D-04 0.394D-03 0.417D-03-0.567D-02-0.420D-01-0.479D-01
 Coeff-Com:  0.260D+00 0.834D+00
 Coeff:      0.400D-04 0.394D-03 0.417D-03-0.567D-02-0.420D-01-0.479D-01
 Coeff:      0.260D+00 0.834D+00
 Gap=     0.366 Goal=   None    Shift=    0.000
 RMSDP=1.09D-05 MaxDP=5.61D-04 DE=-7.10D-07 OVMax= 1.89D-04

 Cycle   9  Pass 1  IDiag  1:
 RMSU=  4.54D-06    CP:  6.99D-01  7.76D-01  6.69D-01  8.86D-01  1.20D+00
                    CP:  1.24D+00  1.35D+00  1.19D+00
 E= -420.738636426818     Delta-E=       -0.000000104816 Rises=F Damp=F
 DIIS: error= 8.99D-06 at cycle   9 NSaved=   9.
 NSaved= 9 IEnMin= 9 EnMin= -420.738636426818     IErMin= 9 ErrMin= 8.99D-06
 ErrMax= 8.99D-06  0.00D+00 EMaxC= 1.00D-01 BMatC= 7.75D-09 BMatP= 5.31D-08
 IDIUse=1 WtCom= 1.00D+00 WtEn= 0.00D+00
 Coeff-Com:  0.468D-04 0.906D-03 0.115D-02-0.534D-04-0.125D-01-0.332D-01
 Coeff-Com: -0.359D-01 0.276D+00 0.803D+00
 Coeff:      0.468D-04 0.906D-03 0.115D-02-0.534D-04-0.125D-01-0.332D-01
 Coeff:     -0.359D-01 0.276D+00 0.803D+00
 Gap=     0.366 Goal=   None    Shift=    0.000
 RMSDP=4.05D-06 MaxDP=2.75D-04 DE=-1.05D-07 OVMax= 5.84D-05

 Cycle  10  Pass 1  IDiag  1:
 RMSU=  2.03D-06    CP:  6.99D-01  7.76D-01  6.69D-01  8.85D-01  1.20D+00
                    CP:  1.24D+00  1.37D+00  1.25D+00  1.30D+00
 E= -420.738636441133     Delta-E=       -0.000000014315 Rises=F Damp=F
 DIIS: error= 1.55D-06 at cycle  10 NSaved=  10.
 NSaved=10 IEnMin=10 EnMin= -420.738636441133     IErMin=10 ErrMin= 1.55D-06
 ErrMax= 1.55D-06  0.00D+00 EMaxC= 1.00D-01 BMatC= 9.66D-10 BMatP= 7.75D-09
 IDIUse=1 WtCom= 1.00D+00 WtEn= 0.00D+00
 Coeff-Com:  0.951D-05 0.207D-03 0.291D-03 0.532D-03 0.110D-02-0.495D-02
 Coeff-Com: -0.394D-01-0.142D-01 0.259D+00 0.798D+00
 Coeff:      0.951D-05 0.207D-03 0.291D-03 0.532D-03 0.110D-02-0.495D-02
 Coeff:     -0.394D-01-0.142D-01 0.259D+00 0.798D+00
 Gap=     0.366 Goal=   None    Shift=    0.000
 RMSDP=1.60D-06 MaxDP=9.45D-05 DE=-1.43D-08 OVMax= 2.55D-05

 Cycle  11  Pass 1  IDiag  1:
 RMSU=  5.43D-07    CP:  6.99D-01  7.76D-01  6.69D-01  8.85D-01  1.20D+00
                    CP:  1.24D+00  1.37D+00  1.30D+00  1.45D+00  9.88D-01
 E= -420.738636442764     Delta-E=       -0.000000001630 Rises=F Damp=F
 DIIS: error= 7.65D-07 at cycle  11 NSaved=  11.
 NSaved=11 IEnMin=11 EnMin= -420.738636442764     IErMin=11 ErrMin= 7.65D-07
 ErrMax= 7.65D-07  0.00D+00 EMaxC= 1.00D-01 BMatC= 1.64D-10 BMatP= 9.66D-10
 IDIUse=1 WtCom= 1.00D+00 WtEn= 0.00D+00
 Coeff-Com: -0.215D-05-0.228D-04-0.137D-04 0.257D-03 0.227D-02 0.234D-02
 Coeff-Com: -0.100D-01-0.500D-01-0.191D-01 0.307D+00 0.768D+00
 Coeff:     -0.215D-05-0.228D-04-0.137D-04 0.257D-03 0.227D-02 0.234D-02
 Coeff:     -0.100D-01-0.500D-01-0.191D-01 0.307D+00 0.768D+00
 Gap=     0.366 Goal=   None    Shift=    0.000
 RMSDP=5.57D-07 MaxDP=2.85D-05 DE=-1.63D-09 OVMax= 6.90D-06

 Cycle  12  Pass 1  IDiag  1:
 RMSU=  2.71D-07    CP:  6.99D-01  7.76D-01  6.69D-01  8.84D-01  1.20D+00
                    CP:  1.24D+00  1.37D+00  1.31D+00  1.50D+00  1.06D+00
                    CP:  1.14D+00
 E= -420.738636443010     Delta-E=       -0.000000000246 Rises=F Damp=F
 DIIS: error= 1.72D-07 at cycle  12 NSaved=  12.
 NSaved=12 IEnMin=12 EnMin= -420.738636443010     IErMin=12 ErrMin= 1.72D-07
 ErrMax= 1.72D-07  0.00D+00 EMaxC= 1.00D-01 BMatC= 1.10D-11 BMatP= 1.64D-10
 IDIUse=1 WtCom= 1.00D+00 WtEn= 0.00D+00
 Coeff-Com: -0.127D-05-0.212D-04-0.248D-04 0.235D-04 0.468D-03 0.884D-03
 Coeff-Com:  0.139D-02-0.118D-01-0.247D-01 0.163D-01 0.180D+00 0.838D+00
 Coeff:     -0.127D-05-0.212D-04-0.248D-04 0.235D-04 0.468D-03 0.884D-03
 Coeff:      0.139D-02-0.118D-01-0.247D-01 0.163D-01 0.180D+00 0.838D+00
 Gap=     0.366 Goal=   None    Shift=    0.000
 RMSDP=1.86D-07 MaxDP=8.03D-06 DE=-2.46D-10 OVMax= 3.28D-06

 Cycle  13  Pass 1  IDiag  1:
 RMSU=  8.02D-08    CP:  6.99D-01  7.76D-01  6.69D-01  8.85D-01  1.20D+00
                    CP:  1.24D+00  1.37D+00  1.31D+00  1.51D+00  1.06D+00
                    CP:  1.24D+00  1.15D+00
 E= -420.738636443040     Delta-E=       -0.000000000031 Rises=F Damp=F
 DIIS: error= 8.36D-08 at cycle  13 NSaved=  13.
 NSaved=13 IEnMin=13 EnMin= -420.738636443040     IErMin=13 ErrMin= 8.36D-08
 ErrMax= 8.36D-08  0.00D+00 EMaxC= 1.00D-01 BMatC= 2.34D-12 BMatP= 1.10D-11
 IDIUse=1 WtCom= 1.00D+00 WtEn= 0.00D+00
 Coeff-Com:  0.902D-07-0.353D-05-0.751D-05-0.473D-04-0.331D-03-0.221D-03
 Coeff-Com:  0.251D-02 0.621D-02-0.215D-02-0.556D-01-0.124D+00 0.203D+00
 Coeff-Com:  0.970D+00
 Coeff:      0.902D-07-0.353D-05-0.751D-05-0.473D-04-0.331D-03-0.221D-03
 Coeff:      0.251D-02 0.621D-02-0.215D-02-0.556D-01-0.124D+00 0.203D+00
 Coeff:      0.970D+00
 Gap=     0.366 Goal=   None    Shift=    0.000
 RMSDP=8.02D-08 MaxDP=3.00D-06 DE=-3.06D-11 OVMax= 2.19D-06

 Cycle  14  Pass 1  IDiag  1:
 RMSU=  3.42D-08    CP:  6.99D-01  7.76D-01  6.69D-01  8.85D-01  1.20D+00
                    CP:  1.24D+00  1.37D+00  1.31D+00  1.51D+00  1.05D+00
                    CP:  1.32D+00  1.28D+00  1.31D+00
 E= -420.738636443050     Delta-E=       -0.000000000009 Rises=F Damp=F
 DIIS: error= 3.17D-08 at cycle  14 NSaved=  14.
 NSaved=14 IEnMin=14 EnMin= -420.738636443050     IErMin=14 ErrMin= 3.17D-08
 ErrMax= 3.17D-08  0.00D+00 EMaxC= 1.00D-01 BMatC= 1.81D-13 BMatP= 2.34D-12
 IDIUse=1 WtCom= 1.00D+00 WtEn= 0.00D+00
 Coeff-Com:  0.835D-07 0.218D-05 0.291D-05 0.215D-05-0.417D-04-0.520D-04
 Coeff-Com: -0.296D-03 0.877D-03 0.282D-02-0.439D-05-0.108D-01-0.101D+00
 Coeff-Com: -0.719D-01 0.118D+01
 Coeff:      0.835D-07 0.218D-05 0.291D-05 0.215D-05-0.417D-04-0.520D-04
 Coeff:     -0.296D-03 0.877D-03 0.282D-02-0.439D-05-0.108D-01-0.101D+00
 Coeff:     -0.719D-01 0.118D+01
 Gap=     0.366 Goal=   None    Shift=    0.000
 RMSDP=3.32D-08 MaxDP=2.28D-06 DE=-9.09D-12 OVMax= 8.89D-07

 Cycle  15  Pass 1  IDiag  1:
 RMSU=  8.42D-09    CP:  6.99D-01  7.76D-01  6.69D-01  8.85D-01  1.20D+00
                    CP:  1.24D+00  1.37D+00  1.31D+00  1.52D+00  1.05D+00
                    CP:  1.33D+00  1.30D+00  1.50D+00  1.44D+00
 E= -420.738636443052     Delta-E=       -0.000000000003 Rises=F Damp=F
 DIIS: error= 8.74D-09 at cycle  15 NSaved=  15.
 NSaved=15 IEnMin=15 EnMin= -420.738636443052     IErMin=15 ErrMin= 8.74D-09
 ErrMax= 8.74D-09  0.00D+00 EMaxC= 1.00D-01 BMatC= 2.55D-14 BMatP= 1.81D-13
 IDIUse=1 WtCom= 1.00D+00 WtEn= 0.00D+00
 Coeff-Com:  0.149D-07 0.995D-06 0.167D-05 0.575D-05 0.230D-04 0.123D-04
 Coeff-Com: -0.340D-03-0.380D-03 0.101D-02 0.605D-02 0.114D-01-0.429D-01
 Coeff-Com: -0.119D+00 0.315D+00 0.829D+00
 Coeff:      0.149D-07 0.995D-06 0.167D-05 0.575D-05 0.230D-04 0.123D-04
 Coeff:     -0.340D-03-0.380D-03 0.101D-02 0.605D-02 0.114D-01-0.429D-01
 Coeff:     -0.119D+00 0.315D+00 0.829D+00
 Gap=     0.366 Goal=   None    Shift=    0.000
 RMSDP=8.14D-09 MaxDP=7.26D-07 DE=-2.61D-12 OVMax= 1.70D-07

 SCF Done:  E(RwB97XD) =  -420.738636443     A.U. after   15 cycles
            NFock= 15  Conv=0.81D-08     -V/T= 2.0015
 KE= 4.201120633665D+02 PE=-1.800108217170D+03 EE= 5.509082523763D+02
 Leave Link  502 at Sun Nov  6 23:02:02 2022, MaxMem= 16106127360 cpu:             407.1 elap:              12.8
 (Enter /opt/ap/G16/B01/g16/l601.exe)
 Copying SCF densities to generalized density rwf, IOpCl= 0 IROHF=0.

 **********************************************************************

            Population analysis using the SCF Density.

 **********************************************************************

 Orbital symmetries:
       Occupied  (A) (A) (A) (A) (A) (A) (A) (A) (A) (A) (A) (A)
                 (A) (A) (A) (A) (A) (A) (A) (A) (A) (A) (A) (A)
                 (A) (A) (A) (A) (A) (A) (A) (A)
       Virtual   (A) (A) (A) (A) (A) (A) (A) (A) (A) (A) (A) (A)
                 (A) (A) (A) (A) (A) (A) (A) (A) (A) (A) (A) (A)
                 (A) (A) (A) (A) (A) (A) (A) (A) (A) (A) (A) (A)
                 (A) (A) (A) (A) (A) (A) (A) (A) (A) (A) (A) (A)
                 (A) (A) (A) (A) (A) (A) (A) (A) (A) (A) (A) (A)
                 (A) (A) (A) (A) (A) (A) (A) (A) (A) (A) (A) (A)
                 (A) (A) (A) (A) (A) (A) (A) (A) (A) (A) (A) (A)
                 (A) (A) (A) (A) (A) (A) (A) (A) (A) (A) (A) (A)
                 (A) (A) (A) (A) (A) (A) (A) (A) (A) (A) (A) (A)
                 (A) (A) (A) (A) (A) (A) (A) (A) (A) (A) (A) (A)
                 (A) (A) (A) (A) (A) (A) (A) (A) (A) (A) (A) (A)
                 (A) (A) (A) (A) (A) (A) (A) (A) (A) (A) (A) (A)
                 (A) (A) (A) (A) (A) (A) (A) (A) (A) (A) (A) (A)
                 (A) (A) (A) (A) (A) (A) (A) (A) (A) (A) (A) (A)
                 (A) (A) (A) (A) (A) (A) (A) (A) (A) (A) (A) (A)
                 (A) (A) (A) (A) (A) (A) (A) (A) (A) (A) (A) (A)
                 (A) (A) (A) (A) (A) (A) (A) (A) (A) (A) (A) (A)
                 (A) (A) (A) (A)
 The electronic state is 1-A.
 Alpha  occ. eigenvalues --  -19.31955 -19.23402 -10.43552 -10.31384 -10.29441
 Alpha  occ. eigenvalues --  -10.29297 -10.29013 -10.28782 -10.28694  -1.26060
 Alpha  occ. eigenvalues --   -1.10973  -0.98062  -0.88946  -0.87070  -0.80698
 Alpha  occ. eigenvalues --   -0.73472  -0.72301  -0.65870  -0.60739  -0.58837
 Alpha  occ. eigenvalues --   -0.57859  -0.55789  -0.53900  -0.53390  -0.49282
 Alpha  occ. eigenvalues --   -0.47413  -0.45401  -0.45144  -0.40853  -0.37510
 Alpha  occ. eigenvalues --   -0.34381  -0.33547
 Alpha virt. eigenvalues --    0.03073   0.03800   0.04243   0.04557   0.05097
 Alpha virt. eigenvalues --    0.06410   0.07226   0.07650   0.08667   0.10547
 Alpha virt. eigenvalues --    0.12228   0.12614   0.12956   0.14394   0.15032
 Alpha virt. eigenvalues --    0.16099   0.16172   0.17050   0.17336   0.17953
 Alpha virt. eigenvalues --    0.18604   0.18832   0.19321   0.19985   0.20134
 Alpha virt. eigenvalues --    0.20988   0.21023   0.21184   0.23077   0.23823
 Alpha virt. eigenvalues --    0.24659   0.25640   0.26993   0.27351   0.27729
 Alpha virt. eigenvalues --    0.29231   0.29527   0.30021   0.30940   0.31175
 Alpha virt. eigenvalues --    0.32344   0.34536   0.35048   0.35430   0.36718
 Alpha virt. eigenvalues --    0.37397   0.38224   0.38975   0.39398   0.39948
 Alpha virt. eigenvalues --    0.41709   0.42400   0.43116   0.43626   0.44731
 Alpha virt. eigenvalues --    0.45640   0.46131   0.50686   0.52722   0.56781
 Alpha virt. eigenvalues --    0.59507   0.61370   0.61989   0.62044   0.63484
 Alpha virt. eigenvalues --    0.64344   0.64769   0.65119   0.67244   0.67955
 Alpha virt. eigenvalues --    0.69165   0.70319   0.72967   0.73691   0.74646
 Alpha virt. eigenvalues --    0.75739   0.81107   0.81380   0.82254   0.83073
 Alpha virt. eigenvalues --    0.86733   0.86963   0.90566   0.92611   0.93633
 Alpha virt. eigenvalues --    0.93727   0.95104   0.95996   0.98792   0.99950
 Alpha virt. eigenvalues --    1.01496   1.01863   1.08057   1.09051   1.12812
 Alpha virt. eigenvalues --    1.13893   1.15142   1.16536   1.18704   1.19926
 Alpha virt. eigenvalues --    1.22496   1.26134   1.26903   1.29266   1.32694
 Alpha virt. eigenvalues --    1.37342   1.41191   1.44158   1.45553   1.53444
 Alpha virt. eigenvalues --    1.56823   1.58867   1.59303   1.61326   1.62392
 Alpha virt. eigenvalues --    1.65427   1.66936   1.67363   1.69999   1.73451
 Alpha virt. eigenvalues --    1.74363   1.75580   1.78693   1.84124   1.87392
 Alpha virt. eigenvalues --    1.88007   1.88930   1.90976   1.94490   1.96664
 Alpha virt. eigenvalues --    2.01319   2.02562   2.03347   2.04610   2.05366
 Alpha virt. eigenvalues --    2.05918   2.07665   2.14462   2.17279   2.17831
 Alpha virt. eigenvalues --    2.23395   2.24433   2.33279   2.43818   2.47239
 Alpha virt. eigenvalues --    2.50398   2.52764   2.53968   2.58561   2.62442
 Alpha virt. eigenvalues --    2.67774   2.71467   2.77461   2.80134   2.80999
 Alpha virt. eigenvalues --    2.82778   2.85016   2.88028   2.90698   2.90892
 Alpha virt. eigenvalues --    2.91112   2.91976   2.96538   2.97870   3.00427
 Alpha virt. eigenvalues --    3.01922   3.07001   3.10022   3.16538   3.18684
 Alpha virt. eigenvalues --    3.19888   3.22357   3.25101   3.27939   3.34346
 Alpha virt. eigenvalues --    3.38269   3.43028   3.48593   3.49148   3.64221
 Alpha virt. eigenvalues --    3.66280   3.69140   3.72466   3.86191   3.88657
 Alpha virt. eigenvalues --    4.05299   4.16060   4.27328   4.29688   4.35643
 Alpha virt. eigenvalues --    4.35911   4.40372   4.95009   5.08701   5.18732
 Alpha virt. eigenvalues --    5.27215   5.47525   5.76812   6.07106  23.84506
 Alpha virt. eigenvalues --   23.93718  24.14986  24.21293  24.28564  24.30200
 Alpha virt. eigenvalues --   24.41941  50.03582  50.12439
          Condensed to atoms (all electrons):
               1          2          3          4          5          6
     1  C   11.620655  -2.897362  -2.675410   1.437524  -0.077146  -1.765099
     2  C   -2.897362  10.862335   0.786003  -1.528652   0.430419  -0.711068
     3  C   -2.675410   0.786003  11.060995  -1.599061   0.123990  -0.627859
     4  C    1.437524  -1.528652  -1.599061   6.703482  -0.075683   0.054176
     5  H   -0.077146   0.430419   0.123990  -0.075683   0.486041  -0.052703
     6  C   -1.765099  -0.711068  -0.627859   0.054176  -0.052703   8.293455
     7  C    1.561186  -1.602218  -1.648827   1.179647  -0.018944  -0.049049
     8  H   -0.051795   0.142229   0.391890  -0.029930   0.000880  -0.031455
     9  C   -1.738822   1.327658   1.286574  -0.684054   0.025538   0.028666
    10  H    0.026082  -0.046992  -0.015678   0.393582  -0.010007   0.007188
    11  O   -0.299510  -0.127730  -0.121840   0.057375  -0.007860   0.461780
    12  O    0.066055   0.047915  -0.204896   0.022787  -0.003847   0.502020
    13  H    0.036366  -0.031294  -0.031513   0.002116   0.000391   0.000035
    14  H    0.006296   0.005533  -0.002163  -0.028667  -0.001051  -0.008400
    15  H   -0.057617   0.010449  -0.001719  -0.002156  -0.001221   0.032135
               7          8          9         10         11         12
     1  C    1.561186  -0.051795  -1.738822   0.026082  -0.299510   0.066055
     2  C   -1.602218   0.142229   1.327658  -0.046992  -0.127730   0.047915
     3  C   -1.648827   0.391890   1.286574  -0.015678  -0.121840  -0.204896
     4  C    1.179647  -0.029930  -0.684054   0.393582   0.057375   0.022787
     5  H   -0.018944   0.000880   0.025538  -0.010007  -0.007860  -0.003847
     6  C   -0.049049  -0.031455   0.028666   0.007188   0.461780   0.502020
     7  C    6.912794  -0.092274  -0.693953  -0.006345   0.027892  -0.007513
     8  H   -0.092274   0.466014   0.028100   0.000359  -0.009586   0.002911
     9  C   -0.693953   0.028100   6.495095  -0.017397  -0.025538  -0.003735
    10  H   -0.006345   0.000359  -0.017397   0.471306   0.000235   0.000158
    11  O    0.027892  -0.009586  -0.025538   0.000235   7.972848  -0.150483
    12  O   -0.007513   0.002911  -0.003735   0.000158  -0.150483   8.011041
    13  H    0.402918  -0.010570  -0.038175  -0.001215  -0.000001  -0.001152
    14  H   -0.019467  -0.000241   0.396797  -0.004352  -0.000542  -0.000056
    15  H   -0.005654   0.000513   0.001944  -0.000042   0.305606  -0.008578
              13         14         15
     1  C    0.036366   0.006296  -0.057617
     2  C   -0.031294   0.005533   0.010449
     3  C   -0.031513  -0.002163  -0.001719
     4  C    0.002116  -0.028667  -0.002156
     5  H    0.000391  -0.001051  -0.001221
     6  C    0.000035  -0.008400   0.032135
     7  C    0.402918  -0.019467  -0.005654
     8  H   -0.010570  -0.000241   0.000513
     9  C   -0.038175   0.396797   0.001944
    10  H   -0.001215  -0.004352  -0.000042
    11  O   -0.000001  -0.000542   0.305606
    12  O   -0.001152  -0.000056  -0.008578
    13  H    0.471186  -0.004290  -0.000276
    14  H   -0.004290   0.470325   0.000004
    15  H   -0.000276   0.000004   0.400045
 Mulliken charges:
               1
     1  C    0.808597
     2  C   -0.667224
     3  C   -0.720488
     4  C    0.097514
     5  H    0.181203
     6  C   -0.133822
     7  C    0.059806
     8  H    0.192955
     9  C   -0.388699
    10  H    0.203118
    11  O   -0.082646
    12  O   -0.272628
    13  H    0.205475
    14  H    0.190273
    15  H    0.326565
 Sum of Mulliken charges =  -0.00000
 Mulliken charges with hydrogens summed into heavy atoms:
               1
     1  C    0.808597
     2  C   -0.486022
     3  C   -0.527533
     4  C    0.300631
     6  C   -0.133822
     7  C    0.265281
     9  C   -0.198425
    11  O    0.243920
    12  O   -0.272628
 Electronic spatial extent (au):  <R**2>=           1158.2350
 Charge=             -0.0000 electrons
 Dipole moment (field-independent basis, Debye):
    X=             -1.0237    Y=             -1.3288    Z=             -1.9114  Tot=              2.5431
 Quadrupole moment (field-independent basis, Debye-Ang):
   XX=            -43.1000   YY=            -47.5608   ZZ=            -56.7813
   XY=             -4.5170   XZ=             -6.3901   YZ=             -3.9889
 Traceless Quadrupole moment (field-independent basis, Debye-Ang):
   XX=              6.0474   YY=              1.5865   ZZ=             -7.6339
   XY=             -4.5170   XZ=             -6.3901   YZ=             -3.9889
 Octapole moment (field-independent basis, Debye-Ang**2):
  XXX=             23.3333  YYY=             -1.1491  ZZZ=             -2.8515  XYY=             -1.7311
  XXY=            -15.1650  XXZ=            -21.6711  XZZ=              6.3641  YZZ=             -1.6071
  YYZ=             -1.2994  XYZ=             -1.9946
 Hexadecapole moment (field-independent basis, Debye-Ang**3):
 XXXX=           -873.4355 YYYY=           -291.5837 ZZZZ=           -130.1058 XXXY=            -50.9971
 XXXZ=            -73.9084 YYYX=             -5.1358 YYYZ=             -8.1574 ZZZX=            -10.2212
 ZZZY=              2.1683 XXYY=           -217.1219 XXZZ=           -209.7498 YYZZ=            -78.1736
 XXYZ=             -9.7718 YYXZ=             -3.7881 ZZXY=             -4.9994
 N-N= 4.083492649836D+02 E-N=-1.800108217258D+03  KE= 4.201120633665D+02
 No NMR shielding tensors so no spin-rotation constants.
 Leave Link  601 at Sun Nov  6 23:02:02 2022, MaxMem= 16106127360 cpu:               3.3 elap:               0.1
 (Enter /opt/ap/G16/B01/g16/l9999.exe)
 1\1\GINC-N07\SP\RwB97XD\6-311++G(d,p)\C7H6O2\ROOT\06-Nov-2022\0\\#P wB
 97XD/6-311++G(d,p) scf=maxcycle=512\\_conf031.gjf nmol_natom 1_15\\0,1
 \C\C,1,1.39016191\C,1,1.39194539,2,119.895942\C,2,1.38669027,1,119.880
 75721,3,0.70825972,0\H,2,0.98744251,1,119.71654057,3,-179.90726164,0\C
 ,1,1.48428757,2,119.93615286,4,-179.87772406,0\C,3,1.40101108,1,119.72
 36454,2,-0.26266839,0\H,3,0.9902154,1,119.1886159,2,178.85397616,0\C,4
 ,1.37899003,2,120.45785903,1,-0.48041454,0\H,4,0.9834739,2,120.3044270
 6,1,179.36166981,0\O,6,1.27459751,1,118.00615353,2,65.,0\O,6,1.2636257
 2,1,118.77715367,2,-115.,0\H,7,0.98977053,3,119.37861578,1,-178.935457
 41,0\H,9,0.99498061,4,119.46722635,2,-178.58826714,0\H,11,0.89680392,6
 ,118.15823763,1,176.92714093,0\\Version=ES64L-G16RevB.01\State=1-A\HF=
 -420.7386364\RMSD=8.145e-09\Dipole=0.1820416,0.8380642,0.5153241\Quadr
 upole=5.8257867,-6.455832,0.6300453,-4.0915727,-0.2229484,-3.8412224\P
 G=C01 [X(C7H6O2)]\\@


 IT IS A PROFOUNDLY ERRONEOUS TRUISM ... THAT WE SHOULD CULTIVATE
 THE HABIT OF THINKING OF WHAT WE ARE DOING.
 THE PRECISE OPPOSITE IS THE CASE.
 CIVILIZATION ADVANCES BY EXTENDING THE NUMBER OF IMPORTANT OPERATIONS
 WHICH WE CAN PERFORM WITHOUT THINKING ABOUT THEM.

                                    -- ALFRED NORTH WHITEHEAD
 Job cpu time:       0 days  0 hours  7 minutes 18.5 seconds.
 Elapsed time:       0 days  0 hours  0 minutes 13.8 seconds.
 File lengths (MBytes):  RWF=     35 Int=      0 D2E=      0 Chk=      4 Scr=      1
 Normal termination of Gaussian 16 at Sun Nov  6 23:02:02 2022.
