 Entering Gaussian System, Link 0=g16
 Input=_conf024.gjf
 Output=_conf024.log
 Initial command:
 /opt/ap/G16/B01/g16/l1.exe "/tmp2/scr/Gau-18402.inp" -scrdir="/tmp2/scr/"
 Entering Link 1 = /opt/ap/G16/B01/g16/l1.exe PID=     18403.
  
 Copyright (c) 1988-2017, Gaussian, Inc.  All Rights Reserved.
  
 This is part of the Gaussian(R) 16 program.  It is based on
 the Gaussian(R) 09 system (copyright 2009, Gaussian, Inc.),
 the Gaussian(R) 03 system (copyright 2003, Gaussian, Inc.),
 the Gaussian(R) 98 system (copyright 1998, Gaussian, Inc.),
 the Gaussian(R) 94 system (copyright 1995, Gaussian, Inc.),
 the Gaussian 92(TM) system (copyright 1992, Gaussian, Inc.),
 the Gaussian 90(TM) system (copyright 1990, Gaussian, Inc.),
 the Gaussian 88(TM) system (copyright 1988, Gaussian, Inc.),
 the Gaussian 86(TM) system (copyright 1986, Carnegie Mellon
 University), and the Gaussian 82(TM) system (copyright 1983,
 Carnegie Mellon University). Gaussian is a federally registered
 trademark of Gaussian, Inc.
  
 This software contains proprietary and confidential information,
 including trade secrets, belonging to Gaussian, Inc.
  
 This software is provided under written license and may be
 used, copied, transmitted, or stored only in accord with that
 written license.
  
 The following legend is applicable only to US Government
 contracts under FAR:
  
                    RESTRICTED RIGHTS LEGEND
  
 Use, reproduction and disclosure by the US Government is
 subject to restrictions as set forth in subparagraphs (a)
 and (c) of the Commercial Computer Software - Restricted
 Rights clause in FAR 52.227-19.
  
 Gaussian, Inc.
 340 Quinnipiac St., Bldg. 40, Wallingford CT 06492
  
  
 ---------------------------------------------------------------
 Warning -- This program may not be used in any manner that
 competes with the business of Gaussian, Inc. or will provide
 assistance to any competitor of Gaussian, Inc.  The licensee
 of this program is prohibited from giving any competitor of
 Gaussian, Inc. access to this program.  By using this program,
 the user acknowledges that Gaussian, Inc. is engaged in the
 business of creating and licensing software in the field of
 computational chemistry and represents and warrants to the
 licensee that it is not a competitor of Gaussian, Inc. and that
 it will not use this program in any manner prohibited above.
 ---------------------------------------------------------------
  

 Cite this work as:
 Gaussian 16, Revision B.01,
 M. J. Frisch, G. W. Trucks, H. B. Schlegel, G. E. Scuseria, 
 M. A. Robb, J. R. Cheeseman, G. Scalmani, V. Barone, 
 G. A. Petersson, H. Nakatsuji, X. Li, M. Caricato, A. V. Marenich, 
 J. Bloino, B. G. Janesko, R. Gomperts, B. Mennucci, H. P. Hratchian, 
 J. V. Ortiz, A. F. Izmaylov, J. L. Sonnenberg, D. Williams-Young, 
 F. Ding, F. Lipparini, F. Egidi, J. Goings, B. Peng, A. Petrone, 
 T. Henderson, D. Ranasinghe, V. G. Zakrzewski, J. Gao, N. Rega, 
 G. Zheng, W. Liang, M. Hada, M. Ehara, K. Toyota, R. Fukuda, 
 J. Hasegawa, M. Ishida, T. Nakajima, Y. Honda, O. Kitao, H. Nakai, 
 T. Vreven, K. Throssell, J. A. Montgomery, Jr., J. E. Peralta, 
 F. Ogliaro, M. J. Bearpark, J. J. Heyd, E. N. Brothers, K. N. Kudin, 
 V. N. Staroverov, T. A. Keith, R. Kobayashi, J. Normand, 
 K. Raghavachari, A. P. Rendell, J. C. Burant, S. S. Iyengar, 
 J. Tomasi, M. Cossi, J. M. Millam, M. Klene, C. Adamo, R. Cammi, 
 J. W. Ochterski, R. L. Martin, K. Morokuma, O. Farkas, 
 J. B. Foresman, and D. J. Fox, Gaussian, Inc., Wallingford CT, 2016.
 
 ******************************************
 Gaussian 16:  ES64L-G16RevB.01 20-Dec-2017
                 6-Nov-2022 
 ******************************************
 %nprocshared=32
 Will use up to   32 processors via shared memory.
 %mem=120GB
 %chk=_conf024.chk
 ----------------------------------------
 #P wB97XD/6-311++G(d,p) scf=maxcycle=512
 ----------------------------------------
 1/38=1,172=1/1;
 2/12=2,17=6,18=5,40=1/2;
 3/5=4,6=6,7=1111,11=2,25=1,30=1,74=-58/1,2,3;
 4//1;
 5/5=2,7=512,38=5/2;
 6/7=2,8=2,9=2,10=2,28=1/1;
 99/5=1,9=1/99;
 Leave Link    1 at Sun Nov  6 23:01:34 2022, MaxMem= 16106127360 cpu:               1.4 elap:               0.1
 (Enter /opt/ap/G16/B01/g16/l101.exe)
 ----------------------------
 _conf024.gjf nmol_natom 1_15
 ----------------------------
 Symbolic Z-matrix:
 Charge =  0 Multiplicity = 1
 C
 C                    1     1.39016 
 C                    1     1.39195  2     119.89594 
 C                    2     1.38669  1     119.88076  3     0.70826  0
 H                    2     0.98744  1     119.71654  3    -179.90726  0
 C                    1     1.48429  2     119.93615  4    -179.87772  0
 C                    3     1.40101  1     119.72365  2    -0.26267  0
 H                    3     0.99022  1     119.18862  2     178.85398  0
 C                    4     1.37899  2     120.45786  1    -0.48041  0
 H                    4     0.98347  2     120.30443  1     179.36167  0
 O                    6     1.2746   1     118.00615  2     30.      0
 O                    6     1.26363  1     118.77715  2    -150.     0
 H                    7     0.98977  3     119.37862  1    -178.93546  0
 H                    9     0.99498  4     119.46723  2    -178.58827  0
 H                    11    0.8968   6     118.15824  1     176.92714  0
 
 ITRead=  0  0  0  0  0  0  0  0  0  0  0  0  0  0  0
 MicOpt= -1 -1 -1 -1 -1 -1 -1 -1 -1 -1 -1 -1 -1 -1 -1
 NAtoms=     15 NQM=       15 NQMF=       0 NMMI=      0 NMMIF=      0
                NMic=       0 NMicF=      0.
                    Isotopes and Nuclear Properties:
 (Nuclear quadrupole moments (NQMom) in fm**2, nuclear magnetic moments (NMagM)
  in nuclear magnetons)

  Atom         1           2           3           4           5           6           7           8           9          10
 IAtWgt=          12          12          12          12           1          12          12           1          12           1
 AtmWgt=  12.0000000  12.0000000  12.0000000  12.0000000   1.0078250  12.0000000  12.0000000   1.0078250  12.0000000   1.0078250
 NucSpn=           0           0           0           0           1           0           0           1           0           1
 AtZEff=  -0.0000000  -0.0000000  -0.0000000  -0.0000000  -0.0000000  -0.0000000  -0.0000000  -0.0000000  -0.0000000  -0.0000000
 NQMom=    0.0000000   0.0000000   0.0000000   0.0000000   0.0000000   0.0000000   0.0000000   0.0000000   0.0000000   0.0000000
 NMagM=    0.0000000   0.0000000   0.0000000   0.0000000   2.7928460   0.0000000   0.0000000   2.7928460   0.0000000   2.7928460
 AtZNuc=   6.0000000   6.0000000   6.0000000   6.0000000   1.0000000   6.0000000   6.0000000   1.0000000   6.0000000   1.0000000

  Atom        11          12          13          14          15
 IAtWgt=          16          16           1           1           1
 AtmWgt=  15.9949146  15.9949146   1.0078250   1.0078250   1.0078250
 NucSpn=           0           0           1           1           1
 AtZEff=  -0.0000000  -0.0000000  -0.0000000  -0.0000000  -0.0000000
 NQMom=    0.0000000   0.0000000   0.0000000   0.0000000   0.0000000
 NMagM=    0.0000000   0.0000000   2.7928460   2.7928460   2.7928460
 AtZNuc=   8.0000000   8.0000000   1.0000000   1.0000000   1.0000000
 Leave Link  101 at Sun Nov  6 23:01:34 2022, MaxMem= 16106127360 cpu:               5.1 elap:               0.2
 (Enter /opt/ap/G16/B01/g16/l202.exe)
                          Input orientation:                          
 ---------------------------------------------------------------------
 Center     Atomic      Atomic             Coordinates (Angstroms)
 Number     Number       Type             X           Y           Z
 ---------------------------------------------------------------------
      1          6           0        0.000000    0.000000    0.000000
      2          6           0        0.000000    0.000000    1.390162
      3          6           0        1.206722    0.000000   -0.693782
      4          6           0        1.202258    0.014862    2.081006
      5          1           0       -0.857581   -0.001388    1.879646
      6          6           0       -1.286190   -0.013155   -0.740711
      7          6           0        2.415349    0.005578    0.014752
      8          1           0        1.194584   -0.017290   -1.683772
      9          6           0        2.400563    0.019708    1.398617
     10          1           0        1.209438    0.024411    3.064408
     11          8           0       -2.296893    0.539207   -0.194841
     12          8           0       -1.329014   -0.567405   -1.875490
     13          1           0        3.270315    0.021574   -0.483669
     14          1           0        3.254554    0.009066    1.909081
     15          1           0       -3.064209    0.569524   -0.658052
 ---------------------------------------------------------------------
                    Distance matrix (angstroms):
                    1          2          3          4          5
     1  C    0.000000
     2  C    1.390162   0.000000
     3  C    1.391945   2.408112   0.000000
     4  C    2.403379   1.386690   2.774832   0.000000
     5  H    2.066039   0.987443   3.299073   2.069721   0.000000
     6  C    1.484288   2.488991   2.493388   3.762345   2.655206
     7  C    2.415401   2.779513   1.401011   2.396056   3.766955
     8  H    2.064563   3.297939   0.990215   3.764924   4.112127
     9  C    2.778349   2.400659   2.409104   1.378990   3.293530
    10  H    3.294530   2.065535   3.758270   0.983474   2.382624
    11  O    2.367367   2.842305   3.579805   4.206955   2.582123
    12  O    2.367633   3.571093   2.854529   4.732888   3.826705
    13  H    3.305958   3.769173   2.074374   3.294611   4.756607
    14  H    3.773167   3.295676   3.311886   2.059493   4.112253
    15  H    3.185399   3.729466   4.308884   5.100277   3.411020
                    6          7          8          9         10
     6  C    0.000000
     7  C    3.777892   0.000000
     8  H    2.653982   2.091836   0.000000
     9  C    4.262622   1.384016   3.310118   0.000000
    10  H    4.550659   3.279477   4.748386   2.047842   0.000000
    11  O    1.274598   4.746990   3.836277   4.987492   4.814777
    12  O    1.263626   4.233389   2.589967   4.997421   5.585389
    13  H    4.563881   0.989771   2.398003   2.073517   4.103177
    14  H    5.257398   2.071897   4.141589   0.994981   2.348938
    15  H    1.872885   5.549438   4.419702   5.864803   5.693673
                   11         12         13         14         15
    11  O    0.000000
    12  O    2.232926   0.000000
    13  H    5.598676   4.841269   0.000000
    14  H    5.960377   5.971966   2.392834   0.000000
    15  H    0.896804   2.405340   6.360570   6.843321   0.000000
 Stoichiometry    C7H6O2
 Framework group  C1[X(C7H6O2)]
 Deg. of freedom    39
 Full point group                 C1      NOp   1
 Largest Abelian subgroup         C1      NOp   1
 Largest concise Abelian subgroup C1      NOp   1
                         Standard orientation:                         
 ---------------------------------------------------------------------
 Center     Atomic      Atomic             Coordinates (Angstroms)
 Number     Number       Type             X           Y           Z
 ---------------------------------------------------------------------
      1          6           0        0.220688    0.025461    0.005576
      2          6           0       -0.448174   -1.180883    0.178518
      3          6           0       -0.503365    1.201606   -0.167463
      4          6           0       -1.834464   -1.210537    0.163345
      5          1           0        0.068100   -2.013440    0.302422
      6          6           0        1.704554    0.058212    0.018888
      7          6           0       -1.903780    1.160965   -0.171704
      8          1           0       -0.016456    2.057401   -0.272639
      9          6           0       -2.556605   -0.048979   -0.012467
     10          1           0       -2.313882   -2.061860    0.275719
     11          8           0        2.329694   -0.975663   -0.387194
     12          8           0        2.286318    1.102179    0.429294
     13          1           0       -2.413415    1.997935   -0.310988
     14          1           0       -3.550884   -0.084128    0.000191
     15          1           0        3.225318   -0.943108   -0.419673
 ---------------------------------------------------------------------
 Rotational constants (GHZ):           3.9688604           1.2173277           0.9570866
 Leave Link  202 at Sun Nov  6 23:01:34 2022, MaxMem= 16106127360 cpu:               0.4 elap:               0.0
 (Enter /opt/ap/G16/B01/g16/l301.exe)
 Standard basis: 6-311++G(d,p) (5D, 7F)
 Ernie: Thresh=  0.10000D-02 Tol=  0.10000D-05 Strict=F.
 There are   249 symmetry adapted cartesian basis functions of A   symmetry.
 There are   240 symmetry adapted basis functions of A   symmetry.
   240 basis functions,   378 primitive gaussians,   249 cartesian basis functions
    32 alpha electrons       32 beta electrons
       nuclear repulsion energy       409.1841343611 Hartrees.
 IExCor= 4639 DFT=T Ex+Corr=wB97XD ExCW=0 ScaHFX=  1.000000
 ScaDFX=  1.000000  1.000000  1.000000  1.000000 ScalE2=  1.000000  1.000000
 IRadAn=      5 IRanWt=     -1 IRanGd=            0 ICorTp=0 IEmpDi=121
 HFx  wShort=  0.000000 wLong=  0.200000 cFull=  0.222036 cShort=  0.000000 cLong=  0.777964
 DFx  wShort=  0.000000 wLong=  0.200000 cFull=  0.000000 cShort=  0.000000 cLong=  1.000000
 NAtoms=   15 NActive=   15 NUniq=   15 SFac= 1.00D+00 NAtFMM=   60 NAOKFM=F Big=F
 Integral buffers will be    131072 words long.
 Raffenetti 2 integral format.
 Two-electron integral symmetry is turned on.
 R6Disp:  Grimme-D2 Dispersion energy=       -0.0063860608 Hartrees.
 Nuclear repulsion after empirical dispersion term =      409.1777483003 Hartrees.
 Leave Link  301 at Sun Nov  6 23:01:34 2022, MaxMem= 16106127360 cpu:               1.2 elap:               0.0
 (Enter /opt/ap/G16/B01/g16/l302.exe)
 NPDir=0 NMtPBC=     1 NCelOv=     1 NCel=       1 NClECP=     1 NCelD=      1
         NCelK=      1 NCelE2=     1 NClLst=     1 CellRange=     0.0.
 One-electron integrals computed using PRISM.
 One-electron integral symmetry used in STVInt
 NBasis=   240 RedAO= T EigKep=  1.24D-06  NBF=   240
 NBsUse=   240 1.00D-06 EigRej= -1.00D+00 NBFU=   240
 Precomputing XC quadrature grid using
 IXCGrd= 4 IRadAn=           5 IRanWt=          -1 IRanGd=           0 AccXCQ= 0.00D+00.
 Generated NRdTot=       0 NPtTot=           0 NUsed=           0 NTot=          32
 NSgBfM=   249   249   249   249   249 MxSgAt=    15 MxSgA2=    15.
 Leave Link  302 at Sun Nov  6 23:01:35 2022, MaxMem= 16106127360 cpu:               5.9 elap:               0.2
 (Enter /opt/ap/G16/B01/g16/l303.exe)
 DipDrv:  MaxL=1.
 Leave Link  303 at Sun Nov  6 23:01:35 2022, MaxMem= 16106127360 cpu:               1.3 elap:               0.0
 (Enter /opt/ap/G16/B01/g16/l401.exe)
 ExpMin= 3.60D-02 ExpMax= 8.59D+03 ExpMxC= 1.30D+03 IAcc=3 IRadAn=         5 AccDes= 0.00D+00
 Harris functional with IExCor= 4639 and IRadAn=       5 diagonalized for initial guess.
 HarFok:  IExCor= 4639 AccDes= 0.00D+00 IRadAn=         5 IDoV= 1 UseB2=F ITyADJ=14
 ICtDFT=  3500011 ScaDFX=  1.000000  1.000000  1.000000  1.000000
 FoFCou: FMM=F IPFlag=           0 FMFlag=      100000 FMFlg1=           0
         NFxFlg=           0 DoJE=T BraDBF=F KetDBF=T FulRan=T
         wScrn=  0.000000 ICntrl=       500 IOpCl=  0 I1Cent=   200000004 NGrid=           0
         NMat0=    1 NMatS0=      1 NMatT0=    0 NMatD0=    1 NMtDS0=    0 NMtDT0=    0
 Petite list used in FoFCou.
 Harris En= -403.253487105837    
 JPrj=0 DoOrth=F DoCkMO=F.
 Leave Link  401 at Sun Nov  6 23:01:35 2022, MaxMem= 16106127360 cpu:              11.8 elap:               0.4
 (Enter /opt/ap/G16/B01/g16/l502.exe)
 Integral symmetry usage will be decided dynamically.
 Closed shell SCF:
 Using DIIS extrapolation, IDIIS=  1040.
 NGot= 16106127360 LenX= 16105992971 LenY= 16105930529
 Requested convergence on RMS density matrix=1.00D-08 within 512 cycles.
 Requested convergence on MAX density matrix=1.00D-06.
 Requested convergence on             energy=1.00D-06.
 No special actions if energy rises.
 Fock matrices will be formed incrementally for  20 cycles.

 Cycle   1  Pass 1  IDiag  1:
 FoFJK:  IHMeth= 1 ICntrl=       0 DoSepK=T KAlg= 0 I1Cent=           0 FoldK=F
 IRaf=         1 NMat=       1 IRICut=       1 DoRegI=T DoRafI=F ISym2E= 0 IDoP0=0 IntGTp=1.
 FoFCou: FMM=F IPFlag=           0 FMFlag=      100000 FMFlg1=           0
         NFxFlg=           0 DoJE=T BraDBF=F KetDBF=F FulRan=T
         wScrn=  0.000000 ICntrl=       500 IOpCl=  0 I1Cent=           0 NGrid=           0
         NMat0=    1 NMatS0=      1 NMatT0=    0 NMatD0=    1 NMtDS0=    0 NMtDT0=    0
 Symmetry not used in FoFCou.
 E= -420.630235890120    
 DIIS: error= 7.86D-02 at cycle   1 NSaved=   1.
 NSaved= 1 IEnMin= 1 EnMin= -420.630235890120     IErMin= 1 ErrMin= 7.86D-02
 ErrMax= 7.86D-02  0.00D+00 EMaxC= 1.00D-01 BMatC= 8.61D-01 BMatP= 8.61D-01
 IDIUse=3 WtCom= 2.14D-01 WtEn= 7.86D-01
 Coeff-Com:  0.100D+01
 Coeff-En:   0.100D+01
 Coeff:      0.100D+01
 Gap=     0.427 Goal=   None    Shift=    0.000
 GapD=    0.427 DampG=2.000 DampE=0.500 DampFc=1.0000 IDamp=-1.
 RMSDP=2.55D-02 MaxDP=1.28D+00              OVMax= 9.99D-02

 Cycle   2  Pass 1  IDiag  1:
 RMSU=  1.45D-02    CP:  6.80D-01
 E= -420.701262023809     Delta-E=       -0.071026133689 Rises=F Damp=F
 DIIS: error= 1.21D-02 at cycle   2 NSaved=   2.
 NSaved= 2 IEnMin= 2 EnMin= -420.701262023809     IErMin= 2 ErrMin= 1.21D-02
 ErrMax= 1.21D-02  0.00D+00 EMaxC= 1.00D-01 BMatC= 5.71D-02 BMatP= 8.61D-01
 IDIUse=3 WtCom= 8.79D-01 WtEn= 1.21D-01
 Coeff-Com:  0.135D+00 0.865D+00
 Coeff-En:   0.974D-01 0.903D+00
 Coeff:      0.131D+00 0.869D+00
 Gap=     0.434 Goal=   None    Shift=    0.000
 RMSDP=8.15D-03 MaxDP=4.05D-01 DE=-7.10D-02 OVMax= 8.55D-02

 Cycle   3  Pass 1  IDiag  1:
 RMSU=  6.06D-03    CP:  6.28D-01  7.08D-01
 E= -420.717322803031     Delta-E=       -0.016060779222 Rises=F Damp=F
 DIIS: error= 1.05D-02 at cycle   3 NSaved=   3.
 NSaved= 3 IEnMin= 3 EnMin= -420.717322803031     IErMin= 3 ErrMin= 1.05D-02
 ErrMax= 1.05D-02  0.00D+00 EMaxC= 1.00D-01 BMatC= 3.60D-02 BMatP= 5.71D-02
 IDIUse=3 WtCom= 8.95D-01 WtEn= 1.05D-01
 Coeff-Com:  0.280D-01 0.448D+00 0.524D+00
 Coeff-En:   0.000D+00 0.385D+00 0.615D+00
 Coeff:      0.250D-01 0.441D+00 0.534D+00
 Gap=     0.356 Goal=   None    Shift=    0.000
 RMSDP=3.78D-03 MaxDP=1.36D-01 DE=-1.61D-02 OVMax= 5.36D-02

 Cycle   4  Pass 1  IDiag  1:
 RMSU=  2.42D-03    CP:  6.22D-01  8.70D-01  7.25D-01
 E= -420.743550261667     Delta-E=       -0.026227458636 Rises=F Damp=F
 DIIS: error= 2.46D-03 at cycle   4 NSaved=   4.
 NSaved= 4 IEnMin= 4 EnMin= -420.743550261667     IErMin= 4 ErrMin= 2.46D-03
 ErrMax= 2.46D-03  0.00D+00 EMaxC= 1.00D-01 BMatC= 1.94D-03 BMatP= 3.60D-02
 IDIUse=3 WtCom= 9.75D-01 WtEn= 2.46D-02
 Coeff-Com:  0.105D-01 0.221D+00 0.301D+00 0.467D+00
 Coeff-En:   0.000D+00 0.000D+00 0.000D+00 0.100D+01
 Coeff:      0.102D-01 0.216D+00 0.294D+00 0.480D+00
 Gap=     0.356 Goal=   None    Shift=    0.000
 RMSDP=8.32D-04 MaxDP=5.05D-02 DE=-2.62D-02 OVMax= 1.24D-02

 Cycle   5  Pass 1  IDiag  1:
 RMSU=  6.91D-04    CP:  6.18D-01  8.58D-01  7.45D-01  8.66D-01
 E= -420.744867194865     Delta-E=       -0.001316933198 Rises=F Damp=F
 DIIS: error= 4.34D-04 at cycle   5 NSaved=   5.
 NSaved= 5 IEnMin= 5 EnMin= -420.744867194865     IErMin= 5 ErrMin= 4.34D-04
 ErrMax= 4.34D-04  0.00D+00 EMaxC= 1.00D-01 BMatC= 4.84D-05 BMatP= 1.94D-03
 IDIUse=3 WtCom= 9.96D-01 WtEn= 4.34D-03
 Coeff-Com:  0.369D-03 0.162D-01 0.308D-01 0.148D+00 0.805D+00
 Coeff-En:   0.000D+00 0.000D+00 0.000D+00 0.000D+00 0.100D+01
 Coeff:      0.367D-03 0.162D-01 0.306D-01 0.147D+00 0.805D+00
 Gap=     0.352 Goal=   None    Shift=    0.000
 RMSDP=2.88D-04 MaxDP=1.45D-02 DE=-1.32D-03 OVMax= 2.54D-03

 Cycle   6  Pass 1  IDiag  1:
 RMSU=  1.62D-04    CP:  6.17D-01  8.63D-01  7.71D-01  9.27D-01  1.09D+00
 E= -420.744905348772     Delta-E=       -0.000038153907 Rises=F Damp=F
 DIIS: error= 2.07D-04 at cycle   6 NSaved=   6.
 NSaved= 6 IEnMin= 6 EnMin= -420.744905348772     IErMin= 6 ErrMin= 2.07D-04
 ErrMax= 2.07D-04  0.00D+00 EMaxC= 1.00D-01 BMatC= 7.24D-06 BMatP= 4.84D-05
 IDIUse=3 WtCom= 9.98D-01 WtEn= 2.07D-03
 Coeff-Com: -0.958D-03-0.164D-01-0.178D-01 0.114D-01 0.347D+00 0.677D+00
 Coeff-En:   0.000D+00 0.000D+00 0.000D+00 0.000D+00 0.000D+00 0.100D+01
 Coeff:     -0.956D-03-0.164D-01-0.177D-01 0.113D-01 0.346D+00 0.678D+00
 Gap=     0.353 Goal=   None    Shift=    0.000
 RMSDP=1.33D-04 MaxDP=1.25D-02 DE=-3.82D-05 OVMax= 8.48D-04

 Cycle   7  Pass 1  IDiag  1:
 RMSU=  4.22D-05    CP:  6.16D-01  8.62D-01  7.79D-01  9.51D-01  1.17D+00
                    CP:  1.10D+00
 E= -420.744912579731     Delta-E=       -0.000007230960 Rises=F Damp=F
 DIIS: error= 6.51D-05 at cycle   7 NSaved=   7.
 NSaved= 7 IEnMin= 7 EnMin= -420.744912579731     IErMin= 7 ErrMin= 6.51D-05
 ErrMax= 6.51D-05  0.00D+00 EMaxC= 1.00D-01 BMatC= 3.18D-07 BMatP= 7.24D-06
 IDIUse=1 WtCom= 1.00D+00 WtEn= 0.00D+00
 Coeff-Com: -0.232D-03-0.540D-02-0.665D-02-0.138D-01-0.329D-02 0.132D+00
 Coeff-Com:  0.898D+00
 Coeff:     -0.232D-03-0.540D-02-0.665D-02-0.138D-01-0.329D-02 0.132D+00
 Coeff:      0.898D+00
 Gap=     0.353 Goal=   None    Shift=    0.000
 RMSDP=4.87D-05 MaxDP=3.27D-03 DE=-7.23D-06 OVMax= 3.71D-04

 Cycle   8  Pass 1  IDiag  1:
 RMSU=  1.25D-05    CP:  6.16D-01  8.62D-01  7.82D-01  9.60D-01  1.22D+00
                    CP:  1.16D+00  1.12D+00
 E= -420.744913206656     Delta-E=       -0.000000626924 Rises=F Damp=F
 DIIS: error= 1.41D-05 at cycle   8 NSaved=   8.
 NSaved= 8 IEnMin= 8 EnMin= -420.744913206656     IErMin= 8 ErrMin= 1.41D-05
 ErrMax= 1.41D-05  0.00D+00 EMaxC= 1.00D-01 BMatC= 4.44D-08 BMatP= 3.18D-07
 IDIUse=1 WtCom= 1.00D+00 WtEn= 0.00D+00
 Coeff-Com:  0.355D-04 0.349D-03 0.303D-03-0.556D-02-0.399D-01-0.415D-01
 Coeff-Com:  0.242D+00 0.844D+00
 Coeff:      0.355D-04 0.349D-03 0.303D-03-0.556D-02-0.399D-01-0.415D-01
 Coeff:      0.242D+00 0.844D+00
 Gap=     0.353 Goal=   None    Shift=    0.000
 RMSDP=1.27D-05 MaxDP=9.11D-04 DE=-6.27D-07 OVMax= 1.48D-04

 Cycle   9  Pass 1  IDiag  1:
 RMSU=  4.42D-06    CP:  6.16D-01  8.62D-01  7.83D-01  9.61D-01  1.23D+00
                    CP:  1.18D+00  1.23D+00  1.12D+00
 E= -420.744913291219     Delta-E=       -0.000000084563 Rises=F Damp=F
 DIIS: error= 1.08D-05 at cycle   9 NSaved=   9.
 NSaved= 9 IEnMin= 9 EnMin= -420.744913291219     IErMin= 9 ErrMin= 1.08D-05
 ErrMax= 1.08D-05  0.00D+00 EMaxC= 1.00D-01 BMatC= 5.58D-09 BMatP= 4.44D-08
 IDIUse=1 WtCom= 1.00D+00 WtEn= 0.00D+00
 Coeff-Com:  0.404D-04 0.778D-03 0.958D-03-0.128D-03-0.109D-01-0.290D-01
 Coeff-Com: -0.324D-01 0.258D+00 0.813D+00
 Coeff:      0.404D-04 0.778D-03 0.958D-03-0.128D-03-0.109D-01-0.290D-01
 Coeff:     -0.324D-01 0.258D+00 0.813D+00
 Gap=     0.353 Goal=   None    Shift=    0.000
 RMSDP=4.44D-06 MaxDP=3.54D-04 DE=-8.46D-08 OVMax= 5.35D-05

 Cycle  10  Pass 1  IDiag  1:
 RMSU=  2.00D-06    CP:  6.16D-01  8.61D-01  7.83D-01  9.60D-01  1.23D+00
                    CP:  1.18D+00  1.26D+00  1.18D+00  1.43D+00
 E= -420.744913301887     Delta-E=       -0.000000010668 Rises=F Damp=F
 DIIS: error= 1.28D-06 at cycle  10 NSaved=  10.
 NSaved=10 IEnMin=10 EnMin= -420.744913301887     IErMin=10 ErrMin= 1.28D-06
 ErrMax= 1.28D-06  0.00D+00 EMaxC= 1.00D-01 BMatC= 7.28D-10 BMatP= 5.58D-09
 IDIUse=1 WtCom= 1.00D+00 WtEn= 0.00D+00
 Coeff-Com:  0.728D-05 0.161D-03 0.223D-03 0.482D-03 0.143D-02-0.413D-02
 Coeff-Com: -0.338D-01-0.255D-01 0.238D+00 0.824D+00
 Coeff:      0.728D-05 0.161D-03 0.223D-03 0.482D-03 0.143D-02-0.413D-02
 Coeff:     -0.338D-01-0.255D-01 0.238D+00 0.824D+00
 Gap=     0.353 Goal=   None    Shift=    0.000
 RMSDP=1.51D-06 MaxDP=8.46D-05 DE=-1.07D-08 OVMax= 1.84D-05

 Cycle  11  Pass 1  IDiag  1:
 RMSU=  4.98D-07    CP:  6.16D-01  8.61D-01  7.82D-01  9.60D-01  1.23D+00
                    CP:  1.18D+00  1.27D+00  1.23D+00  1.56D+00  1.03D+00
 E= -420.744913303234     Delta-E=       -0.000000001348 Rises=F Damp=F
 DIIS: error= 1.02D-06 at cycle  11 NSaved=  11.
 NSaved=11 IEnMin=11 EnMin= -420.744913303234     IErMin=11 ErrMin= 1.02D-06
 ErrMax= 1.02D-06  0.00D+00 EMaxC= 1.00D-01 BMatC= 1.39D-10 BMatP= 7.28D-10
 IDIUse=1 WtCom= 1.00D+00 WtEn= 0.00D+00
 Coeff-Com: -0.209D-05-0.219D-04-0.121D-04 0.254D-03 0.218D-02 0.193D-02
 Coeff-Com: -0.869D-02-0.511D-01-0.228D-01 0.329D+00 0.749D+00
 Coeff:     -0.209D-05-0.219D-04-0.121D-04 0.254D-03 0.218D-02 0.193D-02
 Coeff:     -0.869D-02-0.511D-01-0.228D-01 0.329D+00 0.749D+00
 Gap=     0.353 Goal=   None    Shift=    0.000
 RMSDP=6.64D-07 MaxDP=3.60D-05 DE=-1.35D-09 OVMax= 8.86D-06

 Cycle  12  Pass 1  IDiag  1:
 RMSU=  2.31D-07    CP:  6.16D-01  8.61D-01  7.82D-01  9.60D-01  1.23D+00
                    CP:  1.18D+00  1.27D+00  1.23D+00  1.62D+00  1.10D+00
                    CP:  1.17D+00
 E= -420.744913303471     Delta-E=       -0.000000000237 Rises=F Damp=F
 DIIS: error= 2.12D-07 at cycle  12 NSaved=  12.
 NSaved=12 IEnMin=12 EnMin= -420.744913303471     IErMin=12 ErrMin= 2.12D-07
 ErrMax= 2.12D-07  0.00D+00 EMaxC= 1.00D-01 BMatC= 1.15D-11 BMatP= 1.39D-10
 IDIUse=1 WtCom= 1.00D+00 WtEn= 0.00D+00
 Coeff-Com: -0.121D-05-0.210D-04-0.239D-04 0.183D-04 0.380D-03 0.752D-03
 Coeff-Com:  0.192D-02-0.998D-02-0.283D-01-0.245D-02 0.169D+00 0.869D+00
 Coeff:     -0.121D-05-0.210D-04-0.239D-04 0.183D-04 0.380D-03 0.752D-03
 Coeff:      0.192D-02-0.998D-02-0.283D-01-0.245D-02 0.169D+00 0.869D+00
 Gap=     0.353 Goal=   None    Shift=    0.000
 RMSDP=2.02D-07 MaxDP=1.21D-05 DE=-2.37D-10 OVMax= 3.44D-06

 Cycle  13  Pass 1  IDiag  1:
 RMSU=  8.47D-08    CP:  6.16D-01  8.61D-01  7.82D-01  9.60D-01  1.23D+00
                    CP:  1.18D+00  1.27D+00  1.23D+00  1.63D+00  1.08D+00
                    CP:  1.31D+00  1.17D+00
 E= -420.744913303502     Delta-E=       -0.000000000031 Rises=F Damp=F
 DIIS: error= 1.29D-07 at cycle  13 NSaved=  13.
 NSaved=13 IEnMin=13 EnMin= -420.744913303502     IErMin=13 ErrMin= 1.29D-07
 ErrMax= 1.29D-07  0.00D+00 EMaxC= 1.00D-01 BMatC= 2.61D-12 BMatP= 1.15D-11
 IDIUse=1 WtCom= 1.00D+00 WtEn= 0.00D+00
 Coeff-Com:  0.895D-07-0.383D-05-0.773D-05-0.501D-04-0.361D-03-0.187D-03
 Coeff-Com:  0.255D-02 0.752D-02-0.320D-02-0.708D-01-0.126D+00 0.253D+00
 Coeff-Com:  0.937D+00
 Coeff:      0.895D-07-0.383D-05-0.773D-05-0.501D-04-0.361D-03-0.187D-03
 Coeff:      0.255D-02 0.752D-02-0.320D-02-0.708D-01-0.126D+00 0.253D+00
 Coeff:      0.937D+00
 Gap=     0.353 Goal=   None    Shift=    0.000
 RMSDP=8.93D-08 MaxDP=5.04D-06 DE=-3.14D-11 OVMax= 2.32D-06

 Cycle  14  Pass 1  IDiag  1:
 RMSU=  3.58D-08    CP:  6.16D-01  8.61D-01  7.82D-01  9.60D-01  1.23D+00
                    CP:  1.18D+00  1.27D+00  1.23D+00  1.63D+00  1.06D+00
                    CP:  1.40D+00  1.34D+00  1.29D+00
 E= -420.744913303511     Delta-E=       -0.000000000009 Rises=F Damp=F
 DIIS: error= 4.30D-08 at cycle  14 NSaved=  14.
 NSaved=14 IEnMin=14 EnMin= -420.744913303511     IErMin=14 ErrMin= 4.30D-08
 ErrMax= 4.30D-08  0.00D+00 EMaxC= 1.00D-01 BMatC= 2.09D-13 BMatP= 2.61D-12
 IDIUse=1 WtCom= 1.00D+00 WtEn= 0.00D+00
 Coeff-Com:  0.893D-07 0.201D-05 0.247D-05-0.116D-05-0.608D-04-0.490D-04
 Coeff-Com: -0.192D-03 0.126D-02 0.293D-02-0.215D-02-0.199D-01-0.887D-01
 Coeff-Com:  0.154D-03 0.111D+01
 Coeff:      0.893D-07 0.201D-05 0.247D-05-0.116D-05-0.608D-04-0.490D-04
 Coeff:     -0.192D-03 0.126D-02 0.293D-02-0.215D-02-0.199D-01-0.887D-01
 Coeff:      0.154D-03 0.111D+01
 Gap=     0.353 Goal=   None    Shift=    0.000
 RMSDP=4.18D-08 MaxDP=2.86D-06 DE=-9.21D-12 OVMax= 8.77D-07

 Cycle  15  Pass 1  IDiag  1:
 RMSU=  9.21D-09    CP:  6.16D-01  8.61D-01  7.82D-01  9.60D-01  1.23D+00
                    CP:  1.18D+00  1.27D+00  1.23D+00  1.63D+00  1.05D+00
                    CP:  1.41D+00  1.37D+00  1.49D+00  1.39D+00
 E= -420.744913303514     Delta-E=       -0.000000000002 Rises=F Damp=F
 DIIS: error= 1.52D-08 at cycle  15 NSaved=  15.
 NSaved=15 IEnMin=15 EnMin= -420.744913303514     IErMin=15 ErrMin= 1.52D-08
 ErrMax= 1.52D-08  0.00D+00 EMaxC= 1.00D-01 BMatC= 4.26D-14 BMatP= 2.09D-13
 IDIUse=1 WtCom= 1.00D+00 WtEn= 0.00D+00
 Coeff-Com:  0.204D-07 0.119D-05 0.187D-05 0.577D-05 0.202D-04 0.115D-04
 Coeff-Com: -0.372D-03-0.395D-03 0.147D-02 0.782D-02 0.848D-02-0.560D-01
 Coeff-Com: -0.113D+00 0.385D+00 0.767D+00
 Coeff:      0.204D-07 0.119D-05 0.187D-05 0.577D-05 0.202D-04 0.115D-04
 Coeff:     -0.372D-03-0.395D-03 0.147D-02 0.782D-02 0.848D-02-0.560D-01
 Coeff:     -0.113D+00 0.385D+00 0.767D+00
 Gap=     0.353 Goal=   None    Shift=    0.000
 RMSDP=9.60D-09 MaxDP=5.52D-07 DE=-2.16D-12 OVMax= 1.83D-07

 SCF Done:  E(RwB97XD) =  -420.744913304     A.U. after   15 cycles
            NFock= 15  Conv=0.96D-08     -V/T= 2.0015
 KE= 4.201183741811D+02 PE=-1.801837571988D+03 EE= 5.517965362035D+02
 Leave Link  502 at Sun Nov  6 23:01:48 2022, MaxMem= 16106127360 cpu:             409.1 elap:              12.8
 (Enter /opt/ap/G16/B01/g16/l601.exe)
 Copying SCF densities to generalized density rwf, IOpCl= 0 IROHF=0.

 **********************************************************************

            Population analysis using the SCF Density.

 **********************************************************************

 Orbital symmetries:
       Occupied  (A) (A) (A) (A) (A) (A) (A) (A) (A) (A) (A) (A)
                 (A) (A) (A) (A) (A) (A) (A) (A) (A) (A) (A) (A)
                 (A) (A) (A) (A) (A) (A) (A) (A)
       Virtual   (A) (A) (A) (A) (A) (A) (A) (A) (A) (A) (A) (A)
                 (A) (A) (A) (A) (A) (A) (A) (A) (A) (A) (A) (A)
                 (A) (A) (A) (A) (A) (A) (A) (A) (A) (A) (A) (A)
                 (A) (A) (A) (A) (A) (A) (A) (A) (A) (A) (A) (A)
                 (A) (A) (A) (A) (A) (A) (A) (A) (A) (A) (A) (A)
                 (A) (A) (A) (A) (A) (A) (A) (A) (A) (A) (A) (A)
                 (A) (A) (A) (A) (A) (A) (A) (A) (A) (A) (A) (A)
                 (A) (A) (A) (A) (A) (A) (A) (A) (A) (A) (A) (A)
                 (A) (A) (A) (A) (A) (A) (A) (A) (A) (A) (A) (A)
                 (A) (A) (A) (A) (A) (A) (A) (A) (A) (A) (A) (A)
                 (A) (A) (A) (A) (A) (A) (A) (A) (A) (A) (A) (A)
                 (A) (A) (A) (A) (A) (A) (A) (A) (A) (A) (A) (A)
                 (A) (A) (A) (A) (A) (A) (A) (A) (A) (A) (A) (A)
                 (A) (A) (A) (A) (A) (A) (A) (A) (A) (A) (A) (A)
                 (A) (A) (A) (A) (A) (A) (A) (A) (A) (A) (A) (A)
                 (A) (A) (A) (A) (A) (A) (A) (A) (A) (A) (A) (A)
                 (A) (A) (A) (A) (A) (A) (A) (A) (A) (A) (A) (A)
                 (A) (A) (A) (A)
 The electronic state is 1-A.
 Alpha  occ. eigenvalues --  -19.31711 -19.22917 -10.43244 -10.31158 -10.29377
 Alpha  occ. eigenvalues --  -10.29336 -10.29086 -10.28997 -10.28738  -1.25844
 Alpha  occ. eigenvalues --   -1.10678  -0.98084  -0.88933  -0.87045  -0.80589
 Alpha  occ. eigenvalues --   -0.73420  -0.72025  -0.65828  -0.60666  -0.58669
 Alpha  occ. eigenvalues --   -0.57154  -0.55954  -0.54364  -0.53441  -0.48986
 Alpha  occ. eigenvalues --   -0.47446  -0.45525  -0.44890  -0.40904  -0.36700
 Alpha  occ. eigenvalues --   -0.34500  -0.34002
 Alpha virt. eigenvalues --    0.01276   0.03762   0.04256   0.04559   0.05243
 Alpha virt. eigenvalues --    0.06462   0.07612   0.08707   0.10164   0.10480
 Alpha virt. eigenvalues --    0.12128   0.12834   0.12926   0.14319   0.15045
 Alpha virt. eigenvalues --    0.16030   0.16308   0.16992   0.17315   0.18000
 Alpha virt. eigenvalues --    0.18367   0.19356   0.19553   0.20272   0.20408
 Alpha virt. eigenvalues --    0.21058   0.21220   0.21445   0.23170   0.23797
 Alpha virt. eigenvalues --    0.25817   0.26152   0.26902   0.27609   0.27941
 Alpha virt. eigenvalues --    0.29265   0.29475   0.30526   0.30948   0.31394
 Alpha virt. eigenvalues --    0.32306   0.34075   0.35112   0.35393   0.35715
 Alpha virt. eigenvalues --    0.36692   0.36844   0.38301   0.39646   0.40014
 Alpha virt. eigenvalues --    0.40888   0.41185   0.42462   0.43654   0.44179
 Alpha virt. eigenvalues --    0.44987   0.46891   0.51386   0.54102   0.57160
 Alpha virt. eigenvalues --    0.59598   0.61025   0.61866   0.63763   0.63891
 Alpha virt. eigenvalues --    0.64593   0.64879   0.66631   0.67675   0.69280
 Alpha virt. eigenvalues --    0.71236   0.72194   0.73050   0.74880   0.76279
 Alpha virt. eigenvalues --    0.77087   0.81000   0.81986   0.82490   0.83893
 Alpha virt. eigenvalues --    0.87762   0.88497   0.90571   0.92283   0.93834
 Alpha virt. eigenvalues --    0.94348   0.96209   0.96470   0.97918   1.00272
 Alpha virt. eigenvalues --    1.01417   1.02311   1.08696   1.08860   1.13368
 Alpha virt. eigenvalues --    1.13728   1.15538   1.16420   1.17886   1.19835
 Alpha virt. eigenvalues --    1.22155   1.24284   1.25302   1.27963   1.30967
 Alpha virt. eigenvalues --    1.35781   1.37943   1.44314   1.45006   1.55731
 Alpha virt. eigenvalues --    1.56305   1.59054   1.59822   1.61280   1.62050
 Alpha virt. eigenvalues --    1.63594   1.64548   1.66958   1.67487   1.74641
 Alpha virt. eigenvalues --    1.74907   1.77596   1.80099   1.82916   1.87209
 Alpha virt. eigenvalues --    1.88173   1.90538   1.91256   1.94609   1.97989
 Alpha virt. eigenvalues --    1.99881   2.02166   2.03646   2.04910   2.05766
 Alpha virt. eigenvalues --    2.06311   2.08017   2.14149   2.17814   2.18508
 Alpha virt. eigenvalues --    2.23352   2.26278   2.31381   2.43823   2.46488
 Alpha virt. eigenvalues --    2.52224   2.53631   2.54281   2.57812   2.63376
 Alpha virt. eigenvalues --    2.70328   2.71188   2.76831   2.79573   2.81063
 Alpha virt. eigenvalues --    2.82014   2.82994   2.88181   2.90303   2.90771
 Alpha virt. eigenvalues --    2.90936   2.91650   2.96266   2.99474   3.00809
 Alpha virt. eigenvalues --    3.02356   3.06481   3.07223   3.16093   3.18367
 Alpha virt. eigenvalues --    3.19390   3.22772   3.26411   3.29266   3.34700
 Alpha virt. eigenvalues --    3.41250   3.43450   3.48411   3.49367   3.63783
 Alpha virt. eigenvalues --    3.66111   3.69398   3.73535   3.84074   3.87678
 Alpha virt. eigenvalues --    4.05918   4.14923   4.27897   4.30562   4.36048
 Alpha virt. eigenvalues --    4.40594   4.42936   4.94996   5.07800   5.17326
 Alpha virt. eigenvalues --    5.28446   5.47505   5.79501   6.08116  23.84246
 Alpha virt. eigenvalues --   23.94073  24.14297  24.21346  24.28325  24.30318
 Alpha virt. eigenvalues --   24.41763  50.02922  50.14166
          Condensed to atoms (all electrons):
               1          2          3          4          5          6
     1  C   12.538289  -2.228997  -3.107429   1.729867   0.003172  -2.903052
     2  C   -2.228997  12.570882  -0.236419  -2.686210   0.466977  -0.961231
     3  C   -3.107429  -0.236419  11.108049  -1.198400   0.060482  -0.021891
     4  C    1.729867  -2.686210  -1.198400   7.427159  -0.081680  -0.058384
     5  H    0.003172   0.466977   0.060482  -0.081680   0.462373  -0.072275
     6  C   -2.903052  -0.961231  -0.021891  -0.058384  -0.072275   8.983831
     7  C    0.916467  -1.545449  -1.193762   1.229123  -0.017303   0.105525
     8  H    0.025249   0.112521   0.380207  -0.034151  -0.000036  -0.066306
     9  C   -1.590715   1.556410   1.095185  -0.852396   0.018360   0.028713
    10  H    0.033067  -0.090141  -0.014036   0.428021  -0.008547   0.009543
    11  O   -0.319205  -0.144800  -0.056726   0.073330  -0.024556   0.437186
    12  O   -0.137273  -0.016680  -0.033179   0.025633  -0.002327   0.497647
    13  H    0.030039  -0.046385  -0.037853   0.015263   0.000243   0.011790
    14  H    0.004378   0.038709  -0.004372  -0.054485   0.000253  -0.010920
    15  H   -0.063727  -0.006379   0.020650  -0.013859   0.000117   0.048091
               7          8          9         10         11         12
     1  C    0.916467   0.025249  -1.590715   0.033067  -0.319205  -0.137273
     2  C   -1.545449   0.112521   1.556410  -0.090141  -0.144800  -0.016680
     3  C   -1.193762   0.380207   1.095185  -0.014036  -0.056726  -0.033179
     4  C    1.229123  -0.034151  -0.852396   0.428021   0.073330   0.025633
     5  H   -0.017303  -0.000036   0.018360  -0.008547  -0.024556  -0.002327
     6  C    0.105525  -0.066306   0.028713   0.009543   0.437186   0.497647
     7  C    6.711515  -0.081331  -0.586172   0.002848   0.034400   0.050056
     8  H   -0.081331   0.441188   0.025654   0.000257  -0.001928  -0.002906
     9  C   -0.586172   0.025654   6.424294  -0.029997  -0.031074  -0.008211
    10  H    0.002848   0.000257  -0.029997   0.471399   0.001626   0.000227
    11  O    0.034400  -0.001928  -0.031074   0.001626   8.011276  -0.124630
    12  O    0.050056  -0.002906  -0.008211   0.000227  -0.124630   8.082758
    13  H    0.412707  -0.010108  -0.043268  -0.001020   0.000225  -0.000143
    14  H   -0.041684   0.000827   0.419929  -0.006627  -0.000474  -0.000128
    15  H   -0.000924   0.000212   0.001552  -0.000155   0.293246  -0.009721
              13         14         15
     1  C    0.030039   0.004378  -0.063727
     2  C   -0.046385   0.038709  -0.006379
     3  C   -0.037853  -0.004372   0.020650
     4  C    0.015263  -0.054485  -0.013859
     5  H    0.000243   0.000253   0.000117
     6  C    0.011790  -0.010920   0.048091
     7  C    0.412707  -0.041684  -0.000924
     8  H   -0.010108   0.000827   0.000212
     9  C   -0.043268   0.419929   0.001552
    10  H   -0.001020  -0.006627  -0.000155
    11  O    0.000225  -0.000474   0.293246
    12  O   -0.000143  -0.000128  -0.009721
    13  H    0.465951  -0.006510  -0.000071
    14  H   -0.006510   0.470746  -0.000040
    15  H   -0.000071  -0.000040   0.395629
 Mulliken charges:
               1
     1  C    1.069868
     2  C   -0.782808
     3  C   -0.760506
     4  C    0.051168
     5  H    0.194746
     6  C   -0.028268
     7  C    0.003982
     8  H    0.210653
     9  C   -0.428265
    10  H    0.203533
    11  O   -0.147897
    12  O   -0.321125
    13  H    0.209141
    14  H    0.190398
    15  H    0.335380
 Sum of Mulliken charges =  -0.00000
 Mulliken charges with hydrogens summed into heavy atoms:
               1
     1  C    1.069868
     2  C   -0.588063
     3  C   -0.549853
     4  C    0.254701
     6  C   -0.028268
     7  C    0.213123
     9  C   -0.237867
    11  O    0.187483
    12  O   -0.321125
 Electronic spatial extent (au):  <R**2>=           1158.2362
 Charge=             -0.0000 electrons
 Dipole moment (field-independent basis, Debye):
    X=             -1.2723    Y=             -2.1166    Z=             -0.9332  Tot=              2.6400
 Quadrupole moment (field-independent basis, Debye-Ang):
   XX=            -43.2996   YY=            -49.6084   ZZ=            -54.5707
   XY=             -7.3650   XZ=             -3.1245   YZ=             -2.7558
 Traceless Quadrupole moment (field-independent basis, Debye-Ang):
   XX=              5.8600   YY=             -0.4489   ZZ=             -5.4111
   XY=             -7.3650   XZ=             -3.1245   YZ=             -2.7558
 Octapole moment (field-independent basis, Debye-Ang**2):
  XXX=             21.8481  YYY=             -3.3867  ZZZ=             -0.7271  XYY=             -6.3202
  XXY=            -24.2829  XXZ=            -10.6107  XZZ=             10.2839  YZZ=             -0.8652
  YYZ=             -1.3541  XYZ=             -1.2043
 Hexadecapole moment (field-independent basis, Debye-Ang**3):
 XXXX=           -872.8393 YYYY=           -342.9615 ZZZZ=            -76.3473 XXXY=            -83.0049
 XXXZ=            -36.4166 YYYX=            -13.2404 YYYZ=             -6.7564 ZZZX=             -3.0532
 ZZZY=              2.6877 XXYY=           -230.9634 XXZZ=           -197.5838 YYZZ=            -78.4725
 XXYZ=             -6.0030 YYXZ=             -3.7260 ZZXY=             -3.2754
 N-N= 4.091777483003D+02 E-N=-1.801837572268D+03  KE= 4.201183741811D+02
 No NMR shielding tensors so no spin-rotation constants.
 Leave Link  601 at Sun Nov  6 23:01:48 2022, MaxMem= 16106127360 cpu:               4.3 elap:               0.2
 (Enter /opt/ap/G16/B01/g16/l9999.exe)
 1\1\GINC-N03\SP\RwB97XD\6-311++G(d,p)\C7H6O2\ROOT\06-Nov-2022\0\\#P wB
 97XD/6-311++G(d,p) scf=maxcycle=512\\_conf024.gjf nmol_natom 1_15\\0,1
 \C\C,1,1.39016191\C,1,1.39194539,2,119.895942\C,2,1.38669027,1,119.880
 75721,3,0.70825972,0\H,2,0.98744251,1,119.71654057,3,-179.90726164,0\C
 ,1,1.48428757,2,119.93615286,4,-179.87772406,0\C,3,1.40101108,1,119.72
 36454,2,-0.26266839,0\H,3,0.9902154,1,119.1886159,2,178.85397616,0\C,4
 ,1.37899003,2,120.45785903,1,-0.48041454,0\H,4,0.9834739,2,120.3044270
 6,1,179.36166981,0\O,6,1.27459751,1,118.00615353,2,30.,0\O,6,1.2636257
 2,1,118.77715367,2,-150.,0\H,7,0.98977053,3,119.37861578,1,-178.935457
 41,0\H,9,0.99498061,4,119.46722635,2,-178.58826714,0\H,11,0.89680392,6
 ,118.15823763,1,176.92714093,0\\Version=ES64L-G16RevB.01\State=1-A\HF=
 -420.7449133\RMSD=9.599e-09\Dipole=0.0690126,0.4813769,0.9177985\Quadr
 upole=7.6666084,-4.5096643,-3.1569442,-2.0445419,-0.9767572,-2.7461508
 \PG=C01 [X(C7H6O2)]\\@


 OUR LITTLE SYSTEMS HAVE THEIR DAY,    
   THEY HAVE THEIR DAY AND CEASE TO BE.
   THEY ARE BUT BROKEN LIGHTS OF THEE, 
 AND THOU, OH LORD, ART MORE THAN THEY.
          -------------------          
 LET KNOWLEDGE GROW FROM MORE TO MORE, 
   BUT MORE OF REVERENCE IN US DWELL.  
   THAT MIND AND SOUL, ACCORDING WELL, 
 MAY MAKE ONE MUSIC AS BEFORE.....     
          -------------------          
                    LORD TENNYSON      
 Job cpu time:       0 days  0 hours  7 minutes 22.2 seconds.
 Elapsed time:       0 days  0 hours  0 minutes 13.9 seconds.
 File lengths (MBytes):  RWF=     35 Int=      0 D2E=      0 Chk=      4 Scr=      1
 Normal termination of Gaussian 16 at Sun Nov  6 23:01:48 2022.
