 Entering Gaussian System, Link 0=g16
 Input=_conf026.gjf
 Output=_conf026.log
 Initial command:
 /opt/ap/G16/B01/g16/l1.exe "/tmp2/scr/Gau-13635.inp" -scrdir="/tmp2/scr/"
 Entering Link 1 = /opt/ap/G16/B01/g16/l1.exe PID=     13636.
  
 Copyright (c) 1988-2017, Gaussian, Inc.  All Rights Reserved.
  
 This is part of the Gaussian(R) 16 program.  It is based on
 the Gaussian(R) 09 system (copyright 2009, Gaussian, Inc.),
 the Gaussian(R) 03 system (copyright 2003, Gaussian, Inc.),
 the Gaussian(R) 98 system (copyright 1998, Gaussian, Inc.),
 the Gaussian(R) 94 system (copyright 1995, Gaussian, Inc.),
 the Gaussian 92(TM) system (copyright 1992, Gaussian, Inc.),
 the Gaussian 90(TM) system (copyright 1990, Gaussian, Inc.),
 the Gaussian 88(TM) system (copyright 1988, Gaussian, Inc.),
 the Gaussian 86(TM) system (copyright 1986, Carnegie Mellon
 University), and the Gaussian 82(TM) system (copyright 1983,
 Carnegie Mellon University). Gaussian is a federally registered
 trademark of Gaussian, Inc.
  
 This software contains proprietary and confidential information,
 including trade secrets, belonging to Gaussian, Inc.
  
 This software is provided under written license and may be
 used, copied, transmitted, or stored only in accord with that
 written license.
  
 The following legend is applicable only to US Government
 contracts under FAR:
  
                    RESTRICTED RIGHTS LEGEND
  
 Use, reproduction and disclosure by the US Government is
 subject to restrictions as set forth in subparagraphs (a)
 and (c) of the Commercial Computer Software - Restricted
 Rights clause in FAR 52.227-19.
  
 Gaussian, Inc.
 340 Quinnipiac St., Bldg. 40, Wallingford CT 06492
  
  
 ---------------------------------------------------------------
 Warning -- This program may not be used in any manner that
 competes with the business of Gaussian, Inc. or will provide
 assistance to any competitor of Gaussian, Inc.  The licensee
 of this program is prohibited from giving any competitor of
 Gaussian, Inc. access to this program.  By using this program,
 the user acknowledges that Gaussian, Inc. is engaged in the
 business of creating and licensing software in the field of
 computational chemistry and represents and warrants to the
 licensee that it is not a competitor of Gaussian, Inc. and that
 it will not use this program in any manner prohibited above.
 ---------------------------------------------------------------
  

 Cite this work as:
 Gaussian 16, Revision B.01,
 M. J. Frisch, G. W. Trucks, H. B. Schlegel, G. E. Scuseria, 
 M. A. Robb, J. R. Cheeseman, G. Scalmani, V. Barone, 
 G. A. Petersson, H. Nakatsuji, X. Li, M. Caricato, A. V. Marenich, 
 J. Bloino, B. G. Janesko, R. Gomperts, B. Mennucci, H. P. Hratchian, 
 J. V. Ortiz, A. F. Izmaylov, J. L. Sonnenberg, D. Williams-Young, 
 F. Ding, F. Lipparini, F. Egidi, J. Goings, B. Peng, A. Petrone, 
 T. Henderson, D. Ranasinghe, V. G. Zakrzewski, J. Gao, N. Rega, 
 G. Zheng, W. Liang, M. Hada, M. Ehara, K. Toyota, R. Fukuda, 
 J. Hasegawa, M. Ishida, T. Nakajima, Y. Honda, O. Kitao, H. Nakai, 
 T. Vreven, K. Throssell, J. A. Montgomery, Jr., J. E. Peralta, 
 F. Ogliaro, M. J. Bearpark, J. J. Heyd, E. N. Brothers, K. N. Kudin, 
 V. N. Staroverov, T. A. Keith, R. Kobayashi, J. Normand, 
 K. Raghavachari, A. P. Rendell, J. C. Burant, S. S. Iyengar, 
 J. Tomasi, M. Cossi, J. M. Millam, M. Klene, C. Adamo, R. Cammi, 
 J. W. Ochterski, R. L. Martin, K. Morokuma, O. Farkas, 
 J. B. Foresman, and D. J. Fox, Gaussian, Inc., Wallingford CT, 2016.
 
 ******************************************
 Gaussian 16:  ES64L-G16RevB.01 20-Dec-2017
                14-Nov-2022 
 ******************************************
 %nprocshared=32
 Will use up to   32 processors via shared memory.
 %mem=120GB
 %chk=_conf026.chk
 ----------------------------------------
 #P wB97XD/6-311++G(d,p) scf=maxcycle=512
 ----------------------------------------
 1/38=1,172=1/1;
 2/12=2,17=6,18=5,40=1/2;
 3/5=4,6=6,7=1111,11=2,25=1,30=1,74=-58/1,2,3;
 4//1;
 5/5=2,7=512,38=5/2;
 6/7=2,8=2,9=2,10=2,28=1/1;
 99/5=1,9=1/99;
 Leave Link    1 at Mon Nov 14 15:17:20 2022, MaxMem= 16106127360 cpu:               1.5 elap:               0.1
 (Enter /opt/ap/G16/B01/g16/l101.exe)
 ----------------------------
 _conf026.gjf nmol_natom 1_42
 ----------------------------
 Symbolic Z-matrix:
 Charge =  0 Multiplicity = 1
 C
 C                    1     1.39413 
 C                    1     1.39435  2     118.86443 
 C                    2     1.39416  1     121.15295  3     0.03668  0
 H                    2     1.08488  1     119.42237  3    -179.97409  0
 C                    1     1.48467  2     120.55715  4     179.25839  0
 C                    3     1.39438  1     121.11776  2    -0.05351  0
 H                    3     1.08488  1     119.41869  2     177.23008  0
 C                    4     1.39432  2     118.86474  1     0.01008  0
 C                    4     1.48467  2     120.54642  1     179.19455  0
 C                    6     1.39685  1     120.78435  2     40.      0
 C                    6     1.39687  1     120.67654  2    -140.     0
 C                    7     1.4845   3     120.56497  1    -179.96326  0
 H                    9     1.08488  4     119.41825  2     177.22246  0
 C                    10    1.39685  4     120.76947  2    -42.52369  0
 C                    10    1.39686  4     120.69449  2     137.43108  0
 C                    11    1.38889  6     120.73801  1     179.94059  0
 H                    11    1.08476  6     119.46912  1    -1.41051  0
 C                    12    1.38882  6     120.76493  1    -179.95083  0
 H                    12    1.08483  6     119.44183  1    -1.23603  0
 C                    13    1.39683  7     120.74134  3     42.89023  0
 C                    13    1.39683  7     120.73791  3    -137.12494  0
 C                    15    1.38888  10    120.74219  4     179.94601  0
 H                    15    1.08476  10    119.47086  4    -1.40607  0
 C                    16    1.38886  10    120.76339  4    -179.95593  0
 H                    16    1.08483  10    119.44215  4    -1.2344   0
 C                    17    1.39008  11    120.20743  6     0.0035   0
 H                    17    1.08435  11    119.71319  6     179.50116  0
 H                    19    1.08436  12    119.73823  6     179.53684  0
 C                    21    1.38882  13    120.76699  7     179.99298  0
 H                    21    1.08479  13    119.43526  7     1.32183  0
 C                    22    1.38882  13    120.76647  7    -179.97118  0
 H                    22    1.0848   13    119.43204  7     1.34658  0
 C                    23    1.39007  15    120.20733  10    0.00574  0
 H                    23    1.08435  15    119.71221  10    179.50724  0
 H                    25    1.08436  16    119.73539  10    179.53636  0
 H                    27    1.08413  17    120.21791  11    179.98397  0
 C                    30    1.39008  21    120.18795  13   -0.02169  0
 H                    30    1.08435  21    119.73787  13   -179.52151  0
 H                    32    1.08435  22    119.73704  13   -179.52887  0
 H                    34    1.08412  23    120.22153  15    179.988  0
 H                    38    1.08411  30    120.21547  21   -179.98601  0
 
 ITRead=  0  0  0  0  0  0  0  0  0  0  0  0  0  0  0  0  0  0  0  0
 ITRead=  0  0  0  0  0  0  0  0  0  0  0  0  0  0  0  0  0  0  0  0
 ITRead=  0  0
 MicOpt= -1 -1 -1 -1 -1 -1 -1 -1 -1 -1 -1 -1 -1 -1 -1 -1 -1 -1 -1 -1
 MicOpt= -1 -1 -1 -1 -1 -1 -1 -1 -1 -1 -1 -1 -1 -1 -1 -1 -1 -1 -1 -1
 MicOpt= -1 -1
 NAtoms=     42 NQM=       42 NQMF=       0 NMMI=      0 NMMIF=      0
                NMic=       0 NMicF=      0.
                    Isotopes and Nuclear Properties:
 (Nuclear quadrupole moments (NQMom) in fm**2, nuclear magnetic moments (NMagM)
  in nuclear magnetons)

  Atom         1           2           3           4           5           6           7           8           9          10
 IAtWgt=          12          12          12          12           1          12          12           1          12          12
 AtmWgt=  12.0000000  12.0000000  12.0000000  12.0000000   1.0078250  12.0000000  12.0000000   1.0078250  12.0000000  12.0000000
 NucSpn=           0           0           0           0           1           0           0           1           0           0
 AtZEff=  -0.0000000  -0.0000000  -0.0000000  -0.0000000  -0.0000000  -0.0000000  -0.0000000  -0.0000000  -0.0000000  -0.0000000
 NQMom=    0.0000000   0.0000000   0.0000000   0.0000000   0.0000000   0.0000000   0.0000000   0.0000000   0.0000000   0.0000000
 NMagM=    0.0000000   0.0000000   0.0000000   0.0000000   2.7928460   0.0000000   0.0000000   2.7928460   0.0000000   0.0000000
 AtZNuc=   6.0000000   6.0000000   6.0000000   6.0000000   1.0000000   6.0000000   6.0000000   1.0000000   6.0000000   6.0000000

  Atom        11          12          13          14          15          16          17          18          19          20
 IAtWgt=          12          12          12           1          12          12          12           1          12           1
 AtmWgt=  12.0000000  12.0000000  12.0000000   1.0078250  12.0000000  12.0000000  12.0000000   1.0078250  12.0000000   1.0078250
 NucSpn=           0           0           0           1           0           0           0           1           0           1
 AtZEff=  -0.0000000  -0.0000000  -0.0000000  -0.0000000  -0.0000000  -0.0000000  -0.0000000  -0.0000000  -0.0000000  -0.0000000
 NQMom=    0.0000000   0.0000000   0.0000000   0.0000000   0.0000000   0.0000000   0.0000000   0.0000000   0.0000000   0.0000000
 NMagM=    0.0000000   0.0000000   0.0000000   2.7928460   0.0000000   0.0000000   0.0000000   2.7928460   0.0000000   2.7928460
 AtZNuc=   6.0000000   6.0000000   6.0000000   1.0000000   6.0000000   6.0000000   6.0000000   1.0000000   6.0000000   1.0000000

  Atom        21          22          23          24          25          26          27          28          29          30
 IAtWgt=          12          12          12           1          12           1          12           1           1          12
 AtmWgt=  12.0000000  12.0000000  12.0000000   1.0078250  12.0000000   1.0078250  12.0000000   1.0078250   1.0078250  12.0000000
 NucSpn=           0           0           0           1           0           1           0           1           1           0
 AtZEff=  -0.0000000  -0.0000000  -0.0000000  -0.0000000  -0.0000000  -0.0000000  -0.0000000  -0.0000000  -0.0000000  -0.0000000
 NQMom=    0.0000000   0.0000000   0.0000000   0.0000000   0.0000000   0.0000000   0.0000000   0.0000000   0.0000000   0.0000000
 NMagM=    0.0000000   0.0000000   0.0000000   2.7928460   0.0000000   2.7928460   0.0000000   2.7928460   2.7928460   0.0000000
 AtZNuc=   6.0000000   6.0000000   6.0000000   1.0000000   6.0000000   1.0000000   6.0000000   1.0000000   1.0000000   6.0000000

  Atom        31          32          33          34          35          36          37          38          39          40
 IAtWgt=           1          12           1          12           1           1           1          12           1           1
 AtmWgt=   1.0078250  12.0000000   1.0078250  12.0000000   1.0078250   1.0078250   1.0078250  12.0000000   1.0078250   1.0078250
 NucSpn=           1           0           1           0           1           1           1           0           1           1
 AtZEff=  -0.0000000  -0.0000000  -0.0000000  -0.0000000  -0.0000000  -0.0000000  -0.0000000  -0.0000000  -0.0000000  -0.0000000
 NQMom=    0.0000000   0.0000000   0.0000000   0.0000000   0.0000000   0.0000000   0.0000000   0.0000000   0.0000000   0.0000000
 NMagM=    2.7928460   0.0000000   2.7928460   0.0000000   2.7928460   2.7928460   2.7928460   0.0000000   2.7928460   2.7928460
 AtZNuc=   1.0000000   6.0000000   1.0000000   6.0000000   1.0000000   1.0000000   1.0000000   6.0000000   1.0000000   1.0000000

  Atom        41          42
 IAtWgt=           1           1
 AtmWgt=   1.0078250   1.0078250
 NucSpn=           1           1
 AtZEff=  -0.0000000  -0.0000000
 NQMom=    0.0000000   0.0000000
 NMagM=    2.7928460   2.7928460
 AtZNuc=   1.0000000   1.0000000
 Leave Link  101 at Mon Nov 14 15:17:20 2022, MaxMem= 16106127360 cpu:               6.1 elap:               0.2
 (Enter /opt/ap/G16/B01/g16/l202.exe)
                          Input orientation:                          
 ---------------------------------------------------------------------
 Center     Atomic      Atomic             Coordinates (Angstroms)
 Number     Number       Type             X           Y           Z
 ---------------------------------------------------------------------
      1          6           0        0.000000    0.000000    0.000000
      2          6           0        0.000000    0.000000    1.394128
      3          6           0        1.221126    0.000000   -0.673109
      4          6           0        1.193108    0.000764    2.115362
      5          1           0       -0.944957   -0.000427    1.927071
      6          6           0       -1.278366   -0.017366   -0.754803
      7          6           0        2.428476    0.001115    0.024455
      8          1           0        1.232154   -0.045667   -1.756969
      9          6           0        2.400843    0.001752    1.418572
     10          6           0        1.177445    0.018728    3.599837
     11          6           0       -2.371736    0.739219   -0.326655
     12          6           0       -1.413670   -0.791515   -1.909631
     13          6           0        3.721572    0.001921   -0.704680
     14          1           0        3.334061    0.048144    1.969857
     15          6           0        0.290794    0.844275    4.295193
     16          6           0        2.049080   -0.790881    4.331965
     17          6           0       -3.566790    0.723211   -1.034188
     18          1           0       -2.290800    1.327862    0.580903
     19          6           0       -2.608329   -0.808337   -2.617685
     20          1           0       -0.567558   -1.369003   -2.266637
     21          6           0        3.910862    0.818865   -1.821777
     22          6           0        4.776237   -0.814044   -0.288725
     23          6           0        0.275860    0.859807    5.683909
     24          1           0       -0.377402    1.495584    3.742000
     25          6           0        2.035025   -0.775886    5.720674
     26          1           0        2.729408   -1.453102    3.807101
     27          6           0       -3.689254   -0.050172   -2.182753
     28          1           0       -4.407615    1.310605   -0.682339
     29          1           0       -2.692613   -1.409451   -3.516235
     30          6           0        5.120444    0.820149   -2.504230
     31          1           0        3.109266    1.474569   -2.144691
     32          6           0        5.986440   -0.813321   -0.970068
     33          1           0        4.638168   -1.470412    0.563864
     34          6           0        1.147946    0.049642    6.401818
     35          1           0       -0.413890    1.513063    6.206701
     36          1           0        2.713797   -1.416787    6.272362
     37          1           0       -4.622081   -0.062995   -2.735019
     38          6           0        6.162883    0.003944   -2.080611
     39          1           0        5.251831    1.466740   -3.364741
     40          1           0        6.791448   -1.459089   -0.637249
     41          1           0        1.136620    0.061726    7.485815
     42          1           0        7.107346    0.004761   -2.612865
 ---------------------------------------------------------------------
                    Distance matrix (angstroms):
                    1          2          3          4          5
     1  C    0.000000
     2  C    1.394128   0.000000
     3  C    1.394354   2.400962   0.000000
     4  C    2.428634   1.394161   2.788612   0.000000
     5  H    2.146287   1.084884   3.384206   2.146341   0.000000
     6  C    1.484671   2.500485   2.500887   3.787659   2.702572
     7  C    2.428599   2.788100   1.394378   2.428585   3.872983
     8  H    2.146445   3.383741   1.084878   3.872806   4.279487
     9  C    2.788619   2.400968   2.401430   1.394324   3.384222
    10  C    3.787552   2.500376   4.273210   1.484666   2.702426
    11  C    2.505649   3.022031   3.684444   4.383705   2.768041
    12  C    2.504326   3.679644   3.016228   4.860407   3.945350
    13  C    3.787700   4.272598   2.500646   3.787581   5.357482
    14  H    3.872805   3.383747   3.384092   2.146415   4.279508
    15  C    4.387032   3.035381   5.124680   2.505463   2.801537
    16  C    4.856969   3.668120   5.134371   2.504540   3.920790
    17  C    3.783460   4.375128   4.855672   5.753105   4.020785
    18  H    2.710799   2.769895   3.958458   4.031546   2.321166
    19  C    3.782732   4.852982   4.370298   6.124320   4.906559
    20  H    2.708124   3.949366   2.759147   4.917125   4.427484
    21  C    4.391384   5.129076   3.037212   4.853507   6.189029
    22  C    4.853707   5.129045   3.667320   4.391169   6.189006
    23  C    5.755188   4.383786   6.484171   3.783362   4.042800
    24  H    4.047440   2.809218   4.928007   2.710524   2.419532
    25  C    6.121229   4.843792   6.491910   3.782894   4.886007
    26  H    4.904609   3.922195   4.945574   2.708491   4.375585
    27  C    4.286902   5.138793   5.137448   6.504909   4.942094
    28  H    4.648692   5.045440   5.779316   6.396163   4.529660
    29  H    4.647647   5.774806   5.038578   6.985872   5.888058
    30  C    5.758711   6.487587   4.385239   6.118495   7.556379
    31  H    4.054822   4.936104   2.811579   4.898143   5.932249
    32  C    6.118822   6.487555   4.843334   5.758354   7.556353
    33  H    4.898230   4.935996   3.920254   4.054620   5.932156
    34  C    6.504116   5.137821   7.075480   4.286973   4.940255
    35  H    6.401859   5.061770   7.231488   4.648499   4.570330
    36  H    6.979577   5.759266   7.243957   4.647859   5.854410
    37  H    5.371027   6.198182   6.196653   7.572759   5.938032
    38  C    6.504621   7.074953   5.138292   6.504219   8.159837
    39  H    6.407382   7.237395   5.063871   6.975231   8.279857
    40  H    6.975586   7.237348   5.758361   6.406985   8.279819
    41  H    7.571865   6.197125   8.159595   5.371096   5.936031
    42  H    7.572414   8.159067   6.197601   7.571945   9.243951
                    6          7          8          9         10
     6  C    0.000000
     7  C    3.787910   0.000000
     8  H    2.703303   2.146356   0.000000
     9  C    4.273231   1.394392   3.384102   0.000000
    10  C    4.999520   3.787973   5.357472   2.500981   0.000000
    11  C    1.396850   4.869302   3.955991   5.134898   5.341641
    12  C    1.396868   4.373904   2.753176   5.124131   6.142036
    13  C    5.000226   1.484499   2.703105   2.500505   5.000173
    14  H    5.357476   2.146366   4.279725   1.084879   2.703459
    15  C    5.357906   4.849723   6.189251   3.665665   1.396854
    16  C    6.127433   4.396117   6.188524   3.039714   1.396863
    17  C    2.421445   6.130690   4.913598   6.492240   6.669202
    18  H    2.149133   4.933706   4.445608   4.946895   4.780849
    19  C    2.421728   5.745042   4.008965   6.483781   7.326233
    20  H    2.148909   4.012797   2.291275   4.926575   6.275854
    21  C    5.363376   2.504946   2.815510   3.667109   6.124188
    22  C    6.124553   2.504906   3.912375   3.036921   5.363369
    23  C    6.681472   6.115597   7.556523   4.841994   2.421492
    24  H    4.829285   4.891475   5.933362   3.917716   2.149154
    25  C    7.313393   5.762417   7.555989   4.387097   2.421736
    26  H    6.239756   4.063707   5.931401   2.815959   2.148914
    27  C    2.802231   6.503923   4.939794   7.075417   7.558297
    28  H    3.400141   6.996174   5.899262   7.244447   7.155339
    29  H    3.400515   6.383708   4.512064   7.230983   8.225298
    30  C    6.686306   3.783088   4.053003   4.842972   7.310892
    31  H    4.838282   2.709194   2.446425   3.920191   6.233057
    32  C    7.311449   3.783053   4.879728   4.384797   6.686012
    33  H    6.233426   2.709077   4.360860   2.811302   4.838519
    34  C    7.557031   6.504835   8.159779   5.138559   2.802307
    35  H    7.179977   6.970308   8.280044   5.756123   3.400165
    36  H    8.202243   6.413127   8.279214   5.066504   3.400510
    37  H    3.886356   7.571602   5.935398   8.159533   8.589038
    38  C    7.558466   4.286853   4.941589   5.137824   7.557929
    39  H    7.187337   4.648230   4.585860   5.757987   8.197725
    40  H    8.198432   4.648180   5.844424   5.063385   7.187062
    41  H    8.587561   7.572613   9.243902   6.197846   3.886431
    42  H    8.589123   5.370968   5.937422   6.197069   8.588456
                   11         12         13         14         15
    11  C    0.000000
    12  C    2.401427   0.000000
    13  C    6.149383   5.334056   0.000000
    14  H    6.189319   6.188409   2.702860   0.000000
    15  C    5.334940   6.639341   6.121971   3.911840   0.000000
    16  C    6.602087   7.137798   5.365963   2.816859   2.401387
    17  C    1.388889   2.774296   7.331374   7.556570   6.580115
    18  H    1.084764   3.385835   6.289631   5.933459   4.549113
    19  C    2.774838   1.388824   6.662113   7.555865   7.676192
    20  H    3.385733   1.084828   4.766107   5.931174   6.978036
    21  C    6.458542   5.563424   1.396829   3.911930   7.107943
    22  C    7.314888   6.398656   1.396832   2.815037   6.624314
    23  C    6.568956   7.952560   7.309101   4.879095   1.388883
    24  H    4.593844   6.184303   6.229413   4.360107   1.084763
    25  C    7.634479   8.373488   6.688393   4.054029   2.774755
    26  H    6.922129   7.091108   4.843310   2.448430   3.385708
    27  C    2.409169   2.408832   7.556967   8.159706   7.655365
    28  H    2.144247   3.858608   8.233883   8.280187   6.860636
    29  H    3.859166   2.144462   7.144129   8.279045   8.660162
    30  C    7.802636   6.756157   2.421718   4.878996   8.340159
    31  H    5.821286   5.064320   2.148776   4.360587   7.057844
    32  C    8.525459   7.459549   2.421709   4.052208   7.931644
    33  H    7.403665   6.572962   2.148749   2.446125   6.179018
    34  C    7.624698   8.737826   7.558317   4.941800   2.409154
    35  H    6.864162   8.496203   8.194680   5.843284   2.144229
    36  H    8.605697   9.185420   7.190790   4.587189   3.859086
    37  H    3.392317   3.392036   8.587376   9.243831   8.624579
    38  C    8.743953   7.620115   2.802355   4.940696   8.708529
    39  H    8.238812   7.186513   3.400487   5.843645   9.147346
    40  H    9.428307   8.329980   3.400476   4.585006   8.478973
    41  H    8.590823   9.772737   8.588933   5.937569   3.392325
    42  H    9.778506   8.586985   3.886469   5.936405   9.741223
                   16         17         18         19         20
    16  C    0.000000
    17  C    7.913663   0.000000
    18  H    6.115071   2.145291   0.000000
    19  C    8.365967   2.402446   3.859422   0.000000
    20  H    7.121978   3.858974   4.283822   2.145303   0.000000
    21  C    6.627673   7.519623   6.670274   6.766174   5.004090
    22  C    5.365510   8.516159   7.435525   7.743120   5.725056
    23  C    2.774316   7.740636   5.731273   8.945262   8.300008
    24  H    3.385823   5.794888   3.698886   7.122547   6.659260
    25  C    1.388861   8.902572   7.039586   9.544109   8.421542
    26  H    1.084834   8.235079   6.583662   8.377651   6.911393
    27  C    8.713133   1.390079   3.390052   1.390101   3.389888
    28  H    8.440876   1.084351   2.465154   3.387168   4.943312
    29  H    9.190241   3.387180   4.943772   1.084359   2.465561
    30  C    7.665654   8.811268   8.043777   7.899289   6.099361
    31  H    6.942862   6.809367   6.050710   6.174647   4.649710
    32  C    6.604154   9.676220   8.689239   8.751269   6.704085
    33  H    4.622091   8.642169   7.472699   7.941808   5.926349
    34  C    2.408903   8.830437   6.880543   9.808015   8.949728
    35  H    3.858628   7.936946   5.933522   9.384788   8.951389
    36  H    2.144469   9.869703   8.060508  10.379218   9.147900
    37  H    9.745587   2.150485   4.285405   2.150465   4.285346
    38  C    7.660043   9.812181   8.961092   8.825101   6.871567
    39  H    8.636768   9.151633   8.513441   8.216823   6.566015
    40  H    6.901424  10.593068   9.578007   9.628157   7.537771
    41  H    3.392092   9.754490   7.812049  10.810289  10.003076
    42  H    8.628428  10.814137  10.013785   9.749640   7.804566
                   21         22         23         24         25
    21  C    0.000000
    22  C    2.401148   0.000000
    23  C    8.339678   7.663388   0.000000
    24  H    7.057108   6.938381   2.145221   0.000000
    25  C    7.934139   6.605193   2.402396   3.859344   0.000000
    26  H    6.184005   4.623169   3.858996   4.283837   2.145356
    27  C    7.658152   8.708352   8.856329   6.961352   9.785612
    28  H    8.410540   9.434628   7.916266   5.987621   9.319851
    29  H    7.172341   8.158129   9.929955   8.153613  10.395790
    30  C    1.388824   2.774442   9.514051   8.348527   8.928391
    31  H    1.084794   3.385432   8.348239   6.841814   8.251212
    32  C    2.774430   1.388819   8.926672   8.248218   7.770528
    33  H    3.385417   1.084800   7.118603   6.637291   5.818196
    34  C    8.709358   7.659884   1.390070   3.389995   1.390095
    35  H    9.145591   8.633852   1.084348   2.465033   3.387137
    36  H    8.482109   6.903971   3.387136   4.943698   1.084363
    37  H    8.626865   9.740473   9.783646   7.899256  10.785361
    38  C    2.408878   2.408889   9.781478   8.882743   8.860440
    39  H    2.144453   3.858761  10.344405   9.066139   9.895553
    40  H    3.858751   2.144441   9.369482   8.905073   7.969536
    41  H    9.741711   8.628862   2.150513   4.285366   2.150453
    42  H    3.392063   3.392069  10.781315   9.931179   9.787018
                   26         27         28         29         30
    26  H    0.000000
    27  C    8.890770   0.000000
    28  H    8.873006   2.149185   0.000000
    29  H    9.112160   2.149210   4.286129   0.000000
    30  C    7.121630   8.858419   9.713070   8.187743   0.000000
    31  H    6.643746   6.967507   7.659559   6.622726   2.145313
    32  C    5.817122   9.781209  10.612738   9.064453   2.402462
    33  H    3.763276   8.882959   9.545327   8.389951   3.859075
    34  C    3.389959   9.854103   9.090631  10.735298   9.782234
    35  H    4.943333   9.140823   7.965531  10.405246  10.343562
    36  H    2.465578  10.693721  10.320903  11.182394   9.371467
    37  H    9.938618   1.084125   2.479166   2.479130   9.785193
    38  C    6.969712   9.852816  10.742344   9.081769   1.390081
    39  H    8.143918   9.145552  10.026193   8.450421   1.084353
    40  H    6.021000  10.687317  11.536561   9.911531   3.387152
    41  H    4.285396  10.806609   9.950727  11.741911  10.781792
    42  H    7.906179  10.805303  11.748467   9.942599   2.150451
                   31         32         33         34         35
    31  H    0.000000
    32  C    3.859055   0.000000
    33  H    4.283308   2.145356   0.000000
    34  C    8.883693   8.860047   6.969499   0.000000
    35  H    9.064207   9.893547   8.140394   2.149187   0.000000
    36  H    8.908597   7.970392   6.024369   2.149200   4.286112
    37  H    7.904829  10.780480   9.930542  10.806835  10.007356
    38  C    3.389900   1.390094   3.389946   9.854100  10.686951
    39  H    2.465597   3.387150   4.943418  10.688111  11.122726
    40  H    4.943399   1.084354   2.465647   9.147341  10.372571
    41  H    9.931470   9.787155   7.907066   1.084123   2.479233
    42  H    4.285343   2.150458   4.285392  10.806525  11.688828
                   36         37         38         39         40
    36  H    0.000000
    37  H   11.695331   0.000000
    38  C    9.148051  10.805008   0.000000
    39  H   10.374492  10.011532   2.149134   0.000000
    40  H    8.023201  11.688386   2.149152   4.286037   0.000000
    41  H    2.479104  11.732162  10.806626  11.689465  10.013697
    42  H   10.013557  11.730259   1.084114   2.479039   2.479054
                   41         42
    41  H    0.000000
    42  H   11.731844   0.000000
 Stoichiometry    C24H18
 Framework group  C1[X(C24H18)]
 Deg. of freedom   120
 Full point group                 C1      NOp   1
 Largest Abelian subgroup         C1      NOp   1
 Largest concise Abelian subgroup C1      NOp   1
                         Standard orientation:                         
 ---------------------------------------------------------------------
 Center     Atomic      Atomic             Coordinates (Angstroms)
 Number     Number       Type             X           Y           Z
 ---------------------------------------------------------------------
      1          6           0       -0.450836    1.326959   -0.040607
      2          6           0       -1.358615    0.268925   -0.050316
      3          6           0        0.913377    1.042953    0.009266
      4          6           0       -0.923591   -1.055026   -0.010427
      5          1           0       -2.422140    0.479538   -0.089421
      6          6           0       -0.928107    2.731570   -0.100008
      7          6           0        1.374602   -0.272299    0.050197
      8          1           0        1.628978    1.857480   -0.028412
      9          6           0        0.445856   -1.312326    0.040102
     10          6           0       -1.902661   -2.171093   -0.003394
     11          6           0       -2.060620    3.132559    0.612601
     12          6           0       -0.253493    3.681500   -0.870572
     13          6           0        2.829841   -0.560617    0.103929
     14          1           0        0.792991   -2.337276    0.117154
     15          6           0       -3.054670   -2.106152    0.783917
     16          6           0       -1.692058   -3.309309   -0.785275
     17          6           0       -2.505544    4.447093    0.557311
     18          1           0       -2.609401    2.402186    1.197501
     19          6           0       -0.697751    4.996157   -0.926657
     20          1           0        0.639372    3.390832   -1.413855
     21          6           0        3.674117    0.179330    0.935077
     22          6           0        3.385310   -1.578138   -0.675329
     23          6           0       -3.970755   -3.150066    0.789213
     24          1           0       -3.222365   -1.239133    1.413891
     25          6           0       -2.607455   -4.353800   -0.780482
     26          1           0       -0.812836   -3.366270   -1.418196
     27          6           0       -1.825296    5.383927   -0.212055
     28          1           0       -3.391364    4.738420    1.110725
     29          1           0       -0.156968    5.721638   -1.524206
     30          6           0        5.035619   -0.090047    0.985872
     31          1           0        3.255183    0.958500    1.562904
     32          6           0        4.746577   -1.848772   -0.625080
     33          1           0        2.746867   -2.147665   -1.342278
     34          6           0       -3.750533   -4.277794    0.006893
     35          1           0       -4.855479   -3.085568    1.412842
     36          1           0       -2.431100   -5.226364   -1.399653
     37          1           0       -2.172592    6.409998   -0.255541
     38          6           0        5.576835   -1.105430    0.205869
     39          1           0        5.674473    0.489657    1.642858
     40          1           0        5.161326   -2.637493   -1.242921
     41          1           0       -4.465355   -5.092863    0.011000
     42          1           0        6.639524   -1.316236    0.245339
 ---------------------------------------------------------------------
 Rotational constants (GHZ):           0.1981201           0.1976892           0.1036031
 Leave Link  202 at Mon Nov 14 15:17:20 2022, MaxMem= 16106127360 cpu:               0.4 elap:               0.0
 (Enter /opt/ap/G16/B01/g16/l301.exe)
 Standard basis: 6-311++G(d,p) (5D, 7F)
 Ernie: Thresh=  0.10000D-02 Tol=  0.10000D-05 Strict=F.
 There are   678 symmetry adapted cartesian basis functions of A   symmetry.
 There are   654 symmetry adapted basis functions of A   symmetry.
   654 basis functions,  1026 primitive gaussians,   678 cartesian basis functions
    81 alpha electrons       81 beta electrons
       nuclear repulsion energy      1732.8850466339 Hartrees.
 IExCor= 4639 DFT=T Ex+Corr=wB97XD ExCW=0 ScaHFX=  1.000000
 ScaDFX=  1.000000  1.000000  1.000000  1.000000 ScalE2=  1.000000  1.000000
 IRadAn=      5 IRanWt=     -1 IRanGd=            0 ICorTp=0 IEmpDi=121
 HFx  wShort=  0.000000 wLong=  0.200000 cFull=  0.222036 cShort=  0.000000 cLong=  0.777964
 DFx  wShort=  0.000000 wLong=  0.200000 cFull=  0.000000 cShort=  0.000000 cLong=  1.000000
 NAtoms=   42 NActive=   42 NUniq=   42 SFac= 1.00D+00 NAtFMM=   60 NAOKFM=F Big=F
 Integral buffers will be    131072 words long.
 Raffenetti 2 integral format.
 Two-electron integral symmetry is turned on.
 R6Disp:  Grimme-D2 Dispersion energy=       -0.0289883609 Hartrees.
 Nuclear repulsion after empirical dispersion term =     1732.8560582731 Hartrees.
 Leave Link  301 at Mon Nov 14 15:17:20 2022, MaxMem= 16106127360 cpu:               1.2 elap:               0.0
 (Enter /opt/ap/G16/B01/g16/l302.exe)
 NPDir=0 NMtPBC=     1 NCelOv=     1 NCel=       1 NClECP=     1 NCelD=      1
         NCelK=      1 NCelE2=     1 NClLst=     1 CellRange=     0.0.
 One-electron integrals computed using PRISM.
 One-electron integral symmetry used in STVInt
 NBasis=   654 RedAO= T EigKep=  1.22D-06  NBF=   654
 NBsUse=   645 1.00D-06 EigRej=  7.63D-07 NBFU=   645
 Precomputing XC quadrature grid using
 IXCGrd= 4 IRadAn=           5 IRanWt=          -1 IRanGd=           0 AccXCQ= 0.00D+00.
 Generated NRdTot=       0 NPtTot=           0 NUsed=           0 NTot=          32
 NSgBfM=   669   669   669   669   669 MxSgAt=    42 MxSgA2=    42.
 Leave Link  302 at Mon Nov 14 15:17:21 2022, MaxMem= 16106127360 cpu:              20.8 elap:               0.7
 (Enter /opt/ap/G16/B01/g16/l303.exe)
 DipDrv:  MaxL=1.
 Leave Link  303 at Mon Nov 14 15:17:21 2022, MaxMem= 16106127360 cpu:               7.5 elap:               0.3
 (Enter /opt/ap/G16/B01/g16/l401.exe)
 ExpMin= 3.60D-02 ExpMax= 4.56D+03 ExpMxC= 6.82D+02 IAcc=3 IRadAn=         5 AccDes= 0.00D+00
 Harris functional with IExCor= 4639 and IRadAn=       5 diagonalized for initial guess.
 HarFok:  IExCor= 4639 AccDes= 0.00D+00 IRadAn=         5 IDoV= 1 UseB2=F ITyADJ=14
 ICtDFT=  3500011 ScaDFX=  1.000000  1.000000  1.000000  1.000000
 FoFCou: FMM=F IPFlag=           0 FMFlag=      100000 FMFlg1=           0
         NFxFlg=           0 DoJE=T BraDBF=F KetDBF=T FulRan=T
         wScrn=  0.000000 ICntrl=       500 IOpCl=  0 I1Cent=   200000004 NGrid=           0
         NMat0=    1 NMatS0=      1 NMatT0=    0 NMatD0=    1 NMtDS0=    0 NMtDT0=    0
 Petite list used in FoFCou.
 Harris En= -882.969253420342    
 JPrj=0 DoOrth=F DoCkMO=F.
 Leave Link  401 at Mon Nov 14 15:17:23 2022, MaxMem= 16106127360 cpu:              56.4 elap:               1.8
 (Enter /opt/ap/G16/B01/g16/l502.exe)
 Integral symmetry usage will be decided dynamically.
 Closed shell SCF:
 Using DIIS extrapolation, IDIIS=  1040.
 NGot= 16106127360 LenX= 16105179956 LenY= 16104719594
 Requested convergence on RMS density matrix=1.00D-08 within 512 cycles.
 Requested convergence on MAX density matrix=1.00D-06.
 Requested convergence on             energy=1.00D-06.
 No special actions if energy rises.
 Fock matrices will be formed incrementally for  20 cycles.

 Cycle   1  Pass 1  IDiag  1:
 FoFJK:  IHMeth= 1 ICntrl=       0 DoSepK=T KAlg= 0 I1Cent=           0 FoldK=F
 IRaf=         1 NMat=       1 IRICut=       1 DoRegI=T DoRafI=F ISym2E= 0 IDoP0=0 IntGTp=1.
 FoFCou: FMM=F IPFlag=           0 FMFlag=      100000 FMFlg1=           0
         NFxFlg=           0 DoJE=T BraDBF=F KetDBF=F FulRan=T
         wScrn=  0.000000 ICntrl=       500 IOpCl=  0 I1Cent=           0 NGrid=           0
         NMat0=    1 NMatS0=      1 NMatT0=    0 NMatD0=    1 NMtDS0=    0 NMtDT0=    0
 Symmetry not used in FoFCou.
 E= -925.116136439105    
 DIIS: error= 4.79D-02 at cycle   1 NSaved=   1.
 NSaved= 1 IEnMin= 1 EnMin= -925.116136439105     IErMin= 1 ErrMin= 4.79D-02
 ErrMax= 4.79D-02  0.00D+00 EMaxC= 1.00D-01 BMatC= 1.90D+00 BMatP= 1.90D+00
 IDIUse=3 WtCom= 5.21D-01 WtEn= 4.79D-01
 Coeff-Com:  0.100D+01
 Coeff-En:   0.100D+01
 Coeff:      0.100D+01
 Gap=     0.317 Goal=   None    Shift=    0.000
 GapD=    0.317 DampG=1.000 DampE=0.500 DampFc=0.5000 IDamp=-1.
 Damping current iteration by 5.00D-01
 RMSDP=3.84D-02 MaxDP=4.70D+00              OVMax= 4.32D-02

 Cycle   2  Pass 1  IDiag  1:
 RMSU=  7.12D-03    CP:  8.14D-01
 E= -925.214731466197     Delta-E=       -0.098595027092 Rises=F Damp=T
 DIIS: error= 2.28D-02 at cycle   2 NSaved=   2.
 NSaved= 2 IEnMin= 2 EnMin= -925.214731466197     IErMin= 2 ErrMin= 2.28D-02
 ErrMax= 2.28D-02  0.00D+00 EMaxC= 1.00D-01 BMatC= 4.32D-01 BMatP= 1.90D+00
 IDIUse=3 WtCom= 7.72D-01 WtEn= 2.28D-01
 Coeff-Com: -0.883D+00 0.188D+01
 Coeff-En:   0.000D+00 0.100D+01
 Coeff:     -0.681D+00 0.168D+01
 Gap=     0.325 Goal=   None    Shift=    0.000
 RMSDP=2.25D-02 MaxDP=2.17D+00 DE=-9.86D-02 OVMax= 3.38D-02

 Cycle   3  Pass 1  IDiag  1:
 RMSU=  3.22D-03    CP:  5.83D-01  1.34D+00
 E= -925.303165672669     Delta-E=       -0.088434206471 Rises=F Damp=F
 DIIS: error= 3.21D-03 at cycle   3 NSaved=   3.
 NSaved= 3 IEnMin= 3 EnMin= -925.303165672669     IErMin= 3 ErrMin= 3.21D-03
 ErrMax= 3.21D-03  0.00D+00 EMaxC= 1.00D-01 BMatC= 8.64D-03 BMatP= 4.32D-01
 IDIUse=3 WtCom= 9.68D-01 WtEn= 3.21D-02
 Coeff-Com: -0.369D+00 0.783D+00 0.586D+00
 Coeff-En:   0.000D+00 0.000D+00 0.100D+01
 Coeff:     -0.357D+00 0.758D+00 0.599D+00
 Gap=     0.323 Goal=   None    Shift=    0.000
 RMSDP=2.39D-03 MaxDP=1.96D-01 DE=-8.84D-02 OVMax= 1.94D-02

 Cycle   4  Pass 1  IDiag  1:
 RMSU=  1.33D-03    CP:  5.87D-01  1.55D+00  6.31D-01
 E= -925.311093141561     Delta-E=       -0.007927468892 Rises=F Damp=F
 DIIS: error= 7.48D-04 at cycle   4 NSaved=   4.
 NSaved= 4 IEnMin= 4 EnMin= -925.311093141561     IErMin= 4 ErrMin= 7.48D-04
 ErrMax= 7.48D-04  0.00D+00 EMaxC= 1.00D-01 BMatC= 2.75D-04 BMatP= 8.64D-03
 IDIUse=3 WtCom= 9.93D-01 WtEn= 7.48D-03
 Coeff-Com: -0.113D+00 0.240D+00 0.236D+00 0.636D+00
 Coeff-En:   0.000D+00 0.000D+00 0.000D+00 0.100D+01
 Coeff:     -0.112D+00 0.238D+00 0.235D+00 0.639D+00
 Gap=     0.322 Goal=   None    Shift=    0.000
 RMSDP=7.27D-04 MaxDP=5.75D-02 DE=-7.93D-03 OVMax= 4.23D-03

 Cycle   5  Pass 1  IDiag  1:
 RMSU=  2.66D-04    CP:  5.81D-01  1.59D+00  6.63D-01  8.53D-01
 E= -925.311382637592     Delta-E=       -0.000289496031 Rises=F Damp=F
 DIIS: error= 1.82D-04 at cycle   5 NSaved=   5.
 NSaved= 5 IEnMin= 5 EnMin= -925.311382637592     IErMin= 5 ErrMin= 1.82D-04
 ErrMax= 1.82D-04  0.00D+00 EMaxC= 1.00D-01 BMatC= 2.03D-05 BMatP= 2.75D-04
 IDIUse=3 WtCom= 9.98D-01 WtEn= 1.82D-03
 Coeff-Com:  0.264D-01-0.562D-01-0.261D-01 0.195D+00 0.861D+00
 Coeff-En:   0.000D+00 0.000D+00 0.000D+00 0.000D+00 0.100D+01
 Coeff:      0.263D-01-0.560D-01-0.261D-01 0.195D+00 0.861D+00
 Gap=     0.322 Goal=   None    Shift=    0.000
 RMSDP=1.65D-04 MaxDP=7.39D-03 DE=-2.89D-04 OVMax= 1.52D-03

 Cycle   6  Pass 1  IDiag  1:
 RMSU=  7.25D-05    CP:  5.80D-01  1.59D+00  6.77D-01  9.31D-01  1.23D+00
 E= -925.311408705204     Delta-E=       -0.000026067612 Rises=F Damp=F
 DIIS: error= 5.50D-05 at cycle   6 NSaved=   6.
 NSaved= 6 IEnMin= 6 EnMin= -925.311408705204     IErMin= 6 ErrMin= 5.50D-05
 ErrMax= 5.50D-05  0.00D+00 EMaxC= 1.00D-01 BMatC= 1.39D-06 BMatP= 2.03D-05
 IDIUse=1 WtCom= 1.00D+00 WtEn= 0.00D+00
 Coeff-Com:  0.134D-01-0.285D-01-0.167D-01 0.537D-01 0.330D+00 0.648D+00
 Coeff:      0.134D-01-0.285D-01-0.167D-01 0.537D-01 0.330D+00 0.648D+00
 Gap=     0.322 Goal=   None    Shift=    0.000
 RMSDP=6.91D-05 MaxDP=5.91D-03 DE=-2.61D-05 OVMax= 3.60D-04

 Cycle   7  Pass 1  IDiag  1:
 RMSU=  4.13D-05    CP:  5.81D-01  1.59D+00  6.77D-01  9.58D-01  1.17D+00
                    CP:  8.52D-01
 E= -925.311410412597     Delta-E=       -0.000001707393 Rises=F Damp=F
 DIIS: error= 1.29D-05 at cycle   7 NSaved=   7.
 NSaved= 7 IEnMin= 7 EnMin= -925.311410412597     IErMin= 7 ErrMin= 1.29D-05
 ErrMax= 1.29D-05  0.00D+00 EMaxC= 1.00D-01 BMatC= 1.01D-07 BMatP= 1.39D-06
 IDIUse=1 WtCom= 1.00D+00 WtEn= 0.00D+00
 Coeff-Com: -0.250D-02 0.535D-02 0.230D-02-0.285D-01-0.105D+00 0.975D-01
 Coeff-Com:  0.103D+01
 Coeff:     -0.250D-02 0.535D-02 0.230D-02-0.285D-01-0.105D+00 0.975D-01
 Coeff:      0.103D+01
 Gap=     0.322 Goal=   None    Shift=    0.000
 RMSDP=1.73D-05 MaxDP=1.15D-03 DE=-1.71D-06 OVMax= 2.54D-04

 Cycle   8  Pass 1  IDiag  1:
 RMSU=  5.85D-06    CP:  5.81D-01  1.59D+00  6.79D-01  9.60D-01  1.20D+00
                    CP:  9.51D-01  1.19D+00
 E= -925.311410648788     Delta-E=       -0.000000236192 Rises=F Damp=F
 DIIS: error= 3.04D-06 at cycle   8 NSaved=   8.
 NSaved= 8 IEnMin= 8 EnMin= -925.311410648788     IErMin= 8 ErrMin= 3.04D-06
 ErrMax= 3.04D-06  0.00D+00 EMaxC= 1.00D-01 BMatC= 4.15D-09 BMatP= 1.01D-07
 IDIUse=1 WtCom= 1.00D+00 WtEn= 0.00D+00
 Coeff-Com: -0.710D-03 0.152D-02 0.874D-03-0.542D-02-0.209D-01-0.179D-02
 Coeff-Com:  0.802D-01 0.946D+00
 Coeff:     -0.710D-03 0.152D-02 0.874D-03-0.542D-02-0.209D-01-0.179D-02
 Coeff:      0.802D-01 0.946D+00
 Gap=     0.322 Goal=   None    Shift=    0.000
 RMSDP=2.81D-06 MaxDP=1.89D-04 DE=-2.36D-07 OVMax= 5.05D-05

 Cycle   9  Pass 1  IDiag  1:
 RMSU=  1.03D-06    CP:  5.81D-01  1.59D+00  6.80D-01  9.60D-01  1.20D+00
                    CP:  9.56D-01  1.23D+00  1.26D+00
 E= -925.311410658592     Delta-E=       -0.000000009803 Rises=F Damp=F
 DIIS: error= 1.81D-06 at cycle   9 NSaved=   9.
 NSaved= 9 IEnMin= 9 EnMin= -925.311410658592     IErMin= 9 ErrMin= 1.81D-06
 ErrMax= 1.81D-06  0.00D+00 EMaxC= 1.00D-01 BMatC= 1.01D-09 BMatP= 4.15D-09
 IDIUse=1 WtCom= 1.00D+00 WtEn= 0.00D+00
 Coeff-Com:  0.182D-03-0.394D-03-0.451D-04 0.314D-02 0.115D-01-0.146D-01
 Coeff-Com: -0.163D+00 0.345D+00 0.818D+00
 Coeff:      0.182D-03-0.394D-03-0.451D-04 0.314D-02 0.115D-01-0.146D-01
 Coeff:     -0.163D+00 0.345D+00 0.818D+00
 Gap=     0.322 Goal=   None    Shift=    0.000
 RMSDP=1.39D-06 MaxDP=8.87D-05 DE=-9.80D-09 OVMax= 2.93D-05

 Cycle  10  Pass 1  IDiag  1:
 RMSU=  4.95D-07    CP:  5.81D-01  1.59D+00  6.80D-01  9.59D-01  1.20D+00
                    CP:  9.57D-01  1.24D+00  1.39D+00  9.53D-01
 E= -925.311410660703     Delta-E=       -0.000000002111 Rises=F Damp=F
 DIIS: error= 4.85D-07 at cycle  10 NSaved=  10.
 NSaved=10 IEnMin=10 EnMin= -925.311410660703     IErMin=10 ErrMin= 4.85D-07
 ErrMax= 4.85D-07  0.00D+00 EMaxC= 1.00D-01 BMatC= 1.03D-10 BMatP= 1.01D-09
 IDIUse=1 WtCom= 1.00D+00 WtEn= 0.00D+00
 Coeff-Com:  0.897D-04-0.193D-03-0.511D-04 0.116D-02 0.407D-02-0.284D-02
 Coeff-Com: -0.475D-01 0.769D-02 0.262D+00 0.776D+00
 Coeff:      0.897D-04-0.193D-03-0.511D-04 0.116D-02 0.407D-02-0.284D-02
 Coeff:     -0.475D-01 0.769D-02 0.262D+00 0.776D+00
 Gap=     0.322 Goal=   None    Shift=    0.000
 RMSDP=3.59D-07 MaxDP=3.53D-05 DE=-2.11D-09 OVMax= 6.94D-06

 Cycle  11  Pass 1  IDiag  1:
 RMSU=  1.74D-07    CP:  5.81D-01  1.59D+00  6.80D-01  9.60D-01  1.20D+00
                    CP:  9.56D-01  1.24D+00  1.41D+00  1.20D+00  8.61D-01
 E= -925.311410660852     Delta-E=       -0.000000000150 Rises=F Damp=F
 DIIS: error= 2.08D-07 at cycle  11 NSaved=  11.
 NSaved=11 IEnMin=11 EnMin= -925.311410660852     IErMin=11 ErrMin= 2.08D-07
 ErrMax= 2.08D-07  0.00D+00 EMaxC= 1.00D-01 BMatC= 3.09D-11 BMatP= 1.03D-10
 IDIUse=1 WtCom= 1.00D+00 WtEn= 0.00D+00
 Coeff-Com:  0.195D-04-0.412D-04-0.175D-04 0.105D-03 0.205D-03 0.120D-02
 Coeff-Com:  0.184D-02-0.641D-01 0.173D-01 0.412D+00 0.631D+00
 Coeff:      0.195D-04-0.412D-04-0.175D-04 0.105D-03 0.205D-03 0.120D-02
 Coeff:      0.184D-02-0.641D-01 0.173D-01 0.412D+00 0.631D+00
 Gap=     0.322 Goal=   None    Shift=    0.000
 RMSDP=1.54D-07 MaxDP=1.18D-05 DE=-1.50D-10 OVMax= 2.68D-06

 Cycle  12  Pass 1  IDiag  1:
 RMSU=  6.15D-08    CP:  5.81D-01  1.59D+00  6.80D-01  9.60D-01  1.20D+00
                    CP:  9.56D-01  1.24D+00  1.41D+00  1.18D+00  1.07D+00
                    CP:  8.73D-01
 E= -925.311410660849     Delta-E=        0.000000000003 Rises=F Damp=F
 DIIS: error= 8.57D-08 at cycle  12 NSaved=  12.
 NSaved=12 IEnMin=11 EnMin= -925.311410660852     IErMin=12 ErrMin= 8.57D-08
 ErrMax= 8.57D-08  0.00D+00 EMaxC= 1.00D-01 BMatC= 1.64D-12 BMatP= 3.09D-11
 IDIUse=1 WtCom= 1.00D+00 WtEn= 0.00D+00
 Coeff-Com: -0.141D-04 0.306D-04 0.109D-04-0.216D-03-0.791D-03 0.915D-03
 Coeff-Com:  0.945D-02-0.125D-01-0.335D-01-0.106D+00 0.325D-01 0.111D+01
 Coeff:     -0.141D-04 0.306D-04 0.109D-04-0.216D-03-0.791D-03 0.915D-03
 Coeff:      0.945D-02-0.125D-01-0.335D-01-0.106D+00 0.325D-01 0.111D+01
 Gap=     0.322 Goal=   None    Shift=    0.000
 RMSDP=7.03D-08 MaxDP=3.32D-06 DE= 3.18D-12 OVMax= 1.22D-06

 Cycle  13  Pass 1  IDiag  1:
 RMSU=  2.35D-08    CP:  5.81D-01  1.59D+00  6.80D-01  9.60D-01  1.20D+00
                    CP:  9.56D-01  1.24D+00  1.41D+00  1.21D+00  1.09D+00
                    CP:  9.84D-01  1.36D+00
 E= -925.311410660923     Delta-E=       -0.000000000074 Rises=F Damp=F
 DIIS: error= 2.06D-08 at cycle  13 NSaved=  13.
 NSaved=13 IEnMin=13 EnMin= -925.311410660923     IErMin=13 ErrMin= 2.06D-08
 ErrMax= 2.06D-08  0.00D+00 EMaxC= 1.00D-01 BMatC= 1.07D-13 BMatP= 1.64D-12
 IDIUse=1 WtCom= 1.00D+00 WtEn= 0.00D+00
 Coeff-Com: -0.302D-05 0.646D-05 0.297D-05-0.358D-04-0.119D-03 0.855D-04
 Coeff-Com:  0.116D-02 0.131D-02-0.344D-02-0.395D-01-0.417D-01 0.169D+00
 Coeff-Com:  0.913D+00
 Coeff:     -0.302D-05 0.646D-05 0.297D-05-0.358D-04-0.119D-03 0.855D-04
 Coeff:      0.116D-02 0.131D-02-0.344D-02-0.395D-01-0.417D-01 0.169D+00
 Coeff:      0.913D+00
 Gap=     0.322 Goal=   None    Shift=    0.000
 RMSDP=1.39D-08 MaxDP=1.13D-06 DE=-7.41D-11 OVMax= 2.89D-07

 Cycle  14  Pass 1  IDiag  1:
 RMSU=  4.25D-09    CP:  5.81D-01  1.59D+00  6.80D-01  9.60D-01  1.20D+00
                    CP:  9.56D-01  1.24D+00  1.41D+00  1.21D+00  1.09D+00
                    CP:  9.84D-01  1.47D+00  1.28D+00
 E= -925.311410660896     Delta-E=        0.000000000027 Rises=F Damp=F
 DIIS: error= 6.74D-09 at cycle  14 NSaved=  14.
 NSaved=14 IEnMin=13 EnMin= -925.311410660923     IErMin=14 ErrMin= 6.74D-09
 ErrMax= 6.74D-09  0.00D+00 EMaxC= 1.00D-01 BMatC= 3.75D-14 BMatP= 1.07D-13
 IDIUse=1 WtCom= 1.00D+00 WtEn= 0.00D+00
 Coeff-Com:  0.652D-06-0.144D-05-0.256D-06 0.146D-04 0.599D-04-0.913D-04
 Coeff-Com: -0.833D-03 0.230D-02 0.347D-02-0.332D-02-0.268D-01-0.878D-01
 Coeff-Com:  0.426D+00 0.687D+00
 Coeff:      0.652D-06-0.144D-05-0.256D-06 0.146D-04 0.599D-04-0.913D-04
 Coeff:     -0.833D-03 0.230D-02 0.347D-02-0.332D-02-0.268D-01-0.878D-01
 Coeff:      0.426D+00 0.687D+00
 Gap=     0.322 Goal=   None    Shift=    0.000
 RMSDP=8.46D-09 MaxDP=7.33D-07 DE= 2.68D-11 OVMax= 7.79D-08

 SCF Done:  E(RwB97XD) =  -925.311410661     A.U. after   14 cycles
            NFock= 14  Conv=0.85D-08     -V/T= 2.0044
 KE= 9.212974574324D+02 PE=-5.612109676153D+03 EE= 2.032644749787D+03
 Leave Link  502 at Mon Nov 14 15:19:48 2022, MaxMem= 16106127360 cpu:            4627.8 elap:             145.8
 (Enter /opt/ap/G16/B01/g16/l601.exe)
 Copying SCF densities to generalized density rwf, IOpCl= 0 IROHF=0.

 **********************************************************************

            Population analysis using the SCF Density.

 **********************************************************************

 Orbital symmetries:
       Occupied  (A) (A) (A) (A) (A) (A) (A) (A) (A) (A) (A) (A)
                 (A) (A) (A) (A) (A) (A) (A) (A) (A) (A) (A) (A)
                 (A) (A) (A) (A) (A) (A) (A) (A) (A) (A) (A) (A)
                 (A) (A) (A) (A) (A) (A) (A) (A) (A) (A) (A) (A)
                 (A) (A) (A) (A) (A) (A) (A) (A) (A) (A) (A) (A)
                 (A) (A) (A) (A) (A) (A) (A) (A) (A) (A) (A) (A)
                 (A) (A) (A) (A) (A) (A) (A) (A) (A)
       Virtual   (A) (A) (A) (A) (A) (A) (A) (A) (A) (A) (A) (A)
                 (A) (A) (A) (A) (A) (A) (A) (A) (A) (A) (A) (A)
                 (A) (A) (A) (A) (A) (A) (A) (A) (A) (A) (A) (A)
                 (A) (A) (A) (A) (A) (A) (A) (A) (A) (A) (A) (A)
                 (A) (A) (A) (A) (A) (A) (A) (A) (A) (A) (A) (A)
                 (A) (A) (A) (A) (A) (A) (A) (A) (A) (A) (A) (A)
                 (A) (A) (A) (A) (A) (A) (A) (A) (A) (A) (A) (A)
                 (A) (A) (A) (A) (A) (A) (A) (A) (A) (A) (A) (A)
                 (A) (A) (A) (A) (A) (A) (A) (A) (A) (A) (A) (A)
                 (A) (A) (A) (A) (A) (A) (A) (A) (A) (A) (A) (A)
                 (A) (A) (A) (A) (A) (A) (A) (A) (A) (A) (A) (A)
                 (A) (A) (A) (A) (A) (A) (A) (A) (A) (A) (A) (A)
                 (A) (A) (A) (A) (A) (A) (A) (A) (A) (A) (A) (A)
                 (A) (A) (A) (A) (A) (A) (A) (A) (A) (A) (A) (A)
                 (A) (A) (A) (A) (A) (A) (A) (A) (A) (A) (A) (A)
                 (A) (A) (A) (A) (A) (A) (A) (A) (A) (A) (A) (A)
                 (A) (A) (A) (A) (A) (A) (A) (A) (A) (A) (A) (A)
                 (A) (A) (A) (A) (A) (A) (A) (A) (A) (A) (A) (A)
                 (A) (A) (A) (A) (A) (A) (A) (A) (A) (A) (A) (A)
                 (A) (A) (A) (A) (A) (A) (A) (A) (A) (A) (A) (A)
                 (A) (A) (A) (A) (A) (A) (A) (A) (A) (A) (A) (A)
                 (A) (A) (A) (A) (A) (A) (A) (A) (A) (A) (A) (A)
                 (A) (A) (A) (A) (A) (A) (A) (A) (A) (A) (A) (A)
                 (A) (A) (A) (A) (A) (A) (A) (A) (A) (A) (A) (A)
                 (A) (A) (A) (A) (A) (A) (A) (A) (A) (A) (A) (A)
                 (A) (A) (A) (A) (A) (A) (A) (A) (A) (A) (A) (A)
                 (A) (A) (A) (A) (A) (A) (A) (A) (A) (A) (A) (A)
                 (A) (A) (A) (A) (A) (A) (A) (A) (A) (A) (A) (A)
                 (A) (A) (A) (A) (A) (A) (A) (A) (A) (A) (A) (A)
                 (A) (A) (A) (A) (A) (A) (A) (A) (A) (A) (A) (A)
                 (A) (A) (A) (A) (A) (A) (A) (A) (A) (A) (A) (A)
                 (A) (A) (A) (A) (A) (A) (A) (A) (A) (A) (A) (A)
                 (A) (A) (A) (A) (A) (A) (A) (A) (A) (A) (A) (A)
                 (A) (A) (A) (A) (A) (A) (A) (A) (A) (A) (A) (A)
                 (A) (A) (A) (A) (A) (A) (A) (A) (A) (A) (A) (A)
                 (A) (A) (A) (A) (A) (A) (A) (A) (A) (A) (A) (A)
                 (A) (A) (A) (A) (A) (A) (A) (A) (A) (A) (A) (A)
                 (A) (A) (A) (A) (A) (A) (A) (A) (A) (A) (A) (A)
                 (A) (A) (A) (A) (A) (A) (A) (A) (A) (A) (A) (A)
                 (A) (A) (A) (A) (A) (A) (A) (A) (A) (A) (A) (A)
                 (A) (A) (A) (A) (A) (A) (A) (A) (A) (A) (A) (A)
                 (A) (A) (A) (A) (A) (A) (A) (A) (A) (A) (A) (A)
                 (A) (A) (A) (A) (A) (A) (A) (A) (A) (A) (A) (A)
                 (A) (A) (A) (A) (A) (A) (A) (A) (A) (A) (A) (A)
                 (A) (A) (A) (A) (A) (A) (A) (A) (A) (A) (A) (A)
                 (A) (A) (A) (A) (A) (A) (A) (A) (A) (A) (A) (A)
                 (A) (A) (A) (A) (A) (A) (A) (A) (A) (A) (A) (A)
 The electronic state is 1-A.
 Alpha  occ. eigenvalues --  -10.30462 -10.30446 -10.30446 -10.30365 -10.30362
 Alpha  occ. eigenvalues --  -10.30337 -10.29286 -10.29276 -10.29275 -10.29264
 Alpha  occ. eigenvalues --  -10.29251 -10.29240 -10.29210 -10.29201 -10.29198
 Alpha  occ. eigenvalues --  -10.29186 -10.29160 -10.29145 -10.29138 -10.29115
 Alpha  occ. eigenvalues --  -10.29113 -10.29103 -10.29090 -10.29082  -0.99018
 Alpha  occ. eigenvalues --   -0.97087  -0.97074  -0.95289  -0.89460  -0.89453
 Alpha  occ. eigenvalues --   -0.85373  -0.85353  -0.85290  -0.85077  -0.82275
 Alpha  occ. eigenvalues --   -0.82261  -0.73634  -0.73583  -0.71164  -0.70805
 Alpha  occ. eigenvalues --   -0.70150  -0.70091  -0.66717  -0.66691  -0.63637
 Alpha  occ. eigenvalues --   -0.60756  -0.60725  -0.58663  -0.57353  -0.56754
 Alpha  occ. eigenvalues --   -0.54933  -0.54833  -0.54352  -0.54134  -0.52677
 Alpha  occ. eigenvalues --   -0.51847  -0.51579  -0.51500  -0.51172  -0.50905
 Alpha  occ. eigenvalues --   -0.50726  -0.48076  -0.46792  -0.46307  -0.45862
 Alpha  occ. eigenvalues --   -0.45792  -0.44933  -0.44383  -0.43190  -0.43146
 Alpha  occ. eigenvalues --   -0.42952  -0.41723  -0.41621  -0.36804  -0.36502
 Alpha  occ. eigenvalues --   -0.33663  -0.33643  -0.33632  -0.32983  -0.30313
 Alpha  occ. eigenvalues --   -0.30213
 Alpha virt. eigenvalues --    0.01995   0.02181   0.03670   0.04184   0.04265
 Alpha virt. eigenvalues --    0.04604   0.04822   0.04919   0.05094   0.05131
 Alpha virt. eigenvalues --    0.05192   0.05688   0.05856   0.06788   0.07034
 Alpha virt. eigenvalues --    0.07112   0.07944   0.08010   0.08321   0.08635
 Alpha virt. eigenvalues --    0.08755   0.09077   0.09268   0.10091   0.11037
 Alpha virt. eigenvalues --    0.11511   0.12160   0.12446   0.12823   0.13407
 Alpha virt. eigenvalues --    0.13698   0.13783   0.14346   0.14358   0.15432
 Alpha virt. eigenvalues --    0.15656   0.15786   0.15879   0.16127   0.16210
 Alpha virt. eigenvalues --    0.16523   0.16758   0.16985   0.17371   0.17434
 Alpha virt. eigenvalues --    0.17495   0.17740   0.18057   0.18082   0.18360
 Alpha virt. eigenvalues --    0.18381   0.18512   0.18526   0.18854   0.19164
 Alpha virt. eigenvalues --    0.19316   0.19485   0.19759   0.20253   0.20518
 Alpha virt. eigenvalues --    0.20599   0.20966   0.21136   0.21669   0.21735
 Alpha virt. eigenvalues --    0.22251   0.22336   0.22417   0.22922   0.23060
 Alpha virt. eigenvalues --    0.23340   0.23594   0.23731   0.23760   0.23871
 Alpha virt. eigenvalues --    0.24760   0.24825   0.25260   0.25368   0.25548
 Alpha virt. eigenvalues --    0.25770   0.25949   0.26575   0.26916   0.27424
 Alpha virt. eigenvalues --    0.27564   0.27659   0.27735   0.28297   0.28503
 Alpha virt. eigenvalues --    0.28640   0.29084   0.29328   0.29401   0.29496
 Alpha virt. eigenvalues --    0.29806   0.29842   0.30602   0.30996   0.31098
 Alpha virt. eigenvalues --    0.31520   0.32218   0.32435   0.33010   0.33117
 Alpha virt. eigenvalues --    0.33492   0.33818   0.33987   0.34387   0.34545
 Alpha virt. eigenvalues --    0.34834   0.34888   0.34930   0.35279   0.35683
 Alpha virt. eigenvalues --    0.35944   0.36431   0.36593   0.36764   0.36858
 Alpha virt. eigenvalues --    0.37225   0.37395   0.37874   0.38059   0.38338
 Alpha virt. eigenvalues --    0.38509   0.38870   0.39406   0.39589   0.39854
 Alpha virt. eigenvalues --    0.40129   0.40676   0.40906   0.41249   0.41648
 Alpha virt. eigenvalues --    0.41969   0.42168   0.42349   0.43003   0.43790
 Alpha virt. eigenvalues --    0.43936   0.44058   0.44557   0.44775   0.44837
 Alpha virt. eigenvalues --    0.45275   0.45937   0.47658   0.47786   0.48094
 Alpha virt. eigenvalues --    0.48475   0.49799   0.53230   0.53831   0.57183
 Alpha virt. eigenvalues --    0.58232   0.58553   0.59008   0.59113   0.60573
 Alpha virt. eigenvalues --    0.61931   0.62229   0.62480   0.62930   0.62989
 Alpha virt. eigenvalues --    0.63277   0.63727   0.63865   0.64088   0.64130
 Alpha virt. eigenvalues --    0.64261   0.65227   0.65287   0.65324   0.65756
 Alpha virt. eigenvalues --    0.65905   0.66478   0.67189   0.67406   0.67695
 Alpha virt. eigenvalues --    0.68629   0.69278   0.70078   0.70125   0.70649
 Alpha virt. eigenvalues --    0.70754   0.71244   0.71439   0.72033   0.72507
 Alpha virt. eigenvalues --    0.72981   0.73274   0.73720   0.74100   0.74224
 Alpha virt. eigenvalues --    0.75424   0.76115   0.76633   0.76919   0.78028
 Alpha virt. eigenvalues --    0.78567   0.78703   0.79888   0.80138   0.80311
 Alpha virt. eigenvalues --    0.80452   0.81148   0.81402   0.81899   0.82206
 Alpha virt. eigenvalues --    0.82493   0.82651   0.83127   0.83697   0.84063
 Alpha virt. eigenvalues --    0.84513   0.84958   0.85053   0.85158   0.85710
 Alpha virt. eigenvalues --    0.85885   0.86625   0.88167   0.88313   0.88678
 Alpha virt. eigenvalues --    0.89425   0.89925   0.91511   0.91576   0.92193
 Alpha virt. eigenvalues --    0.92311   0.92608   0.93266   0.93532   0.93841
 Alpha virt. eigenvalues --    0.94090   0.94523   0.94685   0.95854   0.96532
 Alpha virt. eigenvalues --    0.96700   0.97253   0.97271   0.98486   0.99170
 Alpha virt. eigenvalues --    0.99384   1.00290   1.00709   1.00913   1.01780
 Alpha virt. eigenvalues --    1.02459   1.02750   1.03931   1.04327   1.04488
 Alpha virt. eigenvalues --    1.05980   1.06141   1.06719   1.07063   1.07295
 Alpha virt. eigenvalues --    1.07801   1.08224   1.08798   1.09215   1.11587
 Alpha virt. eigenvalues --    1.11970   1.12662   1.12935   1.13288   1.13862
 Alpha virt. eigenvalues --    1.14721   1.14958   1.16066   1.17006   1.17189
 Alpha virt. eigenvalues --    1.18075   1.18764   1.19208   1.19471   1.21303
 Alpha virt. eigenvalues --    1.21575   1.22334   1.22763   1.23501   1.24046
 Alpha virt. eigenvalues --    1.24190   1.25021   1.25264   1.28871   1.29183
 Alpha virt. eigenvalues --    1.37244   1.39687   1.40906   1.41450   1.41834
 Alpha virt. eigenvalues --    1.45865   1.47373   1.47517   1.52427   1.55722
 Alpha virt. eigenvalues --    1.56502   1.58119   1.58408   1.59013   1.59227
 Alpha virt. eigenvalues --    1.59362   1.60059   1.60863   1.60979   1.61403
 Alpha virt. eigenvalues --    1.61709   1.62088   1.62514   1.63379   1.63519
 Alpha virt. eigenvalues --    1.64391   1.65584   1.65663   1.66027   1.66486
 Alpha virt. eigenvalues --    1.66747   1.67174   1.67669   1.68478   1.68728
 Alpha virt. eigenvalues --    1.69328   1.72574   1.73398   1.73989   1.74199
 Alpha virt. eigenvalues --    1.74233   1.75146   1.75527   1.76221   1.76243
 Alpha virt. eigenvalues --    1.77709   1.78166   1.81094   1.82028   1.82570
 Alpha virt. eigenvalues --    1.82797   1.82876   1.83894   1.84692   1.84894
 Alpha virt. eigenvalues --    1.85746   1.86348   1.86451   1.86843   1.87099
 Alpha virt. eigenvalues --    1.87648   1.89897   1.92263   1.92696   1.93228
 Alpha virt. eigenvalues --    1.93951   1.94136   1.97112   1.99737   1.99929
 Alpha virt. eigenvalues --    2.00332   2.01294   2.02233   2.02458   2.02831
 Alpha virt. eigenvalues --    2.03049   2.03104   2.03957   2.04417   2.04622
 Alpha virt. eigenvalues --    2.04695   2.04795   2.05567   2.05796   2.06115
 Alpha virt. eigenvalues --    2.06897   2.07279   2.07609   2.08496   2.08928
 Alpha virt. eigenvalues --    2.10710   2.11721   2.12508   2.12908   2.13125
 Alpha virt. eigenvalues --    2.13888   2.15490   2.15550   2.16800   2.17607
 Alpha virt. eigenvalues --    2.18217   2.18781   2.19658   2.20133   2.20256
 Alpha virt. eigenvalues --    2.24084   2.28178   2.30591   2.33948   2.35504
 Alpha virt. eigenvalues --    2.36683   2.36715   2.38397   2.39945   2.44034
 Alpha virt. eigenvalues --    2.44253   2.44679   2.45831   2.48088   2.49194
 Alpha virt. eigenvalues --    2.51658   2.52987   2.53133   2.53226   2.54604
 Alpha virt. eigenvalues --    2.55415   2.56231   2.56543   2.56663   2.58267
 Alpha virt. eigenvalues --    2.58453   2.58695   2.62248   2.62831   2.63602
 Alpha virt. eigenvalues --    2.72732   2.73172   2.73490   2.75662   2.75961
 Alpha virt. eigenvalues --    2.76188   2.76733   2.78790   2.79150   2.79637
 Alpha virt. eigenvalues --    2.80071   2.80264   2.80513   2.80626   2.81100
 Alpha virt. eigenvalues --    2.81285   2.82372   2.82657   2.83093   2.83402
 Alpha virt. eigenvalues --    2.83456   2.84128   2.85800   2.86154   2.87142
 Alpha virt. eigenvalues --    2.87525   2.87998   2.88244   2.90970   2.92005
 Alpha virt. eigenvalues --    2.92355   2.92429   2.92855   2.93162   2.93402
 Alpha virt. eigenvalues --    2.93783   2.94230   2.94596   2.94980   2.97756
 Alpha virt. eigenvalues --    2.99742   3.00291   3.01253   3.01715   3.02177
 Alpha virt. eigenvalues --    3.04230   3.04545   3.04706   3.05203   3.05579
 Alpha virt. eigenvalues --    3.06005   3.06559   3.07505   3.07745   3.11303
 Alpha virt. eigenvalues --    3.11841   3.15631   3.18238   3.19446   3.19808
 Alpha virt. eigenvalues --    3.21203   3.22760   3.25382   3.31860   3.32002
 Alpha virt. eigenvalues --    3.32390   3.33583   3.34853   3.35404   3.37325
 Alpha virt. eigenvalues --    3.47219   3.47482   3.49019   3.49417   3.49659
 Alpha virt. eigenvalues --    3.49867   3.53594   3.53730   3.60744   3.60984
 Alpha virt. eigenvalues --    3.61587   3.63250   3.64965   3.65392   3.66129
 Alpha virt. eigenvalues --    3.73684   3.73744   3.76231   3.76340   3.76735
 Alpha virt. eigenvalues --    3.77313   3.90841   3.91957   3.92768   4.09821
 Alpha virt. eigenvalues --    4.10066   4.10338   4.14463   4.14524   4.14606
 Alpha virt. eigenvalues --    4.24154   4.24328   4.26155   4.26190   4.26677
 Alpha virt. eigenvalues --    4.26968   4.28349   4.28741   4.50872   4.66944
 Alpha virt. eigenvalues --    4.67602   4.93625   4.95234   4.95705   4.98477
 Alpha virt. eigenvalues --   23.68157  23.81325  23.81768  23.88074  24.08444
 Alpha virt. eigenvalues --   24.08492  24.10811  24.10941  24.11130  24.11560
 Alpha virt. eigenvalues --   24.12840  24.13004  24.20551  24.20614  24.21008
 Alpha virt. eigenvalues --   24.24021  24.24324  24.24373  24.24509  24.24574
 Alpha virt. eigenvalues --   24.31171  24.33800  24.33816  24.34775
          Condensed to atoms (all electrons):
               1          2          3          4          5          6
     1  C   19.028069   0.224529   1.304713  -6.476261  -0.143015   0.745026
     2  C    0.224529  13.788244  -0.043935   1.860162   0.296845  -2.601684
     3  C    1.304713  -0.043935  11.015697  -1.924086   0.027650  -2.027182
     4  C   -6.476261   1.860162  -1.924086  19.437326   0.016461  -0.797013
     5  H   -0.143015   0.296845   0.027650   0.016461   0.532958   0.055004
     6  C    0.745026  -2.601684  -2.027182  -0.797013   0.055004  14.621221
     7  C   -5.759830  -2.744076   1.259254  -6.654031   0.106425  -0.346124
     8  H   -0.052333   0.104179   0.376696   0.042857  -0.000700  -0.051955
     9  C   -2.411497   0.057231   0.155760   1.511247   0.074073  -1.658342
    10  C   -0.551984  -2.387327  -1.657526   0.196278   0.037133   1.314787
    11  C   -1.479679   3.377818  -2.884616   1.468595  -0.155644  -1.404289
    12  C   -0.106251  -3.227446   2.601788  -0.859713   0.081644  -0.684246
    13  C   -0.192286  -1.636622  -1.950474  -0.940270  -0.017648   0.883844
    14  H    0.106948   0.067118   0.007839  -0.027041  -0.003391  -0.020175
    15  C    1.844154   2.508350  -0.058509  -1.168151  -0.158264  -0.194491
    16  C   -1.174474  -2.748965   0.080261  -1.189493   0.093412   0.197265
    17  C    0.153666   0.115916   0.081305   0.170227  -0.022242  -1.476020
    18  H    0.104110  -0.032852  -0.011455  -0.101278   0.001559  -0.019606
    19  C   -0.211182   0.254787   0.435291  -0.024795   0.021420  -2.117281
    20  H    0.012492  -0.092887   0.011120  -0.009009  -0.001767  -0.031467
    21  C    0.875463  -0.221169   2.197029  -0.952369  -0.007811   0.349845
    22  C   -0.861393   0.210155  -2.432483   1.542888   0.006051  -0.055801
    23  C    0.287716   0.465587   0.078503  -0.027134  -0.011494  -0.064612
    24  H   -0.078916  -0.059600  -0.021989   0.075510  -0.000666   0.003517
    25  C   -0.138053   0.178401   0.069545   0.032492   0.000100  -0.058688
    26  H    0.009106  -0.018021  -0.019621   0.079252  -0.001952   0.013308
    27  C   -0.178389  -0.097528  -0.110386  -0.028113  -0.004502  -0.114281
    28  H   -0.002234   0.005287   0.002111   0.006460  -0.001106   0.010699
    29  H    0.003919   0.013981  -0.001382   0.004741   0.000364   0.018901
    30  C    0.360171   0.091404   0.529975  -0.069848  -0.003248   0.045960
    31  H   -0.033626  -0.024040   0.001497  -0.013209   0.000051   0.034106
    32  C   -0.115229   0.062813   0.028797   0.247880   0.003884  -0.087875
    33  H    0.004870  -0.012794  -0.003792  -0.099647  -0.000088   0.015237
    34  C    0.015202  -0.128561  -0.023276  -0.295566   0.002608   0.048945
    35  H    0.004428   0.008149   0.000423   0.001401  -0.001002  -0.003944
    36  H    0.000198   0.005909   0.000500   0.002502   0.000141  -0.001245
    37  H   -0.005161  -0.005869  -0.002161  -0.000015   0.000193   0.027156
    38  C   -0.060639  -0.032454  -0.123059  -0.023767   0.000225   0.037232
    39  H    0.006100   0.001388   0.000248   0.004348  -0.000059  -0.002141
    40  H    0.000694   0.000516   0.001640   0.007381  -0.000014  -0.001043
    41  H    0.000808  -0.006652  -0.000774  -0.007666   0.000167   0.001283
    42  H    0.000420  -0.000873  -0.002784  -0.000079  -0.000002   0.000924
               7          8          9         10         11         12
     1  C   -5.759830  -0.052333  -2.411497  -0.551984  -1.479679  -0.106251
     2  C   -2.744076   0.104179   0.057231  -2.387327   3.377818  -3.227446
     3  C    1.259254   0.376696   0.155760  -1.657526  -2.884616   2.601788
     4  C   -6.654031   0.042857   1.511247   0.196278   1.468595  -0.859713
     5  H    0.106425  -0.000700   0.074073   0.037133  -0.155644   0.081644
     6  C   -0.346124  -0.051955  -1.658342   1.314787  -1.404289  -0.684246
     7  C   19.388962  -0.045452   0.305918  -0.211883  -0.945344   0.965523
     8  H   -0.045452   0.572853   0.104932  -0.037010   0.040222  -0.077651
     9  C    0.305918   0.104932  13.541130  -2.174954   0.155781  -0.079249
    10  C   -0.211883  -0.037010  -2.174954  14.320361  -0.162157   0.162607
    11  C   -0.945344   0.040222   0.155781  -0.162157  17.521981  -8.521052
    12  C    0.965523  -0.077651  -0.079249   0.162607  -8.521052  16.020370
    13  C    0.642846  -0.055972  -2.829109   1.265486  -0.062424   0.317821
    14  H   -0.093920  -0.001890   0.314925   0.018631   0.008843  -0.009154
    15  C   -1.154491  -0.002727  -2.345708  -1.007233   0.321418  -0.165073
    16  C    1.883749  -0.002304   2.287058  -0.765948  -0.178441   0.128133
    17  C   -0.070429   0.000846   0.048974  -0.122338  -0.561728   0.276862
    18  H    0.000259  -0.002002  -0.012765  -0.021469   0.455439  -0.034807
    19  C    0.299466   0.035241   0.078952  -0.029998   0.051829  -0.352164
    20  H   -0.029144  -0.019750  -0.021978   0.017152  -0.079930   0.590714
    21  C   -0.079738  -0.098686  -3.017390   0.143306   0.124854  -0.381106
    22  C   -1.473271   0.036727   2.984121  -0.048493  -0.045594   0.140453
    23  C   -0.148005   0.001591   0.111920  -1.774985  -0.047071   0.015441
    24  H    0.008042   0.000025  -0.016860   0.021417   0.027501  -0.007357
    25  C    0.190877   0.002292   0.331319  -1.683275   0.043786  -0.020926
    26  H   -0.077895  -0.000026  -0.066345   0.006234  -0.007951   0.007587
    27  C   -0.071910   0.005069  -0.024808   0.034213  -0.364170  -0.323158
    28  H    0.001384   0.000194   0.000253  -0.001904  -0.069363   0.005292
    29  H    0.005677   0.000518   0.001080  -0.001201   0.027999  -0.106213
    30  C   -0.198504   0.031609   0.226302  -0.036548   0.050664  -0.124497
    31  H    0.023652  -0.019220  -0.090473   0.016495   0.004483  -0.005186
    32  C    0.141375   0.005050   0.286524  -0.119308  -0.015337   0.039138
    33  H    0.099326  -0.003028  -0.044427  -0.004660   0.005588  -0.008330
    34  C    0.034098  -0.000724  -0.086778  -0.208852  -0.021181   0.006570
    35  H    0.000543  -0.000001   0.005672   0.016313   0.002023  -0.000486
    36  H    0.003879   0.000009   0.008700   0.020821   0.000671  -0.000340
    37  H    0.000186  -0.000314  -0.000739   0.001063  -0.019079   0.015576
    38  C   -0.216924   0.005712  -0.122085   0.041171   0.000267  -0.009613
    39  H    0.004570  -0.000058   0.013800  -0.001245   0.000314   0.000001
    40  H   -0.002517   0.000133   0.007229  -0.002770  -0.000116   0.000506
    41  H    0.001266  -0.000014  -0.005359   0.023644  -0.000524   0.000162
    42  H   -0.006302  -0.000216  -0.006553   0.001181   0.000038  -0.000173
              13         14         15         16         17         18
     1  C   -0.192286   0.106948   1.844154  -1.174474   0.153666   0.104110
     2  C   -1.636622   0.067118   2.508350  -2.748965   0.115916  -0.032852
     3  C   -1.950474   0.007839  -0.058509   0.080261   0.081305  -0.011455
     4  C   -0.940270  -0.027041  -1.168151  -1.189493   0.170227  -0.101278
     5  H   -0.017648  -0.003391  -0.158264   0.093412  -0.022242   0.001559
     6  C    0.883844  -0.020175  -0.194491   0.197265  -1.476020  -0.019606
     7  C    0.642846  -0.093920  -1.154491   1.883749  -0.070429   0.000259
     8  H   -0.055972  -0.001890  -0.002727  -0.002304   0.000846  -0.002002
     9  C   -2.829109   0.314925  -2.345708   2.287058   0.048974  -0.012765
    10  C    1.265486   0.018631  -1.007233  -0.765948  -0.122338  -0.021469
    11  C   -0.062424   0.008843   0.321418  -0.178441  -0.561728   0.455439
    12  C    0.317821  -0.009154  -0.165073   0.128133   0.276862  -0.034807
    13  C   15.156925   0.054949   0.172488  -0.129816  -0.071156   0.012514
    14  H    0.054949   0.498421   0.076724  -0.133412   0.003511   0.000086
    15  C    0.172488   0.076724  15.242328  -7.358955   0.014494   0.039308
    16  C   -0.129816  -0.133412  -7.358955  15.842768  -0.007888  -0.014365
    17  C   -0.071156   0.003511   0.014494  -0.007888   7.655668  -0.031449
    18  H    0.012514   0.000086   0.039308  -0.014365  -0.031449   0.518512
    19  C    0.035461  -0.002661   0.014029  -0.003786  -0.643738  -0.017749
    20  H    0.037819  -0.000040  -0.003483   0.003774  -0.000383   0.000144
    21  C   -0.444373   0.075590   0.110326  -0.133172   0.032319  -0.006370
    22  C   -1.632740  -0.136057  -0.128019   0.214625  -0.012884   0.004638
    23  C   -0.053507   0.010902  -0.126662  -0.222697  -0.019427   0.003290
    24  H    0.013041  -0.002348   0.437137  -0.011201  -0.006016  -0.005045
    25  C   -0.093194  -0.013878  -0.042389  -0.416311   0.005576   0.001754
    26  H    0.002191  -0.001908  -0.028718   0.461761  -0.001017  -0.000167
    27  C    0.031953   0.000247  -0.013882   0.004966   0.437080   0.021316
    28  H   -0.000708  -0.000025   0.000866  -0.000154   0.405681  -0.011767
    29  H   -0.002256  -0.000051   0.000437  -0.000175   0.006118  -0.000549
    30  C   -2.169232   0.019708  -0.005074   0.018160   0.001482  -0.000472
    31  H   -0.018990  -0.001795   0.004335  -0.004155  -0.000030   0.000163
    32  C   -1.573096  -0.014216  -0.005286  -0.000555   0.001146  -0.000035
    33  H    0.004121  -0.000121  -0.006571   0.022703  -0.000007   0.000223
    34  C    0.050386  -0.002118  -0.305267  -0.140666  -0.004002  -0.000714
    35  H   -0.001162   0.000345  -0.083387  -0.001327   0.000659   0.000462
    36  H   -0.004152  -0.000627   0.003899  -0.091402   0.000030   0.000075
    37  H    0.000819  -0.000002  -0.000497   0.000163  -0.059848   0.001300
    38  C   -0.161013  -0.003353   0.005014  -0.015201  -0.000452   0.000010
    39  H    0.021132   0.000397  -0.000128   0.000380   0.000038   0.000010
    40  H    0.009027  -0.001010  -0.000313   0.001353   0.000004  -0.000005
    41  H    0.001300  -0.000006   0.004300   0.011099  -0.000118  -0.000071
    42  H    0.027604   0.000225   0.000166  -0.000520  -0.000010   0.000003
              19         20         21         22         23         24
     1  C   -0.211182   0.012492   0.875463  -0.861393   0.287716  -0.078916
     2  C    0.254787  -0.092887  -0.221169   0.210155   0.465587  -0.059600
     3  C    0.435291   0.011120   2.197029  -2.432483   0.078503  -0.021989
     4  C   -0.024795  -0.009009  -0.952369   1.542888  -0.027134   0.075510
     5  H    0.021420  -0.001767  -0.007811   0.006051  -0.011494  -0.000666
     6  C   -2.117281  -0.031467   0.349845  -0.055801  -0.064612   0.003517
     7  C    0.299466  -0.029144  -0.079738  -1.473271  -0.148005   0.008042
     8  H    0.035241  -0.019750  -0.098686   0.036727   0.001591   0.000025
     9  C    0.078952  -0.021978  -3.017390   2.984121   0.111920  -0.016860
    10  C   -0.029998   0.017152   0.143306  -0.048493  -1.774985   0.021417
    11  C    0.051829  -0.079930   0.124854  -0.045594  -0.047071   0.027501
    12  C   -0.352164   0.590714  -0.381106   0.140453   0.015441  -0.007357
    13  C    0.035461   0.037819  -0.444373  -1.632740  -0.053507   0.013041
    14  H   -0.002661  -0.000040   0.075590  -0.136057   0.010902  -0.002348
    15  C    0.014029  -0.003483   0.110326  -0.128019  -0.126662   0.437137
    16  C   -0.003786   0.003774  -0.133172   0.214625  -0.222697  -0.011201
    17  C   -0.643738  -0.000383   0.032319  -0.012884  -0.019427  -0.006016
    18  H   -0.017749   0.000144  -0.006370   0.004638   0.003290  -0.005045
    19  C    8.158800  -0.098420  -0.117701   0.045729   0.006825   0.001390
    20  H   -0.098420   0.506185  -0.009028   0.010735  -0.000639  -0.000007
    21  C   -0.117701  -0.009028  17.032528  -9.049918  -0.019390   0.005963
    22  C    0.045729   0.010735  -9.049918  17.910415   0.034779  -0.005624
    23  C    0.006825  -0.000639  -0.019390   0.034779   7.696513  -0.072635
    24  H    0.001390  -0.000007   0.005963  -0.005624  -0.072635   0.499136
    25  C   -0.001092  -0.000540   0.006641  -0.024369  -0.441335  -0.015993
    26  H    0.000021   0.000374  -0.007200   0.028345  -0.017951   0.000831
    27  C    0.356660   0.022475  -0.008799   0.000408  -0.005346  -0.000270
    28  H    0.013447  -0.000146   0.000287  -0.000049   0.000460   0.000355
    29  H    0.431319  -0.012739   0.000069   0.000216   0.000043   0.000041
    30  C   -0.013497  -0.009489  -0.746745   0.152640  -0.001107   0.000046
    31  H   -0.006982   0.003046   0.591525  -0.076711  -0.000421   0.000334
    32  C    0.002824  -0.000039   0.259883  -0.661271   0.005967  -0.001052
    33  H   -0.000634   0.000173  -0.019137   0.424675   0.001056  -0.000041
    34  C   -0.000165   0.000216   0.008284  -0.022159   0.350038   0.019730
    35  H   -0.000031  -0.000003  -0.000331   0.000580   0.423827  -0.012403
    36  H    0.000017  -0.000013  -0.000626   0.002147   0.017561  -0.000651
    37  H   -0.080120   0.001136  -0.000158   0.000041  -0.000124  -0.000022
    38  C   -0.001244  -0.000295  -0.201869  -0.344316  -0.000030   0.000165
    39  H    0.000071  -0.000018  -0.118122   0.026330   0.000018  -0.000013
    40  H    0.000027   0.000014   0.003339  -0.076449  -0.000028   0.000001
    41  H   -0.000002   0.000005   0.000192  -0.000530  -0.076498   0.001928
    42  H   -0.000027   0.000037   0.016805  -0.011823   0.000001   0.000004
              25         26         27         28         29         30
     1  C   -0.138053   0.009106  -0.178389  -0.002234   0.003919   0.360171
     2  C    0.178401  -0.018021  -0.097528   0.005287   0.013981   0.091404
     3  C    0.069545  -0.019621  -0.110386   0.002111  -0.001382   0.529975
     4  C    0.032492   0.079252  -0.028113   0.006460   0.004741  -0.069848
     5  H    0.000100  -0.001952  -0.004502  -0.001106   0.000364  -0.003248
     6  C   -0.058688   0.013308  -0.114281   0.010699   0.018901   0.045960
     7  C    0.190877  -0.077895  -0.071910   0.001384   0.005677  -0.198504
     8  H    0.002292  -0.000026   0.005069   0.000194   0.000518   0.031609
     9  C    0.331319  -0.066345  -0.024808   0.000253   0.001080   0.226302
    10  C   -1.683275   0.006234   0.034213  -0.001904  -0.001201  -0.036548
    11  C    0.043786  -0.007951  -0.364170  -0.069363   0.027999   0.050664
    12  C   -0.020926   0.007587  -0.323158   0.005292  -0.106213  -0.124497
    13  C   -0.093194   0.002191   0.031953  -0.000708  -0.002256  -2.169232
    14  H   -0.013878  -0.001908   0.000247  -0.000025  -0.000051   0.019708
    15  C   -0.042389  -0.028718  -0.013882   0.000866   0.000437  -0.005074
    16  C   -0.416311   0.461761   0.004966  -0.000154  -0.000175   0.018160
    17  C    0.005576  -0.001017   0.437080   0.405681   0.006118   0.001482
    18  H    0.001754  -0.000167   0.021316  -0.011767  -0.000549  -0.000472
    19  C   -0.001092   0.000021   0.356660   0.013447   0.431319  -0.013497
    20  H   -0.000540   0.000374   0.022475  -0.000146  -0.012739  -0.009489
    21  C    0.006641  -0.007200  -0.008799   0.000287   0.000069  -0.746745
    22  C   -0.024369   0.028345   0.000408  -0.000049   0.000216   0.152640
    23  C   -0.441335  -0.017951  -0.005346   0.000460   0.000043  -0.001107
    24  H   -0.015993   0.000831  -0.000270   0.000355   0.000041   0.000046
    25  C    7.804942  -0.064201   0.000248  -0.000053   0.000013   0.008079
    26  H   -0.064201   0.497539   0.000167   0.000004  -0.000017   0.000910
    27  C    0.000248   0.000167   6.513754  -0.057125  -0.076887  -0.000535
    28  H   -0.000053   0.000004  -0.057125   0.473022   0.001119  -0.000001
    29  H    0.000013  -0.000017  -0.076887   0.001119   0.476676   0.000087
    30  C    0.008079   0.000910  -0.000535  -0.000001   0.000087   8.453134
    31  H   -0.000901  -0.000034  -0.000375   0.000007  -0.000062  -0.106882
    32  C   -0.022033  -0.004726  -0.000529   0.000006   0.000049  -0.652690
    33  H    0.001522  -0.004672  -0.000048  -0.000004   0.000020  -0.011597
    34  C    0.347443   0.026658  -0.000139   0.000064  -0.000002  -0.000210
    35  H    0.016891  -0.000730   0.000050  -0.000031  -0.000001   0.000019
    36  H    0.424873  -0.012729  -0.000001  -0.000002   0.000000  -0.000013
    37  H    0.000005   0.000004   0.465172  -0.010484  -0.010848  -0.000016
    38  C   -0.005238   0.000248   0.000055   0.000002   0.000028   0.305698
    39  H    0.000053   0.000032   0.000033  -0.000001  -0.000006   0.442492
    40  H    0.000443   0.000278   0.000003   0.000000  -0.000001   0.012000
    41  H   -0.080147   0.002205   0.000002   0.000001  -0.000000  -0.000002
    42  H   -0.000125  -0.000016   0.000003  -0.000000  -0.000000  -0.081337
              31         32         33         34         35         36
     1  C   -0.033626  -0.115229   0.004870   0.015202   0.004428   0.000198
     2  C   -0.024040   0.062813  -0.012794  -0.128561   0.008149   0.005909
     3  C    0.001497   0.028797  -0.003792  -0.023276   0.000423   0.000500
     4  C   -0.013209   0.247880  -0.099647  -0.295566   0.001401   0.002502
     5  H    0.000051   0.003884  -0.000088   0.002608  -0.001002   0.000141
     6  C    0.034106  -0.087875   0.015237   0.048945  -0.003944  -0.001245
     7  C    0.023652   0.141375   0.099326   0.034098   0.000543   0.003879
     8  H   -0.019220   0.005050  -0.003028  -0.000724  -0.000001   0.000009
     9  C   -0.090473   0.286524  -0.044427  -0.086778   0.005672   0.008700
    10  C    0.016495  -0.119308  -0.004660  -0.208852   0.016313   0.020821
    11  C    0.004483  -0.015337   0.005588  -0.021181   0.002023   0.000671
    12  C   -0.005186   0.039138  -0.008330   0.006570  -0.000486  -0.000340
    13  C   -0.018990  -1.573096   0.004121   0.050386  -0.001162  -0.004152
    14  H   -0.001795  -0.014216  -0.000121  -0.002118   0.000345  -0.000627
    15  C    0.004335  -0.005286  -0.006571  -0.305267  -0.083387   0.003899
    16  C   -0.004155  -0.000555   0.022703  -0.140666  -0.001327  -0.091402
    17  C   -0.000030   0.001146  -0.000007  -0.004002   0.000659   0.000030
    18  H    0.000163  -0.000035   0.000223  -0.000714   0.000462   0.000075
    19  C   -0.006982   0.002824  -0.000634  -0.000165  -0.000031   0.000017
    20  H    0.003046  -0.000039   0.000173   0.000216  -0.000003  -0.000013
    21  C    0.591525   0.259883  -0.019137   0.008284  -0.000331  -0.000626
    22  C   -0.076711  -0.661271   0.424675  -0.022159   0.000580   0.002147
    23  C   -0.000421   0.005967   0.001056   0.350038   0.423827   0.017561
    24  H    0.000334  -0.001052  -0.000041   0.019730  -0.012403  -0.000651
    25  C   -0.000901  -0.022033   0.001522   0.347443   0.016891   0.424873
    26  H   -0.000034  -0.004726  -0.004672   0.026658  -0.000730  -0.012729
    27  C   -0.000375  -0.000529  -0.000048  -0.000139   0.000050  -0.000001
    28  H    0.000007   0.000006  -0.000004   0.000064  -0.000031  -0.000002
    29  H   -0.000062   0.000049   0.000020  -0.000002  -0.000001   0.000000
    30  C   -0.106882  -0.652690  -0.011597  -0.000210   0.000019  -0.000013
    31  H    0.488052  -0.001037   0.001038   0.000240  -0.000013  -0.000004
    32  C   -0.001037   7.786199  -0.049460  -0.004562   0.000031   0.000637
    33  H    0.001038  -0.049460   0.496485  -0.000780   0.000058   0.000445
    34  C    0.000240  -0.004562  -0.000780   6.449947  -0.065893  -0.071132
    35  H   -0.000013   0.000031   0.000058  -0.065893   0.476037   0.001319
    36  H   -0.000004   0.000637   0.000445  -0.071132   0.001319   0.476076
    37  H    0.000032  -0.000012   0.000002   0.000001   0.000000  -0.000000
    38  C    0.023920   0.389624   0.011840  -0.000052  -0.000002   0.000037
    39  H   -0.011621   0.005945  -0.000452  -0.000004   0.000000  -0.000001
    40  H   -0.000136   0.416278  -0.009811   0.000053  -0.000002  -0.000027
    41  H    0.000005  -0.000124  -0.000049   0.470639  -0.012026  -0.012439
    42  H    0.001029  -0.064170   0.001260   0.000002  -0.000000  -0.000000
              37         38         39         40         41         42
     1  C   -0.005161  -0.060639   0.006100   0.000694   0.000808   0.000420
     2  C   -0.005869  -0.032454   0.001388   0.000516  -0.006652  -0.000873
     3  C   -0.002161  -0.123059   0.000248   0.001640  -0.000774  -0.002784
     4  C   -0.000015  -0.023767   0.004348   0.007381  -0.007666  -0.000079
     5  H    0.000193   0.000225  -0.000059  -0.000014   0.000167  -0.000002
     6  C    0.027156   0.037232  -0.002141  -0.001043   0.001283   0.000924
     7  C    0.000186  -0.216924   0.004570  -0.002517   0.001266  -0.006302
     8  H   -0.000314   0.005712  -0.000058   0.000133  -0.000014  -0.000216
     9  C   -0.000739  -0.122085   0.013800   0.007229  -0.005359  -0.006553
    10  C    0.001063   0.041171  -0.001245  -0.002770   0.023644   0.001181
    11  C   -0.019079   0.000267   0.000314  -0.000116  -0.000524   0.000038
    12  C    0.015576  -0.009613   0.000001   0.000506   0.000162  -0.000173
    13  C    0.000819  -0.161013   0.021132   0.009027   0.001300   0.027604
    14  H   -0.000002  -0.003353   0.000397  -0.001010  -0.000006   0.000225
    15  C   -0.000497   0.005014  -0.000128  -0.000313   0.004300   0.000166
    16  C    0.000163  -0.015201   0.000380   0.001353   0.011099  -0.000520
    17  C   -0.059848  -0.000452   0.000038   0.000004  -0.000118  -0.000010
    18  H    0.001300   0.000010   0.000010  -0.000005  -0.000071   0.000003
    19  C   -0.080120  -0.001244   0.000071   0.000027  -0.000002  -0.000027
    20  H    0.001136  -0.000295  -0.000018   0.000014   0.000005   0.000037
    21  C   -0.000158  -0.201869  -0.118122   0.003339   0.000192   0.016805
    22  C    0.000041  -0.344316   0.026330  -0.076449  -0.000530  -0.011823
    23  C   -0.000124  -0.000030   0.000018  -0.000028  -0.076498   0.000001
    24  H   -0.000022   0.000165  -0.000013   0.000001   0.001928   0.000004
    25  C    0.000005  -0.005238   0.000053   0.000443  -0.080147  -0.000125
    26  H    0.000004   0.000248   0.000032   0.000278   0.002205  -0.000016
    27  C    0.465172   0.000055   0.000033   0.000003   0.000002   0.000003
    28  H   -0.010484   0.000002  -0.000001   0.000000   0.000001  -0.000000
    29  H   -0.010848   0.000028  -0.000006  -0.000001  -0.000000  -0.000000
    30  C   -0.000016   0.305698   0.442492   0.012000  -0.000002  -0.081337
    31  H    0.000032   0.023920  -0.011621  -0.000136   0.000005   0.001029
    32  C   -0.000012   0.389624   0.005945   0.416278  -0.000124  -0.064170
    33  H    0.000002   0.011840  -0.000452  -0.009811  -0.000049   0.001260
    34  C    0.000001  -0.000052  -0.000004   0.000053   0.470639   0.000002
    35  H    0.000000  -0.000002   0.000000  -0.000002  -0.012026  -0.000000
    36  H   -0.000000   0.000037  -0.000001  -0.000027  -0.012439  -0.000000
    37  H    0.487166   0.000004  -0.000000  -0.000000   0.000000   0.000000
    38  C    0.000004   6.580691  -0.077028  -0.055793   0.000004   0.463976
    39  H   -0.000000  -0.077028   0.475682   0.000945  -0.000000  -0.010581
    40  H   -0.000000  -0.055793   0.000945   0.472334   0.000000  -0.010515
    41  H    0.000000   0.000004  -0.000000   0.000000   0.488390   0.000000
    42  H    0.000000   0.463976  -0.010581  -0.010515   0.000000   0.486227
 Mulliken charges:
               1
     1  C    0.939630
     2  C   -1.575413
     3  C   -0.968152
     4  C    0.980550
     5  H    0.176253
     6  C    1.395246
     7  C    0.962513
     8  H    0.105278
     9  C   -1.597481
    10  C    1.354776
    11  C   -0.664423
    12  C   -0.271999
    13  C    1.298476
    14  H    0.203790
    15  C   -0.436497
    16  C   -0.506250
    17  C   -0.300423
    18  H    0.159816
    19  C   -0.520336
    20  H    0.203604
    21  C   -0.193038
    22  C   -0.676745
    23  C   -0.380939
    24  H    0.202592
    25  C   -0.344550
    26  H    0.198841
    27  C   -0.412694
    28  H    0.228154
    29  H    0.218979
    30  C   -0.518993
    31  H    0.221892
    32  C   -0.291405
    33  H    0.189507
    34  C   -0.448322
    35  H    0.223545
    36  H    0.224957
    37  H    0.195453
    38  C   -0.411494
    39  H    0.217152
    40  H    0.226348
    41  H    0.195600
    42  H    0.196201
 Sum of Mulliken charges =  -0.00000
 Mulliken charges with hydrogens summed into heavy atoms:
               1
     1  C    0.939630
     2  C   -1.399160
     3  C   -0.862874
     4  C    0.980550
     6  C    1.395246
     7  C    0.962513
     9  C   -1.393691
    10  C    1.354776
    11  C   -0.504607
    12  C   -0.068394
    13  C    1.298476
    15  C   -0.233904
    16  C   -0.307409
    17  C   -0.072269
    19  C   -0.301356
    21  C    0.028854
    22  C   -0.487238
    23  C   -0.157393
    25  C   -0.119593
    27  C   -0.217241
    30  C   -0.301841
    32  C   -0.065057
    34  C   -0.252721
    38  C   -0.215293
 Electronic spatial extent (au):  <R**2>=          10005.7677
 Charge=             -0.0000 electrons
 Dipole moment (field-independent basis, Debye):
    X=              0.0081    Y=              0.0030    Z=              0.0001  Tot=              0.0086
 Quadrupole moment (field-independent basis, Debye-Ang):
   XX=           -125.7180   YY=           -126.2972   ZZ=           -142.1655
   XY=              0.0121   XZ=             -5.4311   YZ=              4.7133
 Traceless Quadrupole moment (field-independent basis, Debye-Ang):
   XX=              5.6756   YY=              5.0964   ZZ=            -10.7719
   XY=              0.0121   XZ=             -5.4311   YZ=              4.7133
 Octapole moment (field-independent basis, Debye-Ang**2):
  XXX=             25.6784  YYY=             18.8592  ZZZ=              0.3696  XYY=            -29.0442
  XXY=            -18.4901  XXZ=             37.4072  XZZ=              3.2741  YZZ=             -0.5983
  YYZ=            -37.7919  XYZ=              5.4353
 Hexadecapole moment (field-independent basis, Debye-Ang**3):
 XXXX=          -6270.0457 YYYY=          -6257.9562 ZZZZ=           -516.8487 XXXY=            -18.6434
 XXXZ=            -59.3824 YYYX=              5.9219 YYYZ=             27.6279 ZZZX=            -13.5821
 ZZZY=             16.3903 XXYY=          -2077.4423 XXZZ=          -1231.0652 YYZZ=          -1237.4524
 XXYZ=             76.6536 YYXZ=            -64.7971 ZZXY=             12.6733
 N-N= 1.732856058273D+03 E-N=-5.612109676106D+03  KE= 9.212974574324D+02
 No NMR shielding tensors so no spin-rotation constants.
 Leave Link  601 at Mon Nov 14 15:19:49 2022, MaxMem= 16106127360 cpu:               9.2 elap:               0.4
 (Enter /opt/ap/G16/B01/g16/l9999.exe)
 1\1\GINC-N61\SP\RwB97XD\6-311++G(d,p)\C24H18\ROOT\14-Nov-2022\0\\#P wB
 97XD/6-311++G(d,p) scf=maxcycle=512\\_conf026.gjf nmol_natom 1_42\\0,1
 \C\C,1,1.39412829\C,1,1.39435449,2,118.86443127\C,2,1.39416084,1,121.1
 529487,3,0.03668482,0\H,2,1.08488355,1,119.42236619,3,-179.97409048,0\
 C,1,1.48467131,2,120.55714816,4,179.25839056,0\C,3,1.39437784,1,121.11
 776116,2,-0.05351271,0\H,3,1.08487775,1,119.41869036,2,177.23008049,0\
 C,4,1.39432447,2,118.86473838,1,0.01008406,0\C,4,1.48466627,2,120.5464
 188,1,179.19454736,0\C,6,1.3968498,1,120.7843492,2,40.,0\C,6,1.3968682
 ,1,120.67653841,2,-140.,0\C,7,1.48449863,3,120.56496838,1,-179.9632580
 4,0\H,9,1.0848792,4,119.41824946,2,177.22245984,0\C,10,1.39685361,4,12
 0.76946845,2,-42.52368674,0\C,10,1.39686289,4,120.69448769,2,137.43107
 516,0\C,11,1.38888939,6,120.7380073,1,179.94058542,0\H,11,1.0847641,6,
 119.46912378,1,-1.41050605,0\C,12,1.38882428,6,120.76493111,1,-179.950
 82712,0\H,12,1.08482758,6,119.44182626,1,-1.23602505,0\C,13,1.39682899
 ,7,120.74134419,3,42.89023273,0\C,13,1.39683158,7,120.7379111,3,-137.1
 2494058,0\C,15,1.38888263,10,120.742191,4,179.9460119,0\H,15,1.0847633
 4,10,119.47085903,4,-1.40606944,0\C,16,1.38886088,10,120.76338989,4,-1
 79.95592713,0\H,16,1.08483431,10,119.44215232,4,-1.23439681,0\C,17,1.3
 9007919,11,120.20743432,6,0.00349958,0\H,17,1.0843506,11,119.71318733,
 6,179.5011609,0\H,19,1.08435858,12,119.73823132,6,179.53683762,0\C,21,
 1.38882373,13,120.76699356,7,179.99297883,0\H,21,1.0847938,13,119.4352
 623,7,1.32183327,0\C,22,1.38881869,13,120.76647403,7,-179.97118338,0\H
 ,22,1.08479982,13,119.43203605,7,1.34657928,0\C,23,1.39007007,15,120.2
 0732995,10,0.00573957,0\H,23,1.08434813,15,119.71220819,10,179.5072436
 8,0\H,25,1.08436328,16,119.73539424,10,179.53636455,0\H,27,1.08412515,
 17,120.21790854,11,179.98397203,0\C,30,1.39008059,21,120.18795226,13,-
 0.02169059,0\H,30,1.08435324,21,119.73787119,13,-179.52151214,0\H,32,1
 .0843543,22,119.737043,13,-179.52886928,0\H,34,1.08412314,23,120.22152
 803,15,179.98800213,0\H,38,1.08411439,30,120.21547163,21,-179.98600656
 ,0\\Version=ES64L-G16RevB.01\State=1-A\HF=-925.3114107\RMSD=8.459e-09\
 Dipole=0.0016477,-0.0000391,-0.0029612\Quadrupole=3.6162217,-7.5965353
 ,3.9803136,-5.7781742,-0.1748366,0.0598373\PG=C01 [X(C24H18)]\\@


 ABALONE: AN EXPRESSION OF DISBELIEF.
 Job cpu time:       0 days  1 hours 18 minutes 54.4 seconds.
 Elapsed time:       0 days  0 hours  2 minutes 29.2 seconds.
 File lengths (MBytes):  RWF=    224 Int=      0 D2E=      0 Chk=     26 Scr=      1
 Normal termination of Gaussian 16 at Mon Nov 14 15:19:49 2022.
