 Entering Gaussian System, Link 0=g16
 Input=_conf005.gjf
 Output=_conf005.log
 Initial command:
 /opt/ap/G16/B01/g16/l1.exe "/tmp2/scr/Gau-10375.inp" -scrdir="/tmp2/scr/"
 Entering Link 1 = /opt/ap/G16/B01/g16/l1.exe PID=     10376.
  
 Copyright (c) 1988-2017, Gaussian, Inc.  All Rights Reserved.
  
 This is part of the Gaussian(R) 16 program.  It is based on
 the Gaussian(R) 09 system (copyright 2009, Gaussian, Inc.),
 the Gaussian(R) 03 system (copyright 2003, Gaussian, Inc.),
 the Gaussian(R) 98 system (copyright 1998, Gaussian, Inc.),
 the Gaussian(R) 94 system (copyright 1995, Gaussian, Inc.),
 the Gaussian 92(TM) system (copyright 1992, Gaussian, Inc.),
 the Gaussian 90(TM) system (copyright 1990, Gaussian, Inc.),
 the Gaussian 88(TM) system (copyright 1988, Gaussian, Inc.),
 the Gaussian 86(TM) system (copyright 1986, Carnegie Mellon
 University), and the Gaussian 82(TM) system (copyright 1983,
 Carnegie Mellon University). Gaussian is a federally registered
 trademark of Gaussian, Inc.
  
 This software contains proprietary and confidential information,
 including trade secrets, belonging to Gaussian, Inc.
  
 This software is provided under written license and may be
 used, copied, transmitted, or stored only in accord with that
 written license.
  
 The following legend is applicable only to US Government
 contracts under FAR:
  
                    RESTRICTED RIGHTS LEGEND
  
 Use, reproduction and disclosure by the US Government is
 subject to restrictions as set forth in subparagraphs (a)
 and (c) of the Commercial Computer Software - Restricted
 Rights clause in FAR 52.227-19.
  
 Gaussian, Inc.
 340 Quinnipiac St., Bldg. 40, Wallingford CT 06492
  
  
 ---------------------------------------------------------------
 Warning -- This program may not be used in any manner that
 competes with the business of Gaussian, Inc. or will provide
 assistance to any competitor of Gaussian, Inc.  The licensee
 of this program is prohibited from giving any competitor of
 Gaussian, Inc. access to this program.  By using this program,
 the user acknowledges that Gaussian, Inc. is engaged in the
 business of creating and licensing software in the field of
 computational chemistry and represents and warrants to the
 licensee that it is not a competitor of Gaussian, Inc. and that
 it will not use this program in any manner prohibited above.
 ---------------------------------------------------------------
  

 Cite this work as:
 Gaussian 16, Revision B.01,
 M. J. Frisch, G. W. Trucks, H. B. Schlegel, G. E. Scuseria, 
 M. A. Robb, J. R. Cheeseman, G. Scalmani, V. Barone, 
 G. A. Petersson, H. Nakatsuji, X. Li, M. Caricato, A. V. Marenich, 
 J. Bloino, B. G. Janesko, R. Gomperts, B. Mennucci, H. P. Hratchian, 
 J. V. Ortiz, A. F. Izmaylov, J. L. Sonnenberg, D. Williams-Young, 
 F. Ding, F. Lipparini, F. Egidi, J. Goings, B. Peng, A. Petrone, 
 T. Henderson, D. Ranasinghe, V. G. Zakrzewski, J. Gao, N. Rega, 
 G. Zheng, W. Liang, M. Hada, M. Ehara, K. Toyota, R. Fukuda, 
 J. Hasegawa, M. Ishida, T. Nakajima, Y. Honda, O. Kitao, H. Nakai, 
 T. Vreven, K. Throssell, J. A. Montgomery, Jr., J. E. Peralta, 
 F. Ogliaro, M. J. Bearpark, J. J. Heyd, E. N. Brothers, K. N. Kudin, 
 V. N. Staroverov, T. A. Keith, R. Kobayashi, J. Normand, 
 K. Raghavachari, A. P. Rendell, J. C. Burant, S. S. Iyengar, 
 J. Tomasi, M. Cossi, J. M. Millam, M. Klene, C. Adamo, R. Cammi, 
 J. W. Ochterski, R. L. Martin, K. Morokuma, O. Farkas, 
 J. B. Foresman, and D. J. Fox, Gaussian, Inc., Wallingford CT, 2016.
 
 ******************************************
 Gaussian 16:  ES64L-G16RevB.01 20-Dec-2017
                14-Nov-2022 
 ******************************************
 %nprocshared=32
 Will use up to   32 processors via shared memory.
 %mem=120GB
 %chk=_conf005.chk
 ----------------------------------------
 #P wB97XD/6-311++G(d,p) scf=maxcycle=512
 ----------------------------------------
 1/38=1,172=1/1;
 2/12=2,17=6,18=5,40=1/2;
 3/5=4,6=6,7=1111,11=2,25=1,30=1,74=-58/1,2,3;
 4//1;
 5/5=2,7=512,38=5/2;
 6/7=2,8=2,9=2,10=2,28=1/1;
 99/5=1,9=1/99;
 Leave Link    1 at Mon Nov 14 15:04:36 2022, MaxMem= 16106127360 cpu:               1.9 elap:               0.1
 (Enter /opt/ap/G16/B01/g16/l101.exe)
 ----------------------------
 _conf005.gjf nmol_natom 1_42
 ----------------------------
 Symbolic Z-matrix:
 Charge =  0 Multiplicity = 1
 C
 C                    1     1.39413 
 C                    1     1.39435  2     118.86443 
 C                    2     1.39416  1     121.15295  3     0.03668  0
 H                    2     1.08488  1     119.42237  3    -179.97409  0
 C                    1     1.48467  2     120.55715  4     179.25839  0
 C                    3     1.39438  1     121.11776  2    -0.05351  0
 H                    3     1.08488  1     119.41869  2     177.23008  0
 C                    4     1.39432  2     118.86474  1     0.01008  0
 C                    4     1.48467  2     120.54642  1     179.19455  0
 C                    6     1.39685  1     120.78435  2    -65.      0
 C                    6     1.39687  1     120.67654  2     115.     0
 C                    7     1.4845   3     120.56497  1    -179.96326  0
 H                    9     1.08488  4     119.41825  2     177.22246  0
 C                    10    1.39685  4     120.76947  2    -42.52369  0
 C                    10    1.39686  4     120.69449  2     137.43108  0
 C                    11    1.38889  6     120.73801  1     179.94059  0
 H                    11    1.08476  6     119.46912  1    -1.41051  0
 C                    12    1.38882  6     120.76493  1    -179.95083  0
 H                    12    1.08483  6     119.44183  1    -1.23603  0
 C                    13    1.39683  7     120.74134  3     42.89023  0
 C                    13    1.39683  7     120.73791  3    -137.12494  0
 C                    15    1.38888  10    120.74219  4     179.94601  0
 H                    15    1.08476  10    119.47086  4    -1.40607  0
 C                    16    1.38886  10    120.76339  4    -179.95593  0
 H                    16    1.08483  10    119.44215  4    -1.2344   0
 C                    17    1.39008  11    120.20743  6     0.0035   0
 H                    17    1.08435  11    119.71319  6     179.50116  0
 H                    19    1.08436  12    119.73823  6     179.53684  0
 C                    21    1.38882  13    120.76699  7     179.99298  0
 H                    21    1.08479  13    119.43526  7     1.32183  0
 C                    22    1.38882  13    120.76647  7    -179.97118  0
 H                    22    1.0848   13    119.43204  7     1.34658  0
 C                    23    1.39007  15    120.20733  10    0.00574  0
 H                    23    1.08435  15    119.71221  10    179.50724  0
 H                    25    1.08436  16    119.73539  10    179.53636  0
 H                    27    1.08413  17    120.21791  11    179.98397  0
 C                    30    1.39008  21    120.18795  13   -0.02169  0
 H                    30    1.08435  21    119.73787  13   -179.52151  0
 H                    32    1.08435  22    119.73704  13   -179.52887  0
 H                    34    1.08412  23    120.22153  15    179.988  0
 H                    38    1.08411  30    120.21547  21   -179.98601  0
 
 ITRead=  0  0  0  0  0  0  0  0  0  0  0  0  0  0  0  0  0  0  0  0
 ITRead=  0  0  0  0  0  0  0  0  0  0  0  0  0  0  0  0  0  0  0  0
 ITRead=  0  0
 MicOpt= -1 -1 -1 -1 -1 -1 -1 -1 -1 -1 -1 -1 -1 -1 -1 -1 -1 -1 -1 -1
 MicOpt= -1 -1 -1 -1 -1 -1 -1 -1 -1 -1 -1 -1 -1 -1 -1 -1 -1 -1 -1 -1
 MicOpt= -1 -1
 NAtoms=     42 NQM=       42 NQMF=       0 NMMI=      0 NMMIF=      0
                NMic=       0 NMicF=      0.
                    Isotopes and Nuclear Properties:
 (Nuclear quadrupole moments (NQMom) in fm**2, nuclear magnetic moments (NMagM)
  in nuclear magnetons)

  Atom         1           2           3           4           5           6           7           8           9          10
 IAtWgt=          12          12          12          12           1          12          12           1          12          12
 AtmWgt=  12.0000000  12.0000000  12.0000000  12.0000000   1.0078250  12.0000000  12.0000000   1.0078250  12.0000000  12.0000000
 NucSpn=           0           0           0           0           1           0           0           1           0           0
 AtZEff=  -0.0000000  -0.0000000  -0.0000000  -0.0000000  -0.0000000  -0.0000000  -0.0000000  -0.0000000  -0.0000000  -0.0000000
 NQMom=    0.0000000   0.0000000   0.0000000   0.0000000   0.0000000   0.0000000   0.0000000   0.0000000   0.0000000   0.0000000
 NMagM=    0.0000000   0.0000000   0.0000000   0.0000000   2.7928460   0.0000000   0.0000000   2.7928460   0.0000000   0.0000000
 AtZNuc=   6.0000000   6.0000000   6.0000000   6.0000000   1.0000000   6.0000000   6.0000000   1.0000000   6.0000000   6.0000000

  Atom        11          12          13          14          15          16          17          18          19          20
 IAtWgt=          12          12          12           1          12          12          12           1          12           1
 AtmWgt=  12.0000000  12.0000000  12.0000000   1.0078250  12.0000000  12.0000000  12.0000000   1.0078250  12.0000000   1.0078250
 NucSpn=           0           0           0           1           0           0           0           1           0           1
 AtZEff=  -0.0000000  -0.0000000  -0.0000000  -0.0000000  -0.0000000  -0.0000000  -0.0000000  -0.0000000  -0.0000000  -0.0000000
 NQMom=    0.0000000   0.0000000   0.0000000   0.0000000   0.0000000   0.0000000   0.0000000   0.0000000   0.0000000   0.0000000
 NMagM=    0.0000000   0.0000000   0.0000000   2.7928460   0.0000000   0.0000000   0.0000000   2.7928460   0.0000000   2.7928460
 AtZNuc=   6.0000000   6.0000000   6.0000000   1.0000000   6.0000000   6.0000000   6.0000000   1.0000000   6.0000000   1.0000000

  Atom        21          22          23          24          25          26          27          28          29          30
 IAtWgt=          12          12          12           1          12           1          12           1           1          12
 AtmWgt=  12.0000000  12.0000000  12.0000000   1.0078250  12.0000000   1.0078250  12.0000000   1.0078250   1.0078250  12.0000000
 NucSpn=           0           0           0           1           0           1           0           1           1           0
 AtZEff=  -0.0000000  -0.0000000  -0.0000000  -0.0000000  -0.0000000  -0.0000000  -0.0000000  -0.0000000  -0.0000000  -0.0000000
 NQMom=    0.0000000   0.0000000   0.0000000   0.0000000   0.0000000   0.0000000   0.0000000   0.0000000   0.0000000   0.0000000
 NMagM=    0.0000000   0.0000000   0.0000000   2.7928460   0.0000000   2.7928460   0.0000000   2.7928460   2.7928460   0.0000000
 AtZNuc=   6.0000000   6.0000000   6.0000000   1.0000000   6.0000000   1.0000000   6.0000000   1.0000000   1.0000000   6.0000000

  Atom        31          32          33          34          35          36          37          38          39          40
 IAtWgt=           1          12           1          12           1           1           1          12           1           1
 AtmWgt=   1.0078250  12.0000000   1.0078250  12.0000000   1.0078250   1.0078250   1.0078250  12.0000000   1.0078250   1.0078250
 NucSpn=           1           0           1           0           1           1           1           0           1           1
 AtZEff=  -0.0000000  -0.0000000  -0.0000000  -0.0000000  -0.0000000  -0.0000000  -0.0000000  -0.0000000  -0.0000000  -0.0000000
 NQMom=    0.0000000   0.0000000   0.0000000   0.0000000   0.0000000   0.0000000   0.0000000   0.0000000   0.0000000   0.0000000
 NMagM=    2.7928460   0.0000000   2.7928460   0.0000000   2.7928460   2.7928460   2.7928460   0.0000000   2.7928460   2.7928460
 AtZNuc=   1.0000000   6.0000000   1.0000000   6.0000000   1.0000000   1.0000000   1.0000000   6.0000000   1.0000000   1.0000000

  Atom        41          42
 IAtWgt=           1           1
 AtmWgt=   1.0078250   1.0078250
 NucSpn=           1           1
 AtZEff=  -0.0000000  -0.0000000
 NQMom=    0.0000000   0.0000000
 NMagM=    2.7928460   2.7928460
 AtZNuc=   1.0000000   1.0000000
 Leave Link  101 at Mon Nov 14 15:04:37 2022, MaxMem= 16106127360 cpu:               5.4 elap:               0.2
 (Enter /opt/ap/G16/B01/g16/l202.exe)
                          Input orientation:                          
 ---------------------------------------------------------------------
 Center     Atomic      Atomic             Coordinates (Angstroms)
 Number     Number       Type             X           Y           Z
 ---------------------------------------------------------------------
      1          6           0        0.000000    0.000000    0.000000
      2          6           0        0.000000    0.000000    1.394128
      3          6           0        1.221126    0.000000   -0.673109
      4          6           0        1.193108    0.000764    2.115362
      5          1           0       -0.944957   -0.000427    1.927071
      6          6           0       -1.278366   -0.017366   -0.754803
      7          6           0        2.428476    0.001115    0.024455
      8          1           0        1.232154   -0.045667   -1.756969
      9          6           0        2.400843    0.001752    1.418572
     10          6           0        1.177445    0.018728    3.599837
     11          6           0       -2.136982   -1.116730   -0.681543
     12          6           0       -1.648690    1.066535   -1.554340
     13          6           0        3.721572    0.001921   -0.704680
     14          1           0        3.334061    0.048144    1.969857
     15          6           0        0.290794    0.844275    4.295193
     16          6           0        2.049080   -0.790881    4.331965
     17          6           0       -3.333225   -1.131439   -1.387093
     18          1           0       -1.853634   -1.976234   -0.083480
     19          6           0       -2.844569    1.052664   -2.260395
     20          1           0       -1.002513    1.936382   -1.606028
     21          6           0        3.910862    0.818865   -1.821777
     22          6           0        4.776237   -0.814044   -0.288725
     23          6           0        0.275860    0.859807    5.683909
     24          1           0       -0.377402    1.495584    3.742000
     25          6           0        2.035025   -0.775886    5.720674
     26          1           0        2.729408   -1.453102    3.807101
     27          6           0       -3.691734   -0.046430   -2.178639
     28          1           0       -3.983475   -1.996935   -1.324581
     29          1           0       -3.119145    1.906283   -2.870131
     30          6           0        5.120444    0.820149   -2.504230
     31          1           0        3.109266    1.474569   -2.144691
     32          6           0        5.986440   -0.813321   -0.970068
     33          1           0        4.638168   -1.470412    0.563864
     34          6           0        1.147946    0.049642    6.401818
     35          1           0       -0.413890    1.513063    6.206701
     36          1           0        2.713797   -1.416787    6.272362
     37          1           0       -4.625323   -0.057841   -2.729647
     38          6           0        6.162883    0.003944   -2.080611
     39          1           0        5.251831    1.466740   -3.364741
     40          1           0        6.791448   -1.459089   -0.637249
     41          1           0        1.136620    0.061726    7.485815
     42          1           0        7.107346    0.004761   -2.612865
 ---------------------------------------------------------------------
                    Distance matrix (angstroms):
                    1          2          3          4          5
     1  C    0.000000
     2  C    1.394128   0.000000
     3  C    1.394354   2.400962   0.000000
     4  C    2.428634   1.394161   2.788612   0.000000
     5  H    2.146287   1.084884   3.384206   2.146341   0.000000
     6  C    1.484671   2.500485   2.500887   3.787659   2.702572
     7  C    2.428599   2.788100   1.394378   2.428585   3.872983
     8  H    2.146445   3.383741   1.084878   3.872806   4.279487
     9  C    2.788619   2.400968   2.401430   1.394324   3.384222
    10  C    3.787552   2.500376   4.273210   1.484666   2.702426
    11  C    2.505649   3.181539   3.538933   4.490096   3.077648
    12  C    2.504326   3.542477   3.185892   4.762184   3.708621
    13  C    3.787700   4.272598   2.500646   3.787581   5.357482
    14  H    3.872805   3.383747   3.384092   2.146415   4.279508
    15  C    4.387032   3.035381   5.124680   2.505463   2.801537
    16  C    4.856969   3.668120   5.134371   2.504540   3.920790
    17  C    3.783460   4.486171   4.746792   5.834103   4.238713
    18  H    2.710799   3.086226   3.702339   4.245711   2.961726
    19  C    3.782732   4.749233   4.489706   6.046203   4.717244
    20  H    2.708124   3.708847   3.092650   4.734566   4.029557
    21  C    4.391384   5.129076   3.037212   4.853507   6.189029
    22  C    4.853707   5.129045   3.667320   4.391169   6.189006
    23  C    5.755188   4.383786   6.484171   3.783362   4.042800
    24  H    4.047440   2.809218   4.928007   2.710524   2.419532
    25  C    6.121229   4.843792   6.491910   3.782894   4.886007
    26  H    4.904609   3.922195   4.945574   2.708491   4.375585
    27  C    4.286902   5.137677   5.138577   6.504026   4.940016
    28  H    4.648692   5.219886   5.612489   6.528478   4.877691
    29  H    4.647647   5.616661   5.224822   6.861607   5.601408
    30  C    5.758711   6.487587   4.385239   6.118495   7.556379
    31  H    4.054822   4.936104   2.811579   4.898143   5.932249
    32  C    6.118822   6.487555   4.843334   5.758354   7.556353
    33  H    4.898230   4.935996   3.920254   4.054620   5.932156
    34  C    6.504116   5.137821   7.075480   4.286973   4.940255
    35  H    6.401859   5.061770   7.231488   4.648499   4.570330
    36  H    6.979577   5.759266   7.243957   4.647859   5.854410
    37  H    5.371027   6.196973   6.197875   7.571769   5.935773
    38  C    6.504621   7.074953   5.138292   6.504219   8.159837
    39  H    6.407382   7.237395   5.063871   6.975231   8.279857
    40  H    6.975586   7.237348   5.758361   6.406985   8.279819
    41  H    7.571865   6.197125   8.159595   5.371096   5.936031
    42  H    7.572414   8.159067   6.197601   7.571945   9.243951
                    6          7          8          9         10
     6  C    0.000000
     7  C    3.787910   0.000000
     8  H    2.703303   2.146356   0.000000
     9  C    4.273231   1.394392   3.384102   0.000000
    10  C    4.999520   3.787973   5.357472   2.500981   0.000000
    11  C    1.396850   4.753042   3.695239   5.123801   5.532170
    12  C    1.396868   4.500110   3.094723   5.135240   5.970802
    13  C    5.000226   1.484499   2.703105   2.500505   5.000173
    14  H    5.357476   2.146366   4.279725   1.084879   2.703459
    15  C    5.357906   4.849723   6.189251   3.665665   1.396854
    16  C    6.127433   4.396117   6.188524   3.039714   1.396863
    17  C    2.421445   6.039233   4.707270   6.483472   6.821913
    18  H    2.149133   4.717841   4.006213   4.926374   5.170507
    19  C    2.421728   5.842200   4.251992   6.492578   7.182474
    20  H    2.148909   4.263264   2.990825   4.947104   5.960759
    21  C    5.363376   2.504946   2.815510   3.667109   6.124188
    22  C    6.124553   2.504906   3.912375   3.036921   5.363369
    23  C    6.681472   6.115597   7.556523   4.841994   2.421492
    24  H    4.829285   4.891475   5.933362   3.917716   2.149154
    25  C    7.313393   5.762417   7.555989   4.387097   2.421736
    26  H    6.239756   4.063707   5.931401   2.815959   2.148914
    27  C    2.802231   6.504833   4.941910   7.075433   7.556715
    28  H    3.400141   6.850198   5.585444   7.230433   7.412684
    29  H    3.400515   6.540977   4.897247   7.245031   7.992748
    30  C    6.686306   3.783088   4.053003   4.842972   7.310892
    31  H    4.838282   2.709194   2.446425   3.920191   6.233057
    32  C    7.311449   3.783053   4.879728   4.384797   6.686012
    33  H    6.233426   2.709077   4.360860   2.811302   4.838519
    34  C    7.557031   6.504835   8.159779   5.138559   2.802307
    35  H    7.179977   6.970308   8.280044   5.756123   3.400165
    36  H    8.202243   6.413127   8.279214   5.066504   3.400510
    37  H    3.886356   7.572623   5.937700   8.159551   8.587220
    38  C    7.558466   4.286853   4.941589   5.137824   7.557929
    39  H    7.187337   4.648230   4.585860   5.757987   8.197725
    40  H    8.198432   4.648180   5.844424   5.063385   7.187062
    41  H    8.587561   7.572613   9.243902   6.197846   3.886431
    42  H    8.589123   5.370968   5.937422   6.197069   8.588456
                   11         12         13         14         15
    11  C    0.000000
    12  C    2.401427   0.000000
    13  C    5.964442   5.540310   0.000000
    14  H    6.190247   6.187479   2.702860   0.000000
    15  C    5.874312   6.166688   6.121971   3.911840   0.000000
    16  C    6.539461   7.195282   5.365963   2.816859   2.401387
    17  C    1.388889   2.774296   7.177767   7.557329   7.023200
    18  H    1.084764   3.385835   5.948269   5.935190   5.632639
    19  C    2.774838   1.388824   6.829240   7.555102   7.269777
    20  H    3.385733   1.084828   5.183777   5.929441   6.139198
    21  C    6.451595   5.571488   1.396829   3.911930   7.107943
    22  C    6.930983   6.813079   1.396832   2.815037   6.624314
    23  C    7.088546   7.492588   7.309101   4.879095   1.388883
    24  H    5.430289   5.463651   6.229413   4.360107   1.084763
    25  C    7.649196   8.360030   6.688393   4.054029   2.774755
    26  H    6.628938   7.366231   4.843310   2.448430   3.385708
    27  C    2.409169   2.408832   7.558571   8.159704   7.652738
    28  H    2.144247   3.858608   7.984200   8.281425   7.610763
    29  H    3.859166   2.144462   7.423689   8.277803   8.006085
    30  C    7.729419   6.839895   2.421718   4.878996   8.340159
    31  H    6.031480   4.811772   2.148776   4.360587   7.057844
    32  C    8.134204   7.884823   2.421709   4.052208   7.931644
    33  H    6.897738   7.102639   2.148749   2.446125   6.179018
    34  C    7.894630   8.494451   7.558317   4.941800   2.409154
    35  H    7.571840   7.871333   8.194680   5.843284   2.144229
    36  H    8.483919   9.298142   7.190790   4.587189   3.859086
    37  H    3.392317   3.392036   8.589220   9.243828   8.621508
    38  C    8.491235   7.901059   2.802355   4.940696   8.708529
    39  H    8.274565   7.145271   3.400487   5.843645   9.147346
    40  H    8.935101   8.857526   3.400476   4.585006   8.478973
    41  H    8.877554   9.512728   8.588933   5.937569   3.392325
    42  H    9.510275   8.883468   3.886469   5.936405   9.741223
                   16         17         18         19         20
    16  C    0.000000
    17  C    7.860840   0.000000
    18  H    6.011023   2.145291   0.000000
    19  C    8.414611   2.402446   3.859422   0.000000
    20  H    7.211793   3.858974   4.283822   2.145303   0.000000
    21  C    6.627673   7.514614   6.638047   6.773692   5.043476
    22  C    5.365510   8.189660   6.734093   8.090042   6.534072
    23  C    2.774316   8.184719   6.770572   8.537343   7.479066
    24  H    3.385823   6.476552   5.372809   6.504755   5.402451
    25  C    1.388861   8.914307   7.088774   9.531605   8.382339
    26  H    1.084834   7.989908   6.034448   8.611771   7.397148
    27  C    8.712010   1.390079   3.390052   1.390101   3.389888
    28  H    8.357201   1.084351   2.465154   3.387168   4.943312
    29  H    9.265820   3.387180   4.943772   1.084359   2.465561
    30  C    7.665654   8.747640   7.894146   7.972136   6.288350
    31  H    6.942862   6.990774   6.386470   5.969886   4.172548
    32  C    6.604154   9.334412   7.975284   9.117761   7.537292
    33  H    4.622091   8.213662   6.543577   8.386520   6.937721
    34  C    2.408903   9.063276   7.427836   9.590629   8.503521
    35  H    3.858628   8.554625   7.335832   8.821104   7.846299
    36  H    2.144469   9.762947   7.846727  10.478624   9.334009
    37  H    9.744299   2.150485   4.285405   2.150465   4.285346
    38  C    7.660043   9.588855   8.495539   9.070079   7.436562
    39  H    8.636768   9.185032   8.550344   8.181854   6.513866
    40  H    6.901424  10.157688   8.678222  10.089417   8.556494
    41  H    3.392092  10.006580   8.389823  10.574518   9.526376
    42  H    8.628428  10.573503   9.519521  10.013139   8.397303
                   21         22         23         24         25
    21  C    0.000000
    22  C    2.401148   0.000000
    23  C    8.339678   7.663388   0.000000
    24  H    7.057108   6.938381   2.145221   0.000000
    25  C    7.934139   6.605193   2.402396   3.859344   0.000000
    26  H    6.184005   4.623169   3.858996   4.283837   2.145356
    27  C    7.659997   8.710198   8.853402   6.958202   9.784019
    28  H    8.396219   8.899707   8.684575   7.132440   9.346065
    29  H    7.190446   8.740760   9.262438   7.169804  10.371182
    30  C    1.388824   2.774442   9.514051   8.348527   8.928391
    31  H    1.084794   3.385432   8.348239   6.841814   8.251212
    32  C    2.774430   1.388819   8.926672   8.248218   7.770528
    33  H    3.385417   1.084800   7.118603   6.637291   5.818196
    34  C    8.709358   7.659884   1.390070   3.389995   1.390095
    35  H    9.145591   8.633852   1.084348   2.465033   3.387137
    36  H    8.482109   6.903971   3.387136   4.943698   1.084363
    37  H    8.628980   9.742653   9.780163   7.895579  10.783494
    38  C    2.408878   2.408889   9.781478   8.882743   8.860440
    39  H    2.144453   3.858761  10.344405   9.066139   9.895553
    40  H    3.858751   2.144441   9.369482   8.905073   7.969536
    41  H    9.741711   8.628862   2.150513   4.285366   2.150453
    42  H    3.392063   3.392069  10.781315   9.931179   9.787018
                   26         27         28         29         30
    26  H    0.000000
    27  C    8.890381   0.000000
    28  H    8.467155   2.149185   0.000000
    29  H    9.490862   2.149210   4.286129   0.000000
    30  C    7.121630   8.860668   9.602545   8.318917   0.000000
    31  H    6.643746   6.969088   7.939200   6.285359   2.145313
    32  C    5.817122   9.783446  10.046184   9.691137   2.402462
    33  H    3.763276   8.884612   8.841730   9.130733   3.859075
    34  C    3.389959   9.851700   9.498274  10.374209   9.782234
    35  H    4.943333   9.137298   9.043353   9.479551  10.343562
    36  H    2.465578  10.692433  10.144140  11.342450   9.371467
    37  H    9.938204   1.084125   2.479166   2.479130   9.787831
    38  C    6.969712   9.855234  10.369363   9.507801   1.390081
    39  H    8.143918   9.147889  10.072248   8.397087   1.084353
    40  H    6.021000  10.689649  10.810211  10.701931   3.387152
    41  H    4.285396  10.803998  10.395986  11.347225  10.781792
    42  H    7.906179  10.807927  11.343402  10.404954   2.150451
                   31         32         33         34         35
    31  H    0.000000
    32  C    3.859055   0.000000
    33  H    4.283308   2.145356   0.000000
    34  C    8.883693   8.860047   6.969499   0.000000
    35  H    9.064207   9.893547   8.140394   2.149187   0.000000
    36  H    8.908597   7.970392   6.024369   2.149200   4.286112
    37  H    7.906599  10.783152   9.932514  10.803974  10.003110
    38  C    3.389900   1.390094   3.389946   9.854100  10.686951
    39  H    2.465597   3.387150   4.943418  10.688111  11.122726
    40  H    4.943399   1.084354   2.465647   9.147341  10.372571
    41  H    9.931470   9.787155   7.907066   1.084123   2.479233
    42  H    4.285343   2.150458   4.285392  10.806525  11.688828
                   36         37         38         39         40
    36  H    0.000000
    37  H   11.693826   0.000000
    38  C    9.148051  10.807889   0.000000
    39  H   10.374492  10.014283   2.149134   0.000000
    40  H    8.023201  11.691205   2.149152   4.286037   0.000000
    41  H    2.479104  11.729021  10.806626  11.689465  10.013697
    42  H   10.013557  11.733416   1.084114   2.479039   2.479054
                   41         42
    41  H    0.000000
    42  H   11.731844   0.000000
 Stoichiometry    C24H18
 Framework group  C1[X(C24H18)]
 Deg. of freedom   120
 Full point group                 C1      NOp   1
 Largest Abelian subgroup         C1      NOp   1
 Largest concise Abelian subgroup C1      NOp   1
                         Standard orientation:                         
 ---------------------------------------------------------------------
 Center     Atomic      Atomic             Coordinates (Angstroms)
 Number     Number       Type             X           Y           Z
 ---------------------------------------------------------------------
      1          6           0        1.401071   -0.029803    0.042643
      2          6           0        0.666907   -1.214431    0.007209
      3          6           0        0.718082    1.185808    0.036423
      4          6           0       -0.726532   -1.198388   -0.034679
      5          1           0        1.189067   -2.165376    0.012143
      6          6           0        2.884131   -0.062452    0.103607
      7          6           0       -0.674982    1.229475   -0.005486
      8          1           0        1.278133    2.112078    0.109404
      9          6           0       -1.385645    0.030299   -0.041029
     10          6           0       -1.494434   -2.467833   -0.090065
     11          6           0        3.542448   -0.589957    1.216955
     12          6           0        3.651916    0.434240   -0.952350
     13          6           0       -1.389588    2.530638   -0.012463
     14          1           0       -2.467435    0.054290   -0.119237
     15          6           0       -1.082866   -3.516527   -0.915930
     16          6           0       -2.644502   -2.639843    0.683875
     17          6           0        4.929878   -0.621140    1.272443
     18          1           0        2.961305   -0.958708    2.055411
     19          6           0        5.039328    0.403687   -0.897695
     20          1           0        3.155923    0.828791   -1.832789
     21          6           0       -0.937926    3.589060   -0.804217
     22          6           0       -2.528845    2.723691    0.772370
     23          6           0       -1.801032   -4.704247   -0.966464
     24          1           0       -0.204557   -3.391157   -1.540084
     25          6           0       -3.363427   -3.827100    0.633860
     26          1           0       -2.965724   -1.842890    1.346104
     27          6           0        5.683450   -0.124998    0.214949
     28          1           0        5.423760   -1.026986    2.148334
     29          1           0        5.618990    0.786912   -1.730139
     30          6           0       -1.606148    4.806541   -0.811262
     31          1           0       -0.067419    3.448491   -1.436068
     32          6           0       -3.198196    3.940549    0.765845
     33          1           0       -2.879974    1.918878    1.409374
     34          6           0       -2.944011   -4.863943   -0.191616
     35          1           0       -1.470979   -5.504509   -1.619501
     36          1           0       -4.249619   -3.945496    1.247448
     37          1           0        6.766447   -0.149017    0.258194
     38          6           0       -2.739061    4.986636   -0.026151
     39          1           0       -1.245460    5.614452   -1.438164
     40          1           0       -4.076523    4.074615    1.387449
     41          1           0       -3.504875   -5.790874   -0.231029
     42          1           0       -3.261151    5.936740   -0.031482
 ---------------------------------------------------------------------
 Rotational constants (GHZ):           0.1977349           0.1951718           0.1044151
 Leave Link  202 at Mon Nov 14 15:04:37 2022, MaxMem= 16106127360 cpu:               0.4 elap:               0.0
 (Enter /opt/ap/G16/B01/g16/l301.exe)
 Standard basis: 6-311++G(d,p) (5D, 7F)
 Ernie: Thresh=  0.10000D-02 Tol=  0.10000D-05 Strict=F.
 There are   678 symmetry adapted cartesian basis functions of A   symmetry.
 There are   654 symmetry adapted basis functions of A   symmetry.
   654 basis functions,  1026 primitive gaussians,   678 cartesian basis functions
    81 alpha electrons       81 beta electrons
       nuclear repulsion energy      1731.1532994289 Hartrees.
 IExCor= 4639 DFT=T Ex+Corr=wB97XD ExCW=0 ScaHFX=  1.000000
 ScaDFX=  1.000000  1.000000  1.000000  1.000000 ScalE2=  1.000000  1.000000
 IRadAn=      5 IRanWt=     -1 IRanGd=            0 ICorTp=0 IEmpDi=121
 HFx  wShort=  0.000000 wLong=  0.200000 cFull=  0.222036 cShort=  0.000000 cLong=  0.777964
 DFx  wShort=  0.000000 wLong=  0.200000 cFull=  0.000000 cShort=  0.000000 cLong=  1.000000
 NAtoms=   42 NActive=   42 NUniq=   42 SFac= 1.00D+00 NAtFMM=   60 NAOKFM=F Big=F
 Integral buffers will be    131072 words long.
 Raffenetti 2 integral format.
 Two-electron integral symmetry is turned on.
 R6Disp:  Grimme-D2 Dispersion energy=       -0.0287864448 Hartrees.
 Nuclear repulsion after empirical dispersion term =     1731.1245129841 Hartrees.
 Leave Link  301 at Mon Nov 14 15:04:37 2022, MaxMem= 16106127360 cpu:               1.2 elap:               0.0
 (Enter /opt/ap/G16/B01/g16/l302.exe)
 NPDir=0 NMtPBC=     1 NCelOv=     1 NCel=       1 NClECP=     1 NCelD=      1
         NCelK=      1 NCelE2=     1 NClLst=     1 CellRange=     0.0.
 One-electron integrals computed using PRISM.
 One-electron integral symmetry used in STVInt
 NBasis=   654 RedAO= T EigKep=  1.42D-06  NBF=   654
 NBsUse=   645 1.00D-06 EigRej=  9.85D-07 NBFU=   645
 Precomputing XC quadrature grid using
 IXCGrd= 4 IRadAn=           5 IRanWt=          -1 IRanGd=           0 AccXCQ= 0.00D+00.
 Generated NRdTot=       0 NPtTot=           0 NUsed=           0 NTot=          32
 NSgBfM=   669   669   669   669   669 MxSgAt=    42 MxSgA2=    42.
 Leave Link  302 at Mon Nov 14 15:04:37 2022, MaxMem= 16106127360 cpu:              20.9 elap:               0.7
 (Enter /opt/ap/G16/B01/g16/l303.exe)
 DipDrv:  MaxL=1.
 Leave Link  303 at Mon Nov 14 15:04:37 2022, MaxMem= 16106127360 cpu:               2.9 elap:               0.1
 (Enter /opt/ap/G16/B01/g16/l401.exe)
 ExpMin= 3.60D-02 ExpMax= 4.56D+03 ExpMxC= 6.82D+02 IAcc=3 IRadAn=         5 AccDes= 0.00D+00
 Harris functional with IExCor= 4639 and IRadAn=       5 diagonalized for initial guess.
 HarFok:  IExCor= 4639 AccDes= 0.00D+00 IRadAn=         5 IDoV= 1 UseB2=F ITyADJ=14
 ICtDFT=  3500011 ScaDFX=  1.000000  1.000000  1.000000  1.000000
 FoFCou: FMM=F IPFlag=           0 FMFlag=      100000 FMFlg1=           0
         NFxFlg=           0 DoJE=T BraDBF=F KetDBF=T FulRan=T
         wScrn=  0.000000 ICntrl=       500 IOpCl=  0 I1Cent=   200000004 NGrid=           0
         NMat0=    1 NMatS0=      1 NMatT0=    0 NMatD0=    1 NMtDS0=    0 NMtDT0=    0
 Petite list used in FoFCou.
 Harris En= -882.968931864953    
 JPrj=0 DoOrth=F DoCkMO=F.
 Leave Link  401 at Mon Nov 14 15:04:39 2022, MaxMem= 16106127360 cpu:              55.1 elap:               1.7
 (Enter /opt/ap/G16/B01/g16/l502.exe)
 Integral symmetry usage will be decided dynamically.
 Closed shell SCF:
 Using DIIS extrapolation, IDIIS=  1040.
 NGot= 16106127360 LenX= 16105179956 LenY= 16104719594
 Requested convergence on RMS density matrix=1.00D-08 within 512 cycles.
 Requested convergence on MAX density matrix=1.00D-06.
 Requested convergence on             energy=1.00D-06.
 No special actions if energy rises.
 Fock matrices will be formed incrementally for  20 cycles.

 Cycle   1  Pass 1  IDiag  1:
 FoFJK:  IHMeth= 1 ICntrl=       0 DoSepK=T KAlg= 0 I1Cent=           0 FoldK=F
 IRaf=         1 NMat=       1 IRICut=       1 DoRegI=T DoRafI=F ISym2E= 0 IDoP0=0 IntGTp=1.
 FoFCou: FMM=F IPFlag=           0 FMFlag=      100000 FMFlg1=           0
         NFxFlg=           0 DoJE=T BraDBF=F KetDBF=F FulRan=T
         wScrn=  0.000000 ICntrl=       500 IOpCl=  0 I1Cent=           0 NGrid=           0
         NMat0=    1 NMatS0=      1 NMatT0=    0 NMatD0=    1 NMtDS0=    0 NMtDT0=    0
 Symmetry not used in FoFCou.
 E= -925.115543701926    
 DIIS: error= 4.60D-02 at cycle   1 NSaved=   1.
 NSaved= 1 IEnMin= 1 EnMin= -925.115543701926     IErMin= 1 ErrMin= 4.60D-02
 ErrMax= 4.60D-02  0.00D+00 EMaxC= 1.00D-01 BMatC= 1.90D+00 BMatP= 1.90D+00
 IDIUse=3 WtCom= 5.40D-01 WtEn= 4.60D-01
 Coeff-Com:  0.100D+01
 Coeff-En:   0.100D+01
 Coeff:      0.100D+01
 Gap=     0.318 Goal=   None    Shift=    0.000
 GapD=    0.318 DampG=1.000 DampE=0.500 DampFc=0.5000 IDamp=-1.
 Damping current iteration by 5.00D-01
 RMSDP=3.54D-02 MaxDP=4.46D+00              OVMax= 4.32D-02

 Cycle   2  Pass 1  IDiag  1:
 RMSU=  6.31D-03    CP:  8.14D-01
 E= -925.213935767161     Delta-E=       -0.098392065234 Rises=F Damp=T
 DIIS: error= 2.23D-02 at cycle   2 NSaved=   2.
 NSaved= 2 IEnMin= 2 EnMin= -925.213935767161     IErMin= 2 ErrMin= 2.23D-02
 ErrMax= 2.23D-02  0.00D+00 EMaxC= 1.00D-01 BMatC= 4.32D-01 BMatP= 1.90D+00
 IDIUse=3 WtCom= 7.77D-01 WtEn= 2.23D-01
 Coeff-Com: -0.883D+00 0.188D+01
 Coeff-En:   0.000D+00 0.100D+01
 Coeff:     -0.686D+00 0.169D+01
 Gap=     0.326 Goal=   None    Shift=    0.000
 RMSDP=2.04D-02 MaxDP=2.00D+00 DE=-9.84D-02 OVMax= 3.42D-02

 Cycle   3  Pass 1  IDiag  1:
 RMSU=  3.67D-03    CP:  5.90D-01  1.32D+00
 E= -925.302003529781     Delta-E=       -0.088067762620 Rises=F Damp=F
 DIIS: error= 3.38D-03 at cycle   3 NSaved=   3.
 NSaved= 3 IEnMin= 3 EnMin= -925.302003529781     IErMin= 3 ErrMin= 3.38D-03
 ErrMax= 3.38D-03  0.00D+00 EMaxC= 1.00D-01 BMatC= 8.82D-03 BMatP= 4.32D-01
 IDIUse=3 WtCom= 9.66D-01 WtEn= 3.38D-02
 Coeff-Com: -0.372D+00 0.788D+00 0.583D+00
 Coeff-En:   0.000D+00 0.000D+00 0.100D+01
 Coeff:     -0.359D+00 0.762D+00 0.598D+00
 Gap=     0.324 Goal=   None    Shift=    0.000
 RMSDP=1.97D-03 MaxDP=2.11D-01 DE=-8.81D-02 OVMax= 1.98D-02

 Cycle   4  Pass 1  IDiag  1:
 RMSU=  1.36D-03    CP:  5.91D-01  1.50D+00  7.53D-01
 E= -925.310091932580     Delta-E=       -0.008088402799 Rises=F Damp=F
 DIIS: error= 7.09D-04 at cycle   4 NSaved=   4.
 NSaved= 4 IEnMin= 4 EnMin= -925.310091932580     IErMin= 4 ErrMin= 7.09D-04
 ErrMax= 7.09D-04  0.00D+00 EMaxC= 1.00D-01 BMatC= 2.79D-04 BMatP= 8.82D-03
 IDIUse=3 WtCom= 9.93D-01 WtEn= 7.09D-03
 Coeff-Com: -0.113D+00 0.241D+00 0.236D+00 0.636D+00
 Coeff-En:   0.000D+00 0.000D+00 0.000D+00 0.100D+01
 Coeff:     -0.113D+00 0.239D+00 0.235D+00 0.639D+00
 Gap=     0.323 Goal=   None    Shift=    0.000
 RMSDP=6.12D-04 MaxDP=5.45D-02 DE=-8.09D-03 OVMax= 4.28D-03

 Cycle   5  Pass 1  IDiag  1:
 RMSU=  2.20D-04    CP:  5.85D-01  1.54D+00  7.66D-01  8.58D-01
 E= -925.310382705593     Delta-E=       -0.000290773013 Rises=F Damp=F
 DIIS: error= 1.78D-04 at cycle   5 NSaved=   5.
 NSaved= 5 IEnMin= 5 EnMin= -925.310382705593     IErMin= 5 ErrMin= 1.78D-04
 ErrMax= 1.78D-04  0.00D+00 EMaxC= 1.00D-01 BMatC= 2.01D-05 BMatP= 2.79D-04
 IDIUse=3 WtCom= 9.98D-01 WtEn= 1.78D-03
 Coeff-Com:  0.260D-01-0.554D-01-0.244D-01 0.195D+00 0.858D+00
 Coeff-En:   0.000D+00 0.000D+00 0.000D+00 0.000D+00 0.100D+01
 Coeff:      0.260D-01-0.553D-01-0.243D-01 0.195D+00 0.859D+00
 Gap=     0.323 Goal=   None    Shift=    0.000
 RMSDP=1.72D-04 MaxDP=1.24D-02 DE=-2.91D-04 OVMax= 1.44D-03

 Cycle   6  Pass 1  IDiag  1:
 RMSU=  6.98D-05    CP:  5.85D-01  1.54D+00  7.89D-01  9.34D-01  1.25D+00
 E= -925.310408165992     Delta-E=       -0.000025460399 Rises=F Damp=F
 DIIS: error= 5.77D-05 at cycle   6 NSaved=   6.
 NSaved= 6 IEnMin= 6 EnMin= -925.310408165992     IErMin= 6 ErrMin= 5.77D-05
 ErrMax= 5.77D-05  0.00D+00 EMaxC= 1.00D-01 BMatC= 1.46D-06 BMatP= 2.01D-05
 IDIUse=1 WtCom= 1.00D+00 WtEn= 0.00D+00
 Coeff-Com:  0.135D-01-0.287D-01-0.163D-01 0.540D-01 0.334D+00 0.643D+00
 Coeff:      0.135D-01-0.287D-01-0.163D-01 0.540D-01 0.334D+00 0.643D+00
 Gap=     0.323 Goal=   None    Shift=    0.000
 RMSDP=7.50D-05 MaxDP=4.92D-03 DE=-2.55D-05 OVMax= 4.05D-04

 Cycle   7  Pass 1  IDiag  1:
 RMSU=  4.11D-05    CP:  5.85D-01  1.53D+00  7.94D-01  9.68D-01  1.21D+00
                    CP:  8.20D-01
 E= -925.310409923657     Delta-E=       -0.000001757666 Rises=F Damp=F
 DIIS: error= 1.26D-05 at cycle   7 NSaved=   7.
 NSaved= 7 IEnMin= 7 EnMin= -925.310409923657     IErMin= 7 ErrMin= 1.26D-05
 ErrMax= 1.26D-05  0.00D+00 EMaxC= 1.00D-01 BMatC= 1.04D-07 BMatP= 1.46D-06
 IDIUse=1 WtCom= 1.00D+00 WtEn= 0.00D+00
 Coeff-Com: -0.222D-02 0.476D-02 0.195D-02-0.272D-01-0.966D-01 0.994D-01
 Coeff-Com:  0.102D+01
 Coeff:     -0.222D-02 0.476D-02 0.195D-02-0.272D-01-0.966D-01 0.994D-01
 Coeff:      0.102D+01
 Gap=     0.323 Goal=   None    Shift=    0.000
 RMSDP=1.80D-05 MaxDP=1.70D-03 DE=-1.76D-06 OVMax= 2.65D-04

 Cycle   8  Pass 1  IDiag  1:
 RMSU=  8.27D-06    CP:  5.85D-01  1.53D+00  7.96D-01  9.71D-01  1.25D+00
                    CP:  9.17D-01  1.20D+00
 E= -925.310410152803     Delta-E=       -0.000000229146 Rises=F Damp=F
 DIIS: error= 6.91D-06 at cycle   8 NSaved=   8.
 NSaved= 8 IEnMin= 8 EnMin= -925.310410152803     IErMin= 8 ErrMin= 6.91D-06
 ErrMax= 6.91D-06  0.00D+00 EMaxC= 1.00D-01 BMatC= 1.25D-08 BMatP= 1.04D-07
 IDIUse=1 WtCom= 1.00D+00 WtEn= 0.00D+00
 Coeff-Com: -0.147D-02 0.314D-02 0.152D-02-0.143D-01-0.537D-01 0.247D-01
 Coeff-Com:  0.419D+00 0.621D+00
 Coeff:     -0.147D-02 0.314D-02 0.152D-02-0.143D-01-0.537D-01 0.247D-01
 Coeff:      0.419D+00 0.621D+00
 Gap=     0.323 Goal=   None    Shift=    0.000
 RMSDP=2.70D-06 MaxDP=1.11D-04 DE=-2.29D-07 OVMax= 6.43D-05

 Cycle   9  Pass 1  IDiag  1:
 RMSU=  2.29D-06    CP:  5.85D-01  1.53D+00  7.96D-01  9.71D-01  1.25D+00
                    CP:  9.23D-01  1.23D+00  1.04D+00
 E= -925.310410169415     Delta-E=       -0.000000016611 Rises=F Damp=F
 DIIS: error= 2.99D-06 at cycle   9 NSaved=   9.
 NSaved= 9 IEnMin= 9 EnMin= -925.310410169415     IErMin= 9 ErrMin= 2.99D-06
 ErrMax= 2.99D-06  0.00D+00 EMaxC= 1.00D-01 BMatC= 2.26D-09 BMatP= 1.25D-08
 IDIUse=1 WtCom= 1.00D+00 WtEn= 0.00D+00
 Coeff-Com:  0.119D-03-0.259D-03 0.689D-04 0.291D-02 0.106D-01-0.170D-01
 Coeff-Com: -0.181D+00 0.225D+00 0.959D+00
 Coeff:      0.119D-03-0.259D-03 0.689D-04 0.291D-02 0.106D-01-0.170D-01
 Coeff:     -0.181D+00 0.225D+00 0.959D+00
 Gap=     0.323 Goal=   None    Shift=    0.000
 RMSDP=2.60D-06 MaxDP=1.61D-04 DE=-1.66D-08 OVMax= 4.81D-05

 Cycle  10  Pass 1  IDiag  1:
 RMSU=  5.64D-07    CP:  5.85D-01  1.53D+00  7.96D-01  9.71D-01  1.25D+00
                    CP:  9.27D-01  1.25D+00  1.27D+00  9.59D-01
 E= -925.310410174697     Delta-E=       -0.000000005282 Rises=F Damp=F
 DIIS: error= 8.67D-07 at cycle  10 NSaved=  10.
 NSaved=10 IEnMin=10 EnMin= -925.310410174697     IErMin=10 ErrMin= 8.67D-07
 ErrMax= 8.67D-07  0.00D+00 EMaxC= 1.00D-01 BMatC= 2.02D-10 BMatP= 2.26D-09
 IDIUse=1 WtCom= 1.00D+00 WtEn= 0.00D+00
 Coeff-Com:  0.135D-03-0.291D-03-0.611D-04 0.188D-02 0.681D-02-0.548D-02
 Coeff-Com: -0.848D-01 0.153D-01 0.328D+00 0.738D+00
 Coeff:      0.135D-03-0.291D-03-0.611D-04 0.188D-02 0.681D-02-0.548D-02
 Coeff:     -0.848D-01 0.153D-01 0.328D+00 0.738D+00
 Gap=     0.323 Goal=   None    Shift=    0.000
 RMSDP=3.69D-07 MaxDP=4.11D-05 DE=-5.28D-09 OVMax= 1.03D-05

 Cycle  11  Pass 1  IDiag  1:
 RMSU=  1.34D-07    CP:  5.85D-01  1.53D+00  7.96D-01  9.71D-01  1.25D+00
                    CP:  9.27D-01  1.25D+00  1.29D+00  1.04D+00  1.12D+00
 E= -925.310410175068     Delta-E=       -0.000000000371 Rises=F Damp=F
 DIIS: error= 2.10D-07 at cycle  11 NSaved=  11.
 NSaved=11 IEnMin=11 EnMin= -925.310410175068     IErMin=11 ErrMin= 2.10D-07
 ErrMax= 2.10D-07  0.00D+00 EMaxC= 1.00D-01 BMatC= 3.26D-11 BMatP= 2.02D-10
 IDIUse=1 WtCom= 1.00D+00 WtEn= 0.00D+00
 Coeff-Com:  0.220D-04-0.466D-04-0.199D-04 0.120D-03 0.248D-03 0.127D-02
 Coeff-Com:  0.201D-02-0.391D-01-0.498D-01 0.244D+00 0.841D+00
 Coeff:      0.220D-04-0.466D-04-0.199D-04 0.120D-03 0.248D-03 0.127D-02
 Coeff:      0.201D-02-0.391D-01-0.498D-01 0.244D+00 0.841D+00
 Gap=     0.323 Goal=   None    Shift=    0.000
 RMSDP=1.99D-07 MaxDP=1.85D-05 DE=-3.71D-10 OVMax= 3.17D-06

 Cycle  12  Pass 1  IDiag  1:
 RMSU=  5.84D-08    CP:  5.85D-01  1.53D+00  7.96D-01  9.71D-01  1.25D+00
                    CP:  9.27D-01  1.25D+00  1.29D+00  1.05D+00  1.26D+00
                    CP:  1.32D+00
 E= -925.310410175094     Delta-E=       -0.000000000026 Rises=F Damp=F
 DIIS: error= 8.04D-08 at cycle  12 NSaved=  12.
 NSaved=12 IEnMin=12 EnMin= -925.310410175094     IErMin=12 ErrMin= 8.04D-08
 ErrMax= 8.04D-08  0.00D+00 EMaxC= 1.00D-01 BMatC= 1.37D-12 BMatP= 3.26D-11
 IDIUse=1 WtCom= 1.00D+00 WtEn= 0.00D+00
 Coeff-Com: -0.145D-04 0.314D-04 0.103D-04-0.223D-03-0.821D-03 0.856D-03
 Coeff-Com:  0.999D-02-0.417D-02-0.344D-01-0.614D-01-0.636D-01 0.115D+01
 Coeff:     -0.145D-04 0.314D-04 0.103D-04-0.223D-03-0.821D-03 0.856D-03
 Coeff:      0.999D-02-0.417D-02-0.344D-01-0.614D-01-0.636D-01 0.115D+01
 Gap=     0.323 Goal=   None    Shift=    0.000
 RMSDP=6.06D-08 MaxDP=2.99D-06 DE=-2.64D-11 OVMax= 1.23D-06

 Cycle  13  Pass 1  IDiag  1:
 RMSU=  2.26D-08    CP:  5.85D-01  1.53D+00  7.96D-01  9.71D-01  1.25D+00
                    CP:  9.27D-01  1.25D+00  1.29D+00  1.05D+00  1.30D+00
                    CP:  1.47D+00  1.40D+00
 E= -925.310410175092     Delta-E=        0.000000000003 Rises=F Damp=F
 DIIS: error= 3.31D-08 at cycle  13 NSaved=  13.
 NSaved=13 IEnMin=12 EnMin= -925.310410175094     IErMin=13 ErrMin= 3.31D-08
 ErrMax= 3.31D-08  0.00D+00 EMaxC= 1.00D-01 BMatC= 1.69D-13 BMatP= 1.37D-12
 IDIUse=1 WtCom= 1.00D+00 WtEn= 0.00D+00
 Coeff-Com: -0.502D-05 0.108D-04 0.434D-05-0.654D-04-0.227D-03 0.179D-03
 Coeff-Com:  0.247D-02 0.897D-03-0.542D-02-0.261D-01-0.714D-01 0.317D+00
 Coeff-Com:  0.783D+00
 Coeff:     -0.502D-05 0.108D-04 0.434D-05-0.654D-04-0.227D-03 0.179D-03
 Coeff:      0.247D-02 0.897D-03-0.542D-02-0.261D-01-0.714D-01 0.317D+00
 Coeff:      0.783D+00
 Gap=     0.323 Goal=   None    Shift=    0.000
 RMSDP=1.26D-08 MaxDP=6.96D-07 DE= 2.73D-12 OVMax= 3.00D-07

 Cycle  14  Pass 1  IDiag  1:
 RMSU=  6.82D-09    CP:  5.85D-01  1.53D+00  7.96D-01  9.71D-01  1.25D+00
                    CP:  9.27D-01  1.25D+00  1.29D+00  1.05D+00  1.30D+00
                    CP:  1.47D+00  1.49D+00  1.19D+00
 E= -925.310410175113     Delta-E=       -0.000000000021 Rises=F Damp=F
 DIIS: error= 7.14D-09 at cycle  14 NSaved=  14.
 NSaved=14 IEnMin=14 EnMin= -925.310410175113     IErMin=14 ErrMin= 7.14D-09
 ErrMax= 7.14D-09  0.00D+00 EMaxC= 1.00D-01 BMatC= 5.02D-14 BMatP= 1.69D-13
 IDIUse=1 WtCom= 1.00D+00 WtEn= 0.00D+00
 Coeff-Com:  0.587D-06-0.130D-05-0.148D-06 0.136D-04 0.571D-04-0.811D-04
 Coeff-Com: -0.812D-03 0.105D-02 0.396D-02 0.455D-03-0.223D-01-0.885D-01
 Coeff-Com:  0.350D+00 0.756D+00
 Coeff:      0.587D-06-0.130D-05-0.148D-06 0.136D-04 0.571D-04-0.811D-04
 Coeff:     -0.812D-03 0.105D-02 0.396D-02 0.455D-03-0.223D-01-0.885D-01
 Coeff:      0.350D+00 0.756D+00
 Gap=     0.323 Goal=   None    Shift=    0.000
 RMSDP=8.83D-09 MaxDP=6.00D-07 DE=-2.14D-11 OVMax= 1.02D-07

 SCF Done:  E(RwB97XD) =  -925.310410175     A.U. after   14 cycles
            NFock= 14  Conv=0.88D-08     -V/T= 2.0044
 KE= 9.212943415973D+02 PE=-5.608734898223D+03 EE= 2.031005633467D+03
 Leave Link  502 at Mon Nov 14 15:07:01 2022, MaxMem= 16106127360 cpu:            4529.9 elap:             141.7
 (Enter /opt/ap/G16/B01/g16/l601.exe)
 Copying SCF densities to generalized density rwf, IOpCl= 0 IROHF=0.

 **********************************************************************

            Population analysis using the SCF Density.

 **********************************************************************

 Orbital symmetries:
       Occupied  (A) (A) (A) (A) (A) (A) (A) (A) (A) (A) (A) (A)
                 (A) (A) (A) (A) (A) (A) (A) (A) (A) (A) (A) (A)
                 (A) (A) (A) (A) (A) (A) (A) (A) (A) (A) (A) (A)
                 (A) (A) (A) (A) (A) (A) (A) (A) (A) (A) (A) (A)
                 (A) (A) (A) (A) (A) (A) (A) (A) (A) (A) (A) (A)
                 (A) (A) (A) (A) (A) (A) (A) (A) (A) (A) (A) (A)
                 (A) (A) (A) (A) (A) (A) (A) (A) (A)
       Virtual   (A) (A) (A) (A) (A) (A) (A) (A) (A) (A) (A) (A)
                 (A) (A) (A) (A) (A) (A) (A) (A) (A) (A) (A) (A)
                 (A) (A) (A) (A) (A) (A) (A) (A) (A) (A) (A) (A)
                 (A) (A) (A) (A) (A) (A) (A) (A) (A) (A) (A) (A)
                 (A) (A) (A) (A) (A) (A) (A) (A) (A) (A) (A) (A)
                 (A) (A) (A) (A) (A) (A) (A) (A) (A) (A) (A) (A)
                 (A) (A) (A) (A) (A) (A) (A) (A) (A) (A) (A) (A)
                 (A) (A) (A) (A) (A) (A) (A) (A) (A) (A) (A) (A)
                 (A) (A) (A) (A) (A) (A) (A) (A) (A) (A) (A) (A)
                 (A) (A) (A) (A) (A) (A) (A) (A) (A) (A) (A) (A)
                 (A) (A) (A) (A) (A) (A) (A) (A) (A) (A) (A) (A)
                 (A) (A) (A) (A) (A) (A) (A) (A) (A) (A) (A) (A)
                 (A) (A) (A) (A) (A) (A) (A) (A) (A) (A) (A) (A)
                 (A) (A) (A) (A) (A) (A) (A) (A) (A) (A) (A) (A)
                 (A) (A) (A) (A) (A) (A) (A) (A) (A) (A) (A) (A)
                 (A) (A) (A) (A) (A) (A) (A) (A) (A) (A) (A) (A)
                 (A) (A) (A) (A) (A) (A) (A) (A) (A) (A) (A) (A)
                 (A) (A) (A) (A) (A) (A) (A) (A) (A) (A) (A) (A)
                 (A) (A) (A) (A) (A) (A) (A) (A) (A) (A) (A) (A)
                 (A) (A) (A) (A) (A) (A) (A) (A) (A) (A) (A) (A)
                 (A) (A) (A) (A) (A) (A) (A) (A) (A) (A) (A) (A)
                 (A) (A) (A) (A) (A) (A) (A) (A) (A) (A) (A) (A)
                 (A) (A) (A) (A) (A) (A) (A) (A) (A) (A) (A) (A)
                 (A) (A) (A) (A) (A) (A) (A) (A) (A) (A) (A) (A)
                 (A) (A) (A) (A) (A) (A) (A) (A) (A) (A) (A) (A)
                 (A) (A) (A) (A) (A) (A) (A) (A) (A) (A) (A) (A)
                 (A) (A) (A) (A) (A) (A) (A) (A) (A) (A) (A) (A)
                 (A) (A) (A) (A) (A) (A) (A) (A) (A) (A) (A) (A)
                 (A) (A) (A) (A) (A) (A) (A) (A) (A) (A) (A) (A)
                 (A) (A) (A) (A) (A) (A) (A) (A) (A) (A) (A) (A)
                 (A) (A) (A) (A) (A) (A) (A) (A) (A) (A) (A) (A)
                 (A) (A) (A) (A) (A) (A) (A) (A) (A) (A) (A) (A)
                 (A) (A) (A) (A) (A) (A) (A) (A) (A) (A) (A) (A)
                 (A) (A) (A) (A) (A) (A) (A) (A) (A) (A) (A) (A)
                 (A) (A) (A) (A) (A) (A) (A) (A) (A) (A) (A) (A)
                 (A) (A) (A) (A) (A) (A) (A) (A) (A) (A) (A) (A)
                 (A) (A) (A) (A) (A) (A) (A) (A) (A) (A) (A) (A)
                 (A) (A) (A) (A) (A) (A) (A) (A) (A) (A) (A) (A)
                 (A) (A) (A) (A) (A) (A) (A) (A) (A) (A) (A) (A)
                 (A) (A) (A) (A) (A) (A) (A) (A) (A) (A) (A) (A)
                 (A) (A) (A) (A) (A) (A) (A) (A) (A) (A) (A) (A)
                 (A) (A) (A) (A) (A) (A) (A) (A) (A) (A) (A) (A)
                 (A) (A) (A) (A) (A) (A) (A) (A) (A) (A) (A) (A)
                 (A) (A) (A) (A) (A) (A) (A) (A) (A) (A) (A) (A)
                 (A) (A) (A) (A) (A) (A) (A) (A) (A) (A) (A) (A)
                 (A) (A) (A) (A) (A) (A) (A) (A) (A) (A) (A) (A)
                 (A) (A) (A) (A) (A) (A) (A) (A) (A) (A) (A) (A)
 The electronic state is 1-A.
 Alpha  occ. eigenvalues --  -10.30390 -10.30385 -10.30352 -10.30310 -10.30307
 Alpha  occ. eigenvalues --  -10.30255 -10.29239 -10.29236 -10.29224 -10.29213
 Alpha  occ. eigenvalues --  -10.29212 -10.29189 -10.29158 -10.29157 -10.29141
 Alpha  occ. eigenvalues --  -10.29139 -10.29122 -10.29109 -10.29094 -10.29084
 Alpha  occ. eigenvalues --  -10.29077 -10.29060 -10.29050 -10.29048  -0.98944
 Alpha  occ. eigenvalues --   -0.97040  -0.97011  -0.95251  -0.89398  -0.89377
 Alpha  occ. eigenvalues --   -0.85318  -0.85277  -0.85208  -0.85036  -0.82255
 Alpha  occ. eigenvalues --   -0.82220  -0.73515  -0.73300  -0.71123  -0.70652
 Alpha  occ. eigenvalues --   -0.70275  -0.70096  -0.66782  -0.66677  -0.63461
 Alpha  occ. eigenvalues --   -0.60688  -0.60645  -0.58713  -0.57164  -0.56515
 Alpha  occ. eigenvalues --   -0.54925  -0.54752  -0.54486  -0.54247  -0.53019
 Alpha  occ. eigenvalues --   -0.51908  -0.51414  -0.51287  -0.51117  -0.50854
 Alpha  occ. eigenvalues --   -0.50755  -0.47703  -0.46636  -0.46089  -0.45994
 Alpha  occ. eigenvalues --   -0.45582  -0.45046  -0.44295  -0.43153  -0.43050
 Alpha  occ. eigenvalues --   -0.42887  -0.41813  -0.41424  -0.36521  -0.35581
 Alpha  occ. eigenvalues --   -0.33615  -0.33608  -0.33597  -0.33022  -0.30980
 Alpha  occ. eigenvalues --   -0.30226
 Alpha virt. eigenvalues --    0.02092   0.02801   0.03677   0.04207   0.04329
 Alpha virt. eigenvalues --    0.04789   0.04908   0.04916   0.05158   0.05262
 Alpha virt. eigenvalues --    0.05294   0.05672   0.05719   0.06772   0.06890
 Alpha virt. eigenvalues --    0.06988   0.07433   0.07939   0.08006   0.08453
 Alpha virt. eigenvalues --    0.08649   0.08932   0.09151   0.09525   0.11122
 Alpha virt. eigenvalues --    0.11487   0.12055   0.12289   0.12750   0.13319
 Alpha virt. eigenvalues --    0.13610   0.13982   0.14193   0.14580   0.15264
 Alpha virt. eigenvalues --    0.15581   0.15813   0.15874   0.16099   0.16292
 Alpha virt. eigenvalues --    0.16562   0.16862   0.17039   0.17420   0.17524
 Alpha virt. eigenvalues --    0.17559   0.17733   0.17911   0.18055   0.18090
 Alpha virt. eigenvalues --    0.18226   0.18320   0.18431   0.18688   0.18932
 Alpha virt. eigenvalues --    0.19079   0.19367   0.19450   0.20060   0.20332
 Alpha virt. eigenvalues --    0.20473   0.20671   0.20982   0.21206   0.21469
 Alpha virt. eigenvalues --    0.21967   0.22336   0.22528   0.22633   0.22890
 Alpha virt. eigenvalues --    0.23022   0.23202   0.23399   0.23747   0.23827
 Alpha virt. eigenvalues --    0.24469   0.24922   0.25141   0.25263   0.25455
 Alpha virt. eigenvalues --    0.25596   0.26118   0.26630   0.26915   0.27199
 Alpha virt. eigenvalues --    0.27433   0.27745   0.28093   0.28136   0.28242
 Alpha virt. eigenvalues --    0.28821   0.28895   0.29175   0.29369   0.29549
 Alpha virt. eigenvalues --    0.29763   0.30088   0.30337   0.30783   0.31223
 Alpha virt. eigenvalues --    0.31852   0.31901   0.32178   0.32771   0.33394
 Alpha virt. eigenvalues --    0.33622   0.33853   0.34068   0.34171   0.34366
 Alpha virt. eigenvalues --    0.34905   0.35041   0.35463   0.35572   0.35751
 Alpha virt. eigenvalues --    0.35902   0.36123   0.36566   0.36792   0.37084
 Alpha virt. eigenvalues --    0.37255   0.37418   0.37537   0.37981   0.38143
 Alpha virt. eigenvalues --    0.38220   0.38417   0.38593   0.39440   0.39731
 Alpha virt. eigenvalues --    0.39888   0.40422   0.40801   0.41399   0.41580
 Alpha virt. eigenvalues --    0.42092   0.42300   0.42462   0.42554   0.43248
 Alpha virt. eigenvalues --    0.43525   0.43951   0.44146   0.44634   0.44986
 Alpha virt. eigenvalues --    0.45341   0.46622   0.47625   0.47876   0.48033
 Alpha virt. eigenvalues --    0.48272   0.48840   0.52876   0.53200   0.57066
 Alpha virt. eigenvalues --    0.58147   0.58499   0.59055   0.59515   0.60764
 Alpha virt. eigenvalues --    0.62069   0.62279   0.62616   0.62811   0.63047
 Alpha virt. eigenvalues --    0.63406   0.63557   0.63861   0.64039   0.64191
 Alpha virt. eigenvalues --    0.64492   0.64596   0.65162   0.65570   0.65874
 Alpha virt. eigenvalues --    0.66071   0.66371   0.66923   0.67270   0.67559
 Alpha virt. eigenvalues --    0.68076   0.68957   0.69565   0.70035   0.70691
 Alpha virt. eigenvalues --    0.70865   0.71062   0.71836   0.72433   0.72576
 Alpha virt. eigenvalues --    0.73478   0.73553   0.73830   0.74330   0.74836
 Alpha virt. eigenvalues --    0.75116   0.76369   0.76601   0.77549   0.78158
 Alpha virt. eigenvalues --    0.79126   0.79415   0.80039   0.80286   0.80747
 Alpha virt. eigenvalues --    0.81119   0.81375   0.81601   0.81935   0.82238
 Alpha virt. eigenvalues --    0.82495   0.83062   0.83340   0.83638   0.84337
 Alpha virt. eigenvalues --    0.84473   0.84713   0.85090   0.85528   0.85840
 Alpha virt. eigenvalues --    0.86241   0.86998   0.87233   0.87862   0.88468
 Alpha virt. eigenvalues --    0.89450   0.90116   0.91359   0.91626   0.92058
 Alpha virt. eigenvalues --    0.92108   0.92269   0.92997   0.93642   0.93707
 Alpha virt. eigenvalues --    0.94252   0.94432   0.95143   0.95546   0.96208
 Alpha virt. eigenvalues --    0.96592   0.96773   0.97341   0.97754   0.99464
 Alpha virt. eigenvalues --    0.99940   1.00300   1.00500   1.00980   1.01812
 Alpha virt. eigenvalues --    1.02002   1.03261   1.03576   1.04370   1.05187
 Alpha virt. eigenvalues --    1.05773   1.06264   1.07040   1.07537   1.07752
 Alpha virt. eigenvalues --    1.08226   1.08432   1.09188   1.10187   1.11818
 Alpha virt. eigenvalues --    1.12123   1.12760   1.12977   1.13554   1.14174
 Alpha virt. eigenvalues --    1.14553   1.14717   1.16258   1.16399   1.16947
 Alpha virt. eigenvalues --    1.17579   1.18242   1.19077   1.19742   1.21557
 Alpha virt. eigenvalues --    1.21770   1.22483   1.23404   1.23651   1.24098
 Alpha virt. eigenvalues --    1.24536   1.25381   1.26227   1.29474   1.29878
 Alpha virt. eigenvalues --    1.38374   1.38570   1.40435   1.41539   1.41726
 Alpha virt. eigenvalues --    1.45740   1.47242   1.48198   1.51845   1.54610
 Alpha virt. eigenvalues --    1.56573   1.57632   1.58401   1.59325   1.59639
 Alpha virt. eigenvalues --    1.60007   1.60144   1.60742   1.61319   1.61549
 Alpha virt. eigenvalues --    1.62028   1.62717   1.63014   1.63394   1.64029
 Alpha virt. eigenvalues --    1.64492   1.65583   1.65721   1.65896   1.66348
 Alpha virt. eigenvalues --    1.66952   1.67314   1.67954   1.68577   1.69732
 Alpha virt. eigenvalues --    1.70824   1.72987   1.73208   1.73953   1.74037
 Alpha virt. eigenvalues --    1.74646   1.74786   1.75304   1.75644   1.76610
 Alpha virt. eigenvalues --    1.76855   1.78632   1.81794   1.82008   1.82903
 Alpha virt. eigenvalues --    1.82917   1.83623   1.84204   1.84562   1.84976
 Alpha virt. eigenvalues --    1.85650   1.86375   1.86640   1.87132   1.88007
 Alpha virt. eigenvalues --    1.88794   1.89583   1.92428   1.92690   1.92871
 Alpha virt. eigenvalues --    1.93484   1.94526   1.97020   1.99304   1.99474
 Alpha virt. eigenvalues --    2.00163   2.01227   2.02171   2.02553   2.02787
 Alpha virt. eigenvalues --    2.02933   2.03225   2.04017   2.04438   2.04654
 Alpha virt. eigenvalues --    2.04851   2.05173   2.05638   2.05854   2.06229
 Alpha virt. eigenvalues --    2.06655   2.07331   2.08017   2.09262   2.09742
 Alpha virt. eigenvalues --    2.10958   2.11421   2.11677   2.12566   2.13292
 Alpha virt. eigenvalues --    2.13452   2.14692   2.15067   2.16887   2.17327
 Alpha virt. eigenvalues --    2.18261   2.18611   2.19755   2.21031   2.21982
 Alpha virt. eigenvalues --    2.23211   2.28238   2.29634   2.33383   2.34928
 Alpha virt. eigenvalues --    2.35886   2.36967   2.37913   2.39698   2.41992
 Alpha virt. eigenvalues --    2.44395   2.44728   2.47769   2.48960   2.50340
 Alpha virt. eigenvalues --    2.52205   2.53179   2.53464   2.54153   2.55331
 Alpha virt. eigenvalues --    2.55427   2.56283   2.56398   2.56772   2.57476
 Alpha virt. eigenvalues --    2.58513   2.58790   2.62164   2.62858   2.65766
 Alpha virt. eigenvalues --    2.72928   2.73158   2.73498   2.75602   2.75871
 Alpha virt. eigenvalues --    2.75993   2.76284   2.77347   2.79330   2.79616
 Alpha virt. eigenvalues --    2.80099   2.80380   2.80534   2.80858   2.81223
 Alpha virt. eigenvalues --    2.81767   2.82418   2.82819   2.83129   2.83419
 Alpha virt. eigenvalues --    2.83917   2.84275   2.85755   2.86126   2.87164
 Alpha virt. eigenvalues --    2.87656   2.88485   2.88698   2.89307   2.89960
 Alpha virt. eigenvalues --    2.92054   2.92483   2.92581   2.92947   2.93248
 Alpha virt. eigenvalues --    2.93924   2.94366   2.94710   2.94954   2.97914
 Alpha virt. eigenvalues --    2.98782   2.99441   3.00901   3.01262   3.02362
 Alpha virt. eigenvalues --    3.03750   3.04664   3.05091   3.05186   3.05705
 Alpha virt. eigenvalues --    3.06589   3.07166   3.07881   3.08456   3.11556
 Alpha virt. eigenvalues --    3.12187   3.16255   3.18881   3.19898   3.20280
 Alpha virt. eigenvalues --    3.21974   3.23370   3.26100   3.30757   3.31791
 Alpha virt. eigenvalues --    3.32351   3.33646   3.34725   3.36445   3.37573
 Alpha virt. eigenvalues --    3.46569   3.47456   3.49119   3.49547   3.49638
 Alpha virt. eigenvalues --    3.50200   3.53355   3.53742   3.60576   3.60926
 Alpha virt. eigenvalues --    3.61166   3.63670   3.64852   3.65416   3.66347
 Alpha virt. eigenvalues --    3.73754   3.74015   3.76347   3.76360   3.77083
 Alpha virt. eigenvalues --    3.77515   3.91024   3.92618   3.95374   4.09758
 Alpha virt. eigenvalues --    4.09953   4.10276   4.14513   4.14589   4.14678
 Alpha virt. eigenvalues --    4.24280   4.24392   4.25642   4.26110   4.26488
 Alpha virt. eigenvalues --    4.26917   4.27692   4.27904   4.48116   4.63646
 Alpha virt. eigenvalues --    4.66916   4.94086   4.95590   4.95765   4.98738
 Alpha virt. eigenvalues --   23.68316  23.81533  23.82180  23.88160  24.08368
 Alpha virt. eigenvalues --   24.08416  24.10926  24.10954  24.11265  24.11418
 Alpha virt. eigenvalues --   24.12916  24.13406  24.20229  24.20501  24.20976
 Alpha virt. eigenvalues --   24.24074  24.24326  24.24380  24.24582  24.25664
 Alpha virt. eigenvalues --   24.31534  24.33831  24.34047  24.35095
          Condensed to atoms (all electrons):
               1          2          3          4          5          6
     1  C   18.871571   1.523894   1.023137  -5.282431   0.062683   0.233359
     2  C    1.523894  12.521765   0.001261   1.869751   0.356940  -1.858591
     3  C    1.023137   0.001261  13.067233  -2.418894   0.124303  -2.729671
     4  C   -5.282431   1.869751  -2.418894  19.429376  -0.175029   0.107330
     5  H    0.062683   0.356940   0.124303  -0.175029   0.500875  -0.078086
     6  C    0.233359  -1.858591  -2.729671   0.107330  -0.078086  12.849371
     7  C   -6.312424  -2.590935   1.489226  -7.659691   0.115082  -0.597875
     8  H    0.090829   0.027502   0.353746   0.125392  -0.002844  -0.007572
     9  C   -3.420216  -0.705723  -0.495448   0.386698   0.070478  -1.420660
    10  C   -0.517572  -2.326681  -1.509954   0.682135  -0.086199   0.919026
    11  C   -0.735579   0.358651  -0.787979   0.372538  -0.095680   0.029900
    12  C   -0.839661  -1.049671   0.967547  -0.420837   0.040322  -0.478306
    13  C   -0.251826  -1.567668  -1.906298  -0.624853  -0.036097   0.995254
    14  H    0.094049   0.067163   0.059011  -0.049425  -0.002177  -0.011620
    15  C    1.608781   2.548088   0.054356  -0.656423  -0.042095   0.265367
    16  C   -1.507264  -3.359317  -0.047699  -1.543507   0.007136  -0.108936
    17  C   -0.332997   0.788440   0.070351   0.439886   0.024868  -1.551819
    18  H    0.052652  -0.032140  -0.045841  -0.042450  -0.003918   0.070981
    19  C    0.158024   0.194344   0.059862  -0.092818   0.009840  -1.328326
    20  H    0.004771  -0.026152   0.011731   0.008415   0.000266   0.023174
    21  C    1.833513   0.226234   2.305224  -0.830282  -0.019710   0.073641
    22  C   -1.387631  -0.144661  -2.565677   1.583952   0.017678   0.067305
    23  C    0.352947   0.649406   0.059069  -0.231776   0.033293  -0.011538
    24  H   -0.027349  -0.019036  -0.029122   0.011191  -0.008896   0.031099
    25  C   -0.033548   0.175400   0.071847   0.151252   0.017464  -0.062689
    26  H   -0.003949  -0.040081  -0.008848   0.080399  -0.004355   0.008626
    27  C   -0.207865  -0.306038   0.060580  -0.067585  -0.004843  -0.322684
    28  H    0.000069   0.009795   0.000226   0.007037   0.000126   0.028895
    29  H    0.005140   0.009796  -0.007228   0.000723   0.000055   0.035077
    30  C    0.176692   0.088819   0.300709  -0.112259   0.000741  -0.098697
    31  H   -0.034346  -0.016357  -0.038011   0.014191  -0.000881   0.018504
    32  C   -0.071682   0.053913   0.113068   0.262367   0.001993  -0.020921
    33  H   -0.007821  -0.015005  -0.032877  -0.094495   0.000685   0.009108
    34  C   -0.092200  -0.241805  -0.025064  -0.230703  -0.010359   0.028825
    35  H    0.006179   0.005420   0.001030  -0.000533   0.000845  -0.001793
    36  H    0.002884   0.008945  -0.000263   0.003311   0.000864  -0.000500
    37  H   -0.006702  -0.009614  -0.000814  -0.000215  -0.000264   0.014448
    38  C   -0.023218  -0.019246  -0.139919   0.012679  -0.000247   0.032515
    39  H    0.002906   0.000842   0.005632   0.000869   0.000016  -0.002418
    40  H    0.003104  -0.000468   0.009163   0.005685  -0.000051  -0.000636
    41  H   -0.000737  -0.006480  -0.000774  -0.005513  -0.000502   0.000686
    42  H    0.000373  -0.000708  -0.005162   0.000651  -0.000008   0.000904
               7          8          9         10         11         12
     1  C   -6.312424   0.090829  -3.420216  -0.517572  -0.735579  -0.839661
     2  C   -2.590935   0.027502  -0.705723  -2.326681   0.358651  -1.049671
     3  C    1.489226   0.353746  -0.495448  -1.509954  -0.787979   0.967547
     4  C   -7.659691   0.125392   0.386698   0.682135   0.372538  -0.420837
     5  H    0.115082  -0.002844   0.070478  -0.086199  -0.095680   0.040322
     6  C   -0.597875  -0.007572  -1.420660   0.919026   0.029900  -0.478306
     7  C   19.754890  -0.221123   1.814302  -0.489269  -0.422579   0.933280
     8  H   -0.221123   0.491685   0.045229  -0.026976  -0.030232  -0.013239
     9  C    1.814302   0.045229  13.860780  -2.015782  -0.350223   0.139296
    10  C   -0.489269  -0.026976  -2.015782  13.995291   0.293658  -0.097202
    11  C   -0.422579  -0.030232  -0.350223   0.293658  15.092992  -6.452828
    12  C    0.933280  -0.013239   0.139296  -0.097202  -6.452828  14.304114
    13  C    0.665223  -0.035487  -2.200767   1.319308   0.159064   0.074045
    14  H   -0.047154  -0.002068   0.263247   0.060130   0.002827  -0.003899
    15  C   -0.694316  -0.014273  -2.730925  -1.162447  -0.178432   0.166051
    16  C    1.599720   0.013625   3.555010  -0.632001   0.112616  -0.083075
    17  C   -0.061174   0.010038   0.085530   0.053034  -2.119021   0.687039
    18  H   -0.016661  -0.002149  -0.025808   0.019387   0.498667  -0.014130
    19  C    0.110570   0.008348   0.043087  -0.084440   0.427172  -1.143177
    20  H   -0.002227   0.004271   0.003411   0.012521   0.012928   0.369327
    21  C   -1.054336  -0.038151  -2.837772   0.296932  -0.025639  -0.032870
    22  C   -1.115306   0.007724   3.020998  -0.409403   0.038180   0.007806
    23  C   -0.083127  -0.000627   0.041451  -1.850875  -0.058207   0.033116
    24  H   -0.001359  -0.000358  -0.047943   0.004825   0.009220  -0.000606
    25  C    0.180153   0.001836   0.118718  -1.574334  -0.001385  -0.000159
    26  H   -0.076212   0.000607  -0.015503  -0.002735  -0.000043   0.001380
    27  C    0.034950   0.000411  -0.036361   0.021507   0.038797  -0.450564
    28  H    0.001596   0.000295   0.001577  -0.000586  -0.112223   0.013930
    29  H   -0.001249  -0.000918  -0.000297  -0.000822   0.007385  -0.098213
    30  C    0.053687  -0.020575   0.144672  -0.040480   0.001145  -0.031182
    31  H    0.017288  -0.002077  -0.046537   0.015382   0.003444   0.010833
    32  C   -0.161909   0.028952   0.291262  -0.066406  -0.017389   0.021826
    33  H    0.100709  -0.004644  -0.030994  -0.004375   0.001670  -0.000636
    34  C    0.024948   0.000159   0.081277  -0.121205   0.000430   0.000713
    35  H    0.003074  -0.000033   0.005813   0.016777  -0.000400   0.000186
    36  H    0.004303  -0.000054  -0.001245   0.012416  -0.000184   0.000088
    37  H    0.001628   0.000111  -0.000898   0.000688   0.021160   0.004112
    38  C   -0.225150  -0.012765  -0.030493   0.033337   0.006255  -0.009170
    39  H    0.003254   0.000118   0.007046  -0.001095  -0.000405   0.000522
    40  H   -0.000676   0.001067   0.001670  -0.002607  -0.000195   0.000172
    41  H    0.001134  -0.000004  -0.001978   0.025136   0.000075  -0.000007
    42  H   -0.005792  -0.000405  -0.004997   0.001009   0.000189  -0.000251
              13         14         15         16         17         18
     1  C   -0.251826   0.094049   1.608781  -1.507264  -0.332997   0.052652
     2  C   -1.567668   0.067163   2.548088  -3.359317   0.788440  -0.032140
     3  C   -1.906298   0.059011   0.054356  -0.047699   0.070351  -0.045841
     4  C   -0.624853  -0.049425  -0.656423  -1.543507   0.439886  -0.042450
     5  H   -0.036097  -0.002177  -0.042095   0.007136   0.024868  -0.003918
     6  C    0.995254  -0.011620   0.265367  -0.108936  -1.551819   0.070981
     7  C    0.665223  -0.047154  -0.694316   1.599720  -0.061174  -0.016661
     8  H   -0.035487  -0.002068  -0.014273   0.013625   0.010038  -0.002149
     9  C   -2.200767   0.263247  -2.730925   3.555010   0.085530  -0.025808
    10  C    1.319308   0.060130  -1.162447  -0.632001   0.053034   0.019387
    11  C    0.159064   0.002827  -0.178432   0.112616  -2.119021   0.498667
    12  C    0.074045  -0.003899   0.166051  -0.083075   0.687039  -0.014130
    13  C   12.834532   0.027528   0.194773  -0.244495  -0.018668   0.013432
    14  H    0.027528   0.502004   0.104312  -0.191343  -0.003191   0.000611
    15  C    0.194773   0.104312  14.645866  -7.675158  -0.103046   0.012034
    16  C   -0.244495  -0.191343  -7.675158  16.985461   0.060763  -0.009210
    17  C   -0.018668  -0.003191  -0.103046   0.060763   8.714174  -0.198325
    18  H    0.013432   0.000611   0.012034  -0.009210  -0.198325   0.475540
    19  C   -0.103670   0.003343   0.021789  -0.009780  -0.724232   0.019466
    20  H    0.021766  -0.000584  -0.006884   0.004293   0.016083  -0.001532
    21  C   -0.762065   0.072078   0.192355  -0.239565   0.015482   0.000753
    22  C   -0.470703  -0.132886  -0.250556   0.436015  -0.002894  -0.000626
    23  C   -0.036917   0.010488  -0.179349  -0.177683  -0.000497  -0.003327
    24  H    0.015182  -0.001003   0.502222  -0.032307  -0.003531   0.001193
    25  C   -0.091807  -0.009852   0.260830  -0.644570  -0.002412  -0.000541
    26  H   -0.007086  -0.002320  -0.041346   0.456146  -0.000015   0.000255
    27  C    0.040771   0.000135   0.005168  -0.002945   0.242721   0.011223
    28  H   -0.000817  -0.000062  -0.000862   0.000676   0.440924  -0.011787
    29  H   -0.003032   0.000013   0.000362  -0.000081   0.001263   0.000310
    30  C   -1.593068   0.002688  -0.013454   0.033164   0.010445  -0.001508
    31  H   -0.021578  -0.001804   0.006146  -0.006000  -0.000066   0.000318
    32  C   -1.598067  -0.009650   0.006311  -0.031965  -0.002565  -0.000180
    33  H    0.020991  -0.002042  -0.006191   0.027264   0.000309   0.000013
    34  C    0.032850  -0.003599  -0.397420  -0.185833   0.000265   0.000430
    35  H   -0.001034   0.000175  -0.091240   0.012845   0.000031  -0.000060
    36  H   -0.002245  -0.000715   0.004384  -0.081870  -0.000032  -0.000015
    37  H    0.001230  -0.000005   0.000050  -0.000019  -0.075764   0.000882
    38  C   -0.121710   0.001644   0.005839  -0.017889   0.000147   0.000240
    39  H    0.023015   0.000247  -0.000286   0.000531  -0.000013  -0.000011
    40  H    0.012551  -0.001009  -0.000467   0.001886   0.000011  -0.000008
    41  H    0.001056   0.000188   0.014432  -0.011770   0.000004   0.000029
    42  H    0.022116   0.000106   0.000154  -0.000476   0.000009   0.000004
              19         20         21         22         23         24
     1  C    0.158024   0.004771   1.833513  -1.387631   0.352947  -0.027349
     2  C    0.194344  -0.026152   0.226234  -0.144661   0.649406  -0.019036
     3  C    0.059862   0.011731   2.305224  -2.565677   0.059069  -0.029122
     4  C   -0.092818   0.008415  -0.830282   1.583952  -0.231776   0.011191
     5  H    0.009840   0.000266  -0.019710   0.017678   0.033293  -0.008896
     6  C   -1.328326   0.023174   0.073641   0.067305  -0.011538   0.031099
     7  C    0.110570  -0.002227  -1.054336  -1.115306  -0.083127  -0.001359
     8  H    0.008348   0.004271  -0.038151   0.007724  -0.000627  -0.000358
     9  C    0.043087   0.003411  -2.837772   3.020998   0.041451  -0.047943
    10  C   -0.084440   0.012521   0.296932  -0.409403  -1.850875   0.004825
    11  C    0.427172   0.012928  -0.025639   0.038180  -0.058207   0.009220
    12  C   -1.143177   0.369327  -0.032870   0.007806   0.033116  -0.000606
    13  C   -0.103670   0.021766  -0.762065  -0.470703  -0.036917   0.015182
    14  H    0.003343  -0.000584   0.072078  -0.132886   0.010488  -0.001003
    15  C    0.021789  -0.006884   0.192355  -0.250556  -0.179349   0.502222
    16  C   -0.009780   0.004293  -0.239565   0.436015  -0.177683  -0.032307
    17  C   -0.724232   0.016083   0.015482  -0.002894  -0.000497  -0.003531
    18  H    0.019466  -0.001532   0.000753  -0.000626  -0.003327   0.001193
    19  C    7.977810  -0.121951   0.002248  -0.007143  -0.000460  -0.002774
    20  H   -0.121951   0.474496  -0.015750   0.009307  -0.001199  -0.000090
    21  C    0.002248  -0.015750  13.917390  -6.181140  -0.011356   0.008012
    22  C   -0.007143   0.009307  -6.181140  14.038059   0.031296  -0.008203
    23  C   -0.000460  -0.001199  -0.011356   0.031296   7.777413  -0.100992
    24  H   -0.002774  -0.000090   0.008012  -0.008203  -0.100992   0.483094
    25  C    0.002084  -0.000106   0.001060  -0.017245  -0.476726  -0.008468
    26  H   -0.000176   0.000120  -0.006096   0.024156  -0.019612   0.000548
    27  C    0.522136  -0.003982  -0.019014   0.006357  -0.000763   0.001508
    28  H    0.002428   0.000215   0.000378  -0.000082   0.000092  -0.000066
    29  H    0.424343  -0.010607   0.002092  -0.000543   0.000059  -0.000021
    30  C   -0.022010  -0.000345  -0.411058   0.024790  -0.000926   0.000081
    31  H   -0.002974  -0.002246   0.498623  -0.043367  -0.000240   0.000372
    32  C    0.005984  -0.000497  -0.059434  -0.139542   0.005817  -0.001119
    33  H   -0.000579   0.000123  -0.029293   0.438723   0.002239  -0.000009
    34  C   -0.000811  -0.000012   0.005942  -0.016097   0.350375   0.021307
    35  H    0.000151   0.000013  -0.000349   0.000684   0.426731  -0.010689
    36  H    0.000010  -0.000001  -0.000311   0.001240   0.016516  -0.000386
    37  H   -0.065612   0.000963  -0.000564   0.000190  -0.000021   0.000048
    38  C   -0.003510   0.000004  -0.269926  -0.473694   0.000226   0.000179
    39  H    0.000292   0.000133  -0.094436   0.011225   0.000011  -0.000013
    40  H    0.000025  -0.000003   0.004990  -0.077954  -0.000085  -0.000001
    41  H   -0.000017   0.000002   0.000187  -0.000553  -0.081367   0.001264
    42  H   -0.000093   0.000009   0.008081  -0.004939   0.000005   0.000005
              25         26         27         28         29         30
     1  C   -0.033548  -0.003949  -0.207865   0.000069   0.005140   0.176692
     2  C    0.175400  -0.040081  -0.306038   0.009795   0.009796   0.088819
     3  C    0.071847  -0.008848   0.060580   0.000226  -0.007228   0.300709
     4  C    0.151252   0.080399  -0.067585   0.007037   0.000723  -0.112259
     5  H    0.017464  -0.004355  -0.004843   0.000126   0.000055   0.000741
     6  C   -0.062689   0.008626  -0.322684   0.028895   0.035077  -0.098697
     7  C    0.180153  -0.076212   0.034950   0.001596  -0.001249   0.053687
     8  H    0.001836   0.000607   0.000411   0.000295  -0.000918  -0.020575
     9  C    0.118718  -0.015503  -0.036361   0.001577  -0.000297   0.144672
    10  C   -1.574334  -0.002735   0.021507  -0.000586  -0.000822  -0.040480
    11  C   -0.001385  -0.000043   0.038797  -0.112223   0.007385   0.001145
    12  C   -0.000159   0.001380  -0.450564   0.013930  -0.098213  -0.031182
    13  C   -0.091807  -0.007086   0.040771  -0.000817  -0.003032  -1.593068
    14  H   -0.009852  -0.002320   0.000135  -0.000062   0.000013   0.002688
    15  C    0.260830  -0.041346   0.005168  -0.000862   0.000362  -0.013454
    16  C   -0.644570   0.456146  -0.002945   0.000676  -0.000081   0.033164
    17  C   -0.002412  -0.000015   0.242721   0.440924   0.001263   0.010445
    18  H   -0.000541   0.000255   0.011223  -0.011787   0.000310  -0.001508
    19  C    0.002084  -0.000176   0.522136   0.002428   0.424343  -0.022010
    20  H   -0.000106   0.000120  -0.003982   0.000215  -0.010607  -0.000345
    21  C    0.001060  -0.006096  -0.019014   0.000378   0.002092  -0.411058
    22  C   -0.017245   0.024156   0.006357  -0.000082  -0.000543   0.024790
    23  C   -0.476726  -0.019612  -0.000763   0.000092   0.000059  -0.000926
    24  H   -0.008468   0.000548   0.001508  -0.000066  -0.000021   0.000081
    25  C    7.618218  -0.039382  -0.000395  -0.000017  -0.000005   0.005305
    26  H   -0.039382   0.497817   0.000069   0.000006  -0.000004   0.001061
    27  C   -0.000395   0.000069   6.462280  -0.063241  -0.053431  -0.005016
    28  H   -0.000017   0.000006  -0.063241   0.474767   0.000277   0.000081
    29  H   -0.000005  -0.000004  -0.053431   0.000277   0.475309   0.000193
    30  C    0.005305   0.001061  -0.005016   0.000081   0.000193   7.740222
    31  H   -0.000756   0.000040   0.000858   0.000006   0.000094  -0.065316
    32  C   -0.017009   0.001679  -0.000088   0.000009   0.000017  -0.580903
    33  H   -0.005443  -0.005172   0.000060   0.000004   0.000002  -0.010976
    34  C    0.405441   0.018497   0.000164   0.000009   0.000006   0.000125
    35  H    0.011242  -0.000466  -0.000039   0.000003  -0.000000  -0.000001
    36  H    0.414528  -0.010864  -0.000000  -0.000001  -0.000000  -0.000024
    37  H   -0.000009   0.000003   0.452604  -0.009220  -0.009583  -0.000129
    38  C   -0.004573  -0.000983  -0.000006   0.000001   0.000024   0.436864
    39  H    0.000041   0.000044   0.000007  -0.000001  -0.000011   0.421632
    40  H    0.000676   0.000599  -0.000001   0.000000  -0.000001   0.012305
    41  H   -0.058946   0.001254   0.000005  -0.000000   0.000000   0.000005
    42  H   -0.000133  -0.000048   0.000005  -0.000000  -0.000000  -0.077639
              31         32         33         34         35         36
     1  C   -0.034346  -0.071682  -0.007821  -0.092200   0.006179   0.002884
     2  C   -0.016357   0.053913  -0.015005  -0.241805   0.005420   0.008945
     3  C   -0.038011   0.113068  -0.032877  -0.025064   0.001030  -0.000263
     4  C    0.014191   0.262367  -0.094495  -0.230703  -0.000533   0.003311
     5  H   -0.000881   0.001993   0.000685  -0.010359   0.000845   0.000864
     6  C    0.018504  -0.020921   0.009108   0.028825  -0.001793  -0.000500
     7  C    0.017288  -0.161909   0.100709   0.024948   0.003074   0.004303
     8  H   -0.002077   0.028952  -0.004644   0.000159  -0.000033  -0.000054
     9  C   -0.046537   0.291262  -0.030994   0.081277   0.005813  -0.001245
    10  C    0.015382  -0.066406  -0.004375  -0.121205   0.016777   0.012416
    11  C    0.003444  -0.017389   0.001670   0.000430  -0.000400  -0.000184
    12  C    0.010833   0.021826  -0.000636   0.000713   0.000186   0.000088
    13  C   -0.021578  -1.598067   0.020991   0.032850  -0.001034  -0.002245
    14  H   -0.001804  -0.009650  -0.002042  -0.003599   0.000175  -0.000715
    15  C    0.006146   0.006311  -0.006191  -0.397420  -0.091240   0.004384
    16  C   -0.006000  -0.031965   0.027264  -0.185833   0.012845  -0.081870
    17  C   -0.000066  -0.002565   0.000309   0.000265   0.000031  -0.000032
    18  H    0.000318  -0.000180   0.000013   0.000430  -0.000060  -0.000015
    19  C   -0.002974   0.005984  -0.000579  -0.000811   0.000151   0.000010
    20  H   -0.002246  -0.000497   0.000123  -0.000012   0.000013  -0.000001
    21  C    0.498623  -0.059434  -0.029293   0.005942  -0.000349  -0.000311
    22  C   -0.043367  -0.139542   0.438723  -0.016097   0.000684   0.001240
    23  C   -0.000240   0.005817   0.002239   0.350375   0.426731   0.016516
    24  H    0.000372  -0.001119  -0.000009   0.021307  -0.010689  -0.000386
    25  C   -0.000756  -0.017009  -0.005443   0.405441   0.011242   0.414528
    26  H    0.000040   0.001679  -0.005172   0.018497  -0.000466  -0.010864
    27  C    0.000858  -0.000088   0.000060   0.000164  -0.000039  -0.000000
    28  H    0.000006   0.000009   0.000004   0.000009   0.000003  -0.000001
    29  H    0.000094   0.000017   0.000002   0.000006  -0.000000  -0.000000
    30  C   -0.065316  -0.580903  -0.010976   0.000125  -0.000001  -0.000024
    31  H    0.492490  -0.010088   0.000213   0.000211  -0.000015  -0.000005
    32  C   -0.010088   7.630256  -0.062835  -0.004466   0.000059   0.000414
    33  H    0.000213  -0.062835   0.499719  -0.000709   0.000051   0.000473
    34  C    0.000211  -0.004466  -0.000709   6.413984  -0.068853  -0.059352
    35  H   -0.000015   0.000059   0.000051  -0.068853   0.474966   0.001107
    36  H   -0.000005   0.000414   0.000473  -0.059352   0.001107   0.474332
    37  H    0.000010   0.000001   0.000003   0.000007  -0.000002  -0.000000
    38  C    0.028293   0.497234   0.019898  -0.000214   0.000001   0.000071
    39  H   -0.012648   0.011181  -0.000472  -0.000003   0.000000  -0.000001
    40  H   -0.000367   0.420009  -0.013013   0.000094  -0.000002  -0.000048
    41  H    0.000005  -0.000122  -0.000028   0.462106  -0.010747  -0.010543
    42  H    0.001872  -0.064226   0.001843  -0.000000  -0.000000   0.000001
              37         38         39         40         41         42
     1  C   -0.006702  -0.023218   0.002906   0.003104  -0.000737   0.000373
     2  C   -0.009614  -0.019246   0.000842  -0.000468  -0.006480  -0.000708
     3  C   -0.000814  -0.139919   0.005632   0.009163  -0.000774  -0.005162
     4  C   -0.000215   0.012679   0.000869   0.005685  -0.005513   0.000651
     5  H   -0.000264  -0.000247   0.000016  -0.000051  -0.000502  -0.000008
     6  C    0.014448   0.032515  -0.002418  -0.000636   0.000686   0.000904
     7  C    0.001628  -0.225150   0.003254  -0.000676   0.001134  -0.005792
     8  H    0.000111  -0.012765   0.000118   0.001067  -0.000004  -0.000405
     9  C   -0.000898  -0.030493   0.007046   0.001670  -0.001978  -0.004997
    10  C    0.000688   0.033337  -0.001095  -0.002607   0.025136   0.001009
    11  C    0.021160   0.006255  -0.000405  -0.000195   0.000075   0.000189
    12  C    0.004112  -0.009170   0.000522   0.000172  -0.000007  -0.000251
    13  C    0.001230  -0.121710   0.023015   0.012551   0.001056   0.022116
    14  H   -0.000005   0.001644   0.000247  -0.001009   0.000188   0.000106
    15  C    0.000050   0.005839  -0.000286  -0.000467   0.014432   0.000154
    16  C   -0.000019  -0.017889   0.000531   0.001886  -0.011770  -0.000476
    17  C   -0.075764   0.000147  -0.000013   0.000011   0.000004   0.000009
    18  H    0.000882   0.000240  -0.000011  -0.000008   0.000029   0.000004
    19  C   -0.065612  -0.003510   0.000292   0.000025  -0.000017  -0.000093
    20  H    0.000963   0.000004   0.000133  -0.000003   0.000002   0.000009
    21  C   -0.000564  -0.269926  -0.094436   0.004990   0.000187   0.008081
    22  C    0.000190  -0.473694   0.011225  -0.077954  -0.000553  -0.004939
    23  C   -0.000021   0.000226   0.000011  -0.000085  -0.081367   0.000005
    24  H    0.000048   0.000179  -0.000013  -0.000001   0.001264   0.000005
    25  C   -0.000009  -0.004573   0.000041   0.000676  -0.058946  -0.000133
    26  H    0.000003  -0.000983   0.000044   0.000599   0.001254  -0.000048
    27  C    0.452604  -0.000006   0.000007  -0.000001   0.000005   0.000005
    28  H   -0.009220   0.000001  -0.000001   0.000000  -0.000000  -0.000000
    29  H   -0.009583   0.000024  -0.000011  -0.000001   0.000000  -0.000000
    30  C   -0.000129   0.436864   0.421632   0.012305   0.000005  -0.077639
    31  H    0.000010   0.028293  -0.012648  -0.000367   0.000005   0.001872
    32  C    0.000001   0.497234   0.011181   0.420009  -0.000122  -0.064226
    33  H    0.000003   0.019898  -0.000472  -0.013013  -0.000028   0.001843
    34  C    0.000007  -0.000214  -0.000003   0.000094   0.462106  -0.000000
    35  H   -0.000002   0.000001   0.000000  -0.000002  -0.010747  -0.000000
    36  H   -0.000000   0.000071  -0.000001  -0.000048  -0.010543   0.000001
    37  H    0.483549   0.000003  -0.000000  -0.000000   0.000000   0.000000
    38  C    0.000003   6.347819  -0.066373  -0.063802  -0.000001   0.466644
    39  H   -0.000000  -0.066373   0.475904   0.001082  -0.000000  -0.011787
    40  H   -0.000000  -0.063802   0.001082   0.477535   0.000001  -0.011626
    41  H    0.000000  -0.000001  -0.000000   0.000001   0.486849   0.000000
    42  H    0.000000   0.466644  -0.011787  -0.011626   0.000000   0.488809
 Mulliken charges:
               1
     1  C    0.989463
     2  C   -1.149989
     3  C   -1.412771
     4  C    0.983889
     5  H    0.185689
     6  C    0.849945
     7  C    0.931526
     8  H    0.224630
     9  C   -1.560980
    10  C    1.240947
    11  C   -0.100341
    12  C   -0.556020
    13  C    1.225275
    14  H    0.204422
    15  C   -0.374497
    16  C   -0.462393
    17  C   -0.461557
    18  H    0.231807
    19  C   -0.278802
    20  H    0.215828
    21  C   -0.526101
    22  C   -0.314836
    23  C   -0.462878
    24  H    0.212991
    25  C   -0.385583
    26  H    0.191990
    27  C   -0.357454
    28  H    0.215546
    29  H    0.223507
    30  C   -0.369858
    31  H    0.196485
    32  C   -0.431291
    33  H    0.203511
    34  C   -0.389458
    35  H    0.218874
    36  H    0.222773
    37  H    0.197747
    38  C   -0.407026
    39  H    0.223423
    40  H    0.220397
    41  H    0.195670
    42  H    0.195503
 Sum of Mulliken charges =  -0.00000
 Mulliken charges with hydrogens summed into heavy atoms:
               1
     1  C    0.989463
     2  C   -0.964300
     3  C   -1.188141
     4  C    0.983889
     6  C    0.849945
     7  C    0.931526
     9  C   -1.356558
    10  C    1.240947
    11  C    0.131465
    12  C   -0.340192
    13  C    1.225275
    15  C   -0.161505
    16  C   -0.270403
    17  C   -0.246012
    19  C   -0.055295
    21  C   -0.329616
    22  C   -0.111326
    23  C   -0.244004
    25  C   -0.162810
    27  C   -0.159707
    30  C   -0.146434
    32  C   -0.210895
    34  C   -0.193789
    38  C   -0.211523
 Electronic spatial extent (au):  <R**2>=          10005.9156
 Charge=             -0.0000 electrons
 Dipole moment (field-independent basis, Debye):
    X=              0.0204    Y=             -0.0078    Z=             -0.0020  Tot=              0.0219
 Quadrupole moment (field-independent basis, Debye-Ang):
   XX=           -126.5195   YY=           -129.4858   ZZ=           -138.3620
   XY=              0.0937   XZ=             -6.3905   YZ=             -2.5621
 Traceless Quadrupole moment (field-independent basis, Debye-Ang):
   XX=              4.9363   YY=              1.9699   ZZ=             -6.9062
   XY=              0.0937   XZ=             -6.3905   YZ=             -2.5621
 Octapole moment (field-independent basis, Debye-Ang**2):
  XXX=             33.9452  YYY=              4.8622  ZZZ=              1.5695  XYY=            -49.3048
  XXY=             -2.3362  XXZ=             31.3187  XZZ=             15.0868  YZZ=             -2.4509
  YYZ=            -33.0610  XYZ=            -15.8081
 Hexadecapole moment (field-independent basis, Debye-Ang**3):
 XXXX=          -6265.1904 YYYY=          -6181.6704 ZZZZ=           -604.0722 XXXY=              5.4108
 XXXZ=           -117.1358 YYYX=              4.2590 YYYZ=             13.7742 ZZZX=            -12.1649
 ZZZY=            -17.3068 XXYY=          -2134.0137 XXZZ=          -1184.9044 YYZZ=          -1230.3637
 XXYZ=            -62.5446 YYXZ=            -34.3613 ZZXY=             -6.9623
 N-N= 1.731124512984D+03 E-N=-5.608734898188D+03  KE= 9.212943415973D+02
 No NMR shielding tensors so no spin-rotation constants.
 Leave Link  601 at Mon Nov 14 15:07:01 2022, MaxMem= 16106127360 cpu:               9.0 elap:               0.3
 (Enter /opt/ap/G16/B01/g16/l9999.exe)
 1\1\GINC-N60\SP\RwB97XD\6-311++G(d,p)\C24H18\ROOT\14-Nov-2022\0\\#P wB
 97XD/6-311++G(d,p) scf=maxcycle=512\\_conf005.gjf nmol_natom 1_42\\0,1
 \C\C,1,1.39412829\C,1,1.39435449,2,118.86443127\C,2,1.39416084,1,121.1
 529487,3,0.03668482,0\H,2,1.08488355,1,119.42236619,3,-179.97409048,0\
 C,1,1.48467131,2,120.55714816,4,179.25839056,0\C,3,1.39437784,1,121.11
 776116,2,-0.05351271,0\H,3,1.08487775,1,119.41869036,2,177.23008049,0\
 C,4,1.39432447,2,118.86473838,1,0.01008406,0\C,4,1.48466627,2,120.5464
 188,1,179.19454736,0\C,6,1.3968498,1,120.7843492,2,-65.,0\C,6,1.396868
 2,1,120.67653841,2,115.,0\C,7,1.48449863,3,120.56496838,1,-179.9632580
 4,0\H,9,1.0848792,4,119.41824946,2,177.22245984,0\C,10,1.39685361,4,12
 0.76946845,2,-42.52368674,0\C,10,1.39686289,4,120.69448769,2,137.43107
 516,0\C,11,1.38888939,6,120.7380073,1,179.94058542,0\H,11,1.0847641,6,
 119.46912378,1,-1.41050605,0\C,12,1.38882428,6,120.76493111,1,-179.950
 82712,0\H,12,1.08482758,6,119.44182626,1,-1.23602505,0\C,13,1.39682899
 ,7,120.74134419,3,42.89023273,0\C,13,1.39683158,7,120.7379111,3,-137.1
 2494058,0\C,15,1.38888263,10,120.742191,4,179.9460119,0\H,15,1.0847633
 4,10,119.47085903,4,-1.40606944,0\C,16,1.38886088,10,120.76338989,4,-1
 79.95592713,0\H,16,1.08483431,10,119.44215232,4,-1.23439681,0\C,17,1.3
 9007919,11,120.20743432,6,0.00349958,0\H,17,1.0843506,11,119.71318733,
 6,179.5011609,0\H,19,1.08435858,12,119.73823132,6,179.53683762,0\C,21,
 1.38882373,13,120.76699356,7,179.99297883,0\H,21,1.0847938,13,119.4352
 623,7,1.32183327,0\C,22,1.38881869,13,120.76647403,7,-179.97118338,0\H
 ,22,1.08479982,13,119.43203605,7,1.34657928,0\C,23,1.39007007,15,120.2
 0732995,10,0.00573957,0\H,23,1.08434813,15,119.71220819,10,179.5072436
 8,0\H,25,1.08436328,16,119.73539424,10,179.53636455,0\H,27,1.08412515,
 17,120.21790854,11,179.98397203,0\C,30,1.39008059,21,120.18795226,13,-
 0.02169059,0\H,30,1.08435324,21,119.73787119,13,-179.52151214,0\H,32,1
 .0843543,22,119.737043,13,-179.52886928,0\H,34,1.08412314,23,120.22152
 803,15,179.98800213,0\H,38,1.08411439,30,120.21547163,21,-179.98600656
 ,0\\Version=ES64L-G16RevB.01\State=1-A\HF=-925.3104102\RMSD=8.828e-09\
 Dipole=-0.0084308,0.0009852,-0.0015847\Quadrupole=2.8758152,-4.8006146
 ,1.9247995,-3.2089385,0.8586463,-4.3186622\PG=C01 [X(C24H18)]\\@


 THE PROGRESS OF RIVERS TO THE SEA IS NOT AS RAPID
 AS THAT OF MAN TO ERROR.
                                              -- VOLTAIRE
 Job cpu time:       0 days  1 hours 17 minutes  9.2 seconds.
 Elapsed time:       0 days  0 hours  2 minutes 25.0 seconds.
 File lengths (MBytes):  RWF=    224 Int=      0 D2E=      0 Chk=     26 Scr=      1
 Normal termination of Gaussian 16 at Mon Nov 14 15:07:01 2022.
