 Entering Gaussian System, Link 0=g16
 Input=_conf006.gjf
 Output=_conf006.log
 Initial command:
 /opt/ap/G16/B01/g16/l1.exe "/tmp2/scr/Gau-11743.inp" -scrdir="/tmp2/scr/"
 Entering Link 1 = /opt/ap/G16/B01/g16/l1.exe PID=     11744.
  
 Copyright (c) 1988-2017, Gaussian, Inc.  All Rights Reserved.
  
 This is part of the Gaussian(R) 16 program.  It is based on
 the Gaussian(R) 09 system (copyright 2009, Gaussian, Inc.),
 the Gaussian(R) 03 system (copyright 2003, Gaussian, Inc.),
 the Gaussian(R) 98 system (copyright 1998, Gaussian, Inc.),
 the Gaussian(R) 94 system (copyright 1995, Gaussian, Inc.),
 the Gaussian 92(TM) system (copyright 1992, Gaussian, Inc.),
 the Gaussian 90(TM) system (copyright 1990, Gaussian, Inc.),
 the Gaussian 88(TM) system (copyright 1988, Gaussian, Inc.),
 the Gaussian 86(TM) system (copyright 1986, Carnegie Mellon
 University), and the Gaussian 82(TM) system (copyright 1983,
 Carnegie Mellon University). Gaussian is a federally registered
 trademark of Gaussian, Inc.
  
 This software contains proprietary and confidential information,
 including trade secrets, belonging to Gaussian, Inc.
  
 This software is provided under written license and may be
 used, copied, transmitted, or stored only in accord with that
 written license.
  
 The following legend is applicable only to US Government
 contracts under FAR:
  
                    RESTRICTED RIGHTS LEGEND
  
 Use, reproduction and disclosure by the US Government is
 subject to restrictions as set forth in subparagraphs (a)
 and (c) of the Commercial Computer Software - Restricted
 Rights clause in FAR 52.227-19.
  
 Gaussian, Inc.
 340 Quinnipiac St., Bldg. 40, Wallingford CT 06492
  
  
 ---------------------------------------------------------------
 Warning -- This program may not be used in any manner that
 competes with the business of Gaussian, Inc. or will provide
 assistance to any competitor of Gaussian, Inc.  The licensee
 of this program is prohibited from giving any competitor of
 Gaussian, Inc. access to this program.  By using this program,
 the user acknowledges that Gaussian, Inc. is engaged in the
 business of creating and licensing software in the field of
 computational chemistry and represents and warrants to the
 licensee that it is not a competitor of Gaussian, Inc. and that
 it will not use this program in any manner prohibited above.
 ---------------------------------------------------------------
  

 Cite this work as:
 Gaussian 16, Revision B.01,
 M. J. Frisch, G. W. Trucks, H. B. Schlegel, G. E. Scuseria, 
 M. A. Robb, J. R. Cheeseman, G. Scalmani, V. Barone, 
 G. A. Petersson, H. Nakatsuji, X. Li, M. Caricato, A. V. Marenich, 
 J. Bloino, B. G. Janesko, R. Gomperts, B. Mennucci, H. P. Hratchian, 
 J. V. Ortiz, A. F. Izmaylov, J. L. Sonnenberg, D. Williams-Young, 
 F. Ding, F. Lipparini, F. Egidi, J. Goings, B. Peng, A. Petrone, 
 T. Henderson, D. Ranasinghe, V. G. Zakrzewski, J. Gao, N. Rega, 
 G. Zheng, W. Liang, M. Hada, M. Ehara, K. Toyota, R. Fukuda, 
 J. Hasegawa, M. Ishida, T. Nakajima, Y. Honda, O. Kitao, H. Nakai, 
 T. Vreven, K. Throssell, J. A. Montgomery, Jr., J. E. Peralta, 
 F. Ogliaro, M. J. Bearpark, J. J. Heyd, E. N. Brothers, K. N. Kudin, 
 V. N. Staroverov, T. A. Keith, R. Kobayashi, J. Normand, 
 K. Raghavachari, A. P. Rendell, J. C. Burant, S. S. Iyengar, 
 J. Tomasi, M. Cossi, J. M. Millam, M. Klene, C. Adamo, R. Cammi, 
 J. W. Ochterski, R. L. Martin, K. Morokuma, O. Farkas, 
 J. B. Foresman, and D. J. Fox, Gaussian, Inc., Wallingford CT, 2016.
 
 ******************************************
 Gaussian 16:  ES64L-G16RevB.01 20-Dec-2017
                14-Nov-2022 
 ******************************************
 %nprocshared=32
 Will use up to   32 processors via shared memory.
 %mem=120GB
 %chk=_conf006.chk
 ----------------------------------------
 #P wB97XD/6-311++G(d,p) scf=maxcycle=512
 ----------------------------------------
 1/38=1,172=1/1;
 2/12=2,17=6,18=5,40=1/2;
 3/5=4,6=6,7=1111,11=2,25=1,30=1,74=-58/1,2,3;
 4//1;
 5/5=2,7=512,38=5/2;
 6/7=2,8=2,9=2,10=2,28=1/1;
 99/5=1,9=1/99;
 Leave Link    1 at Mon Nov 14 15:04:32 2022, MaxMem= 16106127360 cpu:               1.8 elap:               0.1
 (Enter /opt/ap/G16/B01/g16/l101.exe)
 ----------------------------
 _conf006.gjf nmol_natom 1_42
 ----------------------------
 Symbolic Z-matrix:
 Charge =  0 Multiplicity = 1
 C
 C                    1     1.39413 
 C                    1     1.39435  2     118.86443 
 C                    2     1.39416  1     121.15295  3     0.03668  0
 H                    2     1.08488  1     119.42237  3    -179.97409  0
 C                    1     1.48467  2     120.55715  4     179.25839  0
 C                    3     1.39438  1     121.11776  2    -0.05351  0
 H                    3     1.08488  1     119.41869  2     177.23008  0
 C                    4     1.39432  2     118.86474  1     0.01008  0
 C                    4     1.48467  2     120.54642  1     179.19455  0
 C                    6     1.39685  1     120.78435  2    -60.      0
 C                    6     1.39687  1     120.67654  2     120.     0
 C                    7     1.4845   3     120.56497  1    -179.96326  0
 H                    9     1.08488  4     119.41825  2     177.22246  0
 C                    10    1.39685  4     120.76947  2    -42.52369  0
 C                    10    1.39686  4     120.69449  2     137.43108  0
 C                    11    1.38889  6     120.73801  1     179.94059  0
 H                    11    1.08476  6     119.46912  1    -1.41051  0
 C                    12    1.38882  6     120.76493  1    -179.95083  0
 H                    12    1.08483  6     119.44183  1    -1.23603  0
 C                    13    1.39683  7     120.74134  3     42.89023  0
 C                    13    1.39683  7     120.73791  3    -137.12494  0
 C                    15    1.38888  10    120.74219  4     179.94601  0
 H                    15    1.08476  10    119.47086  4    -1.40607  0
 C                    16    1.38886  10    120.76339  4    -179.95593  0
 H                    16    1.08483  10    119.44215  4    -1.2344   0
 C                    17    1.39008  11    120.20743  6     0.0035   0
 H                    17    1.08435  11    119.71319  6     179.50116  0
 H                    19    1.08436  12    119.73823  6     179.53684  0
 C                    21    1.38882  13    120.76699  7     179.99298  0
 H                    21    1.08479  13    119.43526  7     1.32183  0
 C                    22    1.38882  13    120.76647  7    -179.97118  0
 H                    22    1.0848   13    119.43204  7     1.34658  0
 C                    23    1.39007  15    120.20733  10    0.00574  0
 H                    23    1.08435  15    119.71221  10    179.50724  0
 H                    25    1.08436  16    119.73539  10    179.53636  0
 H                    27    1.08413  17    120.21791  11    179.98397  0
 C                    30    1.39008  21    120.18795  13   -0.02169  0
 H                    30    1.08435  21    119.73787  13   -179.52151  0
 H                    32    1.08435  22    119.73704  13   -179.52887  0
 H                    34    1.08412  23    120.22153  15    179.988  0
 H                    38    1.08411  30    120.21547  21   -179.98601  0
 
 ITRead=  0  0  0  0  0  0  0  0  0  0  0  0  0  0  0  0  0  0  0  0
 ITRead=  0  0  0  0  0  0  0  0  0  0  0  0  0  0  0  0  0  0  0  0
 ITRead=  0  0
 MicOpt= -1 -1 -1 -1 -1 -1 -1 -1 -1 -1 -1 -1 -1 -1 -1 -1 -1 -1 -1 -1
 MicOpt= -1 -1 -1 -1 -1 -1 -1 -1 -1 -1 -1 -1 -1 -1 -1 -1 -1 -1 -1 -1
 MicOpt= -1 -1
 NAtoms=     42 NQM=       42 NQMF=       0 NMMI=      0 NMMIF=      0
                NMic=       0 NMicF=      0.
                    Isotopes and Nuclear Properties:
 (Nuclear quadrupole moments (NQMom) in fm**2, nuclear magnetic moments (NMagM)
  in nuclear magnetons)

  Atom         1           2           3           4           5           6           7           8           9          10
 IAtWgt=          12          12          12          12           1          12          12           1          12          12
 AtmWgt=  12.0000000  12.0000000  12.0000000  12.0000000   1.0078250  12.0000000  12.0000000   1.0078250  12.0000000  12.0000000
 NucSpn=           0           0           0           0           1           0           0           1           0           0
 AtZEff=  -0.0000000  -0.0000000  -0.0000000  -0.0000000  -0.0000000  -0.0000000  -0.0000000  -0.0000000  -0.0000000  -0.0000000
 NQMom=    0.0000000   0.0000000   0.0000000   0.0000000   0.0000000   0.0000000   0.0000000   0.0000000   0.0000000   0.0000000
 NMagM=    0.0000000   0.0000000   0.0000000   0.0000000   2.7928460   0.0000000   0.0000000   2.7928460   0.0000000   0.0000000
 AtZNuc=   6.0000000   6.0000000   6.0000000   6.0000000   1.0000000   6.0000000   6.0000000   1.0000000   6.0000000   6.0000000

  Atom        11          12          13          14          15          16          17          18          19          20
 IAtWgt=          12          12          12           1          12          12          12           1          12           1
 AtmWgt=  12.0000000  12.0000000  12.0000000   1.0078250  12.0000000  12.0000000  12.0000000   1.0078250  12.0000000   1.0078250
 NucSpn=           0           0           0           1           0           0           0           1           0           1
 AtZEff=  -0.0000000  -0.0000000  -0.0000000  -0.0000000  -0.0000000  -0.0000000  -0.0000000  -0.0000000  -0.0000000  -0.0000000
 NQMom=    0.0000000   0.0000000   0.0000000   0.0000000   0.0000000   0.0000000   0.0000000   0.0000000   0.0000000   0.0000000
 NMagM=    0.0000000   0.0000000   0.0000000   2.7928460   0.0000000   0.0000000   0.0000000   2.7928460   0.0000000   2.7928460
 AtZNuc=   6.0000000   6.0000000   6.0000000   1.0000000   6.0000000   6.0000000   6.0000000   1.0000000   6.0000000   1.0000000

  Atom        21          22          23          24          25          26          27          28          29          30
 IAtWgt=          12          12          12           1          12           1          12           1           1          12
 AtmWgt=  12.0000000  12.0000000  12.0000000   1.0078250  12.0000000   1.0078250  12.0000000   1.0078250   1.0078250  12.0000000
 NucSpn=           0           0           0           1           0           1           0           1           1           0
 AtZEff=  -0.0000000  -0.0000000  -0.0000000  -0.0000000  -0.0000000  -0.0000000  -0.0000000  -0.0000000  -0.0000000  -0.0000000
 NQMom=    0.0000000   0.0000000   0.0000000   0.0000000   0.0000000   0.0000000   0.0000000   0.0000000   0.0000000   0.0000000
 NMagM=    0.0000000   0.0000000   0.0000000   2.7928460   0.0000000   2.7928460   0.0000000   2.7928460   2.7928460   0.0000000
 AtZNuc=   6.0000000   6.0000000   6.0000000   1.0000000   6.0000000   1.0000000   6.0000000   1.0000000   1.0000000   6.0000000

  Atom        31          32          33          34          35          36          37          38          39          40
 IAtWgt=           1          12           1          12           1           1           1          12           1           1
 AtmWgt=   1.0078250  12.0000000   1.0078250  12.0000000   1.0078250   1.0078250   1.0078250  12.0000000   1.0078250   1.0078250
 NucSpn=           1           0           1           0           1           1           1           0           1           1
 AtZEff=  -0.0000000  -0.0000000  -0.0000000  -0.0000000  -0.0000000  -0.0000000  -0.0000000  -0.0000000  -0.0000000  -0.0000000
 NQMom=    0.0000000   0.0000000   0.0000000   0.0000000   0.0000000   0.0000000   0.0000000   0.0000000   0.0000000   0.0000000
 NMagM=    2.7928460   0.0000000   2.7928460   0.0000000   2.7928460   2.7928460   2.7928460   0.0000000   2.7928460   2.7928460
 AtZNuc=   1.0000000   6.0000000   1.0000000   6.0000000   1.0000000   1.0000000   1.0000000   6.0000000   1.0000000   1.0000000

  Atom        41          42
 IAtWgt=           1           1
 AtmWgt=   1.0078250   1.0078250
 NucSpn=           1           1
 AtZEff=  -0.0000000  -0.0000000
 NQMom=    0.0000000   0.0000000
 NMagM=    2.7928460   2.7928460
 AtZNuc=   1.0000000   1.0000000
 Leave Link  101 at Mon Nov 14 15:04:32 2022, MaxMem= 16106127360 cpu:               5.4 elap:               0.2
 (Enter /opt/ap/G16/B01/g16/l202.exe)
                          Input orientation:                          
 ---------------------------------------------------------------------
 Center     Atomic      Atomic             Coordinates (Angstroms)
 Number     Number       Type             X           Y           Z
 ---------------------------------------------------------------------
      1          6           0        0.000000    0.000000    0.000000
      2          6           0        0.000000    0.000000    1.394128
      3          6           0        1.221126    0.000000   -0.673109
      4          6           0        1.193108    0.000764    2.115362
      5          1           0       -0.944957   -0.000427    1.927071
      6          6           0       -1.278366   -0.017366   -0.754803
      7          6           0        2.428476    0.001115    0.024455
      8          1           0        1.232154   -0.045667   -1.756969
      9          6           0        2.400843    0.001752    1.418572
     10          6           0        1.177445    0.018728    3.599837
     11          6           0       -2.184844   -1.069036   -0.601579
     12          6           0       -1.600773    1.018786   -1.634395
     13          6           0        3.721572    0.001921   -0.704680
     14          1           0        3.334061    0.048144    1.969857
     15          6           0        0.290794    0.844275    4.295193
     16          6           0        2.049080   -0.790881    4.331965
     17          6           0       -3.381018   -1.083693   -1.307246
     18          1           0       -1.939506   -1.892919    0.060039
     19          6           0       -2.796547    1.004910   -2.340628
     20          1           0       -0.916690    1.852837   -1.749460
     21          6           0        3.910862    0.818865   -1.821777
     22          6           0        4.776237   -0.814044   -0.288725
     23          6           0        0.275860    0.859807    5.683909
     24          1           0       -0.377402    1.495584    3.742000
     25          6           0        2.035025   -0.775886    5.720674
     26          1           0        2.729408   -1.453102    3.807101
     27          6           0       -3.691568   -0.046360   -2.178922
     28          1           0       -4.068971   -1.912416   -1.181726
     29          1           0       -3.033390    1.821665   -3.013421
     30          6           0        5.120444    0.820149   -2.504230
     31          1           0        3.109266    1.474569   -2.144691
     32          6           0        5.986440   -0.813321   -0.970068
     33          1           0        4.638168   -1.470412    0.563864
     34          6           0        1.147946    0.049642    6.401818
     35          1           0       -0.413890    1.513063    6.206701
     36          1           0        2.713797   -1.416787    6.272362
     37          1           0       -4.625100   -0.057759   -2.730026
     38          6           0        6.162883    0.003944   -2.080611
     39          1           0        5.251831    1.466740   -3.364741
     40          1           0        6.791448   -1.459089   -0.637249
     41          1           0        1.136620    0.061726    7.485815
     42          1           0        7.107346    0.004761   -2.612865
 ---------------------------------------------------------------------
                    Distance matrix (angstroms):
                    1          2          3          4          5
     1  C    0.000000
     2  C    1.394128   0.000000
     3  C    1.394354   2.400962   0.000000
     4  C    2.428634   1.394161   2.788612   0.000000
     5  H    2.146287   1.084884   3.384206   2.146341   0.000000
     6  C    1.484671   2.500485   2.500887   3.787659   2.702572
     7  C    2.428599   2.788100   1.394378   2.428585   3.872983
     8  H    2.146445   3.383741   1.084878   3.872806   4.279487
     9  C    2.788619   2.400968   2.401430   1.394324   3.384222
    10  C    3.787552   2.500376   4.273210   1.484666   2.702426
    11  C    2.505649   3.146304   3.570516   4.465064   3.012193
    12  C    2.504326   3.573843   3.150415   4.785689   3.762038
    13  C    3.787700   4.272598   2.500646   3.787581   5.357482
    14  H    3.872805   3.383747   3.384092   2.146415   4.279508
    15  C    4.387032   3.035381   5.124680   2.505463   2.801537
    16  C    4.856969   3.668120   5.134371   2.504540   3.920790
    17  C    3.783460   4.461289   4.770351   5.814888   4.191499
    18  H    2.710799   3.020698   3.756360   4.198053   2.838390
    19  C    3.782732   4.772727   4.464545   6.064776   4.759448
    20  H    2.708124   3.762376   3.026845   4.776847   4.117313
    21  C    4.391384   5.129076   3.037212   4.853507   6.189029
    22  C    4.853707   5.129045   3.667320   4.391169   6.189006
    23  C    5.755188   4.383786   6.484171   3.783362   4.042800
    24  H    4.047440   2.809218   4.928007   2.710524   2.419532
    25  C    6.121229   4.843792   6.491910   3.782894   4.886007
    26  H    4.904609   3.922195   4.945574   2.708491   4.375585
    27  C    4.286902   5.137754   5.138500   6.504087   4.940157
    28  H    4.648692   5.181591   5.648111   6.497732   4.804142
    29  H    4.647647   5.652116   5.186177   6.890818   5.664806
    30  C    5.758711   6.487587   4.385239   6.118495   7.556379
    31  H    4.054822   4.936104   2.811579   4.898143   5.932249
    32  C    6.118822   6.487555   4.843334   5.758354   7.556353
    33  H    4.898230   4.935996   3.920254   4.054620   5.932156
    34  C    6.504116   5.137821   7.075480   4.286973   4.940255
    35  H    6.401859   5.061770   7.231488   4.648499   4.570330
    36  H    6.979577   5.759266   7.243957   4.647859   5.854410
    37  H    5.371027   6.197059   6.197790   7.571839   5.935932
    38  C    6.504621   7.074953   5.138292   6.504219   8.159837
    39  H    6.407382   7.237395   5.063871   6.975231   8.279857
    40  H    6.975586   7.237348   5.758361   6.406985   8.279819
    41  H    7.571865   6.197125   8.159595   5.371096   5.936031
    42  H    7.572414   8.159067   6.197601   7.571945   9.243951
                    6          7          8          9         10
     6  C    0.000000
     7  C    3.787910   0.000000
     8  H    2.703303   2.146356   0.000000
     9  C    4.273231   1.394392   3.384102   0.000000
    10  C    4.999520   3.787973   5.357472   2.500981   0.000000
    11  C    1.396850   4.777014   3.749411   5.124073   5.490001
    12  C    1.396868   4.474627   3.028788   5.134969   6.009642
    13  C    5.000226   1.484499   2.703105   2.500505   5.000173
    14  H    5.357476   2.146366   4.279725   1.084879   2.703459
    15  C    5.357906   4.849723   6.189251   3.665665   1.396854
    16  C    6.127433   4.396117   6.188524   3.039714   1.396863
    17  C    2.421445   6.058090   4.749853   6.483687   6.787812
    18  H    2.149133   4.761081   4.095520   4.926867   5.089199
    19  C    2.421728   5.822550   4.204141   6.492363   7.214866
    20  H    2.148909   4.214947   2.867386   4.946612   6.030285
    21  C    5.363376   2.504946   2.815510   3.667109   6.124188
    22  C    6.124553   2.504906   3.912375   3.036921   5.363369
    23  C    6.681472   6.115597   7.556523   4.841994   2.421492
    24  H    4.829285   4.891475   5.933362   3.917716   2.149154
    25  C    7.313393   5.762417   7.555989   4.387097   2.421736
    26  H    6.239756   4.063707   5.931401   2.815959   2.148914
    27  C    2.802231   6.504772   4.941769   7.075433   7.556823
    28  H    3.400141   6.879919   5.649565   7.230774   7.356463
    29  H    3.400515   6.509614   4.822910   7.244690   8.044681
    30  C    6.686306   3.783088   4.053003   4.842972   7.310892
    31  H    4.838282   2.709194   2.446425   3.920191   6.233057
    32  C    7.311449   3.783053   4.879728   4.384797   6.686012
    33  H    6.233426   2.709077   4.360860   2.811302   4.838519
    34  C    7.557031   6.504835   8.159779   5.138559   2.802307
    35  H    7.179977   6.970308   8.280044   5.756123   3.400165
    36  H    8.202243   6.413127   8.279214   5.066504   3.400510
    37  H    3.886356   7.572553   5.937542   8.159552   8.587348
    38  C    7.558466   4.286853   4.941589   5.137824   7.557929
    39  H    7.187337   4.648230   4.585860   5.757987   8.197725
    40  H    8.198432   4.648180   5.844424   5.063385   7.187062
    41  H    8.587561   7.572613   9.243902   6.197846   3.886431
    42  H    8.589123   5.370968   5.937422   6.197069   8.588456
                   11         12         13         14         15
    11  C    0.000000
    12  C    2.401427   0.000000
    13  C    6.003610   5.497794   0.000000
    14  H    6.190209   6.187517   2.702860   0.000000
    15  C    5.811017   6.226436   6.121971   3.911840   0.000000
    16  C    6.507176   7.224527   5.365963   2.816859   2.401387
    17  C    1.388889   2.774296   7.210300   7.557298   6.970409
    18  H    1.084764   3.385835   6.018556   5.935119   5.513891
    19  C    2.774838   1.388824   6.794718   7.555133   7.320629
    20  H    3.385733   1.084828   5.102051   5.929512   6.246042
    21  C    6.496975   5.518442   1.396829   3.911930   7.107943
    22  C    6.972773   6.770256   1.396832   2.815037   6.624314
    23  C    7.020174   7.556759   7.309101   4.879095   1.388883
    24  H    5.358245   5.534402   6.229413   4.360107   1.084763
    25  C    7.606847   8.398627   6.688393   4.054029   2.774755
    26  H    6.613157   7.380419   4.843310   2.448430   3.385708
    27  C    2.409169   2.408832   7.558463   8.159704   7.652882
    28  H    2.144247   3.858608   8.036468   8.281374   7.523533
    29  H    3.859166   2.144462   7.366903   8.277854   8.088345
    30  C    7.781795   6.780179   2.421718   4.878996   8.340159
    31  H    6.072785   4.759476   2.148776   4.360587   7.057844
    32  C    8.183585   7.833502   2.421709   4.052208   7.931644
    33  H    6.933459   7.067733   2.148749   2.446125   6.179018
    34  C    7.836230   8.548417   7.558317   4.941800   2.409154
    35  H    7.493742   7.945803   8.194680   5.843284   2.144229
    36  H    8.447998   9.330827   7.190790   4.587189   3.859086
    37  H    3.392317   3.392036   8.589093   9.243828   8.621681
    38  C    8.545372   7.842409   2.802355   4.940696   8.708529
    39  H    8.328827   7.081874   3.400487   5.843645   9.147346
    40  H    8.984834   8.807017   3.400476   4.585006   8.478973
    41  H    8.815706   9.570137   8.588933   5.937569   3.392325
    42  H    9.567816   8.821394   3.886469   5.936405   9.741223
                   16         17         18         19         20
    16  C    0.000000
    17  C    7.834055   0.000000
    18  H    5.947491   2.145291   0.000000
    19  C    8.439696   2.402446   3.859422   0.000000
    20  H    7.264211   3.858974   4.283822   2.145303   0.000000
    21  C    6.627673   7.553541   6.717277   6.730019   4.937569
    22  C    5.365510   8.225018   6.810787   8.053941   6.454101
    23  C    2.774316   8.125651   6.641781   8.593831   7.593633
    24  H    3.385823   6.416328   5.242037   6.564403   5.529430
    25  C    1.388861   8.878059   7.006243   9.565559   8.451373
    26  H    1.084834   7.976862   6.002722   8.623954   7.422845
    27  C    8.712118   1.390079   3.390052   1.390101   3.389888
    28  H    8.311990   1.084351   2.465154   3.387168   4.943312
    29  H    9.306535   3.387180   4.943772   1.084359   2.465561
    30  C    7.665654   8.793875   7.986182   7.920836   6.171151
    31  H    6.942862   7.026365   6.456849   5.927698   4.062956
    32  C    6.604154   9.377423   8.065189   9.073327   7.441038
    33  H    4.622091   8.243662   6.610458   8.356931   6.874002
    34  C    2.408903   9.012527   7.316014   9.638565   8.599859
    35  H    3.858628   8.485658   7.190943   8.887750   7.979270
    36  H    2.144469   9.731813   7.776431  10.507716   9.392577
    37  H    9.744427   2.150485   4.285405   2.150465   4.285346
    38  C    7.660043   9.636758   8.592391   9.018921   7.324508
    39  H    8.636768   9.233855   8.644753   8.126407   6.388181
    40  H    6.901424  10.201416   8.769491  10.045021   8.462934
    41  H    3.392092   9.951832   8.271960  10.626306   9.628835
    42  H    8.628428  10.625213   9.622429   9.957987   8.279251
                   21         22         23         24         25
    21  C    0.000000
    22  C    2.401148   0.000000
    23  C    8.339678   7.663388   0.000000
    24  H    7.057108   6.938381   2.145221   0.000000
    25  C    7.934139   6.605193   2.402396   3.859344   0.000000
    26  H    6.184005   4.623169   3.858996   4.283837   2.145356
    27  C    7.659838   8.710104   8.853572   6.958348   9.784155
    28  H    8.458564   8.957767   8.584854   7.034573   9.284051
    29  H    7.116759   8.681084   9.355205   7.266107  10.426913
    30  C    1.388824   2.774442   9.514051   8.348527   8.928391
    31  H    1.084794   3.385432   8.348239   6.841814   8.251212
    32  C    2.774430   1.388819   8.926672   8.248218   7.770528
    33  H    3.385417   1.084800   7.118603   6.637291   5.818196
    34  C    8.709358   7.659884   1.390070   3.389995   1.390095
    35  H    9.145591   8.633852   1.084348   2.465033   3.387137
    36  H    8.482109   6.903971   3.387136   4.943698   1.084363
    37  H    8.628791   9.742539   9.780370   7.895754  10.783659
    38  C    2.408878   2.408889   9.781478   8.882743   8.860440
    39  H    2.144453   3.858761  10.344405   9.066139   9.895553
    40  H    3.858751   2.144441   9.369482   8.905073   7.969536
    41  H    9.741711   8.628862   2.150513   4.285366   2.150453
    42  H    3.392063   3.392069  10.781315   9.931179   9.787018
                   26         27         28         29         30
    26  H    0.000000
    27  C    8.890463   0.000000
    28  H    8.444959   2.149185   0.000000
    29  H    9.510702   2.149210   4.286129   0.000000
    30  C    7.121630   8.860486   9.677876   8.230876   0.000000
    31  H    6.643746   6.968912   7.995377   6.213485   2.145313
    32  C    5.817122   9.783322  10.117514   9.616432   2.402462
    33  H    3.763276   8.884555   8.891385   9.082266   3.859075
    34  C    3.389959   9.851864   9.411484  10.453247   9.782234
    35  H    4.943333   9.137485   8.926498   9.589977  10.343562
    36  H    2.465578  10.692566  10.090343  11.390500   9.371467
    37  H    9.938300   1.084125   2.479166   2.479130   9.787611
    38  C    6.969712   9.855070  10.448506   9.420493   1.390081
    39  H    8.143918   9.147679  10.151926   8.300258   1.084353
    40  H    6.021000  10.689537  10.883504  10.627182   3.387152
    41  H    4.285396  10.804176  10.301537  11.433299  10.781792
    42  H    7.906179  10.807750  11.429514  10.310000   2.150451
                   31         32         33         34         35
    31  H    0.000000
    32  C    3.859055   0.000000
    33  H    4.283308   2.145356   0.000000
    34  C    8.883693   8.860047   6.969499   0.000000
    35  H    9.064207   9.893547   8.140394   2.149187   0.000000
    36  H    8.908597   7.970392   6.024369   2.149200   4.286112
    37  H    7.906394  10.783001   9.932444  10.804174  10.003342
    38  C    3.389900   1.390094   3.389946   9.854100  10.686951
    39  H    2.465597   3.387150   4.943418  10.688111  11.122726
    40  H    4.943399   1.084354   2.465647   9.147341  10.372571
    41  H    9.931470   9.787155   7.907066   1.084123   2.479233
    42  H    4.285343   2.150458   4.285392  10.806525  11.688828
                   36         37         38         39         40
    36  H    0.000000
    37  H   11.693988   0.000000
    38  C    9.148051  10.807689   0.000000
    39  H   10.374492  10.014027   2.149134   0.000000
    40  H    8.023201  11.691066   2.149152   4.286037   0.000000
    41  H    2.479104  11.729241  10.806626  11.689465  10.013697
    42  H   10.013557  11.733198   1.084114   2.479039   2.479054
                   41         42
    41  H    0.000000
    42  H   11.731844   0.000000
 Stoichiometry    C24H18
 Framework group  C1[X(C24H18)]
 Deg. of freedom   120
 Full point group                 C1      NOp   1
 Largest Abelian subgroup         C1      NOp   1
 Largest concise Abelian subgroup C1      NOp   1
                         Standard orientation:                         
 ---------------------------------------------------------------------
 Center     Atomic      Atomic             Coordinates (Angstroms)
 Number     Number       Type             X           Y           Z
 ---------------------------------------------------------------------
      1          6           0        1.400557   -0.048411    0.042468
      2          6           0        0.650829   -1.223172    0.004540
      3          6           0        0.733661    1.176114    0.038919
      4          6           0       -0.742279   -1.188661   -0.037204
      5          1           0        1.160400   -2.180931    0.007385
      6          6           0        2.883060   -0.100751    0.103245
      7          6           0       -0.658707    1.238242   -0.002787
      8          1           0        1.305885    2.094757    0.113851
      9          6           0       -1.385128    0.048624   -0.040857
     10          6           0       -1.526862   -2.447745   -0.095264
     11          6           0        3.533159   -0.731803    1.166416
     12          6           0        3.658536    0.480661   -0.902657
     13          6           0       -1.356089    2.548730   -0.006906
     14          1           0       -2.466512    0.087051   -0.118929
     15          6           0       -1.129204   -3.499994   -0.923418
     16          6           0       -2.679060   -2.606236    0.678393
     17          6           0        4.920067   -0.781267    1.221678
     18          1           0        2.946151   -1.168203    1.967470
     19          6           0        5.045434    0.431899   -0.848168
     20          1           0        3.168827    0.956950   -1.745381
     21          6           0       -0.890544    3.602806   -0.796414
     22          6           0       -2.492661    2.755103    0.778430
     23          6           0       -1.862976   -4.678026   -0.976454
     24          1           0       -0.249349   -3.384876   -1.547369
     25          6           0       -3.413586   -3.783797    0.625878
     26          1           0       -2.989709   -1.806543    1.342362
     27          6           0        5.681331   -0.200127    0.214169
     28          1           0        5.407572   -1.268378    2.058862
     29          1           0        5.631083    0.882194   -1.641946
     30          6           0       -1.542649    4.829008   -0.800785
     31          1           0       -0.021998    3.452129   -1.428634
     32          6           0       -3.145903    3.980695    0.774577
     33          1           0       -2.854344    1.953620    1.413726
     34          6           0       -3.007924   -4.824301   -0.201862
     35          1           0       -1.543541   -5.481163   -1.631239
     36          1           0       -4.301232   -3.891815    1.239278
     37          1           0        6.763922   -0.238411    0.257266
     38          6           0       -2.673048    5.022339   -0.015200
     39          1           0       -1.171366    5.633439   -1.425974
     40          1           0       -4.022354    4.124996    1.396538
     41          1           0       -3.580968   -5.743666   -0.243228
     42          1           0       -3.182561    5.979256   -0.018444
 ---------------------------------------------------------------------
 Rotational constants (GHZ):           0.1977352           0.1956461           0.1042798
 Leave Link  202 at Mon Nov 14 15:04:32 2022, MaxMem= 16106127360 cpu:               1.5 elap:               0.1
 (Enter /opt/ap/G16/B01/g16/l301.exe)
 Standard basis: 6-311++G(d,p) (5D, 7F)
 Ernie: Thresh=  0.10000D-02 Tol=  0.10000D-05 Strict=F.
 There are   678 symmetry adapted cartesian basis functions of A   symmetry.
 There are   654 symmetry adapted basis functions of A   symmetry.
   654 basis functions,  1026 primitive gaussians,   678 cartesian basis functions
    81 alpha electrons       81 beta electrons
       nuclear repulsion energy      1731.4260593841 Hartrees.
 IExCor= 4639 DFT=T Ex+Corr=wB97XD ExCW=0 ScaHFX=  1.000000
 ScaDFX=  1.000000  1.000000  1.000000  1.000000 ScalE2=  1.000000  1.000000
 IRadAn=      5 IRanWt=     -1 IRanGd=            0 ICorTp=0 IEmpDi=121
 HFx  wShort=  0.000000 wLong=  0.200000 cFull=  0.222036 cShort=  0.000000 cLong=  0.777964
 DFx  wShort=  0.000000 wLong=  0.200000 cFull=  0.000000 cShort=  0.000000 cLong=  1.000000
 NAtoms=   42 NActive=   42 NUniq=   42 SFac= 1.00D+00 NAtFMM=   60 NAOKFM=F Big=F
 Integral buffers will be    131072 words long.
 Raffenetti 2 integral format.
 Two-electron integral symmetry is turned on.
 R6Disp:  Grimme-D2 Dispersion energy=       -0.0288351957 Hartrees.
 Nuclear repulsion after empirical dispersion term =     1731.3972241884 Hartrees.
 Leave Link  301 at Mon Nov 14 15:04:32 2022, MaxMem= 16106127360 cpu:               1.3 elap:               0.0
 (Enter /opt/ap/G16/B01/g16/l302.exe)
 NPDir=0 NMtPBC=     1 NCelOv=     1 NCel=       1 NClECP=     1 NCelD=      1
         NCelK=      1 NCelE2=     1 NClLst=     1 CellRange=     0.0.
 One-electron integrals computed using PRISM.
 One-electron integral symmetry used in STVInt
 NBasis=   654 RedAO= T EigKep=  1.38D-06  NBF=   654
 NBsUse=   645 1.00D-06 EigRej=  9.50D-07 NBFU=   645
 Precomputing XC quadrature grid using
 IXCGrd= 4 IRadAn=           5 IRanWt=          -1 IRanGd=           0 AccXCQ= 0.00D+00.
 Generated NRdTot=       0 NPtTot=           0 NUsed=           0 NTot=          32
 NSgBfM=   669   669   669   669   669 MxSgAt=    42 MxSgA2=    42.
 Leave Link  302 at Mon Nov 14 15:04:32 2022, MaxMem= 16106127360 cpu:              20.8 elap:               0.7
 (Enter /opt/ap/G16/B01/g16/l303.exe)
 DipDrv:  MaxL=1.
 Leave Link  303 at Mon Nov 14 15:04:33 2022, MaxMem= 16106127360 cpu:               3.2 elap:               0.1
 (Enter /opt/ap/G16/B01/g16/l401.exe)
 ExpMin= 3.60D-02 ExpMax= 4.56D+03 ExpMxC= 6.82D+02 IAcc=3 IRadAn=         5 AccDes= 0.00D+00
 Harris functional with IExCor= 4639 and IRadAn=       5 diagonalized for initial guess.
 HarFok:  IExCor= 4639 AccDes= 0.00D+00 IRadAn=         5 IDoV= 1 UseB2=F ITyADJ=14
 ICtDFT=  3500011 ScaDFX=  1.000000  1.000000  1.000000  1.000000
 FoFCou: FMM=F IPFlag=           0 FMFlag=      100000 FMFlg1=           0
         NFxFlg=           0 DoJE=T BraDBF=F KetDBF=T FulRan=T
         wScrn=  0.000000 ICntrl=       500 IOpCl=  0 I1Cent=   200000004 NGrid=           0
         NMat0=    1 NMatS0=      1 NMatT0=    0 NMatD0=    1 NMtDS0=    0 NMtDT0=    0
 Petite list used in FoFCou.
 Harris En= -882.969341579024    
 JPrj=0 DoOrth=F DoCkMO=F.
 Leave Link  401 at Mon Nov 14 15:04:35 2022, MaxMem= 16106127360 cpu:              78.9 elap:               2.5
 (Enter /opt/ap/G16/B01/g16/l502.exe)
 Integral symmetry usage will be decided dynamically.
 Closed shell SCF:
 Using DIIS extrapolation, IDIIS=  1040.
 NGot= 16106127360 LenX= 16105179956 LenY= 16104719594
 Requested convergence on RMS density matrix=1.00D-08 within 512 cycles.
 Requested convergence on MAX density matrix=1.00D-06.
 Requested convergence on             energy=1.00D-06.
 No special actions if energy rises.
 Fock matrices will be formed incrementally for  20 cycles.

 Cycle   1  Pass 1  IDiag  1:
 FoFJK:  IHMeth= 1 ICntrl=       0 DoSepK=T KAlg= 0 I1Cent=           0 FoldK=F
 IRaf=         1 NMat=       1 IRICut=       1 DoRegI=T DoRafI=F ISym2E= 0 IDoP0=0 IntGTp=1.
 FoFCou: FMM=F IPFlag=           0 FMFlag=      100000 FMFlg1=           0
         NFxFlg=           0 DoJE=T BraDBF=F KetDBF=F FulRan=T
         wScrn=  0.000000 ICntrl=       500 IOpCl=  0 I1Cent=           0 NGrid=           0
         NMat0=    1 NMatS0=      1 NMatT0=    0 NMatD0=    1 NMtDS0=    0 NMtDT0=    0
 Symmetry not used in FoFCou.
 E= -925.115990580259    
 DIIS: error= 4.66D-02 at cycle   1 NSaved=   1.
 NSaved= 1 IEnMin= 1 EnMin= -925.115990580259     IErMin= 1 ErrMin= 4.66D-02
 ErrMax= 4.66D-02  0.00D+00 EMaxC= 1.00D-01 BMatC= 1.90D+00 BMatP= 1.90D+00
 IDIUse=3 WtCom= 5.34D-01 WtEn= 4.66D-01
 Coeff-Com:  0.100D+01
 Coeff-En:   0.100D+01
 Coeff:      0.100D+01
 Gap=     0.319 Goal=   None    Shift=    0.000
 GapD=    0.319 DampG=1.000 DampE=0.500 DampFc=0.5000 IDamp=-1.
 Damping current iteration by 5.00D-01
 RMSDP=3.60D-02 MaxDP=4.59D+00              OVMax= 4.31D-02

 Cycle   2  Pass 1  IDiag  1:
 RMSU=  6.48D-03    CP:  8.12D-01
 E= -925.214397471916     Delta-E=       -0.098406891656 Rises=F Damp=T
 DIIS: error= 2.26D-02 at cycle   2 NSaved=   2.
 NSaved= 2 IEnMin= 2 EnMin= -925.214397471916     IErMin= 2 ErrMin= 2.26D-02
 ErrMax= 2.26D-02  0.00D+00 EMaxC= 1.00D-01 BMatC= 4.32D-01 BMatP= 1.90D+00
 IDIUse=3 WtCom= 7.74D-01 WtEn= 2.26D-01
 Coeff-Com: -0.883D+00 0.188D+01
 Coeff-En:   0.000D+00 0.100D+01
 Coeff:     -0.683D+00 0.168D+01
 Gap=     0.327 Goal=   None    Shift=    0.000
 RMSDP=2.05D-02 MaxDP=2.05D+00 DE=-9.84D-02 OVMax= 3.40D-02

 Cycle   3  Pass 1  IDiag  1:
 RMSU=  3.75D-03    CP:  5.89D-01  1.33D+00
 E= -925.302559387058     Delta-E=       -0.088161915143 Rises=F Damp=F
 DIIS: error= 3.38D-03 at cycle   3 NSaved=   3.
 NSaved= 3 IEnMin= 3 EnMin= -925.302559387058     IErMin= 3 ErrMin= 3.38D-03
 ErrMax= 3.38D-03  0.00D+00 EMaxC= 1.00D-01 BMatC= 8.74D-03 BMatP= 4.32D-01
 IDIUse=3 WtCom= 9.66D-01 WtEn= 3.38D-02
 Coeff-Com: -0.371D+00 0.786D+00 0.585D+00
 Coeff-En:   0.000D+00 0.000D+00 0.100D+01
 Coeff:     -0.358D+00 0.760D+00 0.599D+00
 Gap=     0.325 Goal=   None    Shift=    0.000
 RMSDP=2.03D-03 MaxDP=2.10D-01 DE=-8.82D-02 OVMax= 1.96D-02

 Cycle   4  Pass 1  IDiag  1:
 RMSU=  1.38D-03    CP:  5.90D-01  1.52D+00  7.56D-01
 E= -925.310569001763     Delta-E=       -0.008009614704 Rises=F Damp=F
 DIIS: error= 8.64D-04 at cycle   4 NSaved=   4.
 NSaved= 4 IEnMin= 4 EnMin= -925.310569001763     IErMin= 4 ErrMin= 8.64D-04
 ErrMax= 8.64D-04  0.00D+00 EMaxC= 1.00D-01 BMatC= 2.78D-04 BMatP= 8.74D-03
 IDIUse=3 WtCom= 9.91D-01 WtEn= 8.64D-03
 Coeff-Com: -0.113D+00 0.240D+00 0.236D+00 0.636D+00
 Coeff-En:   0.000D+00 0.000D+00 0.000D+00 0.100D+01
 Coeff:     -0.112D+00 0.238D+00 0.234D+00 0.639D+00
 Gap=     0.323 Goal=   None    Shift=    0.000
 RMSDP=6.33D-04 MaxDP=5.63D-02 DE=-8.01D-03 OVMax= 4.26D-03

 Cycle   5  Pass 1  IDiag  1:
 RMSU=  2.22D-04    CP:  5.84D-01  1.55D+00  7.69D-01  8.55D-01
 E= -925.310859187985     Delta-E=       -0.000290186223 Rises=F Damp=F
 DIIS: error= 2.12D-04 at cycle   5 NSaved=   5.
 NSaved= 5 IEnMin= 5 EnMin= -925.310859187985     IErMin= 5 ErrMin= 2.12D-04
 ErrMax= 2.12D-04  0.00D+00 EMaxC= 1.00D-01 BMatC= 2.03D-05 BMatP= 2.78D-04
 IDIUse=3 WtCom= 9.98D-01 WtEn= 2.12D-03
 Coeff-Com:  0.260D-01-0.555D-01-0.247D-01 0.196D+00 0.858D+00
 Coeff-En:   0.000D+00 0.000D+00 0.000D+00 0.000D+00 0.100D+01
 Coeff:      0.260D-01-0.553D-01-0.247D-01 0.196D+00 0.858D+00
 Gap=     0.323 Goal=   None    Shift=    0.000
 RMSDP=1.69D-04 MaxDP=1.16D-02 DE=-2.90D-04 OVMax= 1.46D-03

 Cycle   6  Pass 1  IDiag  1:
 RMSU=  6.88D-05    CP:  5.84D-01  1.55D+00  7.92D-01  9.31D-01  1.24D+00
 E= -925.310884904663     Delta-E=       -0.000025716678 Rises=F Damp=F
 DIIS: error= 5.44D-05 at cycle   6 NSaved=   6.
 NSaved= 6 IEnMin= 6 EnMin= -925.310884904663     IErMin= 6 ErrMin= 5.44D-05
 ErrMax= 5.44D-05  0.00D+00 EMaxC= 1.00D-01 BMatC= 1.44D-06 BMatP= 2.03D-05
 IDIUse=1 WtCom= 1.00D+00 WtEn= 0.00D+00
 Coeff-Com:  0.134D-01-0.286D-01-0.164D-01 0.542D-01 0.333D+00 0.645D+00
 Coeff:      0.134D-01-0.286D-01-0.164D-01 0.542D-01 0.333D+00 0.645D+00
 Gap=     0.324 Goal=   None    Shift=    0.000
 RMSDP=7.60D-05 MaxDP=5.46D-03 DE=-2.57D-05 OVMax= 3.94D-04

 Cycle   7  Pass 1  IDiag  1:
 RMSU=  4.15D-05    CP:  5.84D-01  1.55D+00  7.97D-01  9.63D-01  1.20D+00
                    CP:  8.34D-01
 E= -925.310886648717     Delta-E=       -0.000001744054 Rises=F Damp=F
 DIIS: error= 1.26D-05 at cycle   7 NSaved=   7.
 NSaved= 7 IEnMin= 7 EnMin= -925.310886648717     IErMin= 7 ErrMin= 1.26D-05
 ErrMax= 1.26D-05  0.00D+00 EMaxC= 1.00D-01 BMatC= 1.02D-07 BMatP= 1.44D-06
 IDIUse=1 WtCom= 1.00D+00 WtEn= 0.00D+00
 Coeff-Com: -0.231D-02 0.496D-02 0.207D-02-0.278D-01-0.992D-01 0.972D-01
 Coeff-Com:  0.103D+01
 Coeff:     -0.231D-02 0.496D-02 0.207D-02-0.278D-01-0.992D-01 0.972D-01
 Coeff:      0.103D+01
 Gap=     0.324 Goal=   None    Shift=    0.000
 RMSDP=1.77D-05 MaxDP=1.69D-03 DE=-1.74D-06 OVMax= 2.66D-04

 Cycle   8  Pass 1  IDiag  1:
 RMSU=  7.75D-06    CP:  5.84D-01  1.55D+00  7.99D-01  9.66D-01  1.24D+00
                    CP:  9.30D-01  1.20D+00
 E= -925.310886879202     Delta-E=       -0.000000230484 Rises=F Damp=F
 DIIS: error= 5.77D-06 at cycle   8 NSaved=   8.
 NSaved= 8 IEnMin= 8 EnMin= -925.310886879202     IErMin= 8 ErrMin= 5.77D-06
 ErrMax= 5.77D-06  0.00D+00 EMaxC= 1.00D-01 BMatC= 9.51D-09 BMatP= 1.02D-07
 IDIUse=1 WtCom= 1.00D+00 WtEn= 0.00D+00
 Coeff-Com: -0.133D-02 0.285D-02 0.141D-02-0.128D-01-0.479D-01 0.205D-01
 Coeff-Com:  0.359D+00 0.678D+00
 Coeff:     -0.133D-02 0.285D-02 0.141D-02-0.128D-01-0.479D-01 0.205D-01
 Coeff:      0.359D+00 0.678D+00
 Gap=     0.324 Goal=   None    Shift=    0.000
 RMSDP=2.64D-06 MaxDP=1.06D-04 DE=-2.30D-07 OVMax= 6.21D-05

 Cycle   9  Pass 1  IDiag  1:
 RMSU=  2.14D-06    CP:  5.84D-01  1.55D+00  7.99D-01  9.66D-01  1.24D+00
                    CP:  9.36D-01  1.23D+00  1.09D+00
 E= -925.310886892726     Delta-E=       -0.000000013524 Rises=F Damp=F
 DIIS: error= 3.03D-06 at cycle   9 NSaved=   9.
 NSaved= 9 IEnMin= 9 EnMin= -925.310886892726     IErMin= 9 ErrMin= 3.03D-06
 ErrMax= 3.03D-06  0.00D+00 EMaxC= 1.00D-01 BMatC= 2.36D-09 BMatP= 9.51D-09
 IDIUse=1 WtCom= 1.00D+00 WtEn= 0.00D+00
 Coeff-Com:  0.120D-03-0.262D-03 0.607D-04 0.290D-02 0.105D-01-0.169D-01
 Coeff-Com: -0.178D+00 0.293D+00 0.889D+00
 Coeff:      0.120D-03-0.262D-03 0.607D-04 0.290D-02 0.105D-01-0.169D-01
 Coeff:     -0.178D+00 0.293D+00 0.889D+00
 Gap=     0.324 Goal=   None    Shift=    0.000
 RMSDP=2.43D-06 MaxDP=1.48D-04 DE=-1.35D-08 OVMax= 4.67D-05

 Cycle  10  Pass 1  IDiag  1:
 RMSU=  5.71D-07    CP:  5.84D-01  1.55D+00  7.99D-01  9.66D-01  1.24D+00
                    CP:  9.39D-01  1.25D+00  1.31D+00  8.63D-01
 E= -925.310886897669     Delta-E=       -0.000000004943 Rises=F Damp=F
 DIIS: error= 8.84D-07 at cycle  10 NSaved=  10.
 NSaved=10 IEnMin=10 EnMin= -925.310886897669     IErMin=10 ErrMin= 8.84D-07
 ErrMax= 8.84D-07  0.00D+00 EMaxC= 1.00D-01 BMatC= 2.12D-10 BMatP= 2.36D-09
 IDIUse=1 WtCom= 1.00D+00 WtEn= 0.00D+00
 Coeff-Com:  0.132D-03-0.284D-03-0.608D-04 0.186D-02 0.668D-02-0.553D-02
 Coeff-Com: -0.836D-01 0.333D-01 0.322D+00 0.726D+00
 Coeff:      0.132D-03-0.284D-03-0.608D-04 0.186D-02 0.668D-02-0.553D-02
 Coeff:     -0.836D-01 0.333D-01 0.322D+00 0.726D+00
 Gap=     0.324 Goal=   None    Shift=    0.000
 RMSDP=3.67D-07 MaxDP=4.08D-05 DE=-4.94D-09 OVMax= 1.04D-05

 Cycle  11  Pass 1  IDiag  1:
 RMSU=  1.32D-07    CP:  5.84D-01  1.55D+00  7.99D-01  9.66D-01  1.24D+00
                    CP:  9.39D-01  1.25D+00  1.33D+00  9.60D-01  1.10D+00
 E= -925.310886898005     Delta-E=       -0.000000000336 Rises=F Damp=F
 DIIS: error= 2.06D-07 at cycle  11 NSaved=  11.
 NSaved=11 IEnMin=11 EnMin= -925.310886898005     IErMin=11 ErrMin= 2.06D-07
 ErrMax= 2.06D-07  0.00D+00 EMaxC= 1.00D-01 BMatC= 3.22D-11 BMatP= 2.12D-10
 IDIUse=1 WtCom= 1.00D+00 WtEn= 0.00D+00
 Coeff-Com:  0.220D-04-0.466D-04-0.198D-04 0.124D-03 0.263D-03 0.125D-02
 Coeff-Com:  0.170D-02-0.459D-01-0.380D-01 0.246D+00 0.835D+00
 Coeff:      0.220D-04-0.466D-04-0.198D-04 0.124D-03 0.263D-03 0.125D-02
 Coeff:      0.170D-02-0.459D-01-0.380D-01 0.246D+00 0.835D+00
 Gap=     0.324 Goal=   None    Shift=    0.000
 RMSDP=1.91D-07 MaxDP=1.97D-05 DE=-3.36D-10 OVMax= 3.20D-06

 Cycle  12  Pass 1  IDiag  1:
 RMSU=  5.83D-08    CP:  5.84D-01  1.55D+00  7.99D-01  9.66D-01  1.24D+00
                    CP:  9.39D-01  1.25D+00  1.34D+00  9.66D-01  1.23D+00
                    CP:  1.30D+00
 E= -925.310886898074     Delta-E=       -0.000000000069 Rises=F Damp=F
 DIIS: error= 8.20D-08 at cycle  12 NSaved=  12.
 NSaved=12 IEnMin=12 EnMin= -925.310886898074     IErMin=12 ErrMin= 8.20D-08
 ErrMax= 8.20D-08  0.00D+00 EMaxC= 1.00D-01 BMatC= 1.35D-12 BMatP= 3.22D-11
 IDIUse=1 WtCom= 1.00D+00 WtEn= 0.00D+00
 Coeff-Com: -0.144D-04 0.312D-04 0.104D-04-0.223D-03-0.814D-03 0.870D-03
 Coeff-Com:  0.991D-02-0.646D-02-0.325D-01-0.616D-01-0.690D-01 0.116D+01
 Coeff:     -0.144D-04 0.312D-04 0.104D-04-0.223D-03-0.814D-03 0.870D-03
 Coeff:      0.991D-02-0.646D-02-0.325D-01-0.616D-01-0.690D-01 0.116D+01
 Gap=     0.324 Goal=   None    Shift=    0.000
 RMSDP=6.05D-08 MaxDP=2.95D-06 DE=-6.87D-11 OVMax= 1.23D-06

 Cycle  13  Pass 1  IDiag  1:
 RMSU=  2.20D-08    CP:  5.84D-01  1.55D+00  7.99D-01  9.66D-01  1.24D+00
                    CP:  9.39D-01  1.25D+00  1.34D+00  9.67D-01  1.28D+00
                    CP:  1.44D+00  1.41D+00
 E= -925.310886898068     Delta-E=        0.000000000005 Rises=F Damp=F
 DIIS: error= 3.13D-08 at cycle  13 NSaved=  13.
 NSaved=13 IEnMin=12 EnMin= -925.310886898074     IErMin=13 ErrMin= 3.13D-08
 ErrMax= 3.13D-08  0.00D+00 EMaxC= 1.00D-01 BMatC= 1.55D-13 BMatP= 1.35D-12
 IDIUse=1 WtCom= 1.00D+00 WtEn= 0.00D+00
 Coeff-Com: -0.472D-05 0.101D-04 0.417D-05-0.614D-04-0.211D-03 0.170D-03
 Coeff-Com:  0.229D-02 0.715D-03-0.496D-02-0.251D-01-0.718D-01 0.298D+00
 Coeff-Com:  0.801D+00
 Coeff:     -0.472D-05 0.101D-04 0.417D-05-0.614D-04-0.211D-03 0.170D-03
 Coeff:      0.229D-02 0.715D-03-0.496D-02-0.251D-01-0.718D-01 0.298D+00
 Coeff:      0.801D+00
 Gap=     0.324 Goal=   None    Shift=    0.000
 RMSDP=1.20D-08 MaxDP=7.39D-07 DE= 5.46D-12 OVMax= 2.97D-07

 Cycle  14  Pass 1  IDiag  1:
 RMSU=  6.48D-09    CP:  5.84D-01  1.55D+00  7.99D-01  9.66D-01  1.24D+00
                    CP:  9.39D-01  1.25D+00  1.34D+00  9.68D-01  1.28D+00
                    CP:  1.44D+00  1.52D+00  1.22D+00
 E= -925.310886898091     Delta-E=       -0.000000000023 Rises=F Damp=F
 DIIS: error= 6.93D-09 at cycle  14 NSaved=  14.
 NSaved=14 IEnMin=14 EnMin= -925.310886898091     IErMin=14 ErrMin= 6.93D-09
 ErrMax= 6.93D-09  0.00D+00 EMaxC= 1.00D-01 BMatC= 4.95D-14 BMatP= 1.55D-13
 IDIUse=1 WtCom= 1.00D+00 WtEn= 0.00D+00
 Coeff-Com:  0.584D-06-0.130D-05-0.152D-06 0.136D-04 0.569D-04-0.823D-04
 Coeff-Com: -0.811D-03 0.137D-02 0.368D-02 0.404D-03-0.227D-01-0.895D-01
 Coeff-Com:  0.367D+00 0.741D+00
 Coeff:      0.584D-06-0.130D-05-0.152D-06 0.136D-04 0.569D-04-0.823D-04
 Coeff:     -0.811D-03 0.137D-02 0.368D-02 0.404D-03-0.227D-01-0.895D-01
 Coeff:      0.367D+00 0.741D+00
 Gap=     0.324 Goal=   None    Shift=    0.000
 RMSDP=8.63D-09 MaxDP=6.03D-07 DE=-2.27D-11 OVMax= 9.65D-08

 SCF Done:  E(RwB97XD) =  -925.310886898     A.U. after   14 cycles
            NFock= 14  Conv=0.86D-08     -V/T= 2.0044
 KE= 9.212941612870D+02 PE=-5.609268136295D+03 EE= 2.031265863922D+03
 Leave Link  502 at Mon Nov 14 15:07:02 2022, MaxMem= 16106127360 cpu:            4654.4 elap:             147.1
 (Enter /opt/ap/G16/B01/g16/l601.exe)
 Copying SCF densities to generalized density rwf, IOpCl= 0 IROHF=0.

 **********************************************************************

            Population analysis using the SCF Density.

 **********************************************************************

 Orbital symmetries:
       Occupied  (A) (A) (A) (A) (A) (A) (A) (A) (A) (A) (A) (A)
                 (A) (A) (A) (A) (A) (A) (A) (A) (A) (A) (A) (A)
                 (A) (A) (A) (A) (A) (A) (A) (A) (A) (A) (A) (A)
                 (A) (A) (A) (A) (A) (A) (A) (A) (A) (A) (A) (A)
                 (A) (A) (A) (A) (A) (A) (A) (A) (A) (A) (A) (A)
                 (A) (A) (A) (A) (A) (A) (A) (A) (A) (A) (A) (A)
                 (A) (A) (A) (A) (A) (A) (A) (A) (A)
       Virtual   (A) (A) (A) (A) (A) (A) (A) (A) (A) (A) (A) (A)
                 (A) (A) (A) (A) (A) (A) (A) (A) (A) (A) (A) (A)
                 (A) (A) (A) (A) (A) (A) (A) (A) (A) (A) (A) (A)
                 (A) (A) (A) (A) (A) (A) (A) (A) (A) (A) (A) (A)
                 (A) (A) (A) (A) (A) (A) (A) (A) (A) (A) (A) (A)
                 (A) (A) (A) (A) (A) (A) (A) (A) (A) (A) (A) (A)
                 (A) (A) (A) (A) (A) (A) (A) (A) (A) (A) (A) (A)
                 (A) (A) (A) (A) (A) (A) (A) (A) (A) (A) (A) (A)
                 (A) (A) (A) (A) (A) (A) (A) (A) (A) (A) (A) (A)
                 (A) (A) (A) (A) (A) (A) (A) (A) (A) (A) (A) (A)
                 (A) (A) (A) (A) (A) (A) (A) (A) (A) (A) (A) (A)
                 (A) (A) (A) (A) (A) (A) (A) (A) (A) (A) (A) (A)
                 (A) (A) (A) (A) (A) (A) (A) (A) (A) (A) (A) (A)
                 (A) (A) (A) (A) (A) (A) (A) (A) (A) (A) (A) (A)
                 (A) (A) (A) (A) (A) (A) (A) (A) (A) (A) (A) (A)
                 (A) (A) (A) (A) (A) (A) (A) (A) (A) (A) (A) (A)
                 (A) (A) (A) (A) (A) (A) (A) (A) (A) (A) (A) (A)
                 (A) (A) (A) (A) (A) (A) (A) (A) (A) (A) (A) (A)
                 (A) (A) (A) (A) (A) (A) (A) (A) (A) (A) (A) (A)
                 (A) (A) (A) (A) (A) (A) (A) (A) (A) (A) (A) (A)
                 (A) (A) (A) (A) (A) (A) (A) (A) (A) (A) (A) (A)
                 (A) (A) (A) (A) (A) (A) (A) (A) (A) (A) (A) (A)
                 (A) (A) (A) (A) (A) (A) (A) (A) (A) (A) (A) (A)
                 (A) (A) (A) (A) (A) (A) (A) (A) (A) (A) (A) (A)
                 (A) (A) (A) (A) (A) (A) (A) (A) (A) (A) (A) (A)
                 (A) (A) (A) (A) (A) (A) (A) (A) (A) (A) (A) (A)
                 (A) (A) (A) (A) (A) (A) (A) (A) (A) (A) (A) (A)
                 (A) (A) (A) (A) (A) (A) (A) (A) (A) (A) (A) (A)
                 (A) (A) (A) (A) (A) (A) (A) (A) (A) (A) (A) (A)
                 (A) (A) (A) (A) (A) (A) (A) (A) (A) (A) (A) (A)
                 (A) (A) (A) (A) (A) (A) (A) (A) (A) (A) (A) (A)
                 (A) (A) (A) (A) (A) (A) (A) (A) (A) (A) (A) (A)
                 (A) (A) (A) (A) (A) (A) (A) (A) (A) (A) (A) (A)
                 (A) (A) (A) (A) (A) (A) (A) (A) (A) (A) (A) (A)
                 (A) (A) (A) (A) (A) (A) (A) (A) (A) (A) (A) (A)
                 (A) (A) (A) (A) (A) (A) (A) (A) (A) (A) (A) (A)
                 (A) (A) (A) (A) (A) (A) (A) (A) (A) (A) (A) (A)
                 (A) (A) (A) (A) (A) (A) (A) (A) (A) (A) (A) (A)
                 (A) (A) (A) (A) (A) (A) (A) (A) (A) (A) (A) (A)
                 (A) (A) (A) (A) (A) (A) (A) (A) (A) (A) (A) (A)
                 (A) (A) (A) (A) (A) (A) (A) (A) (A) (A) (A) (A)
                 (A) (A) (A) (A) (A) (A) (A) (A) (A) (A) (A) (A)
                 (A) (A) (A) (A) (A) (A) (A) (A) (A) (A) (A) (A)
                 (A) (A) (A) (A) (A) (A) (A) (A) (A) (A) (A) (A)
                 (A) (A) (A) (A) (A) (A) (A) (A) (A) (A) (A) (A)
                 (A) (A) (A) (A) (A) (A) (A) (A) (A) (A) (A) (A)
                 (A) (A) (A) (A) (A) (A) (A) (A) (A) (A) (A) (A)
 The electronic state is 1-A.
 Alpha  occ. eigenvalues --  -10.30398 -10.30393 -10.30369 -10.30315 -10.30313
 Alpha  occ. eigenvalues --  -10.30272 -10.29245 -10.29240 -10.29232 -10.29222
 Alpha  occ. eigenvalues --  -10.29216 -10.29198 -10.29164 -10.29162 -10.29149
 Alpha  occ. eigenvalues --  -10.29149 -10.29125 -10.29116 -10.29100 -10.29088
 Alpha  occ. eigenvalues --  -10.29083 -10.29064 -10.29056 -10.29054  -0.98955
 Alpha  occ. eigenvalues --   -0.97046  -0.97021  -0.95257  -0.89406  -0.89388
 Alpha  occ. eigenvalues --   -0.85324  -0.85285  -0.85224  -0.85042  -0.82256
 Alpha  occ. eigenvalues --   -0.82227  -0.73524  -0.73348  -0.71129  -0.70684
 Alpha  occ. eigenvalues --   -0.70238  -0.70102  -0.66769  -0.66683  -0.63481
 Alpha  occ. eigenvalues --   -0.60694  -0.60652  -0.58705  -0.57198  -0.56547
 Alpha  occ. eigenvalues --   -0.54919  -0.54766  -0.54452  -0.54238  -0.52976
 Alpha  occ. eigenvalues --   -0.51902  -0.51426  -0.51305  -0.51132  -0.50858
 Alpha  occ. eigenvalues --   -0.50769  -0.47739  -0.46651  -0.46120  -0.45971
 Alpha  occ. eigenvalues --   -0.45627  -0.45024  -0.44307  -0.43158  -0.43065
 Alpha  occ. eigenvalues --   -0.42898  -0.41797  -0.41463  -0.36528  -0.35805
 Alpha  occ. eigenvalues --   -0.33622  -0.33613  -0.33601  -0.33009  -0.30840
 Alpha  occ. eigenvalues --   -0.30236
 Alpha virt. eigenvalues --    0.02121   0.02668   0.03676   0.04205   0.04318
 Alpha virt. eigenvalues --    0.04757   0.04892   0.04904   0.05151   0.05228
 Alpha virt. eigenvalues --    0.05268   0.05676   0.05741   0.06774   0.06919
 Alpha virt. eigenvalues --    0.07021   0.07584   0.07948   0.08018   0.08491
 Alpha virt. eigenvalues --    0.08671   0.08915   0.09171   0.09587   0.11123
 Alpha virt. eigenvalues --    0.11482   0.12094   0.12360   0.12736   0.13296
 Alpha virt. eigenvalues --    0.13634   0.13937   0.14203   0.14513   0.15336
 Alpha virt. eigenvalues --    0.15571   0.15823   0.15875   0.16111   0.16249
 Alpha virt. eigenvalues --    0.16557   0.16856   0.17033   0.17425   0.17518
 Alpha virt. eigenvalues --    0.17573   0.17777   0.17945   0.18064   0.18103
 Alpha virt. eigenvalues --    0.18263   0.18381   0.18433   0.18699   0.18964
 Alpha virt. eigenvalues --    0.19167   0.19384   0.19451   0.20071   0.20354
 Alpha virt. eigenvalues --    0.20493   0.20718   0.21055   0.21213   0.21484
 Alpha virt. eigenvalues --    0.22025   0.22375   0.22542   0.22660   0.22823
 Alpha virt. eigenvalues --    0.23067   0.23247   0.23457   0.23774   0.23823
 Alpha virt. eigenvalues --    0.24504   0.24880   0.25177   0.25271   0.25439
 Alpha virt. eigenvalues --    0.25571   0.26114   0.26667   0.26929   0.27230
 Alpha virt. eigenvalues --    0.27436   0.27733   0.28037   0.28176   0.28350
 Alpha virt. eigenvalues --    0.28760   0.28933   0.29128   0.29368   0.29576
 Alpha virt. eigenvalues --    0.29667   0.30017   0.30346   0.30950   0.31163
 Alpha virt. eigenvalues --    0.31790   0.31982   0.32152   0.32776   0.33404
 Alpha virt. eigenvalues --    0.33574   0.33893   0.34074   0.34217   0.34355
 Alpha virt. eigenvalues --    0.34909   0.34999   0.35393   0.35529   0.35741
 Alpha virt. eigenvalues --    0.35946   0.36139   0.36574   0.36784   0.37137
 Alpha virt. eigenvalues --    0.37346   0.37508   0.37586   0.38025   0.38131
 Alpha virt. eigenvalues --    0.38343   0.38441   0.38672   0.39445   0.39674
 Alpha virt. eigenvalues --    0.39817   0.40433   0.40738   0.41376   0.41631
 Alpha virt. eigenvalues --    0.42016   0.42222   0.42408   0.42623   0.43314
 Alpha virt. eigenvalues --    0.43596   0.43850   0.44275   0.44651   0.45021
 Alpha virt. eigenvalues --    0.45320   0.46417   0.47607   0.47878   0.47966
 Alpha virt. eigenvalues --    0.48272   0.48912   0.52924   0.53319   0.57081
 Alpha virt. eigenvalues --    0.58259   0.58543   0.59017   0.59440   0.60783
 Alpha virt. eigenvalues --    0.62108   0.62373   0.62615   0.62843   0.63028
 Alpha virt. eigenvalues --    0.63481   0.63680   0.63940   0.64086   0.64134
 Alpha virt. eigenvalues --    0.64506   0.64722   0.65282   0.65502   0.65882
 Alpha virt. eigenvalues --    0.66045   0.66364   0.66977   0.67297   0.67595
 Alpha virt. eigenvalues --    0.68089   0.68962   0.69572   0.70116   0.70668
 Alpha virt. eigenvalues --    0.70854   0.71001   0.71848   0.72357   0.72589
 Alpha virt. eigenvalues --    0.73213   0.73510   0.73698   0.74195   0.74605
 Alpha virt. eigenvalues --    0.75225   0.76239   0.76598   0.77354   0.77923
 Alpha virt. eigenvalues --    0.78919   0.79354   0.80008   0.80292   0.80706
 Alpha virt. eigenvalues --    0.81100   0.81277   0.81546   0.81977   0.82224
 Alpha virt. eigenvalues --    0.82558   0.83028   0.83433   0.83712   0.84285
 Alpha virt. eigenvalues --    0.84484   0.84740   0.84913   0.85406   0.85729
 Alpha virt. eigenvalues --    0.86216   0.86976   0.87463   0.87881   0.88460
 Alpha virt. eigenvalues --    0.89373   0.90018   0.91378   0.91647   0.92009
 Alpha virt. eigenvalues --    0.92133   0.92263   0.93107   0.93704   0.93728
 Alpha virt. eigenvalues --    0.94231   0.94428   0.95080   0.95637   0.96344
 Alpha virt. eigenvalues --    0.96687   0.96860   0.97397   0.97901   0.99440
 Alpha virt. eigenvalues --    0.99962   1.00262   1.00594   1.01107   1.01869
 Alpha virt. eigenvalues --    1.02054   1.03187   1.03565   1.04226   1.05155
 Alpha virt. eigenvalues --    1.05546   1.06032   1.06894   1.07465   1.07648
 Alpha virt. eigenvalues --    1.08017   1.08481   1.08883   1.10014   1.11813
 Alpha virt. eigenvalues --    1.12050   1.12788   1.12875   1.13683   1.14035
 Alpha virt. eigenvalues --    1.14676   1.14714   1.16227   1.16674   1.16934
 Alpha virt. eigenvalues --    1.17611   1.18281   1.19009   1.19657   1.21459
 Alpha virt. eigenvalues --    1.21796   1.22344   1.23022   1.23682   1.24106
 Alpha virt. eigenvalues --    1.24312   1.25106   1.25726   1.29324   1.29618
 Alpha virt. eigenvalues --    1.38392   1.38635   1.40561   1.41546   1.41779
 Alpha virt. eigenvalues --    1.45697   1.47339   1.48165   1.52120   1.54894
 Alpha virt. eigenvalues --    1.56516   1.57743   1.58407   1.59372   1.59589
 Alpha virt. eigenvalues --    1.59998   1.60173   1.60868   1.61392   1.61594
 Alpha virt. eigenvalues --    1.62040   1.62713   1.62744   1.63255   1.63912
 Alpha virt. eigenvalues --    1.64421   1.65574   1.65712   1.65920   1.66376
 Alpha virt. eigenvalues --    1.66945   1.67352   1.67995   1.68587   1.69484
 Alpha virt. eigenvalues --    1.70481   1.73123   1.73323   1.74056   1.74142
 Alpha virt. eigenvalues --    1.74445   1.74824   1.75358   1.75629   1.76641
 Alpha virt. eigenvalues --    1.76944   1.78502   1.81828   1.82033   1.82908
 Alpha virt. eigenvalues --    1.82914   1.83472   1.84189   1.84573   1.85002
 Alpha virt. eigenvalues --    1.85519   1.86367   1.86667   1.86947   1.87894
 Alpha virt. eigenvalues --    1.88824   1.89468   1.92407   1.92665   1.92929
 Alpha virt. eigenvalues --    1.93550   1.94405   1.97097   1.99535   1.99961
 Alpha virt. eigenvalues --    2.00474   2.01543   2.02165   2.02582   2.02898
 Alpha virt. eigenvalues --    2.03091   2.03228   2.04036   2.04458   2.04641
 Alpha virt. eigenvalues --    2.04742   2.05265   2.05679   2.05899   2.06236
 Alpha virt. eigenvalues --    2.06523   2.07409   2.07922   2.08845   2.09102
 Alpha virt. eigenvalues --    2.10855   2.11168   2.11827   2.12381   2.13207
 Alpha virt. eigenvalues --    2.13381   2.14449   2.14987   2.16876   2.17308
 Alpha virt. eigenvalues --    2.18261   2.18618   2.19775   2.20825   2.22146
 Alpha virt. eigenvalues --    2.23151   2.28043   2.29756   2.33531   2.35003
 Alpha virt. eigenvalues --    2.35953   2.36845   2.37947   2.39717   2.42446
 Alpha virt. eigenvalues --    2.44383   2.44744   2.47327   2.48951   2.50205
 Alpha virt. eigenvalues --    2.52161   2.53169   2.53410   2.54097   2.55371
 Alpha virt. eigenvalues --    2.55398   2.56371   2.56417   2.56774   2.57402
 Alpha virt. eigenvalues --    2.58501   2.58791   2.62261   2.62882   2.64883
 Alpha virt. eigenvalues --    2.72887   2.73168   2.73555   2.75723   2.75791
 Alpha virt. eigenvalues --    2.76066   2.76392   2.77789   2.79276   2.79677
 Alpha virt. eigenvalues --    2.80094   2.80381   2.80520   2.80785   2.81055
 Alpha virt. eigenvalues --    2.81765   2.82405   2.82832   2.83117   2.83362
 Alpha virt. eigenvalues --    2.83918   2.84139   2.85918   2.86011   2.87096
 Alpha virt. eigenvalues --    2.87713   2.87889   2.88262   2.89702   2.90884
 Alpha virt. eigenvalues --    2.92199   2.92494   2.92632   2.92794   2.93123
 Alpha virt. eigenvalues --    2.93808   2.94266   2.94630   2.94982   2.97965
 Alpha virt. eigenvalues --    2.98814   2.99520   3.00840   3.01324   3.01956
 Alpha virt. eigenvalues --    3.04136   3.04672   3.05039   3.05225   3.05640
 Alpha virt. eigenvalues --    3.06392   3.06884   3.07755   3.08247   3.11555
 Alpha virt. eigenvalues --    3.12065   3.16140   3.18918   3.19784   3.20047
 Alpha virt. eigenvalues --    3.21776   3.23064   3.25829   3.30988   3.31863
 Alpha virt. eigenvalues --    3.32317   3.33586   3.34724   3.36451   3.37038
 Alpha virt. eigenvalues --    3.46706   3.47402   3.49119   3.49588   3.49740
 Alpha virt. eigenvalues --    3.50078   3.53527   3.53692   3.60568   3.60889
 Alpha virt. eigenvalues --    3.61176   3.63627   3.64836   3.65388   3.66230
 Alpha virt. eigenvalues --    3.73750   3.73978   3.76338   3.76360   3.76881
 Alpha virt. eigenvalues --    3.77410   3.91018   3.92598   3.94809   4.09754
 Alpha virt. eigenvalues --    4.09948   4.10276   4.14513   4.14583   4.14661
 Alpha virt. eigenvalues --    4.24254   4.24337   4.25761   4.26103   4.26501
 Alpha virt. eigenvalues --    4.26905   4.27727   4.27985   4.48623   4.64156
 Alpha virt. eigenvalues --    4.66902   4.94035   4.95523   4.95759   4.98760
 Alpha virt. eigenvalues --   23.68322  23.81552  23.82084  23.88124  24.08374
 Alpha virt. eigenvalues --   24.08427  24.10912  24.10987  24.11284  24.11427
 Alpha virt. eigenvalues --   24.12941  24.13347  24.20244  24.20530  24.20962
 Alpha virt. eigenvalues --   24.24072  24.24332  24.24385  24.24607  24.25405
 Alpha virt. eigenvalues --   24.31460  24.33827  24.33991  24.35007
          Condensed to atoms (all electrons):
               1          2          3          4          5          6
     1  C   18.891443   1.548760   0.843222  -5.241924   0.020270   0.284483
     2  C    1.548760  12.174132   0.063401   1.733883   0.357707  -1.847682
     3  C    0.843222   0.063401  12.904297  -2.391278   0.121676  -2.699327
     4  C   -5.241924   1.733883  -2.391278  19.388980  -0.141938   0.085271
     5  H    0.020270   0.357707   0.121676  -0.141938   0.499469  -0.073596
     6  C    0.284483  -1.847682  -2.699327   0.085271  -0.073596  13.410926
     7  C   -6.401343  -2.511725   1.530220  -7.618977   0.110801  -0.670406
     8  H    0.057269   0.022542   0.350741   0.128474  -0.002926   0.003668
     9  C   -3.285145  -0.669411  -0.401266   0.287005   0.079403  -1.404554
    10  C   -0.466692  -2.222612  -1.490503   0.745964  -0.077984   0.878860
    11  C   -0.596620   0.762281  -1.164198   0.601959  -0.107125  -0.106802
    12  C   -1.021359  -1.415381   1.378031  -0.635493   0.047994  -0.700288
    13  C   -0.296067  -1.570485  -1.889217  -0.609803  -0.036077   0.975019
    14  H    0.098700   0.062898   0.057679  -0.055511  -0.002109  -0.012447
    15  C    1.557793   2.637249   0.036729  -0.570949  -0.043893   0.280466
    16  C   -1.419884  -3.326915  -0.016304  -1.546201   0.014591  -0.115097
    17  C   -0.305566   0.809031   0.058952   0.467445   0.027670  -1.694838
    18  H    0.049883  -0.028874  -0.051548  -0.042924  -0.005465   0.060308
    19  C    0.165527   0.143893   0.105915  -0.119177   0.011748  -1.408286
    20  H    0.014763  -0.020777   0.001195   0.009856  -0.000725   0.023809
    21  C    1.917574   0.201645   2.240142  -0.891749  -0.015292   0.075947
    22  C   -1.404980  -0.121173  -2.477257   1.634066   0.013082   0.072561
    23  C    0.340388   0.623284   0.061111  -0.235036   0.032442  -0.002110
    24  H   -0.024634  -0.012139  -0.028192   0.012097  -0.009300   0.031554
    25  C   -0.036655   0.152292   0.069498   0.127723   0.015671  -0.062166
    26  H   -0.001903  -0.032320  -0.009344   0.083876  -0.003890   0.008745
    27  C   -0.221866  -0.287055   0.052685  -0.068322  -0.005888  -0.338398
    28  H    0.000395   0.008718   0.002213   0.007487   0.000257   0.029104
    29  H    0.005099   0.008748  -0.005521   0.000520   0.000190   0.032502
    30  C    0.184188   0.086252   0.293300  -0.130014   0.001331  -0.094018
    31  H   -0.045294  -0.016842  -0.043156   0.012161  -0.000655   0.014623
    32  C   -0.088895   0.055551   0.113855   0.265177   0.001745  -0.024335
    33  H   -0.006427  -0.016484  -0.029369  -0.095117   0.000553   0.009521
    34  C   -0.087158  -0.214599  -0.025203  -0.208592  -0.008412   0.028785
    35  H    0.006346   0.004190   0.001091  -0.000390   0.000841  -0.001878
    36  H    0.002511   0.007415  -0.000121   0.001696   0.000748  -0.000473
    37  H   -0.007034  -0.008705  -0.001369  -0.000093  -0.000316   0.015843
    38  C   -0.011316  -0.019424  -0.123356   0.017124  -0.000371   0.035410
    39  H    0.003204   0.000797   0.006354   0.000566   0.000015  -0.002683
    40  H    0.002809  -0.000330   0.008460   0.005631  -0.000040  -0.000689
    41  H   -0.000523  -0.005620  -0.000767  -0.005111  -0.000448   0.000688
    42  H    0.000496  -0.000705  -0.005196   0.000758  -0.000010   0.000955
               7          8          9         10         11         12
     1  C   -6.401343   0.057269  -3.285145  -0.466692  -0.596620  -1.021359
     2  C   -2.511725   0.022542  -0.669411  -2.222612   0.762281  -1.415381
     3  C    1.530220   0.350741  -0.401266  -1.490503  -1.164198   1.378031
     4  C   -7.618977   0.128474   0.287005   0.745964   0.601959  -0.635493
     5  H    0.110801  -0.002926   0.079403  -0.077984  -0.107125   0.047994
     6  C   -0.670406   0.003668  -1.404554   0.878860  -0.106802  -0.700288
     7  C   19.743957  -0.194195   1.871726  -0.586467  -0.647488   1.233201
     8  H   -0.194195   0.489583   0.048695  -0.025700   0.000482  -0.045035
     9  C    1.871726   0.048695  13.719215  -2.061542  -0.350561   0.167835
    10  C   -0.586467  -0.025700  -2.061542  14.101916   0.319556  -0.110286
    11  C   -0.647488   0.000482  -0.350561   0.319556  15.500341  -7.065861
    12  C    1.233201  -0.045035   0.167835  -0.110286  -7.065861  15.176040
    13  C    0.696667  -0.030675  -2.163712   1.270236   0.140088   0.093085
    14  H   -0.045036  -0.002020   0.266964   0.060011   0.001968  -0.003386
    15  C   -0.751304  -0.012685  -2.812955  -1.158404  -0.237560   0.189130
    16  C    1.615033   0.011965   3.541257  -0.729212   0.135337  -0.090459
    17  C   -0.095944   0.011860   0.088849   0.053336  -1.875144   0.530701
    18  H   -0.016601  -0.002074  -0.027268   0.022344   0.509733  -0.022916
    19  C    0.154582   0.002923   0.050302  -0.083811   0.354655  -0.990813
    20  H   -0.015199   0.003771   0.000748   0.012299   0.008779   0.370893
    21  C   -1.087318  -0.041863  -2.796343   0.278611  -0.021989  -0.048371
    22  C   -1.125314   0.011466   2.933865  -0.366166   0.035319   0.013027
    23  C   -0.073530  -0.000868   0.079481  -1.916997  -0.071765   0.038692
    24  H   -0.006254  -0.000205  -0.054329   0.002096   0.006814   0.001579
    25  C    0.186136   0.001981   0.121972  -1.577819   0.002016  -0.001458
    26  H   -0.078309   0.000565  -0.018001  -0.003744  -0.000386   0.001537
    27  C    0.033005   0.000453  -0.037162   0.023895   0.043474  -0.415783
    28  H    0.002061   0.000315   0.001827  -0.000867  -0.118621   0.017038
    29  H   -0.000089  -0.000999  -0.000155  -0.000804   0.006205  -0.097243
    30  C    0.038515  -0.022368   0.134590  -0.040327   0.002962  -0.034440
    31  H    0.032540  -0.001542  -0.038911   0.014498   0.001054   0.015063
    32  C   -0.129263   0.027176   0.316736  -0.068699  -0.017569   0.023704
    33  H    0.098876  -0.004619  -0.036109  -0.002772   0.001644  -0.000696
    34  C    0.015156   0.000179   0.052799  -0.133547  -0.000206   0.000415
    35  H    0.003596  -0.000042   0.007056   0.016442  -0.000415   0.000213
    36  H    0.004776  -0.000053   0.000006   0.011335  -0.000203   0.000103
    37  H    0.001465   0.000171  -0.000918   0.000706   0.022887   0.001203
    38  C   -0.239405  -0.010747  -0.043421   0.035276   0.006950  -0.012147
    39  H    0.002760  -0.000092   0.006625  -0.001068  -0.000469   0.000808
    40  H   -0.000338   0.001005   0.002736  -0.002886  -0.000178   0.000177
    41  H    0.000900  -0.000004  -0.002655   0.025606   0.000050  -0.000001
    42  H   -0.005916  -0.000344  -0.005087   0.001027   0.000194  -0.000311
              13         14         15         16         17         18
     1  C   -0.296067   0.098700   1.557793  -1.419884  -0.305566   0.049883
     2  C   -1.570485   0.062898   2.637249  -3.326915   0.809031  -0.028874
     3  C   -1.889217   0.057679   0.036729  -0.016304   0.058952  -0.051548
     4  C   -0.609803  -0.055511  -0.570949  -1.546201   0.467445  -0.042924
     5  H   -0.036077  -0.002109  -0.043893   0.014591   0.027670  -0.005465
     6  C    0.975019  -0.012447   0.280466  -0.115097  -1.694838   0.060308
     7  C    0.696667  -0.045036  -0.751304   1.615033  -0.095944  -0.016601
     8  H   -0.030675  -0.002020  -0.012685   0.011965   0.011860  -0.002074
     9  C   -2.163712   0.266964  -2.812955   3.541257   0.088849  -0.027268
    10  C    1.270236   0.060011  -1.158404  -0.729212   0.053336   0.022344
    11  C    0.140088   0.001968  -0.237560   0.135337  -1.875144   0.509733
    12  C    0.093085  -0.003386   0.189130  -0.090459   0.530701  -0.022916
    13  C   12.818595   0.023331   0.171285  -0.197212  -0.026187   0.014223
    14  H    0.023331   0.501837   0.100563  -0.184644  -0.002923   0.000547
    15  C    0.171285   0.100563  14.942404  -7.907330  -0.112598   0.010400
    16  C   -0.197212  -0.184644  -7.907330  17.126913   0.062894  -0.007482
    17  C   -0.026187  -0.002923  -0.112598   0.062894   8.742516  -0.186085
    18  H    0.014223   0.000547   0.010400  -0.007482  -0.186085   0.475798
    19  C   -0.098196   0.003238   0.023043  -0.010058  -0.685685   0.013819
    20  H    0.017676  -0.000458  -0.005950   0.004037   0.010520  -0.000912
    21  C   -0.707666   0.067651   0.172630  -0.215395   0.022230  -0.000892
    22  C   -0.501396  -0.124291  -0.225169   0.392198  -0.007217   0.000926
    23  C   -0.038281   0.011145  -0.198015  -0.163582  -0.002684  -0.003815
    24  H    0.015367  -0.001144   0.508140  -0.038283  -0.004463   0.001436
    25  C   -0.089918  -0.010105   0.264942  -0.593151  -0.001935  -0.000703
    26  H   -0.009322  -0.002254  -0.039357   0.448467  -0.000082   0.000277
    27  C    0.042211   0.000138   0.004317  -0.002833   0.204375   0.016267
    28  H   -0.000929  -0.000062  -0.000927   0.000699   0.445071  -0.011746
    29  H   -0.003038   0.000006   0.000285  -0.000059   0.004504   0.000147
    30  C   -1.590718   0.003791  -0.014742   0.033867   0.010050  -0.001429
    31  H   -0.013371  -0.002163   0.005893  -0.005823   0.000227   0.000234
    32  C   -1.622248  -0.012504   0.007356  -0.032233  -0.002141  -0.000222
    33  H    0.025440  -0.001734  -0.006052   0.027057   0.000176   0.000070
    34  C    0.033236  -0.003346  -0.391358  -0.221573   0.000103   0.000474
    35  H   -0.001071   0.000191  -0.093264   0.014868   0.000051  -0.000076
    36  H   -0.002162  -0.000751   0.004654  -0.079308  -0.000035  -0.000018
    37  H    0.001222  -0.000005   0.000052  -0.000019  -0.078837   0.001016
    38  C   -0.145789   0.001894   0.005979  -0.018406   0.000070   0.000249
    39  H    0.022556   0.000280  -0.000281   0.000525  -0.000019  -0.000009
    40  H    0.012279  -0.001031  -0.000498   0.001968   0.000017  -0.000010
    41  H    0.001049   0.000203   0.014871  -0.013157  -0.000000   0.000034
    42  H    0.021725   0.000104   0.000153  -0.000472   0.000007   0.000005
              19         20         21         22         23         24
     1  C    0.165527   0.014763   1.917574  -1.404980   0.340388  -0.024634
     2  C    0.143893  -0.020777   0.201645  -0.121173   0.623284  -0.012139
     3  C    0.105915   0.001195   2.240142  -2.477257   0.061111  -0.028192
     4  C   -0.119177   0.009856  -0.891749   1.634066  -0.235036   0.012097
     5  H    0.011748  -0.000725  -0.015292   0.013082   0.032442  -0.009300
     6  C   -1.408286   0.023809   0.075947   0.072561  -0.002110   0.031554
     7  C    0.154582  -0.015199  -1.087318  -1.125314  -0.073530  -0.006254
     8  H    0.002923   0.003771  -0.041863   0.011466  -0.000868  -0.000205
     9  C    0.050302   0.000748  -2.796343   2.933865   0.079481  -0.054329
    10  C   -0.083811   0.012299   0.278611  -0.366166  -1.916997   0.002096
    11  C    0.354655   0.008779  -0.021989   0.035319  -0.071765   0.006814
    12  C   -0.990813   0.370893  -0.048371   0.013027   0.038692   0.001579
    13  C   -0.098196   0.017676  -0.707666  -0.501396  -0.038281   0.015367
    14  H    0.003238  -0.000458   0.067651  -0.124291   0.011145  -0.001144
    15  C    0.023043  -0.005950   0.172630  -0.225169  -0.198015   0.508140
    16  C   -0.010058   0.004037  -0.215395   0.392198  -0.163582  -0.038283
    17  C   -0.685685   0.010520   0.022230  -0.007217  -0.002684  -0.004463
    18  H    0.013819  -0.000912  -0.000892   0.000926  -0.003815   0.001436
    19  C    7.925243  -0.105161  -0.007391  -0.004099   0.000651  -0.002442
    20  H   -0.105161   0.474725  -0.010900   0.007340  -0.001027   0.000011
    21  C   -0.007391  -0.010900  13.911529  -6.089745  -0.011494   0.007110
    22  C   -0.004099   0.007340  -6.089745  13.882513   0.030588  -0.007238
    23  C    0.000651  -0.001027  -0.011494   0.030588   7.856893  -0.100416
    24  H   -0.002442   0.000011   0.007110  -0.007238  -0.100416   0.483598
    25  C    0.001831  -0.000087   0.000714  -0.015034  -0.493251  -0.007591
    26  H   -0.000176   0.000135  -0.007111   0.025744  -0.019506   0.000543
    27  C    0.500571  -0.003086  -0.020054   0.006599  -0.000888   0.001515
    28  H    0.003191   0.000106   0.000400  -0.000109   0.000093  -0.000084
    29  H    0.422949  -0.009931   0.002017  -0.000516   0.000050  -0.000027
    30  C   -0.023594   0.000216  -0.410372   0.026148  -0.000988  -0.000058
    31  H   -0.003209  -0.002745   0.485896  -0.036912  -0.000244   0.000354
    32  C    0.006099  -0.000340  -0.120230  -0.123254   0.006164  -0.001024
    33  H   -0.000603   0.000106  -0.022660   0.432914   0.002221   0.000005
    34  C   -0.000711  -0.000014   0.005913  -0.016043   0.357296   0.021765
    35  H    0.000124   0.000015  -0.000329   0.000660   0.428293  -0.010816
    36  H    0.000010  -0.000002  -0.000277   0.001150   0.016498  -0.000349
    37  H   -0.065089   0.000977  -0.000565   0.000189  -0.000022   0.000052
    38  C   -0.003917  -0.000144  -0.244879  -0.473301   0.000160   0.000186
    39  H    0.000359   0.000193  -0.093082   0.010255   0.000013  -0.000013
    40  H    0.000024   0.000003   0.003605  -0.079239  -0.000080  -0.000001
    41  H   -0.000015   0.000002   0.000184  -0.000544  -0.081532   0.001216
    42  H   -0.000103   0.000003   0.008544  -0.004435   0.000004   0.000005
              25         26         27         28         29         30
     1  C   -0.036655  -0.001903  -0.221866   0.000395   0.005099   0.184188
     2  C    0.152292  -0.032320  -0.287055   0.008718   0.008748   0.086252
     3  C    0.069498  -0.009344   0.052685   0.002213  -0.005521   0.293300
     4  C    0.127723   0.083876  -0.068322   0.007487   0.000520  -0.130014
     5  H    0.015671  -0.003890  -0.005888   0.000257   0.000190   0.001331
     6  C   -0.062166   0.008745  -0.338398   0.029104   0.032502  -0.094018
     7  C    0.186136  -0.078309   0.033005   0.002061  -0.000089   0.038515
     8  H    0.001981   0.000565   0.000453   0.000315  -0.000999  -0.022368
     9  C    0.121972  -0.018001  -0.037162   0.001827  -0.000155   0.134590
    10  C   -1.577819  -0.003744   0.023895  -0.000867  -0.000804  -0.040327
    11  C    0.002016  -0.000386   0.043474  -0.118621   0.006205   0.002962
    12  C   -0.001458   0.001537  -0.415783   0.017038  -0.097243  -0.034440
    13  C   -0.089918  -0.009322   0.042211  -0.000929  -0.003038  -1.590718
    14  H   -0.010105  -0.002254   0.000138  -0.000062   0.000006   0.003791
    15  C    0.264942  -0.039357   0.004317  -0.000927   0.000285  -0.014742
    16  C   -0.593151   0.448467  -0.002833   0.000699  -0.000059   0.033867
    17  C   -0.001935  -0.000082   0.204375   0.445071   0.004504   0.010050
    18  H   -0.000703   0.000277   0.016267  -0.011746   0.000147  -0.001429
    19  C    0.001831  -0.000176   0.500571   0.003191   0.422949  -0.023594
    20  H   -0.000087   0.000135  -0.003086   0.000106  -0.009931   0.000216
    21  C    0.000714  -0.007111  -0.020054   0.000400   0.002017  -0.410372
    22  C   -0.015034   0.025744   0.006599  -0.000109  -0.000516   0.026148
    23  C   -0.493251  -0.019506  -0.000888   0.000093   0.000050  -0.000988
    24  H   -0.007591   0.000543   0.001515  -0.000084  -0.000027  -0.000058
    25  C    7.592148  -0.037312  -0.000402  -0.000007  -0.000003   0.005322
    26  H   -0.037312   0.497382   0.000073   0.000005  -0.000004   0.000940
    27  C   -0.000402   0.000073   6.511580  -0.066903  -0.054177  -0.005280
    28  H   -0.000007   0.000005  -0.066903   0.474640   0.000415   0.000076
    29  H   -0.000003  -0.000004  -0.054177   0.000415   0.474244   0.000227
    30  C    0.005322   0.000940  -0.005280   0.000076   0.000227   7.773501
    31  H   -0.000741   0.000010   0.000835   0.000012   0.000114  -0.067339
    32  C   -0.017558   0.002268  -0.000093   0.000013   0.000014  -0.589704
    33  H   -0.005529  -0.005045   0.000070   0.000000   0.000002  -0.009533
    34  C    0.419104   0.016649   0.000158   0.000008   0.000005   0.000114
    35  H    0.010564  -0.000488  -0.000036   0.000003  -0.000000   0.000003
    36  H    0.412700  -0.010460  -0.000001  -0.000001  -0.000000  -0.000016
    37  H   -0.000009   0.000003   0.455347  -0.009500  -0.009758  -0.000131
    38  C   -0.004483  -0.000866  -0.000032  -0.000001   0.000030   0.441996
    39  H    0.000039   0.000045   0.000014  -0.000001  -0.000014   0.421758
    40  H    0.000677   0.000565  -0.000002   0.000000  -0.000001   0.011872
    41  H   -0.058824   0.001221   0.000006  -0.000000  -0.000000   0.000005
    42  H   -0.000129  -0.000048   0.000005  -0.000000  -0.000000  -0.076655
              31         32         33         34         35         36
     1  C   -0.045294  -0.088895  -0.006427  -0.087158   0.006346   0.002511
     2  C   -0.016842   0.055551  -0.016484  -0.214599   0.004190   0.007415
     3  C   -0.043156   0.113855  -0.029369  -0.025203   0.001091  -0.000121
     4  C    0.012161   0.265177  -0.095117  -0.208592  -0.000390   0.001696
     5  H   -0.000655   0.001745   0.000553  -0.008412   0.000841   0.000748
     6  C    0.014623  -0.024335   0.009521   0.028785  -0.001878  -0.000473
     7  C    0.032540  -0.129263   0.098876   0.015156   0.003596   0.004776
     8  H   -0.001542   0.027176  -0.004619   0.000179  -0.000042  -0.000053
     9  C   -0.038911   0.316736  -0.036109   0.052799   0.007056   0.000006
    10  C    0.014498  -0.068699  -0.002772  -0.133547   0.016442   0.011335
    11  C    0.001054  -0.017569   0.001644  -0.000206  -0.000415  -0.000203
    12  C    0.015063   0.023704  -0.000696   0.000415   0.000213   0.000103
    13  C   -0.013371  -1.622248   0.025440   0.033236  -0.001071  -0.002162
    14  H   -0.002163  -0.012504  -0.001734  -0.003346   0.000191  -0.000751
    15  C    0.005893   0.007356  -0.006052  -0.391358  -0.093264   0.004654
    16  C   -0.005823  -0.032233   0.027057  -0.221573   0.014868  -0.079308
    17  C    0.000227  -0.002141   0.000176   0.000103   0.000051  -0.000035
    18  H    0.000234  -0.000222   0.000070   0.000474  -0.000076  -0.000018
    19  C   -0.003209   0.006099  -0.000603  -0.000711   0.000124   0.000010
    20  H   -0.002745  -0.000340   0.000106  -0.000014   0.000015  -0.000002
    21  C    0.485896  -0.120230  -0.022660   0.005913  -0.000329  -0.000277
    22  C   -0.036912  -0.123254   0.432914  -0.016043   0.000660   0.001150
    23  C   -0.000244   0.006164   0.002221   0.357296   0.428293   0.016498
    24  H    0.000354  -0.001024   0.000005   0.021765  -0.010816  -0.000349
    25  C   -0.000741  -0.017558  -0.005529   0.419104   0.010564   0.412700
    26  H    0.000010   0.002268  -0.005045   0.016649  -0.000488  -0.010460
    27  C    0.000835  -0.000093   0.000070   0.000158  -0.000036  -0.000001
    28  H    0.000012   0.000013   0.000000   0.000008   0.000003  -0.000001
    29  H    0.000114   0.000014   0.000002   0.000005  -0.000000  -0.000000
    30  C   -0.067339  -0.589704  -0.009533   0.000114   0.000003  -0.000016
    31  H    0.494984  -0.011260   0.000325   0.000200  -0.000016  -0.000003
    32  C   -0.011260   7.677968  -0.066593  -0.004570   0.000054   0.000386
    33  H    0.000325  -0.066593   0.499511  -0.000602   0.000051   0.000442
    34  C    0.000200  -0.004570  -0.000602   6.423923  -0.070081  -0.058168
    35  H   -0.000016   0.000054   0.000051  -0.070081   0.475124   0.001117
    36  H   -0.000003   0.000386   0.000442  -0.058168   0.001117   0.473800
    37  H    0.000006   0.000001   0.000003   0.000006  -0.000002  -0.000000
    38  C    0.028113   0.483717   0.018984  -0.000191   0.000001   0.000062
    39  H   -0.012970   0.011697  -0.000469  -0.000003   0.000000  -0.000001
    40  H   -0.000446   0.422510  -0.013012   0.000085  -0.000002  -0.000044
    41  H    0.000005  -0.000122  -0.000026   0.462252  -0.010724  -0.010497
    42  H    0.002000  -0.065845   0.001854   0.000000  -0.000000   0.000001
              37         38         39         40         41         42
     1  C   -0.007034  -0.011316   0.003204   0.002809  -0.000523   0.000496
     2  C   -0.008705  -0.019424   0.000797  -0.000330  -0.005620  -0.000705
     3  C   -0.001369  -0.123356   0.006354   0.008460  -0.000767  -0.005196
     4  C   -0.000093   0.017124   0.000566   0.005631  -0.005111   0.000758
     5  H   -0.000316  -0.000371   0.000015  -0.000040  -0.000448  -0.000010
     6  C    0.015843   0.035410  -0.002683  -0.000689   0.000688   0.000955
     7  C    0.001465  -0.239405   0.002760  -0.000338   0.000900  -0.005916
     8  H    0.000171  -0.010747  -0.000092   0.001005  -0.000004  -0.000344
     9  C   -0.000918  -0.043421   0.006625   0.002736  -0.002655  -0.005087
    10  C    0.000706   0.035276  -0.001068  -0.002886   0.025606   0.001027
    11  C    0.022887   0.006950  -0.000469  -0.000178   0.000050   0.000194
    12  C    0.001203  -0.012147   0.000808   0.000177  -0.000001  -0.000311
    13  C    0.001222  -0.145789   0.022556   0.012279   0.001049   0.021725
    14  H   -0.000005   0.001894   0.000280  -0.001031   0.000203   0.000104
    15  C    0.000052   0.005979  -0.000281  -0.000498   0.014871   0.000153
    16  C   -0.000019  -0.018406   0.000525   0.001968  -0.013157  -0.000472
    17  C   -0.078837   0.000070  -0.000019   0.000017  -0.000000   0.000007
    18  H    0.001016   0.000249  -0.000009  -0.000010   0.000034   0.000005
    19  C   -0.065089  -0.003917   0.000359   0.000024  -0.000015  -0.000103
    20  H    0.000977  -0.000144   0.000193   0.000003   0.000002   0.000003
    21  C   -0.000565  -0.244879  -0.093082   0.003605   0.000184   0.008544
    22  C    0.000189  -0.473301   0.010255  -0.079239  -0.000544  -0.004435
    23  C   -0.000022   0.000160   0.000013  -0.000080  -0.081532   0.000004
    24  H    0.000052   0.000186  -0.000013  -0.000001   0.001216   0.000005
    25  C   -0.000009  -0.004483   0.000039   0.000677  -0.058824  -0.000129
    26  H    0.000003  -0.000866   0.000045   0.000565   0.001221  -0.000048
    27  C    0.455347  -0.000032   0.000014  -0.000002   0.000006   0.000005
    28  H   -0.009500  -0.000001  -0.000001   0.000000  -0.000000  -0.000000
    29  H   -0.009758   0.000030  -0.000014  -0.000001  -0.000000  -0.000000
    30  C   -0.000131   0.441996   0.421758   0.011872   0.000005  -0.076655
    31  H    0.000006   0.028113  -0.012970  -0.000446   0.000005   0.002000
    32  C    0.000001   0.483717   0.011697   0.422510  -0.000122  -0.065845
    33  H    0.000003   0.018984  -0.000469  -0.013012  -0.000026   0.001854
    34  C    0.000006  -0.000191  -0.000003   0.000085   0.462252   0.000000
    35  H   -0.000002   0.000001   0.000000  -0.000002  -0.010724  -0.000000
    36  H   -0.000000   0.000062  -0.000001  -0.000044  -0.010497   0.000001
    37  H    0.483943   0.000002  -0.000000  -0.000000   0.000000   0.000000
    38  C    0.000002   6.355653  -0.066940  -0.063206  -0.000001   0.466728
    39  H   -0.000000  -0.066940   0.476099   0.001097  -0.000000  -0.011947
    40  H   -0.000000  -0.063206   0.001097   0.477334   0.000001  -0.011690
    41  H    0.000000  -0.000001  -0.000000   0.000001   0.486906   0.000000
    42  H    0.000000   0.466728  -0.011947  -0.011690   0.000000   0.488773
 Mulliken charges:
               1
     1  C    0.976161
     2  C   -1.115412
     3  C   -1.448276
     4  C    0.990882
     5  H    0.178259
     6  C    0.901023
     7  C    0.924447
     8  H    0.223771
     9  C   -1.570186
    10  C    1.254896
    11  C   -0.081588
    12  C   -0.588742
    13  C    1.248250
    14  H    0.204784
    15  C   -0.355040
    16  C   -0.496584
    17  C   -0.468270
    18  H    0.232881
    19  C   -0.278163
    20  H    0.215281
    21  C   -0.536374
    22  C   -0.327176
    23  C   -0.469336
    24  H    0.213560
    25  C   -0.370459
    26  H    0.190879
    27  C   -0.369332
    28  H    0.215611
    29  H    0.224066
    30  C   -0.359296
    31  H    0.194495
    32  C   -0.423490
    33  H    0.203626
    34  C   -0.394249
    35  H    0.218732
    36  H    0.223531
    37  H    0.197278
    38  C   -0.416242
    39  H    0.224004
    40  H    0.220870
    41  H    0.195373
    42  H    0.195554
 Sum of Mulliken charges =  -0.00000
 Mulliken charges with hydrogens summed into heavy atoms:
               1
     1  C    0.976161
     2  C   -0.937152
     3  C   -1.224505
     4  C    0.990882
     6  C    0.901023
     7  C    0.924447
     9  C   -1.365403
    10  C    1.254896
    11  C    0.151293
    12  C   -0.373461
    13  C    1.248250
    15  C   -0.141481
    16  C   -0.305705
    17  C   -0.252659
    19  C   -0.054098
    21  C   -0.341879
    22  C   -0.123549
    23  C   -0.250604
    25  C   -0.146928
    27  C   -0.172055
    30  C   -0.135292
    32  C   -0.202620
    34  C   -0.198876
    38  C   -0.220688
 Electronic spatial extent (au):  <R**2>=          10005.8937
 Charge=             -0.0000 electrons
 Dipole moment (field-independent basis, Debye):
    X=              0.0176    Y=             -0.0091    Z=             -0.0014  Tot=              0.0199
 Quadrupole moment (field-independent basis, Debye-Ang):
   XX=           -126.4739   YY=           -128.9068   ZZ=           -138.9571
   XY=              0.0901   XZ=             -6.4170   YZ=             -2.8669
 Traceless Quadrupole moment (field-independent basis, Debye-Ang):
   XX=              4.9721   YY=              2.5391   ZZ=             -7.5112
   XY=              0.0901   XZ=             -6.4170   YZ=             -2.8669
 Octapole moment (field-independent basis, Debye-Ang**2):
  XXX=             33.9626  YYY=              6.7823  ZZZ=              1.2560  XYY=            -46.5961
  XXY=             -3.8169  XXZ=             30.9610  XZZ=             12.3874  YZZ=             -2.8587
  YYZ=            -32.3609  XYZ=            -18.6541
 Hexadecapole moment (field-independent basis, Debye-Ang**3):
 XXXX=          -6263.5299 YYYY=          -6200.6397 ZZZZ=           -591.2942 XXXY=              5.4290
 XXXZ=           -119.0771 YYYX=              5.2631 YYYZ=             14.2580 ZZZX=            -13.6566
 ZZZY=            -17.3961 XXYY=          -2124.2677 XXZZ=          -1194.6735 YYZZ=          -1227.1272
 XXYZ=            -70.6019 YYXZ=            -31.5695 ZZXY=             -8.0603
 N-N= 1.731397224188D+03 E-N=-5.609268136257D+03  KE= 9.212941612870D+02
 No NMR shielding tensors so no spin-rotation constants.
 Leave Link  601 at Mon Nov 14 15:07:03 2022, MaxMem= 16106127360 cpu:               9.8 elap:               0.4
 (Enter /opt/ap/G16/B01/g16/l9999.exe)
 1\1\GINC-N61\SP\RwB97XD\6-311++G(d,p)\C24H18\ROOT\14-Nov-2022\0\\#P wB
 97XD/6-311++G(d,p) scf=maxcycle=512\\_conf006.gjf nmol_natom 1_42\\0,1
 \C\C,1,1.39412829\C,1,1.39435449,2,118.86443127\C,2,1.39416084,1,121.1
 529487,3,0.03668482,0\H,2,1.08488355,1,119.42236619,3,-179.97409048,0\
 C,1,1.48467131,2,120.55714816,4,179.25839056,0\C,3,1.39437784,1,121.11
 776116,2,-0.05351271,0\H,3,1.08487775,1,119.41869036,2,177.23008049,0\
 C,4,1.39432447,2,118.86473838,1,0.01008406,0\C,4,1.48466627,2,120.5464
 188,1,179.19454736,0\C,6,1.3968498,1,120.7843492,2,-60.,0\C,6,1.396868
 2,1,120.67653841,2,120.,0\C,7,1.48449863,3,120.56496838,1,-179.9632580
 4,0\H,9,1.0848792,4,119.41824946,2,177.22245984,0\C,10,1.39685361,4,12
 0.76946845,2,-42.52368674,0\C,10,1.39686289,4,120.69448769,2,137.43107
 516,0\C,11,1.38888939,6,120.7380073,1,179.94058542,0\H,11,1.0847641,6,
 119.46912378,1,-1.41050605,0\C,12,1.38882428,6,120.76493111,1,-179.950
 82712,0\H,12,1.08482758,6,119.44182626,1,-1.23602505,0\C,13,1.39682899
 ,7,120.74134419,3,42.89023273,0\C,13,1.39683158,7,120.7379111,3,-137.1
 2494058,0\C,15,1.38888263,10,120.742191,4,179.9460119,0\H,15,1.0847633
 4,10,119.47085903,4,-1.40606944,0\C,16,1.38886088,10,120.76338989,4,-1
 79.95592713,0\H,16,1.08483431,10,119.44215232,4,-1.23439681,0\C,17,1.3
 9007919,11,120.20743432,6,0.00349958,0\H,17,1.0843506,11,119.71318733,
 6,179.5011609,0\H,19,1.08435858,12,119.73823132,6,179.53683762,0\C,21,
 1.38882373,13,120.76699356,7,179.99297883,0\H,21,1.0847938,13,119.4352
 623,7,1.32183327,0\C,22,1.38881869,13,120.76647403,7,-179.97118338,0\H
 ,22,1.08479982,13,119.43203605,7,1.34657928,0\C,23,1.39007007,15,120.2
 0732995,10,0.00573957,0\H,23,1.08434813,15,119.71220819,10,179.5072436
 8,0\H,25,1.08436328,16,119.73539424,10,179.53636455,0\H,27,1.08412515,
 17,120.21790854,11,179.98397203,0\C,30,1.39008059,21,120.18795226,13,-
 0.02169059,0\H,30,1.08435324,21,119.73787119,13,-179.52151214,0\H,32,1
 .0843543,22,119.737043,13,-179.52886928,0\H,34,1.08412314,23,120.22152
 803,15,179.98800213,0\H,38,1.08411439,30,120.21547163,21,-179.98600656
 ,0\\Version=ES64L-G16RevB.01\State=1-A\HF=-925.3108869\RMSD=8.635e-09\
 Dipole=-0.0077532,0.0007021,-0.000706\Quadrupole=3.0059211,-5.2346447,
 2.2287236,-3.046532,0.6878891,-4.58909\PG=C01 [X(C24H18)]\\@


 I DON'T EXACTLY UNDERSTAND WHAT YOU ARE SAYING,
 BUT YOU ARE ABSOLUTELY RIGHT.
     M.S.GORDON, IN A NDSU FACULTY MEETING
 Job cpu time:       0 days  1 hours 19 minutes 39.8 seconds.
 Elapsed time:       0 days  0 hours  2 minutes 31.2 seconds.
 File lengths (MBytes):  RWF=    224 Int=      0 D2E=      0 Chk=     26 Scr=      1
 Normal termination of Gaussian 16 at Mon Nov 14 15:07:03 2022.
