 Entering Gaussian System, Link 0=g16
 Input=_conf016.gjf
 Output=_conf016.log
 Initial command:
 /opt/ap/G16/B01/g16/l1.exe "/tmp2/scr/Gau-21289.inp" -scrdir="/tmp2/scr/"
 Entering Link 1 = /opt/ap/G16/B01/g16/l1.exe PID=     21290.
  
 Copyright (c) 1988-2017, Gaussian, Inc.  All Rights Reserved.
  
 This is part of the Gaussian(R) 16 program.  It is based on
 the Gaussian(R) 09 system (copyright 2009, Gaussian, Inc.),
 the Gaussian(R) 03 system (copyright 2003, Gaussian, Inc.),
 the Gaussian(R) 98 system (copyright 1998, Gaussian, Inc.),
 the Gaussian(R) 94 system (copyright 1995, Gaussian, Inc.),
 the Gaussian 92(TM) system (copyright 1992, Gaussian, Inc.),
 the Gaussian 90(TM) system (copyright 1990, Gaussian, Inc.),
 the Gaussian 88(TM) system (copyright 1988, Gaussian, Inc.),
 the Gaussian 86(TM) system (copyright 1986, Carnegie Mellon
 University), and the Gaussian 82(TM) system (copyright 1983,
 Carnegie Mellon University). Gaussian is a federally registered
 trademark of Gaussian, Inc.
  
 This software contains proprietary and confidential information,
 including trade secrets, belonging to Gaussian, Inc.
  
 This software is provided under written license and may be
 used, copied, transmitted, or stored only in accord with that
 written license.
  
 The following legend is applicable only to US Government
 contracts under FAR:
  
                    RESTRICTED RIGHTS LEGEND
  
 Use, reproduction and disclosure by the US Government is
 subject to restrictions as set forth in subparagraphs (a)
 and (c) of the Commercial Computer Software - Restricted
 Rights clause in FAR 52.227-19.
  
 Gaussian, Inc.
 340 Quinnipiac St., Bldg. 40, Wallingford CT 06492
  
  
 ---------------------------------------------------------------
 Warning -- This program may not be used in any manner that
 competes with the business of Gaussian, Inc. or will provide
 assistance to any competitor of Gaussian, Inc.  The licensee
 of this program is prohibited from giving any competitor of
 Gaussian, Inc. access to this program.  By using this program,
 the user acknowledges that Gaussian, Inc. is engaged in the
 business of creating and licensing software in the field of
 computational chemistry and represents and warrants to the
 licensee that it is not a competitor of Gaussian, Inc. and that
 it will not use this program in any manner prohibited above.
 ---------------------------------------------------------------
  

 Cite this work as:
 Gaussian 16, Revision B.01,
 M. J. Frisch, G. W. Trucks, H. B. Schlegel, G. E. Scuseria, 
 M. A. Robb, J. R. Cheeseman, G. Scalmani, V. Barone, 
 G. A. Petersson, H. Nakatsuji, X. Li, M. Caricato, A. V. Marenich, 
 J. Bloino, B. G. Janesko, R. Gomperts, B. Mennucci, H. P. Hratchian, 
 J. V. Ortiz, A. F. Izmaylov, J. L. Sonnenberg, D. Williams-Young, 
 F. Ding, F. Lipparini, F. Egidi, J. Goings, B. Peng, A. Petrone, 
 T. Henderson, D. Ranasinghe, V. G. Zakrzewski, J. Gao, N. Rega, 
 G. Zheng, W. Liang, M. Hada, M. Ehara, K. Toyota, R. Fukuda, 
 J. Hasegawa, M. Ishida, T. Nakajima, Y. Honda, O. Kitao, H. Nakai, 
 T. Vreven, K. Throssell, J. A. Montgomery, Jr., J. E. Peralta, 
 F. Ogliaro, M. J. Bearpark, J. J. Heyd, E. N. Brothers, K. N. Kudin, 
 V. N. Staroverov, T. A. Keith, R. Kobayashi, J. Normand, 
 K. Raghavachari, A. P. Rendell, J. C. Burant, S. S. Iyengar, 
 J. Tomasi, M. Cossi, J. M. Millam, M. Klene, C. Adamo, R. Cammi, 
 J. W. Ochterski, R. L. Martin, K. Morokuma, O. Farkas, 
 J. B. Foresman, and D. J. Fox, Gaussian, Inc., Wallingford CT, 2016.
 
 ******************************************
 Gaussian 16:  ES64L-G16RevB.01 20-Dec-2017
                14-Nov-2022 
 ******************************************
 %nprocshared=32
 Will use up to   32 processors via shared memory.
 %mem=120GB
 %chk=_conf016.chk
 ----------------------------------------
 #P wB97XD/6-311++G(d,p) scf=maxcycle=512
 ----------------------------------------
 1/38=1,172=1/1;
 2/12=2,17=6,18=5,40=1/2;
 3/5=4,6=6,7=1111,11=2,25=1,30=1,74=-58/1,2,3;
 4//1;
 5/5=2,7=512,38=5/2;
 6/7=2,8=2,9=2,10=2,28=1/1;
 99/5=1,9=1/99;
 Leave Link    1 at Mon Nov 14 15:12:07 2022, MaxMem= 16106127360 cpu:               2.6 elap:               0.1
 (Enter /opt/ap/G16/B01/g16/l101.exe)
 ----------------------------
 _conf016.gjf nmol_natom 1_42
 ----------------------------
 Symbolic Z-matrix:
 Charge =  0 Multiplicity = 1
 C
 C                    1     1.39413 
 C                    1     1.39435  2     118.86443 
 C                    2     1.39416  1     121.15295  3     0.03668  0
 H                    2     1.08488  1     119.42237  3    -179.97409  0
 C                    1     1.48467  2     120.55715  4     179.25839  0
 C                    3     1.39438  1     121.11776  2    -0.05351  0
 H                    3     1.08488  1     119.41869  2     177.23008  0
 C                    4     1.39432  2     118.86474  1     0.01008  0
 C                    4     1.48467  2     120.54642  1     179.19455  0
 C                    6     1.39685  1     120.78435  2    -10.      0
 C                    6     1.39687  1     120.67654  2     170.     0
 C                    7     1.4845   3     120.56497  1    -179.96326  0
 H                    9     1.08488  4     119.41825  2     177.22246  0
 C                    10    1.39685  4     120.76947  2    -42.52369  0
 C                    10    1.39686  4     120.69449  2     137.43108  0
 C                    11    1.38889  6     120.73801  1     179.94059  0
 H                    11    1.08476  6     119.46912  1    -1.41051  0
 C                    12    1.38882  6     120.76493  1    -179.95083  0
 H                    12    1.08483  6     119.44183  1    -1.23603  0
 C                    13    1.39683  7     120.74134  3     42.89023  0
 C                    13    1.39683  7     120.73791  3    -137.12494  0
 C                    15    1.38888  10    120.74219  4     179.94601  0
 H                    15    1.08476  10    119.47086  4    -1.40607  0
 C                    16    1.38886  10    120.76339  4    -179.95593  0
 H                    16    1.08483  10    119.44215  4    -1.2344   0
 C                    17    1.39008  11    120.20743  6     0.0035   0
 H                    17    1.08435  11    119.71319  6     179.50116  0
 H                    19    1.08436  12    119.73823  6     179.53684  0
 C                    21    1.38882  13    120.76699  7     179.99298  0
 H                    21    1.08479  13    119.43526  7     1.32183  0
 C                    22    1.38882  13    120.76647  7    -179.97118  0
 H                    22    1.0848   13    119.43204  7     1.34658  0
 C                    23    1.39007  15    120.20733  10    0.00574  0
 H                    23    1.08435  15    119.71221  10    179.50724  0
 H                    25    1.08436  16    119.73539  10    179.53636  0
 H                    27    1.08413  17    120.21791  11    179.98397  0
 C                    30    1.39008  21    120.18795  13   -0.02169  0
 H                    30    1.08435  21    119.73787  13   -179.52151  0
 H                    32    1.08435  22    119.73704  13   -179.52887  0
 H                    34    1.08412  23    120.22153  15    179.988  0
 H                    38    1.08411  30    120.21547  21   -179.98601  0
 
 ITRead=  0  0  0  0  0  0  0  0  0  0  0  0  0  0  0  0  0  0  0  0
 ITRead=  0  0  0  0  0  0  0  0  0  0  0  0  0  0  0  0  0  0  0  0
 ITRead=  0  0
 MicOpt= -1 -1 -1 -1 -1 -1 -1 -1 -1 -1 -1 -1 -1 -1 -1 -1 -1 -1 -1 -1
 MicOpt= -1 -1 -1 -1 -1 -1 -1 -1 -1 -1 -1 -1 -1 -1 -1 -1 -1 -1 -1 -1
 MicOpt= -1 -1
 NAtoms=     42 NQM=       42 NQMF=       0 NMMI=      0 NMMIF=      0
                NMic=       0 NMicF=      0.
                    Isotopes and Nuclear Properties:
 (Nuclear quadrupole moments (NQMom) in fm**2, nuclear magnetic moments (NMagM)
  in nuclear magnetons)

  Atom         1           2           3           4           5           6           7           8           9          10
 IAtWgt=          12          12          12          12           1          12          12           1          12          12
 AtmWgt=  12.0000000  12.0000000  12.0000000  12.0000000   1.0078250  12.0000000  12.0000000   1.0078250  12.0000000  12.0000000
 NucSpn=           0           0           0           0           1           0           0           1           0           0
 AtZEff=  -0.0000000  -0.0000000  -0.0000000  -0.0000000  -0.0000000  -0.0000000  -0.0000000  -0.0000000  -0.0000000  -0.0000000
 NQMom=    0.0000000   0.0000000   0.0000000   0.0000000   0.0000000   0.0000000   0.0000000   0.0000000   0.0000000   0.0000000
 NMagM=    0.0000000   0.0000000   0.0000000   0.0000000   2.7928460   0.0000000   0.0000000   2.7928460   0.0000000   0.0000000
 AtZNuc=   6.0000000   6.0000000   6.0000000   6.0000000   1.0000000   6.0000000   6.0000000   1.0000000   6.0000000   6.0000000

  Atom        11          12          13          14          15          16          17          18          19          20
 IAtWgt=          12          12          12           1          12          12          12           1          12           1
 AtmWgt=  12.0000000  12.0000000  12.0000000   1.0078250  12.0000000  12.0000000  12.0000000   1.0078250  12.0000000   1.0078250
 NucSpn=           0           0           0           1           0           0           0           1           0           1
 AtZEff=  -0.0000000  -0.0000000  -0.0000000  -0.0000000  -0.0000000  -0.0000000  -0.0000000  -0.0000000  -0.0000000  -0.0000000
 NQMom=    0.0000000   0.0000000   0.0000000   0.0000000   0.0000000   0.0000000   0.0000000   0.0000000   0.0000000   0.0000000
 NMagM=    0.0000000   0.0000000   0.0000000   2.7928460   0.0000000   0.0000000   0.0000000   2.7928460   0.0000000   2.7928460
 AtZNuc=   6.0000000   6.0000000   6.0000000   1.0000000   6.0000000   6.0000000   6.0000000   1.0000000   6.0000000   1.0000000

  Atom        21          22          23          24          25          26          27          28          29          30
 IAtWgt=          12          12          12           1          12           1          12           1           1          12
 AtmWgt=  12.0000000  12.0000000  12.0000000   1.0078250  12.0000000   1.0078250  12.0000000   1.0078250   1.0078250  12.0000000
 NucSpn=           0           0           0           1           0           1           0           1           1           0
 AtZEff=  -0.0000000  -0.0000000  -0.0000000  -0.0000000  -0.0000000  -0.0000000  -0.0000000  -0.0000000  -0.0000000  -0.0000000
 NQMom=    0.0000000   0.0000000   0.0000000   0.0000000   0.0000000   0.0000000   0.0000000   0.0000000   0.0000000   0.0000000
 NMagM=    0.0000000   0.0000000   0.0000000   2.7928460   0.0000000   2.7928460   0.0000000   2.7928460   2.7928460   0.0000000
 AtZNuc=   6.0000000   6.0000000   6.0000000   1.0000000   6.0000000   1.0000000   6.0000000   1.0000000   1.0000000   6.0000000

  Atom        31          32          33          34          35          36          37          38          39          40
 IAtWgt=           1          12           1          12           1           1           1          12           1           1
 AtmWgt=   1.0078250  12.0000000   1.0078250  12.0000000   1.0078250   1.0078250   1.0078250  12.0000000   1.0078250   1.0078250
 NucSpn=           1           0           1           0           1           1           1           0           1           1
 AtZEff=  -0.0000000  -0.0000000  -0.0000000  -0.0000000  -0.0000000  -0.0000000  -0.0000000  -0.0000000  -0.0000000  -0.0000000
 NQMom=    0.0000000   0.0000000   0.0000000   0.0000000   0.0000000   0.0000000   0.0000000   0.0000000   0.0000000   0.0000000
 NMagM=    2.7928460   0.0000000   2.7928460   0.0000000   2.7928460   2.7928460   2.7928460   0.0000000   2.7928460   2.7928460
 AtZNuc=   1.0000000   6.0000000   1.0000000   6.0000000   1.0000000   1.0000000   1.0000000   6.0000000   1.0000000   1.0000000

  Atom        41          42
 IAtWgt=           1           1
 AtmWgt=   1.0078250   1.0078250
 NucSpn=           1           1
 AtZEff=  -0.0000000  -0.0000000
 NQMom=    0.0000000   0.0000000
 NMagM=    2.7928460   2.7928460
 AtZNuc=   1.0000000   1.0000000
 Leave Link  101 at Mon Nov 14 15:12:08 2022, MaxMem= 16106127360 cpu:               5.6 elap:               0.2
 (Enter /opt/ap/G16/B01/g16/l202.exe)
                          Input orientation:                          
 ---------------------------------------------------------------------
 Center     Atomic      Atomic             Coordinates (Angstroms)
 Number     Number       Type             X           Y           Z
 ---------------------------------------------------------------------
      1          6           0        0.000000    0.000000    0.000000
      2          6           0        0.000000    0.000000    1.394128
      3          6           0        1.221126    0.000000   -0.673109
      4          6           0        1.193108    0.000764    2.115362
      5          1           0       -0.944957   -0.000427    1.927071
      6          6           0       -1.278366   -0.017366   -0.754803
      7          6           0        2.428476    0.001115    0.024455
      8          1           0        1.232154   -0.045667   -1.756969
      9          6           0        2.400843    0.001752    1.418572
     10          6           0        1.177445    0.018728    3.599837
     11          6           0       -2.491881   -0.242254   -0.100590
     12          6           0       -1.293388    0.191069   -2.135951
     13          6           0        3.721572    0.001921   -0.704680
     14          1           0        3.334061    0.048144    1.969857
     15          6           0        0.290794    0.844275    4.295193
     16          6           0        2.049080   -0.790881    4.331965
     17          6           0       -3.687340   -0.257080   -0.807465
     18          1           0       -2.495507   -0.428735    0.968019
     19          6           0       -2.488261    0.176218   -2.843689
     20          1           0       -0.361634    0.387127   -2.655803
     21          6           0        3.910862    0.818865   -1.821777
     22          6           0        4.776237   -0.814044   -0.288725
     23          6           0        0.275860    0.859807    5.683909
     24          1           0       -0.377402    1.495584    3.742000
     25          6           0        2.035025   -0.775886    5.720674
     26          1           0        2.729408   -1.453102    3.807101
     27          6           0       -3.689970   -0.047222   -2.181609
     28          1           0       -4.618971   -0.441301   -0.284070
     29          1           0       -2.481373    0.347443   -3.914421
     30          6           0        5.120444    0.820149   -2.504230
     31          1           0        3.109266    1.474569   -2.144691
     32          6           0        5.986440   -0.813321   -0.970068
     33          1           0        4.638168   -1.470412    0.563864
     34          6           0        1.147946    0.049642    6.401818
     35          1           0       -0.413890    1.513063    6.206701
     36          1           0        2.713797   -1.416787    6.272362
     37          1           0       -4.622984   -0.059017   -2.733582
     38          6           0        6.162883    0.003944   -2.080611
     39          1           0        5.251831    1.466740   -3.364741
     40          1           0        6.791448   -1.459089   -0.637249
     41          1           0        1.136620    0.061726    7.485815
     42          1           0        7.107346    0.004761   -2.612865
 ---------------------------------------------------------------------
                    Distance matrix (angstroms):
                    1          2          3          4          5
     1  C    0.000000
     2  C    1.394128   0.000000
     3  C    1.394354   2.400962   0.000000
     4  C    2.428634   1.394161   2.788612   0.000000
     5  H    2.146287   1.084884   3.384206   2.146341   0.000000
     6  C    1.484671   2.500485   2.500887   3.787659   2.702572
     7  C    2.428599   2.788100   1.394378   2.428585   3.872983
     8  H    2.146445   3.383741   1.084878   3.872806   4.279487
     9  C    2.788619   2.400968   2.401430   1.394324   3.384222
    10  C    3.787552   2.500376   4.273210   1.484666   2.702426
    11  C    2.505649   2.915878   3.764690   4.306814   2.561808
    12  C    2.504326   3.764415   2.915338   4.928746   4.082428
    13  C    3.787700   4.272598   2.500646   3.787581   5.357482
    14  H    3.872805   3.383747   3.384092   2.146415   4.279508
    15  C    4.387032   3.035381   5.124680   2.505463   2.801537
    16  C    4.856969   3.668120   5.134371   2.504540   3.920790
    17  C    3.783460   4.302276   4.917030   5.694574   3.881265
    18  H    2.710799   2.567672   4.085398   3.886740   1.872814
    19  C    3.782732   4.917478   4.301397   6.178628   5.017284
    20  H    2.708124   4.084432   2.566334   5.032942   4.636075
    21  C    4.391384   5.129076   3.037212   4.853507   6.189029
    22  C    4.853707   5.129045   3.667320   4.391169   6.189006
    23  C    5.755188   4.383786   6.484171   3.783362   4.042800
    24  H    4.047440   2.809218   4.928007   2.710524   2.419532
    25  C    6.121229   4.843792   6.491910   3.782894   4.886007
    26  H    4.904609   3.922195   4.945574   2.708491   4.375585
    27  C    4.286902   5.138483   5.137768   6.504668   4.941511
    28  H    4.648692   4.934166   5.869654   6.303408   4.310672
    29  H    4.647647   5.870147   4.933085   7.069673   6.050175
    30  C    5.758711   6.487587   4.385239   6.118495   7.556379
    31  H    4.054822   4.936104   2.811579   4.898143   5.932249
    32  C    6.118822   6.487555   4.843334   5.758354   7.556353
    33  H    4.898230   4.935996   3.920254   4.054620   5.932156
    34  C    6.504116   5.137821   7.075480   4.286973   4.940255
    35  H    6.401859   5.061770   7.231488   4.648499   4.570330
    36  H    6.979577   5.759266   7.243957   4.647859   5.854410
    37  H    5.371027   6.197858   6.196987   7.572499   5.937423
    38  C    6.504621   7.074953   5.138292   6.504219   8.159837
    39  H    6.407382   7.237395   5.063871   6.975231   8.279857
    40  H    6.975586   7.237348   5.758361   6.406985   8.279819
    41  H    7.571865   6.197125   8.159595   5.371096   5.936031
    42  H    7.572414   8.159067   6.197601   7.571945   9.243951
                    6          7          8          9         10
     6  C    0.000000
     7  C    3.787910   0.000000
     8  H    2.703303   2.146356   0.000000
     9  C    4.273231   1.394392   3.384102   0.000000
    10  C    4.999520   3.787973   5.357472   2.500981   0.000000
    11  C    1.396850   4.927959   4.080524   5.128952   5.217780
    12  C    1.396868   4.307634   2.564768   5.130090   6.247718
    13  C    5.000226   1.484499   2.703105   2.500505   5.000173
    14  H    5.357476   2.146366   4.279725   1.084879   2.703459
    15  C    5.357906   4.849723   6.189251   3.665665   1.396854
    16  C    6.127433   4.396117   6.188524   3.039714   1.396863
    17  C    2.421445   6.177537   5.014746   6.487543   6.570123
    18  H    2.149133   5.031967   4.633331   4.935845   4.540624
    19  C    2.421728   5.694840   3.882225   6.488501   7.414933
    20  H    2.148909   3.888123   1.880258   4.937644   6.452713
    21  C    5.363376   2.504946   2.815510   3.667109   6.124188
    22  C    6.124553   2.504906   3.912375   3.036921   5.363369
    23  C    6.681472   6.115597   7.556523   4.841994   2.421492
    24  H    4.829285   4.891475   5.933362   3.917716   2.149154
    25  C    7.313393   5.762417   7.555989   4.387097   2.421736
    26  H    6.239756   4.063707   5.931401   2.815959   2.148914
    27  C    2.802231   6.504186   4.940407   7.075430   7.557857
    28  H    3.400141   7.068057   6.046621   7.236925   6.992482
    29  H    3.400515   6.304070   4.312704   7.238533   8.364155
    30  C    6.686306   3.783088   4.053003   4.842972   7.310892
    31  H    4.838282   2.709194   2.446425   3.920191   6.233057
    32  C    7.311449   3.783053   4.879728   4.384797   6.686012
    33  H    6.233426   2.709077   4.360860   2.811302   4.838519
    34  C    7.557031   6.504835   8.159779   5.138559   2.802307
    35  H    7.179977   6.970308   8.280044   5.756123   3.400165
    36  H    8.202243   6.413127   8.279214   5.066504   3.400510
    37  H    3.886356   7.571886   5.936041   8.159547   8.588551
    38  C    7.558466   4.286853   4.941589   5.137824   7.557929
    39  H    7.187337   4.648230   4.585860   5.757987   8.197725
    40  H    8.198432   4.648180   5.844424   5.063385   7.187062
    41  H    8.587561   7.572613   9.243902   6.197846   3.886431
    42  H    8.589123   5.370968   5.937422   6.197069   8.588456
                   11         12         13         14         15
    11  C    0.000000
    12  C    2.401427   0.000000
    13  C    6.247523   5.218634   0.000000
    14  H    6.189724   6.188003   2.702860   0.000000
    15  C    5.314766   6.655519   6.121971   3.911840   0.000000
    16  C    6.369369   7.346446   5.365963   2.816859   2.401387
    17  C    1.388889   2.774296   7.414150   7.556901   6.563204
    18  H    1.084764   3.385835   6.452554   5.934219   4.522623
    19  C    2.774838   1.388824   6.570217   7.555532   7.689804
    20  H    3.385733   1.084828   4.541787   5.930413   6.996499
    21  C    6.714431   5.251386   1.396829   3.911930   7.107943
    22  C    7.293003   6.423617   1.396832   2.815037   6.624314
    23  C    6.506563   8.003747   7.309101   4.879095   1.388883
    24  H    4.717690   6.090247   6.229413   4.360107   1.084763
    25  C    7.393562   8.587194   6.688393   4.054029   2.774755
    26  H    6.633104   7.362476   4.843310   2.448430   3.385708
    27  C    2.409169   2.408832   7.557426   8.159704   7.654425
    28  H    2.144247   3.858608   8.362895   8.280729   6.835799
    29  H    3.859166   2.144462   6.992735   8.278502   8.679258
    30  C    8.053178   6.455123   2.421718   4.878996   8.340159
    31  H    6.204730   4.585936   2.148776   4.360587   7.057844
    32  C    8.541899   7.440698   2.421709   4.052208   7.931644
    33  H    7.265499   6.725540   2.148749   2.446125   6.179018
    34  C    7.457537   8.881082   7.558317   4.941800   2.409154
    35  H    6.868850   8.492410   8.194680   5.843284   2.144229
    36  H    8.312228   9.452114   7.190790   4.587189   3.859086
    37  H    3.392317   3.392036   8.587884   9.243829   8.623504
    38  C    8.881782   7.458825   2.802355   4.940696   8.708529
    39  H    8.575571   6.780646   3.400487   5.843645   9.147346
    40  H    9.378107   8.386520   3.400476   4.585006   8.478973
    41  H    8.414984   9.924719   8.588933   5.937569   3.392325
    42  H    9.925608   8.416323   3.886469   5.936405   9.741223
                   16         17         18         19         20
    16  C    0.000000
    17  C    7.720440   0.000000
    18  H    5.665735   2.145291   0.000000
    19  C    8.544750   2.402446   3.859422   0.000000
    20  H    7.485195   3.858974   4.283822   2.145303   0.000000
    21  C    6.627673   7.740747   7.097960   6.511995   4.374497
    22  C    5.365510   8.497732   7.389597   7.764109   5.783044
    23  C    2.774316   7.687153   5.619647   8.990416   8.377387
    24  H    3.385823   5.892805   3.985517   7.040437   6.493135
    25  C    1.388861   8.696621   6.575254   9.732160   8.789877
    26  H    1.084834   7.993707   6.034025   8.608819   7.396628
    27  C    8.713000   1.390079   3.390052   1.390101   3.389888
    28  H    8.117444   1.084351   2.465154   3.387168   4.943312
    29  H    9.477536   3.387180   4.943772   1.084359   2.465561
    30  C    7.665654   9.034185   8.462797   7.643446   5.501242
    31  H    6.942862   7.140072   6.687676   5.788490   3.672997
    32  C    6.604154   9.691123   8.709047   8.735570   6.676887
    33  H    4.622091   8.524483   7.220648   8.069002   6.230147
    34  C    2.408903   8.686071   6.559708   9.935664   9.188756
    35  H    3.858628   7.940239   5.962172   9.380817   8.933892
    36  H    2.144469   9.614750   7.499943  10.616094   9.613766
    37  H    9.745461   2.150485   4.285405   2.150465   4.285346
    38  C    7.660043   9.935590   9.189618   8.686441   6.561022
    39  H    8.636768   9.456215   9.076722   7.864220   5.760134
    40  H    6.901424  10.548877   9.480825   9.677582   7.658307
    41  H    3.392092   9.599516   7.477604  10.947672  10.256854
    42  H    8.628428  10.947752  10.257945   9.599913   7.478884
                   21         22         23         24         25
    21  C    0.000000
    22  C    2.401148   0.000000
    23  C    8.339678   7.663388   0.000000
    24  H    7.057108   6.938381   2.145221   0.000000
    25  C    7.934139   6.605193   2.402396   3.859344   0.000000
    26  H    6.184005   4.623169   3.858996   4.283837   2.145356
    27  C    7.658475   8.709058   8.855331   6.960065   9.785326
    28  H    8.758460   9.402601   7.827453   6.160493   8.969089
    29  H    6.742557   8.195587   9.999640   8.022824  10.700224
    30  C    1.388824   2.774442   9.514051   8.348527   8.928391
    31  H    1.084794   3.385432   8.348239   6.841814   8.251212
    32  C    2.774430   1.388819   8.926672   8.248218   7.770528
    33  H    3.385417   1.084800   7.118603   6.637291   5.818196
    34  C    8.709358   7.659884   1.390070   3.389995   1.390095
    35  H    9.145591   8.633852   1.084348   2.465033   3.387137
    36  H    8.482109   6.903971   3.387136   4.943698   1.084363
    37  H    8.627200   9.741291   9.782487   7.897778  10.785056
    38  C    2.408878   2.408889   9.781478   8.882743   8.860440
    39  H    2.144453   3.858761  10.344405   9.066139   9.895553
    40  H    3.858751   2.144441   9.369482   8.905073   7.969536
    41  H    9.741711   8.628862   2.150513   4.285366   2.150453
    42  H    3.392063   3.392069  10.781315   9.931179   9.787018
                   26         27         28         29         30
    26  H    0.000000
    27  C    8.890982   0.000000
    28  H    8.471133   2.149185   0.000000
    29  H    9.487682   2.149210   4.286129   0.000000
    30  C    7.121630   8.858883  10.068593   7.745948   0.000000
    31  H    6.643746   6.967555   8.176681   5.971399   2.145313
    32  C    5.817122   9.782006  10.634084   9.039936   2.402462
    33  H    3.763276   8.883748   9.352684   8.605086   3.859075
    34  C    3.389959   9.853428   8.843046  10.940084   9.782234
    35  H    4.943333   9.139526   7.976989  10.395685  10.343562
    36  H    2.465578  10.693622   9.884728  11.570344   9.371467
    37  H    9.938897   1.084125   2.479166   2.479130   9.785699
    38  C    6.969712   9.853504  10.939570   8.843304   1.390081
    39  H    8.143918   9.145911  10.514937   7.833098   1.084353
    40  H    6.021000  10.688243  11.461165   9.999432   3.387152
    41  H    4.285396  10.805874   9.682508  11.963983  10.781792
    42  H    7.906179  10.806050  11.963644   9.682717   2.150451
                   31         32         33         34         35
    31  H    0.000000
    32  C    3.859055   0.000000
    33  H    4.283308   2.145356   0.000000
    34  C    8.883693   8.860047   6.969499   0.000000
    35  H    9.064207   9.893547   8.140394   2.149187   0.000000
    36  H    8.908597   7.970392   6.024369   2.149200   4.286112
    37  H    7.904831  10.781411   9.931471  10.806062  10.005826
    38  C    3.389900   1.390094   3.389946   9.854100  10.686951
    39  H    2.465597   3.387150   4.943418  10.688111  11.122726
    40  H    4.943399   1.084354   2.465647   9.147341  10.372571
    41  H    9.931470   9.787155   7.907066   1.084123   2.479233
    42  H    4.285343   2.150458   4.285392  10.806525  11.688828
                   36         37         38         39         40
    36  H    0.000000
    37  H   11.695251   0.000000
    38  C    9.148051  10.805798   0.000000
    39  H   10.374492  10.011906   2.149134   0.000000
    40  H    8.023201  11.689485   2.149152   4.286037   0.000000
    41  H    2.479104  11.731312  10.806626  11.689465  10.013697
    42  H   10.013557  11.731124   1.084114   2.479039   2.479054
                   41         42
    41  H    0.000000
    42  H   11.731844   0.000000
 Stoichiometry    C24H18
 Framework group  C1[X(C24H18)]
 Deg. of freedom   120
 Full point group                 C1      NOp   1
 Largest Abelian subgroup         C1      NOp   1
 Largest concise Abelian subgroup C1      NOp   1
                         Standard orientation:                         
 ---------------------------------------------------------------------
 Center     Atomic      Atomic             Coordinates (Angstroms)
 Number     Number       Type             X           Y           Z
 ---------------------------------------------------------------------
      1          6           0        0.018919    1.401327   -0.040445
      2          6           0       -1.190770    0.708737   -0.016660
      3          6           0        1.209962    0.676490   -0.024607
      4          6           0       -1.223526   -0.684471    0.023103
      5          1           0       -2.122917    1.263642   -0.029138
      6          6           0        0.038362    2.884705   -0.099284
      7          6           0        1.204825   -0.717304    0.015421
      8          1           0        2.155744    1.204102   -0.088501
      9          6           0       -0.018588   -1.385901    0.039225
     10          6           0       -2.519328   -1.407858    0.066035
     11          6           0       -1.133331    3.606055   -0.340073
     12          6           0        1.230089    3.589691    0.085169
     13          6           0        2.480260   -1.476714    0.032720
     14          1           0       -0.032893   -2.467974    0.115884
     15          6           0       -3.560377   -0.961175    0.883281
     16          6           0       -2.724317   -2.550231   -0.711261
     17          6           0       -1.114255    4.993777   -0.393700
     18          1           0       -2.063055    3.073123   -0.508330
     19          6           0        1.250205    4.977333    0.031515
     20          1           0        2.145035    3.045193    0.293128
     21          6           0        3.546667   -1.063158    0.834517
     22          6           0        2.640571   -2.620958   -0.752229
     23          6           0       -4.772735   -1.637689    0.922165
     24          1           0       -3.410111   -0.088578    1.509944
     25          6           0       -3.936234   -3.227519   -0.672894
     26          1           0       -1.933159   -2.898087   -1.366952
     27          6           0        0.077560    5.684574   -0.207428
     28          1           0       -2.032170    5.536738   -0.589764
     29          1           0        2.183337    5.508064    0.184560
     30          6           0        4.740084   -1.773303    0.851221
     31          1           0        3.430826   -0.189124    1.466517
     32          6           0        3.833331   -3.332209   -0.736053
     33          1           0        1.829729   -2.943061   -1.396881
     34          6           0       -4.965164   -2.773405    0.144081
     35          1           0       -5.566811   -1.280880    1.568649
     36          1           0       -4.079899   -4.108251   -1.288941
     37          1           0        0.092692    6.767776   -0.249510
     38          6           0        4.887668   -2.910756    0.065890
     39          1           0        5.554443   -1.441741    1.485814
     40          1           0        3.942310   -4.213846   -1.357876
     41          1           0       -5.911337   -3.301762    0.174400
     42          1           0        5.818973   -3.465562    0.078757
 ---------------------------------------------------------------------
 Rotational constants (GHZ):           0.2005549           0.1977257           0.1029395
 Leave Link  202 at Mon Nov 14 15:12:08 2022, MaxMem= 16106127360 cpu:               2.0 elap:               0.1
 (Enter /opt/ap/G16/B01/g16/l301.exe)
 Standard basis: 6-311++G(d,p) (5D, 7F)
 Ernie: Thresh=  0.10000D-02 Tol=  0.10000D-05 Strict=F.
 There are   678 symmetry adapted cartesian basis functions of A   symmetry.
 There are   654 symmetry adapted basis functions of A   symmetry.
   654 basis functions,  1026 primitive gaussians,   678 cartesian basis functions
    81 alpha electrons       81 beta electrons
       nuclear repulsion energy      1734.4480411970 Hartrees.
 IExCor= 4639 DFT=T Ex+Corr=wB97XD ExCW=0 ScaHFX=  1.000000
 ScaDFX=  1.000000  1.000000  1.000000  1.000000 ScalE2=  1.000000  1.000000
 IRadAn=      5 IRanWt=     -1 IRanGd=            0 ICorTp=0 IEmpDi=121
 HFx  wShort=  0.000000 wLong=  0.200000 cFull=  0.222036 cShort=  0.000000 cLong=  0.777964
 DFx  wShort=  0.000000 wLong=  0.200000 cFull=  0.000000 cShort=  0.000000 cLong=  1.000000
 NAtoms=   42 NActive=   42 NUniq=   42 SFac= 1.00D+00 NAtFMM=   60 NAOKFM=F Big=F
 Integral buffers will be    131072 words long.
 Raffenetti 2 integral format.
 Two-electron integral symmetry is turned on.
 R6Disp:  Grimme-D2 Dispersion energy=       -0.0287351815 Hartrees.
 Nuclear repulsion after empirical dispersion term =     1734.4193060155 Hartrees.
 Leave Link  301 at Mon Nov 14 15:12:08 2022, MaxMem= 16106127360 cpu:               1.2 elap:               0.0
 (Enter /opt/ap/G16/B01/g16/l302.exe)
 NPDir=0 NMtPBC=     1 NCelOv=     1 NCel=       1 NClECP=     1 NCelD=      1
         NCelK=      1 NCelE2=     1 NClLst=     1 CellRange=     0.0.
 One-electron integrals computed using PRISM.
 One-electron integral symmetry used in STVInt
 NBasis=   654 RedAO= T EigKep=  1.02D-06  NBF=   654
 NBsUse=   645 1.00D-06 EigRej=  6.62D-07 NBFU=   645
 Precomputing XC quadrature grid using
 IXCGrd= 4 IRadAn=           5 IRanWt=          -1 IRanGd=           0 AccXCQ= 0.00D+00.
 Generated NRdTot=       0 NPtTot=           0 NUsed=           0 NTot=          32
 NSgBfM=   669   669   669   669   669 MxSgAt=    42 MxSgA2=    42.
 Leave Link  302 at Mon Nov 14 15:12:08 2022, MaxMem= 16106127360 cpu:              21.0 elap:               0.7
 (Enter /opt/ap/G16/B01/g16/l303.exe)
 DipDrv:  MaxL=1.
 Leave Link  303 at Mon Nov 14 15:12:08 2022, MaxMem= 16106127360 cpu:               2.8 elap:               0.1
 (Enter /opt/ap/G16/B01/g16/l401.exe)
 ExpMin= 3.60D-02 ExpMax= 4.56D+03 ExpMxC= 6.82D+02 IAcc=3 IRadAn=         5 AccDes= 0.00D+00
 Harris functional with IExCor= 4639 and IRadAn=       5 diagonalized for initial guess.
 HarFok:  IExCor= 4639 AccDes= 0.00D+00 IRadAn=         5 IDoV= 1 UseB2=F ITyADJ=14
 ICtDFT=  3500011 ScaDFX=  1.000000  1.000000  1.000000  1.000000
 FoFCou: FMM=F IPFlag=           0 FMFlag=      100000 FMFlg1=           0
         NFxFlg=           0 DoJE=T BraDBF=F KetDBF=T FulRan=T
         wScrn=  0.000000 ICntrl=       500 IOpCl=  0 I1Cent=   200000004 NGrid=           0
         NMat0=    1 NMatS0=      1 NMatT0=    0 NMatD0=    1 NMtDS0=    0 NMtDT0=    0
 Petite list used in FoFCou.
 Harris En= -882.963790285350    
 JPrj=0 DoOrth=F DoCkMO=F.
 Leave Link  401 at Mon Nov 14 15:12:10 2022, MaxMem= 16106127360 cpu:              55.3 elap:               1.7
 (Enter /opt/ap/G16/B01/g16/l502.exe)
 Integral symmetry usage will be decided dynamically.
 Closed shell SCF:
 Using DIIS extrapolation, IDIIS=  1040.
 NGot= 16106127360 LenX= 16105179956 LenY= 16104719594
 Requested convergence on RMS density matrix=1.00D-08 within 512 cycles.
 Requested convergence on MAX density matrix=1.00D-06.
 Requested convergence on             energy=1.00D-06.
 No special actions if energy rises.
 Fock matrices will be formed incrementally for  20 cycles.

 Cycle   1  Pass 1  IDiag  1:
 FoFJK:  IHMeth= 1 ICntrl=       0 DoSepK=T KAlg= 0 I1Cent=           0 FoldK=F
 IRaf=         1 NMat=       1 IRICut=       1 DoRegI=T DoRafI=F ISym2E= 0 IDoP0=0 IntGTp=1.
 FoFCou: FMM=F IPFlag=           0 FMFlag=      100000 FMFlg1=           0
         NFxFlg=           0 DoJE=T BraDBF=F KetDBF=F FulRan=T
         wScrn=  0.000000 ICntrl=       500 IOpCl=  0 I1Cent=           0 NGrid=           0
         NMat0=    1 NMatS0=      1 NMatT0=    0 NMatD0=    1 NMtDS0=    0 NMtDT0=    0
 Symmetry not used in FoFCou.
 E= -925.111362961782    
 DIIS: error= 5.70D-02 at cycle   1 NSaved=   1.
 NSaved= 1 IEnMin= 1 EnMin= -925.111362961782     IErMin= 1 ErrMin= 5.70D-02
 ErrMax= 5.70D-02  0.00D+00 EMaxC= 1.00D-01 BMatC= 1.90D+00 BMatP= 1.90D+00
 IDIUse=3 WtCom= 4.30D-01 WtEn= 5.70D-01
 Coeff-Com:  0.100D+01
 Coeff-En:   0.100D+01
 Coeff:      0.100D+01
 Gap=     0.304 Goal=   None    Shift=    0.000
 GapD=    0.304 DampG=1.000 DampE=0.500 DampFc=0.5000 IDamp=-1.
 Damping current iteration by 5.00D-01
 RMSDP=4.54D-02 MaxDP=6.24D+00              OVMax= 4.47D-02

 Cycle   2  Pass 1  IDiag  1:
 RMSU=  7.49D-03    CP:  8.04D-01
 E= -925.210335321976     Delta-E=       -0.098972360195 Rises=F Damp=T
 DIIS: error= 2.77D-02 at cycle   2 NSaved=   2.
 NSaved= 2 IEnMin= 2 EnMin= -925.210335321976     IErMin= 2 ErrMin= 2.77D-02
 ErrMax= 2.77D-02  0.00D+00 EMaxC= 1.00D-01 BMatC= 4.32D-01 BMatP= 1.90D+00
 IDIUse=3 WtCom= 7.23D-01 WtEn= 2.77D-01
 Coeff-Com: -0.883D+00 0.188D+01
 Coeff-En:   0.000D+00 0.100D+01
 Coeff:     -0.638D+00 0.164D+01
 Gap=     0.312 Goal=   None    Shift=    0.000
 RMSDP=2.69D-02 MaxDP=3.11D+00 DE=-9.90D-02 OVMax= 3.28D-02

 Cycle   3  Pass 1  IDiag  1:
 RMSU=  4.88D-03    CP:  5.64D-01  1.36D+00
 E= -925.300126503592     Delta-E=       -0.089791181616 Rises=F Damp=F
 DIIS: error= 2.77D-03 at cycle   3 NSaved=   3.
 NSaved= 3 IEnMin= 3 EnMin= -925.300126503592     IErMin= 3 ErrMin= 2.77D-03
 ErrMax= 2.77D-03  0.00D+00 EMaxC= 1.00D-01 BMatC= 7.63D-03 BMatP= 4.32D-01
 IDIUse=3 WtCom= 9.72D-01 WtEn= 2.77D-02
 Coeff-Com: -0.353D+00 0.750D+00 0.602D+00
 Coeff-En:   0.000D+00 0.000D+00 0.100D+01
 Coeff:     -0.343D+00 0.730D+00 0.613D+00
 Gap=     0.310 Goal=   None    Shift=    0.000
 RMSDP=2.54D-03 MaxDP=2.62D-01 DE=-8.98D-02 OVMax= 1.85D-02

 Cycle   4  Pass 1  IDiag  1:
 RMSU=  1.96D-03    CP:  5.58D-01  1.48D+00  7.57D-01
 E= -925.307063696389     Delta-E=       -0.006937192798 Rises=F Damp=F
 DIIS: error= 7.98D-04 at cycle   4 NSaved=   4.
 NSaved= 4 IEnMin= 4 EnMin= -925.307063696389     IErMin= 4 ErrMin= 7.98D-04
 ErrMax= 7.98D-04  0.00D+00 EMaxC= 1.00D-01 BMatC= 2.69D-04 BMatP= 7.63D-03
 IDIUse=3 WtCom= 9.92D-01 WtEn= 7.98D-03
 Coeff-Com: -0.108D+00 0.230D+00 0.241D+00 0.636D+00
 Coeff-En:   0.000D+00 0.000D+00 0.000D+00 0.100D+01
 Coeff:     -0.107D+00 0.228D+00 0.239D+00 0.639D+00
 Gap=     0.309 Goal=   None    Shift=    0.000
 RMSDP=7.96D-04 MaxDP=8.12D-02 DE=-6.94D-03 OVMax= 4.22D-03

 Cycle   5  Pass 1  IDiag  1:
 RMSU=  4.03D-04    CP:  5.55D-01  1.53D+00  7.51D-01  7.60D-01
 E= -925.307347630276     Delta-E=       -0.000283933887 Rises=F Damp=F
 DIIS: error= 1.97D-04 at cycle   5 NSaved=   5.
 NSaved= 5 IEnMin= 5 EnMin= -925.307347630276     IErMin= 5 ErrMin= 1.97D-04
 ErrMax= 1.97D-04  0.00D+00 EMaxC= 1.00D-01 BMatC= 2.04D-05 BMatP= 2.69D-04
 IDIUse=3 WtCom= 9.98D-01 WtEn= 1.97D-03
 Coeff-Com:  0.257D-01-0.549D-01-0.288D-01 0.194D+00 0.864D+00
 Coeff-En:   0.000D+00 0.000D+00 0.000D+00 0.000D+00 0.100D+01
 Coeff:      0.257D-01-0.548D-01-0.288D-01 0.193D+00 0.865D+00
 Gap=     0.310 Goal=   None    Shift=    0.000
 RMSDP=2.37D-04 MaxDP=1.78D-02 DE=-2.84D-04 OVMax= 1.62D-03

 Cycle   6  Pass 1  IDiag  1:
 RMSU=  7.77D-05    CP:  5.54D-01  1.53D+00  7.72D-01  8.29D-01  1.15D+00
 E= -925.307374272058     Delta-E=       -0.000026641781 Rises=F Damp=F
 DIIS: error= 5.62D-05 at cycle   6 NSaved=   6.
 NSaved= 6 IEnMin= 6 EnMin= -925.307374272058     IErMin= 6 ErrMin= 5.62D-05
 ErrMax= 5.62D-05  0.00D+00 EMaxC= 1.00D-01 BMatC= 1.39D-06 BMatP= 2.04D-05
 IDIUse=1 WtCom= 1.00D+00 WtEn= 0.00D+00
 Coeff-Com:  0.129D-01-0.275D-01-0.177D-01 0.535D-01 0.331D+00 0.648D+00
 Coeff:      0.129D-01-0.275D-01-0.177D-01 0.535D-01 0.331D+00 0.648D+00
 Gap=     0.310 Goal=   None    Shift=    0.000
 RMSDP=8.29D-05 MaxDP=9.62D-03 DE=-2.66D-05 OVMax= 3.99D-04

 Cycle   7  Pass 1  IDiag  1:
 RMSU=  4.78D-05    CP:  5.54D-01  1.52D+00  7.75D-01  8.60D-01  1.14D+00
                    CP:  9.98D-01
 E= -925.307375980153     Delta-E=       -0.000001708095 Rises=F Damp=F
 DIIS: error= 1.68D-05 at cycle   7 NSaved=   7.
 NSaved= 7 IEnMin= 7 EnMin= -925.307375980153     IErMin= 7 ErrMin= 1.68D-05
 ErrMax= 1.68D-05  0.00D+00 EMaxC= 1.00D-01 BMatC= 1.06D-07 BMatP= 1.39D-06
 IDIUse=1 WtCom= 1.00D+00 WtEn= 0.00D+00
 Coeff-Com: -0.233D-02 0.501D-02 0.238D-02-0.281D-01-0.103D+00 0.108D+00
 Coeff-Com:  0.102D+01
 Coeff:     -0.233D-02 0.501D-02 0.238D-02-0.281D-01-0.103D+00 0.108D+00
 Coeff:      0.102D+01
 Gap=     0.310 Goal=   None    Shift=    0.000
 RMSDP=2.30D-05 MaxDP=1.74D-03 DE=-1.71D-06 OVMax= 2.76D-04

 Cycle   8  Pass 1  IDiag  1:
 RMSU=  6.29D-06    CP:  5.54D-01  1.53D+00  7.77D-01  8.60D-01  1.17D+00
                    CP:  1.14D+00  1.16D+00
 E= -925.307376223188     Delta-E=       -0.000000243036 Rises=F Damp=F
 DIIS: error= 6.80D-06 at cycle   8 NSaved=   8.
 NSaved= 8 IEnMin= 8 EnMin= -925.307376223188     IErMin= 8 ErrMin= 6.80D-06
 ErrMax= 6.80D-06  0.00D+00 EMaxC= 1.00D-01 BMatC= 7.60D-09 BMatP= 1.06D-07
 IDIUse=1 WtCom= 1.00D+00 WtEn= 0.00D+00
 Coeff-Com: -0.118D-02 0.254D-02 0.140D-02-0.114D-01-0.439D-01 0.208D-01
 Coeff-Com:  0.312D+00 0.719D+00
 Coeff:     -0.118D-02 0.254D-02 0.140D-02-0.114D-01-0.439D-01 0.208D-01
 Coeff:      0.312D+00 0.719D+00
 Gap=     0.310 Goal=   None    Shift=    0.000
 RMSDP=3.75D-06 MaxDP=3.95D-04 DE=-2.43D-07 OVMax= 5.91D-05

 Cycle   9  Pass 1  IDiag  1:
 RMSU=  2.66D-06    CP:  5.54D-01  1.53D+00  7.77D-01  8.60D-01  1.17D+00
                    CP:  1.15D+00  1.19D+00  1.05D+00
 E= -925.307376234347     Delta-E=       -0.000000011159 Rises=F Damp=F
 DIIS: error= 4.19D-06 at cycle   9 NSaved=   9.
 NSaved= 9 IEnMin= 9 EnMin= -925.307376234347     IErMin= 9 ErrMin= 4.19D-06
 ErrMax= 4.19D-06  0.00D+00 EMaxC= 1.00D-01 BMatC= 2.12D-09 BMatP= 7.60D-09
 IDIUse=1 WtCom= 1.00D+00 WtEn= 0.00D+00
 Coeff-Com:  0.993D-04-0.217D-03 0.364D-04 0.262D-02 0.944D-02-0.173D-01
 Coeff-Com: -0.156D+00 0.325D+00 0.836D+00
 Coeff:      0.993D-04-0.217D-03 0.364D-04 0.262D-02 0.944D-02-0.173D-01
 Coeff:     -0.156D+00 0.325D+00 0.836D+00
 Gap=     0.310 Goal=   None    Shift=    0.000
 RMSDP=2.07D-06 MaxDP=1.68D-04 DE=-1.12D-08 OVMax= 4.28D-05

 Cycle  10  Pass 1  IDiag  1:
 RMSU=  7.15D-07    CP:  5.54D-01  1.53D+00  7.77D-01  8.60D-01  1.17D+00
                    CP:  1.15D+00  1.21D+00  1.26D+00  7.66D-01
 E= -925.307376238431     Delta-E=       -0.000000004084 Rises=F Damp=F
 DIIS: error= 1.13D-06 at cycle  10 NSaved=  10.
 NSaved=10 IEnMin=10 EnMin= -925.307376238431     IErMin=10 ErrMin= 1.13D-06
 ErrMax= 1.13D-06  0.00D+00 EMaxC= 1.00D-01 BMatC= 2.11D-10 BMatP= 2.12D-09
 IDIUse=1 WtCom= 1.00D+00 WtEn= 0.00D+00
 Coeff-Com:  0.117D-03-0.253D-03-0.708D-04 0.174D-02 0.628D-02-0.634D-02
 Coeff-Com: -0.763D-01 0.448D-01 0.322D+00 0.708D+00
 Coeff:      0.117D-03-0.253D-03-0.708D-04 0.174D-02 0.628D-02-0.634D-02
 Coeff:     -0.763D-01 0.448D-01 0.322D+00 0.708D+00
 Gap=     0.310 Goal=   None    Shift=    0.000
 RMSDP=4.76D-07 MaxDP=3.07D-05 DE=-4.08D-09 OVMax= 1.06D-05

 Cycle  11  Pass 1  IDiag  1:
 RMSU=  1.53D-07    CP:  5.54D-01  1.53D+00  7.77D-01  8.60D-01  1.17D+00
                    CP:  1.15D+00  1.21D+00  1.27D+00  8.93D-01  1.09D+00
 E= -925.307376238778     Delta-E=       -0.000000000347 Rises=F Damp=F
 DIIS: error= 1.95D-07 at cycle  11 NSaved=  11.
 NSaved=11 IEnMin=11 EnMin= -925.307376238778     IErMin=11 ErrMin= 1.95D-07
 ErrMax= 1.95D-07  0.00D+00 EMaxC= 1.00D-01 BMatC= 3.07D-11 BMatP= 2.11D-10
 IDIUse=1 WtCom= 1.00D+00 WtEn= 0.00D+00
 Coeff-Com:  0.208D-04-0.441D-04-0.205D-04 0.123D-03 0.272D-03 0.115D-02
 Coeff-Com:  0.125D-02-0.505D-01-0.292D-01 0.245D+00 0.832D+00
 Coeff:      0.208D-04-0.441D-04-0.205D-04 0.123D-03 0.272D-03 0.115D-02
 Coeff:      0.125D-02-0.505D-01-0.292D-01 0.245D+00 0.832D+00
 Gap=     0.310 Goal=   None    Shift=    0.000
 RMSDP=3.00D-07 MaxDP=2.58D-05 DE=-3.47D-10 OVMax= 3.33D-06

 Cycle  12  Pass 1  IDiag  1:
 RMSU=  7.07D-08    CP:  5.54D-01  1.53D+00  7.77D-01  8.60D-01  1.17D+00
                    CP:  1.15D+00  1.21D+00  1.28D+00  8.87D-01  1.26D+00
                    CP:  1.25D+00
 E= -925.307376238758     Delta-E=        0.000000000020 Rises=F Damp=F
 DIIS: error= 1.06D-07 at cycle  12 NSaved=  12.
 NSaved=12 IEnMin=11 EnMin= -925.307376238778     IErMin=12 ErrMin= 1.06D-07
 ErrMax= 1.06D-07  0.00D+00 EMaxC= 1.00D-01 BMatC= 1.41D-12 BMatP= 3.07D-11
 IDIUse=1 WtCom= 1.00D+00 WtEn= 0.00D+00
 Coeff-Com: -0.141D-04 0.305D-04 0.127D-04-0.220D-03-0.815D-03 0.999D-03
 Coeff-Com:  0.945D-02-0.777D-02-0.303D-01-0.631D-01-0.109D+00 0.120D+01
 Coeff:     -0.141D-04 0.305D-04 0.127D-04-0.220D-03-0.815D-03 0.999D-03
 Coeff:      0.945D-02-0.777D-02-0.303D-01-0.631D-01-0.109D+00 0.120D+01
 Gap=     0.310 Goal=   None    Shift=    0.000
 RMSDP=9.58D-08 MaxDP=6.42D-06 DE= 2.00D-11 OVMax= 1.66D-06

 Cycle  13  Pass 1  IDiag  1:
 RMSU=  2.99D-08    CP:  5.54D-01  1.53D+00  7.77D-01  8.60D-01  1.17D+00
                    CP:  1.15D+00  1.21D+00  1.28D+00  8.86D-01  1.31D+00
                    CP:  1.34D+00  1.44D+00
 E= -925.307376238783     Delta-E=       -0.000000000025 Rises=F Damp=F
 DIIS: error= 2.92D-08 at cycle  13 NSaved=  13.
 NSaved=13 IEnMin=13 EnMin= -925.307376238783     IErMin=13 ErrMin= 2.92D-08
 ErrMax= 2.92D-08  0.00D+00 EMaxC= 1.00D-01 BMatC= 1.11D-13 BMatP= 1.41D-12
 IDIUse=1 WtCom= 1.00D+00 WtEn= 0.00D+00
 Coeff-Com: -0.242D-05 0.518D-05 0.272D-05-0.273D-04-0.883D-04 0.460D-04
 Coeff-Com:  0.752D-03 0.168D-02-0.248D-03-0.166D-01-0.776D-01 0.125D+00
 Coeff-Com:  0.967D+00
 Coeff:     -0.242D-05 0.518D-05 0.272D-05-0.273D-04-0.883D-04 0.460D-04
 Coeff:      0.752D-03 0.168D-02-0.248D-03-0.166D-01-0.776D-01 0.125D+00
 Coeff:      0.967D+00
 Gap=     0.310 Goal=   None    Shift=    0.000
 RMSDP=3.20D-08 MaxDP=2.98D-06 DE=-2.55D-11 OVMax= 4.19D-07

 Cycle  14  Pass 1  IDiag  1:
 RMSU=  7.46D-09    CP:  5.54D-01  1.53D+00  7.77D-01  8.60D-01  1.17D+00
                    CP:  1.15D+00  1.21D+00  1.28D+00  8.85D-01  1.31D+00
                    CP:  1.35D+00  1.58D+00  1.26D+00
 E= -925.307376238774     Delta-E=        0.000000000009 Rises=F Damp=F
 DIIS: error= 6.23D-09 at cycle  14 NSaved=  14.
 NSaved=14 IEnMin=13 EnMin= -925.307376238783     IErMin=14 ErrMin= 6.23D-09
 ErrMax= 6.23D-09  0.00D+00 EMaxC= 1.00D-01 BMatC= 3.35D-14 BMatP= 1.11D-13
 IDIUse=1 WtCom= 1.00D+00 WtEn= 0.00D+00
 Coeff-Com:  0.756D-06-0.168D-05-0.489D-06 0.169D-04 0.688D-04-0.110D-03
 Coeff-Com: -0.907D-03 0.168D-02 0.400D-02 0.186D-02-0.213D-01-0.107D+00
 Coeff-Com:  0.423D+00 0.698D+00
 Coeff:      0.756D-06-0.168D-05-0.489D-06 0.169D-04 0.688D-04-0.110D-03
 Coeff:     -0.907D-03 0.168D-02 0.400D-02 0.186D-02-0.213D-01-0.107D+00
 Coeff:      0.423D+00 0.698D+00
 Gap=     0.310 Goal=   None    Shift=    0.000
 RMSDP=8.35D-09 MaxDP=8.27D-07 DE= 9.09D-12 OVMax= 9.94D-08

 SCF Done:  E(RwB97XD) =  -925.307376239     A.U. after   14 cycles
            NFock= 14  Conv=0.84D-08     -V/T= 2.0043
 KE= 9.213172420622D+02 PE=-5.615176117779D+03 EE= 2.034132193462D+03
 Leave Link  502 at Mon Nov 14 15:14:34 2022, MaxMem= 16106127360 cpu:            4587.3 elap:             143.5
 (Enter /opt/ap/G16/B01/g16/l601.exe)
 Copying SCF densities to generalized density rwf, IOpCl= 0 IROHF=0.

 **********************************************************************

            Population analysis using the SCF Density.

 **********************************************************************

 Orbital symmetries:
       Occupied  (A) (A) (A) (A) (A) (A) (A) (A) (A) (A) (A) (A)
                 (A) (A) (A) (A) (A) (A) (A) (A) (A) (A) (A) (A)
                 (A) (A) (A) (A) (A) (A) (A) (A) (A) (A) (A) (A)
                 (A) (A) (A) (A) (A) (A) (A) (A) (A) (A) (A) (A)
                 (A) (A) (A) (A) (A) (A) (A) (A) (A) (A) (A) (A)
                 (A) (A) (A) (A) (A) (A) (A) (A) (A) (A) (A) (A)
                 (A) (A) (A) (A) (A) (A) (A) (A) (A)
       Virtual   (A) (A) (A) (A) (A) (A) (A) (A) (A) (A) (A) (A)
                 (A) (A) (A) (A) (A) (A) (A) (A) (A) (A) (A) (A)
                 (A) (A) (A) (A) (A) (A) (A) (A) (A) (A) (A) (A)
                 (A) (A) (A) (A) (A) (A) (A) (A) (A) (A) (A) (A)
                 (A) (A) (A) (A) (A) (A) (A) (A) (A) (A) (A) (A)
                 (A) (A) (A) (A) (A) (A) (A) (A) (A) (A) (A) (A)
                 (A) (A) (A) (A) (A) (A) (A) (A) (A) (A) (A) (A)
                 (A) (A) (A) (A) (A) (A) (A) (A) (A) (A) (A) (A)
                 (A) (A) (A) (A) (A) (A) (A) (A) (A) (A) (A) (A)
                 (A) (A) (A) (A) (A) (A) (A) (A) (A) (A) (A) (A)
                 (A) (A) (A) (A) (A) (A) (A) (A) (A) (A) (A) (A)
                 (A) (A) (A) (A) (A) (A) (A) (A) (A) (A) (A) (A)
                 (A) (A) (A) (A) (A) (A) (A) (A) (A) (A) (A) (A)
                 (A) (A) (A) (A) (A) (A) (A) (A) (A) (A) (A) (A)
                 (A) (A) (A) (A) (A) (A) (A) (A) (A) (A) (A) (A)
                 (A) (A) (A) (A) (A) (A) (A) (A) (A) (A) (A) (A)
                 (A) (A) (A) (A) (A) (A) (A) (A) (A) (A) (A) (A)
                 (A) (A) (A) (A) (A) (A) (A) (A) (A) (A) (A) (A)
                 (A) (A) (A) (A) (A) (A) (A) (A) (A) (A) (A) (A)
                 (A) (A) (A) (A) (A) (A) (A) (A) (A) (A) (A) (A)
                 (A) (A) (A) (A) (A) (A) (A) (A) (A) (A) (A) (A)
                 (A) (A) (A) (A) (A) (A) (A) (A) (A) (A) (A) (A)
                 (A) (A) (A) (A) (A) (A) (A) (A) (A) (A) (A) (A)
                 (A) (A) (A) (A) (A) (A) (A) (A) (A) (A) (A) (A)
                 (A) (A) (A) (A) (A) (A) (A) (A) (A) (A) (A) (A)
                 (A) (A) (A) (A) (A) (A) (A) (A) (A) (A) (A) (A)
                 (A) (A) (A) (A) (A) (A) (A) (A) (A) (A) (A) (A)
                 (A) (A) (A) (A) (A) (A) (A) (A) (A) (A) (A) (A)
                 (A) (A) (A) (A) (A) (A) (A) (A) (A) (A) (A) (A)
                 (A) (A) (A) (A) (A) (A) (A) (A) (A) (A) (A) (A)
                 (A) (A) (A) (A) (A) (A) (A) (A) (A) (A) (A) (A)
                 (A) (A) (A) (A) (A) (A) (A) (A) (A) (A) (A) (A)
                 (A) (A) (A) (A) (A) (A) (A) (A) (A) (A) (A) (A)
                 (A) (A) (A) (A) (A) (A) (A) (A) (A) (A) (A) (A)
                 (A) (A) (A) (A) (A) (A) (A) (A) (A) (A) (A) (A)
                 (A) (A) (A) (A) (A) (A) (A) (A) (A) (A) (A) (A)
                 (A) (A) (A) (A) (A) (A) (A) (A) (A) (A) (A) (A)
                 (A) (A) (A) (A) (A) (A) (A) (A) (A) (A) (A) (A)
                 (A) (A) (A) (A) (A) (A) (A) (A) (A) (A) (A) (A)
                 (A) (A) (A) (A) (A) (A) (A) (A) (A) (A) (A) (A)
                 (A) (A) (A) (A) (A) (A) (A) (A) (A) (A) (A) (A)
                 (A) (A) (A) (A) (A) (A) (A) (A) (A) (A) (A) (A)
                 (A) (A) (A) (A) (A) (A) (A) (A) (A) (A) (A) (A)
                 (A) (A) (A) (A) (A) (A) (A) (A) (A) (A) (A) (A)
                 (A) (A) (A) (A) (A) (A) (A) (A) (A) (A) (A) (A)
                 (A) (A) (A) (A) (A) (A) (A) (A) (A) (A) (A) (A)
                 (A) (A) (A) (A) (A) (A) (A) (A) (A) (A) (A) (A)
 The electronic state is 1-A.
 Alpha  occ. eigenvalues --  -10.30529 -10.30498 -10.30494 -10.30432 -10.30377
 Alpha  occ. eigenvalues --  -10.30377 -10.29315 -10.29306 -10.29304 -10.29297
 Alpha  occ. eigenvalues --  -10.29294 -10.29286 -10.29221 -10.29217 -10.29216
 Alpha  occ. eigenvalues --  -10.29202 -10.29196 -10.29187 -10.29158 -10.29150
 Alpha  occ. eigenvalues --  -10.29133 -10.29097 -10.29095 -10.29087  -0.99073
 Alpha  occ. eigenvalues --   -0.97130  -0.97109  -0.95305  -0.89528  -0.89502
 Alpha  occ. eigenvalues --   -0.85491  -0.85385  -0.85327  -0.85102  -0.82313
 Alpha  occ. eigenvalues --   -0.82246  -0.73978  -0.73652  -0.71192  -0.70883
 Alpha  occ. eigenvalues --   -0.70186  -0.69978  -0.66727  -0.66574  -0.63911
 Alpha  occ. eigenvalues --   -0.61008  -0.60754  -0.58628  -0.57484  -0.56947
 Alpha  occ. eigenvalues --   -0.54937  -0.54879  -0.54302  -0.54032  -0.52206
 Alpha  occ. eigenvalues --   -0.52034  -0.51721  -0.51603  -0.51186  -0.51039
 Alpha  occ. eigenvalues --   -0.50379  -0.48656  -0.46969  -0.46477  -0.46164
 Alpha  occ. eigenvalues --   -0.45527  -0.44865  -0.44408  -0.43205  -0.43179
 Alpha  occ. eigenvalues --   -0.42988  -0.41908  -0.41228  -0.37639  -0.36577
 Alpha  occ. eigenvalues --   -0.33713  -0.33683  -0.33673  -0.32977  -0.30315
 Alpha  occ. eigenvalues --   -0.29691
 Alpha virt. eigenvalues --    0.01294   0.01921   0.03689   0.04169   0.04204
 Alpha virt. eigenvalues --    0.04507   0.04873   0.04957   0.05020   0.05134
 Alpha virt. eigenvalues --    0.05276   0.05690   0.05950   0.06874   0.07079
 Alpha virt. eigenvalues --    0.07203   0.08124   0.08263   0.08439   0.08936
 Alpha virt. eigenvalues --    0.09072   0.09191   0.09699   0.10763   0.11239
 Alpha virt. eigenvalues --    0.11353   0.12059   0.12445   0.12996   0.13433
 Alpha virt. eigenvalues --    0.13868   0.14147   0.14415   0.14597   0.15452
 Alpha virt. eigenvalues --    0.15703   0.15757   0.15826   0.16209   0.16281
 Alpha virt. eigenvalues --    0.16428   0.16495   0.16907   0.16941   0.17234
 Alpha virt. eigenvalues --    0.17450   0.17682   0.17985   0.18076   0.18423
 Alpha virt. eigenvalues --    0.18444   0.18610   0.18875   0.19279   0.19370
 Alpha virt. eigenvalues --    0.19626   0.19769   0.19974   0.20249   0.20631
 Alpha virt. eigenvalues --    0.20969   0.21204   0.21393   0.21877   0.21924
 Alpha virt. eigenvalues --    0.22139   0.22600   0.22852   0.23060   0.23403
 Alpha virt. eigenvalues --    0.23519   0.23728   0.23847   0.24185   0.24804
 Alpha virt. eigenvalues --    0.24880   0.25138   0.25420   0.25503   0.25668
 Alpha virt. eigenvalues --    0.26088   0.26413   0.26714   0.26912   0.26960
 Alpha virt. eigenvalues --    0.27474   0.27686   0.27905   0.28188   0.28628
 Alpha virt. eigenvalues --    0.28756   0.29026   0.29280   0.29531   0.29822
 Alpha virt. eigenvalues --    0.29962   0.30148   0.30424   0.30761   0.31275
 Alpha virt. eigenvalues --    0.31649   0.31944   0.32438   0.32514   0.33067
 Alpha virt. eigenvalues --    0.33191   0.33450   0.33756   0.34110   0.34454
 Alpha virt. eigenvalues --    0.34761   0.34791   0.35386   0.35479   0.35860
 Alpha virt. eigenvalues --    0.36056   0.36253   0.36585   0.36797   0.37099
 Alpha virt. eigenvalues --    0.37271   0.37973   0.38198   0.38226   0.38415
 Alpha virt. eigenvalues --    0.38901   0.39063   0.39706   0.40047   0.40496
 Alpha virt. eigenvalues --    0.40696   0.40890   0.41028   0.41547   0.41701
 Alpha virt. eigenvalues --    0.42205   0.42884   0.43106   0.43366   0.43683
 Alpha virt. eigenvalues --    0.44402   0.44835   0.44899   0.45295   0.45479
 Alpha virt. eigenvalues --    0.46252   0.46995   0.48290   0.48728   0.48794
 Alpha virt. eigenvalues --    0.50423   0.50914   0.53405   0.54693   0.57481
 Alpha virt. eigenvalues --    0.58561   0.59229   0.59544   0.59893   0.61526
 Alpha virt. eigenvalues --    0.61840   0.62232   0.62712   0.62947   0.62997
 Alpha virt. eigenvalues --    0.63207   0.63301   0.63546   0.63859   0.64207
 Alpha virt. eigenvalues --    0.64421   0.64813   0.65208   0.65682   0.65871
 Alpha virt. eigenvalues --    0.65997   0.66717   0.67071   0.67366   0.68615
 Alpha virt. eigenvalues --    0.68800   0.69183   0.69595   0.70034   0.70295
 Alpha virt. eigenvalues --    0.70821   0.71585   0.71891   0.72374   0.72802
 Alpha virt. eigenvalues --    0.73043   0.73297   0.74114   0.74326   0.74799
 Alpha virt. eigenvalues --    0.75128   0.75915   0.76240   0.76785   0.77562
 Alpha virt. eigenvalues --    0.78084   0.78797   0.78987   0.79402   0.80305
 Alpha virt. eigenvalues --    0.80668   0.80879   0.81361   0.81584   0.81798
 Alpha virt. eigenvalues --    0.82345   0.82451   0.83143   0.83916   0.84412
 Alpha virt. eigenvalues --    0.84932   0.85212   0.85412   0.86132   0.86347
 Alpha virt. eigenvalues --    0.86578   0.87745   0.87980   0.88654   0.88970
 Alpha virt. eigenvalues --    0.90373   0.91291   0.91481   0.92291   0.92733
 Alpha virt. eigenvalues --    0.92949   0.93589   0.93726   0.94114   0.94375
 Alpha virt. eigenvalues --    0.94528   0.94962   0.95318   0.95799   0.96903
 Alpha virt. eigenvalues --    0.97516   0.98311   0.98763   0.99842   1.00127
 Alpha virt. eigenvalues --    1.01219   1.01377   1.01424   1.02090   1.02428
 Alpha virt. eigenvalues --    1.02670   1.03203   1.04113   1.04749   1.05412
 Alpha virt. eigenvalues --    1.06107   1.06430   1.06859   1.07195   1.07904
 Alpha virt. eigenvalues --    1.08515   1.08842   1.09535   1.11099   1.11801
 Alpha virt. eigenvalues --    1.12036   1.12916   1.13354   1.13593   1.14478
 Alpha virt. eigenvalues --    1.14804   1.15693   1.16788   1.17219   1.17299
 Alpha virt. eigenvalues --    1.17974   1.18544   1.19115   1.19600   1.21199
 Alpha virt. eigenvalues --    1.21535   1.22327   1.22659   1.23650   1.24089
 Alpha virt. eigenvalues --    1.25036   1.25524   1.26142   1.28210   1.30183
 Alpha virt. eigenvalues --    1.32903   1.38796   1.41351   1.41805   1.42013
 Alpha virt. eigenvalues --    1.45146   1.46716   1.47278   1.52787   1.55335
 Alpha virt. eigenvalues --    1.56593   1.57753   1.58249   1.58581   1.58689
 Alpha virt. eigenvalues --    1.59046   1.59447   1.60236   1.61050   1.61615
 Alpha virt. eigenvalues --    1.62033   1.62548   1.63111   1.63628   1.63788
 Alpha virt. eigenvalues --    1.64540   1.65407   1.65569   1.65666   1.66020
 Alpha virt. eigenvalues --    1.66442   1.66705   1.67769   1.68556   1.69190
 Alpha virt. eigenvalues --    1.69854   1.72662   1.72997   1.73254   1.73909
 Alpha virt. eigenvalues --    1.74156   1.74647   1.75866   1.75995   1.76302
 Alpha virt. eigenvalues --    1.77063   1.77936   1.80696   1.81265   1.81987
 Alpha virt. eigenvalues --    1.82776   1.82939   1.83681   1.85187   1.85326
 Alpha virt. eigenvalues --    1.85830   1.86347   1.86647   1.87022   1.87442
 Alpha virt. eigenvalues --    1.90186   1.91670   1.92674   1.92927   1.93479
 Alpha virt. eigenvalues --    1.93549   1.94651   1.96669   1.98524   2.00127
 Alpha virt. eigenvalues --    2.00836   2.01239   2.01948   2.02537   2.02753
 Alpha virt. eigenvalues --    2.03291   2.03818   2.04015   2.04420   2.04560
 Alpha virt. eigenvalues --    2.04909   2.05182   2.05285   2.05523   2.05711
 Alpha virt. eigenvalues --    2.07161   2.07428   2.08275   2.08674   2.09242
 Alpha virt. eigenvalues --    2.09662   2.11429   2.12657   2.12775   2.13444
 Alpha virt. eigenvalues --    2.14484   2.15028   2.16631   2.16752   2.17116
 Alpha virt. eigenvalues --    2.18212   2.19554   2.20287   2.20334   2.23670
 Alpha virt. eigenvalues --    2.24541   2.28340   2.30951   2.34360   2.35723
 Alpha virt. eigenvalues --    2.36454   2.36845   2.39716   2.40687   2.42409
 Alpha virt. eigenvalues --    2.43391   2.44358   2.45125   2.48586   2.49022
 Alpha virt. eigenvalues --    2.51168   2.52336   2.52987   2.54230   2.54674
 Alpha virt. eigenvalues --    2.55269   2.55897   2.56401   2.57217   2.57658
 Alpha virt. eigenvalues --    2.58408   2.58901   2.59941   2.62613   2.62746
 Alpha virt. eigenvalues --    2.71600   2.73043   2.73199   2.73740   2.75910
 Alpha virt. eigenvalues --    2.76109   2.77444   2.78192   2.79281   2.79477
 Alpha virt. eigenvalues --    2.79789   2.80033   2.80379   2.80824   2.80976
 Alpha virt. eigenvalues --    2.81583   2.82078   2.82485   2.83315   2.83496
 Alpha virt. eigenvalues --    2.83717   2.84433   2.85432   2.85990   2.86598
 Alpha virt. eigenvalues --    2.87256   2.87867   2.88123   2.90012   2.90710
 Alpha virt. eigenvalues --    2.90820   2.91662   2.92503   2.93025   2.93750
 Alpha virt. eigenvalues --    2.93974   2.94224   2.95072   2.96501   2.97145
 Alpha virt. eigenvalues --    2.99759   3.00314   3.00537   3.01255   3.02859
 Alpha virt. eigenvalues --    3.04311   3.04744   3.04908   3.04983   3.05257
 Alpha virt. eigenvalues --    3.05874   3.07070   3.07308   3.11584   3.12822
 Alpha virt. eigenvalues --    3.13047   3.15616   3.17874   3.19801   3.20462
 Alpha virt. eigenvalues --    3.21272   3.24451   3.25550   3.31877   3.32669
 Alpha virt. eigenvalues --    3.33149   3.33721   3.35154   3.35609   3.38654
 Alpha virt. eigenvalues --    3.47392   3.47889   3.49203   3.49387   3.49570
 Alpha virt. eigenvalues --    3.49683   3.54291   3.54755   3.60920   3.61038
 Alpha virt. eigenvalues --    3.62918   3.63393   3.65128   3.65833   3.66339
 Alpha virt. eigenvalues --    3.73537   3.73738   3.75599   3.76717   3.77006
 Alpha virt. eigenvalues --    3.78082   3.88848   3.91661   3.92916   4.09831
 Alpha virt. eigenvalues --    4.10170   4.11017   4.14571   4.14581   4.14626
 Alpha virt. eigenvalues --    4.23690   4.24187   4.26270   4.26353   4.26913
 Alpha virt. eigenvalues --    4.27014   4.28687   4.32540   4.52532   4.66929
 Alpha virt. eigenvalues --    4.73498   4.93257   4.95376   4.95543   5.00059
 Alpha virt. eigenvalues --   23.67542  23.80002  23.81951  23.88123  24.08608
 Alpha virt. eigenvalues --   24.08892  24.10306  24.10683  24.10988  24.11702
 Alpha virt. eigenvalues --   24.12243  24.13114  24.20631  24.20685  24.21425
 Alpha virt. eigenvalues --   24.23327  24.24200  24.24275  24.24426  24.25114
 Alpha virt. eigenvalues --   24.31316  24.33774  24.33840  24.34637
          Condensed to atoms (all electrons):
               1          2          3          4          5          6
     1  C   14.480355  -0.388192  -1.354168  -4.745714  -0.131646   4.765605
     2  C   -0.388192  12.295461  -1.027011   2.313190   0.222323  -1.656919
     3  C   -1.354168  -1.027011  12.370728  -0.623253   0.055330  -2.151260
     4  C   -4.745714   2.313190  -0.623253  23.530255   0.064999  -2.813438
     5  H   -0.131646   0.222323   0.055330   0.064999   1.055259  -0.090837
     6  C    4.765605  -1.656919  -2.151260  -2.813438  -0.090837  13.249579
     7  C   -4.332150  -0.703753   1.707616 -10.098750   0.074366  -2.375428
     8  H   -0.073638   0.099242   0.372981   0.078921   0.008785  -0.068784
     9  C   -2.257693   0.225058   0.772967  -0.322991   0.079270  -1.105316
    10  C    0.378476  -1.627587  -0.921726   0.946707   0.240243   0.432184
    11  C   -0.436424   3.910164  -4.805976   0.629647  -0.026913  -0.454310
    12  C   -1.290876  -5.158625   4.630459  -1.650012  -0.021439  -1.321987
    13  C    0.747905  -0.866107  -1.080550  -0.725464   0.005154   0.395597
    14  H    0.025879  -0.029779  -0.015907   0.081923  -0.002345  -0.000395
    15  C    0.576619   1.535870  -0.045500  -0.306490  -0.334076  -0.147850
    16  C   -0.848012  -1.702204   0.086315  -1.310455   0.198426   0.070468
    17  C   -0.561262  -0.966637   0.237698  -0.097184   0.028918  -1.730882
    18  H   -0.020563   0.042146  -0.071556  -0.070855  -0.178563   0.006961
    19  C   -0.130706   0.251182  -1.314882   0.277905  -0.039193  -0.695583
    20  H   -0.057256  -0.113581   0.056516  -0.094423  -0.006875  -0.016079
    21  C    1.199981  -0.203599   0.629472   0.451510  -0.033260   0.306835
    22  C   -0.971464   0.077423  -0.822117  -0.401941   0.019061  -0.171331
    23  C    0.361892   0.590143   0.029508   0.063864  -0.133597   0.111008
    24  H   -0.019578   0.005440  -0.008757   0.021785  -0.034371  -0.013366
    25  C   -0.095364   0.018004   0.012805   0.259597   0.005171  -0.060824
    26  H    0.009625   0.011862  -0.000446   0.187935  -0.009231   0.009808
    27  C   -0.375897  -0.105383   0.122714  -0.090695   0.011418  -0.277585
    28  H    0.008978  -0.011473   0.002239   0.000353   0.012170   0.010583
    29  H    0.013940   0.007095  -0.020219   0.005135   0.001071   0.028158
    30  C    0.278137   0.031334   0.385551  -0.357606  -0.005753   0.068563
    31  H   -0.012247  -0.004185  -0.039190   0.047033   0.000743  -0.001573
    32  C   -0.222293  -0.006571   0.002500   0.485892   0.003022  -0.059210
    33  H    0.010368  -0.013080   0.010661  -0.183059   0.001265   0.007202
    34  C   -0.079221  -0.124961  -0.005868  -0.271361   0.016010  -0.007315
    35  H    0.004623   0.003747  -0.000273  -0.004866  -0.001665   0.002241
    36  H    0.000801  -0.002619  -0.000067  -0.013594   0.000916  -0.000158
    37  H    0.003537  -0.000224   0.004453  -0.000335  -0.002220   0.038005
    38  C    0.009382  -0.012634  -0.008294  -0.017048   0.000245   0.016017
    39  H    0.001353  -0.000865   0.000580  -0.000309  -0.000083  -0.000322
    40  H   -0.000595   0.000211  -0.002043   0.012721  -0.000052  -0.000328
    41  H    0.001192  -0.000103  -0.000316  -0.003974  -0.000653   0.000394
    42  H    0.001893  -0.000310   0.000181  -0.000688   0.000013   0.000625
               7          8          9         10         11         12
     1  C   -4.332150  -0.073638  -2.257693   0.378476  -0.436424  -1.290876
     2  C   -0.703753   0.099242   0.225058  -1.627587   3.910164  -5.158625
     3  C    1.707616   0.372981   0.772967  -0.921726  -4.805976   4.630459
     4  C  -10.098750   0.078921  -0.322991   0.946707   0.629647  -1.650012
     5  H    0.074366   0.008785   0.079270   0.240243  -0.026913  -0.021439
     6  C   -2.375428  -0.068784  -1.105316   0.432184  -0.454310  -1.321987
     7  C   21.594083   0.013416   1.721025  -1.256816  -0.914550   0.714260
     8  H    0.013416   0.612843   0.052439  -0.011477  -0.007602  -0.093788
     9  C    1.721025   0.052439  12.911233  -2.746249   0.251836   0.275955
    10  C   -1.256816  -0.011477  -2.746249  13.983272  -0.352925   0.086014
    11  C   -0.914550  -0.007602   0.251836  -0.352925  17.431397  -8.707963
    12  C    0.714260  -0.093788   0.275955   0.086014  -8.707963  19.848264
    13  C   -0.318024   0.056342  -2.838360   0.955343   0.082613  -0.487619
    14  H   -0.145659  -0.001272   0.283006   0.093865  -0.004867   0.006474
    15  C   -0.431520  -0.005678  -1.246335  -1.391844  -0.085540  -0.011858
    16  C    0.960563   0.006815   1.034321  -0.698357  -0.129149  -0.001927
    17  C    0.142146  -0.017011   0.064432  -0.014008  -2.309792   2.458115
    18  H   -0.047052  -0.006052   0.000048  -0.070398   0.605696   0.002927
    19  C   -0.075807  -0.028672  -0.055292   0.053468   2.591523  -3.522325
    20  H   -0.055216  -0.019384   0.004865  -0.003847  -0.000056   0.718334
    21  C   -2.159306  -0.197726  -0.307388   0.080080   0.032180   0.296231
    22  C    1.224186   0.163174  -0.129402  -0.021900   0.015226  -0.275737
    23  C   -0.182921  -0.003959   0.162578  -1.521810  -0.017757   0.023468
    24  H    0.005557  -0.000404  -0.039709  -0.043822  -0.002872  -0.004500
    25  C    0.380762   0.000895   0.558099  -1.412475   0.082370  -0.019668
    26  H   -0.174389   0.000551  -0.098540  -0.002748  -0.014096   0.006829
    27  C   -0.010502  -0.004578   0.016772  -0.015378  -0.758117   0.299373
    28  H    0.002220   0.000226   0.000766   0.002077  -0.110560   0.038045
    29  H   -0.001454   0.001031  -0.000194   0.000405   0.049772  -0.144742
    30  C    0.276961  -0.063853   0.280311  -0.077587   0.031035   0.029311
    31  H   -0.018566   0.004914  -0.028882   0.014336  -0.005163  -0.013433
    32  C   -0.192356   0.005037   0.601196  -0.085871  -0.026380   0.068074
    33  H    0.207980  -0.002596  -0.097821  -0.011083   0.007393  -0.012979
    34  C   -0.014827   0.000924  -0.157101  -0.350034  -0.027340  -0.000254
    35  H    0.001883  -0.000045   0.004239   0.015735   0.000100   0.000454
    36  H    0.013528  -0.000052   0.017721   0.017449   0.000897  -0.000109
    37  H    0.000759  -0.000078   0.000037  -0.000306  -0.026474   0.000486
    38  C   -0.233391  -0.003174  -0.206956   0.045424   0.003863  -0.025174
    39  H    0.002186  -0.000483   0.005230  -0.001040   0.000105   0.001860
    40  H   -0.012216   0.000208   0.019697  -0.003535  -0.000208   0.000822
    41  H   -0.000411   0.000009  -0.006945   0.026992  -0.000414   0.000058
    42  H   -0.004498  -0.000067  -0.009860   0.001069   0.000089  -0.000536
              13         14         15         16         17         18
     1  C    0.747905   0.025879   0.576619  -0.848012  -0.561262  -0.020563
     2  C   -0.866107  -0.029779   1.535870  -1.702204  -0.966637   0.042146
     3  C   -1.080550  -0.015907  -0.045500   0.086315   0.237698  -0.071556
     4  C   -0.725464   0.081923  -0.306490  -1.310455  -0.097184  -0.070855
     5  H    0.005154  -0.002345  -0.334076   0.198426   0.028918  -0.178563
     6  C    0.395597  -0.000395  -0.147850   0.070468  -1.730882   0.006961
     7  C   -0.318024  -0.145659  -0.431520   0.960563   0.142146  -0.047052
     8  H    0.056342  -0.001272  -0.005678   0.006815  -0.017011  -0.006052
     9  C   -2.838360   0.283006  -1.246335   1.034321   0.064432   0.000048
    10  C    0.955343   0.093865  -1.391844  -0.698357  -0.014008  -0.070398
    11  C    0.082613  -0.004867  -0.085540  -0.129149  -2.309792   0.605696
    12  C   -0.487619   0.006474  -0.011858  -0.001927   2.458115   0.002927
    13  C   14.872396   0.083350   0.011302   0.027314   0.079884  -0.004881
    14  H    0.083350   0.481676   0.060882  -0.069142  -0.002954   0.000170
    15  C    0.011302   0.060882  16.336536  -7.620942  -0.057222   0.042989
    16  C    0.027314  -0.069142  -7.620942  18.442020   0.016247  -0.026803
    17  C    0.079884  -0.002954  -0.057222   0.016247  10.624606  -0.094264
    18  H   -0.004881   0.000170   0.042989  -0.026803  -0.094264   0.656663
    19  C   -0.132308   0.002096   0.020548  -0.010525  -2.359291   0.058432
    20  H   -0.056500  -0.000601  -0.005839   0.002872   0.096634   0.005724
    21  C   -1.934956   0.096551   0.122652  -0.189764  -0.024739   0.007974
    22  C   -0.955581  -0.112921  -0.090087   0.297355   0.014898  -0.004392
    23  C   -0.027520   0.015585  -1.231890  -0.692749  -0.033954   0.025146
    24  H    0.009501  -0.000729   0.544461  -0.050300   0.004826   0.006378
    25  C   -0.128179  -0.032772   0.070602  -2.219573   0.004797   0.003441
    26  H   -0.008536   0.005445  -0.048278   0.507604  -0.001397   0.000836
    27  C   -0.021113   0.000156  -0.000428  -0.003917   0.810842   0.001214
    28  H    0.000213  -0.000019  -0.002708   0.000958   0.432901  -0.026341
    29  H    0.000091   0.000023  -0.000021   0.000014  -0.031832  -0.001698
    30  C   -1.532129   0.005499  -0.005949   0.007033   0.005609   0.001462
    31  H    0.008296  -0.000009   0.004856  -0.004131  -0.002869  -0.000519
    32  C   -1.276117  -0.027613  -0.007905   0.019964  -0.002348  -0.000449
    33  H   -0.009961  -0.000283  -0.004869   0.024387   0.001197  -0.000069
    34  C    0.027697   0.004396  -0.057299   0.585995   0.001016  -0.004096
    35  H   -0.000774  -0.000010  -0.086790   0.005463  -0.000741   0.000312
    36  H   -0.002381  -0.001829   0.022806  -0.099841   0.000036  -0.000066
    37  H   -0.000237  -0.000004   0.000078  -0.000034  -0.032314   0.004054
    38  C   -0.390701   0.006628   0.008423  -0.016861   0.000025  -0.000068
    39  H    0.025696  -0.000092  -0.000284   0.000484   0.000080   0.000025
    40  H    0.033046  -0.001241  -0.000744   0.002208  -0.000008   0.000004
    41  H    0.000843   0.000516  -0.007220   0.000151   0.000037   0.000028
    42  H    0.022922   0.000471   0.000182  -0.000533   0.000003  -0.000002
              19         20         21         22         23         24
     1  C   -0.130706  -0.057256   1.199981  -0.971464   0.361892  -0.019578
     2  C    0.251182  -0.113581  -0.203599   0.077423   0.590143   0.005440
     3  C   -1.314882   0.056516   0.629472  -0.822117   0.029508  -0.008757
     4  C    0.277905  -0.094423   0.451510  -0.401941   0.063864   0.021785
     5  H   -0.039193  -0.006875  -0.033260   0.019061  -0.133597  -0.034371
     6  C   -0.695583  -0.016079   0.306835  -0.171331   0.111008  -0.013366
     7  C   -0.075807  -0.055216  -2.159306   1.224186  -0.182921   0.005557
     8  H   -0.028672  -0.019384  -0.197726   0.163174  -0.003959  -0.000404
     9  C   -0.055292   0.004865  -0.307388  -0.129402   0.162578  -0.039709
    10  C    0.053468  -0.003847   0.080080  -0.021900  -1.521810  -0.043822
    11  C    2.591523  -0.000056   0.032180   0.015226  -0.017757  -0.002872
    12  C   -3.522325   0.718334   0.296231  -0.275737   0.023468  -0.004500
    13  C   -0.132308  -0.056500  -1.934956  -0.955581  -0.027520   0.009501
    14  H    0.002096  -0.000601   0.096551  -0.112921   0.015585  -0.000729
    15  C    0.020548  -0.005839   0.122652  -0.090087  -1.231890   0.544461
    16  C   -0.010525   0.002872  -0.189764   0.297355  -0.692749  -0.050300
    17  C   -2.359291   0.096634  -0.024739   0.014898  -0.033954   0.004826
    18  H    0.058432   0.005724   0.007974  -0.004392   0.025146   0.006378
    19  C   11.110166  -0.166579   0.095533  -0.031244   0.001512  -0.000164
    20  H   -0.166579   0.611458   0.043108  -0.035132   0.000025   0.000171
    21  C    0.095533   0.043108  18.467520  -9.747495   0.020022   0.002798
    22  C   -0.031244  -0.035132  -9.747495  19.820603  -0.028237  -0.001061
    23  C    0.001512   0.000025   0.020022  -0.028237   8.956193  -0.099184
    24  H   -0.000164   0.000171   0.002798  -0.001061  -0.099184   0.485867
    25  C   -0.000473   0.000703  -0.000015  -0.006937  -0.059428  -0.003811
    26  H    0.000942  -0.000088  -0.003908   0.014293  -0.005164   0.000923
    27  C    0.133468   0.036680   0.014293  -0.007131   0.001847  -0.000117
    28  H   -0.015985  -0.000712  -0.000383   0.000192  -0.000779  -0.000468
    29  H    0.463319  -0.020881  -0.000239   0.000480  -0.000005  -0.000046
    30  C   -0.033071   0.041088  -1.482709  -0.165810   0.001490  -0.000139
    31  H    0.011250  -0.008520   0.523960  -0.019182   0.000026   0.000281
    32  C    0.004068   0.000644   0.748200  -2.079548   0.007403  -0.000972
    33  H   -0.001570  -0.000074  -0.095159   0.556611  -0.001349  -0.000025
    34  C   -0.000131  -0.000260  -0.002702   0.006117  -0.193561   0.015260
    35  H    0.000039   0.000005   0.000000   0.000108   0.432874  -0.008403
    36  H   -0.000008   0.000011  -0.000178   0.000911   0.001571   0.000076
    37  H   -0.065717   0.001310   0.000143  -0.000046   0.000030   0.000069
    38  C    0.001445   0.000819  -0.188179   0.297169  -0.000937   0.000199
    39  H   -0.000529   0.000316  -0.108800   0.006117   0.000025  -0.000009
    40  H   -0.000003   0.000057   0.022084  -0.113968   0.000058  -0.000002
    41  H   -0.000002  -0.000002   0.000068  -0.000255  -0.049946   0.000399
    42  H    0.000008  -0.000086   0.006507   0.010760  -0.000007   0.000003
              25         26         27         28         29         30
     1  C   -0.095364   0.009625  -0.375897   0.008978   0.013940   0.278137
     2  C    0.018004   0.011862  -0.105383  -0.011473   0.007095   0.031334
     3  C    0.012805  -0.000446   0.122714   0.002239  -0.020219   0.385551
     4  C    0.259597   0.187935  -0.090695   0.000353   0.005135  -0.357606
     5  H    0.005171  -0.009231   0.011418   0.012170   0.001071  -0.005753
     6  C   -0.060824   0.009808  -0.277585   0.010583   0.028158   0.068563
     7  C    0.380762  -0.174389  -0.010502   0.002220  -0.001454   0.276961
     8  H    0.000895   0.000551  -0.004578   0.000226   0.001031  -0.063853
     9  C    0.558099  -0.098540   0.016772   0.000766  -0.000194   0.280311
    10  C   -1.412475  -0.002748  -0.015378   0.002077   0.000405  -0.077587
    11  C    0.082370  -0.014096  -0.758117  -0.110560   0.049772   0.031035
    12  C   -0.019668   0.006829   0.299373   0.038045  -0.144742   0.029311
    13  C   -0.128179  -0.008536  -0.021113   0.000213   0.000091  -1.532129
    14  H   -0.032772   0.005445   0.000156  -0.000019   0.000023   0.005499
    15  C    0.070602  -0.048278  -0.000428  -0.002708  -0.000021  -0.005949
    16  C   -2.219573   0.507604  -0.003917   0.000958   0.000014   0.007033
    17  C    0.004797  -0.001397   0.810842   0.432901  -0.031832   0.005609
    18  H    0.003441   0.000836   0.001214  -0.026341  -0.001698   0.001462
    19  C   -0.000473   0.000942   0.133468  -0.015985   0.463319  -0.033071
    20  H    0.000703  -0.000088   0.036680  -0.000712  -0.020881   0.041088
    21  C   -0.000015  -0.003908   0.014293  -0.000383  -0.000239  -1.482709
    22  C   -0.006937   0.014293  -0.007131   0.000192   0.000480  -0.165810
    23  C   -0.059428  -0.005164   0.001847  -0.000779  -0.000005   0.001490
    24  H   -0.003811   0.000923  -0.000117  -0.000468  -0.000046  -0.000139
    25  C    8.969968  -0.104583   0.000383  -0.000010  -0.000003   0.010183
    26  H   -0.104583   0.500200  -0.000179  -0.000011   0.000005  -0.001011
    27  C    0.000383  -0.000179   6.421225  -0.041343  -0.057217   0.001940
    28  H   -0.000010  -0.000011  -0.041343   0.481164   0.001805  -0.000022
    29  H   -0.000003   0.000005  -0.057217   0.001805   0.480839  -0.001168
    30  C    0.010183  -0.001011   0.001940  -0.000022  -0.001168   8.805874
    31  H   -0.001291   0.000105  -0.000970   0.000015   0.000546  -0.170359
    32  C   -0.038379   0.008319   0.000678   0.000010  -0.000031  -0.346578
    33  H    0.002541  -0.007557  -0.000120   0.000004  -0.000002  -0.010250
    34  C   -0.192905   0.021236  -0.000292   0.000012  -0.000001  -0.001226
    35  H    0.006471  -0.000209  -0.000009   0.000008   0.000001   0.000031
    36  H    0.422598  -0.010887   0.000005   0.000002  -0.000000   0.000068
    37  H   -0.000000   0.000000   0.426546  -0.011832  -0.011375   0.000036
    38  C   -0.005953  -0.000705  -0.000270  -0.000003  -0.000031   0.037304
    39  H    0.000057   0.000048   0.000013   0.000000  -0.000006   0.440545
    40  H    0.000560   0.000667   0.000006   0.000000  -0.000001   0.012141
    41  H   -0.060904   0.001418  -0.000002  -0.000001  -0.000000  -0.000009
    42  H   -0.000126  -0.000067  -0.000007  -0.000000   0.000002  -0.070879
              31         32         33         34         35         36
     1  C   -0.012247  -0.222293   0.010368  -0.079221   0.004623   0.000801
     2  C   -0.004185  -0.006571  -0.013080  -0.124961   0.003747  -0.002619
     3  C   -0.039190   0.002500   0.010661  -0.005868  -0.000273  -0.000067
     4  C    0.047033   0.485892  -0.183059  -0.271361  -0.004866  -0.013594
     5  H    0.000743   0.003022   0.001265   0.016010  -0.001665   0.000916
     6  C   -0.001573  -0.059210   0.007202  -0.007315   0.002241  -0.000158
     7  C   -0.018566  -0.192356   0.207980  -0.014827   0.001883   0.013528
     8  H    0.004914   0.005037  -0.002596   0.000924  -0.000045  -0.000052
     9  C   -0.028882   0.601196  -0.097821  -0.157101   0.004239   0.017721
    10  C    0.014336  -0.085871  -0.011083  -0.350034   0.015735   0.017449
    11  C   -0.005163  -0.026380   0.007393  -0.027340   0.000100   0.000897
    12  C   -0.013433   0.068074  -0.012979  -0.000254   0.000454  -0.000109
    13  C    0.008296  -1.276117  -0.009961   0.027697  -0.000774  -0.002381
    14  H   -0.000009  -0.027613  -0.000283   0.004396  -0.000010  -0.001829
    15  C    0.004856  -0.007905  -0.004869  -0.057299  -0.086790   0.022806
    16  C   -0.004131   0.019964   0.024387   0.585995   0.005463  -0.099841
    17  C   -0.002869  -0.002348   0.001197   0.001016  -0.000741   0.000036
    18  H   -0.000519  -0.000449  -0.000069  -0.004096   0.000312  -0.000066
    19  C    0.011250   0.004068  -0.001570  -0.000131   0.000039  -0.000008
    20  H   -0.008520   0.000644  -0.000074  -0.000260   0.000005   0.000011
    21  C    0.523960   0.748200  -0.095159  -0.002702   0.000000  -0.000178
    22  C   -0.019182  -2.079548   0.556611   0.006117   0.000108   0.000911
    23  C    0.000026   0.007403  -0.001349  -0.193561   0.432874   0.001571
    24  H    0.000281  -0.000972  -0.000025   0.015260  -0.008403   0.000076
    25  C   -0.001291  -0.038379   0.002541  -0.192905   0.006471   0.422598
    26  H    0.000105   0.008319  -0.007557   0.021236  -0.000209  -0.010887
    27  C   -0.000970   0.000678  -0.000120  -0.000292  -0.000009   0.000005
    28  H    0.000015   0.000010   0.000004   0.000012   0.000008   0.000002
    29  H    0.000546  -0.000031  -0.000002  -0.000001   0.000001  -0.000000
    30  C   -0.170359  -0.346578  -0.010250  -0.001226   0.000031   0.000068
    31  H    0.489402   0.002407  -0.000350   0.000200  -0.000008  -0.000007
    32  C    0.002407   8.438401  -0.107720  -0.003450   0.000046   0.000083
    33  H   -0.000350  -0.107720   0.500154   0.000145   0.000032   0.000587
    34  C    0.000200  -0.003450   0.000145   6.808552  -0.051269  -0.051113
    35  H   -0.000008   0.000046   0.000032  -0.051269   0.470301   0.000371
    36  H   -0.000007   0.000083   0.000587  -0.051113   0.000371   0.471112
    37  H   -0.000033   0.000006  -0.000001  -0.000002  -0.000001  -0.000000
    38  C    0.013586   0.094398   0.029650   0.000407  -0.000006   0.000007
    39  H   -0.010485   0.006175  -0.000464  -0.000005   0.000000  -0.000001
    40  H    0.000042   0.427567  -0.013243   0.000023  -0.000001  -0.000036
    41  H    0.000003  -0.000086  -0.000043   0.434596  -0.007743  -0.009025
    42  H    0.000562  -0.079156   0.002125   0.000004  -0.000000   0.000001
              37         38         39         40         41         42
     1  C    0.003537   0.009382   0.001353  -0.000595   0.001192   0.001893
     2  C   -0.000224  -0.012634  -0.000865   0.000211  -0.000103  -0.000310
     3  C    0.004453  -0.008294   0.000580  -0.002043  -0.000316   0.000181
     4  C   -0.000335  -0.017048  -0.000309   0.012721  -0.003974  -0.000688
     5  H   -0.002220   0.000245  -0.000083  -0.000052  -0.000653   0.000013
     6  C    0.038005   0.016017  -0.000322  -0.000328   0.000394   0.000625
     7  C    0.000759  -0.233391   0.002186  -0.012216  -0.000411  -0.004498
     8  H   -0.000078  -0.003174  -0.000483   0.000208   0.000009  -0.000067
     9  C    0.000037  -0.206956   0.005230   0.019697  -0.006945  -0.009860
    10  C   -0.000306   0.045424  -0.001040  -0.003535   0.026992   0.001069
    11  C   -0.026474   0.003863   0.000105  -0.000208  -0.000414   0.000089
    12  C    0.000486  -0.025174   0.001860   0.000822   0.000058  -0.000536
    13  C   -0.000237  -0.390701   0.025696   0.033046   0.000843   0.022922
    14  H   -0.000004   0.006628  -0.000092  -0.001241   0.000516   0.000471
    15  C    0.000078   0.008423  -0.000284  -0.000744  -0.007220   0.000182
    16  C   -0.000034  -0.016861   0.000484   0.002208   0.000151  -0.000533
    17  C   -0.032314   0.000025   0.000080  -0.000008   0.000037   0.000003
    18  H    0.004054  -0.000068   0.000025   0.000004   0.000028  -0.000002
    19  C   -0.065717   0.001445  -0.000529  -0.000003  -0.000002   0.000008
    20  H    0.001310   0.000819   0.000316   0.000057  -0.000002  -0.000086
    21  C    0.000143  -0.188179  -0.108800   0.022084   0.000068   0.006507
    22  C   -0.000046   0.297169   0.006117  -0.113968  -0.000255   0.010760
    23  C    0.000030  -0.000937   0.000025   0.000058  -0.049946  -0.000007
    24  H    0.000069   0.000199  -0.000009  -0.000002   0.000399   0.000003
    25  C   -0.000000  -0.005953   0.000057   0.000560  -0.060904  -0.000126
    26  H    0.000000  -0.000705   0.000048   0.000667   0.001418  -0.000067
    27  C    0.426546  -0.000270   0.000013   0.000006  -0.000002  -0.000007
    28  H   -0.011832  -0.000003   0.000000   0.000000  -0.000001  -0.000000
    29  H   -0.011375  -0.000031  -0.000006  -0.000001  -0.000000   0.000002
    30  C    0.000036   0.037304   0.440545   0.012141  -0.000009  -0.070879
    31  H   -0.000033   0.013586  -0.010485   0.000042   0.000003   0.000562
    32  C    0.000006   0.094398   0.006175   0.427567  -0.000086  -0.079156
    33  H   -0.000001   0.029650  -0.000464  -0.013243  -0.000043   0.002125
    34  C   -0.000002   0.000407  -0.000005   0.000023   0.434596   0.000004
    35  H   -0.000001  -0.000006   0.000000  -0.000001  -0.007743  -0.000000
    36  H   -0.000000   0.000007  -0.000001  -0.000036  -0.009025   0.000001
    37  H    0.481566   0.000001  -0.000000   0.000000   0.000000  -0.000000
    38  C    0.000001   6.618396  -0.051589  -0.071142   0.000005   0.458448
    39  H   -0.000000  -0.051589   0.472291   0.000703  -0.000000  -0.009206
    40  H    0.000000  -0.071142   0.000703   0.474714   0.000001  -0.011372
    41  H    0.000000   0.000005  -0.000000   0.000001   0.479885   0.000000
    42  H   -0.000000   0.458448  -0.009206  -0.011372   0.000000   0.484164
 Mulliken charges:
               1
     1  C    1.524418
     2  C   -0.913494
     3  C   -1.171898
     4  C    0.745131
     5  H   -0.051404
     6  C    1.701248
     7  C    0.716065
     8  H    0.131620
     9  C   -1.688067
    10  C    1.269685
    11  C   -0.500458
    12  C   -0.740261
    13  C    1.352494
    14  H    0.195853
    15  C   -0.123641
    16  C   -0.601756
    17  C   -0.684237
    18  H    0.156056
    19  C   -0.396845
    20  H    0.040648
    21  C   -0.487198
    22  C   -0.331765
    23  C   -0.521507
    24  H    0.228815
    25  C   -0.366333
    26  H    0.203381
    27  C   -0.528324
    28  H    0.227708
    29  H    0.237433
    30  C   -0.425402
    31  H    0.219408
    32  C   -0.361056
    33  H    0.211425
    34  C   -0.325995
    35  H    0.213727
    36  H    0.220418
    37  H    0.190118
    38  C   -0.408722
    39  H    0.220687
    40  H    0.223194
    41  H    0.201461
    42  H    0.197368
 Sum of Mulliken charges =  -0.00000
 Mulliken charges with hydrogens summed into heavy atoms:
               1
     1  C    1.524418
     2  C   -0.964898
     3  C   -1.040278
     4  C    0.745131
     6  C    1.701248
     7  C    0.716065
     9  C   -1.492214
    10  C    1.269685
    11  C   -0.344402
    12  C   -0.699613
    13  C    1.352494
    15  C    0.105175
    16  C   -0.398375
    17  C   -0.456529
    19  C   -0.159412
    21  C   -0.267790
    22  C   -0.120339
    23  C   -0.307780
    25  C   -0.145915
    27  C   -0.338206
    30  C   -0.204714
    32  C   -0.137862
    34  C   -0.124533
    38  C   -0.211354
 Electronic spatial extent (au):  <R**2>=          10005.6513
 Charge=             -0.0000 electrons
 Dipole moment (field-independent basis, Debye):
    X=             -0.0063    Y=             -0.0126    Z=              0.0053  Tot=              0.0151
 Quadrupole moment (field-independent basis, Debye-Ang):
   XX=           -123.0839   YY=           -126.0308   ZZ=           -144.9009
   XY=              0.0148   XZ=              1.3931   YZ=              6.1115
 Traceless Quadrupole moment (field-independent basis, Debye-Ang):
   XX=              8.2546   YY=              5.3078   ZZ=            -13.5624
   XY=              0.0148   XZ=              1.3931   YZ=              6.1115
 Octapole moment (field-independent basis, Debye-Ang**2):
  XXX=             -0.1074  YYY=             35.3833  ZZZ=              1.7231  XYY=              1.3457
  XXY=            -21.4845  XXZ=             32.6733  XZZ=             -1.1338  YZZ=            -13.9149
  YYZ=            -34.4219  XYZ=              6.1172
 Hexadecapole moment (field-independent basis, Debye-Ang**3):
 XXXX=          -6348.8812 YYYY=          -6251.3191 ZZZZ=           -424.0088 XXXY=              2.9731
 XXXZ=              5.5651 YYYX=              1.7700 YYYZ=             96.3381 ZZZX=             -0.8401
 ZZZY=             26.5269 XXYY=          -2025.7224 XXZZ=          -1237.3841 YYZZ=          -1288.0198
 XXYZ=             32.8423 YYXZ=             30.8640 ZZXY=             -4.0579
 N-N= 1.734419306016D+03 E-N=-5.615176117837D+03  KE= 9.213172420622D+02
 No NMR shielding tensors so no spin-rotation constants.
 Leave Link  601 at Mon Nov 14 15:14:34 2022, MaxMem= 16106127360 cpu:               9.0 elap:               0.4
 (Enter /opt/ap/G16/B01/g16/l9999.exe)
 1\1\GINC-N59\SP\RwB97XD\6-311++G(d,p)\C24H18\ROOT\14-Nov-2022\0\\#P wB
 97XD/6-311++G(d,p) scf=maxcycle=512\\_conf016.gjf nmol_natom 1_42\\0,1
 \C\C,1,1.39412829\C,1,1.39435449,2,118.86443127\C,2,1.39416084,1,121.1
 529487,3,0.03668482,0\H,2,1.08488355,1,119.42236619,3,-179.97409048,0\
 C,1,1.48467131,2,120.55714816,4,179.25839056,0\C,3,1.39437784,1,121.11
 776116,2,-0.05351271,0\H,3,1.08487775,1,119.41869036,2,177.23008049,0\
 C,4,1.39432447,2,118.86473838,1,0.01008406,0\C,4,1.48466627,2,120.5464
 188,1,179.19454736,0\C,6,1.3968498,1,120.7843492,2,-10.,0\C,6,1.396868
 2,1,120.67653841,2,170.,0\C,7,1.48449863,3,120.56496838,1,-179.9632580
 4,0\H,9,1.0848792,4,119.41824946,2,177.22245984,0\C,10,1.39685361,4,12
 0.76946845,2,-42.52368674,0\C,10,1.39686289,4,120.69448769,2,137.43107
 516,0\C,11,1.38888939,6,120.7380073,1,179.94058542,0\H,11,1.0847641,6,
 119.46912378,1,-1.41050605,0\C,12,1.38882428,6,120.76493111,1,-179.950
 82712,0\H,12,1.08482758,6,119.44182626,1,-1.23602505,0\C,13,1.39682899
 ,7,120.74134419,3,42.89023273,0\C,13,1.39683158,7,120.7379111,3,-137.1
 2494058,0\C,15,1.38888263,10,120.742191,4,179.9460119,0\H,15,1.0847633
 4,10,119.47085903,4,-1.40606944,0\C,16,1.38886088,10,120.76338989,4,-1
 79.95592713,0\H,16,1.08483431,10,119.44215232,4,-1.23439681,0\C,17,1.3
 9007919,11,120.20743432,6,0.00349958,0\H,17,1.0843506,11,119.71318733,
 6,179.5011609,0\H,19,1.08435858,12,119.73823132,6,179.53683762,0\C,21,
 1.38882373,13,120.76699356,7,179.99297883,0\H,21,1.0847938,13,119.4352
 623,7,1.32183327,0\C,22,1.38881869,13,120.76647403,7,-179.97118338,0\H
 ,22,1.08479982,13,119.43203605,7,1.34657928,0\C,23,1.39007007,15,120.2
 0732995,10,0.00573957,0\H,23,1.08434813,15,119.71220819,10,179.5072436
 8,0\H,25,1.08436328,16,119.73539424,10,179.53636455,0\H,27,1.08412515,
 17,120.21790854,11,179.98397203,0\C,30,1.39008059,21,120.18795226,13,-
 0.02169059,0\H,30,1.08435324,21,119.73787119,13,-179.52151214,0\H,32,1
 .0843543,22,119.737043,13,-179.52886928,0\H,34,1.08412314,23,120.22152
 803,15,179.98800213,0\H,38,1.08411439,30,120.21547163,21,-179.98600656
 ,0\\Version=ES64L-G16RevB.01\State=1-A\HF=-925.3073762\RMSD=8.350e-09\
 Dipole=0.0031097,0.0019401,0.0046581\Quadrupole=4.3176725,-9.8111287,5
 .4934562,-3.7318896,-1.0738078,-3.3991197\PG=C01 [X(C24H18)]\\@


 IF YOU DON'T HAVE THE LAW - ARGUE THE FACTS.
 IF YOU DON'T HAVE THE FACTS - ARGUE THE LAW.
 IF YOU DON'T HAVE EITHER - POUND THE TABLE.
 Job cpu time:       0 days  1 hours 18 minutes  9.1 seconds.
 Elapsed time:       0 days  0 hours  2 minutes 26.8 seconds.
 File lengths (MBytes):  RWF=    224 Int=      0 D2E=      0 Chk=     26 Scr=      1
 Normal termination of Gaussian 16 at Mon Nov 14 15:14:34 2022.
