 Entering Gaussian System, Link 0=g16
 Input=_conf013.gjf
 Output=_conf013.log
 Initial command:
 /opt/ap/G16/B01/g16/l1.exe "/tmp2/scr/Gau-11078.inp" -scrdir="/tmp2/scr/"
 Entering Link 1 = /opt/ap/G16/B01/g16/l1.exe PID=     11079.
  
 Copyright (c) 1988-2017, Gaussian, Inc.  All Rights Reserved.
  
 This is part of the Gaussian(R) 16 program.  It is based on
 the Gaussian(R) 09 system (copyright 2009, Gaussian, Inc.),
 the Gaussian(R) 03 system (copyright 2003, Gaussian, Inc.),
 the Gaussian(R) 98 system (copyright 1998, Gaussian, Inc.),
 the Gaussian(R) 94 system (copyright 1995, Gaussian, Inc.),
 the Gaussian 92(TM) system (copyright 1992, Gaussian, Inc.),
 the Gaussian 90(TM) system (copyright 1990, Gaussian, Inc.),
 the Gaussian 88(TM) system (copyright 1988, Gaussian, Inc.),
 the Gaussian 86(TM) system (copyright 1986, Carnegie Mellon
 University), and the Gaussian 82(TM) system (copyright 1983,
 Carnegie Mellon University). Gaussian is a federally registered
 trademark of Gaussian, Inc.
  
 This software contains proprietary and confidential information,
 including trade secrets, belonging to Gaussian, Inc.
  
 This software is provided under written license and may be
 used, copied, transmitted, or stored only in accord with that
 written license.
  
 The following legend is applicable only to US Government
 contracts under FAR:
  
                    RESTRICTED RIGHTS LEGEND
  
 Use, reproduction and disclosure by the US Government is
 subject to restrictions as set forth in subparagraphs (a)
 and (c) of the Commercial Computer Software - Restricted
 Rights clause in FAR 52.227-19.
  
 Gaussian, Inc.
 340 Quinnipiac St., Bldg. 40, Wallingford CT 06492
  
  
 ---------------------------------------------------------------
 Warning -- This program may not be used in any manner that
 competes with the business of Gaussian, Inc. or will provide
 assistance to any competitor of Gaussian, Inc.  The licensee
 of this program is prohibited from giving any competitor of
 Gaussian, Inc. access to this program.  By using this program,
 the user acknowledges that Gaussian, Inc. is engaged in the
 business of creating and licensing software in the field of
 computational chemistry and represents and warrants to the
 licensee that it is not a competitor of Gaussian, Inc. and that
 it will not use this program in any manner prohibited above.
 ---------------------------------------------------------------
  

 Cite this work as:
 Gaussian 16, Revision B.01,
 M. J. Frisch, G. W. Trucks, H. B. Schlegel, G. E. Scuseria, 
 M. A. Robb, J. R. Cheeseman, G. Scalmani, V. Barone, 
 G. A. Petersson, H. Nakatsuji, X. Li, M. Caricato, A. V. Marenich, 
 J. Bloino, B. G. Janesko, R. Gomperts, B. Mennucci, H. P. Hratchian, 
 J. V. Ortiz, A. F. Izmaylov, J. L. Sonnenberg, D. Williams-Young, 
 F. Ding, F. Lipparini, F. Egidi, J. Goings, B. Peng, A. Petrone, 
 T. Henderson, D. Ranasinghe, V. G. Zakrzewski, J. Gao, N. Rega, 
 G. Zheng, W. Liang, M. Hada, M. Ehara, K. Toyota, R. Fukuda, 
 J. Hasegawa, M. Ishida, T. Nakajima, Y. Honda, O. Kitao, H. Nakai, 
 T. Vreven, K. Throssell, J. A. Montgomery, Jr., J. E. Peralta, 
 F. Ogliaro, M. J. Bearpark, J. J. Heyd, E. N. Brothers, K. N. Kudin, 
 V. N. Staroverov, T. A. Keith, R. Kobayashi, J. Normand, 
 K. Raghavachari, A. P. Rendell, J. C. Burant, S. S. Iyengar, 
 J. Tomasi, M. Cossi, J. M. Millam, M. Klene, C. Adamo, R. Cammi, 
 J. W. Ochterski, R. L. Martin, K. Morokuma, O. Farkas, 
 J. B. Foresman, and D. J. Fox, Gaussian, Inc., Wallingford CT, 2016.
 
 ******************************************
 Gaussian 16:  ES64L-G16RevB.01 20-Dec-2017
                14-Nov-2022 
 ******************************************
 %nprocshared=32
 Will use up to   32 processors via shared memory.
 %mem=120GB
 %chk=_conf013.chk
 ----------------------------------------
 #P wB97XD/6-311++G(d,p) scf=maxcycle=512
 ----------------------------------------
 1/38=1,172=1/1;
 2/12=2,17=6,18=5,40=1/2;
 3/5=4,6=6,7=1111,11=2,25=1,30=1,74=-58/1,2,3;
 4//1;
 5/5=2,7=512,38=5/2;
 6/7=2,8=2,9=2,10=2,28=1/1;
 99/5=1,9=1/99;
 Leave Link    1 at Mon Nov 14 15:09:28 2022, MaxMem= 16106127360 cpu:               1.4 elap:               0.1
 (Enter /opt/ap/G16/B01/g16/l101.exe)
 ----------------------------
 _conf013.gjf nmol_natom 1_42
 ----------------------------
 Symbolic Z-matrix:
 Charge =  0 Multiplicity = 1
 C
 C                    1     1.39413 
 C                    1     1.39435  2     118.86443 
 C                    2     1.39416  1     121.15295  3     0.03668  0
 H                    2     1.08488  1     119.42237  3    -179.97409  0
 C                    1     1.48467  2     120.55715  4     179.25839  0
 C                    3     1.39438  1     121.11776  2    -0.05351  0
 H                    3     1.08488  1     119.41869  2     177.23008  0
 C                    4     1.39432  2     118.86474  1     0.01008  0
 C                    4     1.48467  2     120.54642  1     179.19455  0
 C                    6     1.39685  1     120.78435  2    -25.      0
 C                    6     1.39687  1     120.67654  2     155.     0
 C                    7     1.4845   3     120.56497  1    -179.96326  0
 H                    9     1.08488  4     119.41825  2     177.22246  0
 C                    10    1.39685  4     120.76947  2    -42.52369  0
 C                    10    1.39686  4     120.69449  2     137.43108  0
 C                    11    1.38889  6     120.73801  1     179.94059  0
 H                    11    1.08476  6     119.46912  1    -1.41051  0
 C                    12    1.38882  6     120.76493  1    -179.95083  0
 H                    12    1.08483  6     119.44183  1    -1.23603  0
 C                    13    1.39683  7     120.74134  3     42.89023  0
 C                    13    1.39683  7     120.73791  3    -137.12494  0
 C                    15    1.38888  10    120.74219  4     179.94601  0
 H                    15    1.08476  10    119.47086  4    -1.40607  0
 C                    16    1.38886  10    120.76339  4    -179.95593  0
 H                    16    1.08483  10    119.44215  4    -1.2344   0
 C                    17    1.39008  11    120.20743  6     0.0035   0
 H                    17    1.08435  11    119.71319  6     179.50116  0
 H                    19    1.08436  12    119.73823  6     179.53684  0
 C                    21    1.38882  13    120.76699  7     179.99298  0
 H                    21    1.08479  13    119.43526  7     1.32183  0
 C                    22    1.38882  13    120.76647  7    -179.97118  0
 H                    22    1.0848   13    119.43204  7     1.34658  0
 C                    23    1.39007  15    120.20733  10    0.00574  0
 H                    23    1.08435  15    119.71221  10    179.50724  0
 H                    25    1.08436  16    119.73539  10    179.53636  0
 H                    27    1.08413  17    120.21791  11    179.98397  0
 C                    30    1.39008  21    120.18795  13   -0.02169  0
 H                    30    1.08435  21    119.73787  13   -179.52151  0
 H                    32    1.08435  22    119.73704  13   -179.52887  0
 H                    34    1.08412  23    120.22153  15    179.988  0
 H                    38    1.08411  30    120.21547  21   -179.98601  0
 
 ITRead=  0  0  0  0  0  0  0  0  0  0  0  0  0  0  0  0  0  0  0  0
 ITRead=  0  0  0  0  0  0  0  0  0  0  0  0  0  0  0  0  0  0  0  0
 ITRead=  0  0
 MicOpt= -1 -1 -1 -1 -1 -1 -1 -1 -1 -1 -1 -1 -1 -1 -1 -1 -1 -1 -1 -1
 MicOpt= -1 -1 -1 -1 -1 -1 -1 -1 -1 -1 -1 -1 -1 -1 -1 -1 -1 -1 -1 -1
 MicOpt= -1 -1
 NAtoms=     42 NQM=       42 NQMF=       0 NMMI=      0 NMMIF=      0
                NMic=       0 NMicF=      0.
                    Isotopes and Nuclear Properties:
 (Nuclear quadrupole moments (NQMom) in fm**2, nuclear magnetic moments (NMagM)
  in nuclear magnetons)

  Atom         1           2           3           4           5           6           7           8           9          10
 IAtWgt=          12          12          12          12           1          12          12           1          12          12
 AtmWgt=  12.0000000  12.0000000  12.0000000  12.0000000   1.0078250  12.0000000  12.0000000   1.0078250  12.0000000  12.0000000
 NucSpn=           0           0           0           0           1           0           0           1           0           0
 AtZEff=  -0.0000000  -0.0000000  -0.0000000  -0.0000000  -0.0000000  -0.0000000  -0.0000000  -0.0000000  -0.0000000  -0.0000000
 NQMom=    0.0000000   0.0000000   0.0000000   0.0000000   0.0000000   0.0000000   0.0000000   0.0000000   0.0000000   0.0000000
 NMagM=    0.0000000   0.0000000   0.0000000   0.0000000   2.7928460   0.0000000   0.0000000   2.7928460   0.0000000   0.0000000
 AtZNuc=   6.0000000   6.0000000   6.0000000   6.0000000   1.0000000   6.0000000   6.0000000   1.0000000   6.0000000   6.0000000

  Atom        11          12          13          14          15          16          17          18          19          20
 IAtWgt=          12          12          12           1          12          12          12           1          12           1
 AtmWgt=  12.0000000  12.0000000  12.0000000   1.0078250  12.0000000  12.0000000  12.0000000   1.0078250  12.0000000   1.0078250
 NucSpn=           0           0           0           1           0           0           0           1           0           1
 AtZEff=  -0.0000000  -0.0000000  -0.0000000  -0.0000000  -0.0000000  -0.0000000  -0.0000000  -0.0000000  -0.0000000  -0.0000000
 NQMom=    0.0000000   0.0000000   0.0000000   0.0000000   0.0000000   0.0000000   0.0000000   0.0000000   0.0000000   0.0000000
 NMagM=    0.0000000   0.0000000   0.0000000   2.7928460   0.0000000   0.0000000   0.0000000   2.7928460   0.0000000   2.7928460
 AtZNuc=   6.0000000   6.0000000   6.0000000   1.0000000   6.0000000   6.0000000   6.0000000   1.0000000   6.0000000   1.0000000

  Atom        21          22          23          24          25          26          27          28          29          30
 IAtWgt=          12          12          12           1          12           1          12           1           1          12
 AtmWgt=  12.0000000  12.0000000  12.0000000   1.0078250  12.0000000   1.0078250  12.0000000   1.0078250   1.0078250  12.0000000
 NucSpn=           0           0           0           1           0           1           0           1           1           0
 AtZEff=  -0.0000000  -0.0000000  -0.0000000  -0.0000000  -0.0000000  -0.0000000  -0.0000000  -0.0000000  -0.0000000  -0.0000000
 NQMom=    0.0000000   0.0000000   0.0000000   0.0000000   0.0000000   0.0000000   0.0000000   0.0000000   0.0000000   0.0000000
 NMagM=    0.0000000   0.0000000   0.0000000   2.7928460   0.0000000   2.7928460   0.0000000   2.7928460   2.7928460   0.0000000
 AtZNuc=   6.0000000   6.0000000   6.0000000   1.0000000   6.0000000   1.0000000   6.0000000   1.0000000   1.0000000   6.0000000

  Atom        31          32          33          34          35          36          37          38          39          40
 IAtWgt=           1          12           1          12           1           1           1          12           1           1
 AtmWgt=   1.0078250  12.0000000   1.0078250  12.0000000   1.0078250   1.0078250   1.0078250  12.0000000   1.0078250   1.0078250
 NucSpn=           1           0           1           0           1           1           1           0           1           1
 AtZEff=  -0.0000000  -0.0000000  -0.0000000  -0.0000000  -0.0000000  -0.0000000  -0.0000000  -0.0000000  -0.0000000  -0.0000000
 NQMom=    0.0000000   0.0000000   0.0000000   0.0000000   0.0000000   0.0000000   0.0000000   0.0000000   0.0000000   0.0000000
 NMagM=    2.7928460   0.0000000   2.7928460   0.0000000   2.7928460   2.7928460   2.7928460   0.0000000   2.7928460   2.7928460
 AtZNuc=   1.0000000   6.0000000   1.0000000   6.0000000   1.0000000   1.0000000   1.0000000   6.0000000   1.0000000   1.0000000

  Atom        41          42
 IAtWgt=           1           1
 AtmWgt=   1.0078250   1.0078250
 NucSpn=           1           1
 AtZEff=  -0.0000000  -0.0000000
 NQMom=    0.0000000   0.0000000
 NMagM=    2.7928460   2.7928460
 AtZNuc=   1.0000000   1.0000000
 Leave Link  101 at Mon Nov 14 15:09:28 2022, MaxMem= 16106127360 cpu:               5.4 elap:               0.2
 (Enter /opt/ap/G16/B01/g16/l202.exe)
                          Input orientation:                          
 ---------------------------------------------------------------------
 Center     Atomic      Atomic             Coordinates (Angstroms)
 Number     Number       Type             X           Y           Z
 ---------------------------------------------------------------------
      1          6           0        0.000000    0.000000    0.000000
      2          6           0        0.000000    0.000000    1.394128
      3          6           0        1.221126    0.000000   -0.673109
      4          6           0        1.193108    0.000764    2.115362
      5          1           0       -0.944957   -0.000427    1.927071
      6          6           0       -1.278366   -0.017366   -0.754803
      7          6           0        2.428476    0.001115    0.024455
      8          1           0        1.232154   -0.045667   -1.756969
      9          6           0        2.400843    0.001752    1.418572
     10          6           0        1.177445    0.018728    3.599837
     11          6           0       -2.439935   -0.540348   -0.181710
     12          6           0       -1.345394    0.489500   -2.054739
     13          6           0        3.721572    0.001921   -0.704680
     14          1           0        3.334061    0.048144    1.969857
     15          6           0        0.290794    0.844275    4.295193
     16          6           0        2.049080   -0.790881    4.331965
     17          6           0       -3.635598   -0.554994   -0.888243
     18          1           0       -2.399881   -0.958882    0.818259
     19          6           0       -2.540487    0.475100   -2.762113
     20          1           0       -0.456908    0.917548   -2.506646
     21          6           0        3.910862    0.818865   -1.821777
     22          6           0        4.776237   -0.814044   -0.288725
     23          6           0        0.275860    0.859807    5.683909
     24          1           0       -0.377402    1.495584    3.742000
     25          6           0        2.035025   -0.775886    5.720674
     26          1           0        2.729408   -1.453102    3.807101
     27          6           0       -3.690403   -0.046678   -2.180888
     28          1           0       -4.525451   -0.972381   -0.430241
     29          1           0       -2.575345    0.879801   -3.767516
     30          6           0        5.120444    0.820149   -2.504230
     31          1           0        3.109266    1.474569   -2.144691
     32          6           0        5.986440   -0.813321   -0.970068
     33          1           0        4.638168   -1.470412    0.563864
     34          6           0        1.147946    0.049642    6.401818
     35          1           0       -0.413890    1.513063    6.206701
     36          1           0        2.713797   -1.416787    6.272362
     37          1           0       -4.623552   -0.058262   -2.732637
     38          6           0        6.162883    0.003944   -2.080611
     39          1           0        5.251831    1.466740   -3.364741
     40          1           0        6.791448   -1.459089   -0.637249
     41          1           0        1.136620    0.061726    7.485815
     42          1           0        7.107346    0.004761   -2.612865
 ---------------------------------------------------------------------
                    Distance matrix (angstroms):
                    1          2          3          4          5
     1  C    0.000000
     2  C    1.394128   0.000000
     3  C    1.394354   2.400962   0.000000
     4  C    2.428634   1.394161   2.788612   0.000000
     5  H    2.146287   1.084884   3.384206   2.146341   0.000000
     6  C    1.484671   2.500485   2.500887   3.787659   2.702572
     7  C    2.428599   2.788100   1.394378   2.428585   3.872983
     8  H    2.146445   3.383741   1.084878   3.872806   4.279487
     9  C    2.788619   2.400968   2.401430   1.394324   3.384222
    10  C    3.787552   2.500376   4.273210   1.484666   2.702426
    11  C    2.505649   2.954408   3.733205   4.332244   2.640725
    12  C    2.504326   3.734218   2.955594   4.906383   4.031773
    13  C    3.787700   4.272598   2.500646   3.787581   5.357482
    14  H    3.872805   3.383747   3.384092   2.146415   4.279508
    15  C    4.387032   3.035381   5.124680   2.505463   2.801537
    16  C    4.856969   3.668120   5.134371   2.504540   3.920790
    17  C    3.783460   4.328373   4.893063   5.713748   3.933584
    18  H    2.710799   2.647736   4.031789   3.938650   2.065163
    19  C    3.782732   4.894296   4.328902   6.160721   4.975970
    20  H    2.708124   4.033200   2.649444   4.992595   4.553978
    21  C    4.391384   5.129076   3.037212   4.853507   6.189029
    22  C    4.853707   5.129045   3.667320   4.391169   6.189006
    23  C    5.755188   4.383786   6.484171   3.783362   4.042800
    24  H    4.047440   2.809218   4.928007   2.710524   2.419532
    25  C    6.121229   4.843792   6.491910   3.782894   4.886007
    26  H    4.904609   3.922195   4.945574   2.708491   4.375585
    27  C    4.286902   5.138287   5.137966   6.504513   4.941147
    28  H    4.648692   4.975294   5.833323   6.334747   4.395628
    29  H    4.647647   5.835154   4.976203   7.041462   5.988429
    30  C    5.758711   6.487587   4.385239   6.118495   7.556379
    31  H    4.054822   4.936104   2.811579   4.898143   5.932249
    32  C    6.118822   6.487555   4.843334   5.758354   7.556353
    33  H    4.898230   4.935996   3.920254   4.054620   5.932156
    34  C    6.504116   5.137821   7.075480   4.286973   4.940255
    35  H    6.401859   5.061770   7.231488   4.648499   4.570330
    36  H    6.979577   5.759266   7.243957   4.647859   5.854410
    37  H    5.371027   6.197646   6.197201   7.572325   5.937026
    38  C    6.504621   7.074953   5.138292   6.504219   8.159837
    39  H    6.407382   7.237395   5.063871   6.975231   8.279857
    40  H    6.975586   7.237348   5.758361   6.406985   8.279819
    41  H    7.571865   6.197125   8.159595   5.371096   5.936031
    42  H    7.572414   8.159067   6.197601   7.571945   9.243951
                    6          7          8          9         10
     6  C    0.000000
     7  C    3.787910   0.000000
     8  H    2.703303   2.146356   0.000000
     9  C    4.273231   1.394392   3.384102   0.000000
    10  C    4.999520   3.787973   5.357472   2.500981   0.000000
    11  C    1.396850   4.902766   4.026212   5.127174   5.262899
    12  C    1.396868   4.336318   2.649306   5.131869   6.209716
    13  C    5.000226   1.484499   2.703105   2.500505   5.000173
    14  H    5.357476   2.146366   4.279725   1.084879   2.703459
    15  C    5.357906   4.849723   6.189251   3.665665   1.396854
    16  C    6.127433   4.396117   6.188524   3.039714   1.396863
    17  C    2.421445   6.157537   4.970825   6.486138   6.605861
    18  H    2.149133   4.986456   4.545045   4.932559   4.635748
    19  C    2.421728   5.716661   3.938823   6.489910   7.382797
    20  H    2.148909   3.946107   2.083921   4.940928   6.384992
    21  C    5.363376   2.504946   2.815510   3.667109   6.124188
    22  C    6.124553   2.504906   3.912375   3.036921   5.363369
    23  C    6.681472   6.115597   7.556523   4.841994   2.421492
    24  H    4.829285   4.891475   5.933362   3.917716   2.149154
    25  C    7.313393   5.762417   7.555989   4.387097   2.421736
    26  H    6.239756   4.063707   5.931401   2.815959   2.148914
    27  C    2.802231   6.504344   4.940776   7.075432   7.557579
    28  H    3.400141   7.036444   5.980720   7.234680   7.053145
    29  H    3.400515   6.339507   4.404070   7.240782   8.312807
    30  C    6.686306   3.783088   4.053003   4.842972   7.310892
    31  H    4.838282   2.709194   2.446425   3.920191   6.233057
    32  C    7.311449   3.783053   4.879728   4.384797   6.686012
    33  H    6.233426   2.709077   4.360860   2.811302   4.838519
    34  C    7.557031   6.504835   8.159779   5.138559   2.802307
    35  H    7.179977   6.970308   8.280044   5.756123   3.400165
    36  H    8.202243   6.413127   8.279214   5.066504   3.400510
    37  H    3.886356   7.572065   5.936444   8.159550   8.588231
    38  C    7.558466   4.286853   4.941589   5.137824   7.557929
    39  H    7.187337   4.648230   4.585860   5.757987   8.197725
    40  H    8.198432   4.648180   5.844424   5.063385   7.187062
    41  H    8.587561   7.572613   9.243902   6.197846   3.886431
    42  H    8.589123   5.370968   5.937422   6.197069   8.588456
                   11         12         13         14         15
    11  C    0.000000
    12  C    2.401427   0.000000
    13  C    6.207392   5.266358   0.000000
    14  H    6.189878   6.187848   2.702860   0.000000
    15  C    5.423719   6.566934   6.121971   3.911840   0.000000
    16  C    6.370815   7.345191   5.365963   2.816859   2.401387
    17  C    1.388889   2.774296   7.380501   7.557027   6.651505
    18  H    1.084764   3.385835   6.380805   5.934506   4.751860
    19  C    2.774838   1.388824   6.608351   7.555405   7.613016
    20  H    3.385733   1.084828   4.641675   5.930126   6.843204
    21  C    6.698500   5.271715   1.396829   3.911930   7.107943
    22  C    7.222154   6.503261   1.396832   2.815037   6.624314
    23  C    6.613733   7.915318   7.309101   4.879095   1.388883
    24  H    4.877967   5.962500   6.229413   4.360107   1.084763
    25  C    7.410728   8.572368   6.688393   4.054029   2.774755
    26  H    6.592863   7.398573   4.843310   2.448430   3.385708
    27  C    2.409169   2.408832   7.557706   8.159704   7.653977
    28  H    2.144247   3.858608   8.308909   8.280934   6.987573
    29  H    3.859166   2.144462   7.057109   8.278295   8.557061
    30  C    8.025234   6.489871   2.421718   4.878996   8.340159
    31  H    6.221480   4.563161   2.148776   4.360587   7.057844
    32  C    8.467574   7.525266   2.421709   4.052208   7.931644
    33  H    7.177775   6.819190   2.148749   2.446125   6.179018
    34  C    7.520892   8.827434   7.558317   4.941800   2.409154
    35  H    7.009504   8.376561   8.194680   5.843284   2.144229
    36  H    8.305669   9.457884   7.190790   4.587189   3.859086
    37  H    3.392317   3.392036   8.588208   9.243829   8.622979
    38  C    8.826696   7.524005   2.802355   4.940696   8.708529
    39  H    8.562906   6.796652   3.400487   5.843645   9.147346
    40  H    9.288166   8.486134   3.400476   4.585006   8.478973
    41  H    8.482050   9.867399   8.588933   5.937569   3.392325
    42  H    9.867027   8.485003   3.886469   5.936405   9.741223
                   16         17         18         19         20
    16  C    0.000000
    17  C    7.721514   0.000000
    18  H    5.671649   2.145291   0.000000
    19  C    8.543581   2.402446   3.859422   0.000000
    20  H    7.480997   3.858974   4.283822   2.145303   0.000000
    21  C    6.627673   7.727097   7.067931   6.528577   4.422240
    22  C    5.365510   8.437150   7.262442   7.830325   5.941667
    23  C    2.774316   7.777811   5.843095   8.911515   8.223471
    24  H    3.385823   6.021616   4.320079   6.929921   6.275829
    25  C    1.388861   8.711059   6.613286   9.718948   8.761635
    26  H    1.084834   7.960286   5.957099   8.639695   7.458954
    27  C    8.712793   1.390079   3.390052   1.390101   3.389888
    28  H    8.120099   1.084351   2.465154   3.387168   4.943312
    29  H    9.475129   3.387180   4.943772   1.084359   2.465561
    30  C    7.665654   9.009478   8.411846   7.673032   5.578203
    31  H    6.942862   7.154787   6.712038   5.770603   3.627517
    32  C    6.604154   9.625853   8.576110   8.807947   6.846438
    33  H    4.622091   8.449959   7.061198   8.147406   6.410163
    34  C    2.408903   8.740302   6.691810   9.887527   9.093380
    35  H    3.858628   8.061916   6.252197   9.275742   8.733779
    36  H    2.144469   9.608942   7.490435  10.621133   9.621511
    37  H    9.745222   2.150485   4.285405   2.150465   4.285346
    38  C    7.660043   9.886576   9.091282   8.742716   6.696105
    39  H    8.636768   9.444938   9.051510   7.878244   5.798935
    40  H    6.901424  10.469177   9.319294   9.764279   7.853771
    41  H    3.392092   9.658119   7.616086  10.895504  10.154853
    42  H    8.628428  10.894883  10.153254   9.660444   7.619869
                   21         22         23         24         25
    21  C    0.000000
    22  C    2.401148   0.000000
    23  C    8.339678   7.663388   0.000000
    24  H    7.057108   6.938381   2.145221   0.000000
    25  C    7.934139   6.605193   2.402396   3.859344   0.000000
    26  H    6.184005   4.623169   3.858996   4.283837   2.145356
    27  C    7.658809   8.709370   8.854829   6.959537   9.785038
    28  H    8.735921   9.304112   7.987010   6.380028   8.995122
    29  H    6.772037   8.307638   9.872142   7.848756  10.678135
    30  C    1.388824   2.774442   9.514051   8.348527   8.928391
    31  H    1.084794   3.385432   8.348239   6.841814   8.251212
    32  C    2.774430   1.388819   8.926672   8.248218   7.770528
    33  H    3.385417   1.084800   7.118603   6.637291   5.818196
    34  C    8.709358   7.659884   1.390070   3.389995   1.390095
    35  H    9.145591   8.633852   1.084348   2.465033   3.387137
    36  H    8.482109   6.903971   3.387136   4.943698   1.084363
    37  H    8.627586   9.741660   9.781888   7.897161  10.784716
    38  C    2.408878   2.408889   9.781478   8.882743   8.860440
    39  H    2.144453   3.858761  10.344405   9.066139   9.895553
    40  H    3.858751   2.144441   9.369482   8.905073   7.969536
    41  H    9.741711   8.628862   2.150513   4.285366   2.150453
    42  H    3.392063   3.392069  10.781315   9.931179   9.787018
                   26         27         28         29         30
    26  H    0.000000
    27  C    8.890895   0.000000
    28  H    8.415411   2.149185   0.000000
    29  H    9.537172   2.149210   4.286129   0.000000
    30  C    7.121630   8.859286  10.027855   7.799013   0.000000
    31  H    6.643746   6.967854   8.198524   5.941557   2.145313
    32  C    5.817122   9.782388  10.526944   9.164962   2.402462
    33  H    3.763276   8.884018   9.230829   8.736082   3.859075
    34  C    3.389959   9.853007   8.939183  10.861281   9.782234
    35  H    4.943333   9.138926   8.193373  10.225356  10.343562
    36  H    2.465578  10.693382   9.875682  11.577931   9.371467
    37  H    9.938801   1.084125   2.479166   2.479130   9.786175
    38  C    6.969712   9.853927  10.858979   8.942561   1.390081
    39  H    8.143918   9.146337  10.495516   7.859479   1.084353
    40  H    6.021000  10.688635  11.329252  10.149176   3.387152
    41  H    4.285396  10.805418   9.787357  11.877937  10.781792
    42  H    7.906179  10.806508  11.876052   9.790475   2.150451
                   31         32         33         34         35
    31  H    0.000000
    32  C    3.859055   0.000000
    33  H    4.283308   2.145356   0.000000
    34  C    8.883693   8.860047   6.969499   0.000000
    35  H    9.064207   9.893547   8.140394   2.149187   0.000000
    36  H    8.908597   7.970392   6.024369   2.149200   4.286112
    37  H    7.905170  10.781868   9.931795  10.805559  10.005102
    38  C    3.389900   1.390094   3.389946   9.854100  10.686951
    39  H    2.465597   3.387150   4.943418  10.688111  11.122726
    40  H    4.943399   1.084354   2.465647   9.147341  10.372571
    41  H    9.931470   9.787155   7.907066   1.084123   2.479233
    42  H    4.285343   2.150458   4.285392  10.806525  11.688828
                   36         37         38         39         40
    36  H    0.000000
    37  H   11.694968   0.000000
    38  C    9.148051  10.806303   0.000000
    39  H   10.374492  10.012411   2.149134   0.000000
    40  H    8.023201  11.689961   2.149152   4.286037   0.000000
    41  H    2.479104  11.730760  10.806626  11.689465  10.013697
    42  H   10.013557  11.731678   1.084114   2.479039   2.479054
                   41         42
    41  H    0.000000
    42  H   11.731844   0.000000
 Stoichiometry    C24H18
 Framework group  C1[X(C24H18)]
 Deg. of freedom   120
 Full point group                 C1      NOp   1
 Largest Abelian subgroup         C1      NOp   1
 Largest concise Abelian subgroup C1      NOp   1
                         Standard orientation:                         
 ---------------------------------------------------------------------
 Center     Atomic      Atomic             Coordinates (Angstroms)
 Number     Number       Type             X           Y           Z
 ---------------------------------------------------------------------
      1          6           0        0.067903    1.399794   -0.040937
      2          6           0       -1.165138    0.750163   -0.006506
      3          6           0        1.232816    0.633524   -0.035337
      4          6           0       -1.246512   -0.641037    0.033784
      5          1           0       -2.077270    1.337502   -0.010969
      6          6           0        0.138979    2.881578   -0.100203
      7          6           0        1.179024   -0.759233    0.004979
      8          1           0        2.195973    1.127563   -0.107549
      9          6           0       -0.066888   -1.384403    0.039544
     10          6           0       -2.566526   -1.318420    0.088117
     11          6           0       -0.916683    3.627340   -0.629926
     12          6           0        1.264219    3.560592    0.373100
     13          6           0        2.427070   -1.563021    0.011312
     14          1           0       -0.118564   -2.465314    0.116514
     15          6           0       -3.584074   -0.835516    0.914312
     16          6           0       -2.818311   -2.452777   -0.687166
     17          6           0       -0.849687    5.013567   -0.683775
     18          1           0       -1.788017    3.114397   -1.022837
     19          6           0        1.332226    4.946714    0.319485
     20          1           0        2.084052    2.997245    0.805956
     21          6           0        3.514296   -1.187322    0.803727
     22          6           0        2.540213   -2.712092   -0.774801
     23          6           0       -4.819085   -1.468988    0.963862
     24          1           0       -3.397772    0.031176    1.539491
     25          6           0       -4.052914   -3.087039   -0.638136
     26          1           0       -2.045610   -2.828151   -1.349655
     27          6           0        0.274824    5.678414   -0.208620
     28          1           0       -1.675407    5.575578   -1.105850
     29          1           0        2.210606    5.457211    0.698531
     30          6           0        4.682106   -1.938993    0.810171
     31          1           0        3.434763   -0.309839    1.436558
     32          6           0        3.707323   -3.464844   -0.768880
     33          1           0        1.712968   -3.005401   -1.412317
     34          6           0       -5.058092   -2.597134    0.187680
     35          1           0       -5.594469   -1.084564    1.617168
     36          1           0       -4.232813   -3.962094   -1.252757
     37          1           0        0.327408    6.760441   -0.250809
     38          6           0        4.782765   -3.080828    0.023785
     39          1           0        5.513111   -1.636353    1.437596
     40          1           0        3.779820   -4.349686   -1.391474
     41          1           0       -6.021957   -3.091900    0.226324
     42          1           0        5.694063   -3.668039    0.028645
 ---------------------------------------------------------------------
 Rotational constants (GHZ):           0.1995208           0.1977249           0.1032143
 Leave Link  202 at Mon Nov 14 15:09:28 2022, MaxMem= 16106127360 cpu:               0.2 elap:               0.0
 (Enter /opt/ap/G16/B01/g16/l301.exe)
 Standard basis: 6-311++G(d,p) (5D, 7F)
 Ernie: Thresh=  0.10000D-02 Tol=  0.10000D-05 Strict=F.
 There are   678 symmetry adapted cartesian basis functions of A   symmetry.
 There are   654 symmetry adapted basis functions of A   symmetry.
   654 basis functions,  1026 primitive gaussians,   678 cartesian basis functions
    81 alpha electrons       81 beta electrons
       nuclear repulsion energy      1733.7713224110 Hartrees.
 IExCor= 4639 DFT=T Ex+Corr=wB97XD ExCW=0 ScaHFX=  1.000000
 ScaDFX=  1.000000  1.000000  1.000000  1.000000 ScalE2=  1.000000  1.000000
 IRadAn=      5 IRanWt=     -1 IRanGd=            0 ICorTp=0 IEmpDi=121
 HFx  wShort=  0.000000 wLong=  0.200000 cFull=  0.222036 cShort=  0.000000 cLong=  0.777964
 DFx  wShort=  0.000000 wLong=  0.200000 cFull=  0.000000 cShort=  0.000000 cLong=  1.000000
 NAtoms=   42 NActive=   42 NUniq=   42 SFac= 1.00D+00 NAtFMM=   60 NAOKFM=F Big=F
 Integral buffers will be    131072 words long.
 Raffenetti 2 integral format.
 Two-electron integral symmetry is turned on.
 R6Disp:  Grimme-D2 Dispersion energy=       -0.0288761224 Hartrees.
 Nuclear repulsion after empirical dispersion term =     1733.7424462886 Hartrees.
 Leave Link  301 at Mon Nov 14 15:09:28 2022, MaxMem= 16106127360 cpu:               1.2 elap:               0.0
 (Enter /opt/ap/G16/B01/g16/l302.exe)
 NPDir=0 NMtPBC=     1 NCelOv=     1 NCel=       1 NClECP=     1 NCelD=      1
         NCelK=      1 NCelE2=     1 NClLst=     1 CellRange=     0.0.
 One-electron integrals computed using PRISM.
 One-electron integral symmetry used in STVInt
 NBasis=   654 RedAO= T EigKep=  1.15D-06  NBF=   654
 NBsUse=   645 1.00D-06 EigRej=  6.86D-07 NBFU=   645
 Precomputing XC quadrature grid using
 IXCGrd= 4 IRadAn=           5 IRanWt=          -1 IRanGd=           0 AccXCQ= 0.00D+00.
 Generated NRdTot=       0 NPtTot=           0 NUsed=           0 NTot=          32
 NSgBfM=   669   669   669   669   669 MxSgAt=    42 MxSgA2=    42.
 Leave Link  302 at Mon Nov 14 15:09:29 2022, MaxMem= 16106127360 cpu:              20.8 elap:               0.7
 (Enter /opt/ap/G16/B01/g16/l303.exe)
 DipDrv:  MaxL=1.
 Leave Link  303 at Mon Nov 14 15:09:29 2022, MaxMem= 16106127360 cpu:               2.8 elap:               0.1
 (Enter /opt/ap/G16/B01/g16/l401.exe)
 ExpMin= 3.60D-02 ExpMax= 4.56D+03 ExpMxC= 6.82D+02 IAcc=3 IRadAn=         5 AccDes= 0.00D+00
 Harris functional with IExCor= 4639 and IRadAn=       5 diagonalized for initial guess.
 HarFok:  IExCor= 4639 AccDes= 0.00D+00 IRadAn=         5 IDoV= 1 UseB2=F ITyADJ=14
 ICtDFT=  3500011 ScaDFX=  1.000000  1.000000  1.000000  1.000000
 FoFCou: FMM=F IPFlag=           0 FMFlag=      100000 FMFlg1=           0
         NFxFlg=           0 DoJE=T BraDBF=F KetDBF=T FulRan=T
         wScrn=  0.000000 ICntrl=       500 IOpCl=  0 I1Cent=   200000004 NGrid=           0
         NMat0=    1 NMatS0=      1 NMatT0=    0 NMatD0=    1 NMtDS0=    0 NMtDT0=    0
 Petite list used in FoFCou.
 Harris En= -882.967425176911    
 JPrj=0 DoOrth=F DoCkMO=F.
 Leave Link  401 at Mon Nov 14 15:09:31 2022, MaxMem= 16106127360 cpu:              54.8 elap:               1.7
 (Enter /opt/ap/G16/B01/g16/l502.exe)
 Integral symmetry usage will be decided dynamically.
 Closed shell SCF:
 Using DIIS extrapolation, IDIIS=  1040.
 NGot= 16106127360 LenX= 16105179956 LenY= 16104719594
 Requested convergence on RMS density matrix=1.00D-08 within 512 cycles.
 Requested convergence on MAX density matrix=1.00D-06.
 Requested convergence on             energy=1.00D-06.
 No special actions if energy rises.
 Fock matrices will be formed incrementally for  20 cycles.

 Cycle   1  Pass 1  IDiag  1:
 FoFJK:  IHMeth= 1 ICntrl=       0 DoSepK=T KAlg= 0 I1Cent=           0 FoldK=F
 IRaf=         1 NMat=       1 IRICut=       1 DoRegI=T DoRafI=F ISym2E= 0 IDoP0=0 IntGTp=1.
 FoFCou: FMM=F IPFlag=           0 FMFlag=      100000 FMFlg1=           0
         NFxFlg=           0 DoJE=T BraDBF=F KetDBF=F FulRan=T
         wScrn=  0.000000 ICntrl=       500 IOpCl=  0 I1Cent=           0 NGrid=           0
         NMat0=    1 NMatS0=      1 NMatT0=    0 NMatD0=    1 NMtDS0=    0 NMtDT0=    0
 Symmetry not used in FoFCou.
 E= -925.114704118373    
 DIIS: error= 4.82D-02 at cycle   1 NSaved=   1.
 NSaved= 1 IEnMin= 1 EnMin= -925.114704118373     IErMin= 1 ErrMin= 4.82D-02
 ErrMax= 4.82D-02  0.00D+00 EMaxC= 1.00D-01 BMatC= 1.90D+00 BMatP= 1.90D+00
 IDIUse=3 WtCom= 5.18D-01 WtEn= 4.82D-01
 Coeff-Com:  0.100D+01
 Coeff-En:   0.100D+01
 Coeff:      0.100D+01
 Gap=     0.309 Goal=   None    Shift=    0.000
 GapD=    0.309 DampG=1.000 DampE=0.500 DampFc=0.5000 IDamp=-1.
 Damping current iteration by 5.00D-01
 RMSDP=3.99D-02 MaxDP=4.90D+00              OVMax= 4.39D-02

 Cycle   2  Pass 1  IDiag  1:
 RMSU=  6.88D-03    CP:  8.10D-01
 E= -925.213452248365     Delta-E=       -0.098748129992 Rises=F Damp=T
 DIIS: error= 2.35D-02 at cycle   2 NSaved=   2.
 NSaved= 2 IEnMin= 2 EnMin= -925.213452248365     IErMin= 2 ErrMin= 2.35D-02
 ErrMax= 2.35D-02  0.00D+00 EMaxC= 1.00D-01 BMatC= 4.32D-01 BMatP= 1.90D+00
 IDIUse=3 WtCom= 7.65D-01 WtEn= 2.35D-01
 Coeff-Com: -0.883D+00 0.188D+01
 Coeff-En:   0.000D+00 0.100D+01
 Coeff:     -0.676D+00 0.168D+01
 Gap=     0.318 Goal=   None    Shift=    0.000
 RMSDP=2.38D-02 MaxDP=2.31D+00 DE=-9.87D-02 OVMax= 3.36D-02

 Cycle   3  Pass 1  IDiag  1:
 RMSU=  4.12D-03    CP:  5.73D-01  1.37D+00
 E= -925.302205284005     Delta-E=       -0.088753035639 Rises=F Damp=F
 DIIS: error= 2.86D-03 at cycle   3 NSaved=   3.
 NSaved= 3 IEnMin= 3 EnMin= -925.302205284005     IErMin= 3 ErrMin= 2.86D-03
 ErrMax= 2.86D-03  0.00D+00 EMaxC= 1.00D-01 BMatC= 8.47D-03 BMatP= 4.32D-01
 IDIUse=3 WtCom= 9.71D-01 WtEn= 2.86D-02
 Coeff-Com: -0.367D+00 0.778D+00 0.588D+00
 Coeff-En:   0.000D+00 0.000D+00 0.100D+01
 Coeff:     -0.356D+00 0.756D+00 0.600D+00
 Gap=     0.316 Goal=   None    Shift=    0.000
 RMSDP=2.30D-03 MaxDP=2.35D-01 DE=-8.88D-02 OVMax= 1.92D-02

 Cycle   4  Pass 1  IDiag  1:
 RMSU=  1.59D-03    CP:  5.74D-01  1.54D+00  7.15D-01
 E= -925.309967045408     Delta-E=       -0.007761761403 Rises=F Damp=F
 DIIS: error= 6.70D-04 at cycle   4 NSaved=   4.
 NSaved= 4 IEnMin= 4 EnMin= -925.309967045408     IErMin= 4 ErrMin= 6.70D-04
 ErrMax= 6.70D-04  0.00D+00 EMaxC= 1.00D-01 BMatC= 2.70D-04 BMatP= 8.47D-03
 IDIUse=3 WtCom= 9.93D-01 WtEn= 6.70D-03
 Coeff-Com: -0.113D+00 0.240D+00 0.236D+00 0.637D+00
 Coeff-En:   0.000D+00 0.000D+00 0.000D+00 0.100D+01
 Coeff:     -0.112D+00 0.238D+00 0.234D+00 0.640D+00
 Gap=     0.314 Goal=   None    Shift=    0.000
 RMSDP=7.51D-04 MaxDP=5.80D-02 DE=-7.76D-03 OVMax= 4.22D-03

 Cycle   5  Pass 1  IDiag  1:
 RMSU=  3.44D-04    CP:  5.69D-01  1.59D+00  7.17D-01  8.18D-01
 E= -925.310251858830     Delta-E=       -0.000284813422 Rises=F Damp=F
 DIIS: error= 2.32D-04 at cycle   5 NSaved=   5.
 NSaved= 5 IEnMin= 5 EnMin= -925.310251858830     IErMin= 5 ErrMin= 2.32D-04
 ErrMax= 2.32D-04  0.00D+00 EMaxC= 1.00D-01 BMatC= 2.03D-05 BMatP= 2.70D-04
 IDIUse=3 WtCom= 9.98D-01 WtEn= 2.32D-03
 Coeff-Com:  0.264D-01-0.562D-01-0.274D-01 0.194D+00 0.863D+00
 Coeff-En:   0.000D+00 0.000D+00 0.000D+00 0.000D+00 0.100D+01
 Coeff:      0.263D-01-0.561D-01-0.273D-01 0.194D+00 0.863D+00
 Gap=     0.315 Goal=   None    Shift=    0.000
 RMSDP=2.02D-04 MaxDP=1.08D-02 DE=-2.85D-04 OVMax= 1.57D-03

 Cycle   6  Pass 1  IDiag  1:
 RMSU=  7.63D-05    CP:  5.68D-01  1.59D+00  7.34D-01  8.97D-01  1.20D+00
 E= -925.310278190929     Delta-E=       -0.000026332099 Rises=F Damp=F
 DIIS: error= 5.38D-05 at cycle   6 NSaved=   6.
 NSaved= 6 IEnMin= 6 EnMin= -925.310278190929     IErMin= 6 ErrMin= 5.38D-05
 ErrMax= 5.38D-05  0.00D+00 EMaxC= 1.00D-01 BMatC= 1.39D-06 BMatP= 2.03D-05
 IDIUse=1 WtCom= 1.00D+00 WtEn= 0.00D+00
 Coeff-Com:  0.133D-01-0.283D-01-0.171D-01 0.536D-01 0.331D+00 0.648D+00
 Coeff:      0.133D-01-0.283D-01-0.171D-01 0.536D-01 0.331D+00 0.648D+00
 Gap=     0.315 Goal=   None    Shift=    0.000
 RMSDP=7.55D-05 MaxDP=8.26D-03 DE=-2.63D-05 OVMax= 3.88D-04

 Cycle   7  Pass 1  IDiag  1:
 RMSU=  4.29D-05    CP:  5.69D-01  1.58D+00  7.36D-01  9.28D-01  1.16D+00
                    CP:  9.63D-01
 E= -925.310279899964     Delta-E=       -0.000001709035 Rises=F Damp=F
 DIIS: error= 1.53D-05 at cycle   7 NSaved=   7.
 NSaved= 7 IEnMin= 7 EnMin= -925.310279899964     IErMin= 7 ErrMin= 1.53D-05
 ErrMax= 1.53D-05  0.00D+00 EMaxC= 1.00D-01 BMatC= 1.04D-07 BMatP= 1.39D-06
 IDIUse=1 WtCom= 1.00D+00 WtEn= 0.00D+00
 Coeff-Com: -0.244D-02 0.522D-02 0.231D-02-0.283D-01-0.104D+00 0.104D+00
 Coeff-Com:  0.102D+01
 Coeff:     -0.244D-02 0.522D-02 0.231D-02-0.283D-01-0.104D+00 0.104D+00
 Coeff:      0.102D+01
 Gap=     0.315 Goal=   None    Shift=    0.000
 RMSDP=1.92D-05 MaxDP=1.31D-03 DE=-1.71D-06 OVMax= 2.69D-04

 Cycle   8  Pass 1  IDiag  1:
 RMSU=  6.01D-06    CP:  5.69D-01  1.59D+00  7.38D-01  9.29D-01  1.19D+00
                    CP:  1.09D+00  1.18D+00
 E= -925.310280140137     Delta-E=       -0.000000240173 Rises=F Damp=F
 DIIS: error= 5.38D-06 at cycle   8 NSaved=   8.
 NSaved= 8 IEnMin= 8 EnMin= -925.310280140137     IErMin= 8 ErrMin= 5.38D-06
 ErrMax= 5.38D-06  0.00D+00 EMaxC= 1.00D-01 BMatC= 6.00D-09 BMatP= 1.04D-07
 IDIUse=1 WtCom= 1.00D+00 WtEn= 0.00D+00
 Coeff-Com: -0.105D-02 0.225D-02 0.120D-02-0.947D-02-0.364D-01 0.129D-01
 Coeff-Com:  0.238D+00 0.793D+00
 Coeff:     -0.105D-02 0.225D-02 0.120D-02-0.947D-02-0.364D-01 0.129D-01
 Coeff:      0.238D+00 0.793D+00
 Gap=     0.315 Goal=   None    Shift=    0.000
 RMSDP=3.20D-06 MaxDP=2.24D-04 DE=-2.40D-07 OVMax= 5.83D-05

 Cycle   9  Pass 1  IDiag  1:
 RMSU=  2.34D-06    CP:  5.69D-01  1.59D+00  7.38D-01  9.29D-01  1.19D+00
                    CP:  1.10D+00  1.22D+00  1.12D+00
 E= -925.310280150074     Delta-E=       -0.000000009937 Rises=F Damp=F
 DIIS: error= 3.03D-06 at cycle   9 NSaved=   9.
 NSaved= 9 IEnMin= 9 EnMin= -925.310280150074     IErMin= 9 ErrMin= 3.03D-06
 ErrMax= 3.03D-06  0.00D+00 EMaxC= 1.00D-01 BMatC= 2.01D-09 BMatP= 6.00D-09
 IDIUse=1 WtCom= 1.00D+00 WtEn= 0.00D+00
 Coeff-Com:  0.114D-03-0.248D-03 0.273D-04 0.271D-02 0.983D-02-0.168D-01
 Coeff-Com: -0.159D+00 0.369D+00 0.794D+00
 Coeff:      0.114D-03-0.248D-03 0.273D-04 0.271D-02 0.983D-02-0.168D-01
 Coeff:     -0.159D+00 0.369D+00 0.794D+00
 Gap=     0.315 Goal=   None    Shift=    0.000
 RMSDP=2.01D-06 MaxDP=1.59D-04 DE=-9.94D-09 OVMax= 4.02D-05

 Cycle  10  Pass 1  IDiag  1:
 RMSU=  6.91D-07    CP:  5.69D-01  1.59D+00  7.38D-01  9.29D-01  1.19D+00
                    CP:  1.10D+00  1.23D+00  1.34D+00  6.61D-01
 E= -925.310280153699     Delta-E=       -0.000000003625 Rises=F Damp=F
 DIIS: error= 9.98D-07 at cycle  10 NSaved=  10.
 NSaved=10 IEnMin=10 EnMin= -925.310280153699     IErMin=10 ErrMin= 9.98D-07
 ErrMax= 9.98D-07  0.00D+00 EMaxC= 1.00D-01 BMatC= 2.23D-10 BMatP= 2.01D-09
 IDIUse=1 WtCom= 1.00D+00 WtEn= 0.00D+00
 Coeff-Com:  0.119D-03-0.256D-03-0.642D-04 0.171D-02 0.618D-02-0.600D-02
 Coeff-Com: -0.759D-01 0.579D-01 0.327D+00 0.689D+00
 Coeff:      0.119D-03-0.256D-03-0.642D-04 0.171D-02 0.618D-02-0.600D-02
 Coeff:     -0.759D-01 0.579D-01 0.327D+00 0.689D+00
 Gap=     0.315 Goal=   None    Shift=    0.000
 RMSDP=4.76D-07 MaxDP=4.63D-05 DE=-3.63D-09 OVMax= 1.04D-05

 Cycle  11  Pass 1  IDiag  1:
 RMSU=  1.39D-07    CP:  5.69D-01  1.59D+00  7.38D-01  9.29D-01  1.19D+00
                    CP:  1.10D+00  1.23D+00  1.34D+00  8.14D-01  1.03D+00
 E= -925.310280153998     Delta-E=       -0.000000000299 Rises=F Damp=F
 DIIS: error= 2.10D-07 at cycle  11 NSaved=  11.
 NSaved=11 IEnMin=11 EnMin= -925.310280153998     IErMin=11 ErrMin= 2.10D-07
 ErrMax= 2.10D-07  0.00D+00 EMaxC= 1.00D-01 BMatC= 3.07D-11 BMatP= 2.23D-10
 IDIUse=1 WtCom= 1.00D+00 WtEn= 0.00D+00
 Coeff-Com:  0.221D-04-0.468D-04-0.201D-04 0.137D-03 0.323D-03 0.111D-02
 Coeff-Com:  0.586D-03-0.553D-01-0.131D-01 0.253D+00 0.813D+00
 Coeff:      0.221D-04-0.468D-04-0.201D-04 0.137D-03 0.323D-03 0.111D-02
 Coeff:      0.586D-03-0.553D-01-0.131D-01 0.253D+00 0.813D+00
 Gap=     0.315 Goal=   None    Shift=    0.000
 RMSDP=2.12D-07 MaxDP=1.85D-05 DE=-2.99D-10 OVMax= 3.26D-06

 Cycle  12  Pass 1  IDiag  1:
 RMSU=  6.02D-08    CP:  5.69D-01  1.59D+00  7.38D-01  9.29D-01  1.19D+00
                    CP:  1.10D+00  1.23D+00  1.36D+00  7.98D-01  1.20D+00
                    CP:  1.20D+00
 E= -925.310280154046     Delta-E=       -0.000000000047 Rises=F Damp=F
 DIIS: error= 8.35D-08 at cycle  12 NSaved=  12.
 NSaved=12 IEnMin=12 EnMin= -925.310280154046     IErMin=12 ErrMin= 8.35D-08
 ErrMax= 8.35D-08  0.00D+00 EMaxC= 1.00D-01 BMatC= 1.36D-12 BMatP= 3.07D-11
 IDIUse=1 WtCom= 1.00D+00 WtEn= 0.00D+00
 Coeff-Com: -0.142D-04 0.307D-04 0.118D-04-0.218D-03-0.802D-03 0.962D-03
 Coeff-Com:  0.941D-02-0.954D-02-0.300D-01-0.647D-01-0.993D-01 0.119D+01
 Coeff:     -0.142D-04 0.307D-04 0.118D-04-0.218D-03-0.802D-03 0.962D-03
 Coeff:      0.941D-02-0.954D-02-0.300D-01-0.647D-01-0.993D-01 0.119D+01
 Gap=     0.315 Goal=   None    Shift=    0.000
 RMSDP=7.61D-08 MaxDP=4.54D-06 DE=-4.73D-11 OVMax= 1.47D-06

 Cycle  13  Pass 1  IDiag  1:
 RMSU=  2.71D-08    CP:  5.69D-01  1.59D+00  7.38D-01  9.29D-01  1.19D+00
                    CP:  1.10D+00  1.23D+00  1.36D+00  7.96D-01  1.26D+00
                    CP:  1.28D+00  1.45D+00
 E= -925.310280154062     Delta-E=       -0.000000000016 Rises=F Damp=F
 DIIS: error= 2.13D-08 at cycle  13 NSaved=  13.
 NSaved=13 IEnMin=13 EnMin= -925.310280154062     IErMin=13 ErrMin= 2.13D-08
 ErrMax= 2.13D-08  0.00D+00 EMaxC= 1.00D-01 BMatC= 1.06D-13 BMatP= 1.36D-12
 IDIUse=1 WtCom= 1.00D+00 WtEn= 0.00D+00
 Coeff-Com: -0.262D-05 0.561D-05 0.274D-05-0.298D-04-0.974D-04 0.595D-04
 Coeff-Com:  0.879D-03 0.156D-02-0.111D-02-0.179D-01-0.732D-01 0.136D+00
 Coeff-Com:  0.954D+00
 Coeff:     -0.262D-05 0.561D-05 0.274D-05-0.298D-04-0.974D-04 0.595D-04
 Coeff:      0.879D-03 0.156D-02-0.111D-02-0.179D-01-0.732D-01 0.136D+00
 Coeff:      0.954D+00
 Gap=     0.315 Goal=   None    Shift=    0.000
 RMSDP=2.26D-08 MaxDP=2.15D-06 DE=-1.59D-11 OVMax= 3.63D-07

 Cycle  14  Pass 1  IDiag  1:
 RMSU=  5.75D-09    CP:  5.69D-01  1.59D+00  7.38D-01  9.29D-01  1.19D+00
                    CP:  1.10D+00  1.23D+00  1.36D+00  7.95D-01  1.27D+00
                    CP:  1.29D+00  1.57D+00  1.28D+00
 E= -925.310280154111     Delta-E=       -0.000000000050 Rises=F Damp=F
 DIIS: error= 6.08D-09 at cycle  14 NSaved=  14.
 NSaved=14 IEnMin=14 EnMin= -925.310280154111     IErMin=14 ErrMin= 6.08D-09
 ErrMax= 6.08D-09  0.00D+00 EMaxC= 1.00D-01 BMatC= 3.47D-14 BMatP= 1.06D-13
 IDIUse=1 WtCom= 1.00D+00 WtEn= 0.00D+00
 Coeff-Com:  0.689D-06-0.153D-05-0.348D-06 0.154D-04 0.632D-04-0.998D-04
 Coeff-Com: -0.854D-03 0.190D-02 0.365D-02 0.104D-02-0.222D-01-0.102D+00
 Coeff-Com:  0.435D+00 0.684D+00
 Coeff:      0.689D-06-0.153D-05-0.348D-06 0.154D-04 0.632D-04-0.998D-04
 Coeff:     -0.854D-03 0.190D-02 0.365D-02 0.104D-02-0.222D-01-0.102D+00
 Coeff:      0.435D+00 0.684D+00
 Gap=     0.315 Goal=   None    Shift=    0.000
 RMSDP=8.07D-09 MaxDP=1.00D-06 DE=-4.96D-11 OVMax= 8.66D-08

 Cycle  15  Pass 1  IDiag  1:
 RMSU=  2.72D-09    CP:  5.69D-01  1.59D+00  7.38D-01  9.29D-01  1.19D+00
                    CP:  1.10D+00  1.23D+00  1.36D+00  7.94D-01  1.27D+00
                    CP:  1.28D+00  1.60D+00  1.39D+00  1.08D+00
 E= -925.310280154068     Delta-E=        0.000000000043 Rises=F Damp=F
 DIIS: error= 2.09D-09 at cycle  15 NSaved=  15.
 NSaved=15 IEnMin=14 EnMin= -925.310280154111     IErMin=15 ErrMin= 2.09D-09
 ErrMax= 2.09D-09  0.00D+00 EMaxC= 1.00D-01 BMatC= 1.71D-15 BMatP= 3.47D-14
 IDIUse=1 WtCom= 1.00D+00 WtEn= 0.00D+00
 Coeff-Com:  0.471D-06-0.102D-05-0.450D-06 0.737D-05 0.277D-04-0.352D-04
 Coeff-Com: -0.323D-03 0.322D-03 0.114D-02 0.249D-02 0.226D-02-0.428D-01
 Coeff-Com:  0.249D-01 0.112D+00 0.900D+00
 Coeff:      0.471D-06-0.102D-05-0.450D-06 0.737D-05 0.277D-04-0.352D-04
 Coeff:     -0.323D-03 0.322D-03 0.114D-02 0.249D-02 0.226D-02-0.428D-01
 Coeff:      0.249D-01 0.112D+00 0.900D+00
 Gap=     0.315 Goal=   None    Shift=    0.000
 RMSDP=3.95D-09 MaxDP=4.20D-07 DE= 4.27D-11 OVMax= 3.41D-08

 SCF Done:  E(RwB97XD) =  -925.310280154     A.U. after   15 cycles
            NFock= 15  Conv=0.39D-08     -V/T= 2.0043
 KE= 9.213060735762D+02 PE=-5.613851588682D+03 EE= 2.033492788663D+03
 Leave Link  502 at Mon Nov 14 15:12:02 2022, MaxMem= 16106127360 cpu:            4826.0 elap:             151.0
 (Enter /opt/ap/G16/B01/g16/l601.exe)
 Copying SCF densities to generalized density rwf, IOpCl= 0 IROHF=0.

 **********************************************************************

            Population analysis using the SCF Density.

 **********************************************************************

 Orbital symmetries:
       Occupied  (A) (A) (A) (A) (A) (A) (A) (A) (A) (A) (A) (A)
                 (A) (A) (A) (A) (A) (A) (A) (A) (A) (A) (A) (A)
                 (A) (A) (A) (A) (A) (A) (A) (A) (A) (A) (A) (A)
                 (A) (A) (A) (A) (A) (A) (A) (A) (A) (A) (A) (A)
                 (A) (A) (A) (A) (A) (A) (A) (A) (A) (A) (A) (A)
                 (A) (A) (A) (A) (A) (A) (A) (A) (A) (A) (A) (A)
                 (A) (A) (A) (A) (A) (A) (A) (A) (A)
       Virtual   (A) (A) (A) (A) (A) (A) (A) (A) (A) (A) (A) (A)
                 (A) (A) (A) (A) (A) (A) (A) (A) (A) (A) (A) (A)
                 (A) (A) (A) (A) (A) (A) (A) (A) (A) (A) (A) (A)
                 (A) (A) (A) (A) (A) (A) (A) (A) (A) (A) (A) (A)
                 (A) (A) (A) (A) (A) (A) (A) (A) (A) (A) (A) (A)
                 (A) (A) (A) (A) (A) (A) (A) (A) (A) (A) (A) (A)
                 (A) (A) (A) (A) (A) (A) (A) (A) (A) (A) (A) (A)
                 (A) (A) (A) (A) (A) (A) (A) (A) (A) (A) (A) (A)
                 (A) (A) (A) (A) (A) (A) (A) (A) (A) (A) (A) (A)
                 (A) (A) (A) (A) (A) (A) (A) (A) (A) (A) (A) (A)
                 (A) (A) (A) (A) (A) (A) (A) (A) (A) (A) (A) (A)
                 (A) (A) (A) (A) (A) (A) (A) (A) (A) (A) (A) (A)
                 (A) (A) (A) (A) (A) (A) (A) (A) (A) (A) (A) (A)
                 (A) (A) (A) (A) (A) (A) (A) (A) (A) (A) (A) (A)
                 (A) (A) (A) (A) (A) (A) (A) (A) (A) (A) (A) (A)
                 (A) (A) (A) (A) (A) (A) (A) (A) (A) (A) (A) (A)
                 (A) (A) (A) (A) (A) (A) (A) (A) (A) (A) (A) (A)
                 (A) (A) (A) (A) (A) (A) (A) (A) (A) (A) (A) (A)
                 (A) (A) (A) (A) (A) (A) (A) (A) (A) (A) (A) (A)
                 (A) (A) (A) (A) (A) (A) (A) (A) (A) (A) (A) (A)
                 (A) (A) (A) (A) (A) (A) (A) (A) (A) (A) (A) (A)
                 (A) (A) (A) (A) (A) (A) (A) (A) (A) (A) (A) (A)
                 (A) (A) (A) (A) (A) (A) (A) (A) (A) (A) (A) (A)
                 (A) (A) (A) (A) (A) (A) (A) (A) (A) (A) (A) (A)
                 (A) (A) (A) (A) (A) (A) (A) (A) (A) (A) (A) (A)
                 (A) (A) (A) (A) (A) (A) (A) (A) (A) (A) (A) (A)
                 (A) (A) (A) (A) (A) (A) (A) (A) (A) (A) (A) (A)
                 (A) (A) (A) (A) (A) (A) (A) (A) (A) (A) (A) (A)
                 (A) (A) (A) (A) (A) (A) (A) (A) (A) (A) (A) (A)
                 (A) (A) (A) (A) (A) (A) (A) (A) (A) (A) (A) (A)
                 (A) (A) (A) (A) (A) (A) (A) (A) (A) (A) (A) (A)
                 (A) (A) (A) (A) (A) (A) (A) (A) (A) (A) (A) (A)
                 (A) (A) (A) (A) (A) (A) (A) (A) (A) (A) (A) (A)
                 (A) (A) (A) (A) (A) (A) (A) (A) (A) (A) (A) (A)
                 (A) (A) (A) (A) (A) (A) (A) (A) (A) (A) (A) (A)
                 (A) (A) (A) (A) (A) (A) (A) (A) (A) (A) (A) (A)
                 (A) (A) (A) (A) (A) (A) (A) (A) (A) (A) (A) (A)
                 (A) (A) (A) (A) (A) (A) (A) (A) (A) (A) (A) (A)
                 (A) (A) (A) (A) (A) (A) (A) (A) (A) (A) (A) (A)
                 (A) (A) (A) (A) (A) (A) (A) (A) (A) (A) (A) (A)
                 (A) (A) (A) (A) (A) (A) (A) (A) (A) (A) (A) (A)
                 (A) (A) (A) (A) (A) (A) (A) (A) (A) (A) (A) (A)
                 (A) (A) (A) (A) (A) (A) (A) (A) (A) (A) (A) (A)
                 (A) (A) (A) (A) (A) (A) (A) (A) (A) (A) (A) (A)
                 (A) (A) (A) (A) (A) (A) (A) (A) (A) (A) (A) (A)
                 (A) (A) (A) (A) (A) (A) (A) (A) (A) (A) (A) (A)
                 (A) (A) (A) (A) (A) (A) (A) (A) (A) (A) (A) (A)
 The electronic state is 1-A.
 Alpha  occ. eigenvalues --  -10.30495 -10.30476 -10.30471 -10.30398 -10.30368
 Alpha  occ. eigenvalues --  -10.30362 -10.29296 -10.29295 -10.29286 -10.29281
 Alpha  occ. eigenvalues --  -10.29279 -10.29264 -10.29217 -10.29208 -10.29202
 Alpha  occ. eigenvalues --  -10.29199 -10.29176 -10.29174 -10.29150 -10.29133
 Alpha  occ. eigenvalues --  -10.29126 -10.29096 -10.29095 -10.29086  -0.99048
 Alpha  occ. eigenvalues --   -0.97109  -0.97094  -0.95299  -0.89494  -0.89480
 Alpha  occ. eigenvalues --   -0.85430  -0.85373  -0.85311  -0.85090  -0.82295
 Alpha  occ. eigenvalues --   -0.82253  -0.73815  -0.73616  -0.71178  -0.70850
 Alpha  occ. eigenvalues --   -0.70168  -0.70021  -0.66723  -0.66628  -0.63760
 Alpha  occ. eigenvalues --   -0.60863  -0.60741  -0.58632  -0.57431  -0.56864
 Alpha  occ. eigenvalues --   -0.54936  -0.54855  -0.54330  -0.54062  -0.52381
 Alpha  occ. eigenvalues --   -0.51819  -0.51776  -0.51558  -0.51187  -0.50982
 Alpha  occ. eigenvalues --   -0.50615  -0.48298  -0.46881  -0.46393  -0.46022
 Alpha  occ. eigenvalues --   -0.45661  -0.44898  -0.44407  -0.43204  -0.43167
 Alpha  occ. eigenvalues --   -0.42973  -0.41815  -0.41447  -0.37316  -0.36548
 Alpha  occ. eigenvalues --   -0.33679  -0.33670  -0.33654  -0.32979  -0.30310
 Alpha  occ. eigenvalues --   -0.29907
 Alpha virt. eigenvalues --    0.01582   0.02061   0.03676   0.04175   0.04237
 Alpha virt. eigenvalues --    0.04539   0.04846   0.04941   0.05058   0.05137
 Alpha virt. eigenvalues --    0.05197   0.05691   0.05923   0.06800   0.07070
 Alpha virt. eigenvalues --    0.07156   0.08011   0.08086   0.08420   0.08776
 Alpha virt. eigenvalues --    0.08967   0.09192   0.09424   0.10527   0.11004
 Alpha virt. eigenvalues --    0.11447   0.12139   0.12384   0.12994   0.13486
 Alpha virt. eigenvalues --    0.13596   0.13889   0.14336   0.14530   0.15439
 Alpha virt. eigenvalues --    0.15744   0.15813   0.15890   0.16152   0.16302
 Alpha virt. eigenvalues --    0.16478   0.16553   0.16990   0.17215   0.17320
 Alpha virt. eigenvalues --    0.17441   0.17715   0.18014   0.18149   0.18405
 Alpha virt. eigenvalues --    0.18423   0.18558   0.18689   0.19089   0.19190
 Alpha virt. eigenvalues --    0.19442   0.19559   0.20006   0.20286   0.20589
 Alpha virt. eigenvalues --    0.20732   0.21082   0.21200   0.21828   0.22031
 Alpha virt. eigenvalues --    0.22089   0.22383   0.22640   0.23177   0.23235
 Alpha virt. eigenvalues --    0.23466   0.23660   0.23736   0.23988   0.24205
 Alpha virt. eigenvalues --    0.24733   0.25029   0.25391   0.25466   0.25481
 Alpha virt. eigenvalues --    0.25992   0.26136   0.26736   0.27014   0.27304
 Alpha virt. eigenvalues --    0.27529   0.27633   0.27779   0.28384   0.28590
 Alpha virt. eigenvalues --    0.28649   0.29144   0.29261   0.29352   0.29524
 Alpha virt. eigenvalues --    0.29682   0.30317   0.30535   0.30705   0.30991
 Alpha virt. eigenvalues --    0.31470   0.32122   0.32403   0.32777   0.33303
 Alpha virt. eigenvalues --    0.33504   0.33601   0.33694   0.34474   0.34636
 Alpha virt. eigenvalues --    0.34809   0.34898   0.35111   0.35392   0.35645
 Alpha virt. eigenvalues --    0.35699   0.36113   0.36472   0.36611   0.36999
 Alpha virt. eigenvalues --    0.37168   0.37543   0.38095   0.38176   0.38353
 Alpha virt. eigenvalues --    0.38587   0.39007   0.39462   0.39576   0.40249
 Alpha virt. eigenvalues --    0.40622   0.40897   0.41024   0.41254   0.41736
 Alpha virt. eigenvalues --    0.42106   0.42356   0.42637   0.42932   0.43802
 Alpha virt. eigenvalues --    0.43950   0.44605   0.44749   0.44880   0.45046
 Alpha virt. eigenvalues --    0.45394   0.46602   0.47634   0.47896   0.48214
 Alpha virt. eigenvalues --    0.48897   0.50220   0.53343   0.54234   0.57321
 Alpha virt. eigenvalues --    0.58393   0.58753   0.59080   0.59189   0.60855
 Alpha virt. eigenvalues --    0.61683   0.62290   0.62540   0.62904   0.63068
 Alpha virt. eigenvalues --    0.63222   0.63452   0.63750   0.63824   0.64197
 Alpha virt. eigenvalues --    0.64407   0.65073   0.65186   0.65444   0.65594
 Alpha virt. eigenvalues --    0.65742   0.66378   0.67213   0.67443   0.68223
 Alpha virt. eigenvalues --    0.68693   0.69162   0.70031   0.70257   0.70455
 Alpha virt. eigenvalues --    0.70795   0.71299   0.71697   0.72058   0.72751
 Alpha virt. eigenvalues --    0.72911   0.73242   0.73987   0.74235   0.74988
 Alpha virt. eigenvalues --    0.75286   0.76011   0.76753   0.77217   0.77821
 Alpha virt. eigenvalues --    0.78450   0.78870   0.79348   0.79653   0.79998
 Alpha virt. eigenvalues --    0.80306   0.80661   0.81398   0.81536   0.82020
 Alpha virt. eigenvalues --    0.82346   0.82460   0.83279   0.83346   0.83980
 Alpha virt. eigenvalues --    0.84383   0.84945   0.85364   0.85511   0.85953
 Alpha virt. eigenvalues --    0.86619   0.86849   0.87776   0.88452   0.88853
 Alpha virt. eigenvalues --    0.90265   0.90448   0.91312   0.92020   0.92478
 Alpha virt. eigenvalues --    0.92669   0.92892   0.93315   0.93695   0.93898
 Alpha virt. eigenvalues --    0.94120   0.94266   0.94844   0.95662   0.96663
 Alpha virt. eigenvalues --    0.96851   0.97804   0.98086   0.98966   0.99499
 Alpha virt. eigenvalues --    1.00112   1.00299   1.00763   1.01263   1.01870
 Alpha virt. eigenvalues --    1.02269   1.02852   1.03791   1.04687   1.04884
 Alpha virt. eigenvalues --    1.05928   1.06204   1.06636   1.07004   1.07274
 Alpha virt. eigenvalues --    1.07967   1.08111   1.08519   1.09096   1.11646
 Alpha virt. eigenvalues --    1.11854   1.12762   1.13060   1.13651   1.13900
 Alpha virt. eigenvalues --    1.14556   1.14816   1.16634   1.17171   1.17310
 Alpha virt. eigenvalues --    1.17906   1.18887   1.19117   1.19368   1.21101
 Alpha virt. eigenvalues --    1.21335   1.22334   1.22612   1.23783   1.23948
 Alpha virt. eigenvalues --    1.24650   1.25100   1.26021   1.28624   1.29206
 Alpha virt. eigenvalues --    1.35622   1.39442   1.40646   1.41432   1.42119
 Alpha virt. eigenvalues --    1.45587   1.46777   1.47353   1.52722   1.55839
 Alpha virt. eigenvalues --    1.56647   1.58175   1.58302   1.58573   1.59050
 Alpha virt. eigenvalues --    1.59133   1.59776   1.60385   1.60885   1.61226
 Alpha virt. eigenvalues --    1.61776   1.62206   1.62783   1.63503   1.63613
 Alpha virt. eigenvalues --    1.64471   1.65548   1.65693   1.65876   1.66324
 Alpha virt. eigenvalues --    1.66544   1.66879   1.67886   1.68626   1.68794
 Alpha virt. eigenvalues --    1.69386   1.72441   1.73121   1.73988   1.74261
 Alpha virt. eigenvalues --    1.74294   1.75251   1.75636   1.76079   1.76357
 Alpha virt. eigenvalues --    1.77431   1.77541   1.80411   1.81104   1.82331
 Alpha virt. eigenvalues --    1.82772   1.82882   1.83772   1.84717   1.85089
 Alpha virt. eigenvalues --    1.86180   1.86339   1.86521   1.86909   1.87448
 Alpha virt. eigenvalues --    1.88362   1.90157   1.92101   1.92655   1.93295
 Alpha virt. eigenvalues --    1.93741   1.94287   1.96867   1.99679   1.99850
 Alpha virt. eigenvalues --    2.00583   2.00787   2.01615   2.02479   2.02830
 Alpha virt. eigenvalues --    2.03104   2.03403   2.04023   2.04409   2.04662
 Alpha virt. eigenvalues --    2.04839   2.04948   2.05624   2.05832   2.05974
 Alpha virt. eigenvalues --    2.07074   2.07347   2.08110   2.09014   2.09286
 Alpha virt. eigenvalues --    2.10749   2.11935   2.12310   2.12970   2.13377
 Alpha virt. eigenvalues --    2.14457   2.15776   2.16292   2.16840   2.17492
 Alpha virt. eigenvalues --    2.17994   2.18949   2.20149   2.20887   2.21223
 Alpha virt. eigenvalues --    2.23690   2.28545   2.30784   2.33954   2.35514
 Alpha virt. eigenvalues --    2.36572   2.36762   2.39036   2.39798   2.42952
 Alpha virt. eigenvalues --    2.43966   2.44405   2.46448   2.47051   2.49082
 Alpha virt. eigenvalues --    2.51497   2.52583   2.52997   2.53699   2.54513
 Alpha virt. eigenvalues --    2.55351   2.56003   2.56447   2.56721   2.58318
 Alpha virt. eigenvalues --    2.58451   2.58593   2.61636   2.62813   2.62903
 Alpha virt. eigenvalues --    2.72604   2.72990   2.73265   2.75791   2.76090
 Alpha virt. eigenvalues --    2.76610   2.77036   2.78370   2.79131   2.79536
 Alpha virt. eigenvalues --    2.80027   2.80213   2.80351   2.80428   2.80741
 Alpha virt. eigenvalues --    2.81713   2.82010   2.82616   2.83027   2.83589
 Alpha virt. eigenvalues --    2.83909   2.84302   2.85272   2.86415   2.87019
 Alpha virt. eigenvalues --    2.87460   2.88275   2.89329   2.89483   2.90097
 Alpha virt. eigenvalues --    2.91719   2.92453   2.92630   2.93063   2.93124
 Alpha virt. eigenvalues --    2.93523   2.94182   2.94894   2.95780   2.97618
 Alpha virt. eigenvalues --    2.99444   3.00132   3.00810   3.01580   3.03341
 Alpha virt. eigenvalues --    3.04326   3.04559   3.04782   3.04901   3.05366
 Alpha virt. eigenvalues --    3.06035   3.06305   3.06988   3.08140   3.11578
 Alpha virt. eigenvalues --    3.12118   3.15670   3.17765   3.19671   3.19917
 Alpha virt. eigenvalues --    3.21034   3.22967   3.25314   3.32011   3.32359
 Alpha virt. eigenvalues --    3.32635   3.33452   3.34903   3.35266   3.37604
 Alpha virt. eigenvalues --    3.47304   3.47957   3.48924   3.49354   3.49443
 Alpha virt. eigenvalues --    3.49636   3.53708   3.54059   3.60768   3.61126
 Alpha virt. eigenvalues --    3.62347   3.63049   3.65020   3.65624   3.66154
 Alpha virt. eigenvalues --    3.73610   3.73729   3.75829   3.76464   3.76793
 Alpha virt. eigenvalues --    3.77499   3.89805   3.91897   3.92822   4.09818
 Alpha virt. eigenvalues --    4.10131   4.10716   4.14500   4.14542   4.14600
 Alpha virt. eigenvalues --    4.24043   4.24308   4.26231   4.26318   4.26794
 Alpha virt. eigenvalues --    4.26955   4.28401   4.29990   4.51910   4.66935
 Alpha virt. eigenvalues --    4.70782   4.93395   4.95271   4.95657   4.99010
 Alpha virt. eigenvalues --   23.67869  23.80615  23.81787  23.88054  24.08511
 Alpha virt. eigenvalues --   24.08574  24.10566  24.10878  24.10971  24.11589
 Alpha virt. eigenvalues --   24.12307  24.13060  24.20582  24.20663  24.21279
 Alpha virt. eigenvalues --   24.23617  24.24241  24.24329  24.24446  24.24752
 Alpha virt. eigenvalues --   24.31253  24.33794  24.33802  24.34616
          Condensed to atoms (all electrons):
               1          2          3          4          5          6
     1  C   16.460609   0.252081  -0.087306  -5.289549  -0.110232   1.899280
     2  C    0.252081  10.980926  -0.240408   1.247810   0.371285  -1.852427
     3  C   -0.087306  -0.240408  13.111263  -1.735218   0.129664  -2.336780
     4  C   -5.289549   1.247810  -1.735218  19.968533  -0.002288  -0.869022
     5  H   -0.110232   0.371285   0.129664  -0.002288   0.762820  -0.094950
     6  C    1.899280  -1.852427  -2.336780  -0.869022  -0.094950  13.575976
     7  C   -4.925933  -1.075540   1.297526  -7.490624   0.048920  -1.052141
     8  H   -0.151663   0.056559   0.327167   0.063656   0.004143   0.010945
     9  C   -1.579301   0.931732   1.053459  -0.249453   0.122609  -1.772285
    10  C   -0.282894  -2.292840  -1.623925   0.400775  -0.003913   0.939908
    11  C   -0.228346   3.273214  -3.823005   0.818874  -0.024818  -0.842356
    12  C   -0.919465  -3.447350   3.810388  -1.077615  -0.000081  -1.363878
    13  C   -0.362526  -1.593099  -2.440261   0.075457  -0.033175   1.261039
    14  H    0.056342  -0.022696   0.044773   0.020123  -0.002532  -0.016891
    15  C    0.398229   1.714996  -0.154865   0.075492  -0.181221   0.110699
    16  C   -0.552277  -1.669861   0.048142  -1.586661   0.054631   0.132885
    17  C   -0.324745  -0.043553   0.285521   0.087258   0.054474  -2.062671
    18  H   -0.011543   0.011892  -0.091949  -0.031062  -0.064917  -0.022596
    19  C    0.083508   0.066431  -0.283814   0.088428  -0.036265  -1.199566
    20  H    0.068860  -0.026281  -0.025032  -0.023217  -0.004810  -0.030958
    21  C    1.746730  -0.350522   1.973426  -0.384641  -0.021498  -0.005767
    22  C   -1.258335   0.256169  -2.469155   0.944214   0.011480   0.059318
    23  C    0.355007   0.445160   0.108817   0.092517  -0.006245   0.040624
    24  H   -0.028731   0.003583  -0.026738   0.025403  -0.037492   0.026366
    25  C   -0.084376  -0.066247   0.067517   0.193726   0.007393  -0.098045
    26  H    0.010001   0.000399  -0.008096   0.129583  -0.005069   0.017413
    27  C   -0.172070  -0.009070  -0.051416  -0.094067   0.022749  -0.129697
    28  H    0.006971  -0.004711   0.008277   0.003472   0.002759   0.004077
    29  H   -0.000126  -0.001088   0.000771   0.003375   0.000126   0.006076
    30  C    0.376628   0.083827   0.635350  -0.293940   0.000694  -0.026577
    31  H   -0.044463  -0.022255  -0.057676   0.026411   0.000145   0.008016
    32  C   -0.141846   0.056058   0.246638   0.256450   0.002693  -0.073482
    33  H    0.004469  -0.016008  -0.025205  -0.107646   0.000513   0.013753
    34  C   -0.080437  -0.081943  -0.036356  -0.319817   0.017325   0.033043
    35  H    0.006385   0.001000   0.001045   0.007105  -0.000967  -0.001130
    36  H    0.001043  -0.000580   0.000681  -0.006443   0.000108  -0.001152
    37  H   -0.001930   0.001522  -0.001975  -0.000134  -0.000488   0.031212
    38  C   -0.012989  -0.027801  -0.176343   0.041244  -0.000655   0.043181
    39  H    0.003226   0.000312   0.005757  -0.000090  -0.000016  -0.003132
    40  H    0.000946   0.000459   0.006992   0.006439  -0.000019  -0.001092
    41  H    0.000635  -0.001108  -0.000922  -0.008338  -0.000311   0.000932
    42  H    0.000495  -0.000767  -0.006967   0.001218  -0.000007   0.001129
               7          8          9         10         11         12
     1  C   -4.925933  -0.151663  -1.579301  -0.282894  -0.228346  -0.919465
     2  C   -1.075540   0.056559   0.931732  -2.292840   3.273214  -3.447350
     3  C    1.297526   0.327167   1.053459  -1.623925  -3.823005   3.810388
     4  C   -7.490624   0.063656  -0.249453   0.400775   0.818874  -1.077615
     5  H    0.048920   0.004143   0.122609  -0.003913  -0.024818  -0.000081
     6  C   -1.052141   0.010945  -1.772285   0.939908  -0.842356  -1.363878
     7  C   19.366219   0.076702   1.425938  -0.839995  -0.705289   0.963095
     8  H    0.076702   0.554456   0.057523  -0.018337   0.036627  -0.119738
     9  C    1.425938   0.057523  12.933405  -3.169064   0.247397   0.211830
    10  C   -0.839995  -0.018337  -3.169064  15.218930   0.078221  -0.003928
    11  C   -0.705289   0.036627   0.247397   0.078221  15.224239  -7.506513
    12  C    0.963095  -0.119738   0.211830  -0.003928  -7.506513  16.737877
    13  C   -0.344742   0.060320  -2.850168   1.442530   0.104955  -0.432622
    14  H   -0.093575  -0.002585   0.322247   0.065413  -0.011547   0.012885
    15  C   -0.909734  -0.001733  -2.672520  -0.307783  -0.388236   0.017145
    16  C    1.233191   0.001629   1.806605  -1.063829   0.098354  -0.014157
    17  C    0.121437   0.020744   0.040080   0.049727  -0.329843   0.373159
    18  H   -0.011372  -0.003862  -0.008117   0.022698   0.557528  -0.034973
    19  C    0.016006  -0.035414  -0.000606  -0.034273   0.614093  -0.856066
    20  H   -0.107901  -0.002789  -0.005700   0.009312   0.011737   0.497962
    21  C   -2.124181  -0.206265  -1.456115   0.104689  -0.105752   0.478327
    22  C    0.140379   0.143966   1.252267   0.015576   0.096159  -0.289843
    23  C   -0.078366  -0.002933   0.408809  -2.100273  -0.098462   0.036618
    24  H   -0.015727  -0.000363  -0.093866  -0.028430  -0.007806  -0.000178
    25  C    0.390878   0.002586   0.670061  -1.800731   0.063998  -0.015672
    26  H   -0.137067  -0.000134  -0.076588   0.015706  -0.011741   0.006598
    27  C   -0.057724  -0.007727   0.009233   0.013239  -0.656051  -0.293080
    28  H    0.003858   0.000354  -0.000124  -0.001184  -0.081462   0.022354
    29  H    0.005002  -0.000808  -0.000478  -0.000261   0.010399  -0.065221
    30  C    0.142536  -0.028340   0.138869  -0.089215   0.029903  -0.023705
    31  H    0.020778   0.001340  -0.027911   0.015628  -0.008608   0.013965
    32  C   -0.000788  -0.003674   0.421590  -0.099754  -0.022284   0.055839
    33  H    0.132440  -0.001062  -0.082883   0.003887   0.008547  -0.012559
    34  C   -0.063341   0.000481  -0.317159  -0.030728  -0.020292  -0.001923
    35  H    0.004103  -0.000047   0.014690   0.018661   0.000560   0.000469
    36  H    0.012602  -0.000019   0.016639   0.004080   0.000864  -0.000118
    37  H   -0.000154   0.000212  -0.000158   0.000504  -0.001165  -0.022369
    38  C   -0.325971   0.003350  -0.120308   0.064595   0.003505  -0.021721
    39  H    0.005394  -0.000826   0.006528  -0.001413  -0.000116   0.001951
    40  H   -0.001712  -0.000163   0.012975  -0.004752  -0.000274   0.000931
    41  H   -0.000839  -0.000000  -0.009709   0.031011  -0.000324   0.000023
    42  H   -0.008915   0.000288  -0.006971   0.001523   0.000089  -0.000598
              13         14         15         16         17         18
     1  C   -0.362526   0.056342   0.398229  -0.552277  -0.324745  -0.011543
     2  C   -1.593099  -0.022696   1.714996  -1.669861  -0.043553   0.011892
     3  C   -2.440261   0.044773  -0.154865   0.048142   0.285521  -0.091949
     4  C    0.075457   0.020123   0.075492  -1.586661   0.087258  -0.031062
     5  H   -0.033175  -0.002532  -0.181221   0.054631   0.054474  -0.064917
     6  C    1.261039  -0.016891   0.110699   0.132885  -2.062671  -0.022596
     7  C   -0.344742  -0.093575  -0.909734   1.233191   0.121437  -0.011372
     8  H    0.060320  -0.002585  -0.001733   0.001629   0.020744  -0.003862
     9  C   -2.850168   0.322247  -2.672520   1.806605   0.040080  -0.008117
    10  C    1.442530   0.065413  -0.307783  -1.063829   0.049727   0.022698
    11  C    0.104955  -0.011547  -0.388236   0.098354  -0.329843   0.557528
    12  C   -0.432622   0.012885   0.017145  -0.014157   0.373159  -0.034973
    13  C   16.053398   0.044717   0.155124  -0.027730   0.021546   0.011885
    14  H    0.044717   0.491116   0.066009  -0.113301  -0.003864  -0.000107
    15  C    0.155124   0.066009  17.449622  -8.370028  -0.105585  -0.011267
    16  C   -0.027730  -0.113301  -8.370028  17.256669   0.030839   0.015755
    17  C    0.021546  -0.003864  -0.105585   0.030839   8.718528  -0.071166
    18  H    0.011885  -0.000107  -0.011267   0.015755  -0.071166   0.555147
    19  C   -0.140493   0.003597   0.045157  -0.017773  -1.094815   0.020546
    20  H   -0.055827  -0.000217  -0.011341   0.006747   0.002432   0.002220
    21  C   -1.474495   0.098307   0.102176  -0.155583  -0.014750   0.002523
    22  C   -1.055866  -0.158823  -0.092806   0.234062   0.012145  -0.000913
    23  C   -0.046297   0.023764  -1.298456   0.054088  -0.023529  -0.007740
    24  H    0.017514  -0.000960   0.622724  -0.073947  -0.005784   0.006099
    25  C   -0.145577  -0.012745  -0.177764  -0.916642   0.004993   0.001406
    26  H    0.000639   0.003232  -0.013435   0.449474  -0.000724   0.000337
    27  C   -0.001980   0.000402  -0.019276   0.002625   0.554853   0.000734
    28  H   -0.000509  -0.000043   0.000417   0.000065   0.418966  -0.014667
    29  H   -0.000127  -0.000010   0.000502  -0.000116   0.003222  -0.000222
    30  C   -1.955186   0.012645  -0.023604   0.034465   0.004543   0.000154
    31  H    0.037841  -0.001070   0.007685  -0.006781   0.000401  -0.000158
    32  C   -1.652663  -0.010898   0.003182  -0.014310  -0.001745  -0.000624
    33  H   -0.008900  -0.002430  -0.006020   0.027254   0.000463   0.000244
    34  C    0.047698  -0.003590   0.182669  -0.153645  -0.000717  -0.002766
    35  H   -0.001473   0.000299  -0.125204   0.015814  -0.000239   0.000177
    36  H   -0.003422  -0.001274   0.001967  -0.087764   0.000049   0.000036
    37  H    0.000390  -0.000000  -0.000365   0.000090  -0.067998   0.001035
    38  C   -0.259734  -0.003489   0.010625  -0.023066   0.000110   0.000086
    39  H    0.019001   0.000172  -0.000405   0.000650  -0.000014   0.000008
    40  H    0.028088  -0.000378  -0.000764   0.002137  -0.000000  -0.000003
    41  H    0.001262   0.000278   0.017208  -0.003565  -0.000008   0.000024
    42  H    0.024657   0.000030   0.000225  -0.000564   0.000004   0.000002
              19         20         21         22         23         24
     1  C    0.083508   0.068860   1.746730  -1.258335   0.355007  -0.028731
     2  C    0.066431  -0.026281  -0.350522   0.256169   0.445160   0.003583
     3  C   -0.283814  -0.025032   1.973426  -2.469155   0.108817  -0.026738
     4  C    0.088428  -0.023217  -0.384641   0.944214   0.092517   0.025403
     5  H   -0.036265  -0.004810  -0.021498   0.011480  -0.006245  -0.037492
     6  C   -1.199566  -0.030958  -0.005767   0.059318   0.040624   0.026366
     7  C    0.016006  -0.107901  -2.124181   0.140379  -0.078366  -0.015727
     8  H   -0.035414  -0.002789  -0.206265   0.143966  -0.002933  -0.000363
     9  C   -0.000606  -0.005700  -1.456115   1.252267   0.408809  -0.093866
    10  C   -0.034273   0.009312   0.104689   0.015576  -2.100273  -0.028430
    11  C    0.614093   0.011737  -0.105752   0.096159  -0.098462  -0.007806
    12  C   -0.856066   0.497962   0.478327  -0.289843   0.036618  -0.000178
    13  C   -0.140493  -0.055827  -1.474495  -1.055866  -0.046297   0.017514
    14  H    0.003597  -0.000217   0.098307  -0.158823   0.023764  -0.000960
    15  C    0.045157  -0.011341   0.102176  -0.092806  -1.298456   0.622724
    16  C   -0.017773   0.006747  -0.155583   0.234062   0.054088  -0.073947
    17  C   -1.094815   0.002432  -0.014750   0.012145  -0.023529  -0.005784
    18  H    0.020546   0.002220   0.002523  -0.000913  -0.007740   0.006099
    19  C    8.430327  -0.026460   0.065359  -0.022614   0.000538   0.002965
    20  H   -0.026460   0.569589   0.068214  -0.031481  -0.000796   0.000244
    21  C    0.065359   0.068214  17.682440  -9.485093   0.006266   0.004477
    22  C   -0.022614  -0.031481  -9.485093  19.093130  -0.005594  -0.003343
    23  C    0.000538  -0.000796   0.006266  -0.005594   8.774637  -0.108382
    24  H    0.002965   0.000244   0.004477  -0.003343  -0.108382   0.493920
    25  C    0.000544   0.000490  -0.000532  -0.011099  -0.324783  -0.012874
    26  H    0.000375   0.000169  -0.004867   0.019535  -0.014039   0.001446
    27  C    0.335377   0.028997   0.002783  -0.002094   0.000800  -0.001895
    28  H    0.002846  -0.000597   0.000068   0.000025  -0.000094  -0.000195
    29  H    0.411020  -0.015186   0.000177   0.000203  -0.000007   0.000017
    30  C   -0.013879   0.017148  -0.415690  -0.419660   0.000081  -0.000672
    31  H   -0.002501  -0.006510   0.458621  -0.002458   0.000081   0.000338
    32  C    0.004512   0.002225   0.422216  -1.268061   0.008285  -0.000915
    33  H   -0.001387  -0.000415  -0.077491   0.534019  -0.000389  -0.000081
    34  C   -0.000139  -0.000174   0.000418  -0.003694  -0.086747   0.025770
    35  H   -0.000020   0.000010  -0.000032   0.000196   0.455155  -0.011078
    36  H   -0.000003   0.000002  -0.000284   0.001243   0.013679  -0.000162
    37  H   -0.067490   0.000866  -0.000221   0.000062  -0.000010   0.000024
    38  C   -0.002065   0.000190  -0.337923   0.299214  -0.000864   0.000317
    39  H    0.000424   0.000416  -0.099679  -0.004094   0.000025  -0.000013
    40  H    0.000031   0.000117   0.014635  -0.115399   0.000056  -0.000005
    41  H   -0.000003   0.000001   0.000106  -0.000354  -0.079154   0.000909
    42  H   -0.000094  -0.000114   0.004743   0.027233  -0.000012   0.000006
              25         26         27         28         29         30
     1  C   -0.084376   0.010001  -0.172070   0.006971  -0.000126   0.376628
     2  C   -0.066247   0.000399  -0.009070  -0.004711  -0.001088   0.083827
     3  C    0.067517  -0.008096  -0.051416   0.008277   0.000771   0.635350
     4  C    0.193726   0.129583  -0.094067   0.003472   0.003375  -0.293940
     5  H    0.007393  -0.005069   0.022749   0.002759   0.000126   0.000694
     6  C   -0.098045   0.017413  -0.129697   0.004077   0.006076  -0.026577
     7  C    0.390878  -0.137067  -0.057724   0.003858   0.005002   0.142536
     8  H    0.002586  -0.000134  -0.007727   0.000354  -0.000808  -0.028340
     9  C    0.670061  -0.076588   0.009233  -0.000124  -0.000478   0.138869
    10  C   -1.800731   0.015706   0.013239  -0.001184  -0.000261  -0.089215
    11  C    0.063998  -0.011741  -0.656051  -0.081462   0.010399   0.029903
    12  C   -0.015672   0.006598  -0.293080   0.022354  -0.065221  -0.023705
    13  C   -0.145577   0.000639  -0.001980  -0.000509  -0.000127  -1.955186
    14  H   -0.012745   0.003232   0.000402  -0.000043  -0.000010   0.012645
    15  C   -0.177764  -0.013435  -0.019276   0.000417   0.000502  -0.023604
    16  C   -0.916642   0.449474   0.002625   0.000065  -0.000116   0.034465
    17  C    0.004993  -0.000724   0.554853   0.418966   0.003222   0.004543
    18  H    0.001406   0.000337   0.000734  -0.014667  -0.000222   0.000154
    19  C    0.000544   0.000375   0.335377   0.002846   0.411020  -0.013879
    20  H    0.000490   0.000169   0.028997  -0.000597  -0.015186   0.017148
    21  C   -0.000532  -0.004867   0.002783   0.000068   0.000177  -0.415690
    22  C   -0.011099   0.019535  -0.002094   0.000025   0.000203  -0.419660
    23  C   -0.324783  -0.014039   0.000800  -0.000094  -0.000007   0.000081
    24  H   -0.012874   0.001446  -0.001895  -0.000195   0.000017  -0.000672
    25  C    8.258145  -0.082301  -0.000029  -0.000027  -0.000006   0.008611
    26  H   -0.082301   0.497249  -0.000183   0.000022   0.000001  -0.000113
    27  C   -0.000029  -0.000183   6.614991  -0.060950  -0.057099  -0.001965
    28  H   -0.000027   0.000022  -0.060950   0.476829   0.001367  -0.000003
    29  H   -0.000006   0.000001  -0.057099   0.001367   0.475806  -0.000033
    30  C    0.008611  -0.000113  -0.001965  -0.000003  -0.000033   8.080205
    31  H   -0.001495   0.000046  -0.001125   0.000037   0.000497  -0.111888
    32  C   -0.026927   0.003076   0.000747   0.000007  -0.000114  -0.310829
    33  H   -0.002708  -0.005660   0.000028  -0.000009   0.000009  -0.018333
    34  C    0.080120   0.019702  -0.000352   0.000119   0.000008  -0.000800
    35  H    0.015170  -0.000539   0.000090  -0.000017  -0.000001   0.000036
    36  H    0.430499  -0.010765   0.000008  -0.000002  -0.000000   0.000033
    37  H   -0.000004   0.000000   0.469105  -0.010812  -0.010717  -0.000060
    38  C   -0.005741  -0.000198  -0.000373   0.000003   0.000074   0.190968
    39  H    0.000049   0.000050   0.000060  -0.000001  -0.000028   0.436941
    40  H    0.000642   0.000462   0.000007   0.000000  -0.000002   0.020257
    41  H   -0.073107   0.001440  -0.000003   0.000001   0.000000  -0.000009
    42  H   -0.000139  -0.000039  -0.000007   0.000000   0.000003  -0.081803
              31         32         33         34         35         36
     1  C   -0.044463  -0.141846   0.004469  -0.080437   0.006385   0.001043
     2  C   -0.022255   0.056058  -0.016008  -0.081943   0.001000  -0.000580
     3  C   -0.057676   0.246638  -0.025205  -0.036356   0.001045   0.000681
     4  C    0.026411   0.256450  -0.107646  -0.319817   0.007105  -0.006443
     5  H    0.000145   0.002693   0.000513   0.017325  -0.000967   0.000108
     6  C    0.008016  -0.073482   0.013753   0.033043  -0.001130  -0.001152
     7  C    0.020778  -0.000788   0.132440  -0.063341   0.004103   0.012602
     8  H    0.001340  -0.003674  -0.001062   0.000481  -0.000047  -0.000019
     9  C   -0.027911   0.421590  -0.082883  -0.317159   0.014690   0.016639
    10  C    0.015628  -0.099754   0.003887  -0.030728   0.018661   0.004080
    11  C   -0.008608  -0.022284   0.008547  -0.020292   0.000560   0.000864
    12  C    0.013965   0.055839  -0.012559  -0.001923   0.000469  -0.000118
    13  C    0.037841  -1.652663  -0.008900   0.047698  -0.001473  -0.003422
    14  H   -0.001070  -0.010898  -0.002430  -0.003590   0.000299  -0.001274
    15  C    0.007685   0.003182  -0.006020   0.182669  -0.125204   0.001967
    16  C   -0.006781  -0.014310   0.027254  -0.153645   0.015814  -0.087764
    17  C    0.000401  -0.001745   0.000463  -0.000717  -0.000239   0.000049
    18  H   -0.000158  -0.000624   0.000244  -0.002766   0.000177   0.000036
    19  C   -0.002501   0.004512  -0.001387  -0.000139  -0.000020  -0.000003
    20  H   -0.006510   0.002225  -0.000415  -0.000174   0.000010   0.000002
    21  C    0.458621   0.422216  -0.077491   0.000418  -0.000032  -0.000284
    22  C   -0.002458  -1.268061   0.534019  -0.003694   0.000196   0.001243
    23  C    0.000081   0.008285  -0.000389  -0.086747   0.455155   0.013679
    24  H    0.000338  -0.000915  -0.000081   0.025770  -0.011078  -0.000162
    25  C   -0.001495  -0.026927  -0.002708   0.080120   0.015170   0.430499
    26  H    0.000046   0.003076  -0.005660   0.019702  -0.000539  -0.010765
    27  C   -0.001125   0.000747   0.000028  -0.000352   0.000090   0.000008
    28  H    0.000037   0.000007  -0.000009   0.000119  -0.000017  -0.000002
    29  H    0.000497  -0.000114   0.000009   0.000008  -0.000001  -0.000000
    30  C   -0.111888  -0.310829  -0.018333  -0.000800   0.000036   0.000033
    31  H    0.493222  -0.011460   0.000611   0.000274  -0.000015  -0.000008
    32  C   -0.011460   8.103053  -0.081128  -0.004865   0.000053   0.000327
    33  H    0.000611  -0.081128   0.498308   0.000529   0.000024   0.000377
    34  C    0.000274  -0.004865   0.000529   6.840521  -0.081319  -0.059251
    35  H   -0.000015   0.000053   0.000024  -0.081319   0.475082   0.000967
    36  H   -0.000008   0.000327   0.000377  -0.059251   0.000967   0.472581
    37  H   -0.000036   0.000011   0.000002  -0.000005   0.000001   0.000000
    38  C    0.017236   0.132451   0.032107   0.000371  -0.000010   0.000011
    39  H   -0.011634   0.016282  -0.000704  -0.000006   0.000000  -0.000001
    40  H   -0.000498   0.432692  -0.013301   0.000001  -0.000001  -0.000027
    41  H    0.000005  -0.000113  -0.000019   0.460872  -0.010040  -0.010339
    42  H    0.001468  -0.091954   0.002386   0.000009  -0.000000  -0.000000
              37         38         39         40         41         42
     1  C   -0.001930  -0.012989   0.003226   0.000946   0.000635   0.000495
     2  C    0.001522  -0.027801   0.000312   0.000459  -0.001108  -0.000767
     3  C   -0.001975  -0.176343   0.005757   0.006992  -0.000922  -0.006967
     4  C   -0.000134   0.041244  -0.000090   0.006439  -0.008338   0.001218
     5  H   -0.000488  -0.000655  -0.000016  -0.000019  -0.000311  -0.000007
     6  C    0.031212   0.043181  -0.003132  -0.001092   0.000932   0.001129
     7  C   -0.000154  -0.325971   0.005394  -0.001712  -0.000839  -0.008915
     8  H    0.000212   0.003350  -0.000826  -0.000163  -0.000000   0.000288
     9  C   -0.000158  -0.120308   0.006528   0.012975  -0.009709  -0.006971
    10  C    0.000504   0.064595  -0.001413  -0.004752   0.031011   0.001523
    11  C   -0.001165   0.003505  -0.000116  -0.000274  -0.000324   0.000089
    12  C   -0.022369  -0.021721   0.001951   0.000931   0.000023  -0.000598
    13  C    0.000390  -0.259734   0.019001   0.028088   0.001262   0.024657
    14  H   -0.000000  -0.003489   0.000172  -0.000378   0.000278   0.000030
    15  C   -0.000365   0.010625  -0.000405  -0.000764   0.017208   0.000225
    16  C    0.000090  -0.023066   0.000650   0.002137  -0.003565  -0.000564
    17  C   -0.067998   0.000110  -0.000014  -0.000000  -0.000008   0.000004
    18  H    0.001035   0.000086   0.000008  -0.000003   0.000024   0.000002
    19  C   -0.067490  -0.002065   0.000424   0.000031  -0.000003  -0.000094
    20  H    0.000866   0.000190   0.000416   0.000117   0.000001  -0.000114
    21  C   -0.000221  -0.337923  -0.099679   0.014635   0.000106   0.004743
    22  C    0.000062   0.299214  -0.004094  -0.115399  -0.000354   0.027233
    23  C   -0.000010  -0.000864   0.000025   0.000056  -0.079154  -0.000012
    24  H    0.000024   0.000317  -0.000013  -0.000005   0.000909   0.000006
    25  C   -0.000004  -0.005741   0.000049   0.000642  -0.073107  -0.000139
    26  H    0.000000  -0.000198   0.000050   0.000462   0.001440  -0.000039
    27  C    0.469105  -0.000373   0.000060   0.000007  -0.000003  -0.000007
    28  H   -0.010812   0.000003  -0.000001   0.000000   0.000001   0.000000
    29  H   -0.010717   0.000074  -0.000028  -0.000002   0.000000   0.000003
    30  C   -0.000060   0.190968   0.436941   0.020257  -0.000009  -0.081803
    31  H   -0.000036   0.017236  -0.011634  -0.000498   0.000005   0.001468
    32  C    0.000011   0.132451   0.016282   0.432692  -0.000113  -0.091954
    33  H    0.000002   0.032107  -0.000704  -0.013301  -0.000019   0.002386
    34  C   -0.000005   0.000371  -0.000006   0.000001   0.460872   0.000009
    35  H    0.000001  -0.000010   0.000000  -0.000001  -0.010040  -0.000000
    36  H    0.000000   0.000011  -0.000001  -0.000027  -0.010339  -0.000000
    37  H    0.487447  -0.000003   0.000000   0.000000   0.000000  -0.000000
    38  C   -0.000003   6.591306  -0.062533  -0.079207   0.000008   0.473828
    39  H    0.000000  -0.062533   0.474978   0.001225  -0.000000  -0.011231
    40  H    0.000000  -0.079207   0.001225   0.476083  -0.000001  -0.012661
    41  H    0.000000   0.000008  -0.000000  -0.000001   0.484027   0.000000
    42  H   -0.000000   0.473828  -0.011231  -0.012661   0.000000   0.487669
 Mulliken charges:
               1
     1  C    0.919635
     2  C   -0.909262
     3  C   -1.459763
     4  C    0.992260
     5  H    0.017439
     6  C    1.640725
     7  C    0.964623
     8  H    0.165434
     9  C   -1.605003
    10  C    1.280911
    11  C   -0.404974
    12  C   -0.718043
    13  C    1.478808
    14  H    0.196672
    15  C   -0.109441
    16  C   -0.654570
    17  C   -0.653745
    18  H    0.179487
    19  C   -0.356348
    20  H    0.087859
    21  C   -0.515319
    22  C   -0.439813
    23  C   -0.541837
    24  H    0.227513
    25  C   -0.337258
    26  H    0.194601
    27  C   -0.438589
    28  H    0.222515
    29  H    0.232995
    30  C   -0.397588
    31  H    0.213904
    32  C   -0.349954
    33  H    0.204367
    34  C   -0.359862
    35  H    0.215039
    36  H    0.223820
    37  H    0.193611
    38  C   -0.443787
    39  H    0.222489
    40  H    0.225083
    41  H    0.199526
    42  H    0.195838
 Sum of Mulliken charges =  -0.00000
 Mulliken charges with hydrogens summed into heavy atoms:
               1
     1  C    0.919635
     2  C   -0.891822
     3  C   -1.294329
     4  C    0.992260
     6  C    1.640725
     7  C    0.964623
     9  C   -1.408331
    10  C    1.280911
    11  C   -0.225487
    12  C   -0.630184
    13  C    1.478808
    15  C    0.118072
    16  C   -0.459969
    17  C   -0.431231
    19  C   -0.123353
    21  C   -0.301415
    22  C   -0.235446
    23  C   -0.326798
    25  C   -0.113437
    27  C   -0.244978
    30  C   -0.175099
    32  C   -0.124870
    34  C   -0.160337
    38  C   -0.247949
 Electronic spatial extent (au):  <R**2>=          10005.7115
 Charge=             -0.0000 electrons
 Dipole moment (field-independent basis, Debye):
    X=             -0.0107    Y=             -0.0068    Z=              0.0026  Tot=              0.0130
 Quadrupole moment (field-independent basis, Debye-Ang):
   XX=           -124.2697   YY=           -126.1382   ZZ=           -143.6868
   XY=              0.0321   XZ=              3.0881   YZ=              6.0244
 Traceless Quadrupole moment (field-independent basis, Debye-Ang):
   XX=              7.0952   YY=              5.2267   ZZ=            -12.3219
   XY=              0.0321   XZ=              3.0881   YZ=              6.0244
 Octapole moment (field-independent basis, Debye-Ang**2):
  XXX=             -2.1953  YYY=             34.7360  ZZZ=              1.1290  XYY=              4.9010
  XXY=            -26.4501  XXZ=             33.9563  XZZ=             -2.5391  YZZ=             -8.4264
  YYZ=            -35.0954  XYZ=             11.4937
 Hexadecapole moment (field-independent basis, Debye-Ang**3):
 XXXX=          -6323.2280 YYYY=          -6255.1825 ZZZZ=           -464.3376 XXXY=              7.9473
 XXXZ=             10.8748 YYYX=              2.0614 YYYZ=             90.9778 ZZZX=              2.2222
 ZZZY=             23.5423 XXYY=          -2045.7403 XXZZ=          -1230.4181 YYZZ=          -1268.2755
 XXYZ=             39.1605 YYXZ=             65.7302 ZZXY=             -8.7057
 N-N= 1.733742446289D+03 E-N=-5.613851588545D+03  KE= 9.213060735762D+02
 No NMR shielding tensors so no spin-rotation constants.
 Leave Link  601 at Mon Nov 14 15:12:02 2022, MaxMem= 16106127360 cpu:               8.9 elap:               0.3
 (Enter /opt/ap/G16/B01/g16/l9999.exe)
 1\1\GINC-N60\SP\RwB97XD\6-311++G(d,p)\C24H18\ROOT\14-Nov-2022\0\\#P wB
 97XD/6-311++G(d,p) scf=maxcycle=512\\_conf013.gjf nmol_natom 1_42\\0,1
 \C\C,1,1.39412829\C,1,1.39435449,2,118.86443127\C,2,1.39416084,1,121.1
 529487,3,0.03668482,0\H,2,1.08488355,1,119.42236619,3,-179.97409048,0\
 C,1,1.48467131,2,120.55714816,4,179.25839056,0\C,3,1.39437784,1,121.11
 776116,2,-0.05351271,0\H,3,1.08487775,1,119.41869036,2,177.23008049,0\
 C,4,1.39432447,2,118.86473838,1,0.01008406,0\C,4,1.48466627,2,120.5464
 188,1,179.19454736,0\C,6,1.3968498,1,120.7843492,2,-25.,0\C,6,1.396868
 2,1,120.67653841,2,155.,0\C,7,1.48449863,3,120.56496838,1,-179.9632580
 4,0\H,9,1.0848792,4,119.41824946,2,177.22245984,0\C,10,1.39685361,4,12
 0.76946845,2,-42.52368674,0\C,10,1.39686289,4,120.69448769,2,137.43107
 516,0\C,11,1.38888939,6,120.7380073,1,179.94058542,0\H,11,1.0847641,6,
 119.46912378,1,-1.41050605,0\C,12,1.38882428,6,120.76493111,1,-179.950
 82712,0\H,12,1.08482758,6,119.44182626,1,-1.23602505,0\C,13,1.39682899
 ,7,120.74134419,3,42.89023273,0\C,13,1.39683158,7,120.7379111,3,-137.1
 2494058,0\C,15,1.38888263,10,120.742191,4,179.9460119,0\H,15,1.0847633
 4,10,119.47085903,4,-1.40606944,0\C,16,1.38886088,10,120.76338989,4,-1
 79.95592713,0\H,16,1.08483431,10,119.44215232,4,-1.23439681,0\C,17,1.3
 9007919,11,120.20743432,6,0.00349958,0\H,17,1.0843506,11,119.71318733,
 6,179.5011609,0\H,19,1.08435858,12,119.73823132,6,179.53683762,0\C,21,
 1.38882373,13,120.76699356,7,179.99297883,0\H,21,1.0847938,13,119.4352
 623,7,1.32183327,0\C,22,1.38881869,13,120.76647403,7,-179.97118338,0\H
 ,22,1.08479982,13,119.43203605,7,1.34657928,0\C,23,1.39007007,15,120.2
 0732995,10,0.00573957,0\H,23,1.08434813,15,119.71220819,10,179.5072436
 8,0\H,25,1.08436328,16,119.73539424,10,179.53636455,0\H,27,1.08412515,
 17,120.21790854,11,179.98397203,0\C,30,1.39008059,21,120.18795226,13,-
 0.02169059,0\H,30,1.08435324,21,119.73787119,13,-179.52151214,0\H,32,1
 .0843543,22,119.737043,13,-179.52886928,0\H,34,1.08412314,23,120.22152
 803,15,179.98800213,0\H,38,1.08411439,30,120.21547163,21,-179.98600656
 ,0\\Version=ES64L-G16RevB.01\State=1-A\HF=-925.3102802\RMSD=3.950e-09\
 Dipole=0.0004163,0.000902,0.0049979\Quadrupole=4.0589752,-8.8399229,4.
 7809477,-3.1146662,-0.7118143,-4.4512446\PG=C01 [X(C24H18)]\\@


 THOSE WHO ASPIRE NOT TO GUESS AND DIVINE,
 BUT TO DISCOVER AND KNOW, WHO PROPOSE NOT TO DEVISE 
 MIMIC AND FABULOUS WORLDS OF THEIR OWN, BUT TO 
 EXAMINE AND DISSECT THE NATURE OF THIS VERY WORLD 
 ITSELF, MUST GO TO THE FACTS THEMSELVES FOR EVERYTHING.

                               -- FRANCIS BACON, 1620
 Job cpu time:       0 days  1 hours 22 minutes  3.8 seconds.
 Elapsed time:       0 days  0 hours  2 minutes 34.2 seconds.
 File lengths (MBytes):  RWF=    224 Int=      0 D2E=      0 Chk=     26 Scr=      1
 Normal termination of Gaussian 16 at Mon Nov 14 15:12:02 2022.
