 Entering Gaussian System, Link 0=g16
 Input=_conf010.gjf
 Output=_conf010.log
 Initial command:
 /opt/ap/G16/B01/g16/l1.exe "/tmp2/scr/Gau-12086.inp" -scrdir="/tmp2/scr/"
 Entering Link 1 = /opt/ap/G16/B01/g16/l1.exe PID=     12087.
  
 Copyright (c) 1988-2017, Gaussian, Inc.  All Rights Reserved.
  
 This is part of the Gaussian(R) 16 program.  It is based on
 the Gaussian(R) 09 system (copyright 2009, Gaussian, Inc.),
 the Gaussian(R) 03 system (copyright 2003, Gaussian, Inc.),
 the Gaussian(R) 98 system (copyright 1998, Gaussian, Inc.),
 the Gaussian(R) 94 system (copyright 1995, Gaussian, Inc.),
 the Gaussian 92(TM) system (copyright 1992, Gaussian, Inc.),
 the Gaussian 90(TM) system (copyright 1990, Gaussian, Inc.),
 the Gaussian 88(TM) system (copyright 1988, Gaussian, Inc.),
 the Gaussian 86(TM) system (copyright 1986, Carnegie Mellon
 University), and the Gaussian 82(TM) system (copyright 1983,
 Carnegie Mellon University). Gaussian is a federally registered
 trademark of Gaussian, Inc.
  
 This software contains proprietary and confidential information,
 including trade secrets, belonging to Gaussian, Inc.
  
 This software is provided under written license and may be
 used, copied, transmitted, or stored only in accord with that
 written license.
  
 The following legend is applicable only to US Government
 contracts under FAR:
  
                    RESTRICTED RIGHTS LEGEND
  
 Use, reproduction and disclosure by the US Government is
 subject to restrictions as set forth in subparagraphs (a)
 and (c) of the Commercial Computer Software - Restricted
 Rights clause in FAR 52.227-19.
  
 Gaussian, Inc.
 340 Quinnipiac St., Bldg. 40, Wallingford CT 06492
  
  
 ---------------------------------------------------------------
 Warning -- This program may not be used in any manner that
 competes with the business of Gaussian, Inc. or will provide
 assistance to any competitor of Gaussian, Inc.  The licensee
 of this program is prohibited from giving any competitor of
 Gaussian, Inc. access to this program.  By using this program,
 the user acknowledges that Gaussian, Inc. is engaged in the
 business of creating and licensing software in the field of
 computational chemistry and represents and warrants to the
 licensee that it is not a competitor of Gaussian, Inc. and that
 it will not use this program in any manner prohibited above.
 ---------------------------------------------------------------
  

 Cite this work as:
 Gaussian 16, Revision B.01,
 M. J. Frisch, G. W. Trucks, H. B. Schlegel, G. E. Scuseria, 
 M. A. Robb, J. R. Cheeseman, G. Scalmani, V. Barone, 
 G. A. Petersson, H. Nakatsuji, X. Li, M. Caricato, A. V. Marenich, 
 J. Bloino, B. G. Janesko, R. Gomperts, B. Mennucci, H. P. Hratchian, 
 J. V. Ortiz, A. F. Izmaylov, J. L. Sonnenberg, D. Williams-Young, 
 F. Ding, F. Lipparini, F. Egidi, J. Goings, B. Peng, A. Petrone, 
 T. Henderson, D. Ranasinghe, V. G. Zakrzewski, J. Gao, N. Rega, 
 G. Zheng, W. Liang, M. Hada, M. Ehara, K. Toyota, R. Fukuda, 
 J. Hasegawa, M. Ishida, T. Nakajima, Y. Honda, O. Kitao, H. Nakai, 
 T. Vreven, K. Throssell, J. A. Montgomery, Jr., J. E. Peralta, 
 F. Ogliaro, M. J. Bearpark, J. J. Heyd, E. N. Brothers, K. N. Kudin, 
 V. N. Staroverov, T. A. Keith, R. Kobayashi, J. Normand, 
 K. Raghavachari, A. P. Rendell, J. C. Burant, S. S. Iyengar, 
 J. Tomasi, M. Cossi, J. M. Millam, M. Klene, C. Adamo, R. Cammi, 
 J. W. Ochterski, R. L. Martin, K. Morokuma, O. Farkas, 
 J. B. Foresman, and D. J. Fox, Gaussian, Inc., Wallingford CT, 2016.
 
 ******************************************
 Gaussian 16:  ES64L-G16RevB.01 20-Dec-2017
                14-Nov-2022 
 ******************************************
 %nprocshared=32
 Will use up to   32 processors via shared memory.
 %mem=120GB
 %chk=_conf010.chk
 ----------------------------------------
 #P wB97XD/6-311++G(d,p) scf=maxcycle=512
 ----------------------------------------
 1/38=1,172=1/1;
 2/12=2,17=6,18=5,40=1/2;
 3/5=4,6=6,7=1111,11=2,25=1,30=1,74=-58/1,2,3;
 4//1;
 5/5=2,7=512,38=5/2;
 6/7=2,8=2,9=2,10=2,28=1/1;
 99/5=1,9=1/99;
 Leave Link    1 at Mon Nov 14 15:07:03 2022, MaxMem= 16106127360 cpu:               2.7 elap:               0.1
 (Enter /opt/ap/G16/B01/g16/l101.exe)
 ----------------------------
 _conf010.gjf nmol_natom 1_42
 ----------------------------
 Symbolic Z-matrix:
 Charge =  0 Multiplicity = 1
 C
 C                    1     1.39413 
 C                    1     1.39435  2     118.86443 
 C                    2     1.39416  1     121.15295  3     0.03668  0
 H                    2     1.08488  1     119.42237  3    -179.97409  0
 C                    1     1.48467  2     120.55715  4     179.25839  0
 C                    3     1.39438  1     121.11776  2    -0.05351  0
 H                    3     1.08488  1     119.41869  2     177.23008  0
 C                    4     1.39432  2     118.86474  1     0.01008  0
 C                    4     1.48467  2     120.54642  1     179.19455  0
 C                    6     1.39685  1     120.78435  2    -40.      0
 C                    6     1.39687  1     120.67654  2     140.     0
 C                    7     1.4845   3     120.56497  1    -179.96326  0
 H                    9     1.08488  4     119.41825  2     177.22246  0
 C                    10    1.39685  4     120.76947  2    -42.52369  0
 C                    10    1.39686  4     120.69449  2     137.43108  0
 C                    11    1.38889  6     120.73801  1     179.94059  0
 H                    11    1.08476  6     119.46912  1    -1.41051  0
 C                    12    1.38882  6     120.76493  1    -179.95083  0
 H                    12    1.08483  6     119.44183  1    -1.23603  0
 C                    13    1.39683  7     120.74134  3     42.89023  0
 C                    13    1.39683  7     120.73791  3    -137.12494  0
 C                    15    1.38888  10    120.74219  4     179.94601  0
 H                    15    1.08476  10    119.47086  4    -1.40607  0
 C                    16    1.38886  10    120.76339  4    -179.95593  0
 H                    16    1.08483  10    119.44215  4    -1.2344   0
 C                    17    1.39008  11    120.20743  6     0.0035   0
 H                    17    1.08435  11    119.71319  6     179.50116  0
 H                    19    1.08436  12    119.73823  6     179.53684  0
 C                    21    1.38882  13    120.76699  7     179.99298  0
 H                    21    1.08479  13    119.43526  7     1.32183  0
 C                    22    1.38882  13    120.76647  7    -179.97118  0
 H                    22    1.0848   13    119.43204  7     1.34658  0
 C                    23    1.39007  15    120.20733  10    0.00574  0
 H                    23    1.08435  15    119.71221  10    179.50724  0
 H                    25    1.08436  16    119.73539  10    179.53636  0
 H                    27    1.08413  17    120.21791  11    179.98397  0
 C                    30    1.39008  21    120.18795  13   -0.02169  0
 H                    30    1.08435  21    119.73787  13   -179.52151  0
 H                    32    1.08435  22    119.73704  13   -179.52887  0
 H                    34    1.08412  23    120.22153  15    179.988  0
 H                    38    1.08411  30    120.21547  21   -179.98601  0
 
 ITRead=  0  0  0  0  0  0  0  0  0  0  0  0  0  0  0  0  0  0  0  0
 ITRead=  0  0  0  0  0  0  0  0  0  0  0  0  0  0  0  0  0  0  0  0
 ITRead=  0  0
 MicOpt= -1 -1 -1 -1 -1 -1 -1 -1 -1 -1 -1 -1 -1 -1 -1 -1 -1 -1 -1 -1
 MicOpt= -1 -1 -1 -1 -1 -1 -1 -1 -1 -1 -1 -1 -1 -1 -1 -1 -1 -1 -1 -1
 MicOpt= -1 -1
 NAtoms=     42 NQM=       42 NQMF=       0 NMMI=      0 NMMIF=      0
                NMic=       0 NMicF=      0.
                    Isotopes and Nuclear Properties:
 (Nuclear quadrupole moments (NQMom) in fm**2, nuclear magnetic moments (NMagM)
  in nuclear magnetons)

  Atom         1           2           3           4           5           6           7           8           9          10
 IAtWgt=          12          12          12          12           1          12          12           1          12          12
 AtmWgt=  12.0000000  12.0000000  12.0000000  12.0000000   1.0078250  12.0000000  12.0000000   1.0078250  12.0000000  12.0000000
 NucSpn=           0           0           0           0           1           0           0           1           0           0
 AtZEff=  -0.0000000  -0.0000000  -0.0000000  -0.0000000  -0.0000000  -0.0000000  -0.0000000  -0.0000000  -0.0000000  -0.0000000
 NQMom=    0.0000000   0.0000000   0.0000000   0.0000000   0.0000000   0.0000000   0.0000000   0.0000000   0.0000000   0.0000000
 NMagM=    0.0000000   0.0000000   0.0000000   0.0000000   2.7928460   0.0000000   0.0000000   2.7928460   0.0000000   0.0000000
 AtZNuc=   6.0000000   6.0000000   6.0000000   6.0000000   1.0000000   6.0000000   6.0000000   1.0000000   6.0000000   6.0000000

  Atom        11          12          13          14          15          16          17          18          19          20
 IAtWgt=          12          12          12           1          12          12          12           1          12           1
 AtmWgt=  12.0000000  12.0000000  12.0000000   1.0078250  12.0000000  12.0000000  12.0000000   1.0078250  12.0000000   1.0078250
 NucSpn=           0           0           0           1           0           0           0           1           0           1
 AtZEff=  -0.0000000  -0.0000000  -0.0000000  -0.0000000  -0.0000000  -0.0000000  -0.0000000  -0.0000000  -0.0000000  -0.0000000
 NQMom=    0.0000000   0.0000000   0.0000000   0.0000000   0.0000000   0.0000000   0.0000000   0.0000000   0.0000000   0.0000000
 NMagM=    0.0000000   0.0000000   0.0000000   2.7928460   0.0000000   0.0000000   0.0000000   2.7928460   0.0000000   2.7928460
 AtZNuc=   6.0000000   6.0000000   6.0000000   1.0000000   6.0000000   6.0000000   6.0000000   1.0000000   6.0000000   1.0000000

  Atom        21          22          23          24          25          26          27          28          29          30
 IAtWgt=          12          12          12           1          12           1          12           1           1          12
 AtmWgt=  12.0000000  12.0000000  12.0000000   1.0078250  12.0000000   1.0078250  12.0000000   1.0078250   1.0078250  12.0000000
 NucSpn=           0           0           0           1           0           1           0           1           1           0
 AtZEff=  -0.0000000  -0.0000000  -0.0000000  -0.0000000  -0.0000000  -0.0000000  -0.0000000  -0.0000000  -0.0000000  -0.0000000
 NQMom=    0.0000000   0.0000000   0.0000000   0.0000000   0.0000000   0.0000000   0.0000000   0.0000000   0.0000000   0.0000000
 NMagM=    0.0000000   0.0000000   0.0000000   2.7928460   0.0000000   2.7928460   0.0000000   2.7928460   2.7928460   0.0000000
 AtZNuc=   6.0000000   6.0000000   6.0000000   1.0000000   6.0000000   1.0000000   6.0000000   1.0000000   1.0000000   6.0000000

  Atom        31          32          33          34          35          36          37          38          39          40
 IAtWgt=           1          12           1          12           1           1           1          12           1           1
 AtmWgt=   1.0078250  12.0000000   1.0078250  12.0000000   1.0078250   1.0078250   1.0078250  12.0000000   1.0078250   1.0078250
 NucSpn=           1           0           1           0           1           1           1           0           1           1
 AtZEff=  -0.0000000  -0.0000000  -0.0000000  -0.0000000  -0.0000000  -0.0000000  -0.0000000  -0.0000000  -0.0000000  -0.0000000
 NQMom=    0.0000000   0.0000000   0.0000000   0.0000000   0.0000000   0.0000000   0.0000000   0.0000000   0.0000000   0.0000000
 NMagM=    2.7928460   0.0000000   2.7928460   0.0000000   2.7928460   2.7928460   2.7928460   0.0000000   2.7928460   2.7928460
 AtZNuc=   1.0000000   6.0000000   1.0000000   6.0000000   1.0000000   1.0000000   1.0000000   6.0000000   1.0000000   1.0000000

  Atom        41          42
 IAtWgt=           1           1
 AtmWgt=   1.0078250   1.0078250
 NucSpn=           1           1
 AtZEff=  -0.0000000  -0.0000000
 NQMom=    0.0000000   0.0000000
 NMagM=    2.7928460   2.7928460
 AtZNuc=   1.0000000   1.0000000
 Leave Link  101 at Mon Nov 14 15:07:03 2022, MaxMem= 16106127360 cpu:               5.5 elap:               0.2
 (Enter /opt/ap/G16/B01/g16/l202.exe)
                          Input orientation:                          
 ---------------------------------------------------------------------
 Center     Atomic      Atomic             Coordinates (Angstroms)
 Number     Number       Type             X           Y           Z
 ---------------------------------------------------------------------
      1          6           0        0.000000    0.000000    0.000000
      2          6           0        0.000000    0.000000    1.394128
      3          6           0        1.221126    0.000000   -0.673109
      4          6           0        1.193108    0.000764    2.115362
      5          1           0       -0.944957   -0.000427    1.927071
      6          6           0       -1.278366   -0.017366   -0.754803
      7          6           0        2.428476    0.001115    0.024455
      8          1           0        1.232154   -0.045667   -1.756969
      9          6           0        2.400843    0.001752    1.418572
     10          6           0        1.177445    0.018728    3.599837
     11          6           0       -2.350780   -0.803372   -0.326655
     12          6           0       -1.434649    0.752822   -1.909631
     13          6           0        3.721572    0.001921   -0.704680
     14          1           0        3.334061    0.048144    1.969857
     15          6           0        0.290794    0.844275    4.295193
     16          6           0        2.049080   -0.790881    4.331965
     17          6           0       -3.546663   -0.817947   -1.032818
     18          1           0       -2.238208   -1.425007    0.555168
     19          6           0       -2.630015    0.738746   -2.616551
     20          1           0       -0.618279    1.384119   -2.244077
     21          6           0        3.910862    0.818865   -1.821777
     22          6           0        4.776237   -0.814044   -0.288725
     23          6           0        0.275860    0.859807    5.683909
     24          1           0       -0.377402    1.495584    3.742000
     25          6           0        2.035025   -0.775886    5.720674
     26          1           0        2.729408   -1.453102    3.807101
     27          6           0       -3.690891   -0.046370   -2.180069
     28          1           0       -4.365679   -1.440484   -0.690068
     29          1           0       -2.735718    1.348915   -3.506693
     30          6           0        5.120444    0.820149   -2.504230
     31          1           0        3.109266    1.474569   -2.144691
     32          6           0        5.986440   -0.813321   -0.970068
     33          1           0        4.638168   -1.470412    0.563864
     34          6           0        1.147946    0.049642    6.401818
     35          1           0       -0.413890    1.513063    6.206701
     36          1           0        2.713797   -1.416787    6.272362
     37          1           0       -4.624197   -0.057818   -2.731555
     38          6           0        6.162883    0.003944   -2.080611
     39          1           0        5.251831    1.466740   -3.364741
     40          1           0        6.791448   -1.459089   -0.637249
     41          1           0        1.136620    0.061726    7.485815
     42          1           0        7.107346    0.004761   -2.612865
 ---------------------------------------------------------------------
                    Distance matrix (angstroms):
                    1          2          3          4          5
     1  C    0.000000
     2  C    1.394128   0.000000
     3  C    1.394354   2.400962   0.000000
     4  C    2.428634   1.394161   2.788612   0.000000
     5  H    2.146287   1.084884   3.384206   2.146341   0.000000
     6  C    1.484671   2.500485   2.500887   3.787659   2.702572
     7  C    2.428599   2.788100   1.394378   2.428585   3.872983
     8  H    2.146445   3.383741   1.084878   3.872806   4.279487
     9  C    2.788619   2.400968   2.401430   1.394324   3.384222
    10  C    3.787552   2.500376   4.273210   1.484666   2.702426
    11  C    2.505649   3.022031   3.677493   4.378267   2.774948
    12  C    2.504326   3.679644   3.024710   4.865312   3.940490
    13  C    3.787700   4.272598   2.500646   3.787581   5.357482
    14  H    3.872805   3.383747   3.384092   2.146415   4.279508
    15  C    4.387032   3.035381   5.124680   2.505463   2.801537
    16  C    4.856969   3.668120   5.134371   2.504540   3.920790
    17  C    3.783460   4.374691   4.850798   5.748630   4.024692
    18  H    2.710799   2.782818   3.937804   4.030007   2.363058
    19  C    3.782732   4.852656   4.376528   6.127959   4.902070
    20  H    2.708124   3.941395   2.786958   4.919299   4.407058
    21  C    4.391384   5.129076   3.037212   4.853507   6.189029
    22  C    4.853707   5.129045   3.667320   4.391169   6.189006
    23  C    5.755188   4.383786   6.484171   3.783362   4.042800
    24  H    4.047440   2.809218   4.928007   2.710524   2.419532
    25  C    6.121229   4.843792   6.491910   3.782894   4.886007
    26  H    4.904609   3.922195   4.945574   2.708491   4.375585
    27  C    4.286902   5.138065   5.138189   6.504336   4.940735
    28  H    4.648692   5.047575   5.769547   6.391224   4.541422
    29  H    4.647647   5.772502   5.050286   6.990042   5.878209
    30  C    5.758711   6.487587   4.385239   6.118495   7.556379
    31  H    4.054822   4.936104   2.811579   4.898143   5.932249
    32  C    6.118822   6.487555   4.843334   5.758354   7.556353
    33  H    4.898230   4.935996   3.920254   4.054620   5.932156
    34  C    6.504116   5.137821   7.075480   4.286973   4.940255
    35  H    6.401859   5.061770   7.231488   4.648499   4.570330
    36  H    6.979577   5.759266   7.243957   4.647859   5.854410
    37  H    5.371027   6.197403   6.197446   7.572124   5.936572
    38  C    6.504621   7.074953   5.138292   6.504219   8.159837
    39  H    6.407382   7.237395   5.063871   6.975231   8.279857
    40  H    6.975586   7.237348   5.758361   6.406985   8.279819
    41  H    7.571865   6.197125   8.159595   5.371096   5.936031
    42  H    7.572414   8.159067   6.197601   7.571945   9.243951
                    6          7          8          9         10
     6  C    0.000000
     7  C    3.787910   0.000000
     8  H    2.703303   2.146356   0.000000
     9  C    4.273231   1.394392   3.384102   0.000000
    10  C    4.999520   3.787973   5.357472   2.500981   0.000000
    11  C    1.396850   4.859194   3.931581   5.125619   5.342430
    12  C    1.396868   4.385144   2.787961   5.133424   6.141349
    13  C    5.000226   1.484499   2.703105   2.500505   5.000173
    14  H    5.357476   2.146366   4.279725   1.084879   2.703459
    15  C    5.357906   4.849723   6.189251   3.665665   1.396854
    16  C    6.127433   4.396117   6.188524   3.039714   1.396863
    17  C    2.421445   6.122987   4.894681   6.484909   6.669236
    18  H    2.149133   4.908504   4.392262   4.929696   4.798027
    19  C    2.421728   5.753897   4.033674   6.491141   7.325207
    20  H    2.148909   4.042480   2.388652   4.943787   6.264204
    21  C    5.363376   2.504946   2.815510   3.667109   6.124188
    22  C    6.124553   2.504906   3.912375   3.036921   5.363369
    23  C    6.681472   6.115597   7.556523   4.841994   2.421492
    24  H    4.829285   4.891475   5.933362   3.917716   2.149154
    25  C    7.313393   5.762417   7.555989   4.387097   2.421736
    26  H    6.239756   4.063707   5.931401   2.815959   2.148914
    27  C    2.802231   6.504523   4.941192   7.075433   7.557264
    28  H    3.400141   6.982069   5.866815   7.232719   7.159525
    29  H    3.400515   6.399568   4.555261   7.242745   8.221011
    30  C    6.686306   3.783088   4.053003   4.842972   7.310892
    31  H    4.838282   2.709194   2.446425   3.920191   6.233057
    32  C    7.311449   3.783053   4.879728   4.384797   6.686012
    33  H    6.233426   2.709077   4.360860   2.811302   4.838519
    34  C    7.557031   6.504835   8.159779   5.138559   2.802307
    35  H    7.179977   6.970308   8.280044   5.756123   3.400165
    36  H    8.202243   6.413127   8.279214   5.066504   3.400510
    37  H    3.886356   7.572268   5.936902   8.159552   8.587865
    38  C    7.558466   4.286853   4.941589   5.137824   7.557929
    39  H    7.187337   4.648230   4.585860   5.757987   8.197725
    40  H    8.198432   4.648180   5.844424   5.063385   7.187062
    41  H    8.587561   7.572613   9.243902   6.197846   3.886431
    42  H    8.589123   5.370968   5.937422   6.197069   8.588456
                   11         12         13         14         15
    11  C    0.000000
    12  C    2.401427   0.000000
    13  C    6.137170   5.348119   0.000000
    14  H    6.190030   6.187697   2.702860   0.000000
    15  C    5.572624   6.440913   6.121971   3.911840   0.000000
    16  C    6.407938   7.312791   5.365963   2.816859   2.401387
    17  C    1.388889   2.774296   7.321686   7.557151   6.773239
    18  H    1.084764   3.385835   6.256382   5.934787   5.053047
    19  C    2.774838   1.388824   6.673890   7.555281   7.504297
    20  H    3.385733   1.084828   4.807756   5.929845   6.624191
    21  C    6.638916   5.346641   1.396829   3.911930   7.107943
    22  C    7.127127   6.607384   1.396832   2.815037   6.624314
    23  C    6.766999   7.784544   7.309101   4.879095   1.388883
    24  H    5.072807   5.797447   6.229413   4.360107   1.084763
    25  C    7.470357   8.520396   6.688393   4.054029   2.774755
    26  H    6.581672   7.408542   4.843310   2.448430   3.385708
    27  C    2.409169   2.408832   7.558022   8.159704   7.653502
    28  H    2.144247   3.858608   8.214887   8.281136   7.194143
    29  H    3.859166   2.144462   7.166747   8.278093   8.383548
    30  C    7.949644   6.582349   2.421718   4.878996   8.340159
    31  H    6.189214   4.606879   2.148776   4.360587   7.057844
    32  C    8.362016   7.642522   2.421709   4.052208   7.931644
    33  H    7.076960   6.923876   2.148749   2.446125   6.179018
    34  C    7.631583   8.731806   7.558317   4.941800   2.409154
    35  H    7.197371   8.215519   8.194680   5.843284   2.144229
    36  H    8.341057   9.426654   7.190790   4.587189   3.859086
    37  H    3.392317   3.392036   8.588576   9.243828   8.622418
    38  C    8.729868   7.636266   2.802355   4.940696   8.708529
    39  H    8.496062   6.880120   3.400487   5.843645   9.147346
    40  H    9.170975   8.612792   3.400476   4.585006   8.478973
    41  H    8.599130   9.765420   8.588933   5.937569   3.392325
    42  H    9.764015   8.603477   3.886469   5.936405   9.741223
                   16         17         18         19         20
    16  C    0.000000
    17  C    7.752030   0.000000
    18  H    5.748665   2.145291   0.000000
    19  C    8.515607   2.402446   3.859422   0.000000
    20  H    7.422248   3.858974   4.283822   2.145303   0.000000
    21  C    6.627673   7.675695   6.963899   6.589473   4.583772
    22  C    5.365510   8.356097   7.091394   7.917228   6.144601
    23  C    2.774316   7.908284   6.151821   8.795249   7.995458
    24  H    3.385823   6.180253   4.706203   6.788095   5.991958
    25  C    1.388861   8.761659   6.735305   9.672954   8.668501
    26  H    1.084834   7.950931   5.937429   8.648174   7.474863
    27  C    8.712529   1.390079   3.390052   1.390101   3.389888
    28  H    8.172633   1.084351   2.465154   3.387168   4.943312
    29  H    9.429613   3.387180   4.943772   1.084359   2.465561
    30  C    7.665654   8.942435   8.279516   7.751700   5.772233
    31  H    6.942862   7.126940   6.655242   5.805465   3.729966
    32  C    6.604154   9.533310   8.387212   8.908597   7.076309
    33  H    4.622091   8.364602   6.876531   8.235405   6.607807
    34  C    2.408903   8.835490   6.915486   9.801981   8.924791
    35  H    3.858628   8.225479   6.625724   9.130200   8.454232
    36  H    2.144469   9.639378   7.563645  10.593178   9.564389
    37  H    9.744912   2.150485   4.285405   2.150465   4.285346
    38  C    7.660043   9.800442   8.920065   8.839809   6.922121
    39  H    8.636768   9.384623   8.934683   7.950676   5.976697
    40  H    6.901424  10.365523   9.108112   9.874820   8.097517
    41  H    3.392092   9.760843   7.850714  10.802948   9.974928
    42  H    8.628428  10.801912   9.970959   9.764985   7.856456
                   21         22         23         24         25
    21  C    0.000000
    22  C    2.401148   0.000000
    23  C    8.339678   7.663388   0.000000
    24  H    7.057108   6.938381   2.145221   0.000000
    25  C    7.934139   6.605193   2.402396   3.859344   0.000000
    26  H    6.184005   4.623169   3.858996   4.283837   2.145356
    27  C    7.659220   8.709694   8.854288   6.959004   9.784685
    28  H    8.653702   9.172139   8.213574   6.646057   9.083409
    29  H    6.877276   8.453591   9.683801   7.624088  10.602787
    30  C    1.388824   2.774442   9.514051   8.348527   8.928391
    31  H    1.084794   3.385432   8.348239   6.841814   8.251212
    32  C    2.774430   1.388819   8.926672   8.248218   7.770528
    33  H    3.385417   1.084800   7.118603   6.637291   5.818196
    34  C    8.709358   7.659884   1.390070   3.389995   1.390095
    35  H    9.145591   8.633852   1.084348   2.465033   3.387137
    36  H    8.482109   6.903971   3.387136   4.943698   1.084363
    37  H    8.628064   9.742046   9.781238   7.896533  10.784296
    38  C    2.408878   2.408889   9.781478   8.882743   8.860440
    39  H    2.144453   3.858761  10.344405   9.066139   9.895553
    40  H    3.858751   2.144441   9.369482   8.905073   7.969536
    41  H    9.741711   8.628862   2.150513   4.285366   2.150453
    42  H    3.392063   3.392069  10.781315   9.931179   9.787018
                   26         27         28         29         30
    26  H    0.000000
    27  C    8.890745   0.000000
    28  H    8.400294   2.149185   0.000000
    29  H    9.550419   2.149210   4.286129   0.000000
    30  C    7.121630   8.859771   9.919081   7.937494   0.000000
    31  H    6.643746   6.968259   8.154033   6.002889   2.145313
    32  C    5.817122   9.782793  10.374878   9.337332   2.402462
    33  H    3.763276   8.884272   9.090792   8.882131   3.859075
    34  C    3.389959   9.852530   9.105788  10.721453   9.782234
    35  H    4.943333   9.138297   8.479710   9.988386  10.343562
    36  H    2.465578  10.693066   9.929500  11.531533   9.371467
    37  H    9.938629   1.084125   2.479166   2.479130   9.786752
    38  C    6.969712   9.854404  10.717771   9.111958   1.390081
    39  H    8.143918   9.146869  10.397227   7.989679   1.084353
    40  H    6.021000  10.689036  11.157267  10.338544   3.387152
    41  H    4.285396  10.804900   9.968800  11.725489  10.781792
    42  H    7.906179  10.807027  11.722464   9.974547   2.150451
                   31         32         33         34         35
    31  H    0.000000
    32  C    3.859055   0.000000
    33  H    4.283308   2.145356   0.000000
    34  C    8.883693   8.860047   6.969499   0.000000
    35  H    9.064207   9.893547   8.140394   2.149187   0.000000
    36  H    8.908597   7.970392   6.024369   2.149200   4.286112
    37  H    7.905635  10.782357   9.932100  10.804984  10.004337
    38  C    3.389900   1.390094   3.389946   9.854100  10.686951
    39  H    2.465597   3.387150   4.943418  10.688111  11.122726
    40  H    4.943399   1.084354   2.465647   9.147341  10.372571
    41  H    9.931470   9.787155   7.907066   1.084123   2.479233
    42  H    4.285343   2.150458   4.285392  10.806525  11.688828
                   36         37         38         39         40
    36  H    0.000000
    37  H   11.694591   0.000000
    38  C    9.148051  10.806879   0.000000
    39  H   10.374492  10.013048   2.149134   0.000000
    40  H    8.023201  11.690450   2.149152   4.286037   0.000000
    41  H    2.479104  11.730129  10.806626  11.689465  10.013697
    42  H   10.013557  11.732310   1.084114   2.479039   2.479054
                   41         42
    41  H    0.000000
    42  H   11.731844   0.000000
 Stoichiometry    C24H18
 Framework group  C1[X(C24H18)]
 Deg. of freedom   120
 Full point group                 C1      NOp   1
 Largest Abelian subgroup         C1      NOp   1
 Largest concise Abelian subgroup C1      NOp   1
                         Standard orientation:                         
 ---------------------------------------------------------------------
 Center     Atomic      Atomic             Coordinates (Angstroms)
 Number     Number       Type             X           Y           Z
 ---------------------------------------------------------------------
      1          6           0        0.608235    1.262548   -0.041592
      2          6           0       -0.780348    1.145058   -0.001257
      3          6           0        1.382177    0.102704   -0.041298
      4          6           0       -1.397556   -0.104367    0.039688
      5          1           0       -1.391282    2.041568   -0.001562
      6          6           0        1.251197    2.599433   -0.101481
      7          6           0        0.789761   -1.158908   -0.000456
      8          1           0        2.461407    0.182212   -0.118119
      9          6           0       -0.601136   -1.248856    0.040068
     10          6           0       -2.876961   -0.213533    0.100338
     11          6           0        0.712264    3.617163   -0.892029
     12          6           0        2.409333    2.866764    0.632342
     13          6           0        1.625629   -2.385717    0.000188
     14          1           0       -1.069848   -2.224190    0.117492
     15          6           0       -3.622040    0.626545    0.931196
     16          6           0       -3.554524   -1.158656   -0.673534
     17          6           0        1.313847    4.867825   -0.946387
     18          1           0       -0.173579    3.419147   -1.485987
     19          6           0        3.011728    4.116984    0.578469
     20          1           0        2.828985    2.093352    1.266831
     21          6           0        2.776760   -2.464982    0.787427
     22          6           0        1.278322   -3.486661   -0.786221
     23          6           0       -5.006071    0.524677    0.986655
     24          1           0       -3.109803    1.350968    1.555324
     25          6           0       -4.938488   -1.261409   -0.618596
     26          1           0       -2.992263   -1.804516   -1.339562
     27          6           0        2.465497    5.122533   -0.210760
     28          1           0        0.885941    5.643336   -1.571923
     29          1           0        3.906125    4.308646    1.160839
     30          6           0        3.559066   -3.612513    0.788547
     31          1           0        3.048447   -1.626982    1.420451
     32          6           0        2.059559   -4.634915   -0.785619
     33          1           0        0.399397   -3.433152   -1.419796
     34          6           0       -5.669449   -0.419707    0.211824
     35          1           0       -5.567313    1.179931    1.643512
     36          1           0       -5.448044   -1.996048   -1.232195
     37          1           0        2.935362    6.098621   -0.253267
     38          6           0        3.203083   -4.701927    0.001923
     39          1           0        4.445047   -3.658879    1.412013
     40          1           0        1.778569   -5.476964   -1.408372
     41          1           0       -6.749762   -0.499552    0.255080
     42          1           0        3.813301   -5.597995    0.002629
 ---------------------------------------------------------------------
 Rotational constants (GHZ):           0.1979519           0.1976945           0.1036475
 Leave Link  202 at Mon Nov 14 15:07:03 2022, MaxMem= 16106127360 cpu:               2.5 elap:               0.1
 (Enter /opt/ap/G16/B01/g16/l301.exe)
 Standard basis: 6-311++G(d,p) (5D, 7F)
 Ernie: Thresh=  0.10000D-02 Tol=  0.10000D-05 Strict=F.
 There are   678 symmetry adapted cartesian basis functions of A   symmetry.
 There are   654 symmetry adapted basis functions of A   symmetry.
   654 basis functions,  1026 primitive gaussians,   678 cartesian basis functions
    81 alpha electrons       81 beta electrons
       nuclear repulsion energy      1732.7711380295 Hartrees.
 IExCor= 4639 DFT=T Ex+Corr=wB97XD ExCW=0 ScaHFX=  1.000000
 ScaDFX=  1.000000  1.000000  1.000000  1.000000 ScalE2=  1.000000  1.000000
 IRadAn=      5 IRanWt=     -1 IRanGd=            0 ICorTp=0 IEmpDi=121
 HFx  wShort=  0.000000 wLong=  0.200000 cFull=  0.222036 cShort=  0.000000 cLong=  0.777964
 DFx  wShort=  0.000000 wLong=  0.200000 cFull=  0.000000 cShort=  0.000000 cLong=  1.000000
 NAtoms=   42 NActive=   42 NUniq=   42 SFac= 1.00D+00 NAtFMM=   60 NAOKFM=F Big=F
 Integral buffers will be    131072 words long.
 Raffenetti 2 integral format.
 Two-electron integral symmetry is turned on.
 R6Disp:  Grimme-D2 Dispersion energy=       -0.0289881176 Hartrees.
 Nuclear repulsion after empirical dispersion term =     1732.7421499120 Hartrees.
 Leave Link  301 at Mon Nov 14 15:07:03 2022, MaxMem= 16106127360 cpu:               1.6 elap:               0.1
 (Enter /opt/ap/G16/B01/g16/l302.exe)
 NPDir=0 NMtPBC=     1 NCelOv=     1 NCel=       1 NClECP=     1 NCelD=      1
         NCelK=      1 NCelE2=     1 NClLst=     1 CellRange=     0.0.
 One-electron integrals computed using PRISM.
 One-electron integral symmetry used in STVInt
 NBasis=   654 RedAO= T EigKep=  1.25D-06  NBF=   654
 NBsUse=   645 1.00D-06 EigRej=  7.73D-07 NBFU=   645
 Precomputing XC quadrature grid using
 IXCGrd= 4 IRadAn=           5 IRanWt=          -1 IRanGd=           0 AccXCQ= 0.00D+00.
 Generated NRdTot=       0 NPtTot=           0 NUsed=           0 NTot=          32
 NSgBfM=   669   669   669   669   669 MxSgAt=    42 MxSgA2=    42.
 Leave Link  302 at Mon Nov 14 15:07:04 2022, MaxMem= 16106127360 cpu:              26.3 elap:               0.8
 (Enter /opt/ap/G16/B01/g16/l303.exe)
 DipDrv:  MaxL=1.
 Leave Link  303 at Mon Nov 14 15:07:05 2022, MaxMem= 16106127360 cpu:               5.9 elap:               0.2
 (Enter /opt/ap/G16/B01/g16/l401.exe)
 ExpMin= 3.60D-02 ExpMax= 4.56D+03 ExpMxC= 6.82D+02 IAcc=3 IRadAn=         5 AccDes= 0.00D+00
 Harris functional with IExCor= 4639 and IRadAn=       5 diagonalized for initial guess.
 HarFok:  IExCor= 4639 AccDes= 0.00D+00 IRadAn=         5 IDoV= 1 UseB2=F ITyADJ=14
 ICtDFT=  3500011 ScaDFX=  1.000000  1.000000  1.000000  1.000000
 FoFCou: FMM=F IPFlag=           0 FMFlag=      100000 FMFlg1=           0
         NFxFlg=           0 DoJE=T BraDBF=F KetDBF=T FulRan=T
         wScrn=  0.000000 ICntrl=       500 IOpCl=  0 I1Cent=   200000004 NGrid=           0
         NMat0=    1 NMatS0=      1 NMatT0=    0 NMatD0=    1 NMtDS0=    0 NMtDT0=    0
 Petite list used in FoFCou.
 Harris En= -882.969771514112    
 JPrj=0 DoOrth=F DoCkMO=F.
 Leave Link  401 at Mon Nov 14 15:07:06 2022, MaxMem= 16106127360 cpu:              58.5 elap:               1.8
 (Enter /opt/ap/G16/B01/g16/l502.exe)
 Integral symmetry usage will be decided dynamically.
 Closed shell SCF:
 Using DIIS extrapolation, IDIIS=  1040.
 NGot= 16106127360 LenX= 16105179956 LenY= 16104719594
 Requested convergence on RMS density matrix=1.00D-08 within 512 cycles.
 Requested convergence on MAX density matrix=1.00D-06.
 Requested convergence on             energy=1.00D-06.
 No special actions if energy rises.
 Fock matrices will be formed incrementally for  20 cycles.

 Cycle   1  Pass 1  IDiag  1:
 FoFJK:  IHMeth= 1 ICntrl=       0 DoSepK=T KAlg= 0 I1Cent=           0 FoldK=F
 IRaf=         1 NMat=       1 IRICut=       1 DoRegI=T DoRafI=F ISym2E= 0 IDoP0=0 IntGTp=1.
 FoFCou: FMM=F IPFlag=           0 FMFlag=      100000 FMFlg1=           0
         NFxFlg=           0 DoJE=T BraDBF=F KetDBF=F FulRan=T
         wScrn=  0.000000 ICntrl=       500 IOpCl=  0 I1Cent=           0 NGrid=           0
         NMat0=    1 NMatS0=      1 NMatT0=    0 NMatD0=    1 NMtDS0=    0 NMtDT0=    0
 Symmetry not used in FoFCou.
 E= -925.116715335385    
 DIIS: error= 4.88D-02 at cycle   1 NSaved=   1.
 NSaved= 1 IEnMin= 1 EnMin= -925.116715335385     IErMin= 1 ErrMin= 4.88D-02
 ErrMax= 4.88D-02  0.00D+00 EMaxC= 1.00D-01 BMatC= 1.90D+00 BMatP= 1.90D+00
 IDIUse=3 WtCom= 5.12D-01 WtEn= 4.88D-01
 Coeff-Com:  0.100D+01
 Coeff-En:   0.100D+01
 Coeff:      0.100D+01
 Gap=     0.317 Goal=   None    Shift=    0.000
 GapD=    0.317 DampG=1.000 DampE=0.500 DampFc=0.5000 IDamp=-1.
 Damping current iteration by 5.00D-01
 RMSDP=3.85D-02 MaxDP=4.69D+00              OVMax= 4.31D-02

 Cycle   2  Pass 1  IDiag  1:
 RMSU=  7.08D-03    CP:  8.12D-01
 E= -925.215255752727     Delta-E=       -0.098540417342 Rises=F Damp=T
 DIIS: error= 2.34D-02 at cycle   2 NSaved=   2.
 NSaved= 2 IEnMin= 2 EnMin= -925.215255752727     IErMin= 2 ErrMin= 2.34D-02
 ErrMax= 2.34D-02  0.00D+00 EMaxC= 1.00D-01 BMatC= 4.32D-01 BMatP= 1.90D+00
 IDIUse=3 WtCom= 7.66D-01 WtEn= 2.34D-01
 Coeff-Com: -0.883D+00 0.188D+01
 Coeff-En:   0.000D+00 0.100D+01
 Coeff:     -0.676D+00 0.168D+01
 Gap=     0.326 Goal=   None    Shift=    0.000
 RMSDP=2.23D-02 MaxDP=2.16D+00 DE=-9.85D-02 OVMax= 3.37D-02

 Cycle   3  Pass 1  IDiag  1:
 RMSU=  3.18D-03    CP:  5.82D-01  1.35D+00
 E= -925.303789068996     Delta-E=       -0.088533316270 Rises=F Damp=F
 DIIS: error= 3.27D-03 at cycle   3 NSaved=   3.
 NSaved= 3 IEnMin= 3 EnMin= -925.303789068996     IErMin= 3 ErrMin= 3.27D-03
 ErrMax= 3.27D-03  0.00D+00 EMaxC= 1.00D-01 BMatC= 8.49D-03 BMatP= 4.32D-01
 IDIUse=3 WtCom= 9.67D-01 WtEn= 3.27D-02
 Coeff-Com: -0.367D+00 0.780D+00 0.588D+00
 Coeff-En:   0.000D+00 0.000D+00 0.100D+01
 Coeff:     -0.355D+00 0.754D+00 0.601D+00
 Gap=     0.324 Goal=   None    Shift=    0.000
 RMSDP=2.36D-03 MaxDP=1.99D-01 DE=-8.85D-02 OVMax= 1.93D-02

 Cycle   4  Pass 1  IDiag  1:
 RMSU=  1.35D-03    CP:  5.86D-01  1.56D+00  6.30D-01
 E= -925.311562329722     Delta-E=       -0.007773260725 Rises=F Damp=F
 DIIS: error= 9.54D-04 at cycle   4 NSaved=   4.
 NSaved= 4 IEnMin= 4 EnMin= -925.311562329722     IErMin= 4 ErrMin= 9.54D-04
 ErrMax= 9.54D-04  0.00D+00 EMaxC= 1.00D-01 BMatC= 2.75D-04 BMatP= 8.49D-03
 IDIUse=3 WtCom= 9.90D-01 WtEn= 9.54D-03
 Coeff-Com: -0.112D+00 0.238D+00 0.237D+00 0.637D+00
 Coeff-En:   0.000D+00 0.000D+00 0.000D+00 0.100D+01
 Coeff:     -0.111D+00 0.236D+00 0.235D+00 0.640D+00
 Gap=     0.322 Goal=   None    Shift=    0.000
 RMSDP=7.30D-04 MaxDP=5.77D-02 DE=-7.77D-03 OVMax= 4.24D-03

 Cycle   5  Pass 1  IDiag  1:
 RMSU=  2.63D-04    CP:  5.80D-01  1.59D+00  6.61D-01  8.50D-01
 E= -925.311850904069     Delta-E=       -0.000288574347 Rises=F Damp=F
 DIIS: error= 2.31D-04 at cycle   5 NSaved=   5.
 NSaved= 5 IEnMin= 5 EnMin= -925.311850904069     IErMin= 5 ErrMin= 2.31D-04
 ErrMax= 2.31D-04  0.00D+00 EMaxC= 1.00D-01 BMatC= 2.05D-05 BMatP= 2.75D-04
 IDIUse=3 WtCom= 9.98D-01 WtEn= 2.31D-03
 Coeff-Com:  0.262D-01-0.559D-01-0.261D-01 0.197D+00 0.859D+00
 Coeff-En:   0.000D+00 0.000D+00 0.000D+00 0.000D+00 0.100D+01
 Coeff:      0.262D-01-0.558D-01-0.261D-01 0.196D+00 0.860D+00
 Gap=     0.322 Goal=   None    Shift=    0.000
 RMSDP=1.61D-04 MaxDP=5.89D-03 DE=-2.89D-04 OVMax= 1.52D-03

 Cycle   6  Pass 1  IDiag  1:
 RMSU=  7.18D-05    CP:  5.79D-01  1.59D+00  6.74D-01  9.28D-01  1.23D+00
 E= -925.311877184125     Delta-E=       -0.000026280057 Rises=F Damp=F
 DIIS: error= 5.71D-05 at cycle   6 NSaved=   6.
 NSaved= 6 IEnMin= 6 EnMin= -925.311877184125     IErMin= 6 ErrMin= 5.71D-05
 ErrMax= 5.71D-05  0.00D+00 EMaxC= 1.00D-01 BMatC= 1.40D-06 BMatP= 2.05D-05
 IDIUse=1 WtCom= 1.00D+00 WtEn= 0.00D+00
 Coeff-Com:  0.133D-01-0.283D-01-0.167D-01 0.542D-01 0.330D+00 0.648D+00
 Coeff:      0.133D-01-0.283D-01-0.167D-01 0.542D-01 0.330D+00 0.648D+00
 Gap=     0.322 Goal=   None    Shift=    0.000
 RMSDP=7.01D-05 MaxDP=5.39D-03 DE=-2.63D-05 OVMax= 3.56D-04

 Cycle   7  Pass 1  IDiag  1:
 RMSU=  4.14D-05    CP:  5.80D-01  1.59D+00  6.75D-01  9.56D-01  1.17D+00
                    CP:  8.49D-01
 E= -925.311878894252     Delta-E=       -0.000001710127 Rises=F Damp=F
 DIIS: error= 1.58D-05 at cycle   7 NSaved=   7.
 NSaved= 7 IEnMin= 7 EnMin= -925.311878894252     IErMin= 7 ErrMin= 1.58D-05
 ErrMax= 1.58D-05  0.00D+00 EMaxC= 1.00D-01 BMatC= 1.01D-07 BMatP= 1.40D-06
 IDIUse=1 WtCom= 1.00D+00 WtEn= 0.00D+00
 Coeff-Com: -0.248D-02 0.533D-02 0.230D-02-0.287D-01-0.104D+00 0.971D-01
 Coeff-Com:  0.103D+01
 Coeff:     -0.248D-02 0.533D-02 0.230D-02-0.287D-01-0.104D+00 0.971D-01
 Coeff:      0.103D+01
 Gap=     0.322 Goal=   None    Shift=    0.000
 RMSDP=1.71D-05 MaxDP=1.10D-03 DE=-1.71D-06 OVMax= 2.57D-04

 Cycle   8  Pass 1  IDiag  1:
 RMSU=  5.92D-06    CP:  5.80D-01  1.59D+00  6.77D-01  9.58D-01  1.20D+00
                    CP:  9.46D-01  1.19D+00
 E= -925.311879130293     Delta-E=       -0.000000236042 Rises=F Damp=F
 DIIS: error= 3.43D-06 at cycle   8 NSaved=   8.
 NSaved= 8 IEnMin= 8 EnMin= -925.311879130293     IErMin= 8 ErrMin= 3.43D-06
 ErrMax= 3.43D-06  0.00D+00 EMaxC= 1.00D-01 BMatC= 4.10D-09 BMatP= 1.01D-07
 IDIUse=1 WtCom= 1.00D+00 WtEn= 0.00D+00
 Coeff-Com: -0.700D-03 0.149D-02 0.869D-03-0.536D-02-0.205D-01-0.235D-02
 Coeff-Com:  0.763D-01 0.950D+00
 Coeff:     -0.700D-03 0.149D-02 0.869D-03-0.536D-02-0.205D-01-0.235D-02
 Coeff:      0.763D-01 0.950D+00
 Gap=     0.322 Goal=   None    Shift=    0.000
 RMSDP=2.80D-06 MaxDP=1.93D-04 DE=-2.36D-07 OVMax= 5.05D-05

 Cycle   9  Pass 1  IDiag  1:
 RMSU=  9.20D-07    CP:  5.80D-01  1.59D+00  6.77D-01  9.57D-01  1.20D+00
                    CP:  9.51D-01  1.23D+00  1.27D+00
 E= -925.311879140111     Delta-E=       -0.000000009818 Rises=F Damp=F
 DIIS: error= 1.78D-06 at cycle   9 NSaved=   9.
 NSaved= 9 IEnMin= 9 EnMin= -925.311879140111     IErMin= 9 ErrMin= 1.78D-06
 ErrMax= 1.78D-06  0.00D+00 EMaxC= 1.00D-01 BMatC= 9.74D-10 BMatP= 4.10D-09
 IDIUse=1 WtCom= 1.00D+00 WtEn= 0.00D+00
 Coeff-Com:  0.180D-03-0.389D-03-0.439D-04 0.313D-02 0.114D-01-0.144D-01
 Coeff-Com: -0.161D+00 0.341D+00 0.820D+00
 Coeff:      0.180D-03-0.389D-03-0.439D-04 0.313D-02 0.114D-01-0.144D-01
 Coeff:     -0.161D+00 0.341D+00 0.820D+00
 Gap=     0.322 Goal=   None    Shift=    0.000
 RMSDP=1.35D-06 MaxDP=8.89D-05 DE=-9.82D-09 OVMax= 2.98D-05

 Cycle  10  Pass 1  IDiag  1:
 RMSU=  4.84D-07    CP:  5.79D-01  1.59D+00  6.77D-01  9.57D-01  1.20D+00
                    CP:  9.52D-01  1.24D+00  1.40D+00  1.01D+00
 E= -925.311879142166     Delta-E=       -0.000000002055 Rises=F Damp=F
 DIIS: error= 3.92D-07 at cycle  10 NSaved=  10.
 NSaved=10 IEnMin=10 EnMin= -925.311879142166     IErMin=10 ErrMin= 3.92D-07
 ErrMax= 3.92D-07  0.00D+00 EMaxC= 1.00D-01 BMatC= 9.22D-11 BMatP= 9.74D-10
 IDIUse=1 WtCom= 1.00D+00 WtEn= 0.00D+00
 Coeff-Com:  0.839D-04-0.180D-03-0.499D-04 0.107D-02 0.368D-02-0.233D-02
 Coeff-Com: -0.422D-01-0.546D-02 0.238D+00 0.807D+00
 Coeff:      0.839D-04-0.180D-03-0.499D-04 0.107D-02 0.368D-02-0.233D-02
 Coeff:     -0.422D-01-0.546D-02 0.238D+00 0.807D+00
 Gap=     0.322 Goal=   None    Shift=    0.000
 RMSDP=3.42D-07 MaxDP=3.65D-05 DE=-2.05D-09 OVMax= 7.24D-06

 Cycle  11  Pass 1  IDiag  1:
 RMSU=  1.71D-07    CP:  5.79D-01  1.59D+00  6.77D-01  9.57D-01  1.20D+00
                    CP:  9.51D-01  1.24D+00  1.41D+00  1.24D+00  8.85D-01
 E= -925.311879142316     Delta-E=       -0.000000000150 Rises=F Damp=F
 DIIS: error= 2.46D-07 at cycle  11 NSaved=  11.
 NSaved=11 IEnMin=11 EnMin= -925.311879142316     IErMin=11 ErrMin= 2.46D-07
 ErrMax= 2.46D-07  0.00D+00 EMaxC= 1.00D-01 BMatC= 2.76D-11 BMatP= 9.22D-11
 IDIUse=1 WtCom= 1.00D+00 WtEn= 0.00D+00
 Coeff-Com:  0.196D-04-0.415D-04-0.176D-04 0.109D-03 0.224D-03 0.116D-02
 Coeff-Com:  0.153D-02-0.625D-01 0.194D-01 0.423D+00 0.618D+00
 Coeff:      0.196D-04-0.415D-04-0.176D-04 0.109D-03 0.224D-03 0.116D-02
 Coeff:      0.153D-02-0.625D-01 0.194D-01 0.423D+00 0.618D+00
 Gap=     0.322 Goal=   None    Shift=    0.000
 RMSDP=1.46D-07 MaxDP=1.23D-05 DE=-1.50D-10 OVMax= 2.67D-06

 Cycle  12  Pass 1  IDiag  1:
 RMSU=  6.22D-08    CP:  5.79D-01  1.59D+00  6.77D-01  9.57D-01  1.20D+00
                    CP:  9.51D-01  1.24D+00  1.42D+00  1.22D+00  1.10D+00
                    CP:  8.30D-01
 E= -925.311879142326     Delta-E=       -0.000000000010 Rises=F Damp=F
 DIIS: error= 8.63D-08 at cycle  12 NSaved=  12.
 NSaved=12 IEnMin=12 EnMin= -925.311879142326     IErMin=12 ErrMin= 8.63D-08
 ErrMax= 8.63D-08  0.00D+00 EMaxC= 1.00D-01 BMatC= 1.80D-12 BMatP= 2.76D-11
 IDIUse=1 WtCom= 1.00D+00 WtEn= 0.00D+00
 Coeff-Com: -0.141D-04 0.305D-04 0.109D-04-0.218D-03-0.792D-03 0.917D-03
 Coeff-Com:  0.949D-02-0.126D-01-0.340D-01-0.113D+00 0.691D-01 0.108D+01
 Coeff:     -0.141D-04 0.305D-04 0.109D-04-0.218D-03-0.792D-03 0.917D-03
 Coeff:      0.949D-02-0.126D-01-0.340D-01-0.113D+00 0.691D-01 0.108D+01
 Gap=     0.322 Goal=   None    Shift=    0.000
 RMSDP=6.95D-08 MaxDP=3.26D-06 DE=-1.00D-11 OVMax= 1.30D-06

 Cycle  13  Pass 1  IDiag  1:
 RMSU=  2.32D-08    CP:  5.79D-01  1.59D+00  6.77D-01  9.57D-01  1.20D+00
                    CP:  9.51D-01  1.24D+00  1.42D+00  1.26D+00  1.11D+00
                    CP:  9.54D-01  1.34D+00
 E= -925.311879142365     Delta-E=       -0.000000000040 Rises=F Damp=F
 DIIS: error= 2.20D-08 at cycle  13 NSaved=  13.
 NSaved=13 IEnMin=13 EnMin= -925.311879142365     IErMin=13 ErrMin= 2.20D-08
 ErrMax= 2.20D-08  0.00D+00 EMaxC= 1.00D-01 BMatC= 1.15D-13 BMatP= 1.80D-12
 IDIUse=1 WtCom= 1.00D+00 WtEn= 0.00D+00
 Coeff-Com: -0.325D-05 0.697D-05 0.318D-05-0.399D-04-0.133D-03 0.101D-03
 Coeff-Com:  0.133D-02 0.110D-02-0.413D-02-0.439D-01-0.350D-01 0.182D+00
 Coeff-Com:  0.899D+00
 Coeff:     -0.325D-05 0.697D-05 0.318D-05-0.399D-04-0.133D-03 0.101D-03
 Coeff:      0.133D-02 0.110D-02-0.413D-02-0.439D-01-0.350D-01 0.182D+00
 Coeff:      0.899D+00
 Gap=     0.322 Goal=   None    Shift=    0.000
 RMSDP=1.42D-08 MaxDP=1.17D-06 DE=-3.96D-11 OVMax= 2.88D-07

 Cycle  14  Pass 1  IDiag  1:
 RMSU=  4.42D-09    CP:  5.79D-01  1.59D+00  6.77D-01  9.57D-01  1.20D+00
                    CP:  9.51D-01  1.24D+00  1.42D+00  1.26D+00  1.11D+00
                    CP:  9.50D-01  1.46D+00  1.29D+00
 E= -925.311879142397     Delta-E=       -0.000000000032 Rises=F Damp=F
 DIIS: error= 6.86D-09 at cycle  14 NSaved=  14.
 NSaved=14 IEnMin=14 EnMin= -925.311879142397     IErMin=14 ErrMin= 6.86D-09
 ErrMax= 6.86D-09  0.00D+00 EMaxC= 1.00D-01 BMatC= 4.09D-14 BMatP= 1.15D-13
 IDIUse=1 WtCom= 1.00D+00 WtEn= 0.00D+00
 Coeff-Com:  0.613D-06-0.136D-05-0.214D-06 0.142D-04 0.583D-04-0.900D-04
 Coeff-Com: -0.818D-03 0.232D-02 0.344D-02-0.400D-02-0.300D-01-0.833D-01
 Coeff-Com:  0.428D+00 0.685D+00
 Coeff:      0.613D-06-0.136D-05-0.214D-06 0.142D-04 0.583D-04-0.900D-04
 Coeff:     -0.818D-03 0.232D-02 0.344D-02-0.400D-02-0.300D-01-0.833D-01
 Coeff:      0.428D+00 0.685D+00
 Gap=     0.322 Goal=   None    Shift=    0.000
 RMSDP=8.19D-09 MaxDP=6.86D-07 DE=-3.23D-11 OVMax= 8.11D-08

 SCF Done:  E(RwB97XD) =  -925.311879142     A.U. after   14 cycles
            NFock= 14  Conv=0.82D-08     -V/T= 2.0044
 KE= 9.212969558248D+02 PE=-5.611896088037D+03 EE= 2.032545103158D+03
 Leave Link  502 at Mon Nov 14 15:09:33 2022, MaxMem= 16106127360 cpu:            4633.0 elap:             146.0
 (Enter /opt/ap/G16/B01/g16/l601.exe)
 Copying SCF densities to generalized density rwf, IOpCl= 0 IROHF=0.

 **********************************************************************

            Population analysis using the SCF Density.

 **********************************************************************

 Orbital symmetries:
       Occupied  (A) (A) (A) (A) (A) (A) (A) (A) (A) (A) (A) (A)
                 (A) (A) (A) (A) (A) (A) (A) (A) (A) (A) (A) (A)
                 (A) (A) (A) (A) (A) (A) (A) (A) (A) (A) (A) (A)
                 (A) (A) (A) (A) (A) (A) (A) (A) (A) (A) (A) (A)
                 (A) (A) (A) (A) (A) (A) (A) (A) (A) (A) (A) (A)
                 (A) (A) (A) (A) (A) (A) (A) (A) (A) (A) (A) (A)
                 (A) (A) (A) (A) (A) (A) (A) (A) (A)
       Virtual   (A) (A) (A) (A) (A) (A) (A) (A) (A) (A) (A) (A)
                 (A) (A) (A) (A) (A) (A) (A) (A) (A) (A) (A) (A)
                 (A) (A) (A) (A) (A) (A) (A) (A) (A) (A) (A) (A)
                 (A) (A) (A) (A) (A) (A) (A) (A) (A) (A) (A) (A)
                 (A) (A) (A) (A) (A) (A) (A) (A) (A) (A) (A) (A)
                 (A) (A) (A) (A) (A) (A) (A) (A) (A) (A) (A) (A)
                 (A) (A) (A) (A) (A) (A) (A) (A) (A) (A) (A) (A)
                 (A) (A) (A) (A) (A) (A) (A) (A) (A) (A) (A) (A)
                 (A) (A) (A) (A) (A) (A) (A) (A) (A) (A) (A) (A)
                 (A) (A) (A) (A) (A) (A) (A) (A) (A) (A) (A) (A)
                 (A) (A) (A) (A) (A) (A) (A) (A) (A) (A) (A) (A)
                 (A) (A) (A) (A) (A) (A) (A) (A) (A) (A) (A) (A)
                 (A) (A) (A) (A) (A) (A) (A) (A) (A) (A) (A) (A)
                 (A) (A) (A) (A) (A) (A) (A) (A) (A) (A) (A) (A)
                 (A) (A) (A) (A) (A) (A) (A) (A) (A) (A) (A) (A)
                 (A) (A) (A) (A) (A) (A) (A) (A) (A) (A) (A) (A)
                 (A) (A) (A) (A) (A) (A) (A) (A) (A) (A) (A) (A)
                 (A) (A) (A) (A) (A) (A) (A) (A) (A) (A) (A) (A)
                 (A) (A) (A) (A) (A) (A) (A) (A) (A) (A) (A) (A)
                 (A) (A) (A) (A) (A) (A) (A) (A) (A) (A) (A) (A)
                 (A) (A) (A) (A) (A) (A) (A) (A) (A) (A) (A) (A)
                 (A) (A) (A) (A) (A) (A) (A) (A) (A) (A) (A) (A)
                 (A) (A) (A) (A) (A) (A) (A) (A) (A) (A) (A) (A)
                 (A) (A) (A) (A) (A) (A) (A) (A) (A) (A) (A) (A)
                 (A) (A) (A) (A) (A) (A) (A) (A) (A) (A) (A) (A)
                 (A) (A) (A) (A) (A) (A) (A) (A) (A) (A) (A) (A)
                 (A) (A) (A) (A) (A) (A) (A) (A) (A) (A) (A) (A)
                 (A) (A) (A) (A) (A) (A) (A) (A) (A) (A) (A) (A)
                 (A) (A) (A) (A) (A) (A) (A) (A) (A) (A) (A) (A)
                 (A) (A) (A) (A) (A) (A) (A) (A) (A) (A) (A) (A)
                 (A) (A) (A) (A) (A) (A) (A) (A) (A) (A) (A) (A)
                 (A) (A) (A) (A) (A) (A) (A) (A) (A) (A) (A) (A)
                 (A) (A) (A) (A) (A) (A) (A) (A) (A) (A) (A) (A)
                 (A) (A) (A) (A) (A) (A) (A) (A) (A) (A) (A) (A)
                 (A) (A) (A) (A) (A) (A) (A) (A) (A) (A) (A) (A)
                 (A) (A) (A) (A) (A) (A) (A) (A) (A) (A) (A) (A)
                 (A) (A) (A) (A) (A) (A) (A) (A) (A) (A) (A) (A)
                 (A) (A) (A) (A) (A) (A) (A) (A) (A) (A) (A) (A)
                 (A) (A) (A) (A) (A) (A) (A) (A) (A) (A) (A) (A)
                 (A) (A) (A) (A) (A) (A) (A) (A) (A) (A) (A) (A)
                 (A) (A) (A) (A) (A) (A) (A) (A) (A) (A) (A) (A)
                 (A) (A) (A) (A) (A) (A) (A) (A) (A) (A) (A) (A)
                 (A) (A) (A) (A) (A) (A) (A) (A) (A) (A) (A) (A)
                 (A) (A) (A) (A) (A) (A) (A) (A) (A) (A) (A) (A)
                 (A) (A) (A) (A) (A) (A) (A) (A) (A) (A) (A) (A)
                 (A) (A) (A) (A) (A) (A) (A) (A) (A) (A) (A) (A)
                 (A) (A) (A) (A) (A) (A) (A) (A) (A) (A) (A) (A)
 The electronic state is 1-A.
 Alpha  occ. eigenvalues --  -10.30444 -10.30441 -10.30436 -10.30348 -10.30346
 Alpha  occ. eigenvalues --  -10.30341 -10.29275 -10.29266 -10.29265 -10.29263
 Alpha  occ. eigenvalues --  -10.29244 -10.29241 -10.29194 -10.29189 -10.29185
 Alpha  occ. eigenvalues --  -10.29184 -10.29152 -10.29150 -10.29130 -10.29112
 Alpha  occ. eigenvalues --  -10.29112 -10.29084 -10.29081 -10.29079  -0.99008
 Alpha  occ. eigenvalues --   -0.97078  -0.97068  -0.95283  -0.89450  -0.89444
 Alpha  occ. eigenvalues --   -0.85359  -0.85345  -0.85284  -0.85070  -0.82266
 Alpha  occ. eigenvalues --   -0.82257  -0.73602  -0.73571  -0.71157  -0.70793
 Alpha  occ. eigenvalues --   -0.70146  -0.70092  -0.66711  -0.66695  -0.63611
 Alpha  occ. eigenvalues --   -0.60733  -0.60721  -0.58660  -0.57342  -0.56724
 Alpha  occ. eigenvalues --   -0.54924  -0.54822  -0.54361  -0.54139  -0.52687
 Alpha  occ. eigenvalues --   -0.51854  -0.51518  -0.51487  -0.51178  -0.50905
 Alpha  occ. eigenvalues --   -0.50763  -0.47984  -0.46760  -0.46283  -0.45857
 Alpha  occ. eigenvalues --   -0.45801  -0.44944  -0.44371  -0.43186  -0.43134
 Alpha  occ. eigenvalues --   -0.42946  -0.41696  -0.41624  -0.36788  -0.36493
 Alpha  occ. eigenvalues --   -0.33654  -0.33640  -0.33629  -0.32984  -0.30318
 Alpha  occ. eigenvalues --   -0.30228
 Alpha virt. eigenvalues --    0.02014   0.02191   0.03672   0.04188   0.04271
 Alpha virt. eigenvalues --    0.04610   0.04827   0.04918   0.05103   0.05133
 Alpha virt. eigenvalues --    0.05201   0.05685   0.05846   0.06778   0.07031
 Alpha virt. eigenvalues --    0.07097   0.07919   0.08000   0.08309   0.08619
 Alpha virt. eigenvalues --    0.08764   0.09060   0.09256   0.10028   0.11051
 Alpha virt. eigenvalues --    0.11474   0.12158   0.12454   0.12818   0.13379
 Alpha virt. eigenvalues --    0.13706   0.13769   0.14339   0.14366   0.15442
 Alpha virt. eigenvalues --    0.15665   0.15790   0.15894   0.16107   0.16208
 Alpha virt. eigenvalues --    0.16521   0.16772   0.16995   0.17371   0.17438
 Alpha virt. eigenvalues --    0.17514   0.17755   0.18056   0.18103   0.18333
 Alpha virt. eigenvalues --    0.18380   0.18500   0.18520   0.18838   0.19161
 Alpha virt. eigenvalues --    0.19282   0.19481   0.19702   0.20247   0.20489
 Alpha virt. eigenvalues --    0.20551   0.20961   0.21143   0.21622   0.21694
 Alpha virt. eigenvalues --    0.22286   0.22321   0.22389   0.22865   0.23041
 Alpha virt. eigenvalues --    0.23313   0.23561   0.23699   0.23796   0.23864
 Alpha virt. eigenvalues --    0.24750   0.24785   0.25252   0.25360   0.25555
 Alpha virt. eigenvalues --    0.25742   0.25960   0.26558   0.26918   0.27450
 Alpha virt. eigenvalues --    0.27533   0.27679   0.27762   0.28286   0.28489
 Alpha virt. eigenvalues --    0.28682   0.29087   0.29332   0.29381   0.29482
 Alpha virt. eigenvalues --    0.29795   0.29818   0.30591   0.31055   0.31115
 Alpha virt. eigenvalues --    0.31510   0.32192   0.32410   0.33009   0.33111
 Alpha virt. eigenvalues --    0.33515   0.33824   0.34027   0.34379   0.34507
 Alpha virt. eigenvalues --    0.34854   0.34883   0.34901   0.35279   0.35683
 Alpha virt. eigenvalues --    0.35894   0.36506   0.36636   0.36731   0.36898
 Alpha virt. eigenvalues --    0.37322   0.37384   0.37866   0.38086   0.38465
 Alpha virt. eigenvalues --    0.38485   0.38836   0.39344   0.39587   0.39860
 Alpha virt. eigenvalues --    0.40050   0.40710   0.40839   0.41239   0.41681
 Alpha virt. eigenvalues --    0.41994   0.42106   0.42367   0.43031   0.43725
 Alpha virt. eigenvalues --    0.43935   0.43988   0.44597   0.44755   0.44836
 Alpha virt. eigenvalues --    0.45292   0.45959   0.47706   0.47747   0.48117
 Alpha virt. eigenvalues --    0.48472   0.49713   0.53217   0.53854   0.57185
 Alpha virt. eigenvalues --    0.58259   0.58565   0.59033   0.59132   0.60572
 Alpha virt. eigenvalues --    0.62002   0.62273   0.62486   0.62918   0.62980
 Alpha virt. eigenvalues --    0.63262   0.63781   0.63861   0.64077   0.64169
 Alpha virt. eigenvalues --    0.64236   0.65220   0.65237   0.65321   0.65791
 Alpha virt. eigenvalues --    0.65918   0.66474   0.67245   0.67425   0.67616
 Alpha virt. eigenvalues --    0.68568   0.69271   0.69969   0.70112   0.70781
 Alpha virt. eigenvalues --    0.70864   0.71225   0.71459   0.72053   0.72351
 Alpha virt. eigenvalues --    0.72989   0.73308   0.73807   0.74033   0.74134
 Alpha virt. eigenvalues --    0.75466   0.76158   0.76695   0.76890   0.78020
 Alpha virt. eigenvalues --    0.78601   0.78852   0.79864   0.80163   0.80352
 Alpha virt. eigenvalues --    0.80577   0.81215   0.81384   0.81914   0.82297
 Alpha virt. eigenvalues --    0.82454   0.82703   0.83197   0.83676   0.84116
 Alpha virt. eigenvalues --    0.84541   0.84891   0.84953   0.85169   0.85711
 Alpha virt. eigenvalues --    0.85842   0.86751   0.88202   0.88289   0.88786
 Alpha virt. eigenvalues --    0.89425   0.89913   0.91479   0.91601   0.92178
 Alpha virt. eigenvalues --    0.92278   0.92542   0.93406   0.93542   0.93863
 Alpha virt. eigenvalues --    0.94047   0.94587   0.94608   0.96111   0.96548
 Alpha virt. eigenvalues --    0.96681   0.97118   0.97200   0.98454   0.99225
 Alpha virt. eigenvalues --    0.99797   1.00363   1.00553   1.01055   1.01837
 Alpha virt. eigenvalues --    1.02590   1.02740   1.04058   1.04435   1.04620
 Alpha virt. eigenvalues --    1.06016   1.06231   1.06753   1.07133   1.07323
 Alpha virt. eigenvalues --    1.07679   1.07968   1.08569   1.09159   1.11653
 Alpha virt. eigenvalues --    1.11962   1.12923   1.13014   1.13396   1.13716
 Alpha virt. eigenvalues --    1.14674   1.14734   1.16855   1.16996   1.17434
 Alpha virt. eigenvalues --    1.18083   1.18239   1.19243   1.19326   1.20923
 Alpha virt. eigenvalues --    1.21663   1.22421   1.22625   1.23823   1.24173
 Alpha virt. eigenvalues --    1.24272   1.24674   1.24917   1.29004   1.29250
 Alpha virt. eigenvalues --    1.37292   1.39669   1.41043   1.41398   1.41836
 Alpha virt. eigenvalues --    1.46021   1.47274   1.47585   1.52452   1.55808
 Alpha virt. eigenvalues --    1.56419   1.58130   1.58422   1.59176   1.59269
 Alpha virt. eigenvalues --    1.59447   1.60124   1.60917   1.61124   1.61389
 Alpha virt. eigenvalues --    1.61570   1.62055   1.62452   1.63350   1.63501
 Alpha virt. eigenvalues --    1.64261   1.65577   1.65671   1.66015   1.66389
 Alpha virt. eigenvalues --    1.66780   1.66998   1.67815   1.68571   1.68882
 Alpha virt. eigenvalues --    1.69241   1.72653   1.73523   1.73983   1.74148
 Alpha virt. eigenvalues --    1.74230   1.75236   1.75424   1.76036   1.76266
 Alpha virt. eigenvalues --    1.77749   1.78321   1.81211   1.82209   1.82729
 Alpha virt. eigenvalues --    1.82866   1.82880   1.83921   1.84616   1.84717
 Alpha virt. eigenvalues --    1.85429   1.86336   1.86411   1.86935   1.87430
 Alpha virt. eigenvalues --    1.87682   1.89860   1.92320   1.92593   1.93237
 Alpha virt. eigenvalues --    1.94011   1.94130   1.97192   1.99822   2.00055
 Alpha virt. eigenvalues --    2.00573   2.01588   2.02045   2.02441   2.03018
 Alpha virt. eigenvalues --    2.03124   2.03291   2.03684   2.04442   2.04601
 Alpha virt. eigenvalues --    2.04646   2.04731   2.05600   2.05700   2.06074
 Alpha virt. eigenvalues --    2.07042   2.07426   2.07644   2.08451   2.08919
 Alpha virt. eigenvalues --    2.10718   2.11665   2.12341   2.12867   2.13169
 Alpha virt. eigenvalues --    2.13743   2.15092   2.15435   2.16851   2.17568
 Alpha virt. eigenvalues --    2.18138   2.18839   2.19795   2.20144   2.20322
 Alpha virt. eigenvalues --    2.24159   2.28083   2.30610   2.33862   2.35470
 Alpha virt. eigenvalues --    2.36661   2.36742   2.38342   2.39921   2.44046
 Alpha virt. eigenvalues --    2.44267   2.44906   2.45635   2.48117   2.49193
 Alpha virt. eigenvalues --    2.51678   2.52973   2.53144   2.53261   2.54693
 Alpha virt. eigenvalues --    2.55454   2.56316   2.56584   2.56675   2.58231
 Alpha virt. eigenvalues --    2.58471   2.58707   2.62149   2.62880   2.63076
 Alpha virt. eigenvalues --    2.72733   2.73173   2.73476   2.75739   2.76053
 Alpha virt. eigenvalues --    2.76224   2.76487   2.78810   2.79182   2.79687
 Alpha virt. eigenvalues --    2.80064   2.80247   2.80559   2.80632   2.80851
 Alpha virt. eigenvalues --    2.81318   2.82346   2.82663   2.83063   2.83282
 Alpha virt. eigenvalues --    2.83339   2.84161   2.85747   2.86035   2.87126
 Alpha virt. eigenvalues --    2.87349   2.87649   2.87914   2.91152   2.92373
 Alpha virt. eigenvalues --    2.92422   2.92548   2.93077   2.93117   2.93479
 Alpha virt. eigenvalues --    2.94004   2.94526   2.94539   2.94817   2.97778
 Alpha virt. eigenvalues --    2.99877   3.00377   3.01449   3.01524   3.02250
 Alpha virt. eigenvalues --    3.04393   3.04556   3.04801   3.05332   3.05622
 Alpha virt. eigenvalues --    3.06460   3.06467   3.07575   3.07757   3.11354
 Alpha virt. eigenvalues --    3.11873   3.15771   3.18328   3.19398   3.19766
 Alpha virt. eigenvalues --    3.21221   3.22740   3.25391   3.31840   3.31988
 Alpha virt. eigenvalues --    3.32399   3.33730   3.34826   3.35409   3.37295
 Alpha virt. eigenvalues --    3.47228   3.47446   3.49024   3.49404   3.49704
 Alpha virt. eigenvalues --    3.49854   3.53593   3.53745   3.60731   3.60980
 Alpha virt. eigenvalues --    3.61501   3.63264   3.64951   3.65397   3.66114
 Alpha virt. eigenvalues --    3.73668   3.73738   3.76276   3.76299   3.76675
 Alpha virt. eigenvalues --    3.77370   3.90864   3.92018   3.92832   4.09805
 Alpha virt. eigenvalues --    4.10029   4.10318   4.14504   4.14525   4.14620
 Alpha virt. eigenvalues --    4.24148   4.24284   4.26142   4.26167   4.26654
 Alpha virt. eigenvalues --    4.26940   4.28273   4.28658   4.50778   4.66930
 Alpha virt. eigenvalues --    4.67478   4.93564   4.95241   4.95718   4.98552
 Alpha virt. eigenvalues --   23.68223  23.81380  23.81766  23.88085  24.08452
 Alpha virt. eigenvalues --   24.08488  24.10832  24.10950  24.11148  24.11574
 Alpha virt. eigenvalues --   24.12891  24.13002  24.20519  24.20642  24.20993
 Alpha virt. eigenvalues --   24.24040  24.24346  24.24371  24.24537  24.24592
 Alpha virt. eigenvalues --   24.31204  24.33805  24.33820  24.34834
          Condensed to atoms (all electrons):
               1          2          3          4          5          6
     1  C   19.166300   1.294741   0.228997  -5.694511  -0.055756   0.709615
     2  C    1.294741  11.022451  -0.060886   1.356215   0.379662  -1.982482
     3  C    0.228997  -0.060886  13.714589  -2.698470   0.102929  -2.608339
     4  C   -5.694511   1.356215  -2.698470  19.357961  -0.044402  -0.273410
     5  H   -0.055756   0.379662   0.102929  -0.044402   0.555642  -0.058006
     6  C    0.709615  -1.982482  -2.608339  -0.273410  -0.058006  14.767621
     7  C   -6.632687  -1.997329   1.775668  -6.699422   0.048145  -0.864871
     8  H   -0.122164   0.021851   0.298966   0.104789  -0.000894   0.057003
     9  C   -2.501508   0.097795   0.017466   0.195106   0.105138  -1.624703
    10  C   -0.230424  -1.982746  -1.611835   0.634465  -0.051933   0.870311
    11  C   -0.075258   2.504048  -3.181667   1.005102  -0.075892  -0.699620
    12  C   -1.526442  -2.745170   3.293578  -0.953187   0.033835  -1.438191
    13  C   -0.457541  -1.663093  -2.262808  -0.341036  -0.036164   1.297714
    14  H    0.106358   0.012814   0.065233  -0.092353  -0.001495  -0.019461
    15  C    0.918640   2.247847  -0.185179  -0.017149  -0.098654   0.348357
    16  C   -0.881910  -2.485615   0.178171  -1.569000   0.041126  -0.059227
    17  C   -0.204969   0.463616   0.248677   0.311805   0.034992  -2.148573
    18  H    0.017445   0.006146  -0.089909  -0.029091  -0.018477  -0.026155
    19  C    0.138952   0.046492   0.180137  -0.086371   0.001556  -1.499948
    20  H    0.103037  -0.004400  -0.039873   0.001802  -0.002918  -0.007575
    21  C    1.884176  -0.030888   2.457265  -1.170447  -0.002346  -0.187604
    22  C   -1.181476   0.059909  -2.606397   1.880792  -0.002234   0.189894
    23  C    0.350387   0.520807   0.092524  -0.181551   0.031976   0.040195
    24  H   -0.032651   0.003610  -0.024140   0.025951  -0.017830   0.035574
    25  C   -0.109807   0.030087   0.055627   0.131170   0.004861  -0.083482
    26  H    0.004363  -0.002937  -0.012468   0.098181  -0.002878   0.014019
    27  C   -0.185057  -0.103209  -0.105978  -0.064159   0.005369  -0.125949
    28  H    0.003192  -0.000767   0.013530   0.005788   0.000247   0.017509
    29  H   -0.003012   0.001199   0.006531   0.001094   0.000165   0.006637
    30  C    0.260051   0.074774   0.432248  -0.155315   0.001857  -0.075911
    31  H   -0.082163  -0.021621  -0.062926   0.009459   0.000045   0.002038
    32  C   -0.142373   0.076791   0.145780   0.230056   0.002030  -0.055316
    33  H    0.009249  -0.020855  -0.015272  -0.083046   0.000004   0.013029
    34  C   -0.062257  -0.119416  -0.031858  -0.201289   0.004177   0.035674
    35  H    0.006231   0.000064   0.001388   0.003234   0.000102  -0.002125
    36  H    0.000799   0.001700   0.000472  -0.002676   0.000163  -0.000918
    37  H   -0.005146  -0.002121  -0.006179   0.000323  -0.000215   0.027763
    38  C    0.021685  -0.023650  -0.111464   0.029861  -0.000719   0.047867
    39  H    0.004433   0.000437   0.008359   0.000422   0.000002  -0.003921
    40  H    0.000334   0.000523   0.005689   0.004238   0.000006  -0.001167
    41  H    0.000379  -0.002748  -0.000854  -0.005898  -0.000232   0.000889
    42  H    0.000944  -0.000778  -0.006139   0.001128  -0.000014   0.001255
               7          8          9         10         11         12
     1  C   -6.632687  -0.122164  -2.501508  -0.230424  -0.075258  -1.526442
     2  C   -1.997329   0.021851   0.097795  -1.982746   2.504048  -2.745170
     3  C    1.775668   0.298966   0.017466  -1.611835  -3.181667   3.293578
     4  C   -6.699422   0.104789   0.195106   0.634465   1.005102  -0.953187
     5  H    0.048145  -0.000894   0.105138  -0.051933  -0.075892   0.033835
     6  C   -0.864871   0.057003  -1.624703   0.870311  -0.699620  -1.438191
     7  C   19.593759   0.005400   1.748085  -0.896950  -0.894243   1.494622
     8  H    0.005400   0.506466   0.065618  -0.017366   0.078909  -0.150042
     9  C    1.748085   0.065618  13.547861  -2.748471  -0.093056   0.153345
    10  C   -0.896950  -0.017366  -2.748471  14.983186   0.339942  -0.070662
    11  C   -0.894243   0.078909  -0.093056   0.339942  16.234965  -8.640695
    12  C    1.494622  -0.150042   0.153345  -0.070662  -8.640695  17.663787
    13  C    0.246419   0.029119  -2.212411   1.257809   0.146724  -0.132216
    14  H   -0.028875  -0.003154   0.313126   0.053294  -0.008538   0.007853
    15  C   -0.963068  -0.006089  -3.024976  -0.545615  -0.392876   0.133940
    16  C    1.558561   0.005058   3.019354  -1.489489   0.151572  -0.051160
    17  C   -0.038763   0.020652   0.082686   0.036673  -0.429068   0.060285
    18  H   -0.012195  -0.002081  -0.021739   0.035938   0.577588  -0.073818
    19  C    0.202497  -0.018801   0.053947  -0.077064   0.264532  -0.590445
    20  H   -0.101017  -0.001509  -0.013386   0.012986  -0.021933   0.431668
    21  C   -1.294187  -0.137437  -2.430996   0.159895  -0.161970   0.309868
    22  C   -1.098032   0.081707   2.307505  -0.115995   0.125449  -0.171357
    23  C   -0.064634  -0.002704   0.252244  -2.147805  -0.123591   0.049957
    24  H   -0.014430   0.000087  -0.092144  -0.021648  -0.005669   0.005637
    25  C    0.237982   0.003515   0.249640  -1.539040   0.037858  -0.014640
    26  H   -0.095830  -0.000012  -0.043966   0.001152  -0.007180   0.004981
    27  C   -0.028045  -0.004163  -0.026718   0.034194  -0.299146  -0.375698
    28  H    0.004668   0.000369   0.001119  -0.002173  -0.108163   0.026408
    29  H    0.007064  -0.000958   0.000419  -0.000790   0.002342  -0.068942
    30  C    0.001209  -0.012828   0.109480  -0.053917   0.011913  -0.035382
    31  H    0.076891  -0.001149  -0.013840   0.012545  -0.007810   0.028685
    32  C    0.008647   0.005223   0.382808  -0.084653  -0.019268   0.038858
    33  H    0.081395  -0.002187  -0.064519   0.002831   0.006730  -0.006928
    34  C   -0.025344   0.000220  -0.123757  -0.150350  -0.008730   0.000031
    35  H    0.004572  -0.000058   0.014027   0.020625  -0.000079   0.000345
    36  H    0.007118  -0.000017   0.007009   0.008918   0.000403  -0.000081
    37  H   -0.000078   0.000215  -0.000769   0.000853   0.016414  -0.018573
    38  C   -0.301342   0.000773  -0.091799   0.049882   0.006780  -0.020901
    39  H    0.001956  -0.000838   0.005242  -0.001137  -0.000521   0.002073
    40  H    0.001721   0.000240   0.008540  -0.004071  -0.000322   0.000632
    41  H   -0.000065  -0.000002  -0.006604   0.027094  -0.000157   0.000034
    42  H   -0.007526   0.000101  -0.005490   0.001285   0.000164  -0.000519
              13         14         15         16         17         18
     1  C   -0.457541   0.106358   0.918640  -0.881910  -0.204969   0.017445
     2  C   -1.663093   0.012814   2.247847  -2.485615   0.463616   0.006146
     3  C   -2.262808   0.065233  -0.185179   0.178171   0.248677  -0.089909
     4  C   -0.341036  -0.092353  -0.017149  -1.569000   0.311805  -0.029091
     5  H   -0.036164  -0.001495  -0.098654   0.041126   0.034992  -0.018477
     6  C    1.297714  -0.019461   0.348357  -0.059227  -2.148573  -0.026155
     7  C    0.246419  -0.028875  -0.963068   1.558561  -0.038763  -0.012195
     8  H    0.029119  -0.003154  -0.006089   0.005058   0.020652  -0.002081
     9  C   -2.212411   0.313126  -3.024976   3.019354   0.082686  -0.021739
    10  C    1.257809   0.053294  -0.545615  -1.489489   0.036673   0.035938
    11  C    0.146724  -0.008538  -0.392876   0.151572  -0.429068   0.577588
    12  C   -0.132216   0.007853   0.133940  -0.051160   0.060285  -0.073818
    13  C   14.198539   0.020044   0.146616  -0.065883  -0.033773   0.016682
    14  H    0.020044   0.499555   0.076898  -0.141138  -0.002606   0.000017
    15  C    0.146616   0.076898  16.717331  -8.860390  -0.119683  -0.006842
    16  C   -0.065883  -0.141138  -8.860390  17.756113   0.047517   0.008677
    17  C   -0.033773  -0.002606  -0.119683   0.047517   8.235569  -0.094755
    18  H    0.016682   0.000017  -0.006842   0.008677  -0.094755   0.494171
    19  C   -0.114606   0.003478   0.035160  -0.014127  -0.657597  -0.001082
    20  H   -0.016529   0.000087  -0.006787   0.004849  -0.016289   0.000961
    21  C   -0.858754   0.072648   0.109170  -0.130169   0.015473  -0.003701
    22  C   -0.828739  -0.125849  -0.135204   0.225291  -0.004469   0.003929
    23  C   -0.037003   0.020819  -0.710081   0.157910  -0.012982  -0.007980
    24  H    0.016972  -0.001904   0.590640  -0.078131  -0.007513   0.002709
    25  C   -0.115501  -0.017306   0.247417  -0.631396   0.002646  -0.000356
    26  H   -0.008486  -0.000500  -0.019340   0.422337  -0.000540   0.000161
    27  C    0.035013   0.000224  -0.009554   0.000838   0.356834   0.021347
    28  H   -0.001173  -0.000055  -0.000019   0.000247   0.436017  -0.011629
    29  H   -0.002109  -0.000023   0.000327  -0.000063   0.013720  -0.000143
    30  C   -1.754662   0.009283  -0.019740   0.036420   0.006998  -0.000723
    31  H    0.023946  -0.002429   0.006078  -0.005834   0.001347  -0.000018
    32  C   -1.734633  -0.012627   0.008659  -0.032365  -0.001014  -0.000475
    33  H    0.015709  -0.001505  -0.007175   0.028386  -0.000032   0.000359
    34  C    0.039674  -0.003286  -0.174842  -0.395259  -0.001145  -0.000093
    35  H   -0.001237   0.000371  -0.116882   0.027599   0.000072  -0.000033
    36  H   -0.002523  -0.001024   0.002113  -0.073782   0.000017   0.000008
    37  H    0.001072  -0.000002  -0.000172   0.000046  -0.080740   0.001019
    38  C   -0.219438  -0.001389   0.007838  -0.021345  -0.000177   0.000214
    39  H    0.016587   0.000351  -0.000320   0.000567  -0.000032  -0.000003
    40  H    0.018720  -0.000690  -0.000600   0.002063   0.000018  -0.000013
    41  H    0.001148   0.000230   0.019472  -0.015910  -0.000026   0.000036
    42  H    0.023336   0.000019   0.000185  -0.000516  -0.000002   0.000005
              19         20         21         22         23         24
     1  C    0.138952   0.103037   1.884176  -1.181476   0.350387  -0.032651
     2  C    0.046492  -0.004400  -0.030888   0.059909   0.520807   0.003610
     3  C    0.180137  -0.039873   2.457265  -2.606397   0.092524  -0.024140
     4  C   -0.086371   0.001802  -1.170447   1.880792  -0.181551   0.025951
     5  H    0.001556  -0.002918  -0.002346  -0.002234   0.031976  -0.017830
     6  C   -1.499948  -0.007575  -0.187604   0.189894   0.040195   0.035574
     7  C    0.202497  -0.101017  -1.294187  -1.098032  -0.064634  -0.014430
     8  H   -0.018801  -0.001509  -0.137437   0.081707  -0.002704   0.000087
     9  C    0.053947  -0.013386  -2.430996   2.307505   0.252244  -0.092144
    10  C   -0.077064   0.012986   0.159895  -0.115995  -2.147805  -0.021648
    11  C    0.264532  -0.021933  -0.161970   0.125449  -0.123591  -0.005669
    12  C   -0.590445   0.431668   0.309868  -0.171357   0.049957   0.005637
    13  C   -0.114606  -0.016529  -0.858754  -0.828739  -0.037003   0.016972
    14  H    0.003478   0.000087   0.072648  -0.125849   0.020819  -0.001904
    15  C    0.035160  -0.006787   0.109170  -0.135204  -0.710081   0.590640
    16  C   -0.014127   0.004849  -0.130169   0.225291   0.157910  -0.078131
    17  C   -0.657597  -0.016289   0.015473  -0.004469  -0.012982  -0.007513
    18  H   -0.001082   0.000961  -0.003701   0.003929  -0.007980   0.002709
    19  C    7.702191  -0.032878   0.004210  -0.004573   0.001883  -0.000081
    20  H   -0.032878   0.504399   0.034785  -0.012030  -0.000514   0.000181
    21  C    0.004210   0.034785  15.234804  -7.151013  -0.005165   0.003981
    22  C   -0.004573  -0.012030  -7.151013  15.350748   0.016657  -0.003749
    23  C    0.001883  -0.000514  -0.005165   0.016657   8.374433  -0.107539
    24  H   -0.000081   0.000181   0.003981  -0.003749  -0.107539   0.489998
    25  C    0.001161  -0.000013  -0.004115   0.000567  -0.646349  -0.001019
    26  H   -0.000018   0.000208  -0.007978   0.025729  -0.013300   0.000973
    27  C    0.435264   0.014875  -0.013064   0.004510  -0.000851  -0.000268
    28  H    0.005869  -0.000507   0.000408  -0.000154   0.000072  -0.000049
    29  H    0.410891  -0.010050   0.000944  -0.000184   0.000003   0.000009
    30  C   -0.019584   0.002770  -0.152991  -0.241802  -0.001032  -0.000482
    31  H   -0.005691  -0.004766   0.433169  -0.010248  -0.000004   0.000336
    32  C    0.005475   0.001461  -0.136787  -0.265706   0.007647  -0.000861
    33  H   -0.001008  -0.000112  -0.019247   0.446119   0.001086  -0.000019
    34  C   -0.000469  -0.000017   0.004952  -0.014682   0.287825   0.023721
    35  H    0.000039   0.000014  -0.000139   0.000391   0.441422  -0.011682
    36  H    0.000005  -0.000004  -0.000273   0.001219   0.013023  -0.000151
    37  H   -0.060066   0.001206  -0.000489   0.000158  -0.000023   0.000032
    38  C   -0.004139  -0.000723  -0.284342  -0.180976  -0.000241   0.000248
    39  H    0.000668   0.000455  -0.083576  -0.001685   0.000020  -0.000013
    40  H    0.000029   0.000068   0.001978  -0.087394  -0.000019  -0.000004
    41  H   -0.000010   0.000002   0.000162  -0.000503  -0.082195   0.001066
    42  H   -0.000120  -0.000061   0.004443   0.009961  -0.000003   0.000006
              25         26         27         28         29         30
     1  C   -0.109807   0.004363  -0.185057   0.003192  -0.003012   0.260051
     2  C    0.030087  -0.002937  -0.103209  -0.000767   0.001199   0.074774
     3  C    0.055627  -0.012468  -0.105978   0.013530   0.006531   0.432248
     4  C    0.131170   0.098181  -0.064159   0.005788   0.001094  -0.155315
     5  H    0.004861  -0.002878   0.005369   0.000247   0.000165   0.001857
     6  C   -0.083482   0.014019  -0.125949   0.017509   0.006637  -0.075911
     7  C    0.237982  -0.095830  -0.028045   0.004668   0.007064   0.001209
     8  H    0.003515  -0.000012  -0.004163   0.000369  -0.000958  -0.012828
     9  C    0.249640  -0.043966  -0.026718   0.001119   0.000419   0.109480
    10  C   -1.539040   0.001152   0.034194  -0.002173  -0.000790  -0.053917
    11  C    0.037858  -0.007180  -0.299146  -0.108163   0.002342   0.011913
    12  C   -0.014640   0.004981  -0.375698   0.026408  -0.068942  -0.035382
    13  C   -0.115501  -0.008486   0.035013  -0.001173  -0.002109  -1.754662
    14  H   -0.017306  -0.000500   0.000224  -0.000055  -0.000023   0.009283
    15  C    0.247417  -0.019340  -0.009554  -0.000019   0.000327  -0.019740
    16  C   -0.631396   0.422337   0.000838   0.000247  -0.000063   0.036420
    17  C    0.002646  -0.000540   0.356834   0.436017   0.013720   0.006998
    18  H   -0.000356   0.000161   0.021347  -0.011629  -0.000143  -0.000723
    19  C    0.001161  -0.000018   0.435264   0.005869   0.410891  -0.019584
    20  H   -0.000013   0.000208   0.014875  -0.000507  -0.010050   0.002770
    21  C   -0.004115  -0.007978  -0.013064   0.000408   0.000944  -0.152991
    22  C    0.000567   0.025729   0.004510  -0.000154  -0.000184  -0.241802
    23  C   -0.646349  -0.013300  -0.000851   0.000072   0.000003  -0.001032
    24  H   -0.001019   0.000973  -0.000268  -0.000049   0.000009  -0.000482
    25  C    7.737833  -0.043534  -0.000511   0.000052   0.000006   0.005840
    26  H   -0.043534   0.496125  -0.000028   0.000017  -0.000004   0.001116
    27  C   -0.000511  -0.000028   6.522486  -0.075430  -0.055498  -0.005088
    28  H    0.000052   0.000017  -0.075430   0.475978   0.001062   0.000043
    29  H    0.000006  -0.000004  -0.055498   0.001062   0.472547   0.000457
    30  C    0.005840   0.001116  -0.005088   0.000043   0.000457   7.743369
    31  H   -0.001015  -0.000059  -0.000084   0.000039   0.000314  -0.068967
    32  C   -0.021426   0.001796   0.000137   0.000015  -0.000045  -0.451815
    33  H   -0.004978  -0.004595   0.000167  -0.000016   0.000003  -0.017234
    34  C    0.430208   0.012408   0.000081   0.000020   0.000001   0.000017
    35  H    0.005541  -0.000465   0.000027  -0.000005  -0.000001   0.000018
    36  H    0.414107  -0.009674   0.000002  -0.000001   0.000000  -0.000031
    37  H   -0.000011   0.000002   0.464512  -0.010759  -0.010509  -0.000123
    38  C   -0.004311  -0.000695  -0.000104  -0.000002   0.000058   0.375156
    39  H    0.000028   0.000057   0.000047  -0.000001  -0.000029   0.424075
    40  H    0.000624   0.000433  -0.000001   0.000000  -0.000002   0.017140
    41  H   -0.061686   0.001249   0.000004  -0.000001  -0.000000   0.000002
    42  H   -0.000120  -0.000049   0.000002  -0.000000   0.000001  -0.075586
              31         32         33         34         35         36
     1  C   -0.082163  -0.142373   0.009249  -0.062257   0.006231   0.000799
     2  C   -0.021621   0.076791  -0.020855  -0.119416   0.000064   0.001700
     3  C   -0.062926   0.145780  -0.015272  -0.031858   0.001388   0.000472
     4  C    0.009459   0.230056  -0.083046  -0.201289   0.003234  -0.002676
     5  H    0.000045   0.002030   0.000004   0.004177   0.000102   0.000163
     6  C    0.002038  -0.055316   0.013029   0.035674  -0.002125  -0.000918
     7  C    0.076891   0.008647   0.081395  -0.025344   0.004572   0.007118
     8  H   -0.001149   0.005223  -0.002187   0.000220  -0.000058  -0.000017
     9  C   -0.013840   0.382808  -0.064519  -0.123757   0.014027   0.007009
    10  C    0.012545  -0.084653   0.002831  -0.150350   0.020625   0.008918
    11  C   -0.007810  -0.019268   0.006730  -0.008730  -0.000079   0.000403
    12  C    0.028685   0.038858  -0.006928   0.000031   0.000345  -0.000081
    13  C    0.023946  -1.734633   0.015709   0.039674  -0.001237  -0.002523
    14  H   -0.002429  -0.012627  -0.001505  -0.003286   0.000371  -0.001024
    15  C    0.006078   0.008659  -0.007175  -0.174842  -0.116882   0.002113
    16  C   -0.005834  -0.032365   0.028386  -0.395259   0.027599  -0.073782
    17  C    0.001347  -0.001014  -0.000032  -0.001145   0.000072   0.000017
    18  H   -0.000018  -0.000475   0.000359  -0.000093  -0.000033   0.000008
    19  C   -0.005691   0.005475  -0.001008  -0.000469   0.000039   0.000005
    20  H   -0.004766   0.001461  -0.000112  -0.000017   0.000014  -0.000004
    21  C    0.433169  -0.136787  -0.019247   0.004952  -0.000139  -0.000273
    22  C   -0.010248  -0.265706   0.446119  -0.014682   0.000391   0.001219
    23  C   -0.000004   0.007647   0.001086   0.287825   0.441422   0.013023
    24  H    0.000336  -0.000861  -0.000019   0.023721  -0.011682  -0.000151
    25  C   -0.001015  -0.021426  -0.004978   0.430208   0.005541   0.414107
    26  H   -0.000059   0.001796  -0.004595   0.012408  -0.000465  -0.009674
    27  C   -0.000084   0.000137   0.000167   0.000081   0.000027   0.000002
    28  H    0.000039   0.000015  -0.000016   0.000020  -0.000005  -0.000001
    29  H    0.000314  -0.000045   0.000003   0.000001  -0.000001   0.000000
    30  C   -0.068967  -0.451815  -0.017234   0.000017   0.000018  -0.000031
    31  H    0.496716  -0.016381   0.000864   0.000169  -0.000014   0.000002
    32  C   -0.016381   7.768381  -0.067236  -0.005308   0.000050   0.000449
    33  H    0.000864  -0.067236   0.497355   0.000139   0.000036   0.000286
    34  C    0.000169  -0.005308   0.000139   6.556682  -0.076838  -0.055507
    35  H   -0.000014   0.000050   0.000036  -0.076838   0.475800   0.000976
    36  H    0.000002   0.000449   0.000286  -0.055507   0.000976   0.472286
    37  H   -0.000019   0.000004   0.000004   0.000004  -0.000000  -0.000000
    38  C    0.021322   0.359491   0.023737  -0.000057  -0.000004   0.000054
    39  H   -0.012325   0.017046  -0.000710  -0.000002   0.000000  -0.000002
    40  H   -0.000676   0.423795  -0.012567   0.000039  -0.000001  -0.000027
    41  H    0.000004  -0.000126  -0.000017   0.463962  -0.010651  -0.010498
    42  H    0.001998  -0.078348   0.002117   0.000003  -0.000000   0.000001
              37         38         39         40         41         42
     1  C   -0.005146   0.021685   0.004433   0.000334   0.000379   0.000944
     2  C   -0.002121  -0.023650   0.000437   0.000523  -0.002748  -0.000778
     3  C   -0.006179  -0.111464   0.008359   0.005689  -0.000854  -0.006139
     4  C    0.000323   0.029861   0.000422   0.004238  -0.005898   0.001128
     5  H   -0.000215  -0.000719   0.000002   0.000006  -0.000232  -0.000014
     6  C    0.027763   0.047867  -0.003921  -0.001167   0.000889   0.001255
     7  C   -0.000078  -0.301342   0.001956   0.001721  -0.000065  -0.007526
     8  H    0.000215   0.000773  -0.000838   0.000240  -0.000002   0.000101
     9  C   -0.000769  -0.091799   0.005242   0.008540  -0.006604  -0.005490
    10  C    0.000853   0.049882  -0.001137  -0.004071   0.027094   0.001285
    11  C    0.016414   0.006780  -0.000521  -0.000322  -0.000157   0.000164
    12  C   -0.018573  -0.020901   0.002073   0.000632   0.000034  -0.000519
    13  C    0.001072  -0.219438   0.016587   0.018720   0.001148   0.023336
    14  H   -0.000002  -0.001389   0.000351  -0.000690   0.000230   0.000019
    15  C   -0.000172   0.007838  -0.000320  -0.000600   0.019472   0.000185
    16  C    0.000046  -0.021345   0.000567   0.002063  -0.015910  -0.000516
    17  C   -0.080740  -0.000177  -0.000032   0.000018  -0.000026  -0.000002
    18  H    0.001019   0.000214  -0.000003  -0.000013   0.000036   0.000005
    19  C   -0.060066  -0.004139   0.000668   0.000029  -0.000010  -0.000120
    20  H    0.001206  -0.000723   0.000455   0.000068   0.000002  -0.000061
    21  C   -0.000489  -0.284342  -0.083576   0.001978   0.000162   0.004443
    22  C    0.000158  -0.180976  -0.001685  -0.087394  -0.000503   0.009961
    23  C   -0.000023  -0.000241   0.000020  -0.000019  -0.082195  -0.000003
    24  H    0.000032   0.000248  -0.000013  -0.000004   0.001066   0.000006
    25  C   -0.000011  -0.004311   0.000028   0.000624  -0.061686  -0.000120
    26  H    0.000002  -0.000695   0.000057   0.000433   0.001249  -0.000049
    27  C    0.464512  -0.000104   0.000047  -0.000001   0.000004   0.000002
    28  H   -0.010759  -0.000002  -0.000001   0.000000  -0.000001  -0.000000
    29  H   -0.010509   0.000058  -0.000029  -0.000002  -0.000000   0.000001
    30  C   -0.000123   0.375156   0.424075   0.017140   0.000002  -0.075586
    31  H   -0.000019   0.021322  -0.012325  -0.000676   0.000004   0.001998
    32  C    0.000004   0.359491   0.017046   0.423795  -0.000126  -0.078348
    33  H    0.000004   0.023737  -0.000710  -0.012567  -0.000017   0.002117
    34  C    0.000004  -0.000057  -0.000002   0.000039   0.463962   0.000003
    35  H   -0.000000  -0.000004   0.000000  -0.000001  -0.010651  -0.000000
    36  H   -0.000000   0.000054  -0.000002  -0.000027  -0.010498   0.000001
    37  H    0.486842   0.000001  -0.000000  -0.000000   0.000000   0.000000
    38  C    0.000001   6.438568  -0.066592  -0.068722   0.000002   0.468900
    39  H   -0.000000  -0.066592   0.475923   0.001307  -0.000000  -0.012072
    40  H   -0.000000  -0.068722   0.001307   0.475953  -0.000000  -0.012268
    41  H    0.000000   0.000002  -0.000000  -0.000000   0.486409   0.000000
    42  H    0.000000   0.468900  -0.012072  -0.012268   0.000000   0.488106
 Mulliken charges:
               1
     1  C    0.956807
     2  C   -0.972866
     3  C   -1.601180
     4  C    0.973840
     5  H    0.117033
     6  C    1.363990
     7  C    0.952556
     8  H    0.198175
     9  C   -1.596705
    10  C    1.300259
    11  C   -0.255982
    12  C   -0.655370
    13  C    1.348478
    14  H    0.203509
    15  C   -0.195450
    16  C   -0.669991
    17  C   -0.520865
    18  H    0.213903
    19  C   -0.305756
    20  H    0.178076
    21  C   -0.464654
    22  C   -0.486083
    23  C   -0.515324
    24  H    0.220249
    25  C   -0.296151
    26  H    0.189231
    27  C   -0.417328
    28  H    0.218232
    29  H    0.226566
    30  C   -0.371022
    31  H    0.202078
    32  C   -0.357837
    33  H    0.199654
    34  C   -0.409501
    35  H    0.217274
    36  H    0.226060
    37  H    0.195525
    38  C   -0.449306
    39  H    0.223726
    40  H    0.224456
    41  H    0.196040
    42  H    0.195654
 Sum of Mulliken charges =  -0.00000
 Mulliken charges with hydrogens summed into heavy atoms:
               1
     1  C    0.956807
     2  C   -0.855833
     3  C   -1.403006
     4  C    0.973840
     6  C    1.363990
     7  C    0.952556
     9  C   -1.393196
    10  C    1.300259
    11  C   -0.042078
    12  C   -0.477294
    13  C    1.348478
    15  C    0.024798
    16  C   -0.480759
    17  C   -0.302633
    19  C   -0.079190
    21  C   -0.262576
    22  C   -0.286429
    23  C   -0.298050
    25  C   -0.070090
    27  C   -0.221803
    30  C   -0.147297
    32  C   -0.133382
    34  C   -0.213461
    38  C   -0.253652
 Electronic spatial extent (au):  <R**2>=          10005.7816
 Charge=             -0.0000 electrons
 Dipole moment (field-independent basis, Debye):
    X=             -0.0079    Y=              0.0089    Z=              0.0006  Tot=              0.0120
 Quadrupole moment (field-independent basis, Debye-Ang):
   XX=           -126.0379   YY=           -126.3830   ZZ=           -141.7668
   XY=              0.0649   XZ=              5.9141   YZ=              4.0587
 Traceless Quadrupole moment (field-independent basis, Debye-Ang):
   XX=              5.3580   YY=              5.0129   ZZ=            -10.3709
   XY=              0.0649   XZ=              5.9141   YZ=              4.0587
 Octapole moment (field-independent basis, Debye-Ang**2):
  XXX=            -32.0481  YYY=              6.6798  ZZZ=              0.1817  XYY=             34.6517
  XXY=             -8.0554  XXZ=             35.2858  XZZ=             -2.4918  YZZ=              1.1963
  YYZ=            -35.4334  XYZ=            -14.1257
 Hexadecapole moment (field-independent basis, Debye-Ang**3):
 XXXX=          -6262.5175 YYYY=          -6263.3978 ZZZZ=           -521.6566 XXXY=             16.7259
 XXXZ=             87.1788 YYYX=             -3.2457 YYYZ=              7.2536 ZZZX=             16.4763
 ZZZY=             13.3630 XXYY=          -2083.1119 XXZZ=          -1232.8630 YYZZ=          -1229.2604
 XXYZ=             83.1106 YYXZ=             47.5329 ZZXY=            -11.2078
 N-N= 1.732742149912D+03 E-N=-5.611896087993D+03  KE= 9.212969558248D+02
 No NMR shielding tensors so no spin-rotation constants.
 Leave Link  601 at Mon Nov 14 15:09:33 2022, MaxMem= 16106127360 cpu:               9.0 elap:               0.3
 (Enter /opt/ap/G16/B01/g16/l9999.exe)
 1\1\GINC-N61\SP\RwB97XD\6-311++G(d,p)\C24H18\ROOT\14-Nov-2022\0\\#P wB
 97XD/6-311++G(d,p) scf=maxcycle=512\\_conf010.gjf nmol_natom 1_42\\0,1
 \C\C,1,1.39412829\C,1,1.39435449,2,118.86443127\C,2,1.39416084,1,121.1
 529487,3,0.03668482,0\H,2,1.08488355,1,119.42236619,3,-179.97409048,0\
 C,1,1.48467131,2,120.55714816,4,179.25839056,0\C,3,1.39437784,1,121.11
 776116,2,-0.05351271,0\H,3,1.08487775,1,119.41869036,2,177.23008049,0\
 C,4,1.39432447,2,118.86473838,1,0.01008406,0\C,4,1.48466627,2,120.5464
 188,1,179.19454736,0\C,6,1.3968498,1,120.7843492,2,-40.,0\C,6,1.396868
 2,1,120.67653841,2,140.,0\C,7,1.48449863,3,120.56496838,1,-179.9632580
 4,0\H,9,1.0848792,4,119.41824946,2,177.22245984,0\C,10,1.39685361,4,12
 0.76946845,2,-42.52368674,0\C,10,1.39686289,4,120.69448769,2,137.43107
 516,0\C,11,1.38888939,6,120.7380073,1,179.94058542,0\H,11,1.0847641,6,
 119.46912378,1,-1.41050605,0\C,12,1.38882428,6,120.76493111,1,-179.950
 82712,0\H,12,1.08482758,6,119.44182626,1,-1.23602505,0\C,13,1.39682899
 ,7,120.74134419,3,42.89023273,0\C,13,1.39683158,7,120.7379111,3,-137.1
 2494058,0\C,15,1.38888263,10,120.742191,4,179.9460119,0\H,15,1.0847633
 4,10,119.47085903,4,-1.40606944,0\C,16,1.38886088,10,120.76338989,4,-1
 79.95592713,0\H,16,1.08483431,10,119.44215232,4,-1.23439681,0\C,17,1.3
 9007919,11,120.20743432,6,0.00349958,0\H,17,1.0843506,11,119.71318733,
 6,179.5011609,0\H,19,1.08435858,12,119.73823132,6,179.53683762,0\C,21,
 1.38882373,13,120.76699356,7,179.99297883,0\H,21,1.0847938,13,119.4352
 623,7,1.32183327,0\C,22,1.38881869,13,120.76647403,7,-179.97118338,0\H
 ,22,1.08479982,13,119.43203605,7,1.34657928,0\C,23,1.39007007,15,120.2
 0732995,10,0.00573957,0\H,23,1.08434813,15,119.71220819,10,179.5072436
 8,0\H,25,1.08436328,16,119.73539424,10,179.53636455,0\H,27,1.08412515,
 17,120.21790854,11,179.98397203,0\C,30,1.39008059,21,120.18795226,13,-
 0.02169059,0\H,30,1.08435324,21,119.73787119,13,-179.52151214,0\H,32,1
 .0843543,22,119.737043,13,-179.52886928,0\H,34,1.08412314,23,120.22152
 803,15,179.98800213,0\H,38,1.08411439,30,120.21547163,21,-179.98600656
 ,0\\Version=ES64L-G16RevB.01\State=1-A\HF=-925.3118791\RMSD=8.192e-09\
 Dipole=-0.0037604,0.0002274,0.0028204\Quadrupole=3.632405,-7.344322,3.
 711917,-2.8149821,-0.1307164,-4.9649077\PG=C01 [X(C24H18)]\\@


 ... IT IS NO ONE DREAME THAT
     CAN PLEASE THESE ALL ...

                -- BEN JONSON
 Job cpu time:       0 days  1 hours 19 minutes  7.4 seconds.
 Elapsed time:       0 days  0 hours  2 minutes 29.8 seconds.
 File lengths (MBytes):  RWF=    224 Int=      0 D2E=      0 Chk=     26 Scr=      1
 Normal termination of Gaussian 16 at Mon Nov 14 15:09:33 2022.
