 Entering Gaussian System, Link 0=g16
 Input=_conf018.gjf
 Output=_conf018.log
 Initial command:
 /opt/ap/G16/B01/g16/l1.exe "/tmp2/scr/Gau-12943.inp" -scrdir="/tmp2/scr/"
 Entering Link 1 = /opt/ap/G16/B01/g16/l1.exe PID=     12944.
  
 Copyright (c) 1988-2017, Gaussian, Inc.  All Rights Reserved.
  
 This is part of the Gaussian(R) 16 program.  It is based on
 the Gaussian(R) 09 system (copyright 2009, Gaussian, Inc.),
 the Gaussian(R) 03 system (copyright 2003, Gaussian, Inc.),
 the Gaussian(R) 98 system (copyright 1998, Gaussian, Inc.),
 the Gaussian(R) 94 system (copyright 1995, Gaussian, Inc.),
 the Gaussian 92(TM) system (copyright 1992, Gaussian, Inc.),
 the Gaussian 90(TM) system (copyright 1990, Gaussian, Inc.),
 the Gaussian 88(TM) system (copyright 1988, Gaussian, Inc.),
 the Gaussian 86(TM) system (copyright 1986, Carnegie Mellon
 University), and the Gaussian 82(TM) system (copyright 1983,
 Carnegie Mellon University). Gaussian is a federally registered
 trademark of Gaussian, Inc.
  
 This software contains proprietary and confidential information,
 including trade secrets, belonging to Gaussian, Inc.
  
 This software is provided under written license and may be
 used, copied, transmitted, or stored only in accord with that
 written license.
  
 The following legend is applicable only to US Government
 contracts under FAR:
  
                    RESTRICTED RIGHTS LEGEND
  
 Use, reproduction and disclosure by the US Government is
 subject to restrictions as set forth in subparagraphs (a)
 and (c) of the Commercial Computer Software - Restricted
 Rights clause in FAR 52.227-19.
  
 Gaussian, Inc.
 340 Quinnipiac St., Bldg. 40, Wallingford CT 06492
  
  
 ---------------------------------------------------------------
 Warning -- This program may not be used in any manner that
 competes with the business of Gaussian, Inc. or will provide
 assistance to any competitor of Gaussian, Inc.  The licensee
 of this program is prohibited from giving any competitor of
 Gaussian, Inc. access to this program.  By using this program,
 the user acknowledges that Gaussian, Inc. is engaged in the
 business of creating and licensing software in the field of
 computational chemistry and represents and warrants to the
 licensee that it is not a competitor of Gaussian, Inc. and that
 it will not use this program in any manner prohibited above.
 ---------------------------------------------------------------
  

 Cite this work as:
 Gaussian 16, Revision B.01,
 M. J. Frisch, G. W. Trucks, H. B. Schlegel, G. E. Scuseria, 
 M. A. Robb, J. R. Cheeseman, G. Scalmani, V. Barone, 
 G. A. Petersson, H. Nakatsuji, X. Li, M. Caricato, A. V. Marenich, 
 J. Bloino, B. G. Janesko, R. Gomperts, B. Mennucci, H. P. Hratchian, 
 J. V. Ortiz, A. F. Izmaylov, J. L. Sonnenberg, D. Williams-Young, 
 F. Ding, F. Lipparini, F. Egidi, J. Goings, B. Peng, A. Petrone, 
 T. Henderson, D. Ranasinghe, V. G. Zakrzewski, J. Gao, N. Rega, 
 G. Zheng, W. Liang, M. Hada, M. Ehara, K. Toyota, R. Fukuda, 
 J. Hasegawa, M. Ishida, T. Nakajima, Y. Honda, O. Kitao, H. Nakai, 
 T. Vreven, K. Throssell, J. A. Montgomery, Jr., J. E. Peralta, 
 F. Ogliaro, M. J. Bearpark, J. J. Heyd, E. N. Brothers, K. N. Kudin, 
 V. N. Staroverov, T. A. Keith, R. Kobayashi, J. Normand, 
 K. Raghavachari, A. P. Rendell, J. C. Burant, S. S. Iyengar, 
 J. Tomasi, M. Cossi, J. M. Millam, M. Klene, C. Adamo, R. Cammi, 
 J. W. Ochterski, R. L. Martin, K. Morokuma, O. Farkas, 
 J. B. Foresman, and D. J. Fox, Gaussian, Inc., Wallingford CT, 2016.
 
 ******************************************
 Gaussian 16:  ES64L-G16RevB.01 20-Dec-2017
                14-Nov-2022 
 ******************************************
 %nprocshared=32
 Will use up to   32 processors via shared memory.
 %mem=120GB
 %chk=_conf018.chk
 ----------------------------------------
 #P wB97XD/6-311++G(d,p) scf=maxcycle=512
 ----------------------------------------
 1/38=1,172=1/1;
 2/12=2,17=6,18=5,40=1/2;
 3/5=4,6=6,7=1111,11=2,25=1,30=1,74=-58/1,2,3;
 4//1;
 5/5=2,7=512,38=5/2;
 6/7=2,8=2,9=2,10=2,28=1/1;
 99/5=1,9=1/99;
 Leave Link    1 at Mon Nov 14 15:12:11 2022, MaxMem= 16106127360 cpu:               1.8 elap:               0.1
 (Enter /opt/ap/G16/B01/g16/l101.exe)
 ----------------------------
 _conf018.gjf nmol_natom 1_42
 ----------------------------
 Symbolic Z-matrix:
 Charge =  0 Multiplicity = 1
 C
 C                    1     1.39413 
 C                    1     1.39435  2     118.86443 
 C                    2     1.39416  1     121.15295  3     0.03668  0
 H                    2     1.08488  1     119.42237  3    -179.97409  0
 C                    1     1.48467  2     120.55715  4     179.25839  0
 C                    3     1.39438  1     121.11776  2    -0.05351  0
 H                    3     1.08488  1     119.41869  2     177.23008  0
 C                    4     1.39432  2     118.86474  1     0.01008  0
 C                    4     1.48467  2     120.54642  1     179.19455  0
 C                    6     1.39685  1     120.78435  2     0.       0
 C                    6     1.39687  1     120.67654  2    -180.     0
 C                    7     1.4845   3     120.56497  1    -179.96326  0
 H                    9     1.08488  4     119.41825  2     177.22246  0
 C                    10    1.39685  4     120.76947  2    -42.52369  0
 C                    10    1.39686  4     120.69449  2     137.43108  0
 C                    11    1.38889  6     120.73801  1     179.94059  0
 H                    11    1.08476  6     119.46912  1    -1.41051  0
 C                    12    1.38882  6     120.76493  1    -179.95083  0
 H                    12    1.08483  6     119.44183  1    -1.23603  0
 C                    13    1.39683  7     120.74134  3     42.89023  0
 C                    13    1.39683  7     120.73791  3    -137.12494  0
 C                    15    1.38888  10    120.74219  4     179.94601  0
 H                    15    1.08476  10    119.47086  4    -1.40607  0
 C                    16    1.38886  10    120.76339  4    -179.95593  0
 H                    16    1.08483  10    119.44215  4    -1.2344   0
 C                    17    1.39008  11    120.20743  6     0.0035   0
 H                    17    1.08435  11    119.71319  6     179.50116  0
 H                    19    1.08436  12    119.73823  6     179.53684  0
 C                    21    1.38882  13    120.76699  7     179.99298  0
 H                    21    1.08479  13    119.43526  7     1.32183  0
 C                    22    1.38882  13    120.76647  7    -179.97118  0
 H                    22    1.0848   13    119.43204  7     1.34658  0
 C                    23    1.39007  15    120.20733  10    0.00574  0
 H                    23    1.08435  15    119.71221  10    179.50724  0
 H                    25    1.08436  16    119.73539  10    179.53636  0
 H                    27    1.08413  17    120.21791  11    179.98397  0
 C                    30    1.39008  21    120.18795  13   -0.02169  0
 H                    30    1.08435  21    119.73787  13   -179.52151  0
 H                    32    1.08435  22    119.73704  13   -179.52887  0
 H                    34    1.08412  23    120.22153  15    179.988  0
 H                    38    1.08411  30    120.21547  21   -179.98601  0
 
 ITRead=  0  0  0  0  0  0  0  0  0  0  0  0  0  0  0  0  0  0  0  0
 ITRead=  0  0  0  0  0  0  0  0  0  0  0  0  0  0  0  0  0  0  0  0
 ITRead=  0  0
 MicOpt= -1 -1 -1 -1 -1 -1 -1 -1 -1 -1 -1 -1 -1 -1 -1 -1 -1 -1 -1 -1
 MicOpt= -1 -1 -1 -1 -1 -1 -1 -1 -1 -1 -1 -1 -1 -1 -1 -1 -1 -1 -1 -1
 MicOpt= -1 -1
 NAtoms=     42 NQM=       42 NQMF=       0 NMMI=      0 NMMIF=      0
                NMic=       0 NMicF=      0.
                    Isotopes and Nuclear Properties:
 (Nuclear quadrupole moments (NQMom) in fm**2, nuclear magnetic moments (NMagM)
  in nuclear magnetons)

  Atom         1           2           3           4           5           6           7           8           9          10
 IAtWgt=          12          12          12          12           1          12          12           1          12          12
 AtmWgt=  12.0000000  12.0000000  12.0000000  12.0000000   1.0078250  12.0000000  12.0000000   1.0078250  12.0000000  12.0000000
 NucSpn=           0           0           0           0           1           0           0           1           0           0
 AtZEff=  -0.0000000  -0.0000000  -0.0000000  -0.0000000  -0.0000000  -0.0000000  -0.0000000  -0.0000000  -0.0000000  -0.0000000
 NQMom=    0.0000000   0.0000000   0.0000000   0.0000000   0.0000000   0.0000000   0.0000000   0.0000000   0.0000000   0.0000000
 NMagM=    0.0000000   0.0000000   0.0000000   0.0000000   2.7928460   0.0000000   0.0000000   2.7928460   0.0000000   0.0000000
 AtZNuc=   6.0000000   6.0000000   6.0000000   6.0000000   1.0000000   6.0000000   6.0000000   1.0000000   6.0000000   6.0000000

  Atom        11          12          13          14          15          16          17          18          19          20
 IAtWgt=          12          12          12           1          12          12          12           1          12           1
 AtmWgt=  12.0000000  12.0000000  12.0000000   1.0078250  12.0000000  12.0000000  12.0000000   1.0078250  12.0000000   1.0078250
 NucSpn=           0           0           0           1           0           0           0           1           0           1
 AtZEff=  -0.0000000  -0.0000000  -0.0000000  -0.0000000  -0.0000000  -0.0000000  -0.0000000  -0.0000000  -0.0000000  -0.0000000
 NQMom=    0.0000000   0.0000000   0.0000000   0.0000000   0.0000000   0.0000000   0.0000000   0.0000000   0.0000000   0.0000000
 NMagM=    0.0000000   0.0000000   0.0000000   2.7928460   0.0000000   0.0000000   0.0000000   2.7928460   0.0000000   2.7928460
 AtZNuc=   6.0000000   6.0000000   6.0000000   1.0000000   6.0000000   6.0000000   6.0000000   1.0000000   6.0000000   1.0000000

  Atom        21          22          23          24          25          26          27          28          29          30
 IAtWgt=          12          12          12           1          12           1          12           1           1          12
 AtmWgt=  12.0000000  12.0000000  12.0000000   1.0078250  12.0000000   1.0078250  12.0000000   1.0078250   1.0078250  12.0000000
 NucSpn=           0           0           0           1           0           1           0           1           1           0
 AtZEff=  -0.0000000  -0.0000000  -0.0000000  -0.0000000  -0.0000000  -0.0000000  -0.0000000  -0.0000000  -0.0000000  -0.0000000
 NQMom=    0.0000000   0.0000000   0.0000000   0.0000000   0.0000000   0.0000000   0.0000000   0.0000000   0.0000000   0.0000000
 NMagM=    0.0000000   0.0000000   0.0000000   2.7928460   0.0000000   2.7928460   0.0000000   2.7928460   2.7928460   0.0000000
 AtZNuc=   6.0000000   6.0000000   6.0000000   1.0000000   6.0000000   1.0000000   6.0000000   1.0000000   1.0000000   6.0000000

  Atom        31          32          33          34          35          36          37          38          39          40
 IAtWgt=           1          12           1          12           1           1           1          12           1           1
 AtmWgt=   1.0078250  12.0000000   1.0078250  12.0000000   1.0078250   1.0078250   1.0078250  12.0000000   1.0078250   1.0078250
 NucSpn=           1           0           1           0           1           1           1           0           1           1
 AtZEff=  -0.0000000  -0.0000000  -0.0000000  -0.0000000  -0.0000000  -0.0000000  -0.0000000  -0.0000000  -0.0000000  -0.0000000
 NQMom=    0.0000000   0.0000000   0.0000000   0.0000000   0.0000000   0.0000000   0.0000000   0.0000000   0.0000000   0.0000000
 NMagM=    2.7928460   0.0000000   2.7928460   0.0000000   2.7928460   2.7928460   2.7928460   0.0000000   2.7928460   2.7928460
 AtZNuc=   1.0000000   6.0000000   1.0000000   6.0000000   1.0000000   1.0000000   1.0000000   6.0000000   1.0000000   1.0000000

  Atom        41          42
 IAtWgt=           1           1
 AtmWgt=   1.0078250   1.0078250
 NucSpn=           1           1
 AtZEff=  -0.0000000  -0.0000000
 NQMom=    0.0000000   0.0000000
 NMagM=    2.7928460   2.7928460
 AtZNuc=   1.0000000   1.0000000
 Leave Link  101 at Mon Nov 14 15:12:11 2022, MaxMem= 16106127360 cpu:               5.5 elap:               0.2
 (Enter /opt/ap/G16/B01/g16/l202.exe)
                          Input orientation:                          
 ---------------------------------------------------------------------
 Center     Atomic      Atomic             Coordinates (Angstroms)
 Number     Number       Type             X           Y           Z
 ---------------------------------------------------------------------
      1          6           0        0.000000    0.000000    0.000000
      2          6           0        0.000000    0.000000    1.394128
      3          6           0        1.221126    0.000000   -0.673109
      4          6           0        1.193108    0.000764    2.115362
      5          1           0       -0.944957   -0.000427    1.927071
      6          6           0       -1.278366   -0.017366   -0.754803
      7          6           0        2.428476    0.001115    0.024455
      8          1           0        1.232154   -0.045667   -1.756969
      9          6           0        2.400843    0.001752    1.418572
     10          6           0        1.177445    0.018728    3.599837
     11          6           0       -2.503980   -0.034016   -0.084891
     12          6           0       -1.281276   -0.017406   -2.151668
     13          6           0        3.721572    0.001921   -0.704680
     14          1           0        3.334061    0.048144    1.969857
     15          6           0        0.290794    0.844275    4.295193
     16          6           0        2.049080   -0.790881    4.331965
     17          6           0       -3.699318   -0.049016   -0.791965
     18          1           0       -2.519147   -0.057471    0.999514
     19          6           0       -2.476037   -0.032612   -2.859587
     20          1           0       -0.338245    0.015786   -2.686871
     21          6           0        3.910862    0.818865   -1.821777
     22          6           0        4.776237   -0.814044   -0.288725
     23          6           0        0.275860    0.859807    5.683909
     24          1           0       -0.377402    1.495584    3.742000
     25          6           0        2.035025   -0.775886    5.720674
     26          1           0        2.729408   -1.453102    3.807101
     27          6           0       -3.689726   -0.047699   -2.182011
     28          1           0       -4.641163   -0.070031   -0.255027
     29          1           0       -2.458980   -0.024785   -3.943784
     30          6           0        5.120444    0.820149   -2.504230
     31          1           0        3.109266    1.474569   -2.144691
     32          6           0        5.986440   -0.813321   -0.970068
     33          1           0        4.638168   -1.470412    0.563864
     34          6           0        1.147946    0.049642    6.401818
     35          1           0       -0.413890    1.513063    6.206701
     36          1           0        2.713797   -1.416787    6.272362
     37          1           0       -4.622667   -0.059668   -2.734102
     38          6           0        6.162883    0.003944   -2.080611
     39          1           0        5.251831    1.466740   -3.364741
     40          1           0        6.791448   -1.459089   -0.637249
     41          1           0        1.136620    0.061726    7.485815
     42          1           0        7.107346    0.004761   -2.612865
 ---------------------------------------------------------------------
                    Distance matrix (angstroms):
                    1          2          3          4          5
     1  C    0.000000
     2  C    1.394128   0.000000
     3  C    1.394354   2.400962   0.000000
     4  C    2.428634   1.394161   2.788612   0.000000
     5  H    2.146287   1.084884   3.384206   2.146341   0.000000
     6  C    1.484671   2.500485   2.500887   3.787659   2.702572
     7  C    2.428599   2.788100   1.394378   2.428585   3.872983
     8  H    2.146445   3.383741   1.084878   3.872806   4.279487
     9  C    2.788619   2.400968   2.401430   1.394324   3.384222
    10  C    3.787552   2.500376   4.273210   1.484666   2.702426
    11  C    2.505649   2.908362   3.771415   4.302415   2.545519
    12  C    2.504326   3.770232   2.906623   4.932591   4.092617
    13  C    3.787700   4.272598   2.500646   3.787581   5.357482
    14  H    3.872805   3.383747   3.384092   2.146415   4.279508
    15  C    4.387032   3.035381   5.124680   2.505463   2.801537
    16  C    4.856969   3.668120   5.134371   2.504540   3.920790
    17  C    3.783460   4.297251   4.922124   5.691297   3.870662
    18  H    2.710799   2.550514   4.097635   3.876769   1.828028
    19  C    3.782732   4.921983   4.295435   6.181736   5.025668
    20  H    2.708124   4.095023   2.546984   5.040507   4.653689
    21  C    4.391384   5.129076   3.037212   4.853507   6.189029
    22  C    4.853707   5.129045   3.667320   4.391169   6.189006
    23  C    5.755188   4.383786   6.484171   3.783362   4.042800
    24  H    4.047440   2.809218   4.928007   2.710524   2.419532
    25  C    6.121229   4.843792   6.491910   3.782894   4.886007
    26  H    4.904609   3.922195   4.945574   2.708491   4.375585
    27  C    4.286902   5.138592   5.137658   6.504754   4.941714
    28  H    4.648692   4.925953   5.877596   6.297815   4.292823
    29  H    4.647647   5.877117   4.923526   7.074718   6.062985
    30  C    5.758711   6.487587   4.385239   6.118495   7.556379
    31  H    4.054822   4.936104   2.811579   4.898143   5.932249
    32  C    6.118822   6.487555   4.843334   5.758354   7.556353
    33  H    4.898230   4.935996   3.920254   4.054620   5.932156
    34  C    6.504116   5.137821   7.075480   4.286973   4.940255
    35  H    6.401859   5.061770   7.231488   4.648499   4.570330
    36  H    6.979577   5.759266   7.243957   4.647859   5.854410
    37  H    5.371027   6.197976   6.196868   7.572595   5.937642
    38  C    6.504621   7.074953   5.138292   6.504219   8.159837
    39  H    6.407382   7.237395   5.063871   6.975231   8.279857
    40  H    6.975586   7.237348   5.758361   6.406985   8.279819
    41  H    7.571865   6.197125   8.159595   5.371096   5.936031
    42  H    7.572414   8.159067   6.197601   7.571945   9.243951
                    6          7          8          9         10
     6  C    0.000000
     7  C    3.787910   0.000000
     8  H    2.703303   2.146356   0.000000
     9  C    4.273231   1.394392   3.384102   0.000000
    10  C    4.999520   3.787973   5.357472   2.500981   0.000000
    11  C    1.396850   4.933792   4.093247   5.130201   5.208924
    12  C    1.396868   4.300943   2.544389   5.128839   6.255112
    13  C    5.000226   1.484499   2.703105   2.500505   5.000173
    14  H    5.357476   2.146366   4.279725   1.084879   2.703459
    15  C    5.357906   4.849723   6.189251   3.665665   1.396854
    16  C    6.127433   4.396117   6.188524   3.039714   1.396863
    17  C    2.421445   6.182145   5.025003   6.488530   6.563180
    18  H    2.149133   5.043128   4.655168   4.938159   4.520208
    19  C    2.421728   5.689734   3.868671   6.487510   7.421235
    20  H    2.148909   3.873790   1.826102   4.935329   6.466840
    21  C    5.363376   2.504946   2.815510   3.667109   6.124188
    22  C    6.124553   2.504906   3.912375   3.036921   5.363369
    23  C    6.681472   6.115597   7.556523   4.841994   2.421492
    24  H    4.829285   4.891475   5.933362   3.917716   2.149154
    25  C    7.313393   5.762417   7.555989   4.387097   2.421736
    26  H    6.239756   4.063707   5.931401   2.815959   2.148914
    27  C    2.802231   6.504096   4.940199   7.075428   7.558011
    28  H    3.400141   7.075519   6.062365   7.238504   6.980262
    29  H    3.400515   6.295618   4.290345   7.236950   8.374466
    30  C    6.686306   3.783088   4.053003   4.842972   7.310892
    31  H    4.838282   2.709194   2.446425   3.920191   6.233057
    32  C    7.311449   3.783053   4.879728   4.384797   6.686012
    33  H    6.233426   2.709077   4.360860   2.811302   4.838519
    34  C    7.557031   6.504835   8.159779   5.138559   2.802307
    35  H    7.179977   6.970308   8.280044   5.756123   3.400165
    36  H    8.202243   6.413127   8.279214   5.066504   3.400510
    37  H    3.886356   7.571786   5.935816   8.159545   8.588727
    38  C    7.558466   4.286853   4.941589   5.137824   7.557929
    39  H    7.187337   4.648230   4.585860   5.757987   8.197725
    40  H    8.198432   4.648180   5.844424   5.063385   7.187062
    41  H    8.587561   7.572613   9.243902   6.197846   3.886431
    42  H    8.589123   5.370968   5.937422   6.197069   8.588456
                   11         12         13         14         15
    11  C    0.000000
    12  C    2.401427   0.000000
    13  C    6.256430   5.207940   0.000000
    14  H    6.189625   6.188102   2.702860   0.000000
    15  C    5.269468   6.691481   6.121971   3.911840   0.000000
    16  C    6.388413   7.329873   5.365963   2.816859   2.401387
    17  C    1.388889   2.774296   7.421578   7.556820   6.526726
    18  H    1.084764   3.385835   6.469495   5.934034   4.423846
    19  C    2.774838   1.388824   6.561644   7.555613   7.721086
    20  H    3.385733   1.084828   4.517896   5.930598   7.059129
    21  C    6.700326   5.269391   1.396829   3.911930   7.107943
    22  C    7.324722   6.387383   1.396832   2.815037   6.624314
    23  C    6.465715   8.036818   7.309101   4.879095   1.388883
    24  H    4.637575   6.151541   6.229413   4.360107   1.084763
    25  C    7.406586   8.575950   6.688393   4.054029   2.774755
    26  H    6.674560   7.324872   4.843310   2.448430   3.385708
    27  C    2.409169   2.408832   7.557268   8.159705   7.654693
    28  H    2.144247   3.858608   8.375124   8.280596   6.772345
    29  H    3.859166   2.144462   6.977945   8.278634   8.729104
    30  C    8.044540   6.465896   2.421718   4.878996   8.340159
    31  H    6.166614   4.637122   2.148776   4.360587   7.057844
    32  C    8.571935   7.406035   2.421709   4.052208   7.931644
    33  H    7.313986   6.672718   2.148749   2.446125   6.179018
    34  C    7.444525   8.892005   7.558317   4.941800   2.409154
    35  H    6.807793   8.541488   8.194680   5.843284   2.144229
    36  H    8.339779   9.427787   7.190790   4.587189   3.859086
    37  H    3.392317   3.392036   8.587705   9.243829   8.623817
    38  C    8.893754   7.444530   2.802355   4.940696   8.708529
    39  H    8.553496   6.808504   3.400487   5.843645   9.147346
    40  H    9.420240   8.339113   3.400476   4.585006   8.478973
    41  H    8.401114   9.936477   8.588933   5.937569   3.392325
    42  H    9.938296   8.401320   3.886469   5.936405   9.741223
                   16         17         18         19         20
    16  C    0.000000
    17  C    7.736221   0.000000
    18  H    5.701913   2.145291   0.000000
    19  C    8.530538   2.402446   3.859422   0.000000
    20  H    7.457486   3.858974   4.283822   2.145303   0.000000
    21  C    6.627673   7.728426   7.076203   6.526449   4.410016
    22  C    5.365510   8.524879   7.446784   7.734045   5.709436
    23  C    2.774316   7.652774   5.531457   9.020015   8.435606
    24  H    3.385823   5.829044   3.810549   7.093702   6.597099
    25  C    1.388861   8.707784   6.598936   9.722295   8.771885
    26  H    1.084834   8.028163   6.113727   8.576665   7.330744
    27  C    8.713099   1.390079   3.390052   1.390101   3.389888
    28  H    8.143677   1.084351   2.465154   3.387168   4.943312
    29  H    9.455026   3.387180   4.943772   1.084359   2.465561
    30  C    7.665654   9.026378   8.450430   7.652450   5.520656
    31  H    6.942862   7.106898   6.626628   5.829089   3.782505
    32  C    6.604154   9.717499   8.763307   8.705935   6.605791
    33  H    4.622091   8.565765   7.308444   8.024911   6.127051
    34  C    2.408903   8.675035   6.530232   9.945534   9.209462
    35  H    3.858628   7.887677   5.832107   9.425452   9.019045
    36  H    2.144469   9.638649   7.552110  10.594471   9.572621
    37  H    9.745573   2.150485   4.285405   2.150465   4.285346
    38  C    7.660043   9.946177   9.212415   8.674046   6.529347
    39  H    8.636768   9.436089   9.042015   7.888167   5.814958
    40  H    6.901424  10.586238   9.556710   9.636384   7.563646
    41  H    3.392092   9.587502   7.446539  10.958446  10.279148
    42  H    8.628428  10.959131  10.282145   9.586631   7.445967
                   21         22         23         24         25
    21  C    0.000000
    22  C    2.401148   0.000000
    23  C    8.339678   7.663388   0.000000
    24  H    7.057108   6.938381   2.145221   0.000000
    25  C    7.934139   6.605193   2.402396   3.859344   0.000000
    26  H    6.184005   4.623169   3.858996   4.283837   2.145356
    27  C    7.658306   8.708867   8.855627   6.960396   9.785472
    28  H    8.739678   9.446805   7.766123   6.050374   8.987699
    29  H    6.766797   8.144370  10.047602   8.106526  10.684661
    30  C    1.388824   2.774442   9.514051   8.348527   8.928391
    31  H    1.084794   3.385432   8.348239   6.841814   8.251212
    32  C    2.774430   1.388819   8.926672   8.248218   7.770528
    33  H    3.385417   1.084800   7.118603   6.637291   5.818196
    34  C    8.709358   7.659884   1.390070   3.389995   1.390095
    35  H    9.145591   8.633852   1.084348   2.465033   3.387137
    36  H    8.482109   6.903971   3.387136   4.943698   1.084363
    37  H    8.627009   9.741066   9.782838   7.898164  10.785225
    38  C    2.408878   2.408889   9.781478   8.882743   8.860440
    39  H    2.144453   3.858761  10.344405   9.066139   9.895553
    40  H    3.858751   2.144441   9.369482   8.905073   7.969536
    41  H    9.741711   8.628862   2.150513   4.285366   2.150453
    42  H    3.392063   3.392069  10.781315   9.931179   9.787018
                   26         27         28         29         30
    26  H    0.000000
    27  C    8.891001   0.000000
    28  H    8.528722   2.149185   0.000000
    29  H    9.435872   2.149210   4.286129   0.000000
    30  C    7.121630   8.858673  10.056853   7.761050   0.000000
    31  H    6.643746   6.967423   8.125624   6.040708   2.145313
    32  C    5.817122   9.781777  10.677533   8.988319   2.402462
    33  H    3.763276   8.883567   9.420066   8.531016   3.859075
    34  C    3.389959   9.853663   8.822794  10.956593   9.782234
    35  H    4.943333   9.139888   7.882255  10.468032  10.343562
    36  H    2.465578  10.693733   9.925522  11.535377   9.371467
    37  H    9.938914   1.084125   2.479166   2.479130   9.785455
    38  C    6.969712   9.853267  10.957447   8.820928   1.390081
    39  H    8.143918   9.145700  10.483479   7.875058   1.084353
    40  H    6.021000  10.687999  11.523028   9.927780   3.387152
    41  H    4.285396  10.806130   9.660267  11.982134  10.781792
    42  H    7.906179  10.805792  11.983007   9.658509   2.150451
                   31         32         33         34         35
    31  H    0.000000
    32  C    3.859055   0.000000
    33  H    4.283308   2.145356   0.000000
    34  C    8.883693   8.860047   6.969499   0.000000
    35  H    9.064207   9.893547   8.140394   2.149187   0.000000
    36  H    8.908597   7.970392   6.024369   2.149200   4.286112
    37  H    7.904687  10.781139   9.931257  10.806339  10.006260
    38  C    3.389900   1.390094   3.389946   9.854100  10.686951
    39  H    2.465597   3.387150   4.943418  10.688111  11.122726
    40  H    4.943399   1.084354   2.465647   9.147341  10.372571
    41  H    9.931470   9.787155   7.907066   1.084123   2.479233
    42  H    4.285343   2.150458   4.285392  10.806525  11.688828
                   36         37         38         39         40
    36  H    0.000000
    37  H   11.695378   0.000000
    38  C    9.148051  10.805517   0.000000
    39  H   10.374492  10.011660   2.149134   0.000000
    40  H    8.023201  11.689192   2.149152   4.286037   0.000000
    41  H    2.479104  11.731617  10.806626  11.689465  10.013697
    42  H   10.013557  11.730816   1.084114   2.479039   2.479054
                   41         42
    41  H    0.000000
    42  H   11.731844   0.000000
 Stoichiometry    C24H18
 Framework group  C1[X(C24H18)]
 Deg. of freedom   120
 Full point group                 C1      NOp   1
 Largest Abelian subgroup         C1      NOp   1
 Largest concise Abelian subgroup C1      NOp   1
                         Standard orientation:                         
 ---------------------------------------------------------------------
 Center     Atomic      Atomic             Coordinates (Angstroms)
 Number     Number       Type             X           Y           Z
 ---------------------------------------------------------------------
      1          6           0       -0.001599    1.401460   -0.040251
      2          6           0       -1.201032    0.691025   -0.024879
      3          6           0        1.199911    0.694343   -0.016128
      4          6           0       -1.213423   -0.702520    0.014659
      5          1           0       -2.141187    1.232063   -0.043841
      6          6           0       -0.003722    2.884969   -0.098957
      7          6           0        1.215143   -0.699378    0.023868
      8          1           0        2.138195    1.235913   -0.073443
      9          6           0        0.001633   -1.386026    0.039163
     10          6           0       -2.498634   -1.445025    0.048580
     11          6           0       -1.204709    3.597111   -0.139875
     12          6           0        1.196582    3.599300   -0.114474
     13          6           0        2.501536   -1.439814    0.050038
     14          1           0        0.002824   -2.468200    0.115723
     15          6           0       -3.551845   -1.013894    0.858564
     16          6           0       -2.681268   -2.590231   -0.730120
     17          6           0       -1.205585    4.984962   -0.193545
     18          1           0       -2.145316    3.056898   -0.151756
     19          6           0        1.196728    4.987079   -0.168345
     20          1           0        2.137580    3.061984   -0.062836
     21          6           0        3.556098   -1.010587    0.859232
     22          6           0        2.684234   -2.581479   -0.733773
     23          6           0       -4.754290   -1.708296    0.889016
     24          1           0       -3.418882   -0.139230    1.486254
     25          6           0       -3.883258   -3.285400   -0.700182
     26          1           0       -1.880504   -2.926264   -1.380292
     27          6           0       -0.004780    5.685104   -0.207307
     28          1           0       -2.147516    5.520713   -0.232961
     29          1           0        2.138178    5.525125   -0.172035
     30          6           0        4.759759   -1.702979    0.884238
     31          1           0        3.422931   -0.138429    1.490409
     32          6           0        3.887258   -3.274986   -0.709300
     33          1           0        1.882755   -2.915492   -1.384048
     34          6           0       -4.924458   -2.846659    0.109615
     35          1           0       -5.558040   -1.363353    1.529961
     36          1           0       -4.009573   -4.168102   -1.317212
     37          1           0       -0.005263    6.768410   -0.249460
     38          6           0        4.929633   -2.838042    0.099955
     39          1           0        5.564684   -1.359454    1.524479
     40          1           0        4.013606   -4.154849   -1.330348
     41          1           0       -5.862888   -3.388977    0.133354
     42          1           0        5.868943   -3.378993    0.119301
 ---------------------------------------------------------------------
 Rotational constants (GHZ):           0.2007867           0.1977254           0.1028787
 Leave Link  202 at Mon Nov 14 15:12:11 2022, MaxMem= 16106127360 cpu:               1.1 elap:               0.0
 (Enter /opt/ap/G16/B01/g16/l301.exe)
 Standard basis: 6-311++G(d,p) (5D, 7F)
 Ernie: Thresh=  0.10000D-02 Tol=  0.10000D-05 Strict=F.
 There are   678 symmetry adapted cartesian basis functions of A   symmetry.
 There are   654 symmetry adapted basis functions of A   symmetry.
   654 basis functions,  1026 primitive gaussians,   678 cartesian basis functions
    81 alpha electrons       81 beta electrons
       nuclear repulsion energy      1734.6054058181 Hartrees.
 IExCor= 4639 DFT=T Ex+Corr=wB97XD ExCW=0 ScaHFX=  1.000000
 ScaDFX=  1.000000  1.000000  1.000000  1.000000 ScalE2=  1.000000  1.000000
 IRadAn=      5 IRanWt=     -1 IRanGd=            0 ICorTp=0 IEmpDi=121
 HFx  wShort=  0.000000 wLong=  0.200000 cFull=  0.222036 cShort=  0.000000 cLong=  0.777964
 DFx  wShort=  0.000000 wLong=  0.200000 cFull=  0.000000 cShort=  0.000000 cLong=  1.000000
 NAtoms=   42 NActive=   42 NUniq=   42 SFac= 1.00D+00 NAtFMM=   60 NAOKFM=F Big=F
 Integral buffers will be    131072 words long.
 Raffenetti 2 integral format.
 Two-electron integral symmetry is turned on.
 R6Disp:  Grimme-D2 Dispersion energy=       -0.0287023564 Hartrees.
 Nuclear repulsion after empirical dispersion term =     1734.5767034618 Hartrees.
 Leave Link  301 at Mon Nov 14 15:12:11 2022, MaxMem= 16106127360 cpu:               1.2 elap:               0.0
 (Enter /opt/ap/G16/B01/g16/l302.exe)
 NPDir=0 NMtPBC=     1 NCelOv=     1 NCel=       1 NClECP=     1 NCelD=      1
         NCelK=      1 NCelE2=     1 NClLst=     1 CellRange=     0.0.
 One-electron integrals computed using PRISM.
 One-electron integral symmetry used in STVInt
 NBasis=   654 RedAO= T EigKep=  1.01D-06  NBF=   654
 NBsUse=   643 1.00D-06 EigRej=  9.84D-07 NBFU=   643
 Precomputing XC quadrature grid using
 IXCGrd= 4 IRadAn=           5 IRanWt=          -1 IRanGd=           0 AccXCQ= 0.00D+00.
 Generated NRdTot=       0 NPtTot=           0 NUsed=           0 NTot=          32
 NSgBfM=   669   669   669   669   669 MxSgAt=    42 MxSgA2=    42.
 Leave Link  302 at Mon Nov 14 15:12:12 2022, MaxMem= 16106127360 cpu:              21.3 elap:               0.7
 (Enter /opt/ap/G16/B01/g16/l303.exe)
 DipDrv:  MaxL=1.
 Leave Link  303 at Mon Nov 14 15:12:12 2022, MaxMem= 16106127360 cpu:               2.8 elap:               0.1
 (Enter /opt/ap/G16/B01/g16/l401.exe)
 ExpMin= 3.60D-02 ExpMax= 4.56D+03 ExpMxC= 6.82D+02 IAcc=3 IRadAn=         5 AccDes= 0.00D+00
 Harris functional with IExCor= 4639 and IRadAn=       5 diagonalized for initial guess.
 HarFok:  IExCor= 4639 AccDes= 0.00D+00 IRadAn=         5 IDoV= 1 UseB2=F ITyADJ=14
 ICtDFT=  3500011 ScaDFX=  1.000000  1.000000  1.000000  1.000000
 FoFCou: FMM=F IPFlag=           0 FMFlag=      100000 FMFlg1=           0
         NFxFlg=           0 DoJE=T BraDBF=F KetDBF=T FulRan=T
         wScrn=  0.000000 ICntrl=       500 IOpCl=  0 I1Cent=   200000004 NGrid=           0
         NMat0=    1 NMatS0=      1 NMatT0=    0 NMatD0=    1 NMtDS0=    0 NMtDT0=    0
 Petite list used in FoFCou.
 Harris En= -882.962417949616    
 JPrj=0 DoOrth=F DoCkMO=F.
 Leave Link  401 at Mon Nov 14 15:12:14 2022, MaxMem= 16106127360 cpu:              80.1 elap:               2.6
 (Enter /opt/ap/G16/B01/g16/l502.exe)
 Integral symmetry usage will be decided dynamically.
 Closed shell SCF:
 Using DIIS extrapolation, IDIIS=  1040.
 NGot= 16106127360 LenX= 16105179956 LenY= 16104719594
 Requested convergence on RMS density matrix=1.00D-08 within 512 cycles.
 Requested convergence on MAX density matrix=1.00D-06.
 Requested convergence on             energy=1.00D-06.
 No special actions if energy rises.
 Fock matrices will be formed incrementally for  20 cycles.

 Cycle   1  Pass 1  IDiag  1:
 FoFJK:  IHMeth= 1 ICntrl=       0 DoSepK=T KAlg= 0 I1Cent=           0 FoldK=F
 IRaf=         1 NMat=       1 IRICut=       1 DoRegI=T DoRafI=F ISym2E= 0 IDoP0=0 IntGTp=1.
 FoFCou: FMM=F IPFlag=           0 FMFlag=      100000 FMFlg1=           0
         NFxFlg=           0 DoJE=T BraDBF=F KetDBF=F FulRan=T
         wScrn=  0.000000 ICntrl=       500 IOpCl=  0 I1Cent=           0 NGrid=           0
         NMat0=    1 NMatS0=      1 NMatT0=    0 NMatD0=    1 NMtDS0=    0 NMtDT0=    0
 Symmetry not used in FoFCou.
 E= -925.110133600580    
 DIIS: error= 5.69D-02 at cycle   1 NSaved=   1.
 NSaved= 1 IEnMin= 1 EnMin= -925.110133600580     IErMin= 1 ErrMin= 5.69D-02
 ErrMax= 5.69D-02  0.00D+00 EMaxC= 1.00D-01 BMatC= 1.90D+00 BMatP= 1.90D+00
 IDIUse=3 WtCom= 4.31D-01 WtEn= 5.69D-01
 Coeff-Com:  0.100D+01
 Coeff-En:   0.100D+01
 Coeff:      0.100D+01
 Gap=     0.303 Goal=   None    Shift=    0.000
 GapD=    0.303 DampG=1.000 DampE=0.500 DampFc=0.5000 IDamp=-1.
 Damping current iteration by 5.00D-01
 RMSDP=3.77D-02 MaxDP=3.49D+00              OVMax= 4.49D-02

 Cycle   2  Pass 1  IDiag  1:
 RMSU=  5.77D-03    CP:  8.07D-01
 E= -925.209167194828     Delta-E=       -0.099033594248 Rises=F Damp=T
 DIIS: error= 2.77D-02 at cycle   2 NSaved=   2.
 NSaved= 2 IEnMin= 2 EnMin= -925.209167194828     IErMin= 2 ErrMin= 2.77D-02
 ErrMax= 2.77D-02  0.00D+00 EMaxC= 1.00D-01 BMatC= 4.32D-01 BMatP= 1.90D+00
 IDIUse=3 WtCom= 7.23D-01 WtEn= 2.77D-01
 Coeff-Com: -0.883D+00 0.188D+01
 Coeff-En:   0.000D+00 0.100D+01
 Coeff:     -0.638D+00 0.164D+01
 Gap=     0.311 Goal=   None    Shift=    0.000
 RMSDP=2.37D-02 MaxDP=1.89D+00 DE=-9.90D-02 OVMax= 3.28D-02

 Cycle   3  Pass 1  IDiag  1:
 RMSU=  4.18D-03    CP:  5.56D-01  1.31D+00
 E= -925.299001152389     Delta-E=       -0.089833957561 Rises=F Damp=F
 DIIS: error= 2.88D-03 at cycle   3 NSaved=   3.
 NSaved= 3 IEnMin= 3 EnMin= -925.299001152389     IErMin= 3 ErrMin= 2.88D-03
 ErrMax= 2.88D-03  0.00D+00 EMaxC= 1.00D-01 BMatC= 7.64D-03 BMatP= 4.32D-01
 IDIUse=3 WtCom= 9.71D-01 WtEn= 2.88D-02
 Coeff-Com: -0.353D+00 0.750D+00 0.602D+00
 Coeff-En:   0.000D+00 0.000D+00 0.100D+01
 Coeff:     -0.343D+00 0.729D+00 0.614D+00
 Gap=     0.309 Goal=   None    Shift=    0.000
 RMSDP=1.62D-03 MaxDP=9.16D-02 DE=-8.98D-02 OVMax= 1.85D-02

 Cycle   4  Pass 1  IDiag  1:
 RMSU=  1.17D-03    CP:  5.58D-01  1.40D+00  7.74D-01
 E= -925.305945625511     Delta-E=       -0.006944473122 Rises=F Damp=F
 DIIS: error= 8.45D-04 at cycle   4 NSaved=   4.
 NSaved= 4 IEnMin= 4 EnMin= -925.305945625511     IErMin= 4 ErrMin= 8.45D-04
 ErrMax= 8.45D-04  0.00D+00 EMaxC= 1.00D-01 BMatC= 2.71D-04 BMatP= 7.64D-03
 IDIUse=3 WtCom= 9.92D-01 WtEn= 8.45D-03
 Coeff-Com: -0.108D+00 0.231D+00 0.242D+00 0.635D+00
 Coeff-En:   0.000D+00 0.000D+00 0.000D+00 0.100D+01
 Coeff:     -0.107D+00 0.229D+00 0.240D+00 0.638D+00
 Gap=     0.308 Goal=   None    Shift=    0.000
 RMSDP=6.97D-04 MaxDP=6.08D-02 DE=-6.94D-03 OVMax= 4.25D-03

 Cycle   5  Pass 1  IDiag  1:
 RMSU=  3.57D-04    CP:  5.54D-01  1.47D+00  7.56D-01  7.97D-01
 E= -925.306232657961     Delta-E=       -0.000287032451 Rises=F Damp=F
 DIIS: error= 2.29D-04 at cycle   5 NSaved=   5.
 NSaved= 5 IEnMin= 5 EnMin= -925.306232657961     IErMin= 5 ErrMin= 2.29D-04
 ErrMax= 2.29D-04  0.00D+00 EMaxC= 1.00D-01 BMatC= 2.04D-05 BMatP= 2.71D-04
 IDIUse=3 WtCom= 9.98D-01 WtEn= 2.29D-03
 Coeff-Com:  0.258D-01-0.550D-01-0.288D-01 0.193D+00 0.865D+00
 Coeff-En:   0.000D+00 0.000D+00 0.000D+00 0.000D+00 0.100D+01
 Coeff:      0.257D-01-0.549D-01-0.287D-01 0.193D+00 0.865D+00
 Gap=     0.309 Goal=   None    Shift=    0.000
 RMSDP=1.78D-04 MaxDP=1.15D-02 DE=-2.87D-04 OVMax= 1.63D-03

 Cycle   6  Pass 1  IDiag  1:
 RMSU=  5.98D-05    CP:  5.53D-01  1.46D+00  7.75D-01  8.75D-01  1.15D+00
 E= -925.306259363246     Delta-E=       -0.000026705285 Rises=F Damp=F
 DIIS: error= 6.16D-05 at cycle   6 NSaved=   6.
 NSaved= 6 IEnMin= 6 EnMin= -925.306259363246     IErMin= 6 ErrMin= 6.16D-05
 ErrMax= 6.16D-05  0.00D+00 EMaxC= 1.00D-01 BMatC= 1.38D-06 BMatP= 2.04D-05
 IDIUse=1 WtCom= 1.00D+00 WtEn= 0.00D+00
 Coeff-Com:  0.129D-01-0.275D-01-0.177D-01 0.533D-01 0.331D+00 0.648D+00
 Coeff:      0.129D-01-0.275D-01-0.177D-01 0.533D-01 0.331D+00 0.648D+00
 Gap=     0.309 Goal=   None    Shift=    0.000
 RMSDP=6.77D-05 MaxDP=6.37D-03 DE=-2.67D-05 OVMax= 3.98D-04

 Cycle   7  Pass 1  IDiag  1:
 RMSU=  4.22D-05    CP:  5.53D-01  1.46D+00  7.79D-01  9.05D-01  1.12D+00
                    CP:  1.00D+00
 E= -925.306261069126     Delta-E=       -0.000001705880 Rises=F Damp=F
 DIIS: error= 1.99D-05 at cycle   7 NSaved=   7.
 NSaved= 7 IEnMin= 7 EnMin= -925.306261069126     IErMin= 7 ErrMin= 1.99D-05
 ErrMax= 1.99D-05  0.00D+00 EMaxC= 1.00D-01 BMatC= 1.06D-07 BMatP= 1.38D-06
 IDIUse=1 WtCom= 1.00D+00 WtEn= 0.00D+00
 Coeff-Com: -0.234D-02 0.502D-02 0.236D-02-0.280D-01-0.103D+00 0.109D+00
 Coeff-Com:  0.102D+01
 Coeff:     -0.234D-02 0.502D-02 0.236D-02-0.280D-01-0.103D+00 0.109D+00
 Coeff:      0.102D+01
 Gap=     0.309 Goal=   None    Shift=    0.000
 RMSDP=1.74D-05 MaxDP=9.59D-04 DE=-1.71D-06 OVMax= 2.76D-04

 Cycle   8  Pass 1  IDiag  1:
 RMSU=  4.62D-06    CP:  5.53D-01  1.46D+00  7.80D-01  9.08D-01  1.15D+00
                    CP:  1.13D+00  1.14D+00
 E= -925.306261312399     Delta-E=       -0.000000243273 Rises=F Damp=F
 DIIS: error= 7.70D-06 at cycle   8 NSaved=   8.
 NSaved= 8 IEnMin= 8 EnMin= -925.306261312399     IErMin= 8 ErrMin= 7.70D-06
 ErrMax= 7.70D-06  0.00D+00 EMaxC= 1.00D-01 BMatC= 7.53D-09 BMatP= 1.06D-07
 IDIUse=1 WtCom= 1.00D+00 WtEn= 0.00D+00
 Coeff-Com: -0.118D-02 0.253D-02 0.139D-02-0.113D-01-0.438D-01 0.209D-01
 Coeff-Com:  0.310D+00 0.721D+00
 Coeff:     -0.118D-02 0.253D-02 0.139D-02-0.113D-01-0.438D-01 0.209D-01
 Coeff:      0.310D+00 0.721D+00
 Gap=     0.309 Goal=   None    Shift=    0.000
 RMSDP=2.86D-06 MaxDP=3.35D-04 DE=-2.43D-07 OVMax= 5.88D-05

 Cycle   9  Pass 1  IDiag  1:
 RMSU=  1.19D-06    CP:  5.53D-01  1.46D+00  7.81D-01  9.07D-01  1.15D+00
                    CP:  1.14D+00  1.19D+00  1.12D+00
 E= -925.306261323400     Delta-E=       -0.000000011001 Rises=F Damp=F
 DIIS: error= 4.81D-06 at cycle   9 NSaved=   9.
 NSaved= 9 IEnMin= 9 EnMin= -925.306261323400     IErMin= 9 ErrMin= 4.81D-06
 ErrMax= 4.81D-06  0.00D+00 EMaxC= 1.00D-01 BMatC= 2.10D-09 BMatP= 7.53D-09
 IDIUse=1 WtCom= 1.00D+00 WtEn= 0.00D+00
 Coeff-Com:  0.992D-04-0.217D-03 0.371D-04 0.261D-02 0.941D-02-0.173D-01
 Coeff-Com: -0.155D+00 0.325D+00 0.835D+00
 Coeff:      0.992D-04-0.217D-03 0.371D-04 0.261D-02 0.941D-02-0.173D-01
 Coeff:     -0.155D+00 0.325D+00 0.835D+00
 Gap=     0.309 Goal=   None    Shift=    0.000
 RMSDP=1.39D-06 MaxDP=4.91D-05 DE=-1.10D-08 OVMax= 4.27D-05

 Cycle  10  Pass 1  IDiag  1:
 RMSU=  5.41D-07    CP:  5.53D-01  1.46D+00  7.81D-01  9.08D-01  1.15D+00
                    CP:  1.14D+00  1.20D+00  1.32D+00  7.55D-01
 E= -925.306261327484     Delta-E=       -0.000000004084 Rises=F Damp=F
 DIIS: error= 1.29D-06 at cycle  10 NSaved=  10.
 NSaved=10 IEnMin=10 EnMin= -925.306261327484     IErMin=10 ErrMin= 1.29D-06
 ErrMax= 1.29D-06  0.00D+00 EMaxC= 1.00D-01 BMatC= 2.13D-10 BMatP= 2.10D-09
 IDIUse=1 WtCom= 1.00D+00 WtEn= 0.00D+00
 Coeff-Com:  0.117D-03-0.253D-03-0.700D-04 0.174D-02 0.629D-02-0.639D-02
 Coeff-Com: -0.763D-01 0.450D-01 0.324D+00 0.706D+00
 Coeff:      0.117D-03-0.253D-03-0.700D-04 0.174D-02 0.629D-02-0.639D-02
 Coeff:     -0.763D-01 0.450D-01 0.324D+00 0.706D+00
 Gap=     0.309 Goal=   None    Shift=    0.000
 RMSDP=3.11D-07 MaxDP=2.59D-05 DE=-4.08D-09 OVMax= 1.07D-05

 Cycle  11  Pass 1  IDiag  1:
 RMSU=  1.12D-07    CP:  5.53D-01  1.46D+00  7.81D-01  9.08D-01  1.15D+00
                    CP:  1.14D+00  1.20D+00  1.34D+00  8.65D-01  1.07D+00
 E= -925.306261327811     Delta-E=       -0.000000000327 Rises=F Damp=F
 DIIS: error= 2.14D-07 at cycle  11 NSaved=  11.
 NSaved=11 IEnMin=11 EnMin= -925.306261327811     IErMin=11 ErrMin= 2.14D-07
 ErrMax= 2.14D-07  0.00D+00 EMaxC= 1.00D-01 BMatC= 3.08D-11 BMatP= 2.13D-10
 IDIUse=1 WtCom= 1.00D+00 WtEn= 0.00D+00
 Coeff-Com:  0.205D-04-0.434D-04-0.201D-04 0.118D-03 0.256D-03 0.117D-02
 Coeff-Com:  0.147D-02-0.511D-01-0.298D-01 0.244D+00 0.834D+00
 Coeff:      0.205D-04-0.434D-04-0.201D-04 0.118D-03 0.256D-03 0.117D-02
 Coeff:      0.147D-02-0.511D-01-0.298D-01 0.244D+00 0.834D+00
 Gap=     0.309 Goal=   None    Shift=    0.000
 RMSDP=2.10D-07 MaxDP=9.62D-06 DE=-3.27D-10 OVMax= 3.36D-06

 Cycle  12  Pass 1  IDiag  1:
 RMSU=  5.26D-08    CP:  5.53D-01  1.46D+00  7.81D-01  9.08D-01  1.15D+00
                    CP:  1.14D+00  1.20D+00  1.36D+00  8.49D-01  1.23D+00
                    CP:  1.26D+00
 E= -925.306261327854     Delta-E=       -0.000000000044 Rises=F Damp=F
 DIIS: error= 1.13D-07 at cycle  12 NSaved=  12.
 NSaved=12 IEnMin=12 EnMin= -925.306261327854     IErMin=12 ErrMin= 1.13D-07
 ErrMax= 1.13D-07  0.00D+00 EMaxC= 1.00D-01 BMatC= 1.43D-12 BMatP= 3.08D-11
 IDIUse=1 WtCom= 1.00D+00 WtEn= 0.00D+00
 Coeff-Com: -0.141D-04 0.306D-04 0.126D-04-0.220D-03-0.816D-03 0.101D-02
 Coeff-Com:  0.944D-02-0.785D-02-0.302D-01-0.631D-01-0.109D+00 0.120D+01
 Coeff:     -0.141D-04 0.306D-04 0.126D-04-0.220D-03-0.816D-03 0.101D-02
 Coeff:      0.944D-02-0.785D-02-0.302D-01-0.631D-01-0.109D+00 0.120D+01
 Gap=     0.309 Goal=   None    Shift=    0.000
 RMSDP=6.33D-08 MaxDP=3.30D-06 DE=-4.37D-11 OVMax= 1.70D-06

 Cycle  13  Pass 1  IDiag  1:
 RMSU=  2.10D-08    CP:  5.53D-01  1.46D+00  7.81D-01  9.08D-01  1.15D+00
                    CP:  1.14D+00  1.20D+00  1.36D+00  8.45D-01  1.28D+00
                    CP:  1.37D+00  1.41D+00
 E= -925.306261327871     Delta-E=       -0.000000000017 Rises=F Damp=F
 DIIS: error= 3.07D-08 at cycle  13 NSaved=  13.
 NSaved=13 IEnMin=13 EnMin= -925.306261327871     IErMin=13 ErrMin= 3.07D-08
 ErrMax= 3.07D-08  0.00D+00 EMaxC= 1.00D-01 BMatC= 1.13D-13 BMatP= 1.43D-12
 IDIUse=1 WtCom= 1.00D+00 WtEn= 0.00D+00
 Coeff-Com: -0.240D-05 0.513D-05 0.267D-05-0.267D-04-0.864D-04 0.431D-04
 Coeff-Com:  0.727D-03 0.173D-02-0.150D-03-0.166D-01-0.784D-01 0.124D+00
 Coeff-Com:  0.969D+00
 Coeff:     -0.240D-05 0.513D-05 0.267D-05-0.267D-04-0.864D-04 0.431D-04
 Coeff:      0.727D-03 0.173D-02-0.150D-03-0.166D-01-0.784D-01 0.124D+00
 Coeff:      0.969D+00
 Gap=     0.309 Goal=   None    Shift=    0.000
 RMSDP=2.79D-08 MaxDP=2.23D-06 DE=-1.68D-11 OVMax= 4.31D-07

 Cycle  14  Pass 1  IDiag  1:
 RMSU=  5.31D-09    CP:  5.53D-01  1.46D+00  7.81D-01  9.08D-01  1.15D+00
                    CP:  1.14D+00  1.20D+00  1.36D+00  8.44D-01  1.28D+00
                    CP:  1.39D+00  1.53D+00  1.19D+00
 E= -925.306261327869     Delta-E=        0.000000000002 Rises=F Damp=F
 DIIS: error= 6.48D-09 at cycle  14 NSaved=  14.
 NSaved=14 IEnMin=13 EnMin= -925.306261327871     IErMin=14 ErrMin= 6.48D-09
 ErrMax= 6.48D-09  0.00D+00 EMaxC= 1.00D-01 BMatC= 3.29D-14 BMatP= 1.13D-13
 IDIUse=1 WtCom= 1.00D+00 WtEn= 0.00D+00
 Coeff-Com:  0.784D-06-0.174D-05-0.510D-06 0.174D-04 0.704D-04-0.113D-03
 Coeff-Com: -0.922D-03 0.171D-02 0.404D-02 0.203D-02-0.209D-01-0.109D+00
 Coeff-Com:  0.418D+00 0.705D+00
 Coeff:      0.784D-06-0.174D-05-0.510D-06 0.174D-04 0.704D-04-0.113D-03
 Coeff:     -0.922D-03 0.171D-02 0.404D-02 0.203D-02-0.209D-01-0.109D+00
 Coeff:      0.418D+00 0.705D+00
 Gap=     0.309 Goal=   None    Shift=    0.000
 RMSDP=6.25D-09 MaxDP=4.59D-07 DE= 1.82D-12 OVMax= 1.03D-07

 SCF Done:  E(RwB97XD) =  -925.306261328     A.U. after   14 cycles
            NFock= 14  Conv=0.62D-08     -V/T= 2.0043
 KE= 9.213211074443D+02 PE=-5.615482004062D+03 EE= 2.034277931828D+03
 Leave Link  502 at Mon Nov 14 15:14:43 2022, MaxMem= 16106127360 cpu:            4685.7 elap:             148.2
 (Enter /opt/ap/G16/B01/g16/l601.exe)
 Copying SCF densities to generalized density rwf, IOpCl= 0 IROHF=0.

 **********************************************************************

            Population analysis using the SCF Density.

 **********************************************************************

 Orbital symmetries:
       Occupied  (A) (A) (A) (A) (A) (A) (A) (A) (A) (A) (A) (A)
                 (A) (A) (A) (A) (A) (A) (A) (A) (A) (A) (A) (A)
                 (A) (A) (A) (A) (A) (A) (A) (A) (A) (A) (A) (A)
                 (A) (A) (A) (A) (A) (A) (A) (A) (A) (A) (A) (A)
                 (A) (A) (A) (A) (A) (A) (A) (A) (A) (A) (A) (A)
                 (A) (A) (A) (A) (A) (A) (A) (A) (A) (A) (A) (A)
                 (A) (A) (A) (A) (A) (A) (A) (A) (A)
       Virtual   (A) (A) (A) (A) (A) (A) (A) (A) (A) (A) (A) (A)
                 (A) (A) (A) (A) (A) (A) (A) (A) (A) (A) (A) (A)
                 (A) (A) (A) (A) (A) (A) (A) (A) (A) (A) (A) (A)
                 (A) (A) (A) (A) (A) (A) (A) (A) (A) (A) (A) (A)
                 (A) (A) (A) (A) (A) (A) (A) (A) (A) (A) (A) (A)
                 (A) (A) (A) (A) (A) (A) (A) (A) (A) (A) (A) (A)
                 (A) (A) (A) (A) (A) (A) (A) (A) (A) (A) (A) (A)
                 (A) (A) (A) (A) (A) (A) (A) (A) (A) (A) (A) (A)
                 (A) (A) (A) (A) (A) (A) (A) (A) (A) (A) (A) (A)
                 (A) (A) (A) (A) (A) (A) (A) (A) (A) (A) (A) (A)
                 (A) (A) (A) (A) (A) (A) (A) (A) (A) (A) (A) (A)
                 (A) (A) (A) (A) (A) (A) (A) (A) (A) (A) (A) (A)
                 (A) (A) (A) (A) (A) (A) (A) (A) (A) (A) (A) (A)
                 (A) (A) (A) (A) (A) (A) (A) (A) (A) (A) (A) (A)
                 (A) (A) (A) (A) (A) (A) (A) (A) (A) (A) (A) (A)
                 (A) (A) (A) (A) (A) (A) (A) (A) (A) (A) (A) (A)
                 (A) (A) (A) (A) (A) (A) (A) (A) (A) (A) (A) (A)
                 (A) (A) (A) (A) (A) (A) (A) (A) (A) (A) (A) (A)
                 (A) (A) (A) (A) (A) (A) (A) (A) (A) (A) (A) (A)
                 (A) (A) (A) (A) (A) (A) (A) (A) (A) (A) (A) (A)
                 (A) (A) (A) (A) (A) (A) (A) (A) (A) (A) (A) (A)
                 (A) (A) (A) (A) (A) (A) (A) (A) (A) (A) (A) (A)
                 (A) (A) (A) (A) (A) (A) (A) (A) (A) (A) (A) (A)
                 (A) (A) (A) (A) (A) (A) (A) (A) (A) (A) (A) (A)
                 (A) (A) (A) (A) (A) (A) (A) (A) (A) (A) (A) (A)
                 (A) (A) (A) (A) (A) (A) (A) (A) (A) (A) (A) (A)
                 (A) (A) (A) (A) (A) (A) (A) (A) (A) (A) (A) (A)
                 (A) (A) (A) (A) (A) (A) (A) (A) (A) (A) (A) (A)
                 (A) (A) (A) (A) (A) (A) (A) (A) (A) (A) (A) (A)
                 (A) (A) (A) (A) (A) (A) (A) (A) (A) (A) (A) (A)
                 (A) (A) (A) (A) (A) (A) (A) (A) (A) (A) (A) (A)
                 (A) (A) (A) (A) (A) (A) (A) (A) (A) (A) (A) (A)
                 (A) (A) (A) (A) (A) (A) (A) (A) (A) (A) (A) (A)
                 (A) (A) (A) (A) (A) (A) (A) (A) (A) (A) (A) (A)
                 (A) (A) (A) (A) (A) (A) (A) (A) (A) (A) (A) (A)
                 (A) (A) (A) (A) (A) (A) (A) (A) (A) (A) (A) (A)
                 (A) (A) (A) (A) (A) (A) (A) (A) (A) (A) (A) (A)
                 (A) (A) (A) (A) (A) (A) (A) (A) (A) (A) (A) (A)
                 (A) (A) (A) (A) (A) (A) (A) (A) (A) (A) (A) (A)
                 (A) (A) (A) (A) (A) (A) (A) (A) (A) (A) (A) (A)
                 (A) (A) (A) (A) (A) (A) (A) (A) (A) (A) (A) (A)
                 (A) (A) (A) (A) (A) (A) (A) (A) (A) (A) (A) (A)
                 (A) (A) (A) (A) (A) (A) (A) (A) (A) (A) (A) (A)
                 (A) (A) (A) (A) (A) (A) (A) (A) (A) (A) (A) (A)
                 (A) (A) (A) (A) (A) (A) (A) (A) (A) (A) (A) (A)
                 (A) (A) (A) (A) (A) (A) (A) (A) (A) (A) (A) (A)
                 (A) (A) (A) (A) (A) (A) (A) (A) (A) (A)
 The electronic state is 1-A.
 Alpha  occ. eigenvalues --  -10.30539 -10.30503 -10.30500 -10.30442 -10.30384
 Alpha  occ. eigenvalues --  -10.30376 -10.29322 -10.29314 -10.29305 -10.29302
 Alpha  occ. eigenvalues --  -10.29296 -10.29293 -10.29223 -10.29221 -10.29217
 Alpha  occ. eigenvalues --  -10.29211 -10.29196 -10.29192 -10.29159 -10.29157
 Alpha  occ. eigenvalues --  -10.29135 -10.29100 -10.29096 -10.29086  -0.99080
 Alpha  occ. eigenvalues --   -0.97137  -0.97113  -0.95308  -0.89538  -0.89509
 Alpha  occ. eigenvalues --   -0.85509  -0.85389  -0.85331  -0.85106  -0.82319
 Alpha  occ. eigenvalues --   -0.82245  -0.74021  -0.73663  -0.71196  -0.70891
 Alpha  occ. eigenvalues --   -0.70191  -0.69970  -0.66729  -0.66561  -0.63959
 Alpha  occ. eigenvalues --   -0.61054  -0.60759  -0.58633  -0.57496  -0.56966
 Alpha  occ. eigenvalues --   -0.54937  -0.54886  -0.54295  -0.54031  -0.52260
 Alpha  occ. eigenvalues --   -0.52017  -0.51708  -0.51612  -0.51185  -0.51054
 Alpha  occ. eigenvalues --   -0.50276  -0.48789  -0.46990  -0.46503  -0.46200
 Alpha  occ. eigenvalues --   -0.45493  -0.44857  -0.44403  -0.43204  -0.43183
 Alpha  occ. eigenvalues --   -0.42993  -0.41933  -0.41164  -0.37704  -0.36586
 Alpha  occ. eigenvalues --   -0.33725  -0.33687  -0.33678  -0.32977  -0.30316
 Alpha  occ. eigenvalues --   -0.29644
 Alpha virt. eigenvalues --    0.01232   0.01887   0.03697   0.04169   0.04192
 Alpha virt. eigenvalues --    0.04503   0.04875   0.04964   0.05004   0.05128
 Alpha virt. eigenvalues --    0.05307   0.05690   0.05950   0.06947   0.07083
 Alpha virt. eigenvalues --    0.07215   0.08191   0.08358   0.08461   0.08966
 Alpha virt. eigenvalues --    0.09139   0.09307   0.09934   0.10909   0.11074
 Alpha virt. eigenvalues --    0.11496   0.12332   0.12559   0.12724   0.13416
 Alpha virt. eigenvalues --    0.14050   0.14256   0.14534   0.14983   0.15234
 Alpha virt. eigenvalues --    0.15702   0.15800   0.15809   0.16326   0.16361
 Alpha virt. eigenvalues --    0.16603   0.16685   0.16858   0.16901   0.17379
 Alpha virt. eigenvalues --    0.17479   0.17737   0.18021   0.18184   0.18420
 Alpha virt. eigenvalues --    0.18497   0.18660   0.18944   0.19351   0.19575
 Alpha virt. eigenvalues --    0.19742   0.19835   0.19963   0.20519   0.20775
 Alpha virt. eigenvalues --    0.21123   0.21304   0.21515   0.21795   0.21902
 Alpha virt. eigenvalues --    0.22030   0.22700   0.23036   0.23384   0.23423
 Alpha virt. eigenvalues --    0.23572   0.23734   0.24069   0.24323   0.24945
 Alpha virt. eigenvalues --    0.25048   0.25207   0.25293   0.25653   0.26012
 Alpha virt. eigenvalues --    0.26030   0.26300   0.26631   0.26789   0.27239
 Alpha virt. eigenvalues --    0.27506   0.27849   0.27892   0.28279   0.28772
 Alpha virt. eigenvalues --    0.28961   0.29444   0.29513   0.29796   0.29878
 Alpha virt. eigenvalues --    0.30173   0.30421   0.30743   0.31146   0.31464
 Alpha virt. eigenvalues --    0.31606   0.32169   0.32422   0.32707   0.32933
 Alpha virt. eigenvalues --    0.33450   0.33741   0.34239   0.34260   0.34636
 Alpha virt. eigenvalues --    0.34676   0.35371   0.35604   0.35886   0.36287
 Alpha virt. eigenvalues --    0.36442   0.36681   0.36726   0.37172   0.37507
 Alpha virt. eigenvalues --    0.38032   0.38199   0.38299   0.38791   0.39065
 Alpha virt. eigenvalues --    0.39265   0.39459   0.40411   0.40524   0.40686
 Alpha virt. eigenvalues --    0.41149   0.41250   0.41529   0.41774   0.42368
 Alpha virt. eigenvalues --    0.43172   0.43394   0.43556   0.44278   0.44583
 Alpha virt. eigenvalues --    0.44721   0.45042   0.45105   0.45410   0.46427
 Alpha virt. eigenvalues --    0.47747   0.48904   0.49546   0.50799   0.51359
 Alpha virt. eigenvalues --    0.53327   0.54414   0.57510   0.58023   0.58677
 Alpha virt. eigenvalues --    0.59704   0.60926   0.61097   0.61693   0.61741
 Alpha virt. eigenvalues --    0.62297   0.62388   0.63088   0.63186   0.63295
 Alpha virt. eigenvalues --    0.63369   0.63848   0.64047   0.64181   0.64576
 Alpha virt. eigenvalues --    0.64934   0.65140   0.65854   0.66112   0.66492
 Alpha virt. eigenvalues --    0.66630   0.67183   0.68085   0.68779   0.68867
 Alpha virt. eigenvalues --    0.69791   0.69843   0.70324   0.70605   0.71287
 Alpha virt. eigenvalues --    0.71701   0.71829   0.72628   0.72883   0.73154
 Alpha virt. eigenvalues --    0.73743   0.73984   0.74626   0.74970   0.75959
 Alpha virt. eigenvalues --    0.76131   0.76354   0.76794   0.78103   0.78469
 Alpha virt. eigenvalues --    0.78884   0.79059   0.79588   0.80519   0.80984
 Alpha virt. eigenvalues --    0.81060   0.81491   0.81801   0.81984   0.82439
 Alpha virt. eigenvalues --    0.82831   0.83488   0.84332   0.84598   0.85120
 Alpha virt. eigenvalues --    0.85216   0.85779   0.86054   0.86508   0.86783
 Alpha virt. eigenvalues --    0.88027   0.88174   0.89038   0.90068   0.91241
 Alpha virt. eigenvalues --    0.91700   0.92111   0.92356   0.92959   0.93045
 Alpha virt. eigenvalues --    0.93782   0.93821   0.94486   0.94812   0.94929
 Alpha virt. eigenvalues --    0.95367   0.96419   0.97145   0.97264   0.98195
 Alpha virt. eigenvalues --    0.98633   0.99469   1.00089   1.01106   1.01536
 Alpha virt. eigenvalues --    1.01922   1.02198   1.02732   1.03096   1.03629
 Alpha virt. eigenvalues --    1.04747   1.05092   1.05645   1.06287   1.06908
 Alpha virt. eigenvalues --    1.07097   1.07633   1.08242   1.08904   1.09419
 Alpha virt. eigenvalues --    1.10089   1.11575   1.12242   1.12501   1.13097
 Alpha virt. eigenvalues --    1.13487   1.13985   1.14655   1.14857   1.16644
 Alpha virt. eigenvalues --    1.17039   1.17239   1.17385   1.18178   1.18187
 Alpha virt. eigenvalues --    1.19388   1.20490   1.21094   1.21450   1.22515
 Alpha virt. eigenvalues --    1.22785   1.23540   1.24179   1.24668   1.25203
 Alpha virt. eigenvalues --    1.25533   1.27799   1.30914   1.32083   1.38455
 Alpha virt. eigenvalues --    1.40435   1.41602   1.42090   1.46397   1.46842
 Alpha virt. eigenvalues --    1.47240   1.52701   1.55073   1.56192   1.57434
 Alpha virt. eigenvalues --    1.58107   1.58510   1.58644   1.59074   1.59309
 Alpha virt. eigenvalues --    1.60100   1.60608   1.61851   1.62141   1.62274
 Alpha virt. eigenvalues --    1.62684   1.63371   1.63739   1.64534   1.65239
 Alpha virt. eigenvalues --    1.65429   1.65578   1.65862   1.66458   1.66584
 Alpha virt. eigenvalues --    1.67515   1.68413   1.69475   1.69896   1.72016
 Alpha virt. eigenvalues --    1.72825   1.73437   1.73945   1.74154   1.74610
 Alpha virt. eigenvalues --    1.75546   1.75957   1.76376   1.77568   1.77857
 Alpha virt. eigenvalues --    1.81062   1.81753   1.82044   1.82761   1.83013
 Alpha virt. eigenvalues --    1.83636   1.84734   1.85143   1.85477   1.86261
 Alpha virt. eigenvalues --    1.86607   1.86757   1.87360   1.90020   1.91410
 Alpha virt. eigenvalues --    1.92657   1.92898   1.93500   1.94610   1.95636
 Alpha virt. eigenvalues --    1.96335   1.97593   2.00113   2.01121   2.01227
 Alpha virt. eigenvalues --    2.02183   2.02441   2.02681   2.03011   2.03955
 Alpha virt. eigenvalues --    2.04005   2.04381   2.04489   2.04544   2.05155
 Alpha virt. eigenvalues --    2.05266   2.05374   2.05583   2.06979   2.07327
 Alpha virt. eigenvalues --    2.08191   2.08273   2.08753   2.09265   2.11295
 Alpha virt. eigenvalues --    2.12514   2.12711   2.13277   2.14075   2.14281
 Alpha virt. eigenvalues --    2.16692   2.16834   2.17195   2.18299   2.19509
 Alpha virt. eigenvalues --    2.20178   2.20363   2.23782   2.25085   2.28734
 Alpha virt. eigenvalues --    2.30974   2.34532   2.35775   2.36602   2.36792
 Alpha virt. eigenvalues --    2.39855   2.40722   2.42938   2.43697   2.44536
 Alpha virt. eigenvalues --    2.44586   2.48883   2.49199   2.50855   2.52486
 Alpha virt. eigenvalues --    2.53023   2.53659   2.54261   2.55241   2.56241
 Alpha virt. eigenvalues --    2.56361   2.57483   2.57738   2.58405   2.59311
 Alpha virt. eigenvalues --    2.60485   2.62593   2.62762   2.70603   2.73029
 Alpha virt. eigenvalues --    2.73158   2.73233   2.75860   2.76110   2.76798
 Alpha virt. eigenvalues --    2.78905   2.79227   2.79332   2.79964   2.80061
 Alpha virt. eigenvalues --    2.80416   2.81052   2.81201   2.81428   2.81957
 Alpha virt. eigenvalues --    2.82409   2.83247   2.83347   2.83803   2.83983
 Alpha virt. eigenvalues --    2.84956   2.85599   2.86426   2.87280   2.87445
 Alpha virt. eigenvalues --    2.88304   2.89363   2.90144   2.90543   2.91442
 Alpha virt. eigenvalues --    2.92470   2.92845   2.93450   2.94002   2.94129
 Alpha virt. eigenvalues --    2.95021   2.96472   2.96770   2.99183   2.99657
 Alpha virt. eigenvalues --    3.00042   3.01565   3.03109   3.04279   3.04438
 Alpha virt. eigenvalues --    3.04856   3.04940   3.05358   3.05925   3.07067
 Alpha virt. eigenvalues --    3.07150   3.11517   3.12903   3.15504   3.16062
 Alpha virt. eigenvalues --    3.17786   3.19851   3.20448   3.21687   3.24780
 Alpha virt. eigenvalues --    3.26744   3.31725   3.32088   3.33211   3.33441
 Alpha virt. eigenvalues --    3.35388   3.35851   3.39267   3.47028   3.47495
 Alpha virt. eigenvalues --    3.49241   3.49367   3.49786   3.49865   3.53286
 Alpha virt. eigenvalues --    3.55026   3.60706   3.61051   3.62892   3.63706
 Alpha virt. eigenvalues --    3.65197   3.65910   3.66529   3.73570   3.73739
 Alpha virt. eigenvalues --    3.75639   3.76843   3.76930   3.78437   3.88509
 Alpha virt. eigenvalues --    3.91588   3.92879   4.09837   4.10204   4.11074
 Alpha virt. eigenvalues --    4.14549   4.14600   4.14663   4.23524   4.24059
 Alpha virt. eigenvalues --    4.26253   4.26319   4.26945   4.27029   4.29026
 Alpha virt. eigenvalues --    4.34066   4.52629   4.66888   4.74251   4.93202
 Alpha virt. eigenvalues --    4.95441   4.95476   5.00640  23.67316  23.79883
 Alpha virt. eigenvalues --   23.81857  23.88217  24.08714  24.09037  24.10243
 Alpha virt. eigenvalues --   24.10643  24.10927  24.11802  24.11900  24.13191
 Alpha virt. eigenvalues --   24.20647  24.20681  24.21453  24.23254  24.24190
 Alpha virt. eigenvalues --   24.24272  24.24427  24.25194  24.31297  24.33793
 Alpha virt. eigenvalues --   24.33841  24.34549
          Condensed to atoms (all electrons):
               1          2          3          4          5          6
     1  C   11.841132  -1.137654  -1.193110  -3.230094  -0.006678   3.825494
     2  C   -1.137654  10.830158  -0.204866   2.466905   0.320504  -1.996611
     3  C   -1.193110  -0.204866  10.514985  -0.477409   0.069812  -1.874358
     4  C   -3.230094   2.466905  -0.477409  17.666784  -0.022315  -2.097836
     5  H   -0.006678   0.320504   0.069812  -0.022315   0.851624  -0.079598
     6  C    3.825494  -1.996611  -1.874358  -2.097836  -0.079598  12.146630
     7  C   -3.293048  -0.571545   2.048366  -7.654014   0.001432  -2.060897
     8  H   -0.004163   0.065543   0.330532  -0.008689   0.009092  -0.050009
     9  C   -3.843099  -0.401596  -0.170893   1.921968   0.063222  -1.478151
    10  C    1.960535  -0.793228  -0.575120  -0.586368   0.130417   0.852758
    11  C   -0.623616   2.796237  -3.497413   0.951204  -0.017282  -0.666391
    12  C   -0.730339  -3.743936   2.956132  -0.671451   0.002808  -0.566332
    13  C    2.033877  -0.540454  -0.786061  -1.942545  -0.015864   0.887197
    14  H    0.043744   0.000064   0.000073  -0.028286  -0.000041  -0.009850
    15  C    0.514632   1.258832  -0.295693   0.805055  -0.246418  -0.041649
    16  C   -0.178848  -0.725695   0.293397  -1.964143   0.130715   0.134408
    17  C   -0.722007  -0.096357  -0.727118   0.266247   0.001130  -1.347811
    18  H   -0.042789   0.008138  -0.039739  -0.012500  -0.098525   0.012478
    19  C   -0.710663  -0.679399  -0.119775  -0.165768  -0.034947  -1.341476
    20  H   -0.043024  -0.052919   0.013561   0.013608  -0.004541   0.002332
    21  C    0.520473  -0.336283   1.123871  -1.043342  -0.043967  -0.039220
    22  C   -0.193535   0.335032  -0.587412   1.274645   0.028246   0.130068
    23  C    0.052271   0.116869   0.011727  -0.222216  -0.057037   0.019109
    24  H    0.006016   0.013519  -0.014425   0.020345  -0.004716  -0.001321
    25  C   -0.319205  -0.279509  -0.017153  -0.041587   0.014324  -0.092630
    26  H    0.031260   0.033971  -0.003002   0.107602  -0.009299   0.015026
    27  C   -0.214558   0.093465   0.146256   0.012086   0.013018  -0.054173
    28  H    0.004689  -0.005311  -0.006295  -0.000439   0.006993   0.014630
    29  H    0.004838  -0.005141  -0.005642  -0.000823   0.000370   0.014340
    30  C    0.023718  -0.018563   0.036765   0.039667  -0.004432   0.001021
    31  H    0.010330  -0.007637   0.017106  -0.016791  -0.000605   0.001643
    32  C   -0.308589  -0.002152  -0.227523   0.499435   0.005421  -0.092755
    33  H    0.026223  -0.005872   0.026862  -0.138128   0.000939   0.013147
    34  C    0.081309   0.147420   0.003445  -0.123675  -0.018934   0.028013
    35  H   -0.000435  -0.004098  -0.000122  -0.005152  -0.000261   0.000361
    36  H   -0.003529  -0.008572  -0.000394  -0.001872   0.001573  -0.000971
    37  H    0.001231   0.002366   0.002895   0.000573  -0.001169   0.028667
    38  C    0.085459   0.006470   0.152177  -0.080767  -0.000814   0.031439
    39  H   -0.001221  -0.000618  -0.005535   0.004946   0.000009  -0.000298
    40  H   -0.003124  -0.000334  -0.007357   0.009974  -0.000010  -0.000889
    41  H    0.003393   0.004397  -0.000153  -0.004882  -0.001147   0.000967
    42  H    0.003406  -0.000094   0.004173  -0.001697  -0.000006   0.001001
               7          8          9         10         11         12
     1  C   -3.293048  -0.004163  -3.843099   1.960535  -0.623616  -0.730339
     2  C   -0.571545   0.065543  -0.401596  -0.793228   2.796237  -3.743936
     3  C    2.048366   0.330532  -0.170893  -0.575120  -3.497413   2.956132
     4  C   -7.654014  -0.008689   1.921968  -0.586368   0.951204  -0.671451
     5  H    0.001432   0.009092   0.063222   0.130417  -0.017282   0.002808
     6  C   -2.060897  -0.050009  -1.478151   0.852758  -0.666391  -0.566332
     7  C   17.650563  -0.031555   1.967439  -1.736249  -0.410926   0.690384
     8  H   -0.031555   0.722027   0.036220  -0.012037   0.015540  -0.022672
     9  C    1.967439   0.036220  12.815305  -2.110220  -0.012460   0.065237
    10  C   -1.736249  -0.012037  -2.110220  12.780860  -0.321366   0.316505
    11  C   -0.410926   0.015540  -0.012460  -0.321366  13.091356  -5.979952
    12  C    0.690384  -0.022672   0.065237   0.316505  -5.979952  13.824512
    13  C   -0.436615   0.091932  -2.289269   0.614092   0.358281  -0.438713
    14  H   -0.029845  -0.001527   0.331622   0.023619  -0.001930   0.000748
    15  C   -1.061316  -0.033652  -1.467635  -0.653717   0.205369  -0.060493
    16  C    1.385895   0.021030   1.439715  -1.768231  -0.189723   0.061477
    17  C   -0.148951  -0.026602  -0.024022   0.066958   0.375997   0.381051
    18  H    0.011500  -0.003667  -0.006435  -0.046907   0.485690   0.000700
    19  C    0.221221  -0.001089  -0.019176   0.026985   0.513733   0.364551
    20  H   -0.016826  -0.051283   0.000125   0.001680  -0.010238   0.504477
    21  C    0.720484  -0.182237  -1.411345   0.125772  -0.067961   0.228545
    22  C   -1.814554   0.116368   1.243548  -0.191649   0.075447  -0.234224
    23  C   -0.012768  -0.002663   0.105652  -1.386056  -0.049215   0.007113
    24  H   -0.011084  -0.000938  -0.024009  -0.075762   0.017607  -0.003904
    25  C    0.497900   0.003785   0.504432  -1.295046   0.061747  -0.028465
    26  H   -0.134822   0.000808  -0.077982  -0.013322  -0.011521   0.008705
    27  C    0.020546   0.005558   0.002443  -0.004547  -0.624328  -0.460458
    28  H   -0.000928   0.000366  -0.000268   0.002538  -0.069669   0.015489
    29  H   -0.000455   0.004236  -0.000402   0.000236   0.017382  -0.070820
    30  C   -0.210595  -0.042132   0.170171  -0.000610   0.000742  -0.021930
    31  H    0.016186   0.000734  -0.028067   0.004622  -0.001691   0.009253
    32  C   -0.001420   0.011190   0.563851  -0.094322  -0.029428   0.067172
    33  H    0.116387  -0.006932  -0.080959  -0.005964   0.008802  -0.013022
    34  C   -0.062217  -0.000579  -0.119402  -0.495939  -0.009996   0.005784
    35  H    0.004105   0.000019   0.004508   0.033890  -0.001178   0.000074
    36  H    0.009620  -0.000017   0.014438   0.034070   0.000479  -0.000254
    37  H    0.000714  -0.000885   0.000046  -0.000251  -0.011566  -0.011097
    38  C   -0.134491  -0.014248  -0.155114   0.020566   0.007398  -0.017499
    39  H   -0.003149  -0.000189   0.005951  -0.000297  -0.000112  -0.000195
    40  H   -0.002644   0.001058   0.014736  -0.002728  -0.000281   0.000623
    41  H   -0.001339  -0.000003  -0.007791   0.015609  -0.000215   0.000133
    42  H   -0.004899  -0.000753  -0.008471   0.000875   0.000150  -0.000347
              13         14         15         16         17         18
     1  C    2.033877   0.043744   0.514632  -0.178848  -0.722007  -0.042789
     2  C   -0.540454   0.000064   1.258832  -0.725695  -0.096357   0.008138
     3  C   -0.786061   0.000073  -0.295693   0.293397  -0.727118  -0.039739
     4  C   -1.942545  -0.028286   0.805055  -1.964143   0.266247  -0.012500
     5  H   -0.015864  -0.000041  -0.246418   0.130715   0.001130  -0.098525
     6  C    0.887197  -0.009850  -0.041649   0.134408  -1.347811   0.012478
     7  C   -0.436615  -0.029845  -1.061316   1.385895  -0.148951   0.011500
     8  H    0.091932  -0.001527  -0.033652   0.021030  -0.026602  -0.003667
     9  C   -2.289269   0.331622  -1.467635   1.439715  -0.024022  -0.006435
    10  C    0.614092   0.023619  -0.653717  -1.768231   0.066958  -0.046907
    11  C    0.358281  -0.001930   0.205369  -0.189723   0.375997   0.485690
    12  C   -0.438713   0.000748  -0.060493   0.061477   0.381051   0.000700
    13  C   12.944624   0.021041   0.139376  -0.212147   0.034270   0.001668
    14  H    0.021041   0.503551   0.033810  -0.045489  -0.000730  -0.000591
    15  C    0.139376   0.033810  14.572101  -7.902002  -0.085623   0.049933
    16  C   -0.212147  -0.045489  -7.902002  17.359031   0.031809  -0.018106
    17  C    0.034270  -0.000730  -0.085623   0.031809   8.442265  -0.065378
    18  H    0.001668  -0.000591   0.049933  -0.018106  -0.065378   0.609136
    19  C    0.050084  -0.000517   0.028744  -0.014699  -0.581725   0.055225
    20  H   -0.044262  -0.000457   0.004586  -0.001270   0.051772   0.002301
    21  C   -0.482218   0.032331   0.225862  -0.226748   0.029045   0.006711
    22  C   -1.890295  -0.041879  -0.228345   0.271381  -0.015009  -0.002738
    23  C   -0.002239   0.006377   0.173229   0.173625  -0.021579   0.008387
    24  H    0.006128  -0.001520   0.511942  -0.077632   0.005417  -0.000105
    25  C   -0.088096  -0.030107   0.481859  -1.387301   0.002411  -0.000082
    26  H   -0.009178  -0.002422  -0.031505   0.480701  -0.000388   0.001044
    27  C   -0.008153   0.000392   0.003811  -0.003527   0.432626  -0.018979
    28  H    0.000268  -0.000018  -0.002448   0.000834   0.411413  -0.020102
    29  H    0.002441  -0.000018  -0.000158   0.000061   0.007553  -0.001193
    30  C   -1.398044   0.004423  -0.002785   0.025993   0.002119   0.000545
    31  H   -0.061568  -0.001292   0.006792  -0.007157  -0.000076   0.000075
    32  C   -1.325021  -0.022159  -0.013062   0.027315  -0.000941  -0.000736
    33  H   -0.005887  -0.002011  -0.002979   0.007918   0.000548  -0.000053
    34  C    0.019208   0.005338  -0.518843  -0.224987   0.000879   0.004082
    35  H   -0.000351   0.000068  -0.088740   0.025599  -0.000657  -0.000168
    36  H   -0.002483  -0.000986   0.010572  -0.093127  -0.000064  -0.000161
    37  H   -0.000269   0.000004   0.000077  -0.000025  -0.075031   0.003215
    38  C   -0.490623   0.005300   0.007605  -0.024548  -0.000040   0.000250
    39  H    0.032867   0.000066  -0.000280   0.000604   0.000054  -0.000014
    40  H    0.034253  -0.001015  -0.000550   0.002595   0.000016  -0.000005
    41  H    0.000872   0.000358   0.010666  -0.011123   0.000029   0.000141
    42  H    0.016371   0.000364   0.000226  -0.000757   0.000003   0.000002
              19         20         21         22         23         24
     1  C   -0.710663  -0.043024   0.520473  -0.193535   0.052271   0.006016
     2  C   -0.679399  -0.052919  -0.336283   0.335032   0.116869   0.013519
     3  C   -0.119775   0.013561   1.123871  -0.587412   0.011727  -0.014425
     4  C   -0.165768   0.013608  -1.043342   1.274645  -0.222216   0.020345
     5  H   -0.034947  -0.004541  -0.043967   0.028246  -0.057037  -0.004716
     6  C   -1.341476   0.002332  -0.039220   0.130068   0.019109  -0.001321
     7  C    0.221221  -0.016826   0.720484  -1.814554  -0.012768  -0.011084
     8  H   -0.001089  -0.051283  -0.182237   0.116368  -0.002663  -0.000938
     9  C   -0.019176   0.000125  -1.411345   1.243548   0.105652  -0.024009
    10  C    0.026985   0.001680   0.125772  -0.191649  -1.386056  -0.075762
    11  C    0.513733  -0.010238  -0.067961   0.075447  -0.049215   0.017607
    12  C    0.364551   0.504477   0.228545  -0.234224   0.007113  -0.003904
    13  C    0.050084  -0.044262  -0.482218  -1.890295  -0.002239   0.006128
    14  H   -0.000517  -0.000457   0.032331  -0.041879   0.006377  -0.001520
    15  C    0.028744   0.004586   0.225862  -0.228345   0.173229   0.511942
    16  C   -0.014699  -0.001270  -0.226748   0.271381   0.173625  -0.077632
    17  C   -0.581725   0.051772   0.029045  -0.015009  -0.021579   0.005417
    18  H    0.055225   0.002301   0.006711  -0.002738   0.008387  -0.000105
    19  C    8.304763  -0.064662  -0.078019   0.027541   0.001998  -0.000011
    20  H   -0.064662   0.589366   0.045370  -0.021941   0.000061   0.000294
    21  C   -0.078019   0.045370  14.492192  -7.828727  -0.002633   0.007818
    22  C    0.027541  -0.021941  -7.828727  17.550103   0.022659  -0.007571
    23  C    0.001998   0.000061  -0.002633   0.022659   7.294012  -0.064737
    24  H   -0.000011   0.000294   0.007818  -0.007571  -0.064737   0.482937
    25  C   -0.000687  -0.000406  -0.010725   0.032740  -0.840677   0.017051
    26  H    0.000489  -0.000023  -0.003454   0.007653  -0.000002  -0.000142
    27  C    0.465155  -0.008329   0.004575  -0.003779  -0.000666   0.000375
    28  H    0.007933  -0.001205  -0.000206   0.000077  -0.000225   0.000003
    29  H    0.410412  -0.017778  -0.002228   0.000909  -0.000015  -0.000002
    30  C   -0.015665   0.009681   0.258477   0.010592  -0.002494   0.000726
    31  H    0.002923  -0.002262   0.491931  -0.062521   0.000619   0.000278
    32  C    0.001721   0.000259   0.443388  -1.567911   0.007296  -0.001025
    33  H   -0.000286   0.000591  -0.030522   0.493140   0.001315  -0.000025
    34  C   -0.000140   0.000218   0.007447  -0.024072   0.652108   0.001822
    35  H    0.000068  -0.000020  -0.000311   0.000635   0.412895  -0.009619
    36  H    0.000016  -0.000004  -0.000512   0.002520   0.004113   0.000081
    37  H   -0.071862   0.002688   0.000061  -0.000023  -0.000001   0.000004
    38  C    0.000560   0.003575  -0.555357  -0.049017   0.000818  -0.000012
    39  H   -0.000455  -0.000177  -0.084787   0.020340  -0.000019  -0.000003
    40  H   -0.000066  -0.000080   0.010746  -0.098844  -0.000101   0.000008
    41  H    0.000001   0.000002   0.000229  -0.000763  -0.068291   0.000571
    42  H    0.000017   0.000079   0.009062  -0.003347   0.000015   0.000001
              25         26         27         28         29         30
     1  C   -0.319205   0.031260  -0.214558   0.004689   0.004838   0.023718
     2  C   -0.279509   0.033971   0.093465  -0.005311  -0.005141  -0.018563
     3  C   -0.017153  -0.003002   0.146256  -0.006295  -0.005642   0.036765
     4  C   -0.041587   0.107602   0.012086  -0.000439  -0.000823   0.039667
     5  H    0.014324  -0.009299   0.013018   0.006993   0.000370  -0.004432
     6  C   -0.092630   0.015026  -0.054173   0.014630   0.014340   0.001021
     7  C    0.497900  -0.134822   0.020546  -0.000928  -0.000455  -0.210595
     8  H    0.003785   0.000808   0.005558   0.000366   0.004236  -0.042132
     9  C    0.504432  -0.077982   0.002443  -0.000268  -0.000402   0.170171
    10  C   -1.295046  -0.013322  -0.004547   0.002538   0.000236  -0.000610
    11  C    0.061747  -0.011521  -0.624328  -0.069669   0.017382   0.000742
    12  C   -0.028465   0.008705  -0.460458   0.015489  -0.070820  -0.021930
    13  C   -0.088096  -0.009178  -0.008153   0.000268   0.002441  -1.398044
    14  H   -0.030107  -0.002422   0.000392  -0.000018  -0.000018   0.004423
    15  C    0.481859  -0.031505   0.003811  -0.002448  -0.000158  -0.002785
    16  C   -1.387301   0.480701  -0.003527   0.000834   0.000061   0.025993
    17  C    0.002411  -0.000388   0.432626   0.411413   0.007553   0.002119
    18  H   -0.000082   0.001044  -0.018979  -0.020102  -0.001193   0.000545
    19  C   -0.000687   0.000489   0.465155   0.007933   0.410412  -0.015665
    20  H   -0.000406  -0.000023  -0.008329  -0.001205  -0.017778   0.009681
    21  C   -0.010725  -0.003454   0.004575  -0.000206  -0.002228   0.258477
    22  C    0.032740   0.007653  -0.003779   0.000077   0.000909   0.010592
    23  C   -0.840677  -0.000002  -0.000666  -0.000225  -0.000015  -0.002494
    24  H    0.017051  -0.000142   0.000375   0.000003  -0.000002   0.000726
    25  C    8.402135  -0.103547   0.000211  -0.000053   0.000013   0.006650
    26  H   -0.103547   0.504702  -0.000103  -0.000005   0.000005   0.001979
    27  C    0.000211  -0.000103   6.202010  -0.056285  -0.057663  -0.000528
    28  H   -0.000053  -0.000005  -0.056285   0.481095   0.002714  -0.000020
    29  H    0.000013   0.000005  -0.057663   0.002714   0.480658  -0.000230
    30  C    0.006650   0.001979  -0.000528  -0.000020  -0.000230   7.283600
    31  H   -0.000783  -0.000083   0.000410   0.000005   0.000112  -0.064485
    32  C   -0.046355   0.005372   0.000430   0.000015  -0.000076  -0.732077
    33  H    0.005671  -0.007266  -0.000156   0.000005   0.000004  -0.006783
    34  C    0.435196   0.020855   0.000032  -0.000051  -0.000007   0.000998
    35  H   -0.005329  -0.000204  -0.000069   0.000009   0.000001  -0.000025
    36  H    0.427277  -0.013605  -0.000001   0.000001   0.000000  -0.000126
    37  H    0.000000  -0.000000   0.475931  -0.014804  -0.014497  -0.000005
    38  C   -0.003605  -0.002124  -0.000058  -0.000007  -0.000047   0.638088
    39  H    0.000027   0.000056  -0.000051   0.000001   0.000009   0.409914
    40  H    0.000297   0.000666   0.000001   0.000000   0.000000   0.006600
    41  H   -0.066849   0.002055  -0.000002  -0.000001  -0.000000   0.000018
    42  H   -0.000097  -0.000080  -0.000003  -0.000000  -0.000000  -0.069817
              31         32         33         34         35         36
     1  C    0.010330  -0.308589   0.026223   0.081309  -0.000435  -0.003529
     2  C   -0.007637  -0.002152  -0.005872   0.147420  -0.004098  -0.008572
     3  C    0.017106  -0.227523   0.026862   0.003445  -0.000122  -0.000394
     4  C   -0.016791   0.499435  -0.138128  -0.123675  -0.005152  -0.001872
     5  H   -0.000605   0.005421   0.000939  -0.018934  -0.000261   0.001573
     6  C    0.001643  -0.092755   0.013147   0.028013   0.000361  -0.000971
     7  C    0.016186  -0.001420   0.116387  -0.062217   0.004105   0.009620
     8  H    0.000734   0.011190  -0.006932  -0.000579   0.000019  -0.000017
     9  C   -0.028067   0.563851  -0.080959  -0.119402   0.004508   0.014438
    10  C    0.004622  -0.094322  -0.005964  -0.495939   0.033890   0.034070
    11  C   -0.001691  -0.029428   0.008802  -0.009996  -0.001178   0.000479
    12  C    0.009253   0.067172  -0.013022   0.005784   0.000074  -0.000254
    13  C   -0.061568  -1.325021  -0.005887   0.019208  -0.000351  -0.002483
    14  H   -0.001292  -0.022159  -0.002011   0.005338   0.000068  -0.000986
    15  C    0.006792  -0.013062  -0.002979  -0.518843  -0.088740   0.010572
    16  C   -0.007157   0.027315   0.007918  -0.224987   0.025599  -0.093127
    17  C   -0.000076  -0.000941   0.000548   0.000879  -0.000657  -0.000064
    18  H    0.000075  -0.000736  -0.000053   0.004082  -0.000168  -0.000161
    19  C    0.002923   0.001721  -0.000286  -0.000140   0.000068   0.000016
    20  H   -0.002262   0.000259   0.000591   0.000218  -0.000020  -0.000004
    21  C    0.491931   0.443388  -0.030522   0.007447  -0.000311  -0.000512
    22  C   -0.062521  -1.567911   0.493140  -0.024072   0.000635   0.002520
    23  C    0.000619   0.007296   0.001315   0.652108   0.412895   0.004113
    24  H    0.000278  -0.001025  -0.000025   0.001822  -0.009619   0.000081
    25  C   -0.000783  -0.046355   0.005671   0.435196  -0.005329   0.427277
    26  H   -0.000083   0.005372  -0.007266   0.020855  -0.000204  -0.013605
    27  C    0.000410   0.000430  -0.000156   0.000032  -0.000069  -0.000001
    28  H    0.000005   0.000015   0.000005  -0.000051   0.000009   0.000001
    29  H    0.000112  -0.000076   0.000004  -0.000007   0.000001   0.000000
    30  C   -0.064485  -0.732077  -0.006783   0.000998  -0.000025  -0.000126
    31  H    0.480547   0.014155  -0.000165  -0.000068  -0.000002   0.000011
    32  C    0.014155   8.528144  -0.112654  -0.004365   0.000046   0.000366
    33  H   -0.000165  -0.112654   0.505284  -0.001849   0.000048   0.000659
    34  C   -0.000068  -0.004365  -0.001849   6.309709  -0.049791  -0.067644
    35  H   -0.000002   0.000046   0.000048  -0.049791   0.473674   0.000574
    36  H    0.000011   0.000366   0.000659  -0.067644   0.000574   0.475988
    37  H   -0.000005   0.000003  -0.000001   0.000002  -0.000001  -0.000000
    38  C    0.000809   0.290800   0.025187  -0.000760   0.000011   0.000146
    39  H   -0.009267  -0.002489  -0.000309   0.000012  -0.000000  -0.000002
    40  H    0.000140   0.431315  -0.013612   0.000136  -0.000002  -0.000043
    41  H    0.000000  -0.000111  -0.000077   0.462897  -0.010072  -0.011749
    42  H    0.000414  -0.072379   0.002119  -0.000010   0.000000   0.000002
              37         38         39         40         41         42
     1  C    0.001231   0.085459  -0.001221  -0.003124   0.003393   0.003406
     2  C    0.002366   0.006470  -0.000618  -0.000334   0.004397  -0.000094
     3  C    0.002895   0.152177  -0.005535  -0.007357  -0.000153   0.004173
     4  C    0.000573  -0.080767   0.004946   0.009974  -0.004882  -0.001697
     5  H   -0.001169  -0.000814   0.000009  -0.000010  -0.001147  -0.000006
     6  C    0.028667   0.031439  -0.000298  -0.000889   0.000967   0.001001
     7  C    0.000714  -0.134491  -0.003149  -0.002644  -0.001339  -0.004899
     8  H   -0.000885  -0.014248  -0.000189   0.001058  -0.000003  -0.000753
     9  C    0.000046  -0.155114   0.005951   0.014736  -0.007791  -0.008471
    10  C   -0.000251   0.020566  -0.000297  -0.002728   0.015609   0.000875
    11  C   -0.011566   0.007398  -0.000112  -0.000281  -0.000215   0.000150
    12  C   -0.011097  -0.017499  -0.000195   0.000623   0.000133  -0.000347
    13  C   -0.000269  -0.490623   0.032867   0.034253   0.000872   0.016371
    14  H    0.000004   0.005300   0.000066  -0.001015   0.000358   0.000364
    15  C    0.000077   0.007605  -0.000280  -0.000550   0.010666   0.000226
    16  C   -0.000025  -0.024548   0.000604   0.002595  -0.011123  -0.000757
    17  C   -0.075031  -0.000040   0.000054   0.000016   0.000029   0.000003
    18  H    0.003215   0.000250  -0.000014  -0.000005   0.000141   0.000002
    19  C   -0.071862   0.000560  -0.000455  -0.000066   0.000001   0.000017
    20  H    0.002688   0.003575  -0.000177  -0.000080   0.000002   0.000079
    21  C    0.000061  -0.555357  -0.084787   0.010746   0.000229   0.009062
    22  C   -0.000023  -0.049017   0.020340  -0.098844  -0.000763  -0.003347
    23  C   -0.000001   0.000818  -0.000019  -0.000101  -0.068291   0.000015
    24  H    0.000004  -0.000012  -0.000003   0.000008   0.000571   0.000001
    25  C    0.000000  -0.003605   0.000027   0.000297  -0.066849  -0.000097
    26  H   -0.000000  -0.002124   0.000056   0.000666   0.002055  -0.000080
    27  C    0.475931  -0.000058  -0.000051   0.000001  -0.000002  -0.000003
    28  H   -0.014804  -0.000007   0.000001   0.000000  -0.000001  -0.000000
    29  H   -0.014497  -0.000047   0.000009   0.000000  -0.000000  -0.000000
    30  C   -0.000005   0.638088   0.409914   0.006600   0.000018  -0.069817
    31  H   -0.000005   0.000809  -0.009267   0.000140   0.000000   0.000414
    32  C    0.000003   0.290800  -0.002489   0.431315  -0.000111  -0.072379
    33  H   -0.000001   0.025187  -0.000309  -0.013612  -0.000077   0.002119
    34  C    0.000002  -0.000760   0.000012   0.000136   0.462897  -0.000010
    35  H   -0.000001   0.000011  -0.000000  -0.000002  -0.010072   0.000000
    36  H   -0.000000   0.000146  -0.000002  -0.000043  -0.011749   0.000002
    37  H    0.491441   0.000002  -0.000001  -0.000000   0.000000  -0.000000
    38  C    0.000002   6.375556  -0.050169  -0.070029  -0.000011   0.464542
    39  H   -0.000001  -0.050169   0.473178   0.000587   0.000000  -0.009948
    40  H   -0.000000  -0.070029   0.000587   0.475843   0.000002  -0.011734
    41  H    0.000000  -0.000011   0.000000   0.000002   0.487855  -0.000000
    42  H   -0.000000   0.464542  -0.009948  -0.011734  -0.000000   0.487636
 Mulliken charges:
               1
     1  C    1.729297
     2  C   -0.881448
     3  C   -0.915568
     4  C    0.481743
     5  H    0.016954
     6  C    1.732496
     7  C    0.484408
     8  H    0.062487
     9  C   -1.533863
    10  C    1.157350
    11  C   -0.374703
    12  C   -0.435369
    13  C    1.181506
    14  H    0.209397
    15  C   -0.307189
    16  C   -0.796820
    17  C   -0.603506
    18  H    0.117752
    19  C   -0.583051
    20  H    0.095082
    21  C   -0.353590
    22  C   -0.775490
    23  C   -0.338634
    24  H    0.205619
    25  C   -0.235433
    26  H    0.201129
    27  C   -0.362917
    28  H    0.229263
    29  H    0.230901
    30  C   -0.341141
    31  H    0.205429
    32  C   -0.240142
    33  H    0.200662
    34  C   -0.463580
    35  H    0.220023
    36  H    0.223609
    37  H    0.191574
    38  C   -0.467418
    39  H    0.220964
    40  H    0.223851
    41  H    0.194383
    42  H    0.193982
 Sum of Mulliken charges =  -0.00000
 Mulliken charges with hydrogens summed into heavy atoms:
               1
     1  C    1.729297
     2  C   -0.864493
     3  C   -0.853081
     4  C    0.481743
     6  C    1.732496
     7  C    0.484408
     9  C   -1.324466
    10  C    1.157350
    11  C   -0.256951
    12  C   -0.340288
    13  C    1.181506
    15  C   -0.101570
    16  C   -0.595690
    17  C   -0.374243
    19  C   -0.352150
    21  C   -0.148161
    22  C   -0.574828
    23  C   -0.118612
    25  C   -0.011824
    27  C   -0.171342
    30  C   -0.120177
    32  C   -0.016290
    34  C   -0.269197
    38  C   -0.273437
 Electronic spatial extent (au):  <R**2>=          10005.6221
 Charge=             -0.0000 electrons
 Dipole moment (field-independent basis, Debye):
    X=             -0.0017    Y=             -0.0142    Z=              0.0053  Tot=              0.0152
 Quadrupole moment (field-independent basis, Debye-Ang):
   XX=           -122.7899   YY=           -125.9876   ZZ=           -145.2004
   XY=              0.0108   XZ=              0.1038   YZ=              6.1262
 Traceless Quadrupole moment (field-independent basis, Debye-Ang):
   XX=              8.5361   YY=              5.3384   ZZ=            -13.8745
   XY=              0.0108   XZ=              0.1038   YZ=              6.1262
 Octapole moment (field-independent basis, Debye-Ang**2):
  XXX=              0.1312  YYY=             35.5431  ZZZ=              1.8624  XYY=             -0.1217
  XXY=            -20.3018  XXZ=             32.4609  XZZ=              0.0119  YZZ=            -15.2038
  YYZ=            -34.3475  XYZ=              0.8387
 Hexadecapole moment (field-independent basis, Debye-Ang**3):
 XXXX=          -6353.5492 YYYY=          -6249.6672 ZZZZ=           -414.6998 XXXY=             -0.4628
 XXXZ=             -0.0011 YYYX=              1.4648 YYYZ=             96.9897 ZZZX=             -0.1066
 ZZZY=             27.2007 XXYY=          -2020.7519 XXZZ=          -1239.4157 YYZZ=          -1292.6695
 XXYZ=             31.8229 YYXZ=              3.0064 ZZXY=             -0.4321
 N-N= 1.734576703462D+03 E-N=-5.615482004135D+03  KE= 9.213211074443D+02
 No NMR shielding tensors so no spin-rotation constants.
 Leave Link  601 at Mon Nov 14 15:14:43 2022, MaxMem= 16106127360 cpu:               9.0 elap:               0.4
 (Enter /opt/ap/G16/B01/g16/l9999.exe)
 1\1\GINC-N61\SP\RwB97XD\6-311++G(d,p)\C24H18\ROOT\14-Nov-2022\0\\#P wB
 97XD/6-311++G(d,p) scf=maxcycle=512\\_conf018.gjf nmol_natom 1_42\\0,1
 \C\C,1,1.39412829\C,1,1.39435449,2,118.86443127\C,2,1.39416084,1,121.1
 529487,3,0.03668482,0\H,2,1.08488355,1,119.42236619,3,-179.97409048,0\
 C,1,1.48467131,2,120.55714816,4,179.25839056,0\C,3,1.39437784,1,121.11
 776116,2,-0.05351271,0\H,3,1.08487775,1,119.41869036,2,177.23008049,0\
 C,4,1.39432447,2,118.86473838,1,0.01008406,0\C,4,1.48466627,2,120.5464
 188,1,179.19454736,0\C,6,1.3968498,1,120.7843492,2,0.,0\C,6,1.3968682,
 1,120.67653841,2,-180.,0\C,7,1.48449863,3,120.56496838,1,-179.96325804
 ,0\H,9,1.0848792,4,119.41824946,2,177.22245984,0\C,10,1.39685361,4,120
 .76946845,2,-42.52368674,0\C,10,1.39686289,4,120.69448769,2,137.431075
 16,0\C,11,1.38888939,6,120.7380073,1,179.94058542,0\H,11,1.0847641,6,1
 19.46912378,1,-1.41050605,0\C,12,1.38882428,6,120.76493111,1,-179.9508
 2712,0\H,12,1.08482758,6,119.44182626,1,-1.23602505,0\C,13,1.39682899,
 7,120.74134419,3,42.89023273,0\C,13,1.39683158,7,120.7379111,3,-137.12
 494058,0\C,15,1.38888263,10,120.742191,4,179.9460119,0\H,15,1.08476334
 ,10,119.47085903,4,-1.40606944,0\C,16,1.38886088,10,120.76338989,4,-17
 9.95592713,0\H,16,1.08483431,10,119.44215232,4,-1.23439681,0\C,17,1.39
 007919,11,120.20743432,6,0.00349958,0\H,17,1.0843506,11,119.71318733,6
 ,179.5011609,0\H,19,1.08435858,12,119.73823132,6,179.53683762,0\C,21,1
 .38882373,13,120.76699356,7,179.99297883,0\H,21,1.0847938,13,119.43526
 23,7,1.32183327,0\C,22,1.38881869,13,120.76647403,7,-179.97118338,0\H,
 22,1.08479982,13,119.43203605,7,1.34657928,0\C,23,1.39007007,15,120.20
 732995,10,0.00573957,0\H,23,1.08434813,15,119.71220819,10,179.50724368
 ,0\H,25,1.08436328,16,119.73539424,10,179.53636455,0\H,27,1.08412515,1
 7,120.21790854,11,179.98397203,0\C,30,1.39008059,21,120.18795226,13,-0
 .02169059,0\H,30,1.08435324,21,119.73787119,13,-179.52151214,0\H,32,1.
 0843543,22,119.737043,13,-179.52886928,0\H,34,1.08412314,23,120.221528
 03,15,179.98800213,0\H,38,1.08411439,30,120.21547163,21,-179.98600656,
 0\\Version=ES64L-G16RevB.01\State=1-A\HF=-925.3062613\RMSD=6.248e-09\D
 ipole=0.0045234,0.0019327,0.0034304\Quadrupole=4.3696688,-10.0510378,5
 .681369,-4.2459407,-1.1471616,-2.5351817\PG=C01 [X(C24H18)]\\@


 I FIND THAT THE THREE TRULY GREAT TIMES FOR THINKING THOUGHTS
 ARE WHEN I AM STANDING IN THE SHOWER, SITTING ON THE JOHN, OR WALKING.

                                    -- COLIN FLETCHER
 Job cpu time:       0 days  1 hours 20 minutes 10.8 seconds.
 Elapsed time:       0 days  0 hours  2 minutes 32.3 seconds.
 File lengths (MBytes):  RWF=    224 Int=      0 D2E=      0 Chk=     26 Scr=      1
 Normal termination of Gaussian 16 at Mon Nov 14 15:14:43 2022.
