 Entering Gaussian System, Link 0=g16
 Input=_conf014.gjf
 Output=_conf014.log
 Initial command:
 /opt/ap/G16/B01/g16/l1.exe "/tmp2/scr/Gau-12429.inp" -scrdir="/tmp2/scr/"
 Entering Link 1 = /opt/ap/G16/B01/g16/l1.exe PID=     12430.
  
 Copyright (c) 1988-2017, Gaussian, Inc.  All Rights Reserved.
  
 This is part of the Gaussian(R) 16 program.  It is based on
 the Gaussian(R) 09 system (copyright 2009, Gaussian, Inc.),
 the Gaussian(R) 03 system (copyright 2003, Gaussian, Inc.),
 the Gaussian(R) 98 system (copyright 1998, Gaussian, Inc.),
 the Gaussian(R) 94 system (copyright 1995, Gaussian, Inc.),
 the Gaussian 92(TM) system (copyright 1992, Gaussian, Inc.),
 the Gaussian 90(TM) system (copyright 1990, Gaussian, Inc.),
 the Gaussian 88(TM) system (copyright 1988, Gaussian, Inc.),
 the Gaussian 86(TM) system (copyright 1986, Carnegie Mellon
 University), and the Gaussian 82(TM) system (copyright 1983,
 Carnegie Mellon University). Gaussian is a federally registered
 trademark of Gaussian, Inc.
  
 This software contains proprietary and confidential information,
 including trade secrets, belonging to Gaussian, Inc.
  
 This software is provided under written license and may be
 used, copied, transmitted, or stored only in accord with that
 written license.
  
 The following legend is applicable only to US Government
 contracts under FAR:
  
                    RESTRICTED RIGHTS LEGEND
  
 Use, reproduction and disclosure by the US Government is
 subject to restrictions as set forth in subparagraphs (a)
 and (c) of the Commercial Computer Software - Restricted
 Rights clause in FAR 52.227-19.
  
 Gaussian, Inc.
 340 Quinnipiac St., Bldg. 40, Wallingford CT 06492
  
  
 ---------------------------------------------------------------
 Warning -- This program may not be used in any manner that
 competes with the business of Gaussian, Inc. or will provide
 assistance to any competitor of Gaussian, Inc.  The licensee
 of this program is prohibited from giving any competitor of
 Gaussian, Inc. access to this program.  By using this program,
 the user acknowledges that Gaussian, Inc. is engaged in the
 business of creating and licensing software in the field of
 computational chemistry and represents and warrants to the
 licensee that it is not a competitor of Gaussian, Inc. and that
 it will not use this program in any manner prohibited above.
 ---------------------------------------------------------------
  

 Cite this work as:
 Gaussian 16, Revision B.01,
 M. J. Frisch, G. W. Trucks, H. B. Schlegel, G. E. Scuseria, 
 M. A. Robb, J. R. Cheeseman, G. Scalmani, V. Barone, 
 G. A. Petersson, H. Nakatsuji, X. Li, M. Caricato, A. V. Marenich, 
 J. Bloino, B. G. Janesko, R. Gomperts, B. Mennucci, H. P. Hratchian, 
 J. V. Ortiz, A. F. Izmaylov, J. L. Sonnenberg, D. Williams-Young, 
 F. Ding, F. Lipparini, F. Egidi, J. Goings, B. Peng, A. Petrone, 
 T. Henderson, D. Ranasinghe, V. G. Zakrzewski, J. Gao, N. Rega, 
 G. Zheng, W. Liang, M. Hada, M. Ehara, K. Toyota, R. Fukuda, 
 J. Hasegawa, M. Ishida, T. Nakajima, Y. Honda, O. Kitao, H. Nakai, 
 T. Vreven, K. Throssell, J. A. Montgomery, Jr., J. E. Peralta, 
 F. Ogliaro, M. J. Bearpark, J. J. Heyd, E. N. Brothers, K. N. Kudin, 
 V. N. Staroverov, T. A. Keith, R. Kobayashi, J. Normand, 
 K. Raghavachari, A. P. Rendell, J. C. Burant, S. S. Iyengar, 
 J. Tomasi, M. Cossi, J. M. Millam, M. Klene, C. Adamo, R. Cammi, 
 J. W. Ochterski, R. L. Martin, K. Morokuma, O. Farkas, 
 J. B. Foresman, and D. J. Fox, Gaussian, Inc., Wallingford CT, 2016.
 
 ******************************************
 Gaussian 16:  ES64L-G16RevB.01 20-Dec-2017
                14-Nov-2022 
 ******************************************
 %nprocshared=32
 Will use up to   32 processors via shared memory.
 %mem=120GB
 %chk=_conf014.chk
 ----------------------------------------
 #P wB97XD/6-311++G(d,p) scf=maxcycle=512
 ----------------------------------------
 1/38=1,172=1/1;
 2/12=2,17=6,18=5,40=1/2;
 3/5=4,6=6,7=1111,11=2,25=1,30=1,74=-58/1,2,3;
 4//1;
 5/5=2,7=512,38=5/2;
 6/7=2,8=2,9=2,10=2,28=1/1;
 99/5=1,9=1/99;
 Leave Link    1 at Mon Nov 14 15:09:34 2022, MaxMem= 16106127360 cpu:               2.2 elap:               0.1
 (Enter /opt/ap/G16/B01/g16/l101.exe)
 ----------------------------
 _conf014.gjf nmol_natom 1_42
 ----------------------------
 Symbolic Z-matrix:
 Charge =  0 Multiplicity = 1
 C
 C                    1     1.39413 
 C                    1     1.39435  2     118.86443 
 C                    2     1.39416  1     121.15295  3     0.03668  0
 H                    2     1.08488  1     119.42237  3    -179.97409  0
 C                    1     1.48467  2     120.55715  4     179.25839  0
 C                    3     1.39438  1     121.11776  2    -0.05351  0
 H                    3     1.08488  1     119.41869  2     177.23008  0
 C                    4     1.39432  2     118.86474  1     0.01008  0
 C                    4     1.48467  2     120.54642  1     179.19455  0
 C                    6     1.39685  1     120.78435  2    -20.      0
 C                    6     1.39687  1     120.67654  2     160.     0
 C                    7     1.4845   3     120.56497  1    -179.96326  0
 H                    9     1.08488  4     119.41825  2     177.22246  0
 C                    10    1.39685  4     120.76947  2    -42.52369  0
 C                    10    1.39686  4     120.69449  2     137.43108  0
 C                    11    1.38889  6     120.73801  1     179.94059  0
 H                    11    1.08476  6     119.46912  1    -1.41051  0
 C                    12    1.38882  6     120.76493  1    -179.95083  0
 H                    12    1.08483  6     119.44183  1    -1.23603  0
 C                    13    1.39683  7     120.74134  3     42.89023  0
 C                    13    1.39683  7     120.73791  3    -137.12494  0
 C                    15    1.38888  10    120.74219  4     179.94601  0
 H                    15    1.08476  10    119.47086  4    -1.40607  0
 C                    16    1.38886  10    120.76339  4    -179.95593  0
 H                    16    1.08483  10    119.44215  4    -1.2344   0
 C                    17    1.39008  11    120.20743  6     0.0035   0
 H                    17    1.08435  11    119.71319  6     179.50116  0
 H                    19    1.08436  12    119.73823  6     179.53684  0
 C                    21    1.38882  13    120.76699  7     179.99298  0
 H                    21    1.08479  13    119.43526  7     1.32183  0
 C                    22    1.38882  13    120.76647  7    -179.97118  0
 H                    22    1.0848   13    119.43204  7     1.34658  0
 C                    23    1.39007  15    120.20733  10    0.00574  0
 H                    23    1.08435  15    119.71221  10    179.50724  0
 H                    25    1.08436  16    119.73539  10    179.53636  0
 H                    27    1.08413  17    120.21791  11    179.98397  0
 C                    30    1.39008  21    120.18795  13   -0.02169  0
 H                    30    1.08435  21    119.73787  13   -179.52151  0
 H                    32    1.08435  22    119.73704  13   -179.52887  0
 H                    34    1.08412  23    120.22153  15    179.988  0
 H                    38    1.08411  30    120.21547  21   -179.98601  0
 
 ITRead=  0  0  0  0  0  0  0  0  0  0  0  0  0  0  0  0  0  0  0  0
 ITRead=  0  0  0  0  0  0  0  0  0  0  0  0  0  0  0  0  0  0  0  0
 ITRead=  0  0
 MicOpt= -1 -1 -1 -1 -1 -1 -1 -1 -1 -1 -1 -1 -1 -1 -1 -1 -1 -1 -1 -1
 MicOpt= -1 -1 -1 -1 -1 -1 -1 -1 -1 -1 -1 -1 -1 -1 -1 -1 -1 -1 -1 -1
 MicOpt= -1 -1
 NAtoms=     42 NQM=       42 NQMF=       0 NMMI=      0 NMMIF=      0
                NMic=       0 NMicF=      0.
                    Isotopes and Nuclear Properties:
 (Nuclear quadrupole moments (NQMom) in fm**2, nuclear magnetic moments (NMagM)
  in nuclear magnetons)

  Atom         1           2           3           4           5           6           7           8           9          10
 IAtWgt=          12          12          12          12           1          12          12           1          12          12
 AtmWgt=  12.0000000  12.0000000  12.0000000  12.0000000   1.0078250  12.0000000  12.0000000   1.0078250  12.0000000  12.0000000
 NucSpn=           0           0           0           0           1           0           0           1           0           0
 AtZEff=  -0.0000000  -0.0000000  -0.0000000  -0.0000000  -0.0000000  -0.0000000  -0.0000000  -0.0000000  -0.0000000  -0.0000000
 NQMom=    0.0000000   0.0000000   0.0000000   0.0000000   0.0000000   0.0000000   0.0000000   0.0000000   0.0000000   0.0000000
 NMagM=    0.0000000   0.0000000   0.0000000   0.0000000   2.7928460   0.0000000   0.0000000   2.7928460   0.0000000   0.0000000
 AtZNuc=   6.0000000   6.0000000   6.0000000   6.0000000   1.0000000   6.0000000   6.0000000   1.0000000   6.0000000   6.0000000

  Atom        11          12          13          14          15          16          17          18          19          20
 IAtWgt=          12          12          12           1          12          12          12           1          12           1
 AtmWgt=  12.0000000  12.0000000  12.0000000   1.0078250  12.0000000  12.0000000  12.0000000   1.0078250  12.0000000   1.0078250
 NucSpn=           0           0           0           1           0           0           0           1           0           1
 AtZEff=  -0.0000000  -0.0000000  -0.0000000  -0.0000000  -0.0000000  -0.0000000  -0.0000000  -0.0000000  -0.0000000  -0.0000000
 NQMom=    0.0000000   0.0000000   0.0000000   0.0000000   0.0000000   0.0000000   0.0000000   0.0000000   0.0000000   0.0000000
 NMagM=    0.0000000   0.0000000   0.0000000   2.7928460   0.0000000   0.0000000   0.0000000   2.7928460   0.0000000   2.7928460
 AtZNuc=   6.0000000   6.0000000   6.0000000   1.0000000   6.0000000   6.0000000   6.0000000   1.0000000   6.0000000   1.0000000

  Atom        21          22          23          24          25          26          27          28          29          30
 IAtWgt=          12          12          12           1          12           1          12           1           1          12
 AtmWgt=  12.0000000  12.0000000  12.0000000   1.0078250  12.0000000   1.0078250  12.0000000   1.0078250   1.0078250  12.0000000
 NucSpn=           0           0           0           1           0           1           0           1           1           0
 AtZEff=  -0.0000000  -0.0000000  -0.0000000  -0.0000000  -0.0000000  -0.0000000  -0.0000000  -0.0000000  -0.0000000  -0.0000000
 NQMom=    0.0000000   0.0000000   0.0000000   0.0000000   0.0000000   0.0000000   0.0000000   0.0000000   0.0000000   0.0000000
 NMagM=    0.0000000   0.0000000   0.0000000   2.7928460   0.0000000   2.7928460   0.0000000   2.7928460   2.7928460   0.0000000
 AtZNuc=   6.0000000   6.0000000   6.0000000   1.0000000   6.0000000   1.0000000   6.0000000   1.0000000   1.0000000   6.0000000

  Atom        31          32          33          34          35          36          37          38          39          40
 IAtWgt=           1          12           1          12           1           1           1          12           1           1
 AtmWgt=   1.0078250  12.0000000   1.0078250  12.0000000   1.0078250   1.0078250   1.0078250  12.0000000   1.0078250   1.0078250
 NucSpn=           1           0           1           0           1           1           1           0           1           1
 AtZEff=  -0.0000000  -0.0000000  -0.0000000  -0.0000000  -0.0000000  -0.0000000  -0.0000000  -0.0000000  -0.0000000  -0.0000000
 NQMom=    0.0000000   0.0000000   0.0000000   0.0000000   0.0000000   0.0000000   0.0000000   0.0000000   0.0000000   0.0000000
 NMagM=    2.7928460   0.0000000   2.7928460   0.0000000   2.7928460   2.7928460   2.7928460   0.0000000   2.7928460   2.7928460
 AtZNuc=   1.0000000   6.0000000   1.0000000   6.0000000   1.0000000   1.0000000   1.0000000   6.0000000   1.0000000   1.0000000

  Atom        41          42
 IAtWgt=           1           1
 AtmWgt=   1.0078250   1.0078250
 NucSpn=           1           1
 AtZEff=  -0.0000000  -0.0000000
 NQMom=    0.0000000   0.0000000
 NMagM=    2.7928460   2.7928460
 AtZNuc=   1.0000000   1.0000000
 Leave Link  101 at Mon Nov 14 15:09:34 2022, MaxMem= 16106127360 cpu:               6.3 elap:               0.2
 (Enter /opt/ap/G16/B01/g16/l202.exe)
                          Input orientation:                          
 ---------------------------------------------------------------------
 Center     Atomic      Atomic             Coordinates (Angstroms)
 Number     Number       Type             X           Y           Z
 ---------------------------------------------------------------------
      1          6           0        0.000000    0.000000    0.000000
      2          6           0        0.000000    0.000000    1.394128
      3          6           0        1.221126    0.000000   -0.673109
      4          6           0        1.193108    0.000764    2.115362
      5          1           0       -0.944957   -0.000427    1.927071
      6          6           0       -1.278366   -0.017366   -0.754803
      7          6           0        2.428476    0.001115    0.024455
      8          1           0        1.232154   -0.045667   -1.756969
      9          6           0        2.400843    0.001752    1.418572
     10          6           0        1.177445    0.018728    3.599837
     11          6           0       -2.461615   -0.443914   -0.147211
     12          6           0       -1.323689    0.392956   -2.089278
     13          6           0        3.721572    0.001921   -0.704680
     14          1           0        3.334061    0.048144    1.969857
     15          6           0        0.290794    0.844275    4.295193
     16          6           0        2.049080   -0.790881    4.331965
     17          6           0       -3.657207   -0.458608   -0.853862
     18          1           0       -2.439515   -0.787563    0.881444
     19          6           0       -2.518702    0.378418   -2.796784
     20          1           0       -0.417387    0.746118   -2.569637
     21          6           0        3.910862    0.818865   -1.821777
     22          6           0        4.776237   -0.814044   -0.288725
     23          6           0        0.275860    0.859807    5.683909
     24          1           0       -0.377402    1.495584    3.742000
     25          6           0        2.035025   -0.775886    5.720674
     26          1           0        2.729408   -1.453102    3.807101
     27          6           0       -3.690251   -0.046835   -2.181142
     28          1           0       -4.564399   -0.800630   -0.368228
     29          1           0       -2.536228    0.707650   -3.829805
     30          6           0        5.120444    0.820149   -2.504230
     31          1           0        3.109266    1.474569   -2.144691
     32          6           0        5.986440   -0.813321   -0.970068
     33          1           0        4.638168   -1.470412    0.563864
     34          6           0        1.147946    0.049642    6.401818
     35          1           0       -0.413890    1.513063    6.206701
     36          1           0        2.713797   -1.416787    6.272362
     37          1           0       -4.623352   -0.058481   -2.732971
     38          6           0        6.162883    0.003944   -2.080611
     39          1           0        5.251831    1.466740   -3.364741
     40          1           0        6.791448   -1.459089   -0.637249
     41          1           0        1.136620    0.061726    7.485815
     42          1           0        7.107346    0.004761   -2.612865
 ---------------------------------------------------------------------
                    Distance matrix (angstroms):
                    1          2          3          4          5
     1  C    0.000000
     2  C    1.394128   0.000000
     3  C    1.394354   2.400962   0.000000
     4  C    2.428634   1.394161   2.788612   0.000000
     5  H    2.146287   1.084884   3.384206   2.146341   0.000000
     6  C    1.484671   2.500485   2.500887   3.787659   2.702572
     7  C    2.428599   2.788100   1.394378   2.428585   3.872983
     8  H    2.146445   3.383741   1.084878   3.872806   4.279487
     9  C    2.788619   2.400968   2.401430   1.394324   3.384222
    10  C    3.787552   2.500376   4.273210   1.484666   2.702426
    11  C    2.505649   2.938083   3.746493   4.321339   2.607599
    12  C    2.504326   3.747090   2.938713   4.916002   4.053300
    13  C    3.787700   4.272598   2.500646   3.787581   5.357482
    14  H    3.872805   3.383747   3.384092   2.146415   4.279508
    15  C    4.387032   3.035381   5.124680   2.505463   2.801537
    16  C    4.856969   3.668120   5.134371   2.504540   3.920790
    17  C    3.783460   4.317285   4.903175   5.705512   3.911498
    18  H    2.710799   2.614256   4.054279   3.916626   1.986610
    19  C    3.782732   4.904162   4.317350   6.168414   4.993495
    20  H    2.708124   4.054915   2.615002   5.009836   4.588686
    21  C    4.391384   5.129076   3.037212   4.853507   6.189029
    22  C    4.853707   5.129045   3.667320   4.391169   6.189006
    23  C    5.755188   4.383786   6.484171   3.783362   4.042800
    24  H    4.047440   2.809218   4.928007   2.710524   2.419532
    25  C    6.121229   4.843792   6.491910   3.782894   4.886007
    26  H    4.904609   3.922195   4.945574   2.708491   4.375585
    27  C    4.286902   5.138356   5.137896   6.504568   4.941275
    28  H    4.648692   4.957887   5.848612   6.321340   4.359940
    29  H    4.647647   5.850017   4.958145   7.053555   6.014577
    30  C    5.758711   6.487587   4.385239   6.118495   7.556379
    31  H    4.054822   4.936104   2.811579   4.898143   5.932249
    32  C    6.118822   6.487555   4.843334   5.758354   7.556353
    33  H    4.898230   4.935996   3.920254   4.054620   5.932156
    34  C    6.504116   5.137821   7.075480   4.286973   4.940255
    35  H    6.401859   5.061770   7.231488   4.648499   4.570330
    36  H    6.979577   5.759266   7.243957   4.647859   5.854410
    37  H    5.371027   6.197721   6.197126   7.572386   5.937166
    38  C    6.504621   7.074953   5.138292   6.504219   8.159837
    39  H    6.407382   7.237395   5.063871   6.975231   8.279857
    40  H    6.975586   7.237348   5.758361   6.406985   8.279819
    41  H    7.571865   6.197125   8.159595   5.371096   5.936031
    42  H    7.572414   8.159067   6.197601   7.571945   9.243951
                    6          7          8          9         10
     6  C    0.000000
     7  C    3.787910   0.000000
     8  H    2.703303   2.146356   0.000000
     9  C    4.273231   1.394392   3.384102   0.000000
    10  C    4.999520   3.787973   5.357472   2.500981   0.000000
    11  C    1.396850   4.913299   4.048932   5.127747   5.243774
    12  C    1.396868   4.324366   2.614412   5.131295   6.225893
    13  C    5.000226   1.484499   2.703105   2.500505   5.000173
    14  H    5.357476   2.146366   4.279725   1.084879   2.703459
    15  C    5.357906   4.849723   6.189251   3.665665   1.396854
    16  C    6.127433   4.396117   6.188524   3.039714   1.396863
    17  C    2.421445   6.165900   4.989186   6.486591   6.590687
    18  H    2.149133   5.005374   4.581788   4.933618   4.595886
    19  C    2.421728   5.707566   3.915352   6.489455   7.396461
    20  H    2.148909   3.922152   2.002083   4.939869   6.413656
    21  C    5.363376   2.504946   2.815510   3.667109   6.124188
    22  C    6.124553   2.504906   3.912375   3.036921   5.363369
    23  C    6.681472   6.115597   7.556523   4.841994   2.421492
    24  H    4.829285   4.891475   5.933362   3.917716   2.149154
    25  C    7.313393   5.762417   7.555989   4.387097   2.421736
    26  H    6.239756   4.063707   5.931401   2.815959   2.148914
    27  C    2.802231   6.504289   4.940647   7.075431   7.557677
    28  H    3.400141   7.049631   6.008210   7.235404   7.027493
    29  H    3.400515   6.324776   4.366329   7.240057   8.334600
    30  C    6.686306   3.783088   4.053003   4.842972   7.310892
    31  H    4.838282   2.709194   2.446425   3.920191   6.233057
    32  C    7.311449   3.783053   4.879728   4.384797   6.686012
    33  H    6.233426   2.709077   4.360860   2.811302   4.838519
    34  C    7.557031   6.504835   8.159779   5.138559   2.802307
    35  H    7.179977   6.970308   8.280044   5.756123   3.400165
    36  H    8.202243   6.413127   8.279214   5.066504   3.400510
    37  H    3.886356   7.572002   5.936302   8.159549   8.588344
    38  C    7.558466   4.286853   4.941589   5.137824   7.557929
    39  H    7.187337   4.648230   4.585860   5.757987   8.197725
    40  H    8.198432   4.648180   5.844424   5.063385   7.187062
    41  H    8.587561   7.572613   9.243902   6.197846   3.886431
    42  H    8.589123   5.370968   5.937422   6.197069   8.588456
                   11         12         13         14         15
    11  C    0.000000
    12  C    2.401427   0.000000
    13  C    6.224254   5.246396   0.000000
    14  H    6.189827   6.187900   2.702860   0.000000
    15  C    5.382392   6.600887   6.121971   3.911840   0.000000
    16  C    6.366300   7.349109   5.365963   2.816859   2.401387
    17  C    1.388889   2.774296   7.394642   7.556985   6.617930
    18  H    1.084764   3.385835   6.410777   5.934410   4.665958
    19  C    2.774838   1.388824   6.592395   7.555447   7.642410
    20  H    3.385733   1.084828   4.600312   5.930222   6.901959
    21  C    6.708744   5.258658   1.396829   3.911930   7.107943
    22  C    7.248692   6.473635   1.396832   2.815037   6.624314
    23  C    6.572322   7.949776   7.309101   4.879095   1.388883
    24  H    4.819912   6.009580   6.229413   4.360107   1.084763
    25  C    7.400139   8.581521   6.688393   4.054029   2.774755
    26  H    6.603163   7.389371   4.843310   2.448430   3.385708
    27  C    2.409169   2.408832   7.557607   8.159704   7.654131
    28  H    2.144247   3.858608   8.331542   8.280865   6.930088
    29  H    3.859166   2.144462   7.030257   8.278364   8.603855
    30  C    8.039963   6.471594   2.421718   4.878996   8.340159
    31  H    6.221351   4.563337   2.148776   4.360587   7.057844
    32  C    8.496069   7.493045   2.421709   4.052208   7.931644
    33  H    7.208762   6.786387   2.148749   2.446125   6.179018
    34  C    7.494152   8.850173   7.558317   4.941800   2.409154
    35  H    6.956660   8.420548   8.194680   5.843284   2.144229
    36  H    8.303149   9.460099   7.190790   4.587189   3.859086
    37  H    3.392317   3.392036   8.588094   9.243829   8.623160
    38  C    8.849892   7.496678   2.802355   4.940696   8.708529
    39  H    8.573234   6.783604   3.400487   5.843645   9.147346
    40  H    9.321475   8.449492   3.400476   4.585006   8.478973
    41  H    8.453759   9.891675   8.588933   5.937569   3.392325
    42  H    9.891702   8.456192   3.886469   5.936405   9.741223
                   16         17         18         19         20
    16  C    0.000000
    17  C    7.717832   0.000000
    18  H    5.661589   2.145291   0.000000
    19  C    8.546985   2.402446   3.859422   0.000000
    20  H    7.488520   3.858974   4.283822   2.145303   0.000000
    21  C    6.627673   7.735921   7.086275   6.517970   4.392986
    22  C    5.365510   8.459829   7.310067   7.805669   5.883060
    23  C    2.774316   7.742719   5.757670   8.942229   8.283389
    24  H    3.385823   5.974775   4.200935   6.970575   6.356104
    25  C    1.388861   8.702109   6.590887   9.727073   8.778387
    26  H    1.084834   7.968843   5.976636   8.631826   7.443230
    27  C    8.712869   1.390079   3.390052   1.390101   3.389888
    28  H    8.113570   1.084351   2.465154   3.387168   4.943312
    29  H    9.480777   3.387180   4.943772   1.084359   2.465561
    30  C    7.665654   9.022532   8.438038   7.657497   5.538712
    31  H    6.942862   7.154619   6.712950   5.770684   3.626086
    32  C    6.604154   9.650868   8.627019   8.780352   6.782291
    33  H    4.622091   8.476258   7.117636   8.119909   6.347478
    34  C    2.408903   8.717380   6.636665   9.907910   9.133584
    35  H    3.858628   8.016118   6.144461   9.315599   8.809785
    36  H    2.144469   9.606814   7.484286  10.623145   9.626183
    37  H    9.745310   2.150485   4.285405   2.150465   4.285346
    38  C    7.660043   9.907222   9.132442   8.719121   6.640025
    39  H    8.636768   9.454229   9.070213   7.866906   5.769881
    40  H    6.901424  10.498680   9.379128   9.732365   7.782311
    41  H    3.392092   9.633366   7.558290  10.917578  10.197815
    42  H    8.628428  10.917161  10.197084   9.635053   7.561288
                   21         22         23         24         25
    21  C    0.000000
    22  C    2.401148   0.000000
    23  C    8.339678   7.663388   0.000000
    24  H    7.057108   6.938381   2.145221   0.000000
    25  C    7.934139   6.605193   2.402396   3.859344   0.000000
    26  H    6.184005   4.623169   3.858996   4.283837   2.145356
    27  C    7.658688   8.709264   8.855002   6.959715   9.785142
    28  H    8.750178   9.340984   7.925498   6.300597   8.979295
    29  H    6.753482   8.266012   9.921781   7.912876  10.691533
    30  C    1.388824   2.774442   9.514051   8.348527   8.928391
    31  H    1.084794   3.385432   8.348239   6.841814   8.251212
    32  C    2.774430   1.388819   8.926672   8.248218   7.770528
    33  H    3.385417   1.084800   7.118603   6.637291   5.818196
    34  C    8.709358   7.659884   1.390070   3.389995   1.390095
    35  H    9.145591   8.633852   1.084348   2.465033   3.387137
    36  H    8.482109   6.903971   3.387136   4.943698   1.084363
    37  H    8.627445   9.741534   9.782095   7.897370  10.784839
    38  C    2.408878   2.408889   9.781478   8.882743   8.860440
    39  H    2.144453   3.858761  10.344405   9.066139   9.895553
    40  H    3.858751   2.144441   9.369482   8.905073   7.969536
    41  H    9.741711   8.628862   2.150513   4.285366   2.150453
    42  H    3.392063   3.392069  10.781315   9.931179   9.787018
                   26         27         28         29         30
    26  H    0.000000
    27  C    8.890932   0.000000
    28  H    8.429633   2.149185   0.000000
    29  H    9.524605   2.149210   4.286129   0.000000
    30  C    7.121630   8.859141  10.049159   7.771385   0.000000
    31  H    6.643746   6.967742   8.198627   5.941327   2.145313
    32  C    5.817122   9.782256  10.567997   9.117418   2.402462
    33  H    3.763276   8.883929   9.273869   8.690238   3.859075
    34  C    3.389959   9.853155   8.898729  10.894596   9.782234
    35  H    4.943333   9.139132   8.112311  10.290017  10.343562
    36  H    2.465578  10.693471   9.871637  11.581440   9.371467
    37  H    9.938842   1.084125   2.479166   2.479130   9.786003
    38  C    6.969712   9.853778  10.892850   8.901091   1.390081
    39  H    8.143918   9.146182  10.510872   7.838773   1.084353
    40  H    6.021000  10.688502  11.378102  10.094192   3.387152
    41  H    4.285396  10.805578   9.743268  11.914289  10.781792
    42  H    7.906179  10.806347  11.912878   9.745435   2.150451
                   31         32         33         34         35
    31  H    0.000000
    32  C    3.859055   0.000000
    33  H    4.283308   2.145356   0.000000
    34  C    8.883693   8.860047   6.969499   0.000000
    35  H    9.064207   9.893547   8.140394   2.149187   0.000000
    36  H    8.908597   7.970392   6.024369   2.149200   4.286112
    37  H    7.905042  10.781710   9.931688  10.805736  10.005350
    38  C    3.389900   1.390094   3.389946   9.854100  10.686951
    39  H    2.465597   3.387150   4.943418  10.688111  11.122726
    40  H    4.943399   1.084354   2.465647   9.147341  10.372571
    41  H    9.931470   9.787155   7.907066   1.084123   2.479233
    42  H    4.285343   2.150458   4.285392  10.806525  11.688828
                   36         37         38         39         40
    36  H    0.000000
    37  H   11.695074   0.000000
    38  C    9.148051  10.806125   0.000000
    39  H   10.374492  10.012226   2.149134   0.000000
    40  H    8.023201  11.689799   2.149152   4.286037   0.000000
    41  H    2.479104  11.730955  10.806626  11.689465  10.013697
    42  H   10.013557  11.731483   1.084114   2.479039   2.479054
                   41         42
    41  H    0.000000
    42  H   11.731844   0.000000
 Stoichiometry    C24H18
 Framework group  C1[X(C24H18)]
 Deg. of freedom   120
 Full point group                 C1      NOp   1
 Largest Abelian subgroup         C1      NOp   1
 Largest concise Abelian subgroup C1      NOp   1
                         Standard orientation:                         
 ---------------------------------------------------------------------
 Center     Atomic      Atomic             Coordinates (Angstroms)
 Number     Number       Type             X           Y           Z
 ---------------------------------------------------------------------
      1          6           0        0.046284    1.400681   -0.040750
      2          6           0       -1.176627    0.732024   -0.009462
      3          6           0        1.222911    0.652551   -0.032168
      4          6           0       -1.236542   -0.660272    0.030632
      5          1           0       -2.097736    1.305161   -0.016259
      6          6           0        0.094546    2.883390   -0.099846
      7          6           0        1.190600   -0.740873    0.008022
      8          1           0        2.178479    1.161455   -0.101926
      9          6           0       -0.045560   -1.385273    0.039410
     10          6           0       -2.546036   -1.358025    0.081600
     11          6           0       -1.010856    3.617871   -0.535523
     12          6           0        1.247632    3.574588    0.279468
     13          6           0        2.450930   -1.525230    0.017548
     14          1           0       -0.080680   -2.466857    0.116257
     15          6           0       -3.573050   -0.890969    0.905190
     16          6           0       -2.778237   -2.496123   -0.694314
     17          6           0       -0.965070    5.004965   -0.589262
     18          1           0       -1.906136    3.095572   -0.855507
     19          6           0        1.294447    4.961588    0.225876
     20          1           0        2.107720    3.019936    0.639274
     21          6           0        3.530178   -1.132756    0.812733
     22          6           0        2.583868   -2.672385   -0.768265
     23          6           0       -4.798221   -1.543501    0.951591
     24          1           0       -3.401795   -0.021515    1.530835
     25          6           0       -4.002986   -3.149437   -0.648432
     26          1           0       -1.998123   -2.859459   -1.354825
     27          6           0        0.187614    5.681983   -0.208099
     28          1           0       -1.830097    5.558177   -0.937833
     29          1           0        2.195604    5.481569    0.531439
     30          6           0        4.709473   -1.866245    0.822165
     31          1           0        3.435444   -0.256630    1.445352
     32          6           0        3.762481   -3.406966   -0.759356
     33          1           0        1.762897   -2.978455   -1.407888
     34          6           0       -5.017739   -2.675190    0.174811
     35          1           0       -5.581133   -1.171156    1.602913
     36          1           0       -4.167736   -4.027156   -1.263502
     37          1           0        0.223628    6.764690   -0.250225
     38          6           0        4.829817   -3.006359    0.036048
     39          1           0        5.534084   -1.550786    1.451707
     40          1           0        3.850268   -4.290559   -1.381756
     41          1           0       -5.973919   -3.184831    0.210998
     42          1           0        5.750089   -3.579380    0.043240
 ---------------------------------------------------------------------
 Rotational constants (GHZ):           0.1999456           0.1977255           0.1031008
 Leave Link  202 at Mon Nov 14 15:09:34 2022, MaxMem= 16106127360 cpu:               0.2 elap:               0.0
 (Enter /opt/ap/G16/B01/g16/l301.exe)
 Standard basis: 6-311++G(d,p) (5D, 7F)
 Ernie: Thresh=  0.10000D-02 Tol=  0.10000D-05 Strict=F.
 There are   678 symmetry adapted cartesian basis functions of A   symmetry.
 There are   654 symmetry adapted basis functions of A   symmetry.
   654 basis functions,  1026 primitive gaussians,   678 cartesian basis functions
    81 alpha electrons       81 beta electrons
       nuclear repulsion energy      1734.0460370306 Hartrees.
 IExCor= 4639 DFT=T Ex+Corr=wB97XD ExCW=0 ScaHFX=  1.000000
 ScaDFX=  1.000000  1.000000  1.000000  1.000000 ScalE2=  1.000000  1.000000
 IRadAn=      5 IRanWt=     -1 IRanGd=            0 ICorTp=0 IEmpDi=121
 HFx  wShort=  0.000000 wLong=  0.200000 cFull=  0.222036 cShort=  0.000000 cLong=  0.777964
 DFx  wShort=  0.000000 wLong=  0.200000 cFull=  0.000000 cShort=  0.000000 cLong=  1.000000
 NAtoms=   42 NActive=   42 NUniq=   42 SFac= 1.00D+00 NAtFMM=   60 NAOKFM=F Big=F
 Integral buffers will be    131072 words long.
 Raffenetti 2 integral format.
 Two-electron integral symmetry is turned on.
 R6Disp:  Grimme-D2 Dispersion energy=       -0.0288197119 Hartrees.
 Nuclear repulsion after empirical dispersion term =     1734.0172173187 Hartrees.
 Leave Link  301 at Mon Nov 14 15:09:34 2022, MaxMem= 16106127360 cpu:               2.3 elap:               0.1
 (Enter /opt/ap/G16/B01/g16/l302.exe)
 NPDir=0 NMtPBC=     1 NCelOv=     1 NCel=       1 NClECP=     1 NCelD=      1
         NCelK=      1 NCelE2=     1 NClLst=     1 CellRange=     0.0.
 One-electron integrals computed using PRISM.
 One-electron integral symmetry used in STVInt
 NBasis=   654 RedAO= T EigKep=  1.12D-06  NBF=   654
 NBsUse=   645 1.00D-06 EigRej=  6.80D-07 NBFU=   645
 Precomputing XC quadrature grid using
 IXCGrd= 4 IRadAn=           5 IRanWt=          -1 IRanGd=           0 AccXCQ= 0.00D+00.
 Generated NRdTot=       0 NPtTot=           0 NUsed=           0 NTot=          32
 NSgBfM=   669   669   669   669   669 MxSgAt=    42 MxSgA2=    42.
 Leave Link  302 at Mon Nov 14 15:09:35 2022, MaxMem= 16106127360 cpu:              21.0 elap:               0.7
 (Enter /opt/ap/G16/B01/g16/l303.exe)
 DipDrv:  MaxL=1.
 Leave Link  303 at Mon Nov 14 15:09:35 2022, MaxMem= 16106127360 cpu:               2.9 elap:               0.1
 (Enter /opt/ap/G16/B01/g16/l401.exe)
 ExpMin= 3.60D-02 ExpMax= 4.56D+03 ExpMxC= 6.82D+02 IAcc=3 IRadAn=         5 AccDes= 0.00D+00
 Harris functional with IExCor= 4639 and IRadAn=       5 diagonalized for initial guess.
 HarFok:  IExCor= 4639 AccDes= 0.00D+00 IRadAn=         5 IDoV= 1 UseB2=F ITyADJ=14
 ICtDFT=  3500011 ScaDFX=  1.000000  1.000000  1.000000  1.000000
 FoFCou: FMM=F IPFlag=           0 FMFlag=      100000 FMFlg1=           0
         NFxFlg=           0 DoJE=T BraDBF=F KetDBF=T FulRan=T
         wScrn=  0.000000 ICntrl=       500 IOpCl=  0 I1Cent=   200000004 NGrid=           0
         NMat0=    1 NMatS0=      1 NMatT0=    0 NMatD0=    1 NMtDS0=    0 NMtDT0=    0
 Petite list used in FoFCou.
 Harris En= -882.966193353589    
 JPrj=0 DoOrth=F DoCkMO=F.
 Leave Link  401 at Mon Nov 14 15:09:36 2022, MaxMem= 16106127360 cpu:              56.0 elap:               1.8
 (Enter /opt/ap/G16/B01/g16/l502.exe)
 Integral symmetry usage will be decided dynamically.
 Closed shell SCF:
 Using DIIS extrapolation, IDIIS=  1040.
 NGot= 16106127360 LenX= 16105179956 LenY= 16104719594
 Requested convergence on RMS density matrix=1.00D-08 within 512 cycles.
 Requested convergence on MAX density matrix=1.00D-06.
 Requested convergence on             energy=1.00D-06.
 No special actions if energy rises.
 Fock matrices will be formed incrementally for  20 cycles.

 Cycle   1  Pass 1  IDiag  1:
 FoFJK:  IHMeth= 1 ICntrl=       0 DoSepK=T KAlg= 0 I1Cent=           0 FoldK=F
 IRaf=         1 NMat=       1 IRICut=       1 DoRegI=T DoRafI=F ISym2E= 0 IDoP0=0 IntGTp=1.
 FoFCou: FMM=F IPFlag=           0 FMFlag=      100000 FMFlg1=           0
         NFxFlg=           0 DoJE=T BraDBF=F KetDBF=F FulRan=T
         wScrn=  0.000000 ICntrl=       500 IOpCl=  0 I1Cent=           0 NGrid=           0
         NMat0=    1 NMatS0=      1 NMatT0=    0 NMatD0=    1 NMtDS0=    0 NMtDT0=    0
 Symmetry not used in FoFCou.
 E= -925.113595207501    
 DIIS: error= 5.33D-02 at cycle   1 NSaved=   1.
 NSaved= 1 IEnMin= 1 EnMin= -925.113595207501     IErMin= 1 ErrMin= 5.33D-02
 ErrMax= 5.33D-02  0.00D+00 EMaxC= 1.00D-01 BMatC= 1.90D+00 BMatP= 1.90D+00
 IDIUse=3 WtCom= 4.67D-01 WtEn= 5.33D-01
 Coeff-Com:  0.100D+01
 Coeff-En:   0.100D+01
 Coeff:      0.100D+01
 Gap=     0.307 Goal=   None    Shift=    0.000
 GapD=    0.307 DampG=1.000 DampE=0.500 DampFc=0.5000 IDamp=-1.
 Damping current iteration by 5.00D-01
 RMSDP=4.06D-02 MaxDP=5.18D+00              OVMax= 4.42D-02

 Cycle   2  Pass 1  IDiag  1:
 RMSU=  6.88D-03    CP:  8.09D-01
 E= -925.212424343597     Delta-E=       -0.098829136096 Rises=F Damp=T
 DIIS: error= 2.59D-02 at cycle   2 NSaved=   2.
 NSaved= 2 IEnMin= 2 EnMin= -925.212424343597     IErMin= 2 ErrMin= 2.59D-02
 ErrMax= 2.59D-02  0.00D+00 EMaxC= 1.00D-01 BMatC= 4.32D-01 BMatP= 1.90D+00
 IDIUse=3 WtCom= 7.41D-01 WtEn= 2.59D-01
 Coeff-Com: -0.883D+00 0.188D+01
 Coeff-En:   0.000D+00 0.100D+01
 Coeff:     -0.654D+00 0.165D+01
 Gap=     0.315 Goal=   None    Shift=    0.000
 RMSDP=2.44D-02 MaxDP=2.48D+00 DE=-9.88D-02 OVMax= 3.32D-02

 Cycle   3  Pass 1  IDiag  1:
 RMSU=  4.35D-03    CP:  5.71D-01  1.40D+00
 E= -925.301744055790     Delta-E=       -0.089319712193 Rises=F Damp=F
 DIIS: error= 2.75D-03 at cycle   3 NSaved=   3.
 NSaved= 3 IEnMin= 3 EnMin= -925.301744055790     IErMin= 3 ErrMin= 2.75D-03
 ErrMax= 2.75D-03  0.00D+00 EMaxC= 1.00D-01 BMatC= 7.97D-03 BMatP= 4.32D-01
 IDIUse=3 WtCom= 9.73D-01 WtEn= 2.75D-02
 Coeff-Com: -0.359D+00 0.763D+00 0.596D+00
 Coeff-En:   0.000D+00 0.000D+00 0.100D+01
 Coeff:     -0.349D+00 0.742D+00 0.607D+00
 Gap=     0.314 Goal=   None    Shift=    0.000
 RMSDP=2.30D-03 MaxDP=2.45D-01 DE=-8.93D-02 OVMax= 1.88D-02

 Cycle   4  Pass 1  IDiag  1:
 RMSU=  1.77D-03    CP:  5.70D-01  1.53D+00  7.44D-01
 E= -925.309019589214     Delta-E=       -0.007275533424 Rises=F Damp=F
 DIIS: error= 7.04D-04 at cycle   4 NSaved=   4.
 NSaved= 4 IEnMin= 4 EnMin= -925.309019589214     IErMin= 4 ErrMin= 7.04D-04
 ErrMax= 7.04D-04  0.00D+00 EMaxC= 1.00D-01 BMatC= 2.67D-04 BMatP= 7.97D-03
 IDIUse=3 WtCom= 9.93D-01 WtEn= 7.04D-03
 Coeff-Com: -0.110D+00 0.234D+00 0.238D+00 0.637D+00
 Coeff-En:   0.000D+00 0.000D+00 0.000D+00 0.100D+01
 Coeff:     -0.109D+00 0.232D+00 0.237D+00 0.640D+00
 Gap=     0.312 Goal=   None    Shift=    0.000
 RMSDP=7.61D-04 MaxDP=6.71D-02 DE=-7.28D-03 OVMax= 4.20D-03

 Cycle   5  Pass 1  IDiag  1:
 RMSU=  3.70D-04    CP:  5.65D-01  1.58D+00  7.36D-01  7.98D-01
 E= -925.309301968837     Delta-E=       -0.000282379623 Rises=F Damp=F
 DIIS: error= 2.17D-04 at cycle   5 NSaved=   5.
 NSaved= 5 IEnMin= 5 EnMin= -925.309301968837     IErMin= 5 ErrMin= 2.17D-04
 ErrMax= 2.17D-04  0.00D+00 EMaxC= 1.00D-01 BMatC= 2.03D-05 BMatP= 2.67D-04
 IDIUse=3 WtCom= 9.98D-01 WtEn= 2.17D-03
 Coeff-Com:  0.260D-01-0.554D-01-0.282D-01 0.194D+00 0.864D+00
 Coeff-En:   0.000D+00 0.000D+00 0.000D+00 0.000D+00 0.100D+01
 Coeff:      0.259D-01-0.553D-01-0.281D-01 0.194D+00 0.864D+00
 Gap=     0.313 Goal=   None    Shift=    0.000
 RMSDP=2.20D-04 MaxDP=1.24D-02 DE=-2.82D-04 OVMax= 1.59D-03

 Cycle   6  Pass 1  IDiag  1:
 RMSU=  7.72D-05    CP:  5.64D-01  1.58D+00  7.54D-01  8.75D-01  1.19D+00
 E= -925.309328402420     Delta-E=       -0.000026433583 Rises=F Damp=F
 DIIS: error= 5.53D-05 at cycle   6 NSaved=   6.
 NSaved= 6 IEnMin= 6 EnMin= -925.309328402420     IErMin= 6 ErrMin= 5.53D-05
 ErrMax= 5.53D-05  0.00D+00 EMaxC= 1.00D-01 BMatC= 1.39D-06 BMatP= 2.03D-05
 IDIUse=1 WtCom= 1.00D+00 WtEn= 0.00D+00
 Coeff-Com:  0.131D-01-0.279D-01-0.174D-01 0.535D-01 0.331D+00 0.648D+00
 Coeff:      0.131D-01-0.279D-01-0.174D-01 0.535D-01 0.331D+00 0.648D+00
 Gap=     0.313 Goal=   None    Shift=    0.000
 RMSDP=8.03D-05 MaxDP=9.08D-03 DE=-2.64D-05 OVMax= 3.93D-04

 Cycle   7  Pass 1  IDiag  1:
 RMSU=  4.33D-05    CP:  5.65D-01  1.58D+00  7.57D-01  9.07D-01  1.15D+00
                    CP:  9.91D-01
 E= -925.309330111698     Delta-E=       -0.000001709278 Rises=F Damp=F
 DIIS: error= 1.41D-05 at cycle   7 NSaved=   7.
 NSaved= 7 IEnMin= 7 EnMin= -925.309330111698     IErMin= 7 ErrMin= 1.41D-05
 ErrMax= 1.41D-05  0.00D+00 EMaxC= 1.00D-01 BMatC= 1.05D-07 BMatP= 1.39D-06
 IDIUse=1 WtCom= 1.00D+00 WtEn= 0.00D+00
 Coeff-Com: -0.238D-02 0.511D-02 0.236D-02-0.282D-01-0.103D+00 0.106D+00
 Coeff-Com:  0.102D+01
 Coeff:     -0.238D-02 0.511D-02 0.236D-02-0.282D-01-0.103D+00 0.106D+00
 Coeff:      0.102D+01
 Gap=     0.313 Goal=   None    Shift=    0.000
 RMSDP=2.00D-05 MaxDP=1.47D-03 DE=-1.71D-06 OVMax= 2.72D-04

 Cycle   8  Pass 1  IDiag  1:
 RMSU=  6.14D-06    CP:  5.65D-01  1.58D+00  7.58D-01  9.08D-01  1.18D+00
                    CP:  1.12D+00  1.17D+00
 E= -925.309330353031     Delta-E=       -0.000000241333 Rises=F Damp=F
 DIIS: error= 5.43D-06 at cycle   8 NSaved=   8.
 NSaved= 8 IEnMin= 8 EnMin= -925.309330353031     IErMin= 8 ErrMin= 5.43D-06
 ErrMax= 5.43D-06  0.00D+00 EMaxC= 1.00D-01 BMatC= 6.71D-09 BMatP= 1.05D-07
 IDIUse=1 WtCom= 1.00D+00 WtEn= 0.00D+00
 Coeff-Com: -0.112D-02 0.239D-02 0.130D-02-0.104D-01-0.401D-01 0.167D-01
 Coeff-Com:  0.275D+00 0.756D+00
 Coeff:     -0.112D-02 0.239D-02 0.130D-02-0.104D-01-0.401D-01 0.167D-01
 Coeff:      0.275D+00 0.756D+00
 Gap=     0.313 Goal=   None    Shift=    0.000
 RMSDP=3.35D-06 MaxDP=2.50D-04 DE=-2.41D-07 OVMax= 5.88D-05

 Cycle   9  Pass 1  IDiag  1:
 RMSU=  2.62D-06    CP:  5.65D-01  1.58D+00  7.58D-01  9.08D-01  1.18D+00
                    CP:  1.13D+00  1.21D+00  1.06D+00
 E= -925.309330363452     Delta-E=       -0.000000010421 Rises=F Damp=F
 DIIS: error= 2.95D-06 at cycle   9 NSaved=   9.
 NSaved= 9 IEnMin= 9 EnMin= -925.309330363452     IErMin= 9 ErrMin= 2.95D-06
 ErrMax= 2.95D-06  0.00D+00 EMaxC= 1.00D-01 BMatC= 2.10D-09 BMatP= 6.71D-09
 IDIUse=1 WtCom= 1.00D+00 WtEn= 0.00D+00
 Coeff-Com:  0.106D-03-0.232D-03 0.315D-04 0.267D-02 0.963D-02-0.171D-01
 Coeff-Com: -0.158D+00 0.351D+00 0.812D+00
 Coeff:      0.106D-03-0.232D-03 0.315D-04 0.267D-02 0.963D-02-0.171D-01
 Coeff:     -0.158D+00 0.351D+00 0.812D+00
 Gap=     0.313 Goal=   None    Shift=    0.000
 RMSDP=2.12D-06 MaxDP=1.91D-04 DE=-1.04D-08 OVMax= 4.16D-05

 Cycle  10  Pass 1  IDiag  1:
 RMSU=  7.01D-07    CP:  5.65D-01  1.58D+00  7.58D-01  9.08D-01  1.18D+00
                    CP:  1.14D+00  1.23D+00  1.29D+00  7.02D-01
 E= -925.309330367299     Delta-E=       -0.000000003847 Rises=F Damp=F
 DIIS: error= 9.54D-07 at cycle  10 NSaved=  10.
 NSaved=10 IEnMin=10 EnMin= -925.309330367299     IErMin=10 ErrMin= 9.54D-07
 ErrMax= 9.54D-07  0.00D+00 EMaxC= 1.00D-01 BMatC= 2.17D-10 BMatP= 2.10D-09
 IDIUse=1 WtCom= 1.00D+00 WtEn= 0.00D+00
 Coeff-Com:  0.118D-03-0.254D-03-0.683D-04 0.173D-02 0.623D-02-0.616D-02
 Coeff-Com: -0.762D-01 0.522D-01 0.323D+00 0.699D+00
 Coeff:      0.118D-03-0.254D-03-0.683D-04 0.173D-02 0.623D-02-0.616D-02
 Coeff:     -0.762D-01 0.522D-01 0.323D+00 0.699D+00
 Gap=     0.313 Goal=   None    Shift=    0.000
 RMSDP=4.83D-07 MaxDP=4.31D-05 DE=-3.85D-09 OVMax= 1.05D-05

 Cycle  11  Pass 1  IDiag  1:
 RMSU=  1.42D-07    CP:  5.65D-01  1.58D+00  7.58D-01  9.08D-01  1.18D+00
                    CP:  1.14D+00  1.23D+00  1.29D+00  8.36D-01  1.06D+00
 E= -925.309330367626     Delta-E=       -0.000000000327 Rises=F Damp=F
 DIIS: error= 2.05D-07 at cycle  11 NSaved=  11.
 NSaved=11 IEnMin=11 EnMin= -925.309330367626     IErMin=11 ErrMin= 2.05D-07
 ErrMax= 2.05D-07  0.00D+00 EMaxC= 1.00D-01 BMatC= 3.05D-11 BMatP= 2.17D-10
 IDIUse=1 WtCom= 1.00D+00 WtEn= 0.00D+00
 Coeff-Com:  0.215D-04-0.456D-04-0.205D-04 0.132D-03 0.305D-03 0.112D-02
 Coeff-Com:  0.820D-03-0.529D-01-0.208D-01 0.249D+00 0.823D+00
 Coeff:      0.215D-04-0.456D-04-0.205D-04 0.132D-03 0.305D-03 0.112D-02
 Coeff:      0.820D-03-0.529D-01-0.208D-01 0.249D+00 0.823D+00
 Gap=     0.313 Goal=   None    Shift=    0.000
 RMSDP=2.38D-07 MaxDP=2.13D-05 DE=-3.27D-10 OVMax= 3.27D-06

 Cycle  12  Pass 1  IDiag  1:
 RMSU=  6.24D-08    CP:  5.65D-01  1.58D+00  7.58D-01  9.09D-01  1.18D+00
                    CP:  1.14D+00  1.23D+00  1.31D+00  8.22D-01  1.23D+00
                    CP:  1.22D+00
 E= -925.309330367655     Delta-E=       -0.000000000030 Rises=F Damp=F
 DIIS: error= 8.70D-08 at cycle  12 NSaved=  12.
 NSaved=12 IEnMin=12 EnMin= -925.309330367655     IErMin=12 ErrMin= 8.70D-08
 ErrMax= 8.70D-08  0.00D+00 EMaxC= 1.00D-01 BMatC= 1.37D-12 BMatP= 3.05D-11
 IDIUse=1 WtCom= 1.00D+00 WtEn= 0.00D+00
 Coeff-Com: -0.141D-04 0.305D-04 0.123D-04-0.219D-03-0.807D-03 0.978D-03
 Coeff-Com:  0.942D-02-0.869D-02-0.300D-01-0.637D-01-0.104D+00 0.120D+01
 Coeff:     -0.141D-04 0.305D-04 0.123D-04-0.219D-03-0.807D-03 0.978D-03
 Coeff:      0.942D-02-0.869D-02-0.300D-01-0.637D-01-0.104D+00 0.120D+01
 Gap=     0.313 Goal=   None    Shift=    0.000
 RMSDP=8.18D-08 MaxDP=5.55D-06 DE=-2.96D-11 OVMax= 1.55D-06

 Cycle  13  Pass 1  IDiag  1:
 RMSU=  2.87D-08    CP:  5.65D-01  1.58D+00  7.58D-01  9.09D-01  1.18D+00
                    CP:  1.14D+00  1.23D+00  1.31D+00  8.18D-01  1.29D+00
                    CP:  1.32D+00  1.44D+00
 E= -925.309330367644     Delta-E=        0.000000000011 Rises=F Damp=F
 DIIS: error= 2.46D-08 at cycle  13 NSaved=  13.
 NSaved=13 IEnMin=12 EnMin= -925.309330367655     IErMin=13 ErrMin= 2.46D-08
 ErrMax= 2.46D-08  0.00D+00 EMaxC= 1.00D-01 BMatC= 1.07D-13 BMatP= 1.37D-12
 IDIUse=1 WtCom= 1.00D+00 WtEn= 0.00D+00
 Coeff-Com: -0.250D-05 0.535D-05 0.275D-05-0.284D-04-0.922D-04 0.526D-04
 Coeff-Com:  0.810D-03 0.161D-02-0.670D-03-0.170D-01-0.751D-01 0.129D+00
 Coeff-Com:  0.961D+00
 Coeff:     -0.250D-05 0.535D-05 0.275D-05-0.284D-04-0.922D-04 0.526D-04
 Coeff:      0.810D-03 0.161D-02-0.670D-03-0.170D-01-0.751D-01 0.129D+00
 Coeff:      0.961D+00
 Gap=     0.313 Goal=   None    Shift=    0.000
 RMSDP=2.65D-08 MaxDP=2.69D-06 DE= 1.09D-11 OVMax= 3.86D-07

 Cycle  14  Pass 1  IDiag  1:
 RMSU=  6.36D-09    CP:  5.65D-01  1.58D+00  7.58D-01  9.09D-01  1.18D+00
                    CP:  1.14D+00  1.23D+00  1.31D+00  8.17D-01  1.30D+00
                    CP:  1.33D+00  1.57D+00  1.28D+00
 E= -925.309330367667     Delta-E=       -0.000000000023 Rises=F Damp=F
 DIIS: error= 6.38D-09 at cycle  14 NSaved=  14.
 NSaved=14 IEnMin=14 EnMin= -925.309330367667     IErMin=14 ErrMin= 6.38D-09
 ErrMax= 6.38D-09  0.00D+00 EMaxC= 1.00D-01 BMatC= 3.38D-14 BMatP= 1.07D-13
 IDIUse=1 WtCom= 1.00D+00 WtEn= 0.00D+00
 Coeff-Com:  0.711D-06-0.158D-05-0.413D-06 0.160D-04 0.653D-04-0.104D-03
 Coeff-Com: -0.874D-03 0.179D-02 0.379D-02 0.142D-02-0.218D-01-0.104D+00
 Coeff-Com:  0.431D+00 0.689D+00
 Coeff:      0.711D-06-0.158D-05-0.413D-06 0.160D-04 0.653D-04-0.104D-03
 Coeff:     -0.874D-03 0.179D-02 0.379D-02 0.142D-02-0.218D-01-0.104D+00
 Coeff:      0.431D+00 0.689D+00
 Gap=     0.313 Goal=   None    Shift=    0.000
 RMSDP=8.27D-09 MaxDP=1.05D-06 DE=-2.32D-11 OVMax= 9.07D-08

 Cycle  15  Pass 1  IDiag  1:
 RMSU=  2.81D-09    CP:  5.65D-01  1.58D+00  7.58D-01  9.09D-01  1.18D+00
                    CP:  1.14D+00  1.23D+00  1.31D+00  8.16D-01  1.30D+00
                    CP:  1.32D+00  1.61D+00  1.39D+00  1.10D+00
 E= -925.309330367685     Delta-E=       -0.000000000017 Rises=F Damp=F
 DIIS: error= 2.54D-09 at cycle  15 NSaved=  15.
 NSaved=15 IEnMin=15 EnMin= -925.309330367685     IErMin=15 ErrMin= 2.54D-09
 ErrMax= 2.54D-09  0.00D+00 EMaxC= 1.00D-01 BMatC= 1.70D-15 BMatP= 3.38D-14
 IDIUse=1 WtCom= 1.00D+00 WtEn= 0.00D+00
 Coeff-Com:  0.460D-06-0.997D-06-0.475D-06 0.725D-05 0.272D-04-0.348D-04
 Coeff-Com: -0.312D-03 0.265D-03 0.107D-02 0.250D-02 0.294D-02-0.417D-01
 Coeff-Com:  0.179D-01 0.102D+00 0.916D+00
 Coeff:      0.460D-06-0.997D-06-0.475D-06 0.725D-05 0.272D-04-0.348D-04
 Coeff:     -0.312D-03 0.265D-03 0.107D-02 0.250D-02 0.294D-02-0.417D-01
 Coeff:      0.179D-01 0.102D+00 0.916D+00
 Gap=     0.313 Goal=   None    Shift=    0.000
 RMSDP=4.30D-09 MaxDP=4.65D-07 DE=-1.73D-11 OVMax= 3.75D-08

 SCF Done:  E(RwB97XD) =  -925.309330368     A.U. after   15 cycles
            NFock= 15  Conv=0.43D-08     -V/T= 2.0043
 KE= 9.213101251180D+02 PE=-5.614389264234D+03 EE= 2.033752591429D+03
 Leave Link  502 at Mon Nov 14 15:12:10 2022, MaxMem= 16106127360 cpu:            4888.2 elap:             153.5
 (Enter /opt/ap/G16/B01/g16/l601.exe)
 Copying SCF densities to generalized density rwf, IOpCl= 0 IROHF=0.

 **********************************************************************

            Population analysis using the SCF Density.

 **********************************************************************

 Orbital symmetries:
       Occupied  (A) (A) (A) (A) (A) (A) (A) (A) (A) (A) (A) (A)
                 (A) (A) (A) (A) (A) (A) (A) (A) (A) (A) (A) (A)
                 (A) (A) (A) (A) (A) (A) (A) (A) (A) (A) (A) (A)
                 (A) (A) (A) (A) (A) (A) (A) (A) (A) (A) (A) (A)
                 (A) (A) (A) (A) (A) (A) (A) (A) (A) (A) (A) (A)
                 (A) (A) (A) (A) (A) (A) (A) (A) (A) (A) (A) (A)
                 (A) (A) (A) (A) (A) (A) (A) (A) (A)
       Virtual   (A) (A) (A) (A) (A) (A) (A) (A) (A) (A) (A) (A)
                 (A) (A) (A) (A) (A) (A) (A) (A) (A) (A) (A) (A)
                 (A) (A) (A) (A) (A) (A) (A) (A) (A) (A) (A) (A)
                 (A) (A) (A) (A) (A) (A) (A) (A) (A) (A) (A) (A)
                 (A) (A) (A) (A) (A) (A) (A) (A) (A) (A) (A) (A)
                 (A) (A) (A) (A) (A) (A) (A) (A) (A) (A) (A) (A)
                 (A) (A) (A) (A) (A) (A) (A) (A) (A) (A) (A) (A)
                 (A) (A) (A) (A) (A) (A) (A) (A) (A) (A) (A) (A)
                 (A) (A) (A) (A) (A) (A) (A) (A) (A) (A) (A) (A)
                 (A) (A) (A) (A) (A) (A) (A) (A) (A) (A) (A) (A)
                 (A) (A) (A) (A) (A) (A) (A) (A) (A) (A) (A) (A)
                 (A) (A) (A) (A) (A) (A) (A) (A) (A) (A) (A) (A)
                 (A) (A) (A) (A) (A) (A) (A) (A) (A) (A) (A) (A)
                 (A) (A) (A) (A) (A) (A) (A) (A) (A) (A) (A) (A)
                 (A) (A) (A) (A) (A) (A) (A) (A) (A) (A) (A) (A)
                 (A) (A) (A) (A) (A) (A) (A) (A) (A) (A) (A) (A)
                 (A) (A) (A) (A) (A) (A) (A) (A) (A) (A) (A) (A)
                 (A) (A) (A) (A) (A) (A) (A) (A) (A) (A) (A) (A)
                 (A) (A) (A) (A) (A) (A) (A) (A) (A) (A) (A) (A)
                 (A) (A) (A) (A) (A) (A) (A) (A) (A) (A) (A) (A)
                 (A) (A) (A) (A) (A) (A) (A) (A) (A) (A) (A) (A)
                 (A) (A) (A) (A) (A) (A) (A) (A) (A) (A) (A) (A)
                 (A) (A) (A) (A) (A) (A) (A) (A) (A) (A) (A) (A)
                 (A) (A) (A) (A) (A) (A) (A) (A) (A) (A) (A) (A)
                 (A) (A) (A) (A) (A) (A) (A) (A) (A) (A) (A) (A)
                 (A) (A) (A) (A) (A) (A) (A) (A) (A) (A) (A) (A)
                 (A) (A) (A) (A) (A) (A) (A) (A) (A) (A) (A) (A)
                 (A) (A) (A) (A) (A) (A) (A) (A) (A) (A) (A) (A)
                 (A) (A) (A) (A) (A) (A) (A) (A) (A) (A) (A) (A)
                 (A) (A) (A) (A) (A) (A) (A) (A) (A) (A) (A) (A)
                 (A) (A) (A) (A) (A) (A) (A) (A) (A) (A) (A) (A)
                 (A) (A) (A) (A) (A) (A) (A) (A) (A) (A) (A) (A)
                 (A) (A) (A) (A) (A) (A) (A) (A) (A) (A) (A) (A)
                 (A) (A) (A) (A) (A) (A) (A) (A) (A) (A) (A) (A)
                 (A) (A) (A) (A) (A) (A) (A) (A) (A) (A) (A) (A)
                 (A) (A) (A) (A) (A) (A) (A) (A) (A) (A) (A) (A)
                 (A) (A) (A) (A) (A) (A) (A) (A) (A) (A) (A) (A)
                 (A) (A) (A) (A) (A) (A) (A) (A) (A) (A) (A) (A)
                 (A) (A) (A) (A) (A) (A) (A) (A) (A) (A) (A) (A)
                 (A) (A) (A) (A) (A) (A) (A) (A) (A) (A) (A) (A)
                 (A) (A) (A) (A) (A) (A) (A) (A) (A) (A) (A) (A)
                 (A) (A) (A) (A) (A) (A) (A) (A) (A) (A) (A) (A)
                 (A) (A) (A) (A) (A) (A) (A) (A) (A) (A) (A) (A)
                 (A) (A) (A) (A) (A) (A) (A) (A) (A) (A) (A) (A)
                 (A) (A) (A) (A) (A) (A) (A) (A) (A) (A) (A) (A)
                 (A) (A) (A) (A) (A) (A) (A) (A) (A) (A) (A) (A)
                 (A) (A) (A) (A) (A) (A) (A) (A) (A) (A) (A) (A)
 The electronic state is 1-A.
 Alpha  occ. eigenvalues --  -10.30509 -10.30485 -10.30481 -10.30411 -10.30373
 Alpha  occ. eigenvalues --  -10.30368 -10.29303 -10.29301 -10.29291 -10.29289
 Alpha  occ. eigenvalues --  -10.29287 -10.29272 -10.29221 -10.29213 -10.29208
 Alpha  occ. eigenvalues --  -10.29198 -10.29185 -10.29179 -10.29154 -10.29139
 Alpha  occ. eigenvalues --  -10.29129 -10.29098 -10.29096 -10.29087  -0.99058
 Alpha  occ. eigenvalues --   -0.97117  -0.97100  -0.95302  -0.89508  -0.89489
 Alpha  occ. eigenvalues --   -0.85453  -0.85379  -0.85317  -0.85095  -0.82303
 Alpha  occ. eigenvalues --   -0.82250  -0.73879  -0.73629  -0.71184  -0.70864
 Alpha  occ. eigenvalues --   -0.70175  -0.70003  -0.66725  -0.66607  -0.63814
 Alpha  occ. eigenvalues --   -0.60915  -0.60747  -0.58628  -0.57454  -0.56900
 Alpha  occ. eigenvalues --   -0.54938  -0.54865  -0.54320  -0.54047  -0.52287
 Alpha  occ. eigenvalues --   -0.51916  -0.51759  -0.51577  -0.51188  -0.51005
 Alpha  occ. eigenvalues --   -0.50540  -0.48422  -0.46917  -0.46424  -0.46078
 Alpha  occ. eigenvalues --   -0.45610  -0.44885  -0.44411  -0.43207  -0.43172
 Alpha  occ. eigenvalues --   -0.42980  -0.41853  -0.41369  -0.37451  -0.36559
 Alpha  occ. eigenvalues --   -0.33690  -0.33677  -0.33662  -0.32978  -0.30313
 Alpha  occ. eigenvalues --   -0.29817
 Alpha virt. eigenvalues --    0.01464   0.02008   0.03680   0.04172   0.04226
 Alpha virt. eigenvalues --    0.04524   0.04858   0.04947   0.05045   0.05138
 Alpha virt. eigenvalues --    0.05217   0.05692   0.05940   0.06819   0.07076
 Alpha virt. eigenvalues --    0.07175   0.08042   0.08142   0.08431   0.08834
 Alpha virt. eigenvalues --    0.09015   0.09209   0.09515   0.10644   0.11067
 Alpha virt. eigenvalues --    0.11420   0.12083   0.12401   0.13026   0.13476
 Alpha virt. eigenvalues --    0.13652   0.13944   0.14346   0.14573   0.15466
 Alpha virt. eigenvalues --    0.15733   0.15821   0.15859   0.16210   0.16331
 Alpha virt. eigenvalues --    0.16432   0.16482   0.16978   0.17104   0.17288
 Alpha virt. eigenvalues --    0.17456   0.17702   0.17992   0.18134   0.18417
 Alpha virt. eigenvalues --    0.18431   0.18589   0.18758   0.19182   0.19206
 Alpha virt. eigenvalues --    0.19515   0.19607   0.20023   0.20275   0.20586
 Alpha virt. eigenvalues --    0.20824   0.21118   0.21260   0.21871   0.21997
 Alpha virt. eigenvalues --    0.22162   0.22481   0.22699   0.23126   0.23310
 Alpha virt. eigenvalues --    0.23469   0.23685   0.23754   0.24030   0.24449
 Alpha virt. eigenvalues --    0.24765   0.25142   0.25397   0.25440   0.25516
 Alpha virt. eigenvalues --    0.26088   0.26229   0.26811   0.26985   0.27213
 Alpha virt. eigenvalues --    0.27477   0.27645   0.27840   0.28336   0.28608
 Alpha virt. eigenvalues --    0.28687   0.29146   0.29212   0.29333   0.29602
 Alpha virt. eigenvalues --    0.29694   0.30237   0.30594   0.30735   0.31034
 Alpha virt. eigenvalues --    0.31545   0.32027   0.32380   0.32680   0.33325
 Alpha virt. eigenvalues --    0.33385   0.33538   0.33619   0.34343   0.34586
 Alpha virt. eigenvalues --    0.34875   0.34939   0.35342   0.35429   0.35539
 Alpha virt. eigenvalues --    0.35768   0.36046   0.36528   0.36659   0.37052
 Alpha virt. eigenvalues --    0.37172   0.37674   0.38116   0.38174   0.38322
 Alpha virt. eigenvalues --    0.38750   0.39049   0.39503   0.39683   0.40341
 Alpha virt. eigenvalues --    0.40607   0.40937   0.41028   0.41435   0.41774
 Alpha virt. eigenvalues --    0.42118   0.42498   0.42804   0.43061   0.43702
 Alpha virt. eigenvalues --    0.44016   0.44638   0.44868   0.45074   0.45162
 Alpha virt. eigenvalues --    0.45493   0.46855   0.47843   0.48015   0.48278
 Alpha virt. eigenvalues --    0.49274   0.50366   0.53372   0.54350   0.57368
 Alpha virt. eigenvalues --    0.58473   0.58880   0.59189   0.59284   0.61072
 Alpha virt. eigenvalues --    0.61696   0.62273   0.62606   0.62895   0.63134
 Alpha virt. eigenvalues --    0.63194   0.63361   0.63676   0.63764   0.64208
 Alpha virt. eigenvalues --    0.64436   0.64986   0.65121   0.65544   0.65645
 Alpha virt. eigenvalues --    0.65948   0.66344   0.67186   0.67387   0.68424
 Alpha virt. eigenvalues --    0.68730   0.69145   0.69925   0.70101   0.70450
 Alpha virt. eigenvalues --    0.70767   0.71419   0.71824   0.72035   0.72785
 Alpha virt. eigenvalues --    0.73004   0.73212   0.74137   0.74233   0.74982
 Alpha virt. eigenvalues --    0.75391   0.75906   0.76484   0.77036   0.77885
 Alpha virt. eigenvalues --    0.78280   0.78916   0.79165   0.79719   0.79730
 Alpha virt. eigenvalues --    0.80515   0.80638   0.81314   0.81518   0.81982
 Alpha virt. eigenvalues --    0.82342   0.82425   0.83286   0.83532   0.84111
 Alpha virt. eigenvalues --    0.84567   0.84904   0.85277   0.85662   0.86110
 Alpha virt. eigenvalues --    0.86803   0.87210   0.87614   0.88573   0.88852
 Alpha virt. eigenvalues --    0.90481   0.90641   0.91280   0.92409   0.92498
 Alpha virt. eigenvalues --    0.92761   0.93105   0.93439   0.93805   0.94002
 Alpha virt. eigenvalues --    0.94213   0.94348   0.94958   0.95654   0.96711
 Alpha virt. eigenvalues --    0.97091   0.98160   0.98431   0.99291   0.99692
 Alpha virt. eigenvalues --    1.00303   1.00519   1.01000   1.01584   1.02038
 Alpha virt. eigenvalues --    1.02255   1.02826   1.03660   1.04703   1.04909
 Alpha virt. eigenvalues --    1.05937   1.06193   1.06736   1.06974   1.07341
 Alpha virt. eigenvalues --    1.07840   1.08211   1.08971   1.09263   1.11660
 Alpha virt. eigenvalues --    1.11899   1.12737   1.13263   1.13574   1.14059
 Alpha virt. eigenvalues --    1.14531   1.14863   1.16583   1.17182   1.17313
 Alpha virt. eigenvalues --    1.17863   1.18897   1.19114   1.19314   1.21196
 Alpha virt. eigenvalues --    1.21285   1.22268   1.22672   1.23696   1.23996
 Alpha virt. eigenvalues --    1.24750   1.25307   1.26274   1.28494   1.29358
 Alpha virt. eigenvalues --    1.34777   1.39263   1.40899   1.41432   1.42139
 Alpha virt. eigenvalues --    1.45251   1.46622   1.47324   1.52788   1.55678
 Alpha virt. eigenvalues --    1.56711   1.58053   1.58259   1.58545   1.58909
 Alpha virt. eigenvalues --    1.59069   1.59628   1.60300   1.60924   1.61301
 Alpha virt. eigenvalues --    1.61838   1.62297   1.62885   1.63576   1.63627
 Alpha virt. eigenvalues --    1.64535   1.65520   1.65664   1.65818   1.66280
 Alpha virt. eigenvalues --    1.66481   1.66828   1.67897   1.68649   1.68882
 Alpha virt. eigenvalues --    1.69543   1.72558   1.73052   1.73891   1.74069
 Alpha virt. eigenvalues --    1.74297   1.75186   1.75747   1.76062   1.76453
 Alpha virt. eigenvalues --    1.76796   1.77567   1.80280   1.80959   1.82174
 Alpha virt. eigenvalues --    1.82759   1.82897   1.83736   1.84839   1.85200
 Alpha virt. eigenvalues --    1.85982   1.86343   1.86613   1.87005   1.87497
 Alpha virt. eigenvalues --    1.89523   1.90372   1.92076   1.92682   1.93330
 Alpha virt. eigenvalues --    1.93577   1.94347   1.96753   1.99456   2.00003
 Alpha virt. eigenvalues --    2.00368   2.00971   2.01604   2.02537   2.02785
 Alpha virt. eigenvalues --    2.03229   2.03451   2.04047   2.04412   2.04651
 Alpha virt. eigenvalues --    2.04907   2.05045   2.05571   2.05811   2.05865
 Alpha virt. eigenvalues --    2.07055   2.07401   2.08261   2.09018   2.09289
 Alpha virt. eigenvalues --    2.10596   2.11762   2.12287   2.12850   2.13452
 Alpha virt. eigenvalues --    2.14792   2.15699   2.16496   2.16897   2.17088
 Alpha virt. eigenvalues --    2.18109   2.19065   2.20292   2.21055   2.21929
 Alpha virt. eigenvalues --    2.23521   2.28444   2.30776   2.33981   2.35571
 Alpha virt. eigenvalues --    2.36449   2.36778   2.39514   2.39713   2.42488
 Alpha virt. eigenvalues --    2.43712   2.44362   2.46048   2.47575   2.49059
 Alpha virt. eigenvalues --    2.51425   2.52441   2.52985   2.54192   2.54507
 Alpha virt. eigenvalues --    2.55300   2.55835   2.56488   2.56741   2.58143
 Alpha virt. eigenvalues --    2.58412   2.58586   2.60760   2.62565   2.62870
 Alpha virt. eigenvalues --    2.72393   2.72966   2.73237   2.75712   2.76051
 Alpha virt. eigenvalues --    2.76332   2.77111   2.78170   2.79185   2.79540
 Alpha virt. eigenvalues --    2.79841   2.80033   2.80310   2.80531   2.80764
 Alpha virt. eigenvalues --    2.81782   2.81932   2.82558   2.83108   2.83574
 Alpha virt. eigenvalues --    2.83790   2.84484   2.85107   2.85891   2.87051
 Alpha virt. eigenvalues --    2.87213   2.87777   2.88456   2.89862   2.90562
 Alpha virt. eigenvalues --    2.91300   2.92308   2.92589   2.93061   2.93338
 Alpha virt. eigenvalues --    2.93629   2.94192   2.94994   2.96145   2.97492
 Alpha virt. eigenvalues --    2.99593   3.00248   3.00774   3.01389   3.03308
 Alpha virt. eigenvalues --    3.04235   3.04587   3.04891   3.04918   3.05299
 Alpha virt. eigenvalues --    3.06001   3.06707   3.07046   3.08916   3.11618
 Alpha virt. eigenvalues --    3.12395   3.15627   3.17781   3.19728   3.20154
 Alpha virt. eigenvalues --    3.20959   3.23241   3.25294   3.31988   3.32511
 Alpha virt. eigenvalues --    3.32807   3.33408   3.34944   3.35329   3.37840
 Alpha virt. eigenvalues --    3.47362   3.48067   3.48957   3.49344   3.49365
 Alpha virt. eigenvalues --    3.49602   3.53869   3.54257   3.60800   3.61122
 Alpha virt. eigenvalues --    3.62628   3.63023   3.65037   3.65680   3.66149
 Alpha virt. eigenvalues --    3.73565   3.73727   3.75638   3.76538   3.76857
 Alpha virt. eigenvalues --    3.77650   3.89462   3.91859   3.92873   4.09819
 Alpha virt. eigenvalues --    4.10137   4.10854   4.14532   4.14550   4.14594
 Alpha virt. eigenvalues --    4.23945   4.24293   4.26257   4.26352   4.26838
 Alpha virt. eigenvalues --    4.26969   4.28424   4.30659   4.52163   4.66920
 Alpha virt. eigenvalues --    4.71817   4.93347   4.95303   4.95625   4.99302
 Alpha virt. eigenvalues --   23.67744  23.80362  23.81821  23.88043  24.08525
 Alpha virt. eigenvalues --   24.08653  24.10428  24.10813  24.10966  24.11598
 Alpha virt. eigenvalues --   24.12208  24.13074  24.20594  24.20664  24.21349
 Alpha virt. eigenvalues --   24.23492  24.24223  24.24301  24.24433  24.24874
 Alpha virt. eigenvalues --   24.31275  24.33781  24.33806  24.34589
          Condensed to atoms (all electrons):
               1          2          3          4          5          6
     1  C   15.243456  -0.162834  -0.527802  -4.803766  -0.137608   2.869206
     2  C   -0.162834  11.265374  -0.503206   1.450225   0.333357  -1.679510
     3  C   -0.527802  -0.503206  12.684400  -1.125149   0.129278  -2.212210
     4  C   -4.803766   1.450225  -1.125149  20.597672   0.016450  -1.387876
     5  H   -0.137608   0.333357   0.129278   0.016450   0.876551  -0.099708
     6  C    2.869206  -1.679510  -2.212210  -1.387876  -0.099708  13.210099
     7  C   -4.458816  -0.769317   1.167367  -8.296877   0.063977  -1.398973
     8  H   -0.114969   0.076058   0.355900   0.048818   0.005863  -0.016969
     9  C   -1.728434   0.938843   1.148445  -0.273478   0.122740  -1.603230
    10  C   -0.084787  -2.281968  -1.400231   0.407376   0.053111   0.816913
    11  C   -0.333207   3.530442  -4.107562   0.802098  -0.025815  -0.768059
    12  C   -0.909138  -3.909985   4.053115  -1.228609  -0.004732  -1.385360
    13  C   -0.000239  -1.408053  -2.060650  -0.153202  -0.023415   1.006374
    14  H    0.031055  -0.034220   0.023867   0.064937  -0.002623  -0.011392
    15  C    0.394429   1.638657  -0.104470   0.095867  -0.228326  -0.026180
    16  C   -0.569714  -1.565779   0.012243  -1.719939   0.084330   0.173142
    17  C   -0.379414  -0.310638   0.270706  -0.002327   0.058728  -2.023603
    18  H   -0.013260   0.016411  -0.091009  -0.039470  -0.102940  -0.012401
    19  C    0.016591   0.091774  -0.585552   0.185802  -0.051273  -1.057792
    20  H    0.028325  -0.047910  -0.012076  -0.042157  -0.005539  -0.026521
    21  C    1.676695  -0.388473   1.608012  -0.047737  -0.029853   0.136077
    22  C   -1.229424   0.264056  -2.038807   0.413809   0.017301  -0.033572
    23  C    0.342155   0.443653   0.093684   0.141915  -0.042502   0.053891
    24  H   -0.019837   0.008305  -0.024147   0.025876  -0.043408   0.014551
    25  C   -0.076072  -0.053765   0.062116   0.285112   0.007677  -0.092316
    26  H    0.014171   0.001165  -0.003883   0.144855  -0.006609   0.016420
    27  C   -0.232144  -0.015793   0.021412  -0.097502   0.025270  -0.184785
    28  H    0.008408  -0.006502   0.005777   0.002138   0.005605   0.002775
    29  H    0.004734   0.000426  -0.004797   0.004253   0.000306   0.010875
    30  C    0.356855   0.079415   0.567894  -0.317869  -0.000645   0.000843
    31  H   -0.028115  -0.019416  -0.048844   0.032306   0.000242   0.006990
    32  C   -0.176971   0.034092   0.175817   0.336460   0.002867  -0.070802
    33  H    0.004824  -0.013545  -0.018793  -0.130699   0.000864   0.011843
    34  C   -0.080331  -0.089703  -0.030010  -0.346003   0.021482   0.022297
    35  H    0.005571   0.001519   0.000745   0.004570  -0.001311  -0.000048
    36  H    0.000888  -0.001015   0.000482  -0.008267   0.000242  -0.000948
    37  H   -0.000474   0.001778   0.000826  -0.000226  -0.000935   0.033307
    38  C   -0.001676  -0.025556  -0.122817   0.017206  -0.000539   0.036324
    39  H    0.001887   0.000089   0.002733   0.000138  -0.000027  -0.002405
    40  H    0.000618   0.000346   0.004721   0.008691  -0.000032  -0.000859
    41  H    0.000924  -0.000595  -0.000790  -0.007428  -0.000404   0.000790
    42  H    0.000962  -0.000663  -0.004678   0.000520  -0.000003   0.000966
               7          8          9         10         11         12
     1  C   -4.458816  -0.114969  -1.728434  -0.084787  -0.333207  -0.909138
     2  C   -0.769317   0.076058   0.938843  -2.281968   3.530442  -3.909985
     3  C    1.167367   0.355900   1.148445  -1.400231  -4.107562   4.053115
     4  C   -8.296877   0.048818  -0.273478   0.407376   0.802098  -1.228609
     5  H    0.063977   0.005863   0.122740   0.053111  -0.025815  -0.004732
     6  C   -1.398973  -0.016969  -1.603230   0.816913  -0.768059  -1.385360
     7  C   19.744190   0.058510   1.529194  -0.899435  -0.714813   0.909160
     8  H    0.058510   0.569976   0.056415  -0.021067   0.023803  -0.106377
     9  C    1.529194   0.056415  12.676715  -2.976611   0.288071   0.246472
    10  C   -0.899435  -0.021067  -2.976611  14.807880  -0.067652   0.037558
    11  C   -0.714813   0.023803   0.288071  -0.067652  15.579049  -7.598040
    12  C    0.909160  -0.106377   0.246472   0.037558  -7.598040  17.144348
    13  C   -0.398182   0.051854  -2.994110   1.358699   0.092304  -0.487422
    14  H   -0.121826  -0.001646   0.305147   0.085744  -0.010907   0.010939
    15  C   -0.853501  -0.001537  -2.311282  -0.511774  -0.318206  -0.011338
    16  C    1.166811   0.001331   1.453806  -0.840711   0.038378  -0.003633
    17  C    0.165037   0.010967   0.032577   0.047570  -0.767624   0.826575
    18  H   -0.019597  -0.004482  -0.005609   0.002413   0.562886  -0.019897
    19  C   -0.052112  -0.039138  -0.030403  -0.007009   1.019498  -1.358029
    20  H   -0.091266  -0.005678  -0.000964   0.006224   0.023523   0.542877
    21  C   -2.370399  -0.213457  -1.103762   0.106001  -0.057937   0.460144
    22  C    0.691169   0.152579   0.750892   0.002114   0.070325  -0.301011
    23  C   -0.087232  -0.002717   0.372233  -1.967332  -0.077783   0.030966
    24  H   -0.015806  -0.000562  -0.079723  -0.037266  -0.004818  -0.002190
    25  C    0.409413   0.002112   0.718163  -1.793966   0.072294  -0.015979
    26  H   -0.151679  -0.000083  -0.084096   0.013127  -0.012827   0.007029
    27  C   -0.039642  -0.005132   0.016921   0.003084  -0.715689  -0.140805
    28  H    0.003201   0.000249   0.000068  -0.000393  -0.081332   0.023760
    29  H    0.002296  -0.000529  -0.000667  -0.000050   0.018175  -0.078491
    30  C    0.207729  -0.037460   0.224025  -0.095010   0.032906  -0.008641
    31  H    0.000037   0.002551  -0.033536   0.016008  -0.008178   0.006047
    32  C   -0.069038  -0.000284   0.495474  -0.091905  -0.024040   0.059308
    33  H    0.160185  -0.001347  -0.089459  -0.000499   0.008336  -0.013382
    34  C   -0.059899   0.000488  -0.300878  -0.072987  -0.023276  -0.001902
    35  H    0.003783  -0.000036   0.011551   0.017302   0.000404   0.000486
    36  H    0.013688  -0.000022   0.017945   0.005739   0.000920  -0.000115
    37  H    0.000284   0.000259  -0.000025   0.000278  -0.008533  -0.015142
    38  C   -0.306279   0.000257  -0.170879   0.062233   0.003493  -0.021789
    39  H    0.005680  -0.000631   0.007301  -0.001355  -0.000033   0.001827
    40  H   -0.004916  -0.000105   0.016087  -0.004494  -0.000249   0.000935
    41  H   -0.000847  -0.000001  -0.009105   0.031289  -0.000356   0.000031
    42  H   -0.007969   0.000189  -0.008734   0.001438   0.000083  -0.000590
              13         14         15         16         17         18
     1  C   -0.000239   0.031055   0.394429  -0.569714  -0.379414  -0.013260
     2  C   -1.408053  -0.034220   1.638657  -1.565779  -0.310638   0.016411
     3  C   -2.060650   0.023867  -0.104470   0.012243   0.270706  -0.091009
     4  C   -0.153202   0.064937   0.095867  -1.719939  -0.002327  -0.039470
     5  H   -0.023415  -0.002623  -0.228326   0.084330   0.058728  -0.102940
     6  C    1.006374  -0.011392  -0.026180   0.173142  -2.023603  -0.012401
     7  C   -0.398182  -0.121826  -0.853501   1.166811   0.165037  -0.019597
     8  H    0.051854  -0.001646  -0.001537   0.001331   0.010967  -0.004482
     9  C   -2.994110   0.305147  -2.311282   1.453806   0.032577  -0.005609
    10  C    1.358699   0.085744  -0.511774  -0.840711   0.047570   0.002413
    11  C    0.092304  -0.010907  -0.318206   0.038378  -0.767624   0.562886
    12  C   -0.487422   0.010939  -0.011338  -0.003633   0.826575  -0.019897
    13  C   16.006557   0.064596   0.116642  -0.000459   0.047223   0.007308
    14  H    0.064596   0.486870   0.068594  -0.100646  -0.004094  -0.000074
    15  C    0.116642   0.068594  17.118551  -8.005206  -0.097587   0.000473
    16  C   -0.000459  -0.100646  -8.005206  17.462778   0.026682   0.008220
    17  C    0.047223  -0.004094  -0.097587   0.026682   9.293459  -0.075097
    18  H    0.007308  -0.000074   0.000473   0.008220  -0.075097   0.589789
    19  C   -0.142323   0.003279   0.044212  -0.017245  -1.391702   0.037867
    20  H   -0.061716  -0.000466  -0.011394   0.006464   0.026562   0.003389
    21  C   -1.628450   0.102708   0.107887  -0.175040  -0.022504   0.005388
    22  C   -1.076618  -0.151946  -0.088573   0.262119   0.016360  -0.002836
    23  C   -0.044013   0.019557  -1.294308  -0.182434  -0.027244  -0.002068
    24  H    0.014894  -0.000472   0.601185  -0.068633  -0.003912   0.007838
    25  C   -0.150523  -0.016528  -0.259981  -1.339498   0.004770   0.002103
    26  H   -0.000261   0.004964  -0.020718   0.465945  -0.000877   0.000544
    27  C   -0.012897   0.000306  -0.016870   0.001445   0.617702  -0.006654
    28  H   -0.000256  -0.000033  -0.000308   0.000262   0.416656  -0.017844
    29  H    0.000154   0.000005   0.000431  -0.000101  -0.005458  -0.000546
    30  C   -1.923623   0.010351  -0.021294   0.028957   0.004010   0.000537
    31  H    0.034904  -0.000515   0.007395  -0.006381  -0.000345  -0.000265
    32  C   -1.533127  -0.016047   0.001262  -0.004950  -0.002111  -0.000638
    33  H   -0.011932  -0.001981  -0.006009   0.027781   0.000758   0.000131
    34  C    0.045093  -0.000229   0.174145   0.123611  -0.000014  -0.003842
    35  H   -0.001318   0.000146  -0.113962   0.009791  -0.000429   0.000228
    36  H   -0.003314  -0.001529   0.006445  -0.095166   0.000047   0.000022
    37  H    0.000133  -0.000002  -0.000305   0.000071  -0.059040   0.001599
    38  C   -0.297058  -0.000480   0.010592  -0.022126   0.000224   0.000058
    39  H    0.021810   0.000044  -0.000389   0.000632   0.000004   0.000012
    40  H    0.030252  -0.000569  -0.000775   0.002121  -0.000007   0.000000
    41  H    0.001183   0.000390   0.008242   0.000652   0.000008   0.000027
    42  H    0.023882   0.000165   0.000219  -0.000563   0.000006   0.000001
              19         20         21         22         23         24
     1  C    0.016591   0.028325   1.676695  -1.229424   0.342155  -0.019837
     2  C    0.091774  -0.047910  -0.388473   0.264056   0.443653   0.008305
     3  C   -0.585552  -0.012076   1.608012  -2.038807   0.093684  -0.024147
     4  C    0.185802  -0.042157  -0.047737   0.413809   0.141915   0.025876
     5  H   -0.051273  -0.005539  -0.029853   0.017301  -0.042502  -0.043408
     6  C   -1.057792  -0.026521   0.136077  -0.033572   0.053891   0.014551
     7  C   -0.052112  -0.091266  -2.370399   0.691169  -0.087232  -0.015806
     8  H   -0.039138  -0.005678  -0.213457   0.152579  -0.002717  -0.000562
     9  C   -0.030403  -0.000964  -1.103762   0.750892   0.372233  -0.079723
    10  C   -0.007009   0.006224   0.106001   0.002114  -1.967332  -0.037266
    11  C    1.019498   0.023523  -0.057937   0.070325  -0.077783  -0.004818
    12  C   -1.358029   0.542877   0.460144  -0.301011   0.030966  -0.002190
    13  C   -0.142323  -0.061716  -1.628450  -1.076618  -0.044013   0.014894
    14  H    0.003279  -0.000466   0.102708  -0.151946   0.019557  -0.000472
    15  C    0.044212  -0.011394   0.107887  -0.088573  -1.294308   0.601185
    16  C   -0.017245   0.006464  -0.175040   0.262119  -0.182434  -0.068633
    17  C   -1.391702   0.026562  -0.022504   0.016360  -0.027244  -0.003912
    18  H    0.037867   0.003389   0.005388  -0.002836  -0.002068   0.007838
    19  C    9.130476  -0.049703   0.089889  -0.030873  -0.000051   0.003424
    20  H   -0.049703   0.589076   0.067725  -0.034464  -0.000671   0.000227
    21  C    0.089889   0.067725  18.120209  -9.835195   0.011179   0.004426
    22  C   -0.030873  -0.034464  -9.835195  19.758163  -0.013968  -0.003015
    23  C   -0.000051  -0.000671   0.011179  -0.013968   8.819707  -0.095653
    24  H    0.003424   0.000227   0.004426  -0.003015  -0.095653   0.492221
    25  C    0.000174   0.000621   0.001804  -0.018241  -0.150393  -0.013240
    26  H    0.000596   0.000113  -0.004374   0.017349  -0.011322   0.001391
    27  C    0.239405   0.031430   0.007781  -0.004288   0.001280  -0.001597
    28  H   -0.001281  -0.000650  -0.000104   0.000102  -0.000207  -0.000364
    29  H    0.419711  -0.017234   0.000108   0.000277  -0.000010   0.000001
    30  C   -0.015015   0.024522  -0.673008  -0.394771   0.000742  -0.000596
    31  H    0.001366  -0.007223   0.477437  -0.005612   0.000041   0.000329
    32  C    0.004080   0.001714   0.569706  -1.578085   0.007771  -0.000862
    33  H   -0.001497  -0.000397  -0.089497   0.550228  -0.000794  -0.000101
    34  C    0.000022  -0.000219  -0.001457   0.001167  -0.185412   0.021172
    35  H   -0.000033   0.000007  -0.000005   0.000146   0.450429  -0.009958
    36  H   -0.000007   0.000005  -0.000222   0.001062   0.011504  -0.000090
    37  H   -0.072217   0.000833  -0.000094   0.000023  -0.000003   0.000043
    38  C   -0.000795   0.000851  -0.304064   0.353948  -0.000986   0.000292
    39  H    0.000141   0.000358  -0.105155  -0.000971   0.000025  -0.000012
    40  H    0.000025   0.000111   0.016426  -0.118490   0.000068  -0.000003
    41  H   -0.000000  -0.000000   0.000083  -0.000295  -0.068940   0.000661
    42  H   -0.000067  -0.000111   0.007410   0.024991  -0.000012   0.000005
              25         26         27         28         29         30
     1  C   -0.076072   0.014171  -0.232144   0.008408   0.004734   0.356855
     2  C   -0.053765   0.001165  -0.015793  -0.006502   0.000426   0.079415
     3  C    0.062116  -0.003883   0.021412   0.005777  -0.004797   0.567894
     4  C    0.285112   0.144855  -0.097502   0.002138   0.004253  -0.317869
     5  H    0.007677  -0.006609   0.025270   0.005605   0.000306  -0.000645
     6  C   -0.092316   0.016420  -0.184785   0.002775   0.010875   0.000843
     7  C    0.409413  -0.151679  -0.039642   0.003201   0.002296   0.207729
     8  H    0.002112  -0.000083  -0.005132   0.000249  -0.000529  -0.037460
     9  C    0.718163  -0.084096   0.016921   0.000068  -0.000667   0.224025
    10  C   -1.793966   0.013127   0.003084  -0.000393  -0.000050  -0.095010
    11  C    0.072294  -0.012827  -0.715689  -0.081332   0.018175   0.032906
    12  C   -0.015979   0.007029  -0.140805   0.023760  -0.078491  -0.008641
    13  C   -0.150523  -0.000261  -0.012897  -0.000256   0.000154  -1.923623
    14  H   -0.016528   0.004964   0.000306  -0.000033   0.000005   0.010351
    15  C   -0.259981  -0.020718  -0.016870  -0.000308   0.000431  -0.021294
    16  C   -1.339498   0.465945   0.001445   0.000262  -0.000101   0.028957
    17  C    0.004770  -0.000877   0.617702   0.416656  -0.005458   0.004010
    18  H    0.002103   0.000544  -0.006654  -0.017844  -0.000546   0.000537
    19  C    0.000174   0.000596   0.239405  -0.001281   0.419711  -0.015015
    20  H    0.000621   0.000113   0.031430  -0.000650  -0.017234   0.024522
    21  C    0.001804  -0.004374   0.007781  -0.000104   0.000108  -0.673008
    22  C   -0.018241   0.017349  -0.004288   0.000102   0.000277  -0.394771
    23  C   -0.150393  -0.011322   0.001280  -0.000207  -0.000010   0.000742
    24  H   -0.013240   0.001391  -0.001597  -0.000364   0.000001  -0.000596
    25  C    8.618408  -0.093596   0.000247  -0.000051  -0.000009   0.009816
    26  H   -0.093596   0.497161  -0.000206   0.000013   0.000003  -0.000535
    27  C    0.000247  -0.000206   6.617960  -0.052175  -0.057258  -0.000369
    28  H   -0.000051   0.000013  -0.052175   0.477611   0.001503  -0.000015
    29  H   -0.000009   0.000003  -0.057258   0.001503   0.477352  -0.000373
    30  C    0.009816  -0.000535  -0.000369  -0.000015  -0.000373   8.289789
    31  H   -0.001534   0.000077  -0.001256   0.000033   0.000543  -0.131972
    32  C   -0.029791   0.004787   0.000816   0.000008  -0.000104  -0.301476
    33  H   -0.001943  -0.006274  -0.000044  -0.000005   0.000009  -0.016907
    34  C   -0.099632   0.019690  -0.000435   0.000120   0.000007  -0.001134
    35  H    0.016093  -0.000433   0.000070  -0.000012  -0.000001   0.000039
    36  H    0.433448  -0.010720   0.000009  -0.000002  -0.000000   0.000061
    37  H   -0.000001  -0.000000   0.460754  -0.010843  -0.010903  -0.000027
    38  C   -0.006411  -0.000233  -0.000396   0.000001   0.000050   0.134274
    39  H    0.000056   0.000049   0.000049  -0.000001  -0.000022   0.439091
    40  H    0.000684   0.000509   0.000008  -0.000000  -0.000002   0.019772
    41  H   -0.071217   0.001349  -0.000004   0.000000   0.000000  -0.000012
    42  H   -0.000146  -0.000044  -0.000009   0.000000   0.000003  -0.081360
              31         32         33         34         35         36
     1  C   -0.028115  -0.176971   0.004824  -0.080331   0.005571   0.000888
     2  C   -0.019416   0.034092  -0.013545  -0.089703   0.001519  -0.001015
     3  C   -0.048844   0.175817  -0.018793  -0.030010   0.000745   0.000482
     4  C    0.032306   0.336460  -0.130699  -0.346003   0.004570  -0.008267
     5  H    0.000242   0.002867   0.000864   0.021482  -0.001311   0.000242
     6  C    0.006990  -0.070802   0.011843   0.022297  -0.000048  -0.000948
     7  C    0.000037  -0.069038   0.160185  -0.059899   0.003783   0.013688
     8  H    0.002551  -0.000284  -0.001347   0.000488  -0.000036  -0.000022
     9  C   -0.033536   0.495474  -0.089459  -0.300878   0.011551   0.017945
    10  C    0.016008  -0.091905  -0.000499  -0.072987   0.017302   0.005739
    11  C   -0.008178  -0.024040   0.008336  -0.023276   0.000404   0.000920
    12  C    0.006047   0.059308  -0.013382  -0.001902   0.000486  -0.000115
    13  C    0.034904  -1.533127  -0.011932   0.045093  -0.001318  -0.003314
    14  H   -0.000515  -0.016047  -0.001981  -0.000229   0.000146  -0.001529
    15  C    0.007395   0.001262  -0.006009   0.174145  -0.113962   0.006445
    16  C   -0.006381  -0.004950   0.027781   0.123611   0.009791  -0.095166
    17  C   -0.000345  -0.002111   0.000758  -0.000014  -0.000429   0.000047
    18  H   -0.000265  -0.000638   0.000131  -0.003842   0.000228   0.000022
    19  C    0.001366   0.004080  -0.001497   0.000022  -0.000033  -0.000007
    20  H   -0.007223   0.001714  -0.000397  -0.000219   0.000007   0.000005
    21  C    0.477437   0.569706  -0.089497  -0.001457  -0.000005  -0.000222
    22  C   -0.005612  -1.578085   0.550228   0.001167   0.000146   0.001062
    23  C    0.000041   0.007771  -0.000794  -0.185412   0.450429   0.011504
    24  H    0.000329  -0.000862  -0.000101   0.021172  -0.009958  -0.000090
    25  C   -0.001534  -0.029791  -0.001943  -0.099632   0.016093   0.433448
    26  H    0.000077   0.004787  -0.006274   0.019690  -0.000433  -0.010720
    27  C   -0.001256   0.000816  -0.000044  -0.000435   0.000070   0.000009
    28  H    0.000033   0.000008  -0.000005   0.000120  -0.000012  -0.000002
    29  H    0.000543  -0.000104   0.000009   0.000007  -0.000001  -0.000000
    30  C   -0.131972  -0.301476  -0.016907  -0.001134   0.000039   0.000061
    31  H    0.492348  -0.006989   0.000320   0.000281  -0.000013  -0.000010
    32  C   -0.006989   8.212065  -0.088438  -0.004200   0.000045   0.000215
    33  H    0.000320  -0.088438   0.498626   0.000597   0.000025   0.000425
    34  C    0.000281  -0.004200   0.000597   6.891537  -0.074758  -0.057234
    35  H   -0.000013   0.000045   0.000025  -0.074758   0.473641   0.000820
    36  H   -0.000010   0.000215   0.000425  -0.057234   0.000820   0.472120
    37  H   -0.000040   0.000011   0.000000  -0.000006   0.000001   0.000000
    38  C    0.015090   0.097798   0.032721   0.000478  -0.000010  -0.000005
    39  H   -0.011327   0.013346  -0.000628  -0.000007   0.000000  -0.000001
    40  H   -0.000345   0.433487  -0.013399  -0.000003  -0.000001  -0.000028
    41  H    0.000005  -0.000100  -0.000022   0.450610  -0.009192  -0.009794
    42  H    0.001173  -0.090800   0.002365   0.000009  -0.000000  -0.000000
              37         38         39         40         41         42
     1  C   -0.000474  -0.001676   0.001887   0.000618   0.000924   0.000962
     2  C    0.001778  -0.025556   0.000089   0.000346  -0.000595  -0.000663
     3  C    0.000826  -0.122817   0.002733   0.004721  -0.000790  -0.004678
     4  C   -0.000226   0.017206   0.000138   0.008691  -0.007428   0.000520
     5  H   -0.000935  -0.000539  -0.000027  -0.000032  -0.000404  -0.000003
     6  C    0.033307   0.036324  -0.002405  -0.000859   0.000790   0.000966
     7  C    0.000284  -0.306279   0.005680  -0.004916  -0.000847  -0.007969
     8  H    0.000259   0.000257  -0.000631  -0.000105  -0.000001   0.000189
     9  C   -0.000025  -0.170879   0.007301   0.016087  -0.009105  -0.008734
    10  C    0.000278   0.062233  -0.001355  -0.004494   0.031289   0.001438
    11  C   -0.008533   0.003493  -0.000033  -0.000249  -0.000356   0.000083
    12  C   -0.015142  -0.021789   0.001827   0.000935   0.000031  -0.000590
    13  C    0.000133  -0.297058   0.021810   0.030252   0.001183   0.023882
    14  H   -0.000002  -0.000480   0.000044  -0.000569   0.000390   0.000165
    15  C   -0.000305   0.010592  -0.000389  -0.000775   0.008242   0.000219
    16  C    0.000071  -0.022126   0.000632   0.002121   0.000652  -0.000563
    17  C   -0.059040   0.000224   0.000004  -0.000007   0.000008   0.000006
    18  H    0.001599   0.000058   0.000012   0.000000   0.000027   0.000001
    19  C   -0.072217  -0.000795   0.000141   0.000025  -0.000000  -0.000067
    20  H    0.000833   0.000851   0.000358   0.000111  -0.000000  -0.000111
    21  C   -0.000094  -0.304064  -0.105155   0.016426   0.000083   0.007410
    22  C    0.000023   0.353948  -0.000971  -0.118490  -0.000295   0.024991
    23  C   -0.000003  -0.000986   0.000025   0.000068  -0.068940  -0.000012
    24  H    0.000043   0.000292  -0.000012  -0.000003   0.000661   0.000005
    25  C   -0.000001  -0.006411   0.000056   0.000684  -0.071217  -0.000146
    26  H   -0.000000  -0.000233   0.000049   0.000509   0.001349  -0.000044
    27  C    0.460754  -0.000396   0.000049   0.000008  -0.000004  -0.000009
    28  H   -0.010843   0.000001  -0.000001  -0.000000   0.000000   0.000000
    29  H   -0.010903   0.000050  -0.000022  -0.000002   0.000000   0.000003
    30  C   -0.000027   0.134274   0.439091   0.019772  -0.000012  -0.081360
    31  H   -0.000040   0.015090  -0.011327  -0.000345   0.000005   0.001173
    32  C    0.000011   0.097798   0.013346   0.433487  -0.000100  -0.090800
    33  H    0.000000   0.032721  -0.000628  -0.013399  -0.000022   0.002365
    34  C   -0.000006   0.000478  -0.000007  -0.000003   0.450610   0.000009
    35  H    0.000001  -0.000010   0.000000  -0.000001  -0.009192  -0.000000
    36  H    0.000000  -0.000005  -0.000001  -0.000028  -0.009794  -0.000000
    37  H    0.486156  -0.000002   0.000000   0.000000   0.000000  -0.000000
    38  C   -0.000002   6.615449  -0.059031  -0.079659   0.000009   0.471340
    39  H    0.000000  -0.059031   0.474223   0.001092  -0.000000  -0.010633
    40  H    0.000000  -0.079659   0.001092   0.475923  -0.000000  -0.012442
    41  H    0.000000   0.000009  -0.000000  -0.000000   0.481929   0.000000
    42  H   -0.000000   0.471340  -0.010633  -0.012442   0.000000   0.486793
 Mulliken charges:
               1
     1  C    1.067278
     2  C   -0.887536
     3  C   -1.362057
     4  C    0.941486
     5  H   -0.017995
     6  C    1.671831
     7  C    0.886712
     8  H    0.156050
     9  C   -1.624099
    10  C    1.274400
    11  C   -0.440055
    12  C   -0.738978
    13  C    1.489299
    14  H    0.194561
    15  C   -0.090936
    16  C   -0.639345
    17  C   -0.692607
    18  H    0.171287
    19  C   -0.384213
    20  H    0.061405
    21  C   -0.526306
    22  C   -0.387124
    23  C   -0.544747
    24  H    0.229424
    25  C   -0.360276
    26  H    0.197463
    27  C   -0.460000
    28  H    0.224085
    29  H    0.235333
    30  C   -0.409515
    31  H    0.216389
    32  C   -0.360372
    33  H    0.207554
    34  C   -0.339236
    35  H    0.214105
    36  H    0.222404
    37  H    0.192462
    38  C   -0.431897
    39  H    0.222041
    40  H    0.224503
    41  H    0.200920
    42  H    0.196304
 Sum of Mulliken charges =  -0.00000
 Mulliken charges with hydrogens summed into heavy atoms:
               1
     1  C    1.067278
     2  C   -0.905531
     3  C   -1.206008
     4  C    0.941486
     6  C    1.671831
     7  C    0.886712
     9  C   -1.429538
    10  C    1.274400
    11  C   -0.268768
    12  C   -0.677573
    13  C    1.489299
    15  C    0.138488
    16  C   -0.441883
    17  C   -0.468523
    19  C   -0.148880
    21  C   -0.309917
    22  C   -0.179570
    23  C   -0.330642
    25  C   -0.137872
    27  C   -0.267537
    30  C   -0.187474
    32  C   -0.135868
    34  C   -0.138316
    38  C   -0.235594
 Electronic spatial extent (au):  <R**2>=          10005.6924
 Charge=              0.0000 electrons
 Dipole moment (field-independent basis, Debye):
    X=             -0.0098    Y=             -0.0102    Z=              0.0036  Tot=              0.0146
 Quadrupole moment (field-independent basis, Debye-Ang):
   XX=           -123.7830   YY=           -126.1008   ZZ=           -144.1858
   XY=              0.0237   XZ=              2.5617   YZ=              6.0712
 Traceless Quadrupole moment (field-independent basis, Debye-Ang):
   XX=              7.5735   YY=              5.2558   ZZ=            -12.8293
   XY=              0.0237   XZ=              2.5617   YZ=              6.0712
 Octapole moment (field-independent basis, Debye-Ang**2):
  XXX=             -1.0251  YYY=             35.0271  ZZZ=              1.3733  XYY=              3.3113
  XXY=            -24.4725  XXZ=             33.3564  XZZ=             -2.1350  YZZ=            -10.6981
  YYZ=            -34.7462  XYZ=             10.2879
 Hexadecapole moment (field-independent basis, Debye-Ang**3):
 XXXX=          -6334.2348 YYYY=          -6253.7870 ZZZZ=           -448.0537 XXXY=              6.3254
 XXXZ=              9.4292 YYYX=              2.0119 YYYZ=             93.8280 ZZZX=              0.4379
 ZZZY=             24.8078 XXYY=          -2037.5182 XXZZ=          -1232.9048 YYZZ=          -1276.4789
 XXYZ=             36.1486 YYXZ=             55.5102 ZZXY=             -7.3048
 N-N= 1.734017217319D+03 E-N=-5.614389264092D+03  KE= 9.213101251180D+02
 No NMR shielding tensors so no spin-rotation constants.
 Leave Link  601 at Mon Nov 14 15:12:10 2022, MaxMem= 16106127360 cpu:               9.0 elap:               0.4
 (Enter /opt/ap/G16/B01/g16/l9999.exe)
 1\1\GINC-N61\SP\RwB97XD\6-311++G(d,p)\C24H18\ROOT\14-Nov-2022\0\\#P wB
 97XD/6-311++G(d,p) scf=maxcycle=512\\_conf014.gjf nmol_natom 1_42\\0,1
 \C\C,1,1.39412829\C,1,1.39435449,2,118.86443127\C,2,1.39416084,1,121.1
 529487,3,0.03668482,0\H,2,1.08488355,1,119.42236619,3,-179.97409048,0\
 C,1,1.48467131,2,120.55714816,4,179.25839056,0\C,3,1.39437784,1,121.11
 776116,2,-0.05351271,0\H,3,1.08487775,1,119.41869036,2,177.23008049,0\
 C,4,1.39432447,2,118.86473838,1,0.01008406,0\C,4,1.48466627,2,120.5464
 188,1,179.19454736,0\C,6,1.3968498,1,120.7843492,2,-20.,0\C,6,1.396868
 2,1,120.67653841,2,160.,0\C,7,1.48449863,3,120.56496838,1,-179.9632580
 4,0\H,9,1.0848792,4,119.41824946,2,177.22245984,0\C,10,1.39685361,4,12
 0.76946845,2,-42.52368674,0\C,10,1.39686289,4,120.69448769,2,137.43107
 516,0\C,11,1.38888939,6,120.7380073,1,179.94058542,0\H,11,1.0847641,6,
 119.46912378,1,-1.41050605,0\C,12,1.38882428,6,120.76493111,1,-179.950
 82712,0\H,12,1.08482758,6,119.44182626,1,-1.23602505,0\C,13,1.39682899
 ,7,120.74134419,3,42.89023273,0\C,13,1.39683158,7,120.7379111,3,-137.1
 2494058,0\C,15,1.38888263,10,120.742191,4,179.9460119,0\H,15,1.0847633
 4,10,119.47085903,4,-1.40606944,0\C,16,1.38886088,10,120.76338989,4,-1
 79.95592713,0\H,16,1.08483431,10,119.44215232,4,-1.23439681,0\C,17,1.3
 9007919,11,120.20743432,6,0.00349958,0\H,17,1.0843506,11,119.71318733,
 6,179.5011609,0\H,19,1.08435858,12,119.73823132,6,179.53683762,0\C,21,
 1.38882373,13,120.76699356,7,179.99297883,0\H,21,1.0847938,13,119.4352
 623,7,1.32183327,0\C,22,1.38881869,13,120.76647403,7,-179.97118338,0\H
 ,22,1.08479982,13,119.43203605,7,1.34657928,0\C,23,1.39007007,15,120.2
 0732995,10,0.00573957,0\H,23,1.08434813,15,119.71220819,10,179.5072436
 8,0\H,25,1.08436328,16,119.73539424,10,179.53636455,0\H,27,1.08412515,
 17,120.21790854,11,179.98397203,0\C,30,1.39008059,21,120.18795226,13,-
 0.02169059,0\H,30,1.08435324,21,119.73787119,13,-179.52151214,0\H,32,1
 .0843543,22,119.737043,13,-179.52886928,0\H,34,1.08412314,23,120.22152
 803,15,179.98800213,0\H,38,1.08411439,30,120.21547163,21,-179.98600656
 ,0\\Version=ES64L-G16RevB.01\State=1-A\HF=-925.3093304\RMSD=4.297e-09\
 Dipole=0.0017056,0.0012575,0.0053406\Quadrupole=4.1665886,-9.2359682,5
 .0693796,-3.2924003,-0.8646643,-4.1484478\PG=C01 [X(C24H18)]\\@


 AND HERE I AM, FOR ALL MY LORE,
 THE WRETCHED FOOL I WAS BEFORE.
 CALLED MASTER OF ARTS, AND DOCTOR TO BOOT,
 FOR TEN YEARS ALMOST I CONFUTE
 AND UP AND DOWN, WHEREVER IT GOES
 I DRAG MY STUDENTS BY THE NOSE --
 AND SEE THAT FOR ALL OUR SCIENCE AND ART
 WE CAN KNOW NOTHING.  IT BURNS MY HEART.

                                       -- FAUST
 Job cpu time:       0 days  1 hours 23 minutes 10.4 seconds.
 Elapsed time:       0 days  0 hours  2 minutes 36.8 seconds.
 File lengths (MBytes):  RWF=    224 Int=      0 D2E=      0 Chk=     26 Scr=      1
 Normal termination of Gaussian 16 at Mon Nov 14 15:12:10 2022.
