 Entering Gaussian System, Link 0=g16
 Input=_conf030.gjf
 Output=_conf030.log
 Initial command:
 /opt/ap/G16/B01/g16/l1.exe "/tmp2/scr/Gau-13973.inp" -scrdir="/tmp2/scr/"
 Entering Link 1 = /opt/ap/G16/B01/g16/l1.exe PID=     13974.
  
 Copyright (c) 1988-2017, Gaussian, Inc.  All Rights Reserved.
  
 This is part of the Gaussian(R) 16 program.  It is based on
 the Gaussian(R) 09 system (copyright 2009, Gaussian, Inc.),
 the Gaussian(R) 03 system (copyright 2003, Gaussian, Inc.),
 the Gaussian(R) 98 system (copyright 1998, Gaussian, Inc.),
 the Gaussian(R) 94 system (copyright 1995, Gaussian, Inc.),
 the Gaussian 92(TM) system (copyright 1992, Gaussian, Inc.),
 the Gaussian 90(TM) system (copyright 1990, Gaussian, Inc.),
 the Gaussian 88(TM) system (copyright 1988, Gaussian, Inc.),
 the Gaussian 86(TM) system (copyright 1986, Carnegie Mellon
 University), and the Gaussian 82(TM) system (copyright 1983,
 Carnegie Mellon University). Gaussian is a federally registered
 trademark of Gaussian, Inc.
  
 This software contains proprietary and confidential information,
 including trade secrets, belonging to Gaussian, Inc.
  
 This software is provided under written license and may be
 used, copied, transmitted, or stored only in accord with that
 written license.
  
 The following legend is applicable only to US Government
 contracts under FAR:
  
                    RESTRICTED RIGHTS LEGEND
  
 Use, reproduction and disclosure by the US Government is
 subject to restrictions as set forth in subparagraphs (a)
 and (c) of the Commercial Computer Software - Restricted
 Rights clause in FAR 52.227-19.
  
 Gaussian, Inc.
 340 Quinnipiac St., Bldg. 40, Wallingford CT 06492
  
  
 ---------------------------------------------------------------
 Warning -- This program may not be used in any manner that
 competes with the business of Gaussian, Inc. or will provide
 assistance to any competitor of Gaussian, Inc.  The licensee
 of this program is prohibited from giving any competitor of
 Gaussian, Inc. access to this program.  By using this program,
 the user acknowledges that Gaussian, Inc. is engaged in the
 business of creating and licensing software in the field of
 computational chemistry and represents and warrants to the
 licensee that it is not a competitor of Gaussian, Inc. and that
 it will not use this program in any manner prohibited above.
 ---------------------------------------------------------------
  

 Cite this work as:
 Gaussian 16, Revision B.01,
 M. J. Frisch, G. W. Trucks, H. B. Schlegel, G. E. Scuseria, 
 M. A. Robb, J. R. Cheeseman, G. Scalmani, V. Barone, 
 G. A. Petersson, H. Nakatsuji, X. Li, M. Caricato, A. V. Marenich, 
 J. Bloino, B. G. Janesko, R. Gomperts, B. Mennucci, H. P. Hratchian, 
 J. V. Ortiz, A. F. Izmaylov, J. L. Sonnenberg, D. Williams-Young, 
 F. Ding, F. Lipparini, F. Egidi, J. Goings, B. Peng, A. Petrone, 
 T. Henderson, D. Ranasinghe, V. G. Zakrzewski, J. Gao, N. Rega, 
 G. Zheng, W. Liang, M. Hada, M. Ehara, K. Toyota, R. Fukuda, 
 J. Hasegawa, M. Ishida, T. Nakajima, Y. Honda, O. Kitao, H. Nakai, 
 T. Vreven, K. Throssell, J. A. Montgomery, Jr., J. E. Peralta, 
 F. Ogliaro, M. J. Bearpark, J. J. Heyd, E. N. Brothers, K. N. Kudin, 
 V. N. Staroverov, T. A. Keith, R. Kobayashi, J. Normand, 
 K. Raghavachari, A. P. Rendell, J. C. Burant, S. S. Iyengar, 
 J. Tomasi, M. Cossi, J. M. Millam, M. Klene, C. Adamo, R. Cammi, 
 J. W. Ochterski, R. L. Martin, K. Morokuma, O. Farkas, 
 J. B. Foresman, and D. J. Fox, Gaussian, Inc., Wallingford CT, 2016.
 
 ******************************************
 Gaussian 16:  ES64L-G16RevB.01 20-Dec-2017
                14-Nov-2022 
 ******************************************
 %nprocshared=32
 Will use up to   32 processors via shared memory.
 %mem=120GB
 %chk=_conf030.chk
 ----------------------------------------
 #P wB97XD/6-311++G(d,p) scf=maxcycle=512
 ----------------------------------------
 1/38=1,172=1/1;
 2/12=2,17=6,18=5,40=1/2;
 3/5=4,6=6,7=1111,11=2,25=1,30=1,74=-58/1,2,3;
 4//1;
 5/5=2,7=512,38=5/2;
 6/7=2,8=2,9=2,10=2,28=1/1;
 99/5=1,9=1/99;
 Leave Link    1 at Mon Nov 14 15:19:49 2022, MaxMem= 16106127360 cpu:               2.4 elap:               0.1
 (Enter /opt/ap/G16/B01/g16/l101.exe)
 ----------------------------
 _conf030.gjf nmol_natom 1_42
 ----------------------------
 Symbolic Z-matrix:
 Charge =  0 Multiplicity = 1
 C
 C                    1     1.39413 
 C                    1     1.39435  2     118.86443 
 C                    2     1.39416  1     121.15295  3     0.03668  0
 H                    2     1.08488  1     119.42237  3    -179.97409  0
 C                    1     1.48467  2     120.55715  4     179.25839  0
 C                    3     1.39438  1     121.11776  2    -0.05351  0
 H                    3     1.08488  1     119.41869  2     177.23008  0
 C                    4     1.39432  2     118.86474  1     0.01008  0
 C                    4     1.48467  2     120.54642  1     179.19455  0
 C                    6     1.39685  1     120.78435  2     60.      0
 C                    6     1.39687  1     120.67654  2    -120.     0
 C                    7     1.4845   3     120.56497  1    -179.96326  0
 H                    9     1.08488  4     119.41825  2     177.22246  0
 C                    10    1.39685  4     120.76947  2    -42.52369  0
 C                    10    1.39686  4     120.69449  2     137.43108  0
 C                    11    1.38889  6     120.73801  1     179.94059  0
 H                    11    1.08476  6     119.46912  1    -1.41051  0
 C                    12    1.38882  6     120.76493  1    -179.95083  0
 H                    12    1.08483  6     119.44183  1    -1.23603  0
 C                    13    1.39683  7     120.74134  3     42.89023  0
 C                    13    1.39683  7     120.73791  3    -137.12494  0
 C                    15    1.38888  10    120.74219  4     179.94601  0
 H                    15    1.08476  10    119.47086  4    -1.40607  0
 C                    16    1.38886  10    120.76339  4    -179.95593  0
 H                    16    1.08483  10    119.44215  4    -1.2344   0
 C                    17    1.39008  11    120.20743  6     0.0035   0
 H                    17    1.08435  11    119.71319  6     179.50116  0
 H                    19    1.08436  12    119.73823  6     179.53684  0
 C                    21    1.38882  13    120.76699  7     179.99298  0
 H                    21    1.08479  13    119.43526  7     1.32183  0
 C                    22    1.38882  13    120.76647  7    -179.97118  0
 H                    22    1.0848   13    119.43204  7     1.34658  0
 C                    23    1.39007  15    120.20733  10    0.00574  0
 H                    23    1.08435  15    119.71221  10    179.50724  0
 H                    25    1.08436  16    119.73539  10    179.53636  0
 H                    27    1.08413  17    120.21791  11    179.98397  0
 C                    30    1.39008  21    120.18795  13   -0.02169  0
 H                    30    1.08435  21    119.73787  13   -179.52151  0
 H                    32    1.08435  22    119.73704  13   -179.52887  0
 H                    34    1.08412  23    120.22153  15    179.988  0
 H                    38    1.08411  30    120.21547  21   -179.98601  0
 
 ITRead=  0  0  0  0  0  0  0  0  0  0  0  0  0  0  0  0  0  0  0  0
 ITRead=  0  0  0  0  0  0  0  0  0  0  0  0  0  0  0  0  0  0  0  0
 ITRead=  0  0
 MicOpt= -1 -1 -1 -1 -1 -1 -1 -1 -1 -1 -1 -1 -1 -1 -1 -1 -1 -1 -1 -1
 MicOpt= -1 -1 -1 -1 -1 -1 -1 -1 -1 -1 -1 -1 -1 -1 -1 -1 -1 -1 -1 -1
 MicOpt= -1 -1
 NAtoms=     42 NQM=       42 NQMF=       0 NMMI=      0 NMMIF=      0
                NMic=       0 NMicF=      0.
                    Isotopes and Nuclear Properties:
 (Nuclear quadrupole moments (NQMom) in fm**2, nuclear magnetic moments (NMagM)
  in nuclear magnetons)

  Atom         1           2           3           4           5           6           7           8           9          10
 IAtWgt=          12          12          12          12           1          12          12           1          12          12
 AtmWgt=  12.0000000  12.0000000  12.0000000  12.0000000   1.0078250  12.0000000  12.0000000   1.0078250  12.0000000  12.0000000
 NucSpn=           0           0           0           0           1           0           0           1           0           0
 AtZEff=  -0.0000000  -0.0000000  -0.0000000  -0.0000000  -0.0000000  -0.0000000  -0.0000000  -0.0000000  -0.0000000  -0.0000000
 NQMom=    0.0000000   0.0000000   0.0000000   0.0000000   0.0000000   0.0000000   0.0000000   0.0000000   0.0000000   0.0000000
 NMagM=    0.0000000   0.0000000   0.0000000   0.0000000   2.7928460   0.0000000   0.0000000   2.7928460   0.0000000   0.0000000
 AtZNuc=   6.0000000   6.0000000   6.0000000   6.0000000   1.0000000   6.0000000   6.0000000   1.0000000   6.0000000   6.0000000

  Atom        11          12          13          14          15          16          17          18          19          20
 IAtWgt=          12          12          12           1          12          12          12           1          12           1
 AtmWgt=  12.0000000  12.0000000  12.0000000   1.0078250  12.0000000  12.0000000  12.0000000   1.0078250  12.0000000   1.0078250
 NucSpn=           0           0           0           1           0           0           0           1           0           1
 AtZEff=  -0.0000000  -0.0000000  -0.0000000  -0.0000000  -0.0000000  -0.0000000  -0.0000000  -0.0000000  -0.0000000  -0.0000000
 NQMom=    0.0000000   0.0000000   0.0000000   0.0000000   0.0000000   0.0000000   0.0000000   0.0000000   0.0000000   0.0000000
 NMagM=    0.0000000   0.0000000   0.0000000   2.7928460   0.0000000   0.0000000   0.0000000   2.7928460   0.0000000   2.7928460
 AtZNuc=   6.0000000   6.0000000   6.0000000   1.0000000   6.0000000   6.0000000   6.0000000   1.0000000   6.0000000   1.0000000

  Atom        21          22          23          24          25          26          27          28          29          30
 IAtWgt=          12          12          12           1          12           1          12           1           1          12
 AtmWgt=  12.0000000  12.0000000  12.0000000   1.0078250  12.0000000   1.0078250  12.0000000   1.0078250   1.0078250  12.0000000
 NucSpn=           0           0           0           1           0           1           0           1           1           0
 AtZEff=  -0.0000000  -0.0000000  -0.0000000  -0.0000000  -0.0000000  -0.0000000  -0.0000000  -0.0000000  -0.0000000  -0.0000000
 NQMom=    0.0000000   0.0000000   0.0000000   0.0000000   0.0000000   0.0000000   0.0000000   0.0000000   0.0000000   0.0000000
 NMagM=    0.0000000   0.0000000   0.0000000   2.7928460   0.0000000   2.7928460   0.0000000   2.7928460   2.7928460   0.0000000
 AtZNuc=   6.0000000   6.0000000   6.0000000   1.0000000   6.0000000   1.0000000   6.0000000   1.0000000   1.0000000   6.0000000

  Atom        31          32          33          34          35          36          37          38          39          40
 IAtWgt=           1          12           1          12           1           1           1          12           1           1
 AtmWgt=   1.0078250  12.0000000   1.0078250  12.0000000   1.0078250   1.0078250   1.0078250  12.0000000   1.0078250   1.0078250
 NucSpn=           1           0           1           0           1           1           1           0           1           1
 AtZEff=  -0.0000000  -0.0000000  -0.0000000  -0.0000000  -0.0000000  -0.0000000  -0.0000000  -0.0000000  -0.0000000  -0.0000000
 NQMom=    0.0000000   0.0000000   0.0000000   0.0000000   0.0000000   0.0000000   0.0000000   0.0000000   0.0000000   0.0000000
 NMagM=    2.7928460   0.0000000   2.7928460   0.0000000   2.7928460   2.7928460   2.7928460   0.0000000   2.7928460   2.7928460
 AtZNuc=   1.0000000   6.0000000   1.0000000   6.0000000   1.0000000   1.0000000   1.0000000   6.0000000   1.0000000   1.0000000

  Atom        41          42
 IAtWgt=           1           1
 AtmWgt=   1.0078250   1.0078250
 NucSpn=           1           1
 AtZEff=  -0.0000000  -0.0000000
 NQMom=    0.0000000   0.0000000
 NMagM=    2.7928460   2.7928460
 AtZNuc=   1.0000000   1.0000000
 Leave Link  101 at Mon Nov 14 15:19:49 2022, MaxMem= 16106127360 cpu:               6.1 elap:               0.2
 (Enter /opt/ap/G16/B01/g16/l202.exe)
                          Input orientation:                          
 ---------------------------------------------------------------------
 Center     Atomic      Atomic             Coordinates (Angstroms)
 Number     Number       Type             X           Y           Z
 ---------------------------------------------------------------------
      1          6           0        0.000000    0.000000    0.000000
      2          6           0        0.000000    0.000000    1.394128
      3          6           0        1.221126    0.000000   -0.673109
      4          6           0        1.193108    0.000764    2.115362
      5          1           0       -0.944957   -0.000427    1.927071
      6          6           0       -1.278366   -0.017366   -0.754803
      7          6           0        2.428476    0.001115    0.024455
      8          1           0        1.232154   -0.045667   -1.756969
      9          6           0        2.400843    0.001752    1.418572
     10          6           0        1.177445    0.018728    3.599837
     11          6           0       -2.213078    1.009291   -0.601579
     12          6           0       -1.572508   -1.061894   -1.634395
     13          6           0        3.721572    0.001921   -0.704680
     14          1           0        3.334061    0.048144    1.969857
     15          6           0        0.290794    0.844275    4.295193
     16          6           0        2.049080   -0.790881    4.331965
     17          6           0       -3.408135    0.992703   -1.309093
     18          1           0       -2.010363    1.816012    0.094713
     19          6           0       -2.767330   -1.079469   -2.342156
     20          1           0       -0.848354   -1.856434   -1.779855
     21          6           0        3.910862    0.818865   -1.821777
     22          6           0        4.776237   -0.814044   -0.288725
     23          6           0        0.275860    0.859807    5.683909
     24          1           0       -0.377402    1.495584    3.742000
     25          6           0        2.035025   -0.775886    5.720674
     26          1           0        2.729408   -1.453102    3.807101
     27          6           0       -3.689363   -0.051482   -2.182538
     28          1           0       -4.125472    1.794115   -1.171313
     29          1           0       -2.975315   -1.894672   -3.026276
     30          6           0        5.120444    0.820149   -2.504230
     31          1           0        3.109266    1.474569   -2.144691
     32          6           0        5.986440   -0.813321   -0.970068
     33          1           0        4.638168   -1.470412    0.563864
     34          6           0        1.147946    0.049642    6.401818
     35          1           0       -0.413890    1.513063    6.206701
     36          1           0        2.713797   -1.416787    6.272362
     37          1           0       -4.622250   -0.064734   -2.734692
     38          6           0        6.162883    0.003944   -2.080611
     39          1           0        5.251831    1.466740   -3.364741
     40          1           0        6.791448   -1.459089   -0.637249
     41          1           0        1.136620    0.061726    7.485815
     42          1           0        7.107346    0.004761   -2.612865
 ---------------------------------------------------------------------
                    Distance matrix (angstroms):
                    1          2          3          4          5
     1  C    0.000000
     2  C    1.394128   0.000000
     3  C    1.394354   2.400962   0.000000
     4  C    2.428634   1.394161   2.788612   0.000000
     5  H    2.146287   1.084884   3.384206   2.146341   0.000000
     6  C    1.484671   2.500485   2.500887   3.787659   2.702572
     7  C    2.428599   2.788100   1.394378   2.428585   3.872983
     8  H    2.146445   3.383741   1.084878   3.872806   4.279487
     9  C    2.788619   2.400968   2.401430   1.394324   3.384222
    10  C    3.787552   2.500376   4.273210   1.484666   2.702426
    11  C    2.505649   3.146304   3.580159   4.472247   3.003619
    12  C    2.504326   3.573843   3.139440   4.778970   3.768895
    13  C    3.787700   4.272598   2.500646   3.787581   5.357482
    14  H    3.872805   3.383747   3.384092   2.146415   4.279508
    15  C    4.387032   3.035381   5.124680   2.505463   2.801537
    16  C    4.856969   3.668120   5.134371   2.504540   3.920790
    17  C    3.783460   4.461866   4.777028   5.820848   4.186443
    18  H    2.710799   3.004653   3.785495   4.200044   2.791429
    19  C    3.782732   4.773174   4.456316   6.059821   4.765676
    20  H    2.708124   3.773622   2.992320   4.773831   4.146733
    21  C    4.391384   5.129076   3.037212   4.853507   6.189029
    22  C    4.853707   5.129045   3.667320   4.391169   6.189006
    23  C    5.755188   4.383786   6.484171   3.783362   4.042800
    24  H    4.047440   2.809218   4.928007   2.710524   2.419532
    25  C    6.121229   4.843792   6.491910   3.782894   4.886007
    26  H    4.904609   3.922195   4.945574   2.708491   4.375585
    27  C    4.286902   5.138735   5.137503   6.504860   4.941989
    28  H    4.648692   5.178789   5.661551   6.504277   4.789158
    29  H    4.647647   5.655285   5.170812   6.885119   5.678570
    30  C    5.758711   6.487587   4.385239   6.118495   7.556379
    31  H    4.054822   4.936104   2.811579   4.898143   5.932249
    32  C    6.118822   6.487555   4.843334   5.758354   7.556353
    33  H    4.898230   4.935996   3.920254   4.054620   5.932156
    34  C    6.504116   5.137821   7.075480   4.286973   4.940255
    35  H    6.401859   5.061770   7.231488   4.648499   4.570330
    36  H    6.979577   5.759266   7.243957   4.647859   5.854410
    37  H    5.371027   6.198108   6.196722   7.572694   5.937900
    38  C    6.504621   7.074953   5.138292   6.504219   8.159837
    39  H    6.407382   7.237395   5.063871   6.975231   8.279857
    40  H    6.975586   7.237348   5.758361   6.406985   8.279819
    41  H    7.571865   6.197125   8.159595   5.371096   5.936031
    42  H    7.572414   8.159067   6.197601   7.571945   9.243951
                    6          7          8          9         10
     6  C    0.000000
     7  C    3.787910   0.000000
     8  H    2.703303   2.146356   0.000000
     9  C    4.273231   1.394392   3.384102   0.000000
    10  C    4.999520   3.787973   5.357472   2.500981   0.000000
    11  C    1.396850   4.790861   3.783845   5.136575   5.488966
    12  C    1.396868   4.459780   2.985610   5.122448   6.010588
    13  C    5.000226   1.484499   2.703105   2.500505   5.000173
    14  H    5.357476   2.146366   4.279725   1.084879   2.703459
    15  C    5.357906   4.849723   6.189251   3.665665   1.396854
    16  C    6.127433   4.396117   6.188524   3.039714   1.396863
    17  C    2.421445   6.068576   4.776095   6.493563   6.787766
    18  H    2.149133   4.796048   4.172348   4.950039   5.067371
    19  C    2.421728   5.810757   4.172177   6.482447   7.216271
    20  H    2.148909   4.176558   2.758244   4.923421   6.046584
    21  C    5.363376   2.504946   2.815510   3.667109   6.124188
    22  C    6.124553   2.504906   3.912375   3.036921   5.363369
    23  C    6.681472   6.115597   7.556523   4.841994   2.421492
    24  H    4.829285   4.891475   5.933362   3.917716   2.149154
    25  C    7.313393   5.762417   7.555989   4.387097   2.421736
    26  H    6.239756   4.063707   5.931401   2.815959   2.148914
    27  C    2.802231   6.503963   4.939886   7.075411   7.558215
    28  H    3.400141   6.899198   5.694905   7.246575   7.350972
    29  H    3.400515   6.488599   4.767887   7.228843   8.050583
    30  C    6.686306   3.783088   4.053003   4.842972   7.310892
    31  H    4.838282   2.709194   2.446425   3.920191   6.233057
    32  C    7.311449   3.783053   4.879728   4.384797   6.686012
    33  H    6.233426   2.709077   4.360860   2.811302   4.838519
    34  C    7.557031   6.504835   8.159779   5.138559   2.802307
    35  H    7.179977   6.970308   8.280044   5.756123   3.400165
    36  H    8.202243   6.413127   8.279214   5.066504   3.400510
    37  H    3.886356   7.571655   5.935516   8.159526   8.588928
    38  C    7.558466   4.286853   4.941589   5.137824   7.557929
    39  H    7.187337   4.648230   4.585860   5.757987   8.197725
    40  H    8.198432   4.648180   5.844424   5.063385   7.187062
    41  H    8.587561   7.572613   9.243902   6.197846   3.886431
    42  H    8.589123   5.370968   5.937422   6.197069   8.588456
                   11         12         13         14         15
    11  C    0.000000
    12  C    2.401427   0.000000
    13  C    6.020423   5.479357   0.000000
    14  H    6.189251   6.188476   2.702860   0.000000
    15  C    5.502270   6.501184   6.121971   3.911840   0.000000
    16  C    6.763613   6.984755   5.365963   2.816859   2.401387
    17  C    1.388889   2.774296   7.223551   7.556514   6.716556
    18  H    1.084764   3.385835   6.065067   5.933329   4.887088
    19  C    2.774838   1.388824   6.779128   7.555921   7.556938
    20  H    3.385733   1.084828   5.049129   5.931303   6.745198
    21  C    6.247222   5.799975   1.396829   3.911930   7.107943
    22  C    7.230004   6.494523   1.396832   2.815037   6.624314
    23  C    6.761990   7.788901   7.309101   4.879095   1.388883
    24  H    4.740555   6.072446   6.229413   4.360107   1.084763
    25  C    7.823306   8.197142   6.688393   4.054029   2.774755
    26  H    7.065975   6.947619   4.843310   2.448430   3.385708
    27  C    2.409169   2.408832   7.557041   8.159706   7.655393
    28  H    2.144247   3.858608   8.062617   8.280096   7.091423
    29  H    3.859166   2.144462   7.337245   8.279137   8.471907
    30  C    7.578680   7.006732   2.421718   4.878996   8.340159
    31  H    5.561027   5.349117   2.148776   4.360587   7.057844
    32  C    8.407722   7.592154   2.421709   4.052208   7.931644
    33  H    7.378805   6.600889   2.148749   2.446125   6.179018
    34  C    7.827195   8.556700   7.558317   4.941800   2.409154
    35  H    7.059995   8.334002   8.194680   5.843284   2.144229
    36  H    8.798352   9.000843   7.190790   4.587189   3.859086
    37  H    3.392317   3.392036   8.587477   9.243831   8.624592
    38  C    8.564752   7.821215   2.802355   4.940696   8.708529
    39  H    7.973029   7.480621   3.400487   5.843645   9.147346
    40  H    9.336791   8.432546   3.400476   4.585006   8.478973
    41  H    8.804788   9.580195   8.588933   5.937569   3.392325
    42  H    9.587734   8.799717   3.886469   5.936405   9.741223
                   16         17         18         19         20
    16  C    0.000000
    17  C    8.048845   0.000000
    18  H    6.421003   2.145291   0.000000
    19  C    8.235592   2.402446   3.859422   0.000000
    20  H    6.847253   3.858974   4.283822   2.145303   0.000000
    21  C    6.627673   7.338991   6.303027   6.962235   5.459773
    22  C    5.365510   8.443307   7.288496   7.822560   5.911520
    23  C    2.774316   7.905160   6.113939   8.799972   8.021820
    24  H    3.385823   5.912002   4.008982   7.025639   6.476782
    25  C    1.388861   9.064961   7.398280   9.389569   8.107984
    26  H    1.084834   8.356245   6.850866   8.256336   6.646588
    27  C    8.712933   1.390079   3.390052   1.390101   3.389888
    28  H    8.665643   1.084351   2.465154   3.387168   4.943312
    29  H    8.978118   3.387180   4.943772   1.084359   2.465561
    30  C    7.665654   8.613639   7.654714   8.114912   6.581441
    31  H    6.942862   6.588394   5.598403   6.410654   5.185695
    32  C    6.604154   9.572601   8.485046   8.864646   6.961196
    33  H    4.622091   8.620783   7.431262   7.964872   5.978625
    34  C    2.408903   9.005853   7.271489   9.646831   8.634704
    35  H    3.858628   8.106999   6.324310   9.238119   8.679132
    36  H    2.144469  10.038035   8.422115  10.215990   8.815918
    37  H    9.745336   2.150485   4.285405   2.150465   4.285346
    38  C    7.660043   9.652838   8.649716   8.999494   7.260090
    39  H    8.636768   8.913216   8.051663   8.475600   7.125139
    40  H    6.901424  10.511620   9.419869   9.717050   7.734986
    41  H    3.392092   9.943436   8.222494  10.636360   9.668097
    42  H    8.628428  10.641954   9.682160   9.937709   8.212862
                   21         22         23         24         25
    21  C    0.000000
    22  C    2.401148   0.000000
    23  C    8.339678   7.663388   0.000000
    24  H    7.057108   6.938381   2.145221   0.000000
    25  C    7.934139   6.605193   2.402396   3.859344   0.000000
    26  H    6.184005   4.623169   3.858996   4.283837   2.145356
    27  C    7.658399   8.708297   8.856322   6.961512   9.785405
    28  H    8.121384   9.317826   8.199922   6.186905   9.594588
    29  H    7.498902   8.291472   9.696629   8.003283  10.142205
    30  C    1.388824   2.774442   9.514051   8.348527   8.928391
    31  H    1.084794   3.385432   8.348239   6.841814   8.251212
    32  C    2.774430   1.388819   8.926672   8.248218   7.770528
    33  H    3.385417   1.084800   7.118603   6.637291   5.818196
    34  C    8.709358   7.659884   1.390070   3.389995   1.390095
    35  H    9.145591   8.633852   1.084348   2.465033   3.387137
    36  H    8.482109   6.903971   3.387136   4.943698   1.084363
    37  H    8.627176   9.740420   9.783614   7.899422  10.785095
    38  C    2.408878   2.408889   9.781478   8.882743   8.860440
    39  H    2.144453   3.858761  10.344405   9.066139   9.895553
    40  H    3.858751   2.144441   9.369482   8.905073   7.969536
    41  H    9.741711   8.628862   2.150513   4.285366   2.150453
    42  H    3.392063   3.392069  10.781315   9.931179   9.787018
                   26         27         28         29         30
    26  H    0.000000
    27  C    8.890497   0.000000
    28  H    9.072949   2.149185   0.000000
    29  H    8.912569   2.149210   4.286129   0.000000
    30  C    7.121630   8.858664   9.392136   8.554770   0.000000
    31  H    6.643746   6.967900   7.306915   7.010784   2.145313
    32  C    5.817122   9.781188  10.444614   9.257989   2.402462
    33  H    3.763276   8.882785   9.511538   8.428181   3.859075
    34  C    3.389959   9.853982   9.391722  10.472373   9.782234
    35  H    4.943333   9.140889   8.263771  10.169632  10.343562
    36  H    2.465578  10.693449  10.606308  10.911417   9.371467
    37  H    9.938285   1.084125   2.479166   2.479130   9.785510
    38  C    6.969712   9.852930  10.482451   9.381135   1.390081
    39  H    8.143918   9.145904   9.635980   8.893794   1.084353
    40  H    6.021000  10.687221  11.403846  10.064136   3.387152
    41  H    4.285396  10.806479  10.277968  11.455983  10.781792
    42  H    7.906179  10.805428  11.465428  10.268340   2.150451
                   31         32         33         34         35
    31  H    0.000000
    32  C    3.859055   0.000000
    33  H    4.283308   2.145356   0.000000
    34  C    8.883693   8.860047   6.969499   0.000000
    35  H    9.064207   9.893547   8.140394   2.149187   0.000000
    36  H    8.908597   7.970392   6.024369   2.149200   4.286112
    37  H    7.905308  10.780472   9.930345  10.806668  10.007410
    38  C    3.389900   1.390094   3.389946   9.854100  10.686951
    39  H    2.465597   3.387150   4.943418  10.688111  11.122726
    40  H    4.943399   1.084354   2.465647   9.147341  10.372571
    41  H    9.931470   9.787155   7.907066   1.084123   2.479233
    42  H    4.285343   2.150458   4.285392  10.806525  11.688828
                   36         37         38         39         40
    36  H    0.000000
    37  H   11.694984   0.000000
    38  C    9.148051  10.805167   0.000000
    39  H   10.374492  10.011985   2.149134   0.000000
    40  H    8.023201  11.688285   2.149152   4.286037   0.000000
    41  H    2.479104  11.731979  10.806626  11.689465  10.013697
    42  H   10.013557  11.730434   1.084114   2.479039   2.479054
                   41         42
    41  H    0.000000
    42  H   11.731844   0.000000
 Stoichiometry    C24H18
 Framework group  C1[X(C24H18)]
 Deg. of freedom   120
 Full point group                 C1      NOp   1
 Largest Abelian subgroup         C1      NOp   1
 Largest concise Abelian subgroup C1      NOp   1
                         Standard orientation:                         
 ---------------------------------------------------------------------
 Center     Atomic      Atomic             Coordinates (Angstroms)
 Number     Number       Type             X           Y           Z
 ---------------------------------------------------------------------
      1          6           0       -1.398457   -0.091387    0.041164
      2          6           0       -0.768443    1.152246    0.048632
      3          6           0       -0.613939   -1.243090   -0.007171
      4          6           0        0.621181    1.257030    0.008030
      5          1           0       -1.370071    2.054233    0.086527
      6          6           0       -2.878761   -0.187983    0.101300
      7          6           0        0.777675   -1.165842   -0.048773
      8          1           0       -1.092527   -2.215900    0.032254
      9          6           0        1.383029    0.090269   -0.040929
     10          6           0        1.277515    2.588710   -0.001395
     11          6           0       -3.673926    0.392558   -0.889596
     12          6           0       -3.506892   -0.862117    1.151174
     13          6           0        1.601015   -2.399996   -0.100849
     14          1           0        2.462766    0.161747   -0.118519
     15          6           0        0.776275    3.626875   -0.790175
     16          6           0        2.409972    2.831053    0.779654
     17          6           0       -5.058610    0.300555   -0.833035
     18          1           0       -3.202947    0.939380   -1.699458
     19          6           0       -4.891448   -0.954467    1.208710
     20          1           0       -2.902965   -1.335728    1.917865
     21          6           0        1.240239   -3.464529   -0.930151
     22          6           0        2.753966   -2.522457    0.678154
     23          6           0        1.390058    4.872751   -0.797709
     24          1           0       -0.089155    3.448936   -1.419525
     25          6           0        3.024552    4.076515    0.772623
     26          1           0        2.799368    2.041600    1.413689
     27          6           0       -5.672461   -0.373918    0.216057
     28          1           0       -5.660139    0.764384   -1.606884
     29          1           0       -5.361369   -1.488233    2.027308
     30          6           0        2.010202   -4.619328   -0.979396
     31          1           0        0.359807   -3.376732   -1.557773
     32          6           0        3.525002   -3.676558    0.629452
     33          1           0        3.036019   -1.713576    1.343697
     34          6           0        2.516508    5.102195   -0.016197
     35          1           0        0.991595    5.664417   -1.422451
     36          1           0        3.898414    4.248559    1.391177
     37          1           0       -6.753299   -0.445614    0.260512
     38          6           0        3.155723   -4.729440   -0.199665
     39          1           0        1.718908   -5.432469   -1.634966
     40          1           0        4.412650   -3.756848    1.247074
     41          1           0        2.995907    6.074545   -0.022050
     42          1           0        3.757208   -5.630581   -0.237927
 ---------------------------------------------------------------------
 Rotational constants (GHZ):           0.1977356           0.1957879           0.1042397
 Leave Link  202 at Mon Nov 14 15:19:49 2022, MaxMem= 16106127360 cpu:               0.2 elap:               0.0
 (Enter /opt/ap/G16/B01/g16/l301.exe)
 Standard basis: 6-311++G(d,p) (5D, 7F)
 Ernie: Thresh=  0.10000D-02 Tol=  0.10000D-05 Strict=F.
 There are   678 symmetry adapted cartesian basis functions of A   symmetry.
 There are   654 symmetry adapted basis functions of A   symmetry.
   654 basis functions,  1026 primitive gaussians,   678 cartesian basis functions
    81 alpha electrons       81 beta electrons
       nuclear repulsion energy      1731.5189215903 Hartrees.
 IExCor= 4639 DFT=T Ex+Corr=wB97XD ExCW=0 ScaHFX=  1.000000
 ScaDFX=  1.000000  1.000000  1.000000  1.000000 ScalE2=  1.000000  1.000000
 IRadAn=      5 IRanWt=     -1 IRanGd=            0 ICorTp=0 IEmpDi=121
 HFx  wShort=  0.000000 wLong=  0.200000 cFull=  0.222036 cShort=  0.000000 cLong=  0.777964
 DFx  wShort=  0.000000 wLong=  0.200000 cFull=  0.000000 cShort=  0.000000 cLong=  1.000000
 NAtoms=   42 NActive=   42 NUniq=   42 SFac= 1.00D+00 NAtFMM=   60 NAOKFM=F Big=F
 Integral buffers will be    131072 words long.
 Raffenetti 2 integral format.
 Two-electron integral symmetry is turned on.
 R6Disp:  Grimme-D2 Dispersion energy=       -0.0288684670 Hartrees.
 Nuclear repulsion after empirical dispersion term =     1731.4900531233 Hartrees.
 Leave Link  301 at Mon Nov 14 15:19:49 2022, MaxMem= 16106127360 cpu:               2.0 elap:               0.1
 (Enter /opt/ap/G16/B01/g16/l302.exe)
 NPDir=0 NMtPBC=     1 NCelOv=     1 NCel=       1 NClECP=     1 NCelD=      1
         NCelK=      1 NCelE2=     1 NClLst=     1 CellRange=     0.0.
 One-electron integrals computed using PRISM.
 One-electron integral symmetry used in STVInt
 NBasis=   654 RedAO= T EigKep=  1.35D-06  NBF=   654
 NBsUse=   645 1.00D-06 EigRej=  9.41D-07 NBFU=   645
 Precomputing XC quadrature grid using
 IXCGrd= 4 IRadAn=           5 IRanWt=          -1 IRanGd=           0 AccXCQ= 0.00D+00.
 Generated NRdTot=       0 NPtTot=           0 NUsed=           0 NTot=          32
 NSgBfM=   669   669   669   669   669 MxSgAt=    42 MxSgA2=    42.
 Leave Link  302 at Mon Nov 14 15:19:50 2022, MaxMem= 16106127360 cpu:              20.9 elap:               0.7
 (Enter /opt/ap/G16/B01/g16/l303.exe)
 DipDrv:  MaxL=1.
 Leave Link  303 at Mon Nov 14 15:19:50 2022, MaxMem= 16106127360 cpu:               2.9 elap:               0.1
 (Enter /opt/ap/G16/B01/g16/l401.exe)
 ExpMin= 3.60D-02 ExpMax= 4.56D+03 ExpMxC= 6.82D+02 IAcc=3 IRadAn=         5 AccDes= 0.00D+00
 Harris functional with IExCor= 4639 and IRadAn=       5 diagonalized for initial guess.
 HarFok:  IExCor= 4639 AccDes= 0.00D+00 IRadAn=         5 IDoV= 1 UseB2=F ITyADJ=14
 ICtDFT=  3500011 ScaDFX=  1.000000  1.000000  1.000000  1.000000
 FoFCou: FMM=F IPFlag=           0 FMFlag=      100000 FMFlg1=           0
         NFxFlg=           0 DoJE=T BraDBF=F KetDBF=T FulRan=T
         wScrn=  0.000000 ICntrl=       500 IOpCl=  0 I1Cent=   200000004 NGrid=           0
         NMat0=    1 NMatS0=      1 NMatT0=    0 NMatD0=    1 NMtDS0=    0 NMtDT0=    0
 Petite list used in FoFCou.
 Harris En= -882.969241384286    
 JPrj=0 DoOrth=F DoCkMO=F.
 Leave Link  401 at Mon Nov 14 15:19:52 2022, MaxMem= 16106127360 cpu:              55.4 elap:               1.7
 (Enter /opt/ap/G16/B01/g16/l502.exe)
 Integral symmetry usage will be decided dynamically.
 Closed shell SCF:
 Using DIIS extrapolation, IDIIS=  1040.
 NGot= 16106127360 LenX= 16105179956 LenY= 16104719594
 Requested convergence on RMS density matrix=1.00D-08 within 512 cycles.
 Requested convergence on MAX density matrix=1.00D-06.
 Requested convergence on             energy=1.00D-06.
 No special actions if energy rises.
 Fock matrices will be formed incrementally for  20 cycles.

 Cycle   1  Pass 1  IDiag  1:
 FoFJK:  IHMeth= 1 ICntrl=       0 DoSepK=T KAlg= 0 I1Cent=           0 FoldK=F
 IRaf=         1 NMat=       1 IRICut=       1 DoRegI=T DoRafI=F ISym2E= 0 IDoP0=0 IntGTp=1.
 FoFCou: FMM=F IPFlag=           0 FMFlag=      100000 FMFlg1=           0
         NFxFlg=           0 DoJE=T BraDBF=F KetDBF=F FulRan=T
         wScrn=  0.000000 ICntrl=       500 IOpCl=  0 I1Cent=           0 NGrid=           0
         NMat0=    1 NMatS0=      1 NMatT0=    0 NMatD0=    1 NMtDS0=    0 NMtDT0=    0
 Symmetry not used in FoFCou.
 E= -925.115799408480    
 DIIS: error= 4.70D-02 at cycle   1 NSaved=   1.
 NSaved= 1 IEnMin= 1 EnMin= -925.115799408480     IErMin= 1 ErrMin= 4.70D-02
 ErrMax= 4.70D-02  0.00D+00 EMaxC= 1.00D-01 BMatC= 1.90D+00 BMatP= 1.90D+00
 IDIUse=3 WtCom= 5.30D-01 WtEn= 4.70D-01
 Coeff-Com:  0.100D+01
 Coeff-En:   0.100D+01
 Coeff:      0.100D+01
 Gap=     0.319 Goal=   None    Shift=    0.000
 GapD=    0.319 DampG=1.000 DampE=0.500 DampFc=0.5000 IDamp=-1.
 Damping current iteration by 5.00D-01
 RMSDP=3.60D-02 MaxDP=4.61D+00              OVMax= 4.30D-02

 Cycle   2  Pass 1  IDiag  1:
 RMSU=  6.54D-03    CP:  8.13D-01
 E= -925.214238530370     Delta-E=       -0.098439121890 Rises=F Damp=T
 DIIS: error= 2.28D-02 at cycle   2 NSaved=   2.
 NSaved= 2 IEnMin= 2 EnMin= -925.214238530370     IErMin= 2 ErrMin= 2.28D-02
 ErrMax= 2.28D-02  0.00D+00 EMaxC= 1.00D-01 BMatC= 4.32D-01 BMatP= 1.90D+00
 IDIUse=3 WtCom= 7.72D-01 WtEn= 2.28D-01
 Coeff-Com: -0.883D+00 0.188D+01
 Coeff-En:   0.000D+00 0.100D+01
 Coeff:     -0.681D+00 0.168D+01
 Gap=     0.327 Goal=   None    Shift=    0.000
 RMSDP=2.05D-02 MaxDP=2.08D+00 DE=-9.84D-02 OVMax= 3.41D-02

 Cycle   3  Pass 1  IDiag  1:
 RMSU=  3.79D-03    CP:  5.89D-01  1.34D+00
 E= -925.302447161594     Delta-E=       -0.088208631224 Rises=F Damp=F
 DIIS: error= 3.40D-03 at cycle   3 NSaved=   3.
 NSaved= 3 IEnMin= 3 EnMin= -925.302447161594     IErMin= 3 ErrMin= 3.40D-03
 ErrMax= 3.40D-03  0.00D+00 EMaxC= 1.00D-01 BMatC= 8.73D-03 BMatP= 4.32D-01
 IDIUse=3 WtCom= 9.66D-01 WtEn= 3.40D-02
 Coeff-Com: -0.370D+00 0.785D+00 0.585D+00
 Coeff-En:   0.000D+00 0.000D+00 0.100D+01
 Coeff:     -0.357D+00 0.758D+00 0.599D+00
 Gap=     0.325 Goal=   None    Shift=    0.000
 RMSDP=2.04D-03 MaxDP=2.05D-01 DE=-8.82D-02 OVMax= 1.96D-02

 Cycle   4  Pass 1  IDiag  1:
 RMSU=  1.39D-03    CP:  5.90D-01  1.52D+00  7.60D-01
 E= -925.310441726620     Delta-E=       -0.007994565026 Rises=F Damp=F
 DIIS: error= 7.34D-04 at cycle   4 NSaved=   4.
 NSaved= 4 IEnMin= 4 EnMin= -925.310441726620     IErMin= 4 ErrMin= 7.34D-04
 ErrMax= 7.34D-04  0.00D+00 EMaxC= 1.00D-01 BMatC= 2.79D-04 BMatP= 8.73D-03
 IDIUse=3 WtCom= 9.93D-01 WtEn= 7.34D-03
 Coeff-Com: -0.113D+00 0.240D+00 0.237D+00 0.636D+00
 Coeff-En:   0.000D+00 0.000D+00 0.000D+00 0.100D+01
 Coeff:     -0.112D+00 0.238D+00 0.235D+00 0.638D+00
 Gap=     0.323 Goal=   None    Shift=    0.000
 RMSDP=6.41D-04 MaxDP=5.82D-02 DE=-7.99D-03 OVMax= 4.27D-03

 Cycle   5  Pass 1  IDiag  1:
 RMSU=  2.23D-04    CP:  5.84D-01  1.56D+00  7.72D-01  8.55D-01
 E= -925.310733461858     Delta-E=       -0.000291735238 Rises=F Damp=F
 DIIS: error= 1.78D-04 at cycle   5 NSaved=   5.
 NSaved= 5 IEnMin= 5 EnMin= -925.310733461858     IErMin= 5 ErrMin= 1.78D-04
 ErrMax= 1.78D-04  0.00D+00 EMaxC= 1.00D-01 BMatC= 2.01D-05 BMatP= 2.79D-04
 IDIUse=3 WtCom= 9.98D-01 WtEn= 1.78D-03
 Coeff-Com:  0.261D-01-0.555D-01-0.247D-01 0.195D+00 0.859D+00
 Coeff-En:   0.000D+00 0.000D+00 0.000D+00 0.000D+00 0.100D+01
 Coeff:      0.260D-01-0.554D-01-0.247D-01 0.195D+00 0.859D+00
 Gap=     0.324 Goal=   None    Shift=    0.000
 RMSDP=1.71D-04 MaxDP=1.16D-02 DE=-2.92D-04 OVMax= 1.47D-03

 Cycle   6  Pass 1  IDiag  1:
 RMSU=  6.94D-05    CP:  5.84D-01  1.56D+00  7.95D-01  9.30D-01  1.23D+00
 E= -925.310759036431     Delta-E=       -0.000025574573 Rises=F Damp=F
 DIIS: error= 5.31D-05 at cycle   6 NSaved=   6.
 NSaved= 6 IEnMin= 6 EnMin= -925.310759036431     IErMin= 6 ErrMin= 5.31D-05
 ErrMax= 5.31D-05  0.00D+00 EMaxC= 1.00D-01 BMatC= 1.45D-06 BMatP= 2.01D-05
 IDIUse=1 WtCom= 1.00D+00 WtEn= 0.00D+00
 Coeff-Com:  0.134D-01-0.286D-01-0.164D-01 0.539D-01 0.334D+00 0.644D+00
 Coeff:      0.134D-01-0.286D-01-0.164D-01 0.539D-01 0.334D+00 0.644D+00
 Gap=     0.324 Goal=   None    Shift=    0.000
 RMSDP=7.66D-05 MaxDP=5.52D-03 DE=-2.56D-05 OVMax= 4.00D-04

 Cycle   7  Pass 1  IDiag  1:
 RMSU=  4.15D-05    CP:  5.84D-01  1.56D+00  8.00D-01  9.63D-01  1.20D+00
                    CP:  8.26D-01
 E= -925.310760785589     Delta-E=       -0.000001749157 Rises=F Damp=F
 DIIS: error= 1.31D-05 at cycle   7 NSaved=   7.
 NSaved= 7 IEnMin= 7 EnMin= -925.310760785589     IErMin= 7 ErrMin= 1.31D-05
 ErrMax= 1.31D-05  0.00D+00 EMaxC= 1.00D-01 BMatC= 1.03D-07 BMatP= 1.45D-06
 IDIUse=1 WtCom= 1.00D+00 WtEn= 0.00D+00
 Coeff-Com: -0.225D-02 0.483D-02 0.199D-02-0.274D-01-0.977D-01 0.994D-01
 Coeff-Com:  0.102D+01
 Coeff:     -0.225D-02 0.483D-02 0.199D-02-0.274D-01-0.977D-01 0.994D-01
 Coeff:      0.102D+01
 Gap=     0.324 Goal=   None    Shift=    0.000
 RMSDP=1.77D-05 MaxDP=1.65D-03 DE=-1.75D-06 OVMax= 2.69D-04

 Cycle   8  Pass 1  IDiag  1:
 RMSU=  7.87D-06    CP:  5.84D-01  1.56D+00  8.02D-01  9.66D-01  1.23D+00
                    CP:  9.21D-01  1.20D+00
 E= -925.310761015350     Delta-E=       -0.000000229761 Rises=F Damp=F
 DIIS: error= 6.05D-06 at cycle   8 NSaved=   8.
 NSaved= 8 IEnMin= 8 EnMin= -925.310761015350     IErMin= 8 ErrMin= 6.05D-06
 ErrMax= 6.05D-06  0.00D+00 EMaxC= 1.00D-01 BMatC= 1.14D-08 BMatP= 1.03D-07
 IDIUse=1 WtCom= 1.00D+00 WtEn= 0.00D+00
 Coeff-Com: -0.143D-02 0.305D-02 0.149D-02-0.138D-01-0.520D-01 0.240D-01
 Coeff-Com:  0.401D+00 0.637D+00
 Coeff:     -0.143D-02 0.305D-02 0.149D-02-0.138D-01-0.520D-01 0.240D-01
 Coeff:      0.401D+00 0.637D+00
 Gap=     0.324 Goal=   None    Shift=    0.000
 RMSDP=2.71D-06 MaxDP=1.10D-04 DE=-2.30D-07 OVMax= 6.28D-05

 Cycle   9  Pass 1  IDiag  1:
 RMSU=  2.30D-06    CP:  5.84D-01  1.56D+00  8.02D-01  9.66D-01  1.24D+00
                    CP:  9.26D-01  1.22D+00  1.06D+00
 E= -925.310761030781     Delta-E=       -0.000000015431 Rises=F Damp=F
 DIIS: error= 3.04D-06 at cycle   9 NSaved=   9.
 NSaved= 9 IEnMin= 9 EnMin= -925.310761030781     IErMin= 9 ErrMin= 3.04D-06
 ErrMax= 3.04D-06  0.00D+00 EMaxC= 1.00D-01 BMatC= 2.28D-09 BMatP= 1.14D-08
 IDIUse=1 WtCom= 1.00D+00 WtEn= 0.00D+00
 Coeff-Com:  0.119D-03-0.260D-03 0.640D-04 0.288D-02 0.105D-01-0.169D-01
 Coeff-Com: -0.179D+00 0.246D+00 0.936D+00
 Coeff:      0.119D-03-0.260D-03 0.640D-04 0.288D-02 0.105D-01-0.169D-01
 Coeff:     -0.179D+00 0.246D+00 0.936D+00
 Gap=     0.324 Goal=   None    Shift=    0.000
 RMSDP=2.47D-06 MaxDP=1.50D-04 DE=-1.54D-08 OVMax= 4.79D-05

 Cycle  10  Pass 1  IDiag  1:
 RMSU=  5.80D-07    CP:  5.84D-01  1.56D+00  8.02D-01  9.66D-01  1.24D+00
                    CP:  9.30D-01  1.25D+00  1.29D+00  9.35D-01
 E= -925.310761035921     Delta-E=       -0.000000005140 Rises=F Damp=F
 DIIS: error= 8.51D-07 at cycle  10 NSaved=  10.
 NSaved=10 IEnMin=10 EnMin= -925.310761035921     IErMin=10 ErrMin= 8.51D-07
 ErrMax= 8.51D-07  0.00D+00 EMaxC= 1.00D-01 BMatC= 2.02D-10 BMatP= 2.28D-09
 IDIUse=1 WtCom= 1.00D+00 WtEn= 0.00D+00
 Coeff-Com:  0.133D-03-0.287D-03-0.610D-04 0.186D-02 0.674D-02-0.556D-02
 Coeff-Com: -0.840D-01 0.215D-01 0.326D+00 0.734D+00
 Coeff:      0.133D-03-0.287D-03-0.610D-04 0.186D-02 0.674D-02-0.556D-02
 Coeff:     -0.840D-01 0.215D-01 0.326D+00 0.734D+00
 Gap=     0.324 Goal=   None    Shift=    0.000
 RMSDP=3.65D-07 MaxDP=4.15D-05 DE=-5.14D-09 OVMax= 1.03D-05

 Cycle  11  Pass 1  IDiag  1:
 RMSU=  1.33D-07    CP:  5.84D-01  1.56D+00  8.02D-01  9.66D-01  1.24D+00
                    CP:  9.29D-01  1.25D+00  1.30D+00  1.02D+00  1.10D+00
 E= -925.310761036242     Delta-E=       -0.000000000321 Rises=F Damp=F
 DIIS: error= 2.07D-07 at cycle  11 NSaved=  11.
 NSaved=11 IEnMin=11 EnMin= -925.310761036242     IErMin=11 ErrMin= 2.07D-07
 ErrMax= 2.07D-07  0.00D+00 EMaxC= 1.00D-01 BMatC= 3.20D-11 BMatP= 2.02D-10
 IDIUse=1 WtCom= 1.00D+00 WtEn= 0.00D+00
 Coeff-Com:  0.214D-04-0.453D-04-0.194D-04 0.117D-03 0.235D-03 0.126D-02
 Coeff-Com:  0.203D-02-0.411D-01-0.468D-01 0.243D+00 0.841D+00
 Coeff:      0.214D-04-0.453D-04-0.194D-04 0.117D-03 0.235D-03 0.126D-02
 Coeff:      0.203D-02-0.411D-01-0.468D-01 0.243D+00 0.841D+00
 Gap=     0.324 Goal=   None    Shift=    0.000
 RMSDP=1.91D-07 MaxDP=2.04D-05 DE=-3.21D-10 OVMax= 3.19D-06

 Cycle  12  Pass 1  IDiag  1:
 RMSU=  5.85D-08    CP:  5.84D-01  1.56D+00  8.02D-01  9.66D-01  1.24D+00
                    CP:  9.30D-01  1.24D+00  1.31D+00  1.03D+00  1.24D+00
                    CP:  1.31D+00
 E= -925.310761036291     Delta-E=       -0.000000000049 Rises=F Damp=F
 DIIS: error= 8.19D-08 at cycle  12 NSaved=  12.
 NSaved=12 IEnMin=12 EnMin= -925.310761036291     IErMin=12 ErrMin= 8.19D-08
 ErrMax= 8.19D-08  0.00D+00 EMaxC= 1.00D-01 BMatC= 1.34D-12 BMatP= 3.20D-11
 IDIUse=1 WtCom= 1.00D+00 WtEn= 0.00D+00
 Coeff-Com: -0.144D-04 0.312D-04 0.104D-04-0.221D-03-0.813D-03 0.865D-03
 Coeff-Com:  0.985D-02-0.474D-02-0.334D-01-0.609D-01-0.703D-01 0.116D+01
 Coeff:     -0.144D-04 0.312D-04 0.104D-04-0.221D-03-0.813D-03 0.865D-03
 Coeff:      0.985D-02-0.474D-02-0.334D-01-0.609D-01-0.703D-01 0.116D+01
 Gap=     0.324 Goal=   None    Shift=    0.000
 RMSDP=6.13D-08 MaxDP=3.03D-06 DE=-4.91D-11 OVMax= 1.22D-06

 Cycle  13  Pass 1  IDiag  1:
 RMSU=  2.19D-08    CP:  5.84D-01  1.56D+00  8.02D-01  9.66D-01  1.24D+00
                    CP:  9.30D-01  1.24D+00  1.31D+00  1.03D+00  1.28D+00
                    CP:  1.45D+00  1.41D+00
 E= -925.310761036290     Delta-E=        0.000000000001 Rises=F Damp=F
 DIIS: error= 2.96D-08 at cycle  13 NSaved=  13.
 NSaved=13 IEnMin=12 EnMin= -925.310761036291     IErMin=13 ErrMin= 2.96D-08
 ErrMax= 2.96D-08  0.00D+00 EMaxC= 1.00D-01 BMatC= 1.48D-13 BMatP= 1.34D-12
 IDIUse=1 WtCom= 1.00D+00 WtEn= 0.00D+00
 Coeff-Com: -0.455D-05 0.977D-05 0.403D-05-0.585D-04-0.202D-03 0.160D-03
 Coeff-Com:  0.217D-02 0.906D-03-0.450D-02-0.239D-01-0.715D-01 0.287D+00
 Coeff-Com:  0.810D+00
 Coeff:     -0.455D-05 0.977D-05 0.403D-05-0.585D-04-0.202D-03 0.160D-03
 Coeff:      0.217D-02 0.906D-03-0.450D-02-0.239D-01-0.715D-01 0.287D+00
 Coeff:      0.810D+00
 Gap=     0.324 Goal=   None    Shift=    0.000
 RMSDP=1.12D-08 MaxDP=6.47D-07 DE= 1.36D-12 OVMax= 2.95D-07

 Cycle  14  Pass 1  IDiag  1:
 RMSU=  5.76D-09    CP:  5.84D-01  1.56D+00  8.02D-01  9.66D-01  1.24D+00
                    CP:  9.30D-01  1.24D+00  1.31D+00  1.03D+00  1.28D+00
                    CP:  1.45D+00  1.50D+00  1.23D+00
 E= -925.310761036305     Delta-E=       -0.000000000015 Rises=F Damp=F
 DIIS: error= 7.38D-09 at cycle  14 NSaved=  14.
 NSaved=14 IEnMin=14 EnMin= -925.310761036305     IErMin=14 ErrMin= 7.38D-09
 ErrMax= 7.38D-09  0.00D+00 EMaxC= 1.00D-01 BMatC= 4.78D-14 BMatP= 1.48D-13
 IDIUse=1 WtCom= 1.00D+00 WtEn= 0.00D+00
 Coeff-Com:  0.602D-06-0.134D-05-0.170D-06 0.138D-04 0.576D-04-0.826D-04
 Coeff-Com: -0.817D-03 0.114D-02 0.388D-02 0.540D-03-0.225D-01-0.899D-01
 Coeff-Com:  0.369D+00 0.738D+00
 Coeff:      0.602D-06-0.134D-05-0.170D-06 0.138D-04 0.576D-04-0.826D-04
 Coeff:     -0.817D-03 0.114D-02 0.388D-02 0.540D-03-0.225D-01-0.899D-01
 Coeff:      0.369D+00 0.738D+00
 Gap=     0.324 Goal=   None    Shift=    0.000
 RMSDP=8.69D-09 MaxDP=6.36D-07 DE=-1.50D-11 OVMax= 9.43D-08

 SCF Done:  E(RwB97XD) =  -925.310761036     A.U. after   14 cycles
            NFock= 14  Conv=0.87D-08     -V/T= 2.0044
 KE= 9.212940397234D+02 PE=-5.609443143100D+03 EE= 2.031348289217D+03
 Leave Link  502 at Mon Nov 14 15:22:19 2022, MaxMem= 16106127360 cpu:            4657.1 elap:             147.1
 (Enter /opt/ap/G16/B01/g16/l601.exe)
 Copying SCF densities to generalized density rwf, IOpCl= 0 IROHF=0.

 **********************************************************************

            Population analysis using the SCF Density.

 **********************************************************************

 Orbital symmetries:
       Occupied  (A) (A) (A) (A) (A) (A) (A) (A) (A) (A) (A) (A)
                 (A) (A) (A) (A) (A) (A) (A) (A) (A) (A) (A) (A)
                 (A) (A) (A) (A) (A) (A) (A) (A) (A) (A) (A) (A)
                 (A) (A) (A) (A) (A) (A) (A) (A) (A) (A) (A) (A)
                 (A) (A) (A) (A) (A) (A) (A) (A) (A) (A) (A) (A)
                 (A) (A) (A) (A) (A) (A) (A) (A) (A) (A) (A) (A)
                 (A) (A) (A) (A) (A) (A) (A) (A) (A)
       Virtual   (A) (A) (A) (A) (A) (A) (A) (A) (A) (A) (A) (A)
                 (A) (A) (A) (A) (A) (A) (A) (A) (A) (A) (A) (A)
                 (A) (A) (A) (A) (A) (A) (A) (A) (A) (A) (A) (A)
                 (A) (A) (A) (A) (A) (A) (A) (A) (A) (A) (A) (A)
                 (A) (A) (A) (A) (A) (A) (A) (A) (A) (A) (A) (A)
                 (A) (A) (A) (A) (A) (A) (A) (A) (A) (A) (A) (A)
                 (A) (A) (A) (A) (A) (A) (A) (A) (A) (A) (A) (A)
                 (A) (A) (A) (A) (A) (A) (A) (A) (A) (A) (A) (A)
                 (A) (A) (A) (A) (A) (A) (A) (A) (A) (A) (A) (A)
                 (A) (A) (A) (A) (A) (A) (A) (A) (A) (A) (A) (A)
                 (A) (A) (A) (A) (A) (A) (A) (A) (A) (A) (A) (A)
                 (A) (A) (A) (A) (A) (A) (A) (A) (A) (A) (A) (A)
                 (A) (A) (A) (A) (A) (A) (A) (A) (A) (A) (A) (A)
                 (A) (A) (A) (A) (A) (A) (A) (A) (A) (A) (A) (A)
                 (A) (A) (A) (A) (A) (A) (A) (A) (A) (A) (A) (A)
                 (A) (A) (A) (A) (A) (A) (A) (A) (A) (A) (A) (A)
                 (A) (A) (A) (A) (A) (A) (A) (A) (A) (A) (A) (A)
                 (A) (A) (A) (A) (A) (A) (A) (A) (A) (A) (A) (A)
                 (A) (A) (A) (A) (A) (A) (A) (A) (A) (A) (A) (A)
                 (A) (A) (A) (A) (A) (A) (A) (A) (A) (A) (A) (A)
                 (A) (A) (A) (A) (A) (A) (A) (A) (A) (A) (A) (A)
                 (A) (A) (A) (A) (A) (A) (A) (A) (A) (A) (A) (A)
                 (A) (A) (A) (A) (A) (A) (A) (A) (A) (A) (A) (A)
                 (A) (A) (A) (A) (A) (A) (A) (A) (A) (A) (A) (A)
                 (A) (A) (A) (A) (A) (A) (A) (A) (A) (A) (A) (A)
                 (A) (A) (A) (A) (A) (A) (A) (A) (A) (A) (A) (A)
                 (A) (A) (A) (A) (A) (A) (A) (A) (A) (A) (A) (A)
                 (A) (A) (A) (A) (A) (A) (A) (A) (A) (A) (A) (A)
                 (A) (A) (A) (A) (A) (A) (A) (A) (A) (A) (A) (A)
                 (A) (A) (A) (A) (A) (A) (A) (A) (A) (A) (A) (A)
                 (A) (A) (A) (A) (A) (A) (A) (A) (A) (A) (A) (A)
                 (A) (A) (A) (A) (A) (A) (A) (A) (A) (A) (A) (A)
                 (A) (A) (A) (A) (A) (A) (A) (A) (A) (A) (A) (A)
                 (A) (A) (A) (A) (A) (A) (A) (A) (A) (A) (A) (A)
                 (A) (A) (A) (A) (A) (A) (A) (A) (A) (A) (A) (A)
                 (A) (A) (A) (A) (A) (A) (A) (A) (A) (A) (A) (A)
                 (A) (A) (A) (A) (A) (A) (A) (A) (A) (A) (A) (A)
                 (A) (A) (A) (A) (A) (A) (A) (A) (A) (A) (A) (A)
                 (A) (A) (A) (A) (A) (A) (A) (A) (A) (A) (A) (A)
                 (A) (A) (A) (A) (A) (A) (A) (A) (A) (A) (A) (A)
                 (A) (A) (A) (A) (A) (A) (A) (A) (A) (A) (A) (A)
                 (A) (A) (A) (A) (A) (A) (A) (A) (A) (A) (A) (A)
                 (A) (A) (A) (A) (A) (A) (A) (A) (A) (A) (A) (A)
                 (A) (A) (A) (A) (A) (A) (A) (A) (A) (A) (A) (A)
                 (A) (A) (A) (A) (A) (A) (A) (A) (A) (A) (A) (A)
                 (A) (A) (A) (A) (A) (A) (A) (A) (A) (A) (A) (A)
                 (A) (A) (A) (A) (A) (A) (A) (A) (A) (A) (A) (A)
 The electronic state is 1-A.
 Alpha  occ. eigenvalues --  -10.30401 -10.30401 -10.30383 -10.30328 -10.30310
 Alpha  occ. eigenvalues --  -10.30285 -10.29254 -10.29244 -10.29240 -10.29229
 Alpha  occ. eigenvalues --  -10.29213 -10.29203 -10.29172 -10.29166 -10.29162
 Alpha  occ. eigenvalues --  -10.29161 -10.29121 -10.29118 -10.29108 -10.29089
 Alpha  occ. eigenvalues --  -10.29085 -10.29070 -10.29066 -10.29059  -0.98962
 Alpha  occ. eigenvalues --   -0.97051  -0.97027  -0.95262  -0.89412  -0.89396
 Alpha  occ. eigenvalues --   -0.85331  -0.85288  -0.85233  -0.85047  -0.82259
 Alpha  occ. eigenvalues --   -0.82234  -0.73531  -0.73370  -0.71134  -0.70697
 Alpha  occ. eigenvalues --   -0.70231  -0.70108  -0.66767  -0.66689  -0.63495
 Alpha  occ. eigenvalues --   -0.60699  -0.60661  -0.58706  -0.57208  -0.56568
 Alpha  occ. eigenvalues --   -0.54926  -0.54779  -0.54432  -0.54241  -0.52972
 Alpha  occ. eigenvalues --   -0.51900  -0.51440  -0.51323  -0.51131  -0.50836
 Alpha  occ. eigenvalues --   -0.50790  -0.47793  -0.46673  -0.46163  -0.45950
 Alpha  occ. eigenvalues --   -0.45619  -0.45018  -0.44317  -0.43159  -0.43077
 Alpha  occ. eigenvalues --   -0.42905  -0.41798  -0.41494  -0.36527  -0.35831
 Alpha  occ. eigenvalues --   -0.33630  -0.33613  -0.33601  -0.33005  -0.30818
 Alpha  occ. eigenvalues --   -0.30242
 Alpha virt. eigenvalues --    0.02131   0.02654   0.03673   0.04202   0.04312
 Alpha virt. eigenvalues --    0.04755   0.04885   0.04902   0.05148   0.05211
 Alpha virt. eigenvalues --    0.05255   0.05681   0.05750   0.06784   0.06926
 Alpha virt. eigenvalues --    0.07038   0.07598   0.07960   0.08042   0.08489
 Alpha virt. eigenvalues --    0.08679   0.08919   0.09172   0.09624   0.11119
 Alpha virt. eigenvalues --    0.11507   0.12104   0.12380   0.12712   0.13294
 Alpha virt. eigenvalues --    0.13641   0.13928   0.14194   0.14519   0.15335
 Alpha virt. eigenvalues --    0.15543   0.15817   0.15871   0.16110   0.16242
 Alpha virt. eigenvalues --    0.16565   0.16851   0.17022   0.17436   0.17514
 Alpha virt. eigenvalues --    0.17553   0.17759   0.17953   0.18059   0.18106
 Alpha virt. eigenvalues --    0.18296   0.18390   0.18437   0.18717   0.18993
 Alpha virt. eigenvalues --    0.19215   0.19386   0.19448   0.20076   0.20370
 Alpha virt. eigenvalues --    0.20533   0.20732   0.21066   0.21218   0.21489
 Alpha virt. eigenvalues --    0.22057   0.22375   0.22555   0.22656   0.22810
 Alpha virt. eigenvalues --    0.23077   0.23292   0.23469   0.23767   0.23825
 Alpha virt. eigenvalues --    0.24519   0.24875   0.25182   0.25265   0.25453
 Alpha virt. eigenvalues --    0.25557   0.26106   0.26636   0.26935   0.27235
 Alpha virt. eigenvalues --    0.27424   0.27755   0.27976   0.28208   0.28424
 Alpha virt. eigenvalues --    0.28760   0.28934   0.29105   0.29363   0.29541
 Alpha virt. eigenvalues --    0.29699   0.30008   0.30349   0.31020   0.31158
 Alpha virt. eigenvalues --    0.31734   0.32031   0.32199   0.32748   0.33391
 Alpha virt. eigenvalues --    0.33559   0.33897   0.34078   0.34262   0.34340
 Alpha virt. eigenvalues --    0.34905   0.34994   0.35279   0.35472   0.35797
 Alpha virt. eigenvalues --    0.35977   0.36224   0.36609   0.36759   0.37143
 Alpha virt. eigenvalues --    0.37336   0.37548   0.37596   0.38006   0.38203
 Alpha virt. eigenvalues --    0.38365   0.38493   0.38678   0.39457   0.39570
 Alpha virt. eigenvalues --    0.39821   0.40477   0.40691   0.41397   0.41644
 Alpha virt. eigenvalues --    0.42010   0.42210   0.42373   0.42648   0.43363
 Alpha virt. eigenvalues --    0.43656   0.43819   0.44288   0.44650   0.45066
 Alpha virt. eigenvalues --    0.45323   0.46348   0.47581   0.47881   0.47944
 Alpha virt. eigenvalues --    0.48235   0.48963   0.52930   0.53347   0.57088
 Alpha virt. eigenvalues --    0.58270   0.58551   0.58972   0.59395   0.60797
 Alpha virt. eigenvalues --    0.62064   0.62421   0.62672   0.62866   0.63037
 Alpha virt. eigenvalues --    0.63490   0.63722   0.63944   0.64086   0.64171
 Alpha virt. eigenvalues --    0.64545   0.64843   0.65349   0.65557   0.65938
 Alpha virt. eigenvalues --    0.66066   0.66386   0.67103   0.67324   0.67531
 Alpha virt. eigenvalues --    0.68181   0.69035   0.69577   0.70207   0.70592
 Alpha virt. eigenvalues --    0.70771   0.71127   0.71802   0.72321   0.72599
 Alpha virt. eigenvalues --    0.73041   0.73458   0.73671   0.74157   0.74454
 Alpha virt. eigenvalues --    0.75266   0.75996   0.76643   0.77262   0.77831
 Alpha virt. eigenvalues --    0.78826   0.79271   0.80029   0.80379   0.80700
 Alpha virt. eigenvalues --    0.81092   0.81288   0.81526   0.81984   0.82213
 Alpha virt. eigenvalues --    0.82631   0.82894   0.83404   0.83663   0.84171
 Alpha virt. eigenvalues --    0.84565   0.84691   0.84958   0.85411   0.85678
 Alpha virt. eigenvalues --    0.86199   0.87063   0.87537   0.87883   0.88438
 Alpha virt. eigenvalues --    0.89383   0.90029   0.91438   0.91689   0.92018
 Alpha virt. eigenvalues --    0.92153   0.92295   0.93219   0.93679   0.93727
 Alpha virt. eigenvalues --    0.94236   0.94483   0.95072   0.95879   0.96410
 Alpha virt. eigenvalues --    0.96738   0.96902   0.97376   0.97986   0.99372
 Alpha virt. eigenvalues --    0.99951   1.00178   1.00790   1.01267   1.01942
 Alpha virt. eigenvalues --    1.02092   1.03085   1.03643   1.04247   1.04658
 Alpha virt. eigenvalues --    1.05180   1.06019   1.06851   1.07317   1.07562
 Alpha virt. eigenvalues --    1.07882   1.08577   1.08981   1.09950   1.11826
 Alpha virt. eigenvalues --    1.11997   1.12580   1.12908   1.13652   1.13964
 Alpha virt. eigenvalues --    1.14579   1.14697   1.16224   1.16911   1.16942
 Alpha virt. eigenvalues --    1.18090   1.18263   1.18729   1.19414   1.21364
 Alpha virt. eigenvalues --    1.21892   1.22150   1.22976   1.23895   1.24057
 Alpha virt. eigenvalues --    1.24486   1.25045   1.25725   1.29177   1.29708
 Alpha virt. eigenvalues --    1.38362   1.39083   1.40682   1.41548   1.41773
 Alpha virt. eigenvalues --    1.45788   1.47451   1.48189   1.52088   1.54943
 Alpha virt. eigenvalues --    1.56419   1.57745   1.58387   1.59340   1.59584
 Alpha virt. eigenvalues --    1.59939   1.60173   1.60991   1.61377   1.61636
 Alpha virt. eigenvalues --    1.62012   1.62594   1.62628   1.63271   1.63811
 Alpha virt. eigenvalues --    1.64458   1.65587   1.65691   1.65973   1.66402
 Alpha virt. eigenvalues --    1.67083   1.67344   1.67983   1.68619   1.69089
 Alpha virt. eigenvalues --    1.70117   1.73071   1.73447   1.74047   1.74246
 Alpha virt. eigenvalues --    1.74319   1.74939   1.75494   1.75694   1.76653
 Alpha virt. eigenvalues --    1.77096   1.78484   1.81774   1.82107   1.82906
 Alpha virt. eigenvalues --    1.82910   1.83370   1.84208   1.84606   1.84980
 Alpha virt. eigenvalues --    1.85644   1.86369   1.86586   1.86892   1.87849
 Alpha virt. eigenvalues --    1.88654   1.89320   1.92460   1.92733   1.92996
 Alpha virt. eigenvalues --    1.93637   1.94297   1.97118   1.99572   2.00097
 Alpha virt. eigenvalues --    2.00911   2.01591   2.02041   2.02489   2.02944
 Alpha virt. eigenvalues --    2.03081   2.03462   2.04192   2.04457   2.04609
 Alpha virt. eigenvalues --    2.04650   2.05164   2.05563   2.05910   2.06146
 Alpha virt. eigenvalues --    2.06623   2.07211   2.07820   2.08351   2.08974
 Alpha virt. eigenvalues --    2.10765   2.11264   2.11915   2.12217   2.13131
 Alpha virt. eigenvalues --    2.13373   2.14562   2.14965   2.16812   2.17274
 Alpha virt. eigenvalues --    2.18200   2.18742   2.19735   2.20732   2.21915
 Alpha virt. eigenvalues --    2.23055   2.27879   2.29745   2.33596   2.35091
 Alpha virt. eigenvalues --    2.35969   2.36781   2.37979   2.39684   2.42755
 Alpha virt. eigenvalues --    2.44407   2.44731   2.46987   2.48924   2.50228
 Alpha virt. eigenvalues --    2.52123   2.53165   2.53408   2.54116   2.55120
 Alpha virt. eigenvalues --    2.55441   2.56316   2.56441   2.56765   2.57379
 Alpha virt. eigenvalues --    2.58507   2.58733   2.62289   2.62919   2.65266
 Alpha virt. eigenvalues --    2.72816   2.73190   2.73663   2.75708   2.75838
 Alpha virt. eigenvalues --    2.76033   2.76304   2.77848   2.79232   2.79709
 Alpha virt. eigenvalues --    2.80096   2.80383   2.80541   2.80802   2.81001
 Alpha virt. eigenvalues --    2.81755   2.82400   2.82876   2.83090   2.83365
 Alpha virt. eigenvalues --    2.83840   2.84091   2.85266   2.86104   2.86993
 Alpha virt. eigenvalues --    2.87589   2.87743   2.87947   2.90107   2.91855
 Alpha virt. eigenvalues --    2.92190   2.92537   2.92686   2.92740   2.93106
 Alpha virt. eigenvalues --    2.93593   2.94192   2.94584   2.95082   2.97883
 Alpha virt. eigenvalues --    2.99000   2.99641   3.00888   3.01438   3.01627
 Alpha virt. eigenvalues --    3.03986   3.04635   3.05129   3.05164   3.05488
 Alpha virt. eigenvalues --    3.06163   3.06803   3.07717   3.08474   3.11555
 Alpha virt. eigenvalues --    3.12007   3.15992   3.18862   3.19825   3.19995
 Alpha virt. eigenvalues --    3.21638   3.22973   3.25741   3.31074   3.31848
 Alpha virt. eigenvalues --    3.32294   3.33655   3.34754   3.36494   3.37040
 Alpha virt. eigenvalues --    3.46740   3.47388   3.49136   3.49597   3.49759
 Alpha virt. eigenvalues --    3.50007   3.53574   3.53668   3.60482   3.60885
 Alpha virt. eigenvalues --    3.61168   3.63650   3.64816   3.65389   3.66173
 Alpha virt. eigenvalues --    3.73745   3.73986   3.76318   3.76373   3.76808
 Alpha virt. eigenvalues --    3.77382   3.90982   3.92598   3.94663   4.09763
 Alpha virt. eigenvalues --    4.09934   4.10270   4.14512   4.14578   4.14647
 Alpha virt. eigenvalues --    4.24215   4.24359   4.25807   4.26105   4.26509
 Alpha virt. eigenvalues --    4.26918   4.27723   4.28033   4.48722   4.64160
 Alpha virt. eigenvalues --    4.66895   4.94026   4.95500   4.95733   4.98698
 Alpha virt. eigenvalues --   23.68326  23.81575  23.82019  23.88065  24.08368
 Alpha virt. eigenvalues --   24.08431  24.10916  24.10987  24.11294  24.11417
 Alpha virt. eigenvalues --   24.12940  24.13360  24.20238  24.20519  24.20948
 Alpha virt. eigenvalues --   24.24061  24.24323  24.24377  24.24636  24.25366
 Alpha virt. eigenvalues --   24.31383  24.33821  24.33973  24.35059
          Condensed to atoms (all electrons):
               1          2          3          4          5          6
     1  C   18.767451   0.645649   1.641980  -6.355813   0.045981   0.311734
     2  C    0.645649  12.737774   0.212445   1.713268   0.354079  -2.691894
     3  C    1.641980   0.212445  12.033566  -2.374861   0.026400  -1.932400
     4  C   -6.355813   1.713268  -2.374861  19.667168  -0.186333  -0.648985
     5  H    0.045981   0.354079   0.026400  -0.186333   0.500699   0.004029
     6  C    0.311734  -2.691894  -1.932400  -0.648985   0.004029  13.621697
     7  C   -5.210760  -2.374586   1.545276  -7.582319   0.132637   0.000140
     8  H    0.001686   0.112693   0.353865   0.109062  -0.003011  -0.061999
     9  C   -3.229844  -0.254725  -0.620230   1.692665   0.057490  -1.439139
    10  C   -0.317912  -1.997270  -1.595181   0.574417  -0.035838   0.986083
    11  C   -1.098421   1.584043  -1.580555   1.340842  -0.064217  -0.801957
    12  C   -0.540721  -1.254413   0.823704  -0.698718   0.012961  -0.150087
    13  C   -0.347363  -1.526539  -2.161955  -0.678693  -0.026783   0.901522
    14  H    0.101423   0.058405   0.061718  -0.042574  -0.001962  -0.012685
    15  C    1.887835   2.152689   0.197553  -0.983708  -0.046135   0.092397
    16  C   -1.376553  -2.454329  -0.140933  -1.267163   0.011102   0.075840
    17  C    0.148754   0.050258   0.162480   0.143777   0.001993  -1.388808
    18  H    0.020864  -0.002466  -0.021481  -0.020570   0.003528   0.024787
    19  C   -0.284987   0.014785   0.825359  -0.106967   0.012041  -1.666175
    20  H    0.052241  -0.051033  -0.029201  -0.016621  -0.001901   0.051962
    21  C    1.555249   0.031855   2.668206  -0.769597  -0.014009   0.295725
    22  C   -1.392832  -0.010915  -3.298850   1.637794   0.012813  -0.120508
    23  C    0.200916   0.317149   0.090041   0.019624  -0.018730  -0.087606
    24  H   -0.049844  -0.043214  -0.017836   0.040974  -0.001327   0.015103
    25  C   -0.100484   0.109971   0.053866  -0.065426   0.024931  -0.027308
    26  H   -0.004218  -0.027327  -0.018023   0.092792  -0.004689   0.010090
    27  C   -0.221646   0.084318  -0.306582   0.041485   0.000209  -0.374310
    28  H    0.005025  -0.006192   0.009243  -0.000318  -0.000991   0.035857
    29  H    0.000715   0.002696   0.008559   0.002400   0.000287   0.031692
    30  C    0.330023   0.063357   0.618625  -0.073918  -0.001095  -0.000073
    31  H   -0.021856  -0.027738  -0.012976  -0.006260  -0.000181   0.031753
    32  C   -0.046441   0.077396   0.136994   0.195558   0.002215  -0.064532
    33  H   -0.000455  -0.010845  -0.029381  -0.081067   0.000549   0.009474
    34  C   -0.007675  -0.122010  -0.021033  -0.256952  -0.009988   0.038144
    35  H    0.003420   0.006658   0.000806   0.002116  -0.000188  -0.002871
    36  H    0.002413   0.007630  -0.000189   0.001370   0.000986  -0.000770
    37  H   -0.006697  -0.000705  -0.008980   0.001627   0.000192   0.015224
    38  C   -0.079054  -0.027325  -0.205346   0.014775   0.000155   0.030427
    39  H    0.006014   0.001194   0.003852   0.003561  -0.000043  -0.001961
    40  H    0.002184   0.000074   0.006604   0.005025  -0.000053  -0.000524
    41  H    0.000534  -0.005365  -0.000743  -0.006638  -0.000347   0.001007
    42  H   -0.000302  -0.000811  -0.005262   0.000852  -0.000004   0.000731
               7          8          9         10         11         12
     1  C   -5.210760   0.001686  -3.229844  -0.317912  -1.098421  -0.540721
     2  C   -2.374586   0.112693  -0.254725  -1.997270   1.584043  -1.254413
     3  C    1.545276   0.353865  -0.620230  -1.595181  -1.580555   0.823704
     4  C   -7.582319   0.109062   1.692665   0.574417   1.340842  -0.698718
     5  H    0.132637  -0.003011   0.057490  -0.035838  -0.064217   0.012961
     6  C    0.000140  -0.061999  -1.439139   0.986083  -0.801957  -0.150087
     7  C   19.441784  -0.126317   0.460265  -0.510695  -0.702412   0.611950
     8  H   -0.126317   0.492762   0.084674  -0.036249   0.057519  -0.118398
     9  C    0.460265   0.084674  13.708421  -2.159125   0.175948  -0.364915
    10  C   -0.510695  -0.036249  -2.159125  12.879813   0.104616   0.147601
    11  C   -0.702412   0.057519   0.175948   0.104616  15.505169  -7.352931
    12  C    0.611950  -0.118398  -0.364915   0.147601  -7.352931  15.800021
    13  C    0.726178  -0.074915  -2.203015   1.297576  -0.106647   0.310067
    14  H   -0.060264  -0.002295   0.267369   0.022969  -0.003176   0.001936
    15  C   -0.894906  -0.012686  -2.683332  -0.738962  -0.076714  -0.010165
    16  C    1.624563   0.010658   2.837943  -0.423811   0.027365   0.027903
    17  C   -0.102137   0.011189   0.046012  -0.095414  -0.939318   0.369453
    18  H    0.009611  -0.000793  -0.000812   0.015532   0.373317   0.004970
    19  C    0.484628   0.028527   0.090261  -0.025135   0.515498  -1.865994
    20  H   -0.047641  -0.006142  -0.030121   0.014935  -0.031903   0.525936
    21  C   -0.677290  -0.044033  -2.881289   0.163419   0.204459  -0.244461
    22  C   -1.491435   0.016686   3.535665  -0.180341  -0.093609   0.130908
    23  C   -0.122977   0.001366   0.138297  -1.614440  -0.042830   0.005253
    24  H    0.009503  -0.000575  -0.038059  -0.011515   0.015189   0.001422
    25  C    0.239661   0.001872   0.308763  -1.611229   0.024593  -0.017963
    26  H   -0.092471   0.000444  -0.042836   0.024579  -0.000908   0.001947
    27  C   -0.081325  -0.006484  -0.036300   0.042675  -0.399876   0.069523
    28  H    0.001021   0.000212  -0.000239  -0.002944  -0.096941   0.007566
    29  H    0.007711   0.000403   0.001935  -0.000983   0.018947  -0.118731
    30  C   -0.223449   0.033503   0.085534  -0.040278   0.041237  -0.075387
    31  H    0.006207  -0.009621  -0.056812   0.015352   0.001855   0.006241
    32  C    0.129936   0.014994   0.153136  -0.090967  -0.002055   0.002561
    33  H    0.085222  -0.003672  -0.018932  -0.008418   0.001906  -0.001083
    34  C    0.018654  -0.000414  -0.055073  -0.147804  -0.012970   0.007235
    35  H    0.000578   0.000013   0.006831   0.022404   0.000904  -0.000513
    36  H    0.005498  -0.000031   0.004031   0.012643   0.000162  -0.000175
    37  H   -0.000331  -0.000323  -0.000887   0.001213   0.000631   0.021898
    38  C   -0.228778  -0.007854   0.042950   0.034638   0.000541  -0.000484
    39  H    0.001627   0.000846   0.007178  -0.001094   0.000224  -0.000446
    40  H    0.001484   0.000702   0.000747  -0.002196   0.000096  -0.000181
    41  H    0.000863  -0.000011  -0.005314   0.021355  -0.000321   0.000200
    42  H   -0.005726  -0.000424  -0.002970   0.001086   0.000005   0.000036
              13         14         15         16         17         18
     1  C   -0.347363   0.101423   1.887835  -1.376553   0.148754   0.020864
     2  C   -1.526539   0.058405   2.152689  -2.454329   0.050258  -0.002466
     3  C   -2.161955   0.061718   0.197553  -0.140933   0.162480  -0.021481
     4  C   -0.678693  -0.042574  -0.983708  -1.267163   0.143777  -0.020570
     5  H   -0.026783  -0.001962  -0.046135   0.011102   0.001993   0.003528
     6  C    0.901522  -0.012685   0.092397   0.075840  -1.388808   0.024787
     7  C    0.726178  -0.060264  -0.894906   1.624563  -0.102137   0.009611
     8  H   -0.074915  -0.002295  -0.012686   0.010658   0.011189  -0.000793
     9  C   -2.203015   0.267369  -2.683332   2.837943   0.046012  -0.000812
    10  C    1.297576   0.022969  -0.738962  -0.423811  -0.095414   0.015532
    11  C   -0.106647  -0.003176  -0.076714   0.027365  -0.939318   0.373317
    12  C    0.310067   0.001936  -0.010165   0.027903   0.369453   0.004970
    13  C   14.196661   0.059864   0.281679  -0.366105  -0.073778   0.011122
    14  H    0.059864   0.501730   0.069529  -0.128490   0.003095  -0.000375
    15  C    0.281679   0.069529  13.723288  -6.004846  -0.009711  -0.007677
    16  C   -0.366105  -0.128490  -6.004846  13.974765  -0.003747   0.006254
    17  C   -0.073778   0.003095  -0.009711  -0.003747   7.855470  -0.099633
    18  H    0.011122  -0.000375  -0.007677   0.006254  -0.099633   0.475570
    19  C    0.051402  -0.002911   0.023367  -0.007859  -0.664979   0.007820
    20  H    0.025108   0.000552  -0.001292   0.001240   0.013161  -0.001005
    21  C   -1.088278   0.097637   0.170129  -0.222102   0.017640  -0.004205
    22  C   -0.811021  -0.179724  -0.214880   0.393135  -0.007464   0.003247
    23  C   -0.041670   0.005519  -0.367465   0.014256  -0.024709   0.000697
    24  H    0.015062  -0.002252   0.481747  -0.034851  -0.003569  -0.002994
    25  C   -0.073734  -0.014607  -0.169908  -0.144105   0.006128  -0.000289
    26  H   -0.002643  -0.001952  -0.020489   0.433848  -0.000595   0.000101
    27  C    0.021253   0.000178  -0.021066   0.007075   0.506707  -0.000241
    28  H   -0.000622  -0.000001   0.001954  -0.000509   0.418988  -0.010186
    29  H   -0.000970  -0.000062   0.000418  -0.000125   0.002950   0.000049
    30  C   -1.932566   0.009935  -0.012140   0.032963   0.000057  -0.000697
    31  H    0.007875  -0.001238   0.006877  -0.007067  -0.002205   0.000033
    32  C   -1.596025  -0.007471   0.000898  -0.019667   0.001771  -0.000126
    33  H   -0.000171  -0.002058  -0.007267   0.026068  -0.000141   0.000142
    34  C    0.036446   0.001650  -0.209554  -0.481039  -0.004024  -0.000170
    35  H   -0.001090   0.000284  -0.092400   0.010454   0.000374   0.000228
    36  H   -0.003008  -0.001022   0.001193  -0.079049   0.000024   0.000006
    37  H    0.000649  -0.000004  -0.000571   0.000194  -0.064495   0.001050
    38  C   -0.141115  -0.003459   0.005770  -0.015845  -0.000660   0.000012
    39  H    0.016365   0.000221  -0.000314   0.000647   0.000112   0.000014
    40  H    0.010888  -0.000729  -0.000256   0.001077   0.000008  -0.000002
    41  H    0.001056   0.000097   0.011081  -0.006011  -0.000104  -0.000001
    42  H    0.025714   0.000199   0.000183  -0.000543  -0.000013   0.000002
              19         20         21         22         23         24
     1  C   -0.284987   0.052241   1.555249  -1.392832   0.200916  -0.049844
     2  C    0.014785  -0.051033   0.031855  -0.010915   0.317149  -0.043214
     3  C    0.825359  -0.029201   2.668206  -3.298850   0.090041  -0.017836
     4  C   -0.106967  -0.016621  -0.769597   1.637794   0.019624   0.040974
     5  H    0.012041  -0.001901  -0.014009   0.012813  -0.018730  -0.001327
     6  C   -1.666175   0.051962   0.295725  -0.120508  -0.087606   0.015103
     7  C    0.484628  -0.047641  -0.677290  -1.491435  -0.122977   0.009503
     8  H    0.028527  -0.006142  -0.044033   0.016686   0.001366  -0.000575
     9  C    0.090261  -0.030121  -2.881289   3.535665   0.138297  -0.038059
    10  C   -0.025135   0.014935   0.163419  -0.180341  -1.614440  -0.011515
    11  C    0.515498  -0.031903   0.204459  -0.093609  -0.042830   0.015189
    12  C   -1.865994   0.525936  -0.244461   0.130908   0.005253   0.001422
    13  C    0.051402   0.025108  -1.088278  -0.811021  -0.041670   0.015062
    14  H   -0.002911   0.000552   0.097637  -0.179724   0.005519  -0.002252
    15  C    0.023367  -0.001292   0.170129  -0.214880  -0.367465   0.481747
    16  C   -0.007859   0.001240  -0.222102   0.393135   0.014256  -0.034851
    17  C   -0.664979   0.013161   0.017640  -0.007464  -0.024709  -0.003569
    18  H    0.007820  -0.001005  -0.004205   0.003247   0.000697  -0.002994
    19  C    8.729818  -0.186439  -0.115431   0.063581   0.009913   0.000310
    20  H   -0.186439   0.477989   0.009835  -0.006863  -0.001371   0.000228
    21  C   -0.115431   0.009835  15.139516  -7.938790  -0.014625   0.005779
    22  C    0.063581  -0.006863  -7.938790  17.097338   0.032428  -0.005717
    23  C    0.009913  -0.001371  -0.014625   0.032428   7.746869  -0.068539
    24  H    0.000310   0.000228   0.005779  -0.005717  -0.068539   0.499013
    25  C   -0.002032  -0.000295   0.007481  -0.029671  -0.578776  -0.012747
    26  H    0.000219   0.000098  -0.006543   0.028929  -0.011133   0.000412
    27  C    0.177724   0.020437   0.006566  -0.004028  -0.005566   0.000747
    28  H    0.004777   0.000110   0.000135  -0.000005   0.000228   0.000151
    29  H    0.442732  -0.012080  -0.000955   0.000738   0.000078   0.000012
    30  C   -0.002770  -0.004653  -0.242693  -0.192981  -0.001033  -0.000256
    31  H   -0.004444   0.001576   0.506002  -0.034372  -0.000076   0.000353
    32  C   -0.001965  -0.000627   0.256933  -0.584892   0.005389  -0.000769
    33  H   -0.000177   0.000286  -0.035498   0.441715   0.000895   0.000006
    34  C    0.000050   0.000263   0.006104  -0.018420   0.419366   0.027633
    35  H   -0.000020  -0.000009  -0.000288   0.000538   0.421338  -0.013296
    36  H    0.000018  -0.000011  -0.000501   0.001938   0.012919  -0.000511
    37  H   -0.078532   0.001054   0.000095  -0.000035  -0.000133   0.000002
    38  C    0.000014   0.000543  -0.402664  -0.198878   0.000077   0.000199
    39  H    0.000066  -0.000087  -0.094454   0.012943   0.000004  -0.000015
    40  H   -0.000031  -0.000020   0.004154  -0.078495  -0.000016  -0.000002
    41  H    0.000006   0.000005   0.000155  -0.000473  -0.077125   0.002091
    42  H   -0.000002   0.000038   0.013498  -0.010457   0.000004   0.000005
              25         26         27         28         29         30
     1  C   -0.100484  -0.004218  -0.221646   0.005025   0.000715   0.330023
     2  C    0.109971  -0.027327   0.084318  -0.006192   0.002696   0.063357
     3  C    0.053866  -0.018023  -0.306582   0.009243   0.008559   0.618625
     4  C   -0.065426   0.092792   0.041485  -0.000318   0.002400  -0.073918
     5  H    0.024931  -0.004689   0.000209  -0.000991   0.000287  -0.001095
     6  C   -0.027308   0.010090  -0.374310   0.035857   0.031692  -0.000073
     7  C    0.239661  -0.092471  -0.081325   0.001021   0.007711  -0.223449
     8  H    0.001872   0.000444  -0.006484   0.000212   0.000403   0.033503
     9  C    0.308763  -0.042836  -0.036300  -0.000239   0.001935   0.085534
    10  C   -1.611229   0.024579   0.042675  -0.002944  -0.000983  -0.040278
    11  C    0.024593  -0.000908  -0.399876  -0.096941   0.018947   0.041237
    12  C   -0.017963   0.001947   0.069523   0.007566  -0.118731  -0.075387
    13  C   -0.073734  -0.002643   0.021253  -0.000622  -0.000970  -1.932566
    14  H   -0.014607  -0.001952   0.000178  -0.000001  -0.000062   0.009935
    15  C   -0.169908  -0.020489  -0.021066   0.001954   0.000418  -0.012140
    16  C   -0.144105   0.433848   0.007075  -0.000509  -0.000125   0.032963
    17  C    0.006128  -0.000595   0.506707   0.418988   0.002950   0.000057
    18  H   -0.000289   0.000101  -0.000241  -0.010186   0.000049  -0.000697
    19  C   -0.002032   0.000219   0.177724   0.004777   0.442732  -0.002770
    20  H   -0.000295   0.000098   0.020437   0.000110  -0.012080  -0.004653
    21  C    0.007481  -0.006543   0.006566   0.000135  -0.000955  -0.242693
    22  C   -0.029671   0.028929  -0.004028  -0.000005   0.000738  -0.192981
    23  C   -0.578776  -0.011133  -0.005566   0.000228   0.000078  -0.001033
    24  H   -0.012747   0.000412   0.000747   0.000151   0.000012  -0.000256
    25  C    7.705379  -0.062988  -0.000059   0.000012   0.000011   0.006518
    26  H   -0.062988   0.498948   0.000069   0.000003  -0.000000   0.002127
    27  C   -0.000059   0.000069   6.512053  -0.055040  -0.069310  -0.000546
    28  H    0.000012   0.000003  -0.055040   0.473878   0.000452   0.000025
    29  H    0.000011  -0.000000  -0.069310   0.000452   0.474614   0.000085
    30  C    0.006518   0.002127  -0.000546   0.000025   0.000085   7.922529
    31  H   -0.001035   0.000018   0.001418  -0.000025  -0.000086  -0.101744
    32  C   -0.017902  -0.005738  -0.000429  -0.000002   0.000002  -0.496919
    33  H    0.002009  -0.004902   0.000056  -0.000004   0.000005  -0.018878
    34  C    0.491694   0.020943  -0.000046   0.000034  -0.000001   0.000190
    35  H    0.012025  -0.000495   0.000020  -0.000018  -0.000001   0.000012
    36  H    0.423206  -0.012983  -0.000002  -0.000001   0.000000  -0.000078
    37  H    0.000002   0.000002   0.455884  -0.009881  -0.009588  -0.000013
    38  C   -0.004599  -0.000366   0.000150   0.000005   0.000007   0.377844
    39  H    0.000054   0.000048  -0.000034  -0.000000   0.000004   0.430102
    40  H    0.000395   0.000404   0.000000  -0.000000  -0.000001   0.016607
    41  H   -0.065748   0.001911   0.000005  -0.000000  -0.000000   0.000004
    42  H   -0.000123  -0.000021   0.000005   0.000000  -0.000000  -0.080651
              31         32         33         34         35         36
     1  C   -0.021856  -0.046441  -0.000455  -0.007675   0.003420   0.002413
     2  C   -0.027738   0.077396  -0.010845  -0.122010   0.006658   0.007630
     3  C   -0.012976   0.136994  -0.029381  -0.021033   0.000806  -0.000189
     4  C   -0.006260   0.195558  -0.081067  -0.256952   0.002116   0.001370
     5  H   -0.000181   0.002215   0.000549  -0.009988  -0.000188   0.000986
     6  C    0.031753  -0.064532   0.009474   0.038144  -0.002871  -0.000770
     7  C    0.006207   0.129936   0.085222   0.018654   0.000578   0.005498
     8  H   -0.009621   0.014994  -0.003672  -0.000414   0.000013  -0.000031
     9  C   -0.056812   0.153136  -0.018932  -0.055073   0.006831   0.004031
    10  C    0.015352  -0.090967  -0.008418  -0.147804   0.022404   0.012643
    11  C    0.001855  -0.002055   0.001906  -0.012970   0.000904   0.000162
    12  C    0.006241   0.002561  -0.001083   0.007235  -0.000513  -0.000175
    13  C    0.007875  -1.596025  -0.000171   0.036446  -0.001090  -0.003008
    14  H   -0.001238  -0.007471  -0.002058   0.001650   0.000284  -0.001022
    15  C    0.006877   0.000898  -0.007267  -0.209554  -0.092400   0.001193
    16  C   -0.007067  -0.019667   0.026068  -0.481039   0.010454  -0.079049
    17  C   -0.002205   0.001771  -0.000141  -0.004024   0.000374   0.000024
    18  H    0.000033  -0.000126   0.000142  -0.000170   0.000228   0.000006
    19  C   -0.004444  -0.001965  -0.000177   0.000050  -0.000020   0.000018
    20  H    0.001576  -0.000627   0.000286   0.000263  -0.000009  -0.000011
    21  C    0.506002   0.256933  -0.035498   0.006104  -0.000288  -0.000501
    22  C   -0.034372  -0.584892   0.441715  -0.018420   0.000538   0.001938
    23  C   -0.000076   0.005389   0.000895   0.419366   0.421338   0.012919
    24  H    0.000353  -0.000769   0.000006   0.027633  -0.013296  -0.000511
    25  C   -0.001035  -0.017902   0.002009   0.491694   0.012025   0.423206
    26  H    0.000018  -0.005738  -0.004902   0.020943  -0.000495  -0.012983
    27  C    0.001418  -0.000429   0.000056  -0.000046   0.000020  -0.000002
    28  H   -0.000025  -0.000002  -0.000004   0.000034  -0.000018  -0.000001
    29  H   -0.000086   0.000002   0.000005  -0.000001  -0.000001   0.000000
    30  C   -0.101744  -0.496919  -0.018878   0.000190   0.000012  -0.000078
    31  H    0.481346  -0.007300   0.000587   0.000188  -0.000013  -0.000002
    32  C   -0.007300   7.609655  -0.038942  -0.004767   0.000043   0.000708
    33  H    0.000587  -0.038942   0.497216  -0.000839   0.000046   0.000548
    34  C    0.000188  -0.004767  -0.000839   6.366823  -0.067597  -0.064674
    35  H   -0.000013   0.000043   0.000046  -0.067597   0.476417   0.001138
    36  H   -0.000002   0.000708   0.000548  -0.064674   0.001138   0.477338
    37  H    0.000050  -0.000010   0.000003   0.000002  -0.000000  -0.000000
    38  C    0.022230   0.401749   0.014775  -0.000172  -0.000003   0.000076
    39  H   -0.010735   0.011210  -0.000496   0.000001   0.000000  -0.000002
    40  H   -0.000332   0.412543  -0.010323   0.000058  -0.000001  -0.000041
    41  H    0.000005  -0.000134  -0.000047   0.467343  -0.012085  -0.011798
    42  H    0.001203  -0.059603   0.001191  -0.000000  -0.000000   0.000000
              37         38         39         40         41         42
     1  C   -0.006697  -0.079054   0.006014   0.002184   0.000534  -0.000302
     2  C   -0.000705  -0.027325   0.001194   0.000074  -0.005365  -0.000811
     3  C   -0.008980  -0.205346   0.003852   0.006604  -0.000743  -0.005262
     4  C    0.001627   0.014775   0.003561   0.005025  -0.006638   0.000852
     5  H    0.000192   0.000155  -0.000043  -0.000053  -0.000347  -0.000004
     6  C    0.015224   0.030427  -0.001961  -0.000524   0.001007   0.000731
     7  C   -0.000331  -0.228778   0.001627   0.001484   0.000863  -0.005726
     8  H   -0.000323  -0.007854   0.000846   0.000702  -0.000011  -0.000424
     9  C   -0.000887   0.042950   0.007178   0.000747  -0.005314  -0.002970
    10  C    0.001213   0.034638  -0.001094  -0.002196   0.021355   0.001086
    11  C    0.000631   0.000541   0.000224   0.000096  -0.000321   0.000005
    12  C    0.021898  -0.000484  -0.000446  -0.000181   0.000200   0.000036
    13  C    0.000649  -0.141115   0.016365   0.010888   0.001056   0.025714
    14  H   -0.000004  -0.003459   0.000221  -0.000729   0.000097   0.000199
    15  C   -0.000571   0.005770  -0.000314  -0.000256   0.011081   0.000183
    16  C    0.000194  -0.015845   0.000647   0.001077  -0.006011  -0.000543
    17  C   -0.064495  -0.000660   0.000112   0.000008  -0.000104  -0.000013
    18  H    0.001050   0.000012   0.000014  -0.000002  -0.000001   0.000002
    19  C   -0.078532   0.000014   0.000066  -0.000031   0.000006  -0.000002
    20  H    0.001054   0.000543  -0.000087  -0.000020   0.000005   0.000038
    21  C    0.000095  -0.402664  -0.094454   0.004154   0.000155   0.013498
    22  C   -0.000035  -0.198878   0.012943  -0.078495  -0.000473  -0.010457
    23  C   -0.000133   0.000077   0.000004  -0.000016  -0.077125   0.000004
    24  H    0.000002   0.000199  -0.000015  -0.000002   0.002091   0.000005
    25  C    0.000002  -0.004599   0.000054   0.000395  -0.065748  -0.000123
    26  H    0.000002  -0.000366   0.000048   0.000404   0.001911  -0.000021
    27  C    0.455884   0.000150  -0.000034   0.000000   0.000005   0.000005
    28  H   -0.009881   0.000005  -0.000000  -0.000000  -0.000000   0.000000
    29  H   -0.009588   0.000007   0.000004  -0.000001  -0.000000  -0.000000
    30  C   -0.000013   0.377844   0.430102   0.016607   0.000004  -0.080651
    31  H    0.000050   0.022230  -0.010735  -0.000332   0.000005   0.001203
    32  C   -0.000010   0.401749   0.011210   0.412543  -0.000134  -0.059603
    33  H    0.000003   0.014775  -0.000496  -0.010323  -0.000047   0.001191
    34  C    0.000002  -0.000172   0.000001   0.000058   0.467343  -0.000000
    35  H   -0.000000  -0.000003   0.000000  -0.000001  -0.012085  -0.000000
    36  H   -0.000000   0.000076  -0.000002  -0.000041  -0.011798   0.000000
    37  H    0.484364   0.000006  -0.000001  -0.000000   0.000000   0.000000
    38  C    0.000006   6.435984  -0.070753  -0.057903   0.000001   0.461345
    39  H   -0.000001  -0.070753   0.475055   0.001115  -0.000000  -0.010685
    40  H   -0.000000  -0.057903   0.001115   0.473675   0.000001  -0.010471
    41  H    0.000000   0.000001  -0.000000   0.000001   0.488773   0.000000
    42  H    0.000000   0.461345  -0.010685  -0.010471   0.000000   0.486514
 Mulliken charges:
               1
     1  C    0.961789
     2  C   -1.448685
     3  C   -1.099143
     4  C    0.922350
     5  H    0.212549
     6  C    0.889175
     7  C    0.990822
     8  H    0.182572
     9  C   -1.582143
    10  C    1.264897
    11  C   -0.587307
    12  C   -0.075526
    13  C    1.262218
    14  H    0.205004
    15  C   -0.522143
    16  C   -0.332597
    17  C   -0.274896
    18  H    0.214768
    19  C   -0.466063
    20  H    0.231718
    21  C   -0.362867
    22  C   -0.504739
    23  C   -0.363806
    24  H    0.191947
    25  C   -0.417544
    26  H    0.203388
    27  C   -0.365664
    28  H    0.224243
    29  H    0.215394
    30  C   -0.468457
    31  H    0.214949
    32  C   -0.366408
    33  H    0.190897
    34  C   -0.417598
    35  H    0.224243
    36  H    0.221003
    37  H    0.197042
    38  C   -0.399018
    39  H    0.218667
    40  H    0.223736
    41  H    0.195771
    42  H    0.195460
 Sum of Mulliken charges =  -0.00000
 Mulliken charges with hydrogens summed into heavy atoms:
               1
     1  C    0.961789
     2  C   -1.236136
     3  C   -0.916571
     4  C    0.922350
     6  C    0.889175
     7  C    0.990822
     9  C   -1.377139
    10  C    1.264897
    11  C   -0.372539
    12  C    0.156193
    13  C    1.262218
    15  C   -0.330195
    16  C   -0.129209
    17  C   -0.050653
    19  C   -0.250669
    21  C   -0.147918
    22  C   -0.313842
    23  C   -0.139563
    25  C   -0.196540
    27  C   -0.168622
    30  C   -0.249790
    32  C   -0.142672
    34  C   -0.221827
    38  C   -0.203558
 Electronic spatial extent (au):  <R**2>=          10005.8771
 Charge=             -0.0000 electrons
 Dipole moment (field-independent basis, Debye):
    X=             -0.0139    Y=             -0.0069    Z=             -0.0001  Tot=              0.0155
 Quadrupole moment (field-independent basis, Debye-Ang):
   XX=           -126.4552   YY=           -128.5550   ZZ=           -139.3211
   XY=             -0.0432   XZ=              6.5094   YZ=             -2.9908
 Traceless Quadrupole moment (field-independent basis, Debye-Ang):
   XX=              4.9886   YY=              2.8888   ZZ=             -7.8773
   XY=             -0.0432   XZ=              6.5094   YZ=             -2.9908
 Octapole moment (field-independent basis, Debye-Ang**2):
  XXX=            -33.5509  YYY=             10.7811  ZZZ=              1.0811  XYY=             44.6592
  XXY=             -7.2224  XXZ=             29.8065  XZZ=            -10.7966  YZZ=             -3.4270
  YYZ=            -30.9674  XYZ=             21.4608
 Hexadecapole moment (field-independent basis, Debye-Ang**3):
 XXXX=          -6262.9336 YYYY=          -6206.3446 ZZZZ=           -588.7381 XXXY=             -1.2514
 XXXZ=            125.3020 YYYX=             -8.5297 YYYZ=             14.3230 ZZZX=             14.7571
 ZZZY=            -16.8734 XXYY=          -2118.4116 XXZZ=          -1200.5091 YYZZ=          -1225.3887
 XXYZ=            -72.6763 YYXZ=             26.3561 ZZXY=              8.8605
 N-N= 1.731490053123D+03 E-N=-5.609443143061D+03  KE= 9.212940397234D+02
 No NMR shielding tensors so no spin-rotation constants.
 Leave Link  601 at Mon Nov 14 15:22:20 2022, MaxMem= 16106127360 cpu:              32.3 elap:               1.1
 (Enter /opt/ap/G16/B01/g16/l9999.exe)
 1\1\GINC-N61\SP\RwB97XD\6-311++G(d,p)\C24H18\ROOT\14-Nov-2022\0\\#P wB
 97XD/6-311++G(d,p) scf=maxcycle=512\\_conf030.gjf nmol_natom 1_42\\0,1
 \C\C,1,1.39412829\C,1,1.39435449,2,118.86443127\C,2,1.39416084,1,121.1
 529487,3,0.03668482,0\H,2,1.08488355,1,119.42236619,3,-179.97409048,0\
 C,1,1.48467131,2,120.55714816,4,179.25839056,0\C,3,1.39437784,1,121.11
 776116,2,-0.05351271,0\H,3,1.08487775,1,119.41869036,2,177.23008049,0\
 C,4,1.39432447,2,118.86473838,1,0.01008406,0\C,4,1.48466627,2,120.5464
 188,1,179.19454736,0\C,6,1.3968498,1,120.7843492,2,60.,0\C,6,1.3968682
 ,1,120.67653841,2,-120.,0\C,7,1.48449863,3,120.56496838,1,-179.9632580
 4,0\H,9,1.0848792,4,119.41824946,2,177.22245984,0\C,10,1.39685361,4,12
 0.76946845,2,-42.52368674,0\C,10,1.39686289,4,120.69448769,2,137.43107
 516,0\C,11,1.38888939,6,120.7380073,1,179.94058542,0\H,11,1.0847641,6,
 119.46912378,1,-1.41050605,0\C,12,1.38882428,6,120.76493111,1,-179.950
 82712,0\H,12,1.08482758,6,119.44182626,1,-1.23602505,0\C,13,1.39682899
 ,7,120.74134419,3,42.89023273,0\C,13,1.39683158,7,120.7379111,3,-137.1
 2494058,0\C,15,1.38888263,10,120.742191,4,179.9460119,0\H,15,1.0847633
 4,10,119.47085903,4,-1.40606944,0\C,16,1.38886088,10,120.76338989,4,-1
 79.95592713,0\H,16,1.08483431,10,119.44215232,4,-1.23439681,0\C,17,1.3
 9007919,11,120.20743432,6,0.00349958,0\H,17,1.0843506,11,119.71318733,
 6,179.5011609,0\H,19,1.08435858,12,119.73823132,6,179.53683762,0\C,21,
 1.38882373,13,120.76699356,7,179.99297883,0\H,21,1.0847938,13,119.4352
 623,7,1.32183327,0\C,22,1.38881869,13,120.76647403,7,-179.97118338,0\H
 ,22,1.08479982,13,119.43203605,7,1.34657928,0\C,23,1.39007007,15,120.2
 0732995,10,0.00573957,0\H,23,1.08434813,15,119.71220819,10,179.5072436
 8,0\H,25,1.08436328,16,119.73539424,10,179.53636455,0\H,27,1.08412515,
 17,120.21790854,11,179.98397203,0\C,30,1.39008059,21,120.18795226,13,-
 0.02169059,0\H,30,1.08435324,21,119.73787119,13,-179.52151214,0\H,32,1
 .0843543,22,119.737043,13,-179.52886928,0\H,34,1.08412314,23,120.22152
 803,15,179.98800213,0\H,38,1.08411439,30,120.21547163,21,-179.98600656
 ,0\\Version=ES64L-G16RevB.01\State=1-A\HF=-925.310761\RMSD=8.691e-09\D
 ipole=-0.0036461,0.0001627,-0.0048865\Quadrupole=3.0141358,-5.4567205,
 2.4425847,-5.6439667,0.6325787,-0.1823362\PG=C01 [X(C24H18)]\\@


 THERE IS NO CURE FOR BIRTH AND DEATH SAVE TO ENJOY THE INTERVAL.

                               -- GEORGE SANTAYANA
 Job cpu time:       0 days  1 hours 19 minutes 42.2 seconds.
 Elapsed time:       0 days  0 hours  2 minutes 31.2 seconds.
 File lengths (MBytes):  RWF=    224 Int=      0 D2E=      0 Chk=     26 Scr=      1
 Normal termination of Gaussian 16 at Mon Nov 14 15:22:20 2022.
