 Entering Gaussian System, Link 0=g16
 Input=_conf000.gjf
 Output=_conf000.log
 Initial command:
 /opt/ap/G16/B01/g16/l1.exe "/tmp2/scr/Gau-19864.inp" -scrdir="/tmp2/scr/"
 Entering Link 1 = /opt/ap/G16/B01/g16/l1.exe PID=     19865.
  
 Copyright (c) 1988-2017, Gaussian, Inc.  All Rights Reserved.
  
 This is part of the Gaussian(R) 16 program.  It is based on
 the Gaussian(R) 09 system (copyright 2009, Gaussian, Inc.),
 the Gaussian(R) 03 system (copyright 2003, Gaussian, Inc.),
 the Gaussian(R) 98 system (copyright 1998, Gaussian, Inc.),
 the Gaussian(R) 94 system (copyright 1995, Gaussian, Inc.),
 the Gaussian 92(TM) system (copyright 1992, Gaussian, Inc.),
 the Gaussian 90(TM) system (copyright 1990, Gaussian, Inc.),
 the Gaussian 88(TM) system (copyright 1988, Gaussian, Inc.),
 the Gaussian 86(TM) system (copyright 1986, Carnegie Mellon
 University), and the Gaussian 82(TM) system (copyright 1983,
 Carnegie Mellon University). Gaussian is a federally registered
 trademark of Gaussian, Inc.
  
 This software contains proprietary and confidential information,
 including trade secrets, belonging to Gaussian, Inc.
  
 This software is provided under written license and may be
 used, copied, transmitted, or stored only in accord with that
 written license.
  
 The following legend is applicable only to US Government
 contracts under FAR:
  
                    RESTRICTED RIGHTS LEGEND
  
 Use, reproduction and disclosure by the US Government is
 subject to restrictions as set forth in subparagraphs (a)
 and (c) of the Commercial Computer Software - Restricted
 Rights clause in FAR 52.227-19.
  
 Gaussian, Inc.
 340 Quinnipiac St., Bldg. 40, Wallingford CT 06492
  
  
 ---------------------------------------------------------------
 Warning -- This program may not be used in any manner that
 competes with the business of Gaussian, Inc. or will provide
 assistance to any competitor of Gaussian, Inc.  The licensee
 of this program is prohibited from giving any competitor of
 Gaussian, Inc. access to this program.  By using this program,
 the user acknowledges that Gaussian, Inc. is engaged in the
 business of creating and licensing software in the field of
 computational chemistry and represents and warrants to the
 licensee that it is not a competitor of Gaussian, Inc. and that
 it will not use this program in any manner prohibited above.
 ---------------------------------------------------------------
  

 Cite this work as:
 Gaussian 16, Revision B.01,
 M. J. Frisch, G. W. Trucks, H. B. Schlegel, G. E. Scuseria, 
 M. A. Robb, J. R. Cheeseman, G. Scalmani, V. Barone, 
 G. A. Petersson, H. Nakatsuji, X. Li, M. Caricato, A. V. Marenich, 
 J. Bloino, B. G. Janesko, R. Gomperts, B. Mennucci, H. P. Hratchian, 
 J. V. Ortiz, A. F. Izmaylov, J. L. Sonnenberg, D. Williams-Young, 
 F. Ding, F. Lipparini, F. Egidi, J. Goings, B. Peng, A. Petrone, 
 T. Henderson, D. Ranasinghe, V. G. Zakrzewski, J. Gao, N. Rega, 
 G. Zheng, W. Liang, M. Hada, M. Ehara, K. Toyota, R. Fukuda, 
 J. Hasegawa, M. Ishida, T. Nakajima, Y. Honda, O. Kitao, H. Nakai, 
 T. Vreven, K. Throssell, J. A. Montgomery, Jr., J. E. Peralta, 
 F. Ogliaro, M. J. Bearpark, J. J. Heyd, E. N. Brothers, K. N. Kudin, 
 V. N. Staroverov, T. A. Keith, R. Kobayashi, J. Normand, 
 K. Raghavachari, A. P. Rendell, J. C. Burant, S. S. Iyengar, 
 J. Tomasi, M. Cossi, J. M. Millam, M. Klene, C. Adamo, R. Cammi, 
 J. W. Ochterski, R. L. Martin, K. Morokuma, O. Farkas, 
 J. B. Foresman, and D. J. Fox, Gaussian, Inc., Wallingford CT, 2016.
 
 ******************************************
 Gaussian 16:  ES64L-G16RevB.01 20-Dec-2017
                14-Nov-2022 
 ******************************************
 %nprocshared=32
 Will use up to   32 processors via shared memory.
 %mem=120GB
 %chk=_conf000.chk
 ----------------------------------------
 #P wB97XD/6-311++G(d,p) scf=maxcycle=512
 ----------------------------------------
 1/38=1,172=1/1;
 2/12=2,17=6,18=5,40=1/2;
 3/5=4,6=6,7=1111,11=2,25=1,30=1,74=-58/1,2,3;
 4//1;
 5/5=2,7=512,38=5/2;
 6/7=2,8=2,9=2,10=2,28=1/1;
 99/5=1,9=1/99;
 Leave Link    1 at Mon Nov 14 15:01:50 2022, MaxMem= 16106127360 cpu:               6.6 elap:               0.2
 (Enter /opt/ap/G16/B01/g16/l101.exe)
 ----------------------------
 _conf000.gjf nmol_natom 1_42
 ----------------------------
 Symbolic Z-matrix:
 Charge =  0 Multiplicity = 1
 C
 C                    1     1.39413 
 C                    1     1.39435  2     118.86443 
 C                    2     1.39416  1     121.15295  3     0.03668  0
 H                    2     1.08488  1     119.42237  3    -179.97409  0
 C                    1     1.48467  2     120.55715  4     179.25839  0
 C                    3     1.39438  1     121.11776  2    -0.05351  0
 H                    3     1.08488  1     119.41869  2     177.23008  0
 C                    4     1.39432  2     118.86474  1     0.01008  0
 C                    4     1.48467  2     120.54642  1     179.19455  0
 C                    6     1.39685  1     120.78435  2    -90.      0
 C                    6     1.39687  1     120.67654  2     90.      0
 C                    7     1.4845   3     120.56497  1    -179.96326  0
 H                    9     1.08488  4     119.41825  2     177.22246  0
 C                    10    1.39685  4     120.76947  2    -42.52369  0
 C                    10    1.39686  4     120.69449  2     137.43108  0
 C                    11    1.38889  6     120.73801  1     179.94059  0
 H                    11    1.08476  6     119.46912  1    -1.41051  0
 C                    12    1.38882  6     120.76493  1    -179.95083  0
 H                    12    1.08483  6     119.44183  1    -1.23603  0
 C                    13    1.39683  7     120.74134  3     42.89023  0
 C                    13    1.39683  7     120.73791  3    -137.12494  0
 C                    15    1.38888  10    120.74219  4     179.94601  0
 H                    15    1.08476  10    119.47086  4    -1.40607  0
 C                    16    1.38886  10    120.76339  4    -179.95593  0
 H                    16    1.08483  10    119.44215  4    -1.2344   0
 C                    17    1.39008  11    120.20743  6     0.0035   0
 H                    17    1.08435  11    119.71319  6     179.50116  0
 H                    19    1.08436  12    119.73823  6     179.53684  0
 C                    21    1.38882  13    120.76699  7     179.99298  0
 H                    21    1.08479  13    119.43526  7     1.32183  0
 C                    22    1.38882  13    120.76647  7    -179.97118  0
 H                    22    1.0848   13    119.43204  7     1.34658  0
 C                    23    1.39007  15    120.20733  10    0.00574  0
 H                    23    1.08435  15    119.71221  10    179.50724  0
 H                    25    1.08436  16    119.73539  10    179.53636  0
 H                    27    1.08413  17    120.21791  11    179.98397  0
 C                    30    1.39008  21    120.18795  13   -0.02169  0
 H                    30    1.08435  21    119.73787  13   -179.52151  0
 H                    32    1.08435  22    119.73704  13   -179.52887  0
 H                    34    1.08412  23    120.22153  15    179.988  0
 H                    38    1.08411  30    120.21547  21   -179.98601  0
 
 ITRead=  0  0  0  0  0  0  0  0  0  0  0  0  0  0  0  0  0  0  0  0
 ITRead=  0  0  0  0  0  0  0  0  0  0  0  0  0  0  0  0  0  0  0  0
 ITRead=  0  0
 MicOpt= -1 -1 -1 -1 -1 -1 -1 -1 -1 -1 -1 -1 -1 -1 -1 -1 -1 -1 -1 -1
 MicOpt= -1 -1 -1 -1 -1 -1 -1 -1 -1 -1 -1 -1 -1 -1 -1 -1 -1 -1 -1 -1
 MicOpt= -1 -1
 NAtoms=     42 NQM=       42 NQMF=       0 NMMI=      0 NMMIF=      0
                NMic=       0 NMicF=      0.
                    Isotopes and Nuclear Properties:
 (Nuclear quadrupole moments (NQMom) in fm**2, nuclear magnetic moments (NMagM)
  in nuclear magnetons)

  Atom         1           2           3           4           5           6           7           8           9          10
 IAtWgt=          12          12          12          12           1          12          12           1          12          12
 AtmWgt=  12.0000000  12.0000000  12.0000000  12.0000000   1.0078250  12.0000000  12.0000000   1.0078250  12.0000000  12.0000000
 NucSpn=           0           0           0           0           1           0           0           1           0           0
 AtZEff=  -0.0000000  -0.0000000  -0.0000000  -0.0000000  -0.0000000  -0.0000000  -0.0000000  -0.0000000  -0.0000000  -0.0000000
 NQMom=    0.0000000   0.0000000   0.0000000   0.0000000   0.0000000   0.0000000   0.0000000   0.0000000   0.0000000   0.0000000
 NMagM=    0.0000000   0.0000000   0.0000000   0.0000000   2.7928460   0.0000000   0.0000000   2.7928460   0.0000000   0.0000000
 AtZNuc=   6.0000000   6.0000000   6.0000000   6.0000000   1.0000000   6.0000000   6.0000000   1.0000000   6.0000000   6.0000000

  Atom        11          12          13          14          15          16          17          18          19          20
 IAtWgt=          12          12          12           1          12          12          12           1          12           1
 AtmWgt=  12.0000000  12.0000000  12.0000000   1.0078250  12.0000000  12.0000000  12.0000000   1.0078250  12.0000000   1.0078250
 NucSpn=           0           0           0           1           0           0           0           1           0           1
 AtZEff=  -0.0000000  -0.0000000  -0.0000000  -0.0000000  -0.0000000  -0.0000000  -0.0000000  -0.0000000  -0.0000000  -0.0000000
 NQMom=    0.0000000   0.0000000   0.0000000   0.0000000   0.0000000   0.0000000   0.0000000   0.0000000   0.0000000   0.0000000
 NMagM=    0.0000000   0.0000000   0.0000000   2.7928460   0.0000000   0.0000000   0.0000000   2.7928460   0.0000000   2.7928460
 AtZNuc=   6.0000000   6.0000000   6.0000000   1.0000000   6.0000000   6.0000000   6.0000000   1.0000000   6.0000000   1.0000000

  Atom        21          22          23          24          25          26          27          28          29          30
 IAtWgt=          12          12          12           1          12           1          12           1           1          12
 AtmWgt=  12.0000000  12.0000000  12.0000000   1.0078250  12.0000000   1.0078250  12.0000000   1.0078250   1.0078250  12.0000000
 NucSpn=           0           0           0           1           0           1           0           1           1           0
 AtZEff=  -0.0000000  -0.0000000  -0.0000000  -0.0000000  -0.0000000  -0.0000000  -0.0000000  -0.0000000  -0.0000000  -0.0000000
 NQMom=    0.0000000   0.0000000   0.0000000   0.0000000   0.0000000   0.0000000   0.0000000   0.0000000   0.0000000   0.0000000
 NMagM=    0.0000000   0.0000000   0.0000000   2.7928460   0.0000000   2.7928460   0.0000000   2.7928460   2.7928460   0.0000000
 AtZNuc=   6.0000000   6.0000000   6.0000000   1.0000000   6.0000000   1.0000000   6.0000000   1.0000000   1.0000000   6.0000000

  Atom        31          32          33          34          35          36          37          38          39          40
 IAtWgt=           1          12           1          12           1           1           1          12           1           1
 AtmWgt=   1.0078250  12.0000000   1.0078250  12.0000000   1.0078250   1.0078250   1.0078250  12.0000000   1.0078250   1.0078250
 NucSpn=           1           0           1           0           1           1           1           0           1           1
 AtZEff=  -0.0000000  -0.0000000  -0.0000000  -0.0000000  -0.0000000  -0.0000000  -0.0000000  -0.0000000  -0.0000000  -0.0000000
 NQMom=    0.0000000   0.0000000   0.0000000   0.0000000   0.0000000   0.0000000   0.0000000   0.0000000   0.0000000   0.0000000
 NMagM=    2.7928460   0.0000000   2.7928460   0.0000000   2.7928460   2.7928460   2.7928460   0.0000000   2.7928460   2.7928460
 AtZNuc=   1.0000000   6.0000000   1.0000000   6.0000000   1.0000000   1.0000000   1.0000000   6.0000000   1.0000000   1.0000000

  Atom        41          42
 IAtWgt=           1           1
 AtmWgt=   1.0078250   1.0078250
 NucSpn=           1           1
 AtZEff=  -0.0000000  -0.0000000
 NQMom=    0.0000000   0.0000000
 NMagM=    2.7928460   2.7928460
 AtZNuc=   1.0000000   1.0000000
 Leave Link  101 at Mon Nov 14 15:01:50 2022, MaxMem= 16106127360 cpu:               6.4 elap:               0.2
 (Enter /opt/ap/G16/B01/g16/l202.exe)
                          Input orientation:                          
 ---------------------------------------------------------------------
 Center     Atomic      Atomic             Coordinates (Angstroms)
 Number     Number       Type             X           Y           Z
 ---------------------------------------------------------------------
      1          6           0        0.000000    0.000000    0.000000
      2          6           0        0.000000    0.000000    1.394128
      3          6           0        1.221126    0.000000   -0.673109
      4          6           0        1.193108    0.000764    2.115362
      5          1           0       -0.944957   -0.000427    1.927071
      6          6           0       -1.278366   -0.017366   -0.754803
      7          6           0        2.428476    0.001115    0.024455
      8          1           0        1.232154   -0.045667   -1.756969
      9          6           0        2.400843    0.001752    1.418572
     10          6           0        1.177445    0.018728    3.599837
     11          6           0       -1.877642   -1.225651   -1.118266
     12          6           0       -1.908324    1.175579   -1.117123
     13          6           0        3.721572    0.001921   -0.704680
     14          1           0        3.334061    0.048144    1.969857
     15          6           0        0.290794    0.844275    4.295193
     16          6           0        2.049080   -0.790881    4.331965
     17          6           0       -3.074179   -1.240782   -1.823308
     18          1           0       -1.389813   -2.160788   -0.864780
     19          6           0       -3.104709    1.161470   -1.822314
     20          1           0       -1.466252    2.122166   -0.824896
     21          6           0        3.910862    0.818865   -1.821777
     22          6           0        4.776237   -0.814044   -0.288725
     23          6           0        0.275860    0.859807    5.683909
     24          1           0       -0.377402    1.495584    3.742000
     25          6           0        2.035025   -0.775886    5.720674
     26          1           0        2.729408   -1.453102    3.807101
     27          6           0       -3.692478   -0.047186   -2.177361
     28          1           0       -3.520659   -2.188237   -2.104024
     29          1           0       -3.583255    2.097406   -2.088491
     30          6           0        5.120444    0.820149   -2.504230
     31          1           0        3.109266    1.474569   -2.144691
     32          6           0        5.986440   -0.813321   -0.970068
     33          1           0        4.638168   -1.470412    0.563864
     34          6           0        1.147946    0.049642    6.401818
     35          1           0       -0.413890    1.513063    6.206701
     36          1           0        2.713797   -1.416787    6.272362
     37          1           0       -4.626329   -0.058797   -2.727921
     38          6           0        6.162883    0.003944   -2.080611
     39          1           0        5.251831    1.466740   -3.364741
     40          1           0        6.791448   -1.459089   -0.637249
     41          1           0        1.136620    0.061726    7.485815
     42          1           0        7.107346    0.004761   -2.612865
 ---------------------------------------------------------------------
                    Distance matrix (angstroms):
                    1          2          3          4          5
     1  C    0.000000
     2  C    1.394128   0.000000
     3  C    1.394354   2.400962   0.000000
     4  C    2.428634   1.394161   2.788612   0.000000
     5  H    2.146287   1.084884   3.384206   2.146341   0.000000
     6  C    1.484671   2.500485   2.500887   3.787659   2.702572
     7  C    2.428599   2.788100   1.394378   2.428585   3.872983
     8  H    2.146445   3.383741   1.084878   3.872806   4.279487
     9  C    2.788619   2.400968   2.401430   1.394324   3.384222
    10  C    3.787552   2.500376   4.273210   1.484666   2.702426
    11  C    2.505649   3.367475   3.361956   4.624927   3.412499
    12  C    2.504326   3.366016   3.372327   4.631201   3.402672
    13  C    3.787700   4.272598   2.500646   3.787581   5.357482
    14  H    3.872805   3.383747   3.384092   2.146415   4.279508
    15  C    4.387032   3.035381   5.124680   2.505463   2.801537
    16  C    4.856969   3.668120   5.134371   2.504540   3.920790
    17  C    3.783460   4.619742   4.616508   5.938374   4.487472
    18  H    2.710799   3.421002   3.394517   4.497225   3.558017
    19  C    3.782732   4.618846   4.624125   5.943380   4.480225
    20  H    2.708124   3.402580   3.427627   4.496404   3.514323
    21  C    4.391384   5.129076   3.037212   4.853507   6.189029
    22  C    4.853707   5.129045   3.667320   4.391169   6.189006
    23  C    5.755188   4.383786   6.484171   3.783362   4.042800
    24  H    4.047440   2.809218   4.928007   2.710524   2.419532
    25  C    6.121229   4.843792   6.491910   3.782894   4.886007
    26  H    4.904609   3.922195   4.945574   2.708491   4.375585
    27  C    4.286902   5.137330   5.138921   6.503747   4.939374
    28  H    4.648692   5.424066   5.414834   6.694366   5.260273
    29  H    4.647647   5.419176   5.429963   6.699398   5.242734
    30  C    5.758711   6.487587   4.385239   6.118495   7.556379
    31  H    4.054822   4.936104   2.811579   4.898143   5.932249
    32  C    6.118822   6.487555   4.843334   5.758354   7.556353
    33  H    4.898230   4.935996   3.920254   4.054620   5.932156
    34  C    6.504116   5.137821   7.075480   4.286973   4.940255
    35  H    6.401859   5.061770   7.231488   4.648499   4.570330
    36  H    6.979577   5.759266   7.243957   4.647859   5.854410
    37  H    5.371027   6.196585   6.198261   7.571445   5.935053
    38  C    6.504621   7.074953   5.138292   6.504219   8.159837
    39  H    6.407382   7.237395   5.063871   6.975231   8.279857
    40  H    6.975586   7.237348   5.758361   6.406985   8.279819
    41  H    7.571865   6.197125   8.159595   5.371096   5.936031
    42  H    7.572414   8.159067   6.197601   7.571945   9.243951
                    6          7          8          9         10
     6  C    0.000000
     7  C    3.787910   0.000000
     8  H    2.703303   2.146356   0.000000
     9  C    4.273231   1.394392   3.384102   0.000000
    10  C    4.999520   3.787973   5.357472   2.500981   0.000000
    11  C    1.396850   4.620975   3.386906   5.123231   5.756955
    12  C    1.396868   4.635773   3.429788   5.135809   5.754127
    13  C    5.000226   1.484499   2.703105   2.500505   5.000173
    14  H    5.357476   2.146366   4.279725   1.084879   2.703459
    15  C    5.357906   4.849723   6.189251   3.665665   1.396854
    16  C    6.127433   4.396117   6.188524   3.039714   1.396863
    17  C    2.421445   5.935970   4.469586   6.483020   7.005225
    18  H    2.149133   4.477041   3.484889   4.925378   5.592308
    19  C    2.421728   5.947530   4.502203   6.493027   7.003030
    20  H    2.148909   4.515435   3.584641   4.948103   5.567032
    21  C    5.363376   2.504946   2.815510   3.667109   6.124188
    22  C    6.124553   2.504906   3.912375   3.036921   5.363369
    23  C    6.681472   6.115597   7.556523   4.841994   2.421492
    24  H    4.829285   4.891475   5.933362   3.917716   2.149154
    25  C    7.313393   5.762417   7.555989   4.387097   2.421736
    26  H    6.239756   4.063707   5.931401   2.815959   2.148914
    27  C    2.802231   6.505106   4.942543   7.075429   7.556224
    28  H    3.400141   6.686994   5.224967   7.229725   7.712127
    29  H    3.400515   6.708195   5.281177   7.245736   7.703392
    30  C    6.686306   3.783088   4.053003   4.842972   7.310892
    31  H    4.838282   2.709194   2.446425   3.920191   6.233057
    32  C    7.311449   3.783053   4.879728   4.384797   6.686012
    33  H    6.233426   2.709077   4.360860   2.811302   4.838519
    34  C    7.557031   6.504835   8.159779   5.138559   2.802307
    35  H    7.179977   6.970308   8.280044   5.756123   3.400165
    36  H    8.202243   6.413127   8.279214   5.066504   3.400510
    37  H    3.886356   7.572940   5.938412   8.159548   8.586636
    38  C    7.558466   4.286853   4.941589   5.137824   7.557929
    39  H    7.187337   4.648230   4.585860   5.757987   8.197725
    40  H    8.198432   4.648180   5.844424   5.063385   7.187062
    41  H    8.587561   7.572613   9.243902   6.197846   3.886431
    42  H    8.589123   5.370968   5.937422   6.197069   8.588456
                   11         12         13         14         15
    11  C    0.000000
    12  C    2.401427   0.000000
    13  C    5.747102   5.765701   0.000000
    14  H    6.190388   6.187338   2.702860   0.000000
    15  C    6.188073   5.851414   6.121971   3.911840   0.000000
    16  C    6.731507   7.015737   5.365963   2.816859   2.401387
    17  C    1.388889   2.774296   6.998419   7.557445   7.287425
    18  H    1.084764   3.385835   5.552405   5.935447   6.203239
    19  C    2.774838   1.388824   7.013685   7.554986   7.003853
    20  H    3.385733   1.084828   5.605658   5.929183   5.561971
    21  C    6.179138   5.872538   1.396829   3.911930   7.107943
    22  C    6.718011   7.023404   1.396832   2.815037   6.624314
    23  C    7.433457   7.150133   7.309101   4.879095   1.388883
    24  H    5.768711   5.104625   6.229413   4.360107   1.084763
    25  C    7.891917   8.131032   6.688393   4.054029   2.774755
    26  H    6.748028   7.257169   4.843310   2.448430   3.385708
    27  C    2.409169   2.408832   7.559057   8.159704   7.652132
    28  H    2.144247   3.858608   7.694470   8.281612   8.041970
    29  H    3.859166   2.144462   7.724408   8.277616   7.571659
    30  C    7.421549   7.173142   2.421718   4.878996   8.340159
    31  H    5.763157   5.130448   2.148776   4.360587   7.057844
    32  C    7.876278   8.142766   2.421709   4.052208   7.931644
    33  H    6.733888   7.258343   2.148749   2.446125   6.179018
    34  C    8.205622   8.194083   7.558317   4.941800   2.409154
    35  H    7.956021   7.482353   8.194680   5.843284   2.144229
    36  H    8.702829   9.093340   7.190790   4.587189   3.859086
    37  H    3.392317   3.392036   8.589798   9.243828   8.620776
    38  C    8.190730   8.212516   2.802355   4.940696   8.708529
    39  H    7.945124   7.510285   3.400487   5.843645   9.147346
    40  H    8.685562   9.102625   3.400476   4.585006   8.478973
    41  H    9.207243   9.193633   8.588933   5.937569   3.392325
    42  H    9.191177   9.213596   3.886469   5.936405   9.741223
                   16         17         18         19         20
    16  C    0.000000
    17  C    8.021071   0.000000
    18  H    6.380344   2.145291   0.000000
    19  C    8.261257   2.402446   3.859422   0.000000
    20  H    6.887424   3.858974   4.283822   2.145303   0.000000
    21  C    6.627673   7.282372   6.155593   7.023932   5.621896
    22  C    5.365510   8.010374   6.337645   8.268245   6.919356
    23  C    2.774316   8.484901   7.401607   8.237878   6.855147
    24  H    3.385823   6.762615   5.967952   6.205758   4.736532
    25  C    1.388861   9.123144   7.550873   9.330964   7.968822
    26  H    1.084834   8.088770   6.268594   8.518405   7.200104
    27  C    8.711481   1.390079   3.390052   1.390101   3.389888
    28  H    8.625344   1.084351   2.465154   3.387168   4.943312
    29  H    9.015967   3.387180   4.943772   1.084359   2.465561
    30  C    7.665654   8.477201   7.345558   8.260427   6.920980
    31  H    6.942862   6.761021   5.924162   6.230204   4.805893
    32  C    6.604154   9.110738   7.499057   9.342115   8.011290
    33  H    4.622091   8.076609   6.233314   8.518967   7.217979
    34  C    2.408903   9.335107   8.008100   9.325106   7.959572
    35  H    3.858628   8.896170   8.028415   8.475211   7.135952
    36  H    2.144469   9.953467   8.266314  10.296903   8.964823
    37  H    9.743666   2.150485   4.285405   2.150465   4.285346
    38  C    7.660043   9.324102   7.950317   9.343172   8.016694
    39  H    8.636768   8.889833   7.969956   8.503178   7.212006
    40  H    6.901424   9.939064   8.214450  10.305612   9.002789
    41  H    3.392092  10.299860   9.003048  10.287836   8.949205
    42  H    8.628428  10.287770   8.941315  10.307716   9.010373
                   21         22         23         24         25
    21  C    0.000000
    22  C    2.401148   0.000000
    23  C    8.339678   7.663388   0.000000
    24  H    7.057108   6.938381   2.145221   0.000000
    25  C    7.934139   6.605193   2.402396   3.859344   0.000000
    26  H    6.184005   4.623169   3.858996   4.283837   2.145356
    27  C    7.660762   8.710578   8.852678   6.957637   9.783367
    28  H    8.021835   8.603616   9.184554   7.591218   9.699807
    29  H    7.607075   9.033096   8.765536   6.680892  10.040117
    30  C    1.388824   2.774442   9.514051   8.348527   8.928391
    31  H    1.084794   3.385432   8.348239   6.841814   8.251212
    32  C    2.774430   1.388819   8.926672   8.248218   7.770528
    33  H    3.385417   1.084800   7.118603   6.637291   5.818196
    34  C    8.709358   7.659884   1.390070   3.389995   1.390095
    35  H    9.145591   8.633852   1.084348   2.465033   3.387137
    36  H    8.482109   6.903971   3.387136   4.943698   1.084363
    37  H    8.629891   9.743117   9.779273   7.894894  10.782700
    38  C    2.408878   2.408889   9.781478   8.882743   8.860440
    39  H    2.144453   3.858761  10.344405   9.066139   9.895553
    40  H    3.858751   2.144441   9.369482   8.905073   7.969536
    41  H    9.741711   8.628862   2.150513   4.285366   2.150453
    42  H    3.392063   3.392069  10.781315   9.931179   9.787018
                   26         27         28         29         30
    26  H    0.000000
    27  C    8.889939   0.000000
    28  H    8.633954   2.149185   0.000000
    29  H    9.338835   2.149210   4.286129   0.000000
    30  C    7.121630   8.861530   9.158559   8.806736   0.000000
    31  H    6.643746   6.969973   7.574543   6.721675   2.145313
    32  C    5.817122   9.783965   9.672703  10.064902   2.402462
    33  H    3.763276   8.884794   8.613905   9.346450   3.859075
    34  C    3.389959   9.850960   9.957576   9.932923   9.782234
    35  H    4.943333   9.136521   9.613520   8.899244  10.343562
    36  H    2.465578  10.691772  10.470311  11.041118   9.371467
    37  H    9.937679   1.084125   2.479166   2.479130   9.788879
    38  C    6.969712   9.855969   9.928605   9.968443   1.390081
    39  H    8.143918   9.148908   9.586702   8.949039   1.084353
    40  H    6.021000  10.690095  10.441391  11.062967   3.387152
    41  H    4.285396  10.803195  10.895760  10.866856  10.781792
    42  H    7.906179  10.808726  10.863823  10.906103   2.150451
                   31         32         33         34         35
    31  H    0.000000
    32  C    3.859055   0.000000
    33  H    4.283308   2.145356   0.000000
    34  C    8.883693   8.860047   6.969499   0.000000
    35  H    9.064207   9.893547   8.140394   2.149187   0.000000
    36  H    8.908597   7.970392   6.024369   2.149200   4.286112
    37  H    7.907641  10.783794   9.932744  10.803062  10.002142
    38  C    3.389900   1.390094   3.389946   9.854100  10.686951
    39  H    2.465597   3.387150   4.943418  10.688111  11.122726
    40  H    4.943399   1.084354   2.465647   9.147341  10.372571
    41  H    9.931470   9.787155   7.907066   1.084123   2.479233
    42  H    4.285343   2.150458   4.285392  10.806525  11.688828
                   36         37         38         39         40
    36  H    0.000000
    37  H   11.693018   0.000000
    38  C    9.148051  10.808795   0.000000
    39  H   10.374492  10.015530   2.149134   0.000000
    40  H    8.023201  11.691764   2.149152   4.286037   0.000000
    41  H    2.479104  11.728022  10.806626  11.689465  10.013697
    42  H   10.013557  11.734411   1.084114   2.479039   2.479054
                   41         42
    41  H    0.000000
    42  H   11.731844   0.000000
 Stoichiometry    C24H18
 Framework group  C1[X(C24H18)]
 Deg. of freedom   120
 Full point group                 C1      NOp   1
 Largest Abelian subgroup         C1      NOp   1
 Largest concise Abelian subgroup C1      NOp   1
                         Standard orientation:                         
 ---------------------------------------------------------------------
 Center     Atomic      Atomic             Coordinates (Angstroms)
 Number     Number       Type             X           Y           Z
 ---------------------------------------------------------------------
      1          6           0       -1.401128   -0.026521    0.042964
      2          6           0       -0.714388    1.186635    0.027679
      3          6           0       -0.670621   -1.213900    0.016211
      4          6           0        0.678572    1.226407   -0.014341
      5          1           0       -1.273729    2.115973    0.048676
      6          6           0       -2.884284   -0.053569    0.104329
      7          6           0        0.723055   -1.201741   -0.026297
      8          1           0       -1.193576   -2.162691    0.073432
      9          6           0        1.385737    0.025023   -0.041446
     10          6           0        1.395659    2.525975   -0.048134
     11          6           0       -3.548629   -0.079703    1.332804
     12          6           0       -3.646126   -0.053427   -1.066498
     13          6           0        1.488536   -2.473330   -0.055253
     14          1           0        2.467585    0.045147   -0.119946
     15          6           0        0.942482    3.571414   -0.856150
     16          6           0        2.538472    2.730187    0.728720
     17          6           0       -4.936168   -0.103756    1.389103
     18          1           0       -2.971677   -0.103433    2.251105
     19          6           0       -5.033638   -0.077681   -1.011224
     20          1           0       -3.145821   -0.012935   -2.028219
     21          6           0        1.078613   -3.535221   -0.864872
     22          6           0        2.634984   -2.634455    0.726305
     23          6           0        1.613105    4.787283   -0.886482
     24          1           0        0.069458    3.422006   -1.482423
     25          6           0        3.209872    3.945615    0.698900
     26          1           0        2.891327    1.935455    1.377381
     27          6           0       -5.683819   -0.102163    0.217209
     28          1           0       -5.434612   -0.132063    2.351688
     29          1           0       -5.608792   -0.069565   -1.930444
     30          6           0        1.794438   -4.725038   -0.892483
     31          1           0        0.202868   -3.418497   -1.494334
     32          6           0        3.351912   -3.823614    0.699225
     33          1           0        2.954389   -1.827293    1.376889
     34          6           0        2.749323    4.978897   -0.108929
     35          1           0        1.251300    5.584816   -1.525896
     36          1           0        4.091043    4.088546    1.314491
     37          1           0       -6.766894   -0.121197    0.260953
     38          6           0        2.934034   -4.873472   -0.110427
     39          1           0        1.465610   -5.535844   -1.533020
     40          1           0        4.235209   -3.933358    1.318553
     41          1           0        3.273083    5.927812   -0.132575
     42          1           0        3.493272   -5.801965   -0.131807
 ---------------------------------------------------------------------
 Rotational constants (GHZ):           0.1977369           0.1940240           0.1047461
 Leave Link  202 at Mon Nov 14 15:01:50 2022, MaxMem= 16106127360 cpu:               0.9 elap:               0.0
 (Enter /opt/ap/G16/B01/g16/l301.exe)
 Standard basis: 6-311++G(d,p) (5D, 7F)
 Ernie: Thresh=  0.10000D-02 Tol=  0.10000D-05 Strict=F.
 There are   678 symmetry adapted cartesian basis functions of A   symmetry.
 There are   654 symmetry adapted basis functions of A   symmetry.
   654 basis functions,  1026 primitive gaussians,   678 cartesian basis functions
    81 alpha electrons       81 beta electrons
       nuclear repulsion energy      1730.5085966620 Hartrees.
 IExCor= 4639 DFT=T Ex+Corr=wB97XD ExCW=0 ScaHFX=  1.000000
 ScaDFX=  1.000000  1.000000  1.000000  1.000000 ScalE2=  1.000000  1.000000
 IRadAn=      5 IRanWt=     -1 IRanGd=            0 ICorTp=0 IEmpDi=121
 HFx  wShort=  0.000000 wLong=  0.200000 cFull=  0.222036 cShort=  0.000000 cLong=  0.777964
 DFx  wShort=  0.000000 wLong=  0.200000 cFull=  0.000000 cShort=  0.000000 cLong=  1.000000
 NAtoms=   42 NActive=   42 NUniq=   42 SFac= 1.00D+00 NAtFMM=   60 NAOKFM=F Big=F
 Integral buffers will be    131072 words long.
 Raffenetti 2 integral format.
 Two-electron integral symmetry is turned on.
 R6Disp:  Grimme-D2 Dispersion energy=       -0.0286690417 Hartrees.
 Nuclear repulsion after empirical dispersion term =     1730.4799276203 Hartrees.
 Leave Link  301 at Mon Nov 14 15:01:50 2022, MaxMem= 16106127360 cpu:               2.4 elap:               0.1
 (Enter /opt/ap/G16/B01/g16/l302.exe)
 NPDir=0 NMtPBC=     1 NCelOv=     1 NCel=       1 NClECP=     1 NCelD=      1
         NCelK=      1 NCelE2=     1 NClLst=     1 CellRange=     0.0.
 One-electron integrals computed using PRISM.
 One-electron integral symmetry used in STVInt
 NBasis=   654 RedAO= T EigKep=  1.10D-06  NBF=   654
 NBsUse=   646 1.00D-06 EigRej=  7.15D-07 NBFU=   646
 Precomputing XC quadrature grid using
 IXCGrd= 4 IRadAn=           5 IRanWt=          -1 IRanGd=           0 AccXCQ= 0.00D+00.
 Generated NRdTot=       0 NPtTot=           0 NUsed=           0 NTot=          32
 NSgBfM=   669   669   669   669   669 MxSgAt=    42 MxSgA2=    42.
 Leave Link  302 at Mon Nov 14 15:01:51 2022, MaxMem= 16106127360 cpu:              21.5 elap:               0.7
 (Enter /opt/ap/G16/B01/g16/l303.exe)
 DipDrv:  MaxL=1.
 Leave Link  303 at Mon Nov 14 15:01:51 2022, MaxMem= 16106127360 cpu:               2.9 elap:               0.1
 (Enter /opt/ap/G16/B01/g16/l401.exe)
 ExpMin= 3.60D-02 ExpMax= 4.56D+03 ExpMxC= 6.82D+02 IAcc=3 IRadAn=         5 AccDes= 0.00D+00
 Harris functional with IExCor= 4639 and IRadAn=       5 diagonalized for initial guess.
 HarFok:  IExCor= 4639 AccDes= 0.00D+00 IRadAn=         5 IDoV= 1 UseB2=F ITyADJ=14
 ICtDFT=  3500011 ScaDFX=  1.000000  1.000000  1.000000  1.000000
 FoFCou: FMM=F IPFlag=           0 FMFlag=      100000 FMFlg1=           0
         NFxFlg=           0 DoJE=T BraDBF=F KetDBF=T FulRan=T
         wScrn=  0.000000 ICntrl=       500 IOpCl=  0 I1Cent=   200000004 NGrid=           0
         NMat0=    1 NMatS0=      1 NMatT0=    0 NMatD0=    1 NMtDS0=    0 NMtDT0=    0
 Petite list used in FoFCou.
 Harris En= -882.967703193371    
 JPrj=0 DoOrth=F DoCkMO=F.
 Leave Link  401 at Mon Nov 14 15:01:53 2022, MaxMem= 16106127360 cpu:              55.9 elap:               1.8
 (Enter /opt/ap/G16/B01/g16/l502.exe)
 Integral symmetry usage will be decided dynamically.
 Closed shell SCF:
 Using DIIS extrapolation, IDIIS=  1040.
 NGot= 16106127360 LenX= 16105179956 LenY= 16104719594
 Requested convergence on RMS density matrix=1.00D-08 within 512 cycles.
 Requested convergence on MAX density matrix=1.00D-06.
 Requested convergence on             energy=1.00D-06.
 No special actions if energy rises.
 Fock matrices will be formed incrementally for  20 cycles.

 Cycle   1  Pass 1  IDiag  1:
 FoFJK:  IHMeth= 1 ICntrl=       0 DoSepK=T KAlg= 0 I1Cent=           0 FoldK=F
 IRaf=         1 NMat=       1 IRICut=       1 DoRegI=T DoRafI=F ISym2E= 0 IDoP0=0 IntGTp=1.
 FoFCou: FMM=F IPFlag=           0 FMFlag=      100000 FMFlg1=           0
         NFxFlg=           0 DoJE=T BraDBF=F KetDBF=F FulRan=T
         wScrn=  0.000000 ICntrl=       500 IOpCl=  0 I1Cent=           0 NGrid=           0
         NMat0=    1 NMatS0=      1 NMatT0=    0 NMatD0=    1 NMtDS0=    0 NMtDT0=    0
 Symmetry not used in FoFCou.
 E= -925.114146955549    
 DIIS: error= 5.18D-02 at cycle   1 NSaved=   1.
 NSaved= 1 IEnMin= 1 EnMin= -925.114146955549     IErMin= 1 ErrMin= 5.18D-02
 ErrMax= 5.18D-02  0.00D+00 EMaxC= 1.00D-01 BMatC= 1.90D+00 BMatP= 1.90D+00
 IDIUse=3 WtCom= 4.82D-01 WtEn= 5.18D-01
 Coeff-Com:  0.100D+01
 Coeff-En:   0.100D+01
 Coeff:      0.100D+01
 Gap=     0.317 Goal=   None    Shift=    0.000
 GapD=    0.317 DampG=1.000 DampE=0.500 DampFc=0.5000 IDamp=-1.
 Damping current iteration by 5.00D-01
 RMSDP=4.30D-02 MaxDP=4.42D+00              OVMax= 4.33D-02

 Cycle   2  Pass 1  IDiag  1:
 RMSU=  6.96D-03    CP:  8.20D-01
 E= -925.212536308419     Delta-E=       -0.098389352870 Rises=F Damp=T
 DIIS: error= 2.45D-02 at cycle   2 NSaved=   2.
 NSaved= 2 IEnMin= 2 EnMin= -925.212536308419     IErMin= 2 ErrMin= 2.45D-02
 ErrMax= 2.45D-02  0.00D+00 EMaxC= 1.00D-01 BMatC= 4.32D-01 BMatP= 1.90D+00
 IDIUse=3 WtCom= 7.55D-01 WtEn= 2.45D-01
 Coeff-Com: -0.883D+00 0.188D+01
 Coeff-En:   0.000D+00 0.100D+01
 Coeff:     -0.666D+00 0.167D+01
 Gap=     0.325 Goal=   None    Shift=    0.000
 RMSDP=2.48D-02 MaxDP=2.11D+00 DE=-9.84D-02 OVMax= 3.43D-02

 Cycle   3  Pass 1  IDiag  1:
 RMSU=  3.93D-03    CP:  6.05D-01  1.45D+00
 E= -925.300995121469     Delta-E=       -0.088458813050 Rises=F Damp=F
 DIIS: error= 3.22D-03 at cycle   3 NSaved=   3.
 NSaved= 3 IEnMin= 3 EnMin= -925.300995121469     IErMin= 3 ErrMin= 3.22D-03
 ErrMax= 3.22D-03  0.00D+00 EMaxC= 1.00D-01 BMatC= 8.42D-03 BMatP= 4.32D-01
 IDIUse=3 WtCom= 9.68D-01 WtEn= 3.22D-02
 Coeff-Com: -0.365D+00 0.775D+00 0.590D+00
 Coeff-En:   0.000D+00 0.000D+00 0.100D+01
 Coeff:     -0.353D+00 0.750D+00 0.603D+00
 Gap=     0.323 Goal=   None    Shift=    0.000
 RMSDP=2.10D-03 MaxDP=1.91D-01 DE=-8.85D-02 OVMax= 1.99D-02

 Cycle   4  Pass 1  IDiag  1:
 RMSU=  1.42D-03    CP:  6.00D-01  1.57D+00  7.04D-01
 E= -925.308690369461     Delta-E=       -0.007695247992 Rises=F Damp=F
 DIIS: error= 9.69D-04 at cycle   4 NSaved=   4.
 NSaved= 4 IEnMin= 4 EnMin= -925.308690369461     IErMin= 4 ErrMin= 9.69D-04
 ErrMax= 9.69D-04  0.00D+00 EMaxC= 1.00D-01 BMatC= 2.76D-04 BMatP= 8.42D-03
 IDIUse=3 WtCom= 9.90D-01 WtEn= 9.69D-03
 Coeff-Com: -0.111D+00 0.237D+00 0.238D+00 0.636D+00
 Coeff-En:   0.000D+00 0.000D+00 0.000D+00 0.100D+01
 Coeff:     -0.110D+00 0.235D+00 0.236D+00 0.640D+00
 Gap=     0.322 Goal=   None    Shift=    0.000
 RMSDP=6.57D-04 MaxDP=5.87D-02 DE=-7.70D-03 OVMax= 4.45D-03

 Cycle   5  Pass 1  IDiag  1:
 RMSU=  2.95D-04    CP:  5.96D-01  1.62D+00  7.54D-01  8.22D-01
 E= -925.308977126883     Delta-E=       -0.000286757422 Rises=F Damp=F
 DIIS: error= 2.50D-04 at cycle   5 NSaved=   5.
 NSaved= 5 IEnMin= 5 EnMin= -925.308977126883     IErMin= 5 ErrMin= 2.50D-04
 ErrMax= 2.50D-04  0.00D+00 EMaxC= 1.00D-01 BMatC= 2.03D-05 BMatP= 2.76D-04
 IDIUse=3 WtCom= 9.97D-01 WtEn= 2.50D-03
 Coeff-Com:  0.254D-01-0.541D-01-0.244D-01 0.197D+00 0.856D+00
 Coeff-En:   0.000D+00 0.000D+00 0.000D+00 0.000D+00 0.100D+01
 Coeff:      0.253D-01-0.540D-01-0.244D-01 0.196D+00 0.857D+00
 Gap=     0.322 Goal=   None    Shift=    0.000
 RMSDP=1.87D-04 MaxDP=1.15D-02 DE=-2.87D-04 OVMax= 1.42D-03

 Cycle   6  Pass 1  IDiag  1:
 RMSU=  9.14D-05    CP:  5.96D-01  1.62D+00  7.79D-01  8.83D-01  1.28D+00
 E= -925.309002597770     Delta-E=       -0.000025470887 Rises=F Damp=F
 DIIS: error= 7.00D-05 at cycle   6 NSaved=   6.
 NSaved= 6 IEnMin= 6 EnMin= -925.309002597770     IErMin= 6 ErrMin= 7.00D-05
 ErrMax= 7.00D-05  0.00D+00 EMaxC= 1.00D-01 BMatC= 1.53D-06 BMatP= 2.03D-05
 IDIUse=1 WtCom= 1.00D+00 WtEn= 0.00D+00
 Coeff-Com:  0.134D-01-0.285D-01-0.166D-01 0.549D-01 0.338D+00 0.639D+00
 Coeff:      0.134D-01-0.285D-01-0.166D-01 0.549D-01 0.338D+00 0.639D+00
 Gap=     0.322 Goal=   None    Shift=    0.000
 RMSDP=8.23D-05 MaxDP=8.16D-03 DE=-2.55D-05 OVMax= 4.38D-04

 Cycle   7  Pass 1  IDiag  1:
 RMSU=  4.73D-05    CP:  5.96D-01  1.61D+00  7.85D-01  9.15D-01  1.30D+00
                    CP:  7.49D-01
 E= -925.309004410481     Delta-E=       -0.000001812711 Rises=F Damp=F
 DIIS: error= 1.68D-05 at cycle   7 NSaved=   7.
 NSaved= 7 IEnMin= 7 EnMin= -925.309004410481     IErMin= 7 ErrMin= 1.68D-05
 ErrMax= 1.68D-05  0.00D+00 EMaxC= 1.00D-01 BMatC= 1.10D-07 BMatP= 1.53D-06
 IDIUse=1 WtCom= 1.00D+00 WtEn= 0.00D+00
 Coeff-Com: -0.182D-02 0.390D-02 0.161D-02-0.256D-01-0.864D-01 0.109D+00
 Coeff-Com:  0.100D+01
 Coeff:     -0.182D-02 0.390D-02 0.161D-02-0.256D-01-0.864D-01 0.109D+00
 Coeff:      0.100D+01
 Gap=     0.322 Goal=   None    Shift=    0.000
 RMSDP=2.99D-05 MaxDP=1.89D-03 DE=-1.81D-06 OVMax= 2.50D-04

 Cycle   8  Pass 1  IDiag  1:
 RMSU=  9.10D-06    CP:  5.96D-01  1.62D+00  7.89D-01  9.16D-01  1.36D+00
                    CP:  8.48D-01  1.22D+00
 E= -925.309004635189     Delta-E=       -0.000000224708 Rises=F Damp=F
 DIIS: error= 9.50D-06 at cycle   8 NSaved=   8.
 NSaved= 8 IEnMin= 8 EnMin= -925.309004635189     IErMin= 8 ErrMin= 9.50D-06
 ErrMax= 9.50D-06  0.00D+00 EMaxC= 1.00D-01 BMatC= 2.28D-08 BMatP= 1.10D-07
 IDIUse=1 WtCom= 1.00D+00 WtEn= 0.00D+00
 Coeff-Com: -0.164D-02 0.351D-02 0.176D-02-0.168D-01-0.623D-01 0.294D-01
 Coeff-Com:  0.504D+00 0.542D+00
 Coeff:     -0.164D-02 0.351D-02 0.176D-02-0.168D-01-0.623D-01 0.294D-01
 Coeff:      0.504D+00 0.542D+00
 Gap=     0.322 Goal=   None    Shift=    0.000
 RMSDP=4.56D-06 MaxDP=2.93D-04 DE=-2.25D-07 OVMax= 7.35D-05

 Cycle   9  Pass 1  IDiag  1:
 RMSU=  2.87D-06    CP:  5.96D-01  1.62D+00  7.89D-01  9.16D-01  1.37D+00
                    CP:  8.51D-01  1.25D+00  9.37D-01
 E= -925.309004663560     Delta-E=       -0.000000028371 Rises=F Damp=F
 DIIS: error= 3.11D-06 at cycle   9 NSaved=   9.
 NSaved= 9 IEnMin= 9 EnMin= -925.309004663560     IErMin= 9 ErrMin= 3.11D-06
 ErrMax= 3.11D-06  0.00D+00 EMaxC= 1.00D-01 BMatC= 1.89D-09 BMatP= 2.28D-08
 IDIUse=1 WtCom= 1.00D+00 WtEn= 0.00D+00
 Coeff-Com:  0.121D-03-0.265D-03 0.715D-04 0.301D-02 0.109D-01-0.168D-01
 Coeff-Com: -0.185D+00 0.734D-01 0.111D+01
 Coeff:      0.121D-03-0.265D-03 0.715D-04 0.301D-02 0.109D-01-0.168D-01
 Coeff:     -0.185D+00 0.734D-01 0.111D+01
 Gap=     0.322 Goal=   None    Shift=    0.000
 RMSDP=3.17D-06 MaxDP=1.97D-04 DE=-2.84D-08 OVMax= 4.73D-05

 Cycle  10  Pass 1  IDiag  1:
 RMSU=  7.87D-07    CP:  5.96D-01  1.62D+00  7.89D-01  9.16D-01  1.37D+00
                    CP:  8.55D-01  1.28D+00  1.16D+00  1.24D+00
 E= -925.309004669256     Delta-E=       -0.000000005696 Rises=F Damp=F
 DIIS: error= 8.21D-07 at cycle  10 NSaved=  10.
 NSaved=10 IEnMin=10 EnMin= -925.309004669256     IErMin=10 ErrMin= 8.21D-07
 ErrMax= 8.21D-07  0.00D+00 EMaxC= 1.00D-01 BMatC= 1.96D-10 BMatP= 1.89D-09
 IDIUse=1 WtCom= 1.00D+00 WtEn= 0.00D+00
 Coeff-Com:  0.141D-03-0.303D-03-0.697D-04 0.197D-02 0.711D-02-0.529D-02
 Coeff-Com: -0.869D-01-0.241D-01 0.355D+00 0.752D+00
 Coeff:      0.141D-03-0.303D-03-0.697D-04 0.197D-02 0.711D-02-0.529D-02
 Coeff:     -0.869D-01-0.241D-01 0.355D+00 0.752D+00
 Gap=     0.322 Goal=   None    Shift=    0.000
 RMSDP=5.60D-07 MaxDP=4.43D-05 DE=-5.70D-09 OVMax= 1.02D-05

 Cycle  11  Pass 1  IDiag  1:
 RMSU=  1.67D-07    CP:  5.96D-01  1.62D+00  7.89D-01  9.16D-01  1.37D+00
                    CP:  8.54D-01  1.29D+00  1.17D+00  1.33D+00  1.17D+00
 E= -925.309004669623     Delta-E=       -0.000000000367 Rises=F Damp=F
 DIIS: error= 2.27D-07 at cycle  11 NSaved=  11.
 NSaved=11 IEnMin=11 EnMin= -925.309004669623     IErMin=11 ErrMin= 2.27D-07
 ErrMax= 2.27D-07  0.00D+00 EMaxC= 1.00D-01 BMatC= 3.41D-11 BMatP= 1.96D-10
 IDIUse=1 WtCom= 1.00D+00 WtEn= 0.00D+00
 Coeff-Com:  0.215D-04-0.454D-04-0.209D-04 0.108D-03 0.199D-03 0.132D-02
 Coeff-Com:  0.294D-02-0.248D-01-0.725D-01 0.240D+00 0.853D+00
 Coeff:      0.215D-04-0.454D-04-0.209D-04 0.108D-03 0.199D-03 0.132D-02
 Coeff:      0.294D-02-0.248D-01-0.725D-01 0.240D+00 0.853D+00
 Gap=     0.322 Goal=   None    Shift=    0.000
 RMSDP=3.79D-07 MaxDP=3.54D-05 DE=-3.67D-10 OVMax= 3.48D-06

 Cycle  12  Pass 1  IDiag  1:
 RMSU=  6.96D-08    CP:  5.96D-01  1.62D+00  7.89D-01  9.16D-01  1.37D+00
                    CP:  8.54D-01  1.28D+00  1.18D+00  1.36D+00  1.34D+00
                    CP:  1.25D+00
 E= -925.309004669651     Delta-E=       -0.000000000027 Rises=F Damp=F
 DIIS: error= 7.45D-08 at cycle  12 NSaved=  12.
 NSaved=12 IEnMin=12 EnMin= -925.309004669651     IErMin=12 ErrMin= 7.45D-08
 ErrMax= 7.45D-08  0.00D+00 EMaxC= 1.00D-01 BMatC= 1.42D-12 BMatP= 3.41D-11
 IDIUse=1 WtCom= 1.00D+00 WtEn= 0.00D+00
 Coeff-Com: -0.145D-04 0.315D-04 0.107D-04-0.228D-03-0.837D-03 0.814D-03
 Coeff-Com:  0.101D-01 0.745D-03-0.395D-01-0.604D-01-0.462D-01 0.114D+01
 Coeff:     -0.145D-04 0.315D-04 0.107D-04-0.228D-03-0.837D-03 0.814D-03
 Coeff:      0.101D-01 0.745D-03-0.395D-01-0.604D-01-0.462D-01 0.114D+01
 Gap=     0.322 Goal=   None    Shift=    0.000
 RMSDP=1.62D-07 MaxDP=1.52D-05 DE=-2.73D-11 OVMax= 1.22D-06

 Cycle  13  Pass 1  IDiag  1:
 RMSU=  3.63D-08    CP:  5.96D-01  1.62D+00  7.89D-01  9.16D-01  1.37D+00
                    CP:  8.54D-01  1.28D+00  1.18D+00  1.37D+00  1.41D+00
                    CP:  1.36D+00  1.57D+00
 E= -925.309004669652     Delta-E=       -0.000000000001 Rises=F Damp=F
 DIIS: error= 3.64D-08 at cycle  13 NSaved=  13.
 NSaved=13 IEnMin=13 EnMin= -925.309004669652     IErMin=13 ErrMin= 3.64D-08
 ErrMax= 3.64D-08  0.00D+00 EMaxC= 1.00D-01 BMatC= 2.05D-13 BMatP= 1.42D-12
 IDIUse=1 WtCom= 1.00D+00 WtEn= 0.00D+00
 Coeff-Com: -0.557D-05 0.120D-04 0.497D-05-0.747D-04-0.259D-03 0.191D-03
 Coeff-Com:  0.283D-02 0.154D-02-0.677D-02-0.283D-01-0.685D-01 0.353D+00
 Coeff-Com:  0.746D+00
 Coeff:     -0.557D-05 0.120D-04 0.497D-05-0.747D-04-0.259D-03 0.191D-03
 Coeff:      0.283D-02 0.154D-02-0.677D-02-0.283D-01-0.685D-01 0.353D+00
 Coeff:      0.746D+00
 Gap=     0.322 Goal=   None    Shift=    0.000
 RMSDP=2.01D-08 MaxDP=1.56D-06 DE=-1.36D-12 OVMax= 3.08D-07

 Cycle  14  Pass 1  IDiag  1:
 RMSU=  7.60D-09    CP:  5.96D-01  1.62D+00  7.89D-01  9.16D-01  1.37D+00
                    CP:  8.54D-01  1.28D+00  1.18D+00  1.37D+00  1.41D+00
                    CP:  1.36D+00  1.67D+00  1.14D+00
 E= -925.309004669604     Delta-E=        0.000000000048 Rises=F Damp=F
 DIIS: error= 9.22D-09 at cycle  14 NSaved=  14.
 NSaved=14 IEnMin=13 EnMin= -925.309004669652     IErMin=14 ErrMin= 9.22D-09
 ErrMax= 9.22D-09  0.00D+00 EMaxC= 1.00D-01 BMatC= 4.95D-14 BMatP= 2.05D-13
 IDIUse=1 WtCom= 1.00D+00 WtEn= 0.00D+00
 Coeff-Com:  0.599D-06-0.133D-05-0.206D-06 0.139D-04 0.582D-04-0.781D-04
 Coeff-Com: -0.817D-03 0.377D-03 0.457D-02 0.475D-03-0.214D-01-0.866D-01
 Coeff-Com:  0.309D+00 0.794D+00
 Coeff:      0.599D-06-0.133D-05-0.206D-06 0.139D-04 0.582D-04-0.781D-04
 Coeff:     -0.817D-03 0.377D-03 0.457D-02 0.475D-03-0.214D-01-0.866D-01
 Coeff:      0.309D+00 0.794D+00
 Gap=     0.322 Goal=   None    Shift=    0.000
 RMSDP=1.48D-08 MaxDP=1.62D-06 DE= 4.77D-11 OVMax= 1.13D-07

 Cycle  15  Pass 1  IDiag  1:
 RMSU=  2.71D-09    CP:  5.96D-01  1.62D+00  7.89D-01  9.16D-01  1.37D+00
                    CP:  8.54D-01  1.28D+00  1.18D+00  1.37D+00  1.42D+00
                    CP:  1.36D+00  1.75D+00  1.31D+00  8.88D-01
 E= -925.309004669661     Delta-E=       -0.000000000056 Rises=F Damp=F
 DIIS: error= 2.50D-09 at cycle  15 NSaved=  15.
 NSaved=15 IEnMin=15 EnMin= -925.309004669661     IErMin=15 ErrMin= 2.50D-09
 ErrMax= 2.50D-09  0.00D+00 EMaxC= 1.00D-01 BMatC= 2.30D-15 BMatP= 4.95D-14
 IDIUse=1 WtCom= 1.00D+00 WtEn= 0.00D+00
 Coeff-Com:  0.558D-06-0.121D-05-0.477D-06 0.916D-05 0.350D-04-0.382D-04
 Coeff-Com: -0.432D-03 0.421D-05 0.177D-02 0.205D-02-0.149D-02-0.512D-01
 Coeff-Com:  0.408D-01 0.196D+00 0.813D+00
 Coeff:      0.558D-06-0.121D-05-0.477D-06 0.916D-05 0.350D-04-0.382D-04
 Coeff:     -0.432D-03 0.421D-05 0.177D-02 0.205D-02-0.149D-02-0.512D-01
 Coeff:      0.408D-01 0.196D+00 0.813D+00
 Gap=     0.322 Goal=   None    Shift=    0.000
 RMSDP=4.00D-09 MaxDP=4.32D-07 DE=-5.64D-11 OVMax= 2.62D-08

 SCF Done:  E(RwB97XD) =  -925.309004670     A.U. after   15 cycles
            NFock= 15  Conv=0.40D-08     -V/T= 2.0044
 KE= 9.212949031537D+02 PE=-5.607473654867D+03 EE= 2.030389819423D+03
 Leave Link  502 at Mon Nov 14 15:04:28 2022, MaxMem= 16106127360 cpu:            4922.0 elap:             155.0
 (Enter /opt/ap/G16/B01/g16/l601.exe)
 Copying SCF densities to generalized density rwf, IOpCl= 0 IROHF=0.

 **********************************************************************

            Population analysis using the SCF Density.

 **********************************************************************

 Orbital symmetries:
       Occupied  (A) (A) (A) (A) (A) (A) (A) (A) (A) (A) (A) (A)
                 (A) (A) (A) (A) (A) (A) (A) (A) (A) (A) (A) (A)
                 (A) (A) (A) (A) (A) (A) (A) (A) (A) (A) (A) (A)
                 (A) (A) (A) (A) (A) (A) (A) (A) (A) (A) (A) (A)
                 (A) (A) (A) (A) (A) (A) (A) (A) (A) (A) (A) (A)
                 (A) (A) (A) (A) (A) (A) (A) (A) (A) (A) (A) (A)
                 (A) (A) (A) (A) (A) (A) (A) (A) (A)
       Virtual   (A) (A) (A) (A) (A) (A) (A) (A) (A) (A) (A) (A)
                 (A) (A) (A) (A) (A) (A) (A) (A) (A) (A) (A) (A)
                 (A) (A) (A) (A) (A) (A) (A) (A) (A) (A) (A) (A)
                 (A) (A) (A) (A) (A) (A) (A) (A) (A) (A) (A) (A)
                 (A) (A) (A) (A) (A) (A) (A) (A) (A) (A) (A) (A)
                 (A) (A) (A) (A) (A) (A) (A) (A) (A) (A) (A) (A)
                 (A) (A) (A) (A) (A) (A) (A) (A) (A) (A) (A) (A)
                 (A) (A) (A) (A) (A) (A) (A) (A) (A) (A) (A) (A)
                 (A) (A) (A) (A) (A) (A) (A) (A) (A) (A) (A) (A)
                 (A) (A) (A) (A) (A) (A) (A) (A) (A) (A) (A) (A)
                 (A) (A) (A) (A) (A) (A) (A) (A) (A) (A) (A) (A)
                 (A) (A) (A) (A) (A) (A) (A) (A) (A) (A) (A) (A)
                 (A) (A) (A) (A) (A) (A) (A) (A) (A) (A) (A) (A)
                 (A) (A) (A) (A) (A) (A) (A) (A) (A) (A) (A) (A)
                 (A) (A) (A) (A) (A) (A) (A) (A) (A) (A) (A) (A)
                 (A) (A) (A) (A) (A) (A) (A) (A) (A) (A) (A) (A)
                 (A) (A) (A) (A) (A) (A) (A) (A) (A) (A) (A) (A)
                 (A) (A) (A) (A) (A) (A) (A) (A) (A) (A) (A) (A)
                 (A) (A) (A) (A) (A) (A) (A) (A) (A) (A) (A) (A)
                 (A) (A) (A) (A) (A) (A) (A) (A) (A) (A) (A) (A)
                 (A) (A) (A) (A) (A) (A) (A) (A) (A) (A) (A) (A)
                 (A) (A) (A) (A) (A) (A) (A) (A) (A) (A) (A) (A)
                 (A) (A) (A) (A) (A) (A) (A) (A) (A) (A) (A) (A)
                 (A) (A) (A) (A) (A) (A) (A) (A) (A) (A) (A) (A)
                 (A) (A) (A) (A) (A) (A) (A) (A) (A) (A) (A) (A)
                 (A) (A) (A) (A) (A) (A) (A) (A) (A) (A) (A) (A)
                 (A) (A) (A) (A) (A) (A) (A) (A) (A) (A) (A) (A)
                 (A) (A) (A) (A) (A) (A) (A) (A) (A) (A) (A) (A)
                 (A) (A) (A) (A) (A) (A) (A) (A) (A) (A) (A) (A)
                 (A) (A) (A) (A) (A) (A) (A) (A) (A) (A) (A) (A)
                 (A) (A) (A) (A) (A) (A) (A) (A) (A) (A) (A) (A)
                 (A) (A) (A) (A) (A) (A) (A) (A) (A) (A) (A) (A)
                 (A) (A) (A) (A) (A) (A) (A) (A) (A) (A) (A) (A)
                 (A) (A) (A) (A) (A) (A) (A) (A) (A) (A) (A) (A)
                 (A) (A) (A) (A) (A) (A) (A) (A) (A) (A) (A) (A)
                 (A) (A) (A) (A) (A) (A) (A) (A) (A) (A) (A) (A)
                 (A) (A) (A) (A) (A) (A) (A) (A) (A) (A) (A) (A)
                 (A) (A) (A) (A) (A) (A) (A) (A) (A) (A) (A) (A)
                 (A) (A) (A) (A) (A) (A) (A) (A) (A) (A) (A) (A)
                 (A) (A) (A) (A) (A) (A) (A) (A) (A) (A) (A) (A)
                 (A) (A) (A) (A) (A) (A) (A) (A) (A) (A) (A) (A)
                 (A) (A) (A) (A) (A) (A) (A) (A) (A) (A) (A) (A)
                 (A) (A) (A) (A) (A) (A) (A) (A) (A) (A) (A) (A)
                 (A) (A) (A) (A) (A) (A) (A) (A) (A) (A) (A) (A)
                 (A) (A) (A) (A) (A) (A) (A) (A) (A) (A) (A) (A)
                 (A) (A) (A) (A) (A) (A) (A) (A) (A) (A) (A) (A)
                 (A) (A) (A) (A) (A) (A) (A) (A) (A) (A) (A) (A)
                 (A)
 The electronic state is 1-A.
 Alpha  occ. eigenvalues --  -10.30371 -10.30368 -10.30313 -10.30300 -10.30290
 Alpha  occ. eigenvalues --  -10.30212 -10.29228 -10.29224 -10.29209 -10.29201
 Alpha  occ. eigenvalues --  -10.29192 -10.29168 -10.29148 -10.29145 -10.29122
 Alpha  occ. eigenvalues --  -10.29121 -10.29109 -10.29092 -10.29078 -10.29075
 Alpha  occ. eigenvalues --  -10.29060 -10.29051 -10.29040 -10.29035  -0.98920
 Alpha  occ. eigenvalues --   -0.97027  -0.96985  -0.95238  -0.89380  -0.89351
 Alpha  occ. eigenvalues --   -0.85305  -0.85261  -0.85168  -0.85022  -0.82251
 Alpha  occ. eigenvalues --   -0.82203  -0.73497  -0.73189  -0.71109  -0.70478
 Alpha  occ. eigenvalues --   -0.70463  -0.70082  -0.66812  -0.66661  -0.63419
 Alpha  occ. eigenvalues --   -0.60676  -0.60633  -0.58730  -0.57076  -0.56447
 Alpha  occ. eigenvalues --   -0.54960  -0.54708  -0.54581  -0.54257  -0.53107
 Alpha  occ. eigenvalues --   -0.51917  -0.51389  -0.51260  -0.51077  -0.50838
 Alpha  occ. eigenvalues --   -0.50720  -0.47639  -0.46612  -0.46050  -0.46023
 Alpha  occ. eigenvalues --   -0.45437  -0.45127  -0.44266  -0.43141  -0.43021
 Alpha  occ. eigenvalues --   -0.42858  -0.41843  -0.41335  -0.36511  -0.34929
 Alpha  occ. eigenvalues --   -0.33603  -0.33594  -0.33591  -0.33082  -0.31377
 Alpha  occ. eigenvalues --   -0.30203
 Alpha virt. eigenvalues --    0.02007   0.03133   0.03672   0.04208   0.04349
 Alpha virt. eigenvalues --    0.04811   0.04934   0.05082   0.05173   0.05310
 Alpha virt. eigenvalues --    0.05426   0.05650   0.05663   0.06697   0.06811
 Alpha virt. eigenvalues --    0.06821   0.07081   0.07910   0.08030   0.08238
 Alpha virt. eigenvalues --    0.08610   0.09014   0.09125   0.09401   0.11110
 Alpha virt. eigenvalues --    0.11483   0.11867   0.12085   0.12743   0.13402
 Alpha virt. eigenvalues --    0.13577   0.14085   0.14185   0.14900   0.14915
 Alpha virt. eigenvalues --    0.15606   0.15669   0.15773   0.16071   0.16354
 Alpha virt. eigenvalues --    0.16460   0.16576   0.17029   0.17336   0.17402
 Alpha virt. eigenvalues --    0.17528   0.17706   0.17765   0.17912   0.18073
 Alpha virt. eigenvalues --    0.18087   0.18182   0.18476   0.18734   0.18779
 Alpha virt. eigenvalues --    0.19015   0.19080   0.19454   0.20205   0.20287
 Alpha virt. eigenvalues --    0.20351   0.20646   0.20789   0.21340   0.21366
 Alpha virt. eigenvalues --    0.21918   0.22186   0.22189   0.22563   0.22865
 Alpha virt. eigenvalues --    0.23087   0.23137   0.23328   0.23596   0.23813
 Alpha virt. eigenvalues --    0.24377   0.25044   0.25116   0.25192   0.25621
 Alpha virt. eigenvalues --    0.25820   0.26036   0.26214   0.26761   0.27140
 Alpha virt. eigenvalues --    0.27380   0.27565   0.28063   0.28152   0.28536
 Alpha virt. eigenvalues --    0.28568   0.28949   0.29205   0.29463   0.29472
 Alpha virt. eigenvalues --    0.29653   0.30050   0.30273   0.30457   0.30651
 Alpha virt. eigenvalues --    0.31585   0.32015   0.32126   0.32712   0.33405
 Alpha virt. eigenvalues --    0.33694   0.33748   0.33938   0.34091   0.34313
 Alpha virt. eigenvalues --    0.34658   0.35051   0.35085   0.35318   0.35885
 Alpha virt. eigenvalues --    0.35912   0.36016   0.36558   0.36610   0.36920
 Alpha virt. eigenvalues --    0.36951   0.37199   0.37314   0.37890   0.37936
 Alpha virt. eigenvalues --    0.38165   0.38471   0.38730   0.39536   0.39640
 Alpha virt. eigenvalues --    0.39802   0.40048   0.40364   0.40809   0.41781
 Alpha virt. eigenvalues --    0.41954   0.42477   0.42655   0.42809   0.43093
 Alpha virt. eigenvalues --    0.43247   0.43430   0.43727   0.44634   0.44723
 Alpha virt. eigenvalues --    0.44940   0.45398   0.47539   0.47705   0.48135
 Alpha virt. eigenvalues --    0.48735   0.49031   0.49590   0.52870   0.53091
 Alpha virt. eigenvalues --    0.57218   0.58185   0.58794   0.59981   0.60063
 Alpha virt. eigenvalues --    0.61565   0.62191   0.62419   0.62651   0.62787
 Alpha virt. eigenvalues --    0.63075   0.63197   0.63528   0.63818   0.64139
 Alpha virt. eigenvalues --    0.64277   0.64649   0.64733   0.64762   0.65698
 Alpha virt. eigenvalues --    0.66198   0.66381   0.66682   0.67004   0.67395
 Alpha virt. eigenvalues --    0.68009   0.68544   0.69204   0.69653   0.70122
 Alpha virt. eigenvalues --    0.70628   0.71207   0.71756   0.71939   0.72609
 Alpha virt. eigenvalues --    0.73329   0.73689   0.73851   0.74596   0.74874
 Alpha virt. eigenvalues --    0.75059   0.75722   0.75895   0.77744   0.78220
 Alpha virt. eigenvalues --    0.79125   0.79151   0.80252   0.80602   0.80956
 Alpha virt. eigenvalues --    0.81111   0.81247   0.81389   0.81609   0.81859
 Alpha virt. eigenvalues --    0.82437   0.82631   0.83032   0.83614   0.83829
 Alpha virt. eigenvalues --    0.84149   0.84166   0.84819   0.85448   0.85544
 Alpha virt. eigenvalues --    0.86003   0.86523   0.87055   0.87565   0.88158
 Alpha virt. eigenvalues --    0.88341   0.90297   0.90822   0.91375   0.91706
 Alpha virt. eigenvalues --    0.91841   0.92311   0.92825   0.93128   0.93615
 Alpha virt. eigenvalues --    0.93795   0.93944   0.94577   0.94968   0.95373
 Alpha virt. eigenvalues --    0.95921   0.96243   0.96654   0.97098   0.97849
 Alpha virt. eigenvalues --    0.99199   1.00176   1.00473   1.00574   1.01391
 Alpha virt. eigenvalues --    1.01626   1.01946   1.03241   1.04107   1.04984
 Alpha virt. eigenvalues --    1.05572   1.06475   1.06707   1.07833   1.08314
 Alpha virt. eigenvalues --    1.08421   1.08711   1.09310   1.09451   1.09621
 Alpha virt. eigenvalues --    1.11974   1.12136   1.12541   1.12812   1.13406
 Alpha virt. eigenvalues --    1.13824   1.14407   1.14591   1.15973   1.16494
 Alpha virt. eigenvalues --    1.17067   1.17932   1.18293   1.19375   1.20023
 Alpha virt. eigenvalues --    1.21625   1.22326   1.22397   1.23262   1.23854
 Alpha virt. eigenvalues --    1.24479   1.25343   1.27492   1.28140   1.29995
 Alpha virt. eigenvalues --    1.31002   1.38883   1.39027   1.40317   1.41456
 Alpha virt. eigenvalues --    1.41509   1.45842   1.46502   1.48222   1.50970
 Alpha virt. eigenvalues --    1.54232   1.56786   1.57287   1.58395   1.59348
 Alpha virt. eigenvalues --    1.59852   1.59937   1.60216   1.61052   1.61573
 Alpha virt. eigenvalues --    1.61841   1.62253   1.62491   1.63091   1.64041
 Alpha virt. eigenvalues --    1.64233   1.65262   1.65569   1.65821   1.65864
 Alpha virt. eigenvalues --    1.66292   1.66503   1.67026   1.68265   1.68846
 Alpha virt. eigenvalues --    1.69998   1.71133   1.72693   1.73005   1.73738
 Alpha virt. eigenvalues --    1.73829   1.74478   1.75160   1.75347   1.75930
 Alpha virt. eigenvalues --    1.75965   1.77055   1.80009   1.81513   1.81979
 Alpha virt. eigenvalues --    1.82857   1.82953   1.84079   1.84403   1.84935
 Alpha virt. eigenvalues --    1.85837   1.86186   1.86254   1.86349   1.87697
 Alpha virt. eigenvalues --    1.88417   1.88897   1.89759   1.92459   1.92732
 Alpha virt. eigenvalues --    1.93077   1.93388   1.95627   1.96049   1.97023
 Alpha virt. eigenvalues --    1.98925   1.99884   2.00005   2.01591   2.02343
 Alpha virt. eigenvalues --    2.02770   2.02888   2.03299   2.04101   2.04305
 Alpha virt. eigenvalues --    2.04673   2.05098   2.05403   2.05524   2.05936
 Alpha virt. eigenvalues --    2.06228   2.06562   2.07231   2.08050   2.09293
 Alpha virt. eigenvalues --    2.10994   2.11815   2.12114   2.12430   2.12960
 Alpha virt. eigenvalues --    2.13534   2.14320   2.15352   2.16598   2.16886
 Alpha virt. eigenvalues --    2.17536   2.18470   2.19335   2.19854   2.21240
 Alpha virt. eigenvalues --    2.21910   2.22753   2.28156   2.29382   2.32980
 Alpha virt. eigenvalues --    2.35189   2.35743   2.37441   2.37966   2.39458
 Alpha virt. eigenvalues --    2.40793   2.44460   2.44624   2.48855   2.49021
 Alpha virt. eigenvalues --    2.50312   2.51994   2.53163   2.53575   2.54203
 Alpha virt. eigenvalues --    2.54905   2.55210   2.56414   2.56576   2.56995
 Alpha virt. eigenvalues --    2.57365   2.58691   2.58735   2.61859   2.62735
 Alpha virt. eigenvalues --    2.70272   2.72537   2.72918   2.73085   2.73974
 Alpha virt. eigenvalues --    2.74396   2.75943   2.76293   2.76421   2.79470
 Alpha virt. eigenvalues --    2.79658   2.80092   2.80407   2.80597   2.81119
 Alpha virt. eigenvalues --    2.81653   2.82006   2.82536   2.83087   2.83237
 Alpha virt. eigenvalues --    2.83899   2.84125   2.84264   2.85278   2.85736
 Alpha virt. eigenvalues --    2.86225   2.87283   2.87791   2.88939   2.89157
 Alpha virt. eigenvalues --    2.90460   2.91693   2.92189   2.92480   2.92767
 Alpha virt. eigenvalues --    2.93243   2.93623   2.94509   2.94914   2.95774
 Alpha virt. eigenvalues --    2.98364   2.99179   2.99469   2.99642   3.01275
 Alpha virt. eigenvalues --    3.01988   3.03615   3.04647   3.04968   3.05313
 Alpha virt. eigenvalues --    3.05505   3.07077   3.07526   3.08106   3.09476
 Alpha virt. eigenvalues --    3.11612   3.12556   3.16087   3.18980   3.20097
 Alpha virt. eigenvalues --    3.21314   3.22198   3.24557   3.27253   3.30228
 Alpha virt. eigenvalues --    3.32491   3.32574   3.33996   3.34743   3.35518
 Alpha virt. eigenvalues --    3.42623   3.46050   3.47707   3.48761   3.49256
 Alpha virt. eigenvalues --    3.49533   3.50898   3.52622   3.53968   3.60307
 Alpha virt. eigenvalues --    3.61046   3.61149   3.63810   3.64948   3.65884
 Alpha virt. eigenvalues --    3.67041   3.73753   3.74103   3.76241   3.76530
 Alpha virt. eigenvalues --    3.77540   3.78493   3.90780   3.92799   3.96959
 Alpha virt. eigenvalues --    4.09704   4.09991   4.10256   4.14513   4.14578
 Alpha virt. eigenvalues --    4.14732   4.24235   4.24693   4.25451   4.26283
 Alpha virt. eigenvalues --    4.26447   4.27045   4.27585   4.27792   4.46852
 Alpha virt. eigenvalues --    4.62854   4.66921   4.94005   4.95563   4.95782
 Alpha virt. eigenvalues --    4.98283  23.68414  23.81516  23.82600  23.88246
 Alpha virt. eigenvalues --   24.08389  24.08477  24.10689  24.11079  24.11281
 Alpha virt. eigenvalues --   24.11424  24.12847  24.13566  24.20281  24.20434
 Alpha virt. eigenvalues --   24.21017  24.24107  24.24327  24.24363  24.24541
 Alpha virt. eigenvalues --   24.26670  24.31626  24.33838  24.34184  24.35523
          Condensed to atoms (all electrons):
               1          2          3          4          5          6
     1  C   26.221344   0.678357   0.873096  -8.162758   0.346161   0.362973
     2  C    0.678357  18.855772  -4.710065   4.115938   0.195171  -2.556296
     3  C    0.873096  -4.710065  18.694001  -4.119595   0.197953  -2.450707
     4  C   -8.162758   4.115938  -4.119595  23.359331  -0.359665  -0.536114
     5  H    0.346161   0.195171   0.197953  -0.359665   0.517247  -0.024869
     6  C    0.362973  -2.556296  -2.450707  -0.536114  -0.024869  12.180050
     7  C   -8.060647  -4.193545   3.930630  -8.959270   0.094232  -0.502587
     8  H    0.335909   0.200297   0.196641   0.095348  -0.003822  -0.029574
     9  C   -5.580976  -0.893004  -0.944885   1.707921   0.007533  -1.652951
    10  C    0.414733  -2.746175  -1.457219  -2.197367  -0.018326   1.215888
    11  C   -1.063270  -0.316662  -0.315971  -0.026059  -0.079917   0.458410
    12  C   -0.765799   0.237580  -0.018696   0.229445   0.022613  -0.176644
    13  C    0.444017  -1.496386  -2.643835   0.453405  -0.018957   1.214484
    14  H    0.094084   0.060409   0.058944  -0.048002  -0.002291  -0.009543
    15  C   -0.620796   1.172904  -0.504584  -0.400597  -0.224788   0.162873
    16  C    0.085571  -1.461077   0.139477  -0.477353   0.123177  -0.001558
    17  C   -0.420570   0.339442   0.399890   0.178061   0.008924  -1.242480
    18  H    0.056531  -0.031928  -0.026436  -0.026435  -0.001092   0.056340
    19  C   -0.035431   0.096195   0.208503   0.006523   0.007470  -1.141283
    20  H    0.018101   0.000790  -0.006698   0.006667   0.004198  -0.002912
    21  C   -0.546297  -0.534864   1.131369   0.119255  -0.006150   0.188593
    22  C    0.024542   0.167436  -1.400482   0.185752   0.003462  -0.012704
    23  C    0.411022   0.697947   0.126912   0.067874   0.024610  -0.090312
    24  H   -0.077562  -0.034464  -0.044279   0.027712  -0.010941   0.032137
    25  C   -0.300166  -0.262732   0.045491  -0.133272   0.003744  -0.046221
    26  H    0.020406  -0.005535  -0.015043   0.134780  -0.002282   0.009543
    27  C   -0.089910  -0.111758  -0.189141  -0.017506  -0.000169  -0.182924
    28  H   -0.002843   0.003938   0.003674   0.003052  -0.000123   0.025123
    29  H   -0.001829  -0.001456   0.003181  -0.000911  -0.000551   0.036224
    30  C    0.423392   0.127329   0.708364  -0.154948  -0.001421  -0.089226
    31  H   -0.075210  -0.045422  -0.036209   0.020957  -0.000545   0.033759
    32  C   -0.296760   0.048945  -0.266732   0.394821   0.003544  -0.046958
    33  H    0.020357  -0.014913  -0.003565  -0.133299  -0.000056   0.009470
    34  C   -0.019709  -0.137325  -0.029414  -0.242364  -0.011783   0.033646
    35  H    0.005795   0.007660   0.001504   0.002901   0.000833  -0.002233
    36  H   -0.002952  -0.003622   0.000031  -0.008478   0.000548  -0.000602
    37  H   -0.002408  -0.004960  -0.006669   0.000578  -0.000055   0.019695
    38  C   -0.018923  -0.030454  -0.129676  -0.012188  -0.000213   0.034001
    39  H    0.005441   0.001561   0.007410   0.001312  -0.000006  -0.002268
    40  H   -0.002998   0.000027  -0.004036   0.012510  -0.000007  -0.000594
    41  H    0.001183  -0.003544  -0.000826  -0.008205  -0.000416   0.000900
    42  H    0.001182  -0.000843  -0.003263   0.000427  -0.000010   0.000899
               7          8          9         10         11         12
     1  C   -8.060647   0.335909  -5.580976   0.414733  -1.063270  -0.765799
     2  C   -4.193545   0.200297  -0.893004  -2.746175  -0.316662   0.237580
     3  C    3.930630   0.196641  -0.944885  -1.457219  -0.315971  -0.018696
     4  C   -8.959270   0.095348   1.707921  -2.197367  -0.026059   0.229445
     5  H    0.094232  -0.003822   0.007533  -0.018326  -0.079917   0.022613
     6  C   -0.502587  -0.029574  -1.652951   1.215888   0.458410  -0.176644
     7  C   23.286882  -0.354447   1.867220   0.532615  -0.039114   0.157688
     8  H   -0.354447   0.508761   0.008652  -0.019082  -0.082264   0.031917
     9  C    1.867220   0.008652  15.815526  -2.111817  -0.362830   0.097867
    10  C    0.532615  -0.019082  -2.111817  15.654436   0.259882  -0.037443
    11  C   -0.039114  -0.082264  -0.362830   0.259882  14.285595  -5.643706
    12  C    0.157688   0.031917   0.097867  -0.037443  -5.643706  12.879809
    13  C   -2.149007  -0.023862  -2.209563   1.019860   0.260106  -0.029634
    14  H   -0.048325  -0.002378   0.255688   0.055728   0.003918  -0.003683
    15  C    0.108980  -0.005943  -0.740239  -0.715955  -0.039876   0.097346
    16  C    0.184749   0.003886   1.089074  -2.125661   0.051841  -0.047444
    17  C    0.191897   0.009266   0.067204   0.025542  -2.265705   1.178218
    18  H   -0.023436  -0.001311  -0.019023   0.009931   0.491826  -0.018175
    19  C    0.039138   0.002573   0.018951  -0.102882   0.902978  -1.487765
    20  H    0.006133   0.004053   0.007220   0.020814  -0.015856   0.399660
    21  C   -0.615208  -0.223888  -0.844084  -0.011539  -0.043937   0.082553
    22  C   -0.284668   0.122265   1.168121   0.180764   0.051860  -0.039020
    23  C   -0.147552  -0.001615  -0.106746  -1.584227  -0.022094   0.004542
    24  H    0.018859  -0.000532  -0.022678  -0.019331   0.013347  -0.001923
    25  C    0.386781   0.003932   0.684054  -1.200588  -0.010223   0.008789
    26  H   -0.130567  -0.000046  -0.074911  -0.042419   0.001519   0.000201
    27  C   -0.039493   0.001929  -0.033680   0.031388  -0.208934  -0.608378
    28  H    0.002876  -0.000115   0.000422  -0.000266  -0.077909   0.009720
    29  H    0.000503  -0.000648  -0.000486  -0.001829   0.017792  -0.088334
    30  C    0.063293   0.029992  -0.109304  -0.020688  -0.024626   0.009507
    31  H    0.020499  -0.011114  -0.024230   0.013836   0.013699  -0.003337
    32  C   -0.132062   0.003954   0.687566  -0.140708  -0.010476   0.007250
    33  H    0.136660  -0.002344  -0.072131   0.018903   0.000950   0.000661
    34  C   -0.010975  -0.000196  -0.078611  -0.220193   0.004152  -0.001167
    35  H    0.001419  -0.000009   0.003904   0.028231  -0.000481   0.000277
    36  H    0.012146  -0.000007   0.017977   0.025067  -0.000181   0.000115
    37  H    0.000158  -0.000018  -0.000823   0.001031   0.005083   0.003193
    38  C   -0.246602  -0.012276  -0.078759   0.044166   0.004062  -0.000944
    39  H    0.004446   0.000863   0.003963  -0.001023  -0.000506   0.000336
    40  H   -0.009460   0.000556   0.017937  -0.004505  -0.000163   0.000094
    41  H    0.000457  -0.000010  -0.006489   0.022511   0.000177  -0.000081
    42  H   -0.008120  -0.000426  -0.006471   0.001302   0.000173  -0.000074
              13         14         15         16         17         18
     1  C    0.444017   0.094084  -0.620796   0.085571  -0.420570   0.056531
     2  C   -1.496386   0.060409   1.172904  -1.461077   0.339442  -0.031928
     3  C   -2.643835   0.058944  -0.504584   0.139477   0.399890  -0.026436
     4  C    0.453405  -0.048002  -0.400597  -0.477353   0.178061  -0.026435
     5  H   -0.018957  -0.002291  -0.224788   0.123177   0.008924  -0.001092
     6  C    1.214484  -0.009543   0.162873  -0.001558  -1.242480   0.056340
     7  C   -2.149007  -0.048325   0.108980   0.184749   0.191897  -0.023436
     8  H   -0.023862  -0.002378  -0.005943   0.003886   0.009266  -0.001311
     9  C   -2.209563   0.255688  -0.740239   1.089074   0.067204  -0.019023
    10  C    1.019860   0.055728  -0.715955  -2.125661   0.025542   0.009931
    11  C    0.260106   0.003918  -0.039876   0.051841  -2.265705   0.491826
    12  C   -0.029634  -0.003683   0.097346  -0.047444   1.178218  -0.018175
    13  C   15.728256   0.056526  -0.017307   0.185915   0.020142   0.011549
    14  H    0.056526   0.501239   0.099113  -0.182124  -0.003776   0.000679
    15  C   -0.017307   0.099113  18.386445 -10.502886  -0.042044   0.009177
    16  C    0.185915  -0.182124 -10.502886  20.123057   0.030871  -0.008156
    17  C    0.020142  -0.003776  -0.042044   0.030871   8.180707  -0.192421
    18  H    0.011549   0.000679   0.009177  -0.008156  -0.192421   0.470128
    19  C   -0.100418   0.003735   0.023284  -0.011997  -0.957105   0.037290
    20  H    0.019966  -0.000914  -0.015802   0.008269   0.032800  -0.002919
    21  C   -0.587680   0.095874   0.084878  -0.069661  -0.039742   0.008908
    22  C   -2.250418  -0.175058  -0.069755   0.090787   0.028839  -0.007342
    23  C   -0.021251   0.005159  -1.158640   0.619514   0.008019  -0.001740
    24  H    0.014043  -0.000679   0.569275  -0.082250  -0.001294   0.000513
    25  C   -0.147161  -0.005809   1.007458  -1.526031  -0.003437  -0.000255
    26  H    0.018615  -0.002612  -0.086608   0.526917   0.000466  -0.000011
    27  C    0.031801   0.000120  -0.005604   0.002050   0.556792  -0.005511
    28  H   -0.000299  -0.000057   0.000028   0.000178   0.414159  -0.010735
    29  H   -0.001827   0.000031   0.001278  -0.000342  -0.013290   0.000870
    30  C   -1.568910   0.004552   0.002022   0.009556   0.007883  -0.002287
    31  H   -0.012752  -0.000732   0.005127  -0.004680  -0.001243   0.000561
    32  C   -1.254913  -0.006509  -0.010673  -0.000418  -0.003238   0.000024
    33  H   -0.036803  -0.002149   0.002608   0.008885   0.000304   0.000029
    34  C    0.044338  -0.001802  -0.297127  -0.123086   0.000417   0.000266
    35  H   -0.001028   0.000149  -0.112481   0.019142   0.000007  -0.000021
    36  H   -0.004485  -0.000777   0.016095  -0.094753  -0.000015  -0.000006
    37  H    0.001033  -0.000008  -0.000293   0.000101  -0.060353   0.000203
    38  C   -0.220823  -0.001441   0.006609  -0.019249   0.000318   0.000328
    39  H    0.028614   0.000164  -0.000262   0.000506   0.000005  -0.000023
    40  H    0.024135  -0.000808  -0.000829   0.002764  -0.000009  -0.000008
    41  H    0.001312   0.000140   0.001084   0.005604   0.000015   0.000007
    42  H    0.022926   0.000153   0.000194  -0.000578   0.000013   0.000010
              19         20         21         22         23         24
     1  C   -0.035431   0.018101  -0.546297   0.024542   0.411022  -0.077562
     2  C    0.096195   0.000790  -0.534864   0.167436   0.697947  -0.034464
     3  C    0.208503  -0.006698   1.131369  -1.400482   0.126912  -0.044279
     4  C    0.006523   0.006667   0.119255   0.185752   0.067874   0.027712
     5  H    0.007470   0.004198  -0.006150   0.003462   0.024610  -0.010941
     6  C   -1.141283  -0.002912   0.188593  -0.012704  -0.090312   0.032137
     7  C    0.039138   0.006133  -0.615208  -0.284668  -0.147552   0.018859
     8  H    0.002573   0.004053  -0.223888   0.122265  -0.001615  -0.000532
     9  C    0.018951   0.007220  -0.844084   1.168121  -0.106746  -0.022678
    10  C   -0.102882   0.020814  -0.011539   0.180764  -1.584227  -0.019331
    11  C    0.902978  -0.015856  -0.043937   0.051860  -0.022094   0.013347
    12  C   -1.487765   0.399660   0.082553  -0.039020   0.004542  -0.001923
    13  C   -0.100418   0.019966  -0.587680  -2.250418  -0.021251   0.014043
    14  H    0.003735  -0.000914   0.095874  -0.175058   0.005159  -0.000679
    15  C    0.023284  -0.015802   0.084878  -0.069755  -1.158640   0.569275
    16  C   -0.011997   0.008269  -0.069661   0.090787   0.619514  -0.082250
    17  C   -0.957105   0.032800  -0.039742   0.028839   0.008019  -0.001294
    18  H    0.037290  -0.002919   0.008908  -0.007342  -0.001740   0.000513
    19  C    7.862841  -0.138609   0.028716  -0.013491  -0.008890  -0.003196
    20  H   -0.138609   0.472888  -0.016307   0.008645  -0.001799  -0.000739
    21  C    0.028716  -0.016307  18.723375 -10.534521   0.002244   0.005269
    22  C   -0.013491   0.008645 -10.534521  19.834115   0.007992  -0.004753
    23  C   -0.008890  -0.001799   0.002244   0.007992   7.696159  -0.090753
    24  H   -0.003196  -0.000739   0.005269  -0.004753  -0.090753   0.485331
    25  C    0.003931  -0.000400  -0.012343   0.006471  -0.676746   0.000639
    26  H   -0.000342   0.000116   0.002313   0.010059  -0.008329   0.000197
    27  C    0.694381  -0.006791  -0.007485   0.002686  -0.002732   0.001098
    28  H   -0.005017   0.000509   0.000036   0.000170   0.000097   0.000003
    29  H    0.417899  -0.011330   0.001406  -0.000379   0.000131   0.000034
    30  C   -0.008821  -0.001859  -1.289351   0.661479  -0.000141   0.000245
    31  H   -0.002804  -0.000651   0.573152  -0.080287   0.000258   0.000385
    32  C    0.003941  -0.000347   0.961337  -1.386498   0.004851  -0.001315
    33  H   -0.000317   0.000118  -0.081051   0.513444   0.000790   0.000111
    34  C   -0.001915   0.000125   0.006883  -0.019526   0.332346   0.025435
    35  H    0.000252   0.000008  -0.000275   0.000525   0.431780  -0.011238
    36  H    0.000018  -0.000003  -0.000830   0.002727   0.011627  -0.000316
    37  H   -0.060257   0.000737  -0.000320   0.000109  -0.000081   0.000031
    38  C   -0.001766   0.000103  -0.261994  -0.154384  -0.000001   0.000239
    39  H    0.000242   0.000002  -0.114534   0.018243  -0.000000  -0.000014
    40  H    0.000017  -0.000004   0.016208  -0.093560  -0.000026  -0.000011
    41  H   -0.000044   0.000006   0.000200  -0.000587  -0.073674   0.001321
    42  H   -0.000041   0.000006   0.000429   0.006164   0.000004   0.000006
              25         26         27         28         29         30
     1  C   -0.300166   0.020406  -0.089910  -0.002843  -0.001829   0.423392
     2  C   -0.262732  -0.005535  -0.111758   0.003938  -0.001456   0.127329
     3  C    0.045491  -0.015043  -0.189141   0.003674   0.003181   0.708364
     4  C   -0.133272   0.134780  -0.017506   0.003052  -0.000911  -0.154948
     5  H    0.003744  -0.002282  -0.000169  -0.000123  -0.000551  -0.001421
     6  C   -0.046221   0.009543  -0.182924   0.025123   0.036224  -0.089226
     7  C    0.386781  -0.130567  -0.039493   0.002876   0.000503   0.063293
     8  H    0.003932  -0.000046   0.001929  -0.000115  -0.000648   0.029992
     9  C    0.684054  -0.074911  -0.033680   0.000422  -0.000486  -0.109304
    10  C   -1.200588  -0.042419   0.031388  -0.000266  -0.001829  -0.020688
    11  C   -0.010223   0.001519  -0.208934  -0.077909   0.017792  -0.024626
    12  C    0.008789   0.000201  -0.608378   0.009720  -0.088334   0.009507
    13  C   -0.147161   0.018615   0.031801  -0.000299  -0.001827  -1.568910
    14  H   -0.005809  -0.002612   0.000120  -0.000057   0.000031   0.004552
    15  C    1.007458  -0.086608  -0.005604   0.000028   0.001278   0.002022
    16  C   -1.526031   0.526917   0.002050   0.000178  -0.000342   0.009556
    17  C   -0.003437   0.000466   0.556792   0.414159  -0.013290   0.007883
    18  H   -0.000255  -0.000011  -0.005511  -0.010735   0.000870  -0.002287
    19  C    0.003931  -0.000342   0.694381  -0.005017   0.417899  -0.008821
    20  H   -0.000400   0.000116  -0.006791   0.000509  -0.011330  -0.001859
    21  C   -0.012343   0.002313  -0.007485   0.000036   0.001406  -1.289351
    22  C    0.006471   0.010059   0.002686   0.000170  -0.000379   0.661479
    23  C   -0.676746  -0.008329  -0.002732   0.000097   0.000131  -0.000141
    24  H    0.000639   0.000197   0.001098   0.000003   0.000034   0.000245
    25  C    7.838700  -0.057908  -0.000250  -0.000015   0.000000   0.005065
    26  H   -0.057908   0.498313   0.000080   0.000010  -0.000001   0.000713
    27  C   -0.000250   0.000080   6.165136  -0.048828  -0.046267  -0.002160
    28  H   -0.000015   0.000010  -0.048828   0.474794  -0.000251   0.000097
    29  H    0.000000  -0.000001  -0.046267  -0.000251   0.477277   0.000100
    30  C    0.005065   0.000713  -0.002160   0.000097   0.000100   7.754222
    31  H   -0.001367   0.000118   0.000972   0.000004   0.000035  -0.096745
    32  C   -0.012805  -0.002508  -0.000410  -0.000010   0.000005  -0.678343
    33  H   -0.002320  -0.005319   0.000079   0.000010  -0.000002  -0.007120
    34  C    0.406439   0.025512   0.000191   0.000004   0.000009   0.000029
    35  H    0.008008  -0.000438  -0.000026   0.000000  -0.000001  -0.000000
    36  H    0.418997  -0.011708  -0.000002  -0.000000  -0.000000  -0.000023
    37  H   -0.000006   0.000003   0.440154  -0.008278  -0.008922  -0.000072
    38  C   -0.004531  -0.000928   0.000199   0.000003   0.000010   0.336883
    39  H    0.000055   0.000043  -0.000024   0.000000  -0.000001   0.433555
    40  H    0.000601   0.000538  -0.000002  -0.000000  -0.000000   0.010826
    41  H   -0.068717   0.001847   0.000008  -0.000000  -0.000000   0.000004
    42  H   -0.000143  -0.000034   0.000008  -0.000000  -0.000000  -0.072558
              31         32         33         34         35         36
     1  C   -0.075210  -0.296760   0.020357  -0.019709   0.005795  -0.002952
     2  C   -0.045422   0.048945  -0.014913  -0.137325   0.007660  -0.003622
     3  C   -0.036209  -0.266732  -0.003565  -0.029414   0.001504   0.000031
     4  C    0.020957   0.394821  -0.133299  -0.242364   0.002901  -0.008478
     5  H   -0.000545   0.003544  -0.000056  -0.011783   0.000833   0.000548
     6  C    0.033759  -0.046958   0.009470   0.033646  -0.002233  -0.000602
     7  C    0.020499  -0.132062   0.136660  -0.010975   0.001419   0.012146
     8  H   -0.011114   0.003954  -0.002344  -0.000196  -0.000009  -0.000007
     9  C   -0.024230   0.687566  -0.072131  -0.078611   0.003904   0.017977
    10  C    0.013836  -0.140708   0.018903  -0.220193   0.028231   0.025067
    11  C    0.013699  -0.010476   0.000950   0.004152  -0.000481  -0.000181
    12  C   -0.003337   0.007250   0.000661  -0.001167   0.000277   0.000115
    13  C   -0.012752  -1.254913  -0.036803   0.044338  -0.001028  -0.004485
    14  H   -0.000732  -0.006509  -0.002149  -0.001802   0.000149  -0.000777
    15  C    0.005127  -0.010673   0.002608  -0.297127  -0.112481   0.016095
    16  C   -0.004680  -0.000418   0.008885  -0.123086   0.019142  -0.094753
    17  C   -0.001243  -0.003238   0.000304   0.000417   0.000007  -0.000015
    18  H    0.000561   0.000024   0.000029   0.000266  -0.000021  -0.000006
    19  C   -0.002804   0.003941  -0.000317  -0.001915   0.000252   0.000018
    20  H   -0.000651  -0.000347   0.000118   0.000125   0.000008  -0.000003
    21  C    0.573152   0.961337  -0.081051   0.006883  -0.000275  -0.000830
    22  C   -0.080287  -1.386498   0.513444  -0.019526   0.000525   0.002727
    23  C    0.000258   0.004851   0.000790   0.332346   0.431780   0.011627
    24  H    0.000385  -0.001315   0.000111   0.025435  -0.011238  -0.000316
    25  C   -0.001367  -0.012805  -0.002320   0.406439   0.008008   0.418997
    26  H    0.000118  -0.002508  -0.005319   0.025512  -0.000438  -0.011708
    27  C    0.000972  -0.000410   0.000079   0.000191  -0.000026  -0.000002
    28  H    0.000004  -0.000010   0.000010   0.000004   0.000000  -0.000000
    29  H    0.000035   0.000005  -0.000002   0.000009  -0.000001  -0.000000
    30  C   -0.096745  -0.678343  -0.007120   0.000029  -0.000000  -0.000023
    31  H    0.482269   0.001057   0.000220   0.000244  -0.000014  -0.000011
    32  C    0.001057   7.791960  -0.057454  -0.004733   0.000055   0.000631
    33  H    0.000220  -0.057454   0.498105  -0.001055   0.000046   0.000546
    34  C    0.000244  -0.004733  -0.001055   6.403142  -0.069421  -0.065767
    35  H   -0.000014   0.000055   0.000046  -0.069421   0.475538   0.001086
    36  H   -0.000011   0.000631   0.000546  -0.065767   0.001086   0.475119
    37  H    0.000030  -0.000007   0.000003   0.000007  -0.000002  -0.000000
    38  C    0.025765   0.403807   0.022840  -0.000187  -0.000001   0.000098
    39  H   -0.011043   0.008292  -0.000417  -0.000002   0.000000  -0.000001
    40  H   -0.000275   0.418777  -0.011620   0.000101  -0.000001  -0.000047
    41  H    0.000006  -0.000147  -0.000037   0.465736  -0.011178  -0.011693
    42  H    0.001298  -0.068935   0.001757   0.000000  -0.000000   0.000001
              37         38         39         40         41         42
     1  C   -0.002408  -0.018923   0.005441  -0.002998   0.001183   0.001182
     2  C   -0.004960  -0.030454   0.001561   0.000027  -0.003544  -0.000843
     3  C   -0.006669  -0.129676   0.007410  -0.004036  -0.000826  -0.003263
     4  C    0.000578  -0.012188   0.001312   0.012510  -0.008205   0.000427
     5  H   -0.000055  -0.000213  -0.000006  -0.000007  -0.000416  -0.000010
     6  C    0.019695   0.034001  -0.002268  -0.000594   0.000900   0.000899
     7  C    0.000158  -0.246602   0.004446  -0.009460   0.000457  -0.008120
     8  H   -0.000018  -0.012276   0.000863   0.000556  -0.000010  -0.000426
     9  C   -0.000823  -0.078759   0.003963   0.017937  -0.006489  -0.006471
    10  C    0.001031   0.044166  -0.001023  -0.004505   0.022511   0.001302
    11  C    0.005083   0.004062  -0.000506  -0.000163   0.000177   0.000173
    12  C    0.003193  -0.000944   0.000336   0.000094  -0.000081  -0.000074
    13  C    0.001033  -0.220823   0.028614   0.024135   0.001312   0.022926
    14  H   -0.000008  -0.001441   0.000164  -0.000808   0.000140   0.000153
    15  C   -0.000293   0.006609  -0.000262  -0.000829   0.001084   0.000194
    16  C    0.000101  -0.019249   0.000506   0.002764   0.005604  -0.000578
    17  C   -0.060353   0.000318   0.000005  -0.000009   0.000015   0.000013
    18  H    0.000203   0.000328  -0.000023  -0.000008   0.000007   0.000010
    19  C   -0.060257  -0.001766   0.000242   0.000017  -0.000044  -0.000041
    20  H    0.000737   0.000103   0.000002  -0.000004   0.000006   0.000006
    21  C   -0.000320  -0.261994  -0.114534   0.016208   0.000200   0.000429
    22  C    0.000109  -0.154384   0.018243  -0.093560  -0.000587   0.006164
    23  C   -0.000081  -0.000001  -0.000000  -0.000026  -0.073674   0.000004
    24  H    0.000031   0.000239  -0.000014  -0.000011   0.001321   0.000006
    25  C   -0.000006  -0.004531   0.000055   0.000601  -0.068717  -0.000143
    26  H    0.000003  -0.000928   0.000043   0.000538   0.001847  -0.000034
    27  C    0.440154   0.000199  -0.000024  -0.000002   0.000008   0.000008
    28  H   -0.008278   0.000003   0.000000  -0.000000  -0.000000  -0.000000
    29  H   -0.008922   0.000010  -0.000001  -0.000000  -0.000000  -0.000000
    30  C   -0.000072   0.336883   0.433555   0.010826   0.000004  -0.072558
    31  H    0.000030   0.025765  -0.011043  -0.000275   0.000006   0.001298
    32  C   -0.000007   0.403807   0.008292   0.418777  -0.000147  -0.068935
    33  H    0.000003   0.022840  -0.000417  -0.011620  -0.000037   0.001757
    34  C    0.000007  -0.000187  -0.000002   0.000101   0.465736   0.000000
    35  H   -0.000002  -0.000001   0.000000  -0.000001  -0.011178  -0.000000
    36  H   -0.000000   0.000098  -0.000001  -0.000047  -0.011693   0.000001
    37  H    0.483107   0.000007  -0.000001  -0.000000   0.000000   0.000000
    38  C    0.000007   6.397432  -0.069682  -0.064169   0.000000   0.464327
    39  H   -0.000001  -0.069682   0.475296   0.001042  -0.000000  -0.011063
    40  H   -0.000000  -0.064169   0.001042   0.475012   0.000001  -0.011577
    41  H    0.000000   0.000000  -0.000000   0.000001   0.487035   0.000000
    42  H    0.000000   0.464327  -0.011063  -0.011577   0.000000   0.486666
 Mulliken charges:
               1
     1  C    1.303618
     2  C   -1.410669
     3  C   -1.399045
     4  C    0.899815
     5  H    0.207035
     6  C    0.726554
     7  C    0.906824
     8  H    0.215132
     9  C   -1.552108
    10  C    1.202615
    11  C   -0.176612
    12  C   -0.487135
    13  C    1.196276
    14  H    0.203073
    15  C   -0.183686
    16  C   -0.572586
    17  C   -0.433481
    18  H    0.224100
    19  C   -0.276488
    20  H    0.212008
    21  C   -0.190937
    22  C   -0.569224
    23  C   -0.456523
    24  H    0.212038
    25  C   -0.355709
    26  H    0.195242
    27  C   -0.321087
    28  H    0.215841
    29  H    0.221871
    30  C   -0.460501
    31  H    0.214424
    32  C   -0.357860
    33  H    0.195075
    34  C   -0.412664
    35  H    0.219728
    36  H    0.223452
    37  H    0.198272
    38  C   -0.412006
    39  H    0.219479
    40  H    0.223563
    41  H    0.196095
    42  H    0.196191
 Sum of Mulliken charges =  -0.00000
 Mulliken charges with hydrogens summed into heavy atoms:
               1
     1  C    1.303618
     2  C   -1.203634
     3  C   -1.183912
     4  C    0.899815
     6  C    0.726554
     7  C    0.906824
     9  C   -1.349036
    10  C    1.202615
    11  C    0.047488
    12  C   -0.275127
    13  C    1.196276
    15  C    0.028352
    16  C   -0.377344
    17  C   -0.217640
    19  C   -0.054616
    21  C    0.023487
    22  C   -0.374149
    23  C   -0.236795
    25  C   -0.132257
    27  C   -0.122816
    30  C   -0.241022
    32  C   -0.134297
    34  C   -0.216569
    38  C   -0.215815
 Electronic spatial extent (au):  <R**2>=          10005.9647
 Charge=             -0.0000 electrons
 Dipole moment (field-independent basis, Debye):
    X=             -0.0257    Y=             -0.0007    Z=             -0.0036  Tot=              0.0259
 Quadrupole moment (field-independent basis, Debye-Ang):
   XX=           -126.6304   YY=           -130.8469   ZZ=           -136.9572
   XY=              0.0706   XZ=              6.3826   YZ=             -0.1449
 Traceless Quadrupole moment (field-independent basis, Debye-Ang):
   XX=              4.8478   YY=              0.6313   ZZ=             -5.4790
   XY=              0.0706   XZ=              6.3826   YZ=             -0.1449
 Octapole moment (field-independent basis, Debye-Ang**2):
  XXX=            -33.5564  YYY=              3.0985  ZZZ=              2.3180  XYY=             55.4113
  XXY=             -2.4823  XXZ=             31.4180  XZZ=            -21.4542  YZZ=             -0.6131
  YYZ=            -33.9674  XYZ=              2.1227
 Hexadecapole moment (field-independent basis, Debye-Ang**3):
 XXXX=          -6269.4675 YYYY=          -6132.5395 ZZZZ=           -632.5611 XXXY=              4.9191
 XXXZ=            116.6042 YYYX=             -5.1226 YYYZ=              1.8709 ZZZX=              8.8814
 ZZZY=             -1.3055 XXYY=          -2157.1465 XXZZ=          -1161.9431 YYZZ=          -1240.7724
 XXYZ=             -3.1680 YYXZ=             37.9600 ZZXY=              2.0244
 N-N= 1.730479927620D+03 E-N=-5.607473654717D+03  KE= 9.212949031537D+02
 No NMR shielding tensors so no spin-rotation constants.
 Leave Link  601 at Mon Nov 14 15:04:30 2022, MaxMem= 16106127360 cpu:              42.7 elap:               1.5
 (Enter /opt/ap/G16/B01/g16/l9999.exe)
 1\1\GINC-N59\SP\RwB97XD\6-311++G(d,p)\C24H18\ROOT\14-Nov-2022\0\\#P wB
 97XD/6-311++G(d,p) scf=maxcycle=512\\_conf000.gjf nmol_natom 1_42\\0,1
 \C\C,1,1.39412829\C,1,1.39435449,2,118.86443127\C,2,1.39416084,1,121.1
 529487,3,0.03668482,0\H,2,1.08488355,1,119.42236619,3,-179.97409048,0\
 C,1,1.48467131,2,120.55714816,4,179.25839056,0\C,3,1.39437784,1,121.11
 776116,2,-0.05351271,0\H,3,1.08487775,1,119.41869036,2,177.23008049,0\
 C,4,1.39432447,2,118.86473838,1,0.01008406,0\C,4,1.48466627,2,120.5464
 188,1,179.19454736,0\C,6,1.3968498,1,120.7843492,2,-90.,0\C,6,1.396868
 2,1,120.67653841,2,90.,0\C,7,1.48449863,3,120.56496838,1,-179.96325804
 ,0\H,9,1.0848792,4,119.41824946,2,177.22245984,0\C,10,1.39685361,4,120
 .76946845,2,-42.52368674,0\C,10,1.39686289,4,120.69448769,2,137.431075
 16,0\C,11,1.38888939,6,120.7380073,1,179.94058542,0\H,11,1.0847641,6,1
 19.46912378,1,-1.41050605,0\C,12,1.38882428,6,120.76493111,1,-179.9508
 2712,0\H,12,1.08482758,6,119.44182626,1,-1.23602505,0\C,13,1.39682899,
 7,120.74134419,3,42.89023273,0\C,13,1.39683158,7,120.7379111,3,-137.12
 494058,0\C,15,1.38888263,10,120.742191,4,179.9460119,0\H,15,1.08476334
 ,10,119.47085903,4,-1.40606944,0\C,16,1.38886088,10,120.76338989,4,-17
 9.95592713,0\H,16,1.08483431,10,119.44215232,4,-1.23439681,0\C,17,1.39
 007919,11,120.20743432,6,0.00349958,0\H,17,1.0843506,11,119.71318733,6
 ,179.5011609,0\H,19,1.08435858,12,119.73823132,6,179.53683762,0\C,21,1
 .38882373,13,120.76699356,7,179.99297883,0\H,21,1.0847938,13,119.43526
 23,7,1.32183327,0\C,22,1.38881869,13,120.76647403,7,-179.97118338,0\H,
 22,1.08479982,13,119.43203605,7,1.34657928,0\C,23,1.39007007,15,120.20
 732995,10,0.00573957,0\H,23,1.08434813,15,119.71220819,10,179.50724368
 ,0\H,25,1.08436328,16,119.73539424,10,179.53636455,0\H,27,1.08412515,1
 7,120.21790854,11,179.98397203,0\C,30,1.39008059,21,120.18795226,13,-0
 .02169059,0\H,30,1.08435324,21,119.73787119,13,-179.52151214,0\H,32,1.
 0843543,22,119.737043,13,-179.52886928,0\H,34,1.08412314,23,120.221528
 03,15,179.98800213,0\H,38,1.08411439,30,120.21547163,21,-179.98600656,
 0\\Version=ES64L-G16RevB.01\State=1-A\HF=-925.3090047\RMSD=3.996e-09\D
 ipole=-0.0086217,0.0017102,-0.00519\Quadrupole=2.5585188,-3.7837888,1.
 2252699,-4.3814665,1.2601379,-2.3381668\PG=C01 [X(C24H18)]\\@


 PATIENCE IS THE ABILITY TO IDLE YOUR MOTOR WHEN
 YOU FEEL LIKE STRIPPING YOUR GEARS.
 Job cpu time:       0 days  1 hours 24 minutes 24.3 seconds.
 Elapsed time:       0 days  0 hours  2 minutes 39.7 seconds.
 File lengths (MBytes):  RWF=    224 Int=      0 D2E=      0 Chk=     26 Scr=      1
 Normal termination of Gaussian 16 at Mon Nov 14 15:04:30 2022.
