 Entering Gaussian System, Link 0=g16
 Input=_conf033.gjf
 Output=_conf033.log
 Initial command:
 /opt/ap/G16/B01/g16/l1.exe "/tmp2/scr/Gau-12847.inp" -scrdir="/tmp2/scr/"
 Entering Link 1 = /opt/ap/G16/B01/g16/l1.exe PID=     12848.
  
 Copyright (c) 1988-2017, Gaussian, Inc.  All Rights Reserved.
  
 This is part of the Gaussian(R) 16 program.  It is based on
 the Gaussian(R) 09 system (copyright 2009, Gaussian, Inc.),
 the Gaussian(R) 03 system (copyright 2003, Gaussian, Inc.),
 the Gaussian(R) 98 system (copyright 1998, Gaussian, Inc.),
 the Gaussian(R) 94 system (copyright 1995, Gaussian, Inc.),
 the Gaussian 92(TM) system (copyright 1992, Gaussian, Inc.),
 the Gaussian 90(TM) system (copyright 1990, Gaussian, Inc.),
 the Gaussian 88(TM) system (copyright 1988, Gaussian, Inc.),
 the Gaussian 86(TM) system (copyright 1986, Carnegie Mellon
 University), and the Gaussian 82(TM) system (copyright 1983,
 Carnegie Mellon University). Gaussian is a federally registered
 trademark of Gaussian, Inc.
  
 This software contains proprietary and confidential information,
 including trade secrets, belonging to Gaussian, Inc.
  
 This software is provided under written license and may be
 used, copied, transmitted, or stored only in accord with that
 written license.
  
 The following legend is applicable only to US Government
 contracts under FAR:
  
                    RESTRICTED RIGHTS LEGEND
  
 Use, reproduction and disclosure by the US Government is
 subject to restrictions as set forth in subparagraphs (a)
 and (c) of the Commercial Computer Software - Restricted
 Rights clause in FAR 52.227-19.
  
 Gaussian, Inc.
 340 Quinnipiac St., Bldg. 40, Wallingford CT 06492
  
  
 ---------------------------------------------------------------
 Warning -- This program may not be used in any manner that
 competes with the business of Gaussian, Inc. or will provide
 assistance to any competitor of Gaussian, Inc.  The licensee
 of this program is prohibited from giving any competitor of
 Gaussian, Inc. access to this program.  By using this program,
 the user acknowledges that Gaussian, Inc. is engaged in the
 business of creating and licensing software in the field of
 computational chemistry and represents and warrants to the
 licensee that it is not a competitor of Gaussian, Inc. and that
 it will not use this program in any manner prohibited above.
 ---------------------------------------------------------------
  

 Cite this work as:
 Gaussian 16, Revision B.01,
 M. J. Frisch, G. W. Trucks, H. B. Schlegel, G. E. Scuseria, 
 M. A. Robb, J. R. Cheeseman, G. Scalmani, V. Barone, 
 G. A. Petersson, H. Nakatsuji, X. Li, M. Caricato, A. V. Marenich, 
 J. Bloino, B. G. Janesko, R. Gomperts, B. Mennucci, H. P. Hratchian, 
 J. V. Ortiz, A. F. Izmaylov, J. L. Sonnenberg, D. Williams-Young, 
 F. Ding, F. Lipparini, F. Egidi, J. Goings, B. Peng, A. Petrone, 
 T. Henderson, D. Ranasinghe, V. G. Zakrzewski, J. Gao, N. Rega, 
 G. Zheng, W. Liang, M. Hada, M. Ehara, K. Toyota, R. Fukuda, 
 J. Hasegawa, M. Ishida, T. Nakajima, Y. Honda, O. Kitao, H. Nakai, 
 T. Vreven, K. Throssell, J. A. Montgomery, Jr., J. E. Peralta, 
 F. Ogliaro, M. J. Bearpark, J. J. Heyd, E. N. Brothers, K. N. Kudin, 
 V. N. Staroverov, T. A. Keith, R. Kobayashi, J. Normand, 
 K. Raghavachari, A. P. Rendell, J. C. Burant, S. S. Iyengar, 
 J. Tomasi, M. Cossi, J. M. Millam, M. Klene, C. Adamo, R. Cammi, 
 J. W. Ochterski, R. L. Martin, K. Morokuma, O. Farkas, 
 J. B. Foresman, and D. J. Fox, Gaussian, Inc., Wallingford CT, 2016.
 
 ******************************************
 Gaussian 16:  ES64L-G16RevB.01 20-Dec-2017
                14-Nov-2022 
 ******************************************
 %nprocshared=32
 Will use up to   32 processors via shared memory.
 %mem=120GB
 %chk=_conf033.chk
 ----------------------------------------
 #P wB97XD/6-311++G(d,p) scf=maxcycle=512
 ----------------------------------------
 1/38=1,172=1/1;
 2/12=2,17=6,18=5,40=1/2;
 3/5=4,6=6,7=1111,11=2,25=1,30=1,74=-58/1,2,3;
 4//1;
 5/5=2,7=512,38=5/2;
 6/7=2,8=2,9=2,10=2,28=1/1;
 99/5=1,9=1/99;
 Leave Link    1 at Mon Nov 14 15:21:54 2022, MaxMem= 16106127360 cpu:               1.8 elap:               0.1
 (Enter /opt/ap/G16/B01/g16/l101.exe)
 ----------------------------
 _conf033.gjf nmol_natom 1_42
 ----------------------------
 Symbolic Z-matrix:
 Charge =  0 Multiplicity = 1
 C
 C                    1     1.39413 
 C                    1     1.39435  2     118.86443 
 C                    2     1.39416  1     121.15295  3     0.03668  0
 H                    2     1.08488  1     119.42237  3    -179.97409  0
 C                    1     1.48467  2     120.55715  4     179.25839  0
 C                    3     1.39438  1     121.11776  2    -0.05351  0
 H                    3     1.08488  1     119.41869  2     177.23008  0
 C                    4     1.39432  2     118.86474  1     0.01008  0
 C                    4     1.48467  2     120.54642  1     179.19455  0
 C                    6     1.39685  1     120.78435  2     75.      0
 C                    6     1.39687  1     120.67654  2    -105.     0
 C                    7     1.4845   3     120.56497  1    -179.96326  0
 H                    9     1.08488  4     119.41825  2     177.22246  0
 C                    10    1.39685  4     120.76947  2    -42.52369  0
 C                    10    1.39686  4     120.69449  2     137.43108  0
 C                    11    1.38889  6     120.73801  1     179.94059  0
 H                    11    1.08476  6     119.46912  1    -1.41051  0
 C                    12    1.38882  6     120.76493  1    -179.95083  0
 H                    12    1.08483  6     119.44183  1    -1.23603  0
 C                    13    1.39683  7     120.74134  3     42.89023  0
 C                    13    1.39683  7     120.73791  3    -137.12494  0
 C                    15    1.38888  10    120.74219  4     179.94601  0
 H                    15    1.08476  10    119.47086  4    -1.40607  0
 C                    16    1.38886  10    120.76339  4    -179.95593  0
 H                    16    1.08483  10    119.44215  4    -1.2344   0
 C                    17    1.39008  11    120.20743  6     0.0035   0
 H                    17    1.08435  11    119.71319  6     179.50116  0
 H                    19    1.08436  12    119.73823  6     179.53684  0
 C                    21    1.38882  13    120.76699  7     179.99298  0
 H                    21    1.08479  13    119.43526  7     1.32183  0
 C                    22    1.38882  13    120.76647  7    -179.97118  0
 H                    22    1.0848   13    119.43204  7     1.34658  0
 C                    23    1.39007  15    120.20733  10    0.00574  0
 H                    23    1.08435  15    119.71221  10    179.50724  0
 H                    25    1.08436  16    119.73539  10    179.53636  0
 H                    27    1.08413  17    120.21791  11    179.98397  0
 C                    30    1.39008  21    120.18795  13   -0.02169  0
 H                    30    1.08435  21    119.73787  13   -179.52151  0
 H                    32    1.08435  22    119.73704  13   -179.52887  0
 H                    34    1.08412  23    120.22153  15    179.988  0
 H                    38    1.08411  30    120.21547  21   -179.98601  0
 
 ITRead=  0  0  0  0  0  0  0  0  0  0  0  0  0  0  0  0  0  0  0  0
 ITRead=  0  0  0  0  0  0  0  0  0  0  0  0  0  0  0  0  0  0  0  0
 ITRead=  0  0
 MicOpt= -1 -1 -1 -1 -1 -1 -1 -1 -1 -1 -1 -1 -1 -1 -1 -1 -1 -1 -1 -1
 MicOpt= -1 -1 -1 -1 -1 -1 -1 -1 -1 -1 -1 -1 -1 -1 -1 -1 -1 -1 -1 -1
 MicOpt= -1 -1
 NAtoms=     42 NQM=       42 NQMF=       0 NMMI=      0 NMMIF=      0
                NMic=       0 NMicF=      0.
                    Isotopes and Nuclear Properties:
 (Nuclear quadrupole moments (NQMom) in fm**2, nuclear magnetic moments (NMagM)
  in nuclear magnetons)

  Atom         1           2           3           4           5           6           7           8           9          10
 IAtWgt=          12          12          12          12           1          12          12           1          12          12
 AtmWgt=  12.0000000  12.0000000  12.0000000  12.0000000   1.0078250  12.0000000  12.0000000   1.0078250  12.0000000  12.0000000
 NucSpn=           0           0           0           0           1           0           0           1           0           0
 AtZEff=  -0.0000000  -0.0000000  -0.0000000  -0.0000000  -0.0000000  -0.0000000  -0.0000000  -0.0000000  -0.0000000  -0.0000000
 NQMom=    0.0000000   0.0000000   0.0000000   0.0000000   0.0000000   0.0000000   0.0000000   0.0000000   0.0000000   0.0000000
 NMagM=    0.0000000   0.0000000   0.0000000   0.0000000   2.7928460   0.0000000   0.0000000   2.7928460   0.0000000   0.0000000
 AtZNuc=   6.0000000   6.0000000   6.0000000   6.0000000   1.0000000   6.0000000   6.0000000   1.0000000   6.0000000   6.0000000

  Atom        11          12          13          14          15          16          17          18          19          20
 IAtWgt=          12          12          12           1          12          12          12           1          12           1
 AtmWgt=  12.0000000  12.0000000  12.0000000   1.0078250  12.0000000  12.0000000  12.0000000   1.0078250  12.0000000   1.0078250
 NucSpn=           0           0           0           1           0           0           0           1           0           1
 AtZEff=  -0.0000000  -0.0000000  -0.0000000  -0.0000000  -0.0000000  -0.0000000  -0.0000000  -0.0000000  -0.0000000  -0.0000000
 NQMom=    0.0000000   0.0000000   0.0000000   0.0000000   0.0000000   0.0000000   0.0000000   0.0000000   0.0000000   0.0000000
 NMagM=    0.0000000   0.0000000   0.0000000   2.7928460   0.0000000   0.0000000   0.0000000   2.7928460   0.0000000   2.7928460
 AtZNuc=   6.0000000   6.0000000   6.0000000   1.0000000   6.0000000   6.0000000   6.0000000   1.0000000   6.0000000   1.0000000

  Atom        21          22          23          24          25          26          27          28          29          30
 IAtWgt=          12          12          12           1          12           1          12           1           1          12
 AtmWgt=  12.0000000  12.0000000  12.0000000   1.0078250  12.0000000   1.0078250  12.0000000   1.0078250   1.0078250  12.0000000
 NucSpn=           0           0           0           1           0           1           0           1           1           0
 AtZEff=  -0.0000000  -0.0000000  -0.0000000  -0.0000000  -0.0000000  -0.0000000  -0.0000000  -0.0000000  -0.0000000  -0.0000000
 NQMom=    0.0000000   0.0000000   0.0000000   0.0000000   0.0000000   0.0000000   0.0000000   0.0000000   0.0000000   0.0000000
 NMagM=    0.0000000   0.0000000   0.0000000   2.7928460   0.0000000   2.7928460   0.0000000   2.7928460   2.7928460   0.0000000
 AtZNuc=   6.0000000   6.0000000   6.0000000   1.0000000   6.0000000   1.0000000   6.0000000   1.0000000   1.0000000   6.0000000

  Atom        31          32          33          34          35          36          37          38          39          40
 IAtWgt=           1          12           1          12           1           1           1          12           1           1
 AtmWgt=   1.0078250  12.0000000   1.0078250  12.0000000   1.0078250   1.0078250   1.0078250  12.0000000   1.0078250   1.0078250
 NucSpn=           1           0           1           0           1           1           1           0           1           1
 AtZEff=  -0.0000000  -0.0000000  -0.0000000  -0.0000000  -0.0000000  -0.0000000  -0.0000000  -0.0000000  -0.0000000  -0.0000000
 NQMom=    0.0000000   0.0000000   0.0000000   0.0000000   0.0000000   0.0000000   0.0000000   0.0000000   0.0000000   0.0000000
 NMagM=    2.7928460   0.0000000   2.7928460   0.0000000   2.7928460   2.7928460   2.7928460   0.0000000   2.7928460   2.7928460
 AtZNuc=   1.0000000   6.0000000   1.0000000   6.0000000   1.0000000   1.0000000   1.0000000   6.0000000   1.0000000   1.0000000

  Atom        41          42
 IAtWgt=           1           1
 AtmWgt=   1.0078250   1.0078250
 NucSpn=           1           1
 AtZEff=  -0.0000000  -0.0000000
 NQMom=    0.0000000   0.0000000
 NMagM=    2.7928460   2.7928460
 AtZNuc=   1.0000000   1.0000000
 Leave Link  101 at Mon Nov 14 15:21:54 2022, MaxMem= 16106127360 cpu:               5.6 elap:               0.2
 (Enter /opt/ap/G16/B01/g16/l202.exe)
                          Input orientation:                          
 ---------------------------------------------------------------------
 Center     Atomic      Atomic             Coordinates (Angstroms)
 Number     Number       Type             X           Y           Z
 ---------------------------------------------------------------------
      1          6           0        0.000000    0.000000    0.000000
      2          6           0        0.000000    0.000000    1.394128
      3          6           0        1.221126    0.000000   -0.673109
      4          6           0        1.193108    0.000764    2.115362
      5          1           0       -0.944957   -0.000427    1.927071
      6          6           0       -1.278366   -0.017366   -0.754803
      7          6           0        2.428476    0.001115    0.024455
      8          1           0        1.232154   -0.045667   -1.756969
      9          6           0        2.400843    0.001752    1.418572
     10          6           0        1.177445    0.018728    3.599837
     11          6           0       -2.067577    1.131163   -0.850809
     12          6           0       -1.718174   -1.183904   -1.384883
     13          6           0        3.721572    0.001921   -0.704680
     14          1           0        3.334061    0.048144    1.969857
     15          6           0        0.290794    0.844275    4.295193
     16          6           0        2.049080   -0.790881    4.331965
     17          6           0       -3.262703    1.114163   -1.558196
     18          1           0       -1.751943    2.039107   -0.348091
     19          6           0       -2.913200   -1.201942   -2.092286
     20          1           0       -1.106951   -2.078857   -1.336768
     21          6           0        3.910862    0.818865   -1.821777
     22          6           0        4.776237   -0.814044   -0.288725
     23          6           0        0.275860    0.859807    5.683909
     24          1           0       -0.377402    1.495584    3.742000
     25          6           0        2.035025   -0.775886    5.720674
     26          1           0        2.729408   -1.453102    3.807101
     27          6           0       -3.689593   -0.052367   -2.182129
     28          1           0       -3.866354    2.013147   -1.615205
     29          1           0       -3.235032   -2.114673   -2.581346
     30          6           0        5.120444    0.820149   -2.504230
     31          1           0        3.109266    1.474569   -2.144691
     32          6           0        5.986440   -0.813321   -0.970068
     33          1           0        4.638168   -1.470412    0.563864
     34          6           0        1.147946    0.049642    6.401818
     35          1           0       -0.413890    1.513063    6.206701
     36          1           0        2.713797   -1.416787    6.272362
     37          1           0       -4.622572   -0.065898   -2.734121
     38          6           0        6.162883    0.003944   -2.080611
     39          1           0        5.251831    1.466740   -3.364741
     40          1           0        6.791448   -1.459089   -0.637249
     41          1           0        1.136620    0.061726    7.485815
     42          1           0        7.107346    0.004761   -2.612865
 ---------------------------------------------------------------------
                    Distance matrix (angstroms):
                    1          2          3          4          5
     1  C    0.000000
     2  C    1.394128   0.000000
     3  C    1.394354   2.400962   0.000000
     4  C    2.428634   1.394161   2.788612   0.000000
     5  H    2.146287   1.084884   3.384206   2.146341   0.000000
     6  C    1.484671   2.500485   2.500887   3.787659   2.702572
     7  C    2.428599   2.788100   1.394378   2.428585   3.872983
     8  H    2.146445   3.383741   1.084878   3.872806   4.279487
     9  C    2.788619   2.400968   2.401430   1.394324   3.384222
    10  C    3.787552   2.500376   4.273210   1.484666   2.702426
    11  C    2.505649   3.254865   3.482337   4.550608   3.202715
    12  C    2.504326   3.475148   3.247727   4.704329   3.601043
    13  C    3.787700   4.272598   2.500646   3.787581   5.357482
    14  H    3.872805   3.383747   3.384092   2.146415   4.279508
    15  C    4.387032   3.035381   5.124680   2.505463   2.801537
    16  C    4.856969   3.668120   5.134371   2.504540   3.920790
    17  C    3.783460   4.539032   4.704196   5.881236   4.331437
    18  H    2.710799   3.203528   3.619770   4.347041   3.160267
    19  C    3.782732   4.699626   4.533363   6.001047   4.633880
    20  H    2.708124   3.606214   3.190930   4.640290   3.872822
    21  C    4.391384   5.129076   3.037212   4.853507   6.189029
    22  C    4.853707   5.129045   3.667320   4.391169   6.189006
    23  C    5.755188   4.383786   6.484171   3.783362   4.042800
    24  H    4.047440   2.809218   4.928007   2.710524   2.419532
    25  C    6.121229   4.843792   6.491910   3.782894   4.886007
    26  H    4.904609   3.922195   4.945574   2.708491   4.375585
    27  C    4.286902   5.138624   5.137611   6.504769   4.941785
    28  H    4.648692   5.296937   5.551824   6.600376   5.013657
    29  H    4.647647   5.544518   5.288720   6.792832   5.480903
    30  C    5.758711   6.487587   4.385239   6.118495   7.556379
    31  H    4.054822   4.936104   2.811579   4.898143   5.932249
    32  C    6.118822   6.487555   4.843334   5.758354   7.556353
    33  H    4.898230   4.935996   3.920254   4.054620   5.932156
    34  C    6.504116   5.137821   7.075480   4.286973   4.940255
    35  H    6.401859   5.061770   7.231488   4.648499   4.570330
    36  H    6.979577   5.759266   7.243957   4.647859   5.854410
    37  H    5.371027   6.197980   6.196847   7.572586   5.937663
    38  C    6.504621   7.074953   5.138292   6.504219   8.159837
    39  H    6.407382   7.237395   5.063871   6.975231   8.279857
    40  H    6.975586   7.237348   5.758361   6.406985   8.279819
    41  H    7.571865   6.197125   8.159595   5.371096   5.936031
    42  H    7.572414   8.159067   6.197601   7.571945   9.243951
                    6          7          8          9         10
     6  C    0.000000
     7  C    3.787910   0.000000
     8  H    2.703303   2.146356   0.000000
     9  C    4.273231   1.394392   3.384102   0.000000
    10  C    4.999520   3.787973   5.357472   2.500981   0.000000
    11  C    1.396850   4.717794   3.618601   5.137357   5.619246
    12  C    1.396868   4.537092   3.184095   5.121664   5.888833
    13  C    5.000226   1.484499   2.703105   2.500505   5.000173
    14  H    5.357476   2.146366   4.279725   1.084879   2.703459
    15  C    5.357906   4.849723   6.189251   3.665665   1.396854
    16  C    6.127433   4.396117   6.188524   3.039714   1.396863
    17  C    2.421445   6.011088   4.646338   6.494179   6.893490
    18  H    2.149133   4.665630   3.903339   4.951520   5.315015
    19  C    2.421728   5.870387   4.316639   6.481825   7.115032
    20  H    2.148909   4.321857   3.127594   4.921936   5.829956
    21  C    5.363376   2.504946   2.815510   3.667109   6.124188
    22  C    6.124553   2.504906   3.912375   3.036921   5.363369
    23  C    6.681472   6.115597   7.556523   4.841994   2.421492
    24  H    4.829285   4.891475   5.933362   3.917716   2.149154
    25  C    7.313393   5.762417   7.555989   4.387097   2.421736
    26  H    6.239756   4.063707   5.931401   2.815959   2.148914
    27  C    2.802231   6.504048   4.940080   7.075407   7.558058
    28  H    3.400141   6.808938   5.500326   7.247570   7.524246
    29  H    3.400515   6.583470   4.991606   7.227842   7.888497
    30  C    6.686306   3.783088   4.053003   4.842972   7.310892
    31  H    4.838282   2.709194   2.446425   3.920191   6.233057
    32  C    7.311449   3.783053   4.879728   4.384797   6.686012
    33  H    6.233426   2.709077   4.360860   2.811302   4.838519
    34  C    7.557031   6.504835   8.159779   5.138559   2.802307
    35  H    7.179977   6.970308   8.280044   5.756123   3.400165
    36  H    8.202243   6.413127   8.279214   5.066504   3.400510
    37  H    3.886356   7.571757   5.935743   8.159521   8.588735
    38  C    7.558466   4.286853   4.941589   5.137824   7.557929
    39  H    7.187337   4.648230   4.585860   5.757987   8.197725
    40  H    8.198432   4.648180   5.844424   5.063385   7.187062
    41  H    8.587561   7.572613   9.243902   6.197846   3.886431
    42  H    8.589123   5.370968   5.937422   6.197069   8.588456
                   11         12         13         14         15
    11  C    0.000000
    12  C    2.401427   0.000000
    13  C    5.900066   5.608894   0.000000
    14  H    6.189247   6.188481   2.702860   0.000000
    15  C    5.667941   6.357100   6.121971   3.911840   0.000000
    16  C    6.892189   6.857771   5.365963   2.816859   2.401387
    17  C    1.388889   2.774296   7.123599   7.556511   6.852908
    18  H    1.084764   3.385835   5.851209   5.933317   5.211572
    19  C    2.774838   1.388824   6.884398   7.555924   7.433201
    20  H    3.385733   1.084828   5.295640   5.931314   6.497490
    21  C    6.064820   5.990660   1.396829   3.911930   7.107943
    22  C    7.137055   6.596646   1.396832   2.815037   6.624314
    23  C    6.947508   7.623696   7.309101   4.879095   1.388883
    24  H    4.907483   5.938202   6.229413   4.360107   1.084763
    25  C    7.978256   8.046236   6.688393   4.054029   2.774755
    26  H    7.168376   6.841794   4.843310   2.448430   3.385708
    27  C    2.409169   2.408832   7.557193   8.159706   7.655270
    28  H    2.144247   3.858608   7.902575   8.280089   7.319901
    29  H    3.859166   2.144462   7.509739   8.279143   8.274879
    30  C    7.382287   7.213588   2.421718   4.878996   8.340159
    31  H    5.347126   5.563179   2.148776   4.360587   7.057844
    32  C    8.286279   7.724666   2.421709   4.052208   7.931644
    33  H    7.330519   6.654531   2.148749   2.446125   6.179018
    34  C    8.006864   8.388623   7.558317   4.941800   2.409154
    35  H    7.258717   8.161306   8.194680   5.843284   2.144229
    36  H    8.949477   8.850423   7.190790   4.587189   3.859086
    37  H    3.392317   3.392036   8.587663   9.243831   8.624432
    38  C    8.397828   8.000380   2.802355   4.940696   8.708529
    39  H    7.746367   7.715356   3.400487   5.843645   9.147346
    40  H    9.232407   8.546833   3.400476   4.585006   8.478973
    41  H    8.994991   9.401634   8.588933   5.937569   3.392325
    42  H    9.410251   8.989475   3.886469   5.936405   9.741223
                   16         17         18         19         20
    16  C    0.000000
    17  C    8.157097   0.000000
    18  H    6.660296   2.145291   0.000000
    19  C    8.127989   2.402446   3.859422   0.000000
    20  H    6.614676   3.858974   4.283822   2.145303   0.000000
    21  C    6.627673   7.184477   5.977299   7.122125   5.814677
    22  C    5.365510   8.363857   7.124685   7.907639   6.108195
    23  C    2.774316   8.064380   6.472075   8.653908   7.735490
    24  H    3.385823   6.046696   4.348980   6.909835   6.253219
    25  C    1.388861   9.198922   7.687342   9.257905   7.834362
    26  H    1.084834   8.442906   7.038725   8.167305   6.447372
    27  C    8.712703   1.390079   3.390052   1.390101   3.389888
    28  H    8.844420   1.084351   2.465154   3.387168   4.943312
    29  H    8.801599   3.387180   4.943772   1.084359   2.465561
    30  C    7.665654   8.441479   7.305100   8.294455   6.967614
    31  H    6.942862   6.409045   5.213236   6.590641   5.572796
    32  C    6.604154   9.466136   8.270778   8.978529   7.214724
    33  H    4.622091   8.579449   7.347238   8.009393   6.081858
    34  C    2.408903   9.162361   7.611084   9.497851   8.336713
    35  H    3.858628   8.280609   6.710619   9.082455   8.383683
    36  H    2.144469  10.170639   8.701519  10.083481   8.540217
    37  H    9.745056   2.150485   4.285405   2.150465   4.285346
    38  C    7.660043   9.505114   8.353921   9.155850   7.598806
    39  H    8.636768   8.711212   7.647263   8.683821   7.557648
    40  H    6.901424  10.419008   9.236370   9.816489   7.953499
    41  H    3.392092  10.112161   8.580438  10.475587   9.351666
    42  H    8.628428  10.482415   9.367751  10.106358   8.569980
                   21         22         23         24         25
    21  C    0.000000
    22  C    2.401148   0.000000
    23  C    8.339678   7.663388   0.000000
    24  H    7.057108   6.938381   2.145221   0.000000
    25  C    7.934139   6.605193   2.402396   3.859344   0.000000
    26  H    6.184005   4.623169   3.858996   4.283837   2.145356
    27  C    7.658709   8.708353   8.856152   6.961470   9.785143
    28  H    7.871090   9.189502   8.471434   6.414070   9.819374
    29  H    7.761855   8.433753   9.459827   7.822066   9.924182
    30  C    1.388824   2.774442   9.514051   8.348527   8.928391
    31  H    1.084794   3.385432   8.348239   6.841814   8.251212
    32  C    2.774430   1.388819   8.926672   8.248218   7.770528
    33  H    3.385417   1.084800   7.118603   6.637291   5.818196
    34  C    8.709358   7.659884   1.390070   3.389995   1.390095
    35  H    9.145591   8.633852   1.084348   2.465033   3.387137
    36  H    8.482109   6.903971   3.387136   4.943698   1.084363
    37  H    8.627553   9.740498   9.783393   7.899356  10.784769
    38  C    2.408878   2.408889   9.781478   8.882743   8.860440
    39  H    2.144453   3.858761  10.344405   9.066139   9.895553
    40  H    3.858751   2.144441   9.369482   8.905073   7.969536
    41  H    9.741711   8.628862   2.150513   4.285366   2.150453
    42  H    3.392063   3.392069  10.781315   9.931179   9.787018
                   26         27         28         29         30
    26  H    0.000000
    27  C    8.890248   0.000000
    28  H    9.215224   2.149185   0.000000
    29  H    8.764958   2.149210   4.286129   0.000000
    30  C    7.121630   8.858994   9.109124   8.856247   0.000000
    31  H    6.643746   6.968315   7.016387   7.302290   2.145313
    32  C    5.817122   9.781296  10.270475   9.451205   2.402462
    33  H    3.763276   8.882733   9.445127   8.502629   3.859075
    34  C    3.389959   9.853748   9.657703  10.227023   9.782234
    35  H    4.943333   9.140747   8.564566   9.917110  10.343562
    36  H    2.465578  10.693150  10.829429  10.689423   9.371467
    37  H    9.937984   1.084125   2.479166   2.479130   9.785923
    38  C    6.969712   9.853160  10.239096   9.646766   1.390081
    39  H    8.143918   9.146328   9.300577   9.244841   1.084353
    40  H    6.021000  10.687270  11.251736  10.234237   3.387152
    41  H    4.285396  10.806224  10.567230  11.189092  10.781792
    42  H    7.906179  10.805678  11.200492  10.557357   2.150451
                   31         32         33         34         35
    31  H    0.000000
    32  C    3.859055   0.000000
    33  H    4.283308   2.145356   0.000000
    34  C    8.883693   8.860047   6.969499   0.000000
    35  H    9.064207   9.893547   8.140394   2.149187   0.000000
    36  H    8.908597   7.970392   6.024369   2.149200   4.286112
    37  H    7.905807  10.780615   9.930291  10.806369  10.007217
    38  C    3.389900   1.390094   3.389946   9.854100  10.686951
    39  H    2.465597   3.387150   4.943418  10.688111  11.122726
    40  H    4.943399   1.084354   2.465647   9.147341  10.372571
    41  H    9.931470   9.787155   7.907066   1.084123   2.479233
    42  H    4.285343   2.150458   4.285392  10.806525  11.688828
                   36         37         38         39         40
    36  H    0.000000
    37  H   11.694611   0.000000
    38  C    9.148051  10.805462   0.000000
    39  H   10.374492  10.012517   2.149134   0.000000
    40  H    8.023201  11.688358   2.149152   4.286037   0.000000
    41  H    2.479104  11.731652  10.806626  11.689465  10.013697
    42  H   10.013557  11.730757   1.084114   2.479039   2.479054
                   41         42
    41  H    0.000000
    42  H   11.731844   0.000000
 Stoichiometry    C24H18
 Framework group  C1[X(C24H18)]
 Deg. of freedom   120
 Full point group                 C1      NOp   1
 Largest Abelian subgroup         C1      NOp   1
 Largest concise Abelian subgroup C1      NOp   1
                         Standard orientation:                         
 ---------------------------------------------------------------------
 Center     Atomic      Atomic             Coordinates (Angstroms)
 Number     Number       Type             X           Y           Z
 ---------------------------------------------------------------------
      1          6           0       -1.400936   -0.037227    0.041480
      2          6           0       -0.723498    1.181242    0.039715
      3          6           0       -0.661357   -1.218619    0.001976
      4          6           0        0.669127    1.232127   -0.001391
      5          1           0       -1.289941    2.105988    0.070697
      6          6           0       -2.883858   -0.076291    0.102040
      7          6           0        0.732197   -1.195333   -0.039922
      8          1           0       -1.177049   -2.171953    0.048625
      9          6           0        1.385474    0.036558   -0.041411
     10          6           0        1.376255    2.537436   -0.020707
     11          6           0       -3.653768    0.240288   -1.019658
     12          6           0       -3.539790   -0.430813    1.283271
     13          6           0        1.507395   -2.460635   -0.082540
     14          1           0        2.467157    0.065817   -0.119316
     15          6           0        0.915298    3.588164   -0.817381
     16          6           0        2.517272    2.741863    0.758727
     17          6           0       -5.040950    0.202242   -0.962275
     18          1           0       -3.160563    0.539940   -1.938173
     19          6           0       -4.926861   -0.468937    1.341689
     20          1           0       -2.956103   -0.699010    2.157475
     21          6           0        1.105820   -3.516699   -0.903878
     22          6           0        2.654842   -2.621535    0.697598
     23          6           0        1.576603    4.809388   -0.834168
     24          1           0        0.043604    3.438950   -1.445550
     25          6           0        3.179357    3.962647    0.742447
     26          1           0        2.876033    1.942797    1.398765
     27          6           0       -5.682611   -0.153181    0.218515
     28          1           0       -5.622462    0.459049   -1.840745
     29          1           0       -5.418703   -0.753713    2.265176
     30          6           0        1.830737   -4.700631   -0.944273
     31          1           0        0.229368   -3.399791   -1.532323
     32          6           0        3.380857   -3.804806    0.657742
     33          1           0        2.967892   -1.819127    1.357091
     34          6           0        2.711121    5.001161   -0.054175
     35          1           0        1.208869    5.611085   -1.464933
     36          1           0        4.059250    4.105563    1.359866
     37          1           0       -6.765398   -0.182682    0.263570
     38          6           0        2.971235   -4.848899   -0.163501
     39          1           0        1.508289   -5.506864   -1.593763
     40          1           0        4.264809   -3.914566    1.276132
     41          1           0        3.227609    5.954257   -0.067250
     42          1           0        3.537569   -5.772797   -0.194857
 ---------------------------------------------------------------------
 Rotational constants (GHZ):           0.1977318           0.1945213           0.1046034
 Leave Link  202 at Mon Nov 14 15:21:54 2022, MaxMem= 16106127360 cpu:               1.6 elap:               0.1
 (Enter /opt/ap/G16/B01/g16/l301.exe)
 Standard basis: 6-311++G(d,p) (5D, 7F)
 Ernie: Thresh=  0.10000D-02 Tol=  0.10000D-05 Strict=F.
 There are   678 symmetry adapted cartesian basis functions of A   symmetry.
 There are   654 symmetry adapted basis functions of A   symmetry.
   654 basis functions,  1026 primitive gaussians,   678 cartesian basis functions
    81 alpha electrons       81 beta electrons
       nuclear repulsion energy      1730.7890803704 Hartrees.
 IExCor= 4639 DFT=T Ex+Corr=wB97XD ExCW=0 ScaHFX=  1.000000
 ScaDFX=  1.000000  1.000000  1.000000  1.000000 ScalE2=  1.000000  1.000000
 IRadAn=      5 IRanWt=     -1 IRanGd=            0 ICorTp=0 IEmpDi=121
 HFx  wShort=  0.000000 wLong=  0.200000 cFull=  0.222036 cShort=  0.000000 cLong=  0.777964
 DFx  wShort=  0.000000 wLong=  0.200000 cFull=  0.000000 cShort=  0.000000 cLong=  1.000000
 NAtoms=   42 NActive=   42 NUniq=   42 SFac= 1.00D+00 NAtFMM=   60 NAOKFM=F Big=F
 Integral buffers will be    131072 words long.
 Raffenetti 2 integral format.
 Two-electron integral symmetry is turned on.
 R6Disp:  Grimme-D2 Dispersion energy=       -0.0287286191 Hartrees.
 Nuclear repulsion after empirical dispersion term =     1730.7603517513 Hartrees.
 Leave Link  301 at Mon Nov 14 15:21:54 2022, MaxMem= 16106127360 cpu:               1.6 elap:               0.1
 (Enter /opt/ap/G16/B01/g16/l302.exe)
 NPDir=0 NMtPBC=     1 NCelOv=     1 NCel=       1 NClECP=     1 NCelD=      1
         NCelK=      1 NCelE2=     1 NClLst=     1 CellRange=     0.0.
 One-electron integrals computed using PRISM.
 One-electron integral symmetry used in STVInt
 NBasis=   654 RedAO= T EigKep=  1.04D-06  NBF=   654
 NBsUse=   646 1.00D-06 EigRej=  7.42D-07 NBFU=   646
 Precomputing XC quadrature grid using
 IXCGrd= 4 IRadAn=           5 IRanWt=          -1 IRanGd=           0 AccXCQ= 0.00D+00.
 Generated NRdTot=       0 NPtTot=           0 NUsed=           0 NTot=          32
 NSgBfM=   669   669   669   669   669 MxSgAt=    42 MxSgA2=    42.
 Leave Link  302 at Mon Nov 14 15:21:55 2022, MaxMem= 16106127360 cpu:              21.7 elap:               0.7
 (Enter /opt/ap/G16/B01/g16/l303.exe)
 DipDrv:  MaxL=1.
 Leave Link  303 at Mon Nov 14 15:21:55 2022, MaxMem= 16106127360 cpu:               3.3 elap:               0.1
 (Enter /opt/ap/G16/B01/g16/l401.exe)
 ExpMin= 3.60D-02 ExpMax= 4.56D+03 ExpMxC= 6.82D+02 IAcc=3 IRadAn=         5 AccDes= 0.00D+00
 Harris functional with IExCor= 4639 and IRadAn=       5 diagonalized for initial guess.
 HarFok:  IExCor= 4639 AccDes= 0.00D+00 IRadAn=         5 IDoV= 1 UseB2=F ITyADJ=14
 ICtDFT=  3500011 ScaDFX=  1.000000  1.000000  1.000000  1.000000
 FoFCou: FMM=F IPFlag=           0 FMFlag=      100000 FMFlg1=           0
         NFxFlg=           0 DoJE=T BraDBF=F KetDBF=T FulRan=T
         wScrn=  0.000000 ICntrl=       500 IOpCl=  0 I1Cent=   200000004 NGrid=           0
         NMat0=    1 NMatS0=      1 NMatT0=    0 NMatD0=    1 NMtDS0=    0 NMtDT0=    0
 Petite list used in FoFCou.
 Harris En= -882.968207780980    
 JPrj=0 DoOrth=F DoCkMO=F.
 Leave Link  401 at Mon Nov 14 15:21:57 2022, MaxMem= 16106127360 cpu:              56.0 elap:               1.8
 (Enter /opt/ap/G16/B01/g16/l502.exe)
 Integral symmetry usage will be decided dynamically.
 Closed shell SCF:
 Using DIIS extrapolation, IDIIS=  1040.
 NGot= 16106127360 LenX= 16105179956 LenY= 16104719594
 Requested convergence on RMS density matrix=1.00D-08 within 512 cycles.
 Requested convergence on MAX density matrix=1.00D-06.
 Requested convergence on             energy=1.00D-06.
 No special actions if energy rises.
 Fock matrices will be formed incrementally for  20 cycles.

 Cycle   1  Pass 1  IDiag  1:
 FoFJK:  IHMeth= 1 ICntrl=       0 DoSepK=T KAlg= 0 I1Cent=           0 FoldK=F
 IRaf=         1 NMat=       1 IRICut=       1 DoRegI=T DoRafI=F ISym2E= 0 IDoP0=0 IntGTp=1.
 FoFCou: FMM=F IPFlag=           0 FMFlag=      100000 FMFlg1=           0
         NFxFlg=           0 DoJE=T BraDBF=F KetDBF=F FulRan=T
         wScrn=  0.000000 ICntrl=       500 IOpCl=  0 I1Cent=           0 NGrid=           0
         NMat0=    1 NMatS0=      1 NMatT0=    0 NMatD0=    1 NMtDS0=    0 NMtDT0=    0
 Symmetry not used in FoFCou.
 E= -925.114687895233    
 DIIS: error= 4.64D-02 at cycle   1 NSaved=   1.
 NSaved= 1 IEnMin= 1 EnMin= -925.114687895233     IErMin= 1 ErrMin= 4.64D-02
 ErrMax= 4.64D-02  0.00D+00 EMaxC= 1.00D-01 BMatC= 1.90D+00 BMatP= 1.90D+00
 IDIUse=3 WtCom= 5.36D-01 WtEn= 4.64D-01
 Coeff-Com:  0.100D+01
 Coeff-En:   0.100D+01
 Coeff:      0.100D+01
 Gap=     0.318 Goal=   None    Shift=    0.000
 GapD=    0.318 DampG=1.000 DampE=0.500 DampFc=0.5000 IDamp=-1.
 Damping current iteration by 5.00D-01
 RMSDP=4.38D-02 MaxDP=4.26D+00              OVMax= 4.32D-02

 Cycle   2  Pass 1  IDiag  1:
 RMSU=  7.15D-03    CP:  8.21D-01
 E= -925.213086529353     Delta-E=       -0.098398634120 Rises=F Damp=T
 DIIS: error= 2.25D-02 at cycle   2 NSaved=   2.
 NSaved= 2 IEnMin= 2 EnMin= -925.213086529353     IErMin= 2 ErrMin= 2.25D-02
 ErrMax= 2.25D-02  0.00D+00 EMaxC= 1.00D-01 BMatC= 4.32D-01 BMatP= 1.90D+00
 IDIUse=3 WtCom= 7.75D-01 WtEn= 2.25D-01
 Coeff-Com: -0.883D+00 0.188D+01
 Coeff-En:   0.000D+00 0.100D+01
 Coeff:     -0.684D+00 0.168D+01
 Gap=     0.326 Goal=   None    Shift=    0.000
 RMSDP=2.55D-02 MaxDP=2.31D+00 DE=-9.84D-02 OVMax= 3.45D-02

 Cycle   3  Pass 1  IDiag  1:
 RMSU=  4.31D-03    CP:  6.05D-01  1.40D+00
 E= -925.301155169020     Delta-E=       -0.088068639667 Rises=F Damp=F
 DIIS: error= 3.33D-03 at cycle   3 NSaved=   3.
 NSaved= 3 IEnMin= 3 EnMin= -925.301155169020     IErMin= 3 ErrMin= 3.33D-03
 ErrMax= 3.33D-03  0.00D+00 EMaxC= 1.00D-01 BMatC= 8.83D-03 BMatP= 4.32D-01
 IDIUse=3 WtCom= 9.67D-01 WtEn= 3.33D-02
 Coeff-Com: -0.371D+00 0.787D+00 0.584D+00
 Coeff-En:   0.000D+00 0.000D+00 0.100D+01
 Coeff:     -0.359D+00 0.761D+00 0.598D+00
 Gap=     0.324 Goal=   None    Shift=    0.000
 RMSDP=2.20D-03 MaxDP=1.86D-01 DE=-8.81D-02 OVMax= 2.00D-02

 Cycle   4  Pass 1  IDiag  1:
 RMSU=  1.47D-03    CP:  6.01D-01  1.53D+00  7.22D-01
 E= -925.309248941396     Delta-E=       -0.008093772376 Rises=F Damp=F
 DIIS: error= 8.32D-04 at cycle   4 NSaved=   4.
 NSaved= 4 IEnMin= 4 EnMin= -925.309248941396     IErMin= 4 ErrMin= 8.32D-04
 ErrMax= 8.32D-04  0.00D+00 EMaxC= 1.00D-01 BMatC= 2.79D-04 BMatP= 8.83D-03
 IDIUse=3 WtCom= 9.92D-01 WtEn= 8.32D-03
 Coeff-Com: -0.113D+00 0.241D+00 0.236D+00 0.636D+00
 Coeff-En:   0.000D+00 0.000D+00 0.000D+00 0.100D+01
 Coeff:     -0.113D+00 0.239D+00 0.235D+00 0.639D+00
 Gap=     0.322 Goal=   None    Shift=    0.000
 RMSDP=6.49D-04 MaxDP=5.47D-02 DE=-8.09D-03 OVMax= 4.38D-03

 Cycle   5  Pass 1  IDiag  1:
 RMSU=  3.00D-04    CP:  5.98D-01  1.58D+00  7.64D-01  8.16D-01
 E= -925.309539637372     Delta-E=       -0.000290695976 Rises=F Damp=F
 DIIS: error= 2.13D-04 at cycle   5 NSaved=   5.
 NSaved= 5 IEnMin= 5 EnMin= -925.309539637372     IErMin= 5 ErrMin= 2.13D-04
 ErrMax= 2.13D-04  0.00D+00 EMaxC= 1.00D-01 BMatC= 2.02D-05 BMatP= 2.79D-04
 IDIUse=3 WtCom= 9.98D-01 WtEn= 2.13D-03
 Coeff-Com:  0.258D-01-0.550D-01-0.241D-01 0.196D+00 0.858D+00
 Coeff-En:   0.000D+00 0.000D+00 0.000D+00 0.000D+00 0.100D+01
 Coeff:      0.258D-01-0.549D-01-0.241D-01 0.195D+00 0.858D+00
 Gap=     0.322 Goal=   None    Shift=    0.000
 RMSDP=1.91D-04 MaxDP=1.11D-02 DE=-2.91D-04 OVMax= 1.42D-03

 Cycle   6  Pass 1  IDiag  1:
 RMSU=  8.75D-05    CP:  5.98D-01  1.58D+00  7.88D-01  8.76D-01  1.28D+00
 E= -925.309565081887     Delta-E=       -0.000025444515 Rises=F Damp=F
 DIIS: error= 6.16D-05 at cycle   6 NSaved=   6.
 NSaved= 6 IEnMin= 6 EnMin= -925.309565081887     IErMin= 6 ErrMin= 6.16D-05
 ErrMax= 6.16D-05  0.00D+00 EMaxC= 1.00D-01 BMatC= 1.50D-06 BMatP= 2.02D-05
 IDIUse=1 WtCom= 1.00D+00 WtEn= 0.00D+00
 Coeff-Com:  0.135D-01-0.288D-01-0.163D-01 0.545D-01 0.337D+00 0.640D+00
 Coeff:      0.135D-01-0.288D-01-0.163D-01 0.545D-01 0.337D+00 0.640D+00
 Gap=     0.323 Goal=   None    Shift=    0.000
 RMSDP=8.43D-05 MaxDP=7.68D-03 DE=-2.54D-05 OVMax= 4.29D-04

 Cycle   7  Pass 1  IDiag  1:
 RMSU=  4.90D-05    CP:  5.98D-01  1.58D+00  7.94D-01  9.07D-01  1.31D+00
                    CP:  7.84D-01
 E= -925.309566876530     Delta-E=       -0.000001794643 Rises=F Damp=F
 DIIS: error= 1.29D-05 at cycle   7 NSaved=   7.
 NSaved= 7 IEnMin= 7 EnMin= -925.309566876530     IErMin= 7 ErrMin= 1.29D-05
 ErrMax= 1.29D-05  0.00D+00 EMaxC= 1.00D-01 BMatC= 1.08D-07 BMatP= 1.50D-06
 IDIUse=1 WtCom= 1.00D+00 WtEn= 0.00D+00
 Coeff-Com: -0.195D-02 0.420D-02 0.168D-02-0.260D-01-0.896D-01 0.106D+00
 Coeff-Com:  0.101D+01
 Coeff:     -0.195D-02 0.420D-02 0.168D-02-0.260D-01-0.896D-01 0.106D+00
 Coeff:      0.101D+01
 Gap=     0.323 Goal=   None    Shift=    0.000
 RMSDP=3.06D-05 MaxDP=1.86D-03 DE=-1.79D-06 OVMax= 2.60D-04

 Cycle   8  Pass 1  IDiag  1:
 RMSU=  9.63D-06    CP:  5.98D-01  1.58D+00  7.98D-01  9.08D-01  1.36D+00
                    CP:  8.89D-01  1.23D+00
 E= -925.309567102812     Delta-E=       -0.000000226282 Rises=F Damp=F
 DIIS: error= 8.70D-06 at cycle   8 NSaved=   8.
 NSaved= 8 IEnMin= 8 EnMin= -925.309567102812     IErMin= 8 ErrMin= 8.70D-06
 ErrMax= 8.70D-06  0.00D+00 EMaxC= 1.00D-01 BMatC= 1.98D-08 BMatP= 1.08D-07
 IDIUse=1 WtCom= 1.00D+00 WtEn= 0.00D+00
 Coeff-Com: -0.163D-02 0.348D-02 0.168D-02-0.163D-01-0.608D-01 0.291D-01
 Coeff-Com:  0.489D+00 0.555D+00
 Coeff:     -0.163D-02 0.348D-02 0.168D-02-0.163D-01-0.608D-01 0.291D-01
 Coeff:      0.489D+00 0.555D+00
 Gap=     0.323 Goal=   None    Shift=    0.000
 RMSDP=4.31D-06 MaxDP=2.75D-04 DE=-2.26D-07 OVMax= 7.05D-05

 Cycle   9  Pass 1  IDiag  1:
 RMSU=  2.73D-06    CP:  5.98D-01  1.58D+00  7.98D-01  9.08D-01  1.37D+00
                    CP:  8.93D-01  1.25D+00  9.72D-01
 E= -925.309567127684     Delta-E=       -0.000000024872 Rises=F Damp=F
 DIIS: error= 2.44D-06 at cycle   9 NSaved=   9.
 NSaved= 9 IEnMin= 9 EnMin= -925.309567127684     IErMin= 9 ErrMin= 2.44D-06
 ErrMax= 2.44D-06  0.00D+00 EMaxC= 1.00D-01 BMatC= 1.96D-09 BMatP= 1.98D-08
 IDIUse=1 WtCom= 1.00D+00 WtEn= 0.00D+00
 Coeff-Com:  0.120D-03-0.261D-03 0.733D-04 0.296D-02 0.108D-01-0.169D-01
 Coeff-Com: -0.183D+00 0.108D+00 0.108D+01
 Coeff:      0.120D-03-0.261D-03 0.733D-04 0.296D-02 0.108D-01-0.169D-01
 Coeff:     -0.183D+00 0.108D+00 0.108D+01
 Gap=     0.323 Goal=   None    Shift=    0.000
 RMSDP=3.18D-06 MaxDP=2.13D-04 DE=-2.49D-08 OVMax= 4.84D-05

 Cycle  10  Pass 1  IDiag  1:
 RMSU=  7.75D-07    CP:  5.98D-01  1.58D+00  7.98D-01  9.07D-01  1.37D+00
                    CP:  8.98D-01  1.29D+00  1.20D+00  1.17D+00
 E= -925.309567133282     Delta-E=       -0.000000005598 Rises=F Damp=F
 DIIS: error= 8.31D-07 at cycle  10 NSaved=  10.
 NSaved=10 IEnMin=10 EnMin= -925.309567133282     IErMin=10 ErrMin= 8.31D-07
 ErrMax= 8.31D-07  0.00D+00 EMaxC= 1.00D-01 BMatC= 1.95D-10 BMatP= 1.96D-09
 IDIUse=1 WtCom= 1.00D+00 WtEn= 0.00D+00
 Coeff-Com:  0.139D-03-0.300D-03-0.648D-04 0.193D-02 0.701D-02-0.536D-02
 Coeff-Com: -0.860D-01-0.149D-01 0.347D+00 0.750D+00
 Coeff:      0.139D-03-0.300D-03-0.648D-04 0.193D-02 0.701D-02-0.536D-02
 Coeff:     -0.860D-01-0.149D-01 0.347D+00 0.750D+00
 Gap=     0.323 Goal=   None    Shift=    0.000
 RMSDP=5.63D-07 MaxDP=4.55D-05 DE=-5.60D-09 OVMax= 1.02D-05

 Cycle  11  Pass 1  IDiag  1:
 RMSU=  1.67D-07    CP:  5.98D-01  1.58D+00  7.98D-01  9.07D-01  1.37D+00
                    CP:  8.98D-01  1.29D+00  1.21D+00  1.24D+00  1.16D+00
 E= -925.309567133623     Delta-E=       -0.000000000341 Rises=F Damp=F
 DIIS: error= 2.14D-07 at cycle  11 NSaved=  11.
 NSaved=11 IEnMin=11 EnMin= -925.309567133623     IErMin=11 ErrMin= 2.14D-07
 ErrMax= 2.14D-07  0.00D+00 EMaxC= 1.00D-01 BMatC= 3.35D-11 BMatP= 1.95D-10
 IDIUse=1 WtCom= 1.00D+00 WtEn= 0.00D+00
 Coeff-Com:  0.217D-04-0.459D-04-0.203D-04 0.111D-03 0.213D-03 0.130D-02
 Coeff-Com:  0.264D-02-0.279D-01-0.675D-01 0.241D+00 0.850D+00
 Coeff:      0.217D-04-0.459D-04-0.203D-04 0.111D-03 0.213D-03 0.130D-02
 Coeff:      0.264D-02-0.279D-01-0.675D-01 0.241D+00 0.850D+00
 Gap=     0.323 Goal=   None    Shift=    0.000
 RMSDP=3.86D-07 MaxDP=3.59D-05 DE=-3.41D-10 OVMax= 3.37D-06

 Cycle  12  Pass 1  IDiag  1:
 RMSU=  7.17D-08    CP:  5.98D-01  1.58D+00  7.98D-01  9.08D-01  1.37D+00
                    CP:  8.98D-01  1.29D+00  1.22D+00  1.27D+00  1.32D+00
                    CP:  1.28D+00
 E= -925.309567133679     Delta-E=       -0.000000000055 Rises=F Damp=F
 DIIS: error= 7.74D-08 at cycle  12 NSaved=  12.
 NSaved=12 IEnMin=12 EnMin= -925.309567133679     IErMin=12 ErrMin= 7.74D-08
 ErrMax= 7.74D-08  0.00D+00 EMaxC= 1.00D-01 BMatC= 1.39D-12 BMatP= 3.35D-11
 IDIUse=1 WtCom= 1.00D+00 WtEn= 0.00D+00
 Coeff-Com: -0.146D-04 0.317D-04 0.104D-04-0.226D-03-0.831D-03 0.829D-03
 Coeff-Com:  0.101D-01-0.331D-03-0.380D-01-0.607D-01-0.532D-01 0.114D+01
 Coeff:     -0.146D-04 0.317D-04 0.104D-04-0.226D-03-0.831D-03 0.829D-03
 Coeff:      0.101D-01-0.331D-03-0.380D-01-0.607D-01-0.532D-01 0.114D+01
 Gap=     0.323 Goal=   None    Shift=    0.000
 RMSDP=1.65D-07 MaxDP=1.59D-05 DE=-5.55D-11 OVMax= 1.22D-06

 Cycle  13  Pass 1  IDiag  1:
 RMSU=  3.61D-08    CP:  5.98D-01  1.58D+00  7.98D-01  9.08D-01  1.37D+00
                    CP:  8.97D-01  1.28D+00  1.22D+00  1.27D+00  1.39D+00
                    CP:  1.43D+00  1.56D+00
 E= -925.309567133644     Delta-E=        0.000000000035 Rises=F Damp=F
 DIIS: error= 3.45D-08 at cycle  13 NSaved=  13.
 NSaved=13 IEnMin=12 EnMin= -925.309567133679     IErMin=13 ErrMin= 3.45D-08
 ErrMax= 3.45D-08  0.00D+00 EMaxC= 1.00D-01 BMatC= 1.87D-13 BMatP= 1.39D-12
 IDIUse=1 WtCom= 1.00D+00 WtEn= 0.00D+00
 Coeff-Com: -0.536D-05 0.115D-04 0.461D-05-0.703D-04-0.245D-03 0.185D-03
 Coeff-Com:  0.266D-02 0.135D-02-0.613D-02-0.271D-01-0.696D-01 0.337D+00
 Coeff-Com:  0.762D+00
 Coeff:     -0.536D-05 0.115D-04 0.461D-05-0.703D-04-0.245D-03 0.185D-03
 Coeff:      0.266D-02 0.135D-02-0.613D-02-0.271D-01-0.696D-01 0.337D+00
 Coeff:      0.762D+00
 Gap=     0.323 Goal=   None    Shift=    0.000
 RMSDP=2.02D-08 MaxDP=1.72D-06 DE= 3.46D-11 OVMax= 3.05D-07

 Cycle  14  Pass 1  IDiag  1:
 RMSU=  7.73D-09    CP:  5.98D-01  1.58D+00  7.98D-01  9.08D-01  1.37D+00
                    CP:  8.97D-01  1.28D+00  1.22D+00  1.27D+00  1.40D+00
                    CP:  1.42D+00  1.67D+00  1.14D+00
 E= -925.309567133676     Delta-E=       -0.000000000032 Rises=F Damp=F
 DIIS: error= 8.84D-09 at cycle  14 NSaved=  14.
 NSaved=14 IEnMin=12 EnMin= -925.309567133679     IErMin=14 ErrMin= 8.84D-09
 ErrMax= 8.84D-09  0.00D+00 EMaxC= 1.00D-01 BMatC= 4.95D-14 BMatP= 1.87D-13
 IDIUse=1 WtCom= 1.00D+00 WtEn= 0.00D+00
 Coeff-Com:  0.604D-06-0.134D-05-0.181D-06 0.138D-04 0.580D-04-0.793D-04
 Coeff-Com: -0.816D-03 0.522D-03 0.443D-02 0.515D-03-0.217D-01-0.876D-01
 Coeff-Com:  0.326D+00 0.779D+00
 Coeff:      0.604D-06-0.134D-05-0.181D-06 0.138D-04 0.580D-04-0.793D-04
 Coeff:     -0.816D-03 0.522D-03 0.443D-02 0.515D-03-0.217D-01-0.876D-01
 Coeff:      0.326D+00 0.779D+00
 Gap=     0.323 Goal=   None    Shift=    0.000
 RMSDP=1.54D-08 MaxDP=1.69D-06 DE=-3.18D-11 OVMax= 1.07D-07

 Cycle  15  Pass 1  IDiag  1:
 RMSU=  2.89D-09    CP:  5.98D-01  1.58D+00  7.98D-01  9.08D-01  1.37D+00
                    CP:  8.97D-01  1.28D+00  1.22D+00  1.27D+00  1.40D+00
                    CP:  1.44D+00  1.75D+00  1.31D+00  8.82D-01
 E= -925.309567133696     Delta-E=       -0.000000000020 Rises=F Damp=F
 DIIS: error= 1.90D-09 at cycle  15 NSaved=  15.
 NSaved=15 IEnMin=15 EnMin= -925.309567133696     IErMin=15 ErrMin= 1.90D-09
 ErrMax= 1.90D-09  0.00D+00 EMaxC= 1.00D-01 BMatC= 2.15D-15 BMatP= 4.95D-14
 IDIUse=1 WtCom= 1.00D+00 WtEn= 0.00D+00
 Coeff-Com:  0.550D-06-0.119D-05-0.447D-06 0.883D-05 0.338D-04-0.374D-04
 Coeff-Com: -0.417D-03 0.507D-04 0.167D-02 0.207D-02-0.113D-02-0.500D-01
 Coeff-Com:  0.404D-01 0.182D+00 0.826D+00
 Coeff:      0.550D-06-0.119D-05-0.447D-06 0.883D-05 0.338D-04-0.374D-04
 Coeff:     -0.417D-03 0.507D-04 0.167D-02 0.207D-02-0.113D-02-0.500D-01
 Coeff:      0.404D-01 0.182D+00 0.826D+00
 Gap=     0.323 Goal=   None    Shift=    0.000
 RMSDP=3.86D-09 MaxDP=4.20D-07 DE=-2.00D-11 OVMax= 2.61D-08

 SCF Done:  E(RwB97XD) =  -925.309567134     A.U. after   15 cycles
            NFock= 15  Conv=0.39D-08     -V/T= 2.0044
 KE= 9.212945858854D+02 PE=-5.608020193393D+03 EE= 2.030655688623D+03
 Leave Link  502 at Mon Nov 14 15:24:28 2022, MaxMem= 16106127360 cpu:            4822.7 elap:             150.9
 (Enter /opt/ap/G16/B01/g16/l601.exe)
 Copying SCF densities to generalized density rwf, IOpCl= 0 IROHF=0.

 **********************************************************************

            Population analysis using the SCF Density.

 **********************************************************************

 Orbital symmetries:
       Occupied  (A) (A) (A) (A) (A) (A) (A) (A) (A) (A) (A) (A)
                 (A) (A) (A) (A) (A) (A) (A) (A) (A) (A) (A) (A)
                 (A) (A) (A) (A) (A) (A) (A) (A) (A) (A) (A) (A)
                 (A) (A) (A) (A) (A) (A) (A) (A) (A) (A) (A) (A)
                 (A) (A) (A) (A) (A) (A) (A) (A) (A) (A) (A) (A)
                 (A) (A) (A) (A) (A) (A) (A) (A) (A) (A) (A) (A)
                 (A) (A) (A) (A) (A) (A) (A) (A) (A)
       Virtual   (A) (A) (A) (A) (A) (A) (A) (A) (A) (A) (A) (A)
                 (A) (A) (A) (A) (A) (A) (A) (A) (A) (A) (A) (A)
                 (A) (A) (A) (A) (A) (A) (A) (A) (A) (A) (A) (A)
                 (A) (A) (A) (A) (A) (A) (A) (A) (A) (A) (A) (A)
                 (A) (A) (A) (A) (A) (A) (A) (A) (A) (A) (A) (A)
                 (A) (A) (A) (A) (A) (A) (A) (A) (A) (A) (A) (A)
                 (A) (A) (A) (A) (A) (A) (A) (A) (A) (A) (A) (A)
                 (A) (A) (A) (A) (A) (A) (A) (A) (A) (A) (A) (A)
                 (A) (A) (A) (A) (A) (A) (A) (A) (A) (A) (A) (A)
                 (A) (A) (A) (A) (A) (A) (A) (A) (A) (A) (A) (A)
                 (A) (A) (A) (A) (A) (A) (A) (A) (A) (A) (A) (A)
                 (A) (A) (A) (A) (A) (A) (A) (A) (A) (A) (A) (A)
                 (A) (A) (A) (A) (A) (A) (A) (A) (A) (A) (A) (A)
                 (A) (A) (A) (A) (A) (A) (A) (A) (A) (A) (A) (A)
                 (A) (A) (A) (A) (A) (A) (A) (A) (A) (A) (A) (A)
                 (A) (A) (A) (A) (A) (A) (A) (A) (A) (A) (A) (A)
                 (A) (A) (A) (A) (A) (A) (A) (A) (A) (A) (A) (A)
                 (A) (A) (A) (A) (A) (A) (A) (A) (A) (A) (A) (A)
                 (A) (A) (A) (A) (A) (A) (A) (A) (A) (A) (A) (A)
                 (A) (A) (A) (A) (A) (A) (A) (A) (A) (A) (A) (A)
                 (A) (A) (A) (A) (A) (A) (A) (A) (A) (A) (A) (A)
                 (A) (A) (A) (A) (A) (A) (A) (A) (A) (A) (A) (A)
                 (A) (A) (A) (A) (A) (A) (A) (A) (A) (A) (A) (A)
                 (A) (A) (A) (A) (A) (A) (A) (A) (A) (A) (A) (A)
                 (A) (A) (A) (A) (A) (A) (A) (A) (A) (A) (A) (A)
                 (A) (A) (A) (A) (A) (A) (A) (A) (A) (A) (A) (A)
                 (A) (A) (A) (A) (A) (A) (A) (A) (A) (A) (A) (A)
                 (A) (A) (A) (A) (A) (A) (A) (A) (A) (A) (A) (A)
                 (A) (A) (A) (A) (A) (A) (A) (A) (A) (A) (A) (A)
                 (A) (A) (A) (A) (A) (A) (A) (A) (A) (A) (A) (A)
                 (A) (A) (A) (A) (A) (A) (A) (A) (A) (A) (A) (A)
                 (A) (A) (A) (A) (A) (A) (A) (A) (A) (A) (A) (A)
                 (A) (A) (A) (A) (A) (A) (A) (A) (A) (A) (A) (A)
                 (A) (A) (A) (A) (A) (A) (A) (A) (A) (A) (A) (A)
                 (A) (A) (A) (A) (A) (A) (A) (A) (A) (A) (A) (A)
                 (A) (A) (A) (A) (A) (A) (A) (A) (A) (A) (A) (A)
                 (A) (A) (A) (A) (A) (A) (A) (A) (A) (A) (A) (A)
                 (A) (A) (A) (A) (A) (A) (A) (A) (A) (A) (A) (A)
                 (A) (A) (A) (A) (A) (A) (A) (A) (A) (A) (A) (A)
                 (A) (A) (A) (A) (A) (A) (A) (A) (A) (A) (A) (A)
                 (A) (A) (A) (A) (A) (A) (A) (A) (A) (A) (A) (A)
                 (A) (A) (A) (A) (A) (A) (A) (A) (A) (A) (A) (A)
                 (A) (A) (A) (A) (A) (A) (A) (A) (A) (A) (A) (A)
                 (A) (A) (A) (A) (A) (A) (A) (A) (A) (A) (A) (A)
                 (A) (A) (A) (A) (A) (A) (A) (A) (A) (A) (A) (A)
                 (A) (A) (A) (A) (A) (A) (A) (A) (A) (A) (A) (A)
                 (A) (A) (A) (A) (A) (A) (A) (A) (A) (A) (A) (A)
                 (A)
 The electronic state is 1-A.
 Alpha  occ. eigenvalues --  -10.30379 -10.30378 -10.30334 -10.30309 -10.30295
 Alpha  occ. eigenvalues --  -10.30234 -10.29236 -10.29228 -10.29222 -10.29203
 Alpha  occ. eigenvalues --  -10.29202 -10.29177 -10.29155 -10.29149 -10.29138
 Alpha  occ. eigenvalues --  -10.29135 -10.29108 -10.29098 -10.29088 -10.29077
 Alpha  occ. eigenvalues --  -10.29067 -10.29055 -10.29050 -10.29042  -0.98932
 Alpha  occ. eigenvalues --   -0.97034  -0.96997  -0.95245  -0.89389  -0.89364
 Alpha  occ. eigenvalues --   -0.85313  -0.85267  -0.85186  -0.85029  -0.82254
 Alpha  occ. eigenvalues --   -0.82212  -0.73507  -0.73239  -0.71116  -0.70593
 Alpha  occ. eigenvalues --   -0.70345  -0.70090  -0.66801  -0.66669  -0.63439
 Alpha  occ. eigenvalues --   -0.60683  -0.60639  -0.58725  -0.57115  -0.56480
 Alpha  occ. eigenvalues --   -0.54944  -0.54735  -0.54531  -0.54257  -0.53076
 Alpha  occ. eigenvalues --   -0.51913  -0.51403  -0.51272  -0.51091  -0.50840
 Alpha  occ. eigenvalues --   -0.50741  -0.47682  -0.46628  -0.46082  -0.46008
 Alpha  occ. eigenvalues --   -0.45487  -0.45090  -0.44281  -0.43145  -0.43037
 Alpha  occ. eigenvalues --   -0.42872  -0.41835  -0.41382  -0.36513  -0.35209
 Alpha  occ. eigenvalues --   -0.33610  -0.33600  -0.33591  -0.33046  -0.31206
 Alpha  occ. eigenvalues --   -0.30215
 Alpha virt. eigenvalues --    0.02047   0.03003   0.03674   0.04209   0.04336
 Alpha virt. eigenvalues --    0.04815   0.04924   0.04987   0.05166   0.05289
 Alpha virt. eigenvalues --    0.05355   0.05670   0.05685   0.06775   0.06840
 Alpha virt. eigenvalues --    0.06907   0.07191   0.07919   0.07996   0.08349
 Alpha virt. eigenvalues --    0.08625   0.08977   0.09102   0.09456   0.11115
 Alpha virt. eigenvalues --    0.11493   0.11971   0.12122   0.12733   0.13370
 Alpha virt. eigenvalues --    0.13578   0.14038   0.14174   0.14690   0.15102
 Alpha virt. eigenvalues --    0.15567   0.15755   0.15807   0.16084   0.16344
 Alpha virt. eigenvalues --    0.16401   0.16576   0.17030   0.17370   0.17478
 Alpha virt. eigenvalues --    0.17578   0.17604   0.17824   0.17996   0.18063
 Alpha virt. eigenvalues --    0.18164   0.18218   0.18448   0.18688   0.18907
 Alpha virt. eigenvalues --    0.18952   0.19287   0.19447   0.20096   0.20314
 Alpha virt. eigenvalues --    0.20431   0.20643   0.20834   0.21239   0.21393
 Alpha virt. eigenvalues --    0.21913   0.22255   0.22388   0.22601   0.22922
 Alpha virt. eigenvalues --    0.22951   0.23183   0.23329   0.23657   0.23817
 Alpha virt. eigenvalues --    0.24421   0.25022   0.25084   0.25203   0.25544
 Alpha virt. eigenvalues --    0.25606   0.26090   0.26428   0.26847   0.27117
 Alpha virt. eigenvalues --    0.27504   0.27703   0.27866   0.28148   0.28365
 Alpha virt. eigenvalues --    0.28742   0.28869   0.29178   0.29230   0.29534
 Alpha virt. eigenvalues --    0.29730   0.30085   0.30254   0.30472   0.30583
 Alpha virt. eigenvalues --    0.31388   0.31891   0.32184   0.32741   0.33354
 Alpha virt. eigenvalues --    0.33615   0.33792   0.34055   0.34107   0.34339
 Alpha virt. eigenvalues --    0.34830   0.35172   0.35187   0.35397   0.35774
 Alpha virt. eigenvalues --    0.35794   0.35977   0.36514   0.36741   0.36865
 Alpha virt. eigenvalues --    0.37105   0.37158   0.37432   0.37831   0.37982
 Alpha virt. eigenvalues --    0.38098   0.38299   0.38624   0.39099   0.39530
 Alpha virt. eigenvalues --    0.39715   0.40047   0.40411   0.40918   0.41632
 Alpha virt. eigenvalues --    0.41751   0.42177   0.42474   0.42626   0.43108
 Alpha virt. eigenvalues --    0.43204   0.43562   0.44036   0.44326   0.44595
 Alpha virt. eigenvalues --    0.44943   0.45501   0.47403   0.47799   0.48079
 Alpha virt. eigenvalues --    0.48450   0.48571   0.48932   0.52900   0.53114
 Alpha virt. eigenvalues --    0.57099   0.58316   0.58770   0.59609   0.60304
 Alpha virt. eigenvalues --    0.61806   0.62193   0.62264   0.62648   0.62767
 Alpha virt. eigenvalues --    0.63107   0.63267   0.63476   0.63941   0.64091
 Alpha virt. eigenvalues --    0.64285   0.64574   0.64718   0.64981   0.65721
 Alpha virt. eigenvalues --    0.65998   0.66127   0.66945   0.67112   0.67395
 Alpha virt. eigenvalues --    0.67893   0.68771   0.69271   0.69593   0.70083
 Alpha virt. eigenvalues --    0.70739   0.70875   0.71365   0.71954   0.72540
 Alpha virt. eigenvalues --    0.73221   0.73607   0.73729   0.74130   0.74626
 Alpha virt. eigenvalues --    0.74886   0.75386   0.76004   0.77104   0.78236
 Alpha virt. eigenvalues --    0.78664   0.79308   0.79806   0.80193   0.80665
 Alpha virt. eigenvalues --    0.81112   0.81299   0.81444   0.81708   0.82010
 Alpha virt. eigenvalues --    0.82473   0.82862   0.82985   0.83601   0.83689
 Alpha virt. eigenvalues --    0.84130   0.84525   0.84877   0.85069   0.85704
 Alpha virt. eigenvalues --    0.86003   0.86609   0.86917   0.87246   0.87941
 Alpha virt. eigenvalues --    0.88752   0.89725   0.90410   0.91427   0.91660
 Alpha virt. eigenvalues --    0.92127   0.92200   0.92575   0.93141   0.93479
 Alpha virt. eigenvalues --    0.93705   0.94223   0.94524   0.95206   0.95579
 Alpha virt. eigenvalues --    0.96094   0.96419   0.96674   0.97040   0.97966
 Alpha virt. eigenvalues --    0.99502   0.99922   1.00425   1.00727   1.01220
 Alpha virt. eigenvalues --    1.01729   1.01927   1.03285   1.03812   1.04903
 Alpha virt. eigenvalues --    1.05629   1.06101   1.06747   1.07285   1.07571
 Alpha virt. eigenvalues --    1.08010   1.08439   1.08641   1.09612   1.10155
 Alpha virt. eigenvalues --    1.11819   1.12232   1.12698   1.13150   1.13190
 Alpha virt. eigenvalues --    1.13970   1.14379   1.14704   1.16179   1.16413
 Alpha virt. eigenvalues --    1.16998   1.18021   1.18338   1.18962   1.19712
 Alpha virt. eigenvalues --    1.21315   1.22079   1.22334   1.23586   1.24054
 Alpha virt. eigenvalues --    1.24487   1.24788   1.26123   1.27634   1.29897
 Alpha virt. eigenvalues --    1.30671   1.38685   1.38918   1.40336   1.41470
 Alpha virt. eigenvalues --    1.41660   1.45776   1.47002   1.48229   1.51315
 Alpha virt. eigenvalues --    1.54305   1.56767   1.57402   1.58388   1.59298
 Alpha virt. eigenvalues --    1.59803   1.59897   1.60221   1.61006   1.61589
 Alpha virt. eigenvalues --    1.61726   1.62357   1.63091   1.63223   1.63648
 Alpha virt. eigenvalues --    1.64170   1.64692   1.65672   1.65739   1.65919
 Alpha virt. eigenvalues --    1.66330   1.66971   1.67089   1.68130   1.68672
 Alpha virt. eigenvalues --    1.69694   1.70983   1.72776   1.73104   1.73882
 Alpha virt. eigenvalues --    1.73987   1.74679   1.74968   1.75260   1.75729
 Alpha virt. eigenvalues --    1.76479   1.76940   1.79189   1.81725   1.82152
 Alpha virt. eigenvalues --    1.82911   1.82930   1.84022   1.84321   1.84590
 Alpha virt. eigenvalues --    1.84869   1.85915   1.86387   1.86561   1.87353
 Alpha virt. eigenvalues --    1.88201   1.88730   1.89521   1.92512   1.92704
 Alpha virt. eigenvalues --    1.93059   1.93481   1.94703   1.96913   1.98398
 Alpha virt. eigenvalues --    1.99198   2.00027   2.00088   2.02212   2.02414
 Alpha virt. eigenvalues --    2.02678   2.03017   2.03428   2.04151   2.04379
 Alpha virt. eigenvalues --    2.04672   2.05140   2.05250   2.05448   2.05906
 Alpha virt. eigenvalues --    2.06347   2.06608   2.07201   2.08069   2.09415
 Alpha virt. eigenvalues --    2.10904   2.11163   2.11566   2.12255   2.12650
 Alpha virt. eigenvalues --    2.13266   2.13768   2.15246   2.15635   2.16869
 Alpha virt. eigenvalues --    2.17526   2.18401   2.18811   2.19811   2.21136
 Alpha virt. eigenvalues --    2.21658   2.23199   2.28328   2.29478   2.33117
 Alpha virt. eigenvalues --    2.35039   2.35808   2.37176   2.37903   2.39611
 Alpha virt. eigenvalues --    2.41453   2.44436   2.44672   2.48250   2.49034
 Alpha virt. eigenvalues --    2.50420   2.52180   2.53186   2.53541   2.54313
 Alpha virt. eigenvalues --    2.55048   2.55313   2.56330   2.56440   2.56866
 Alpha virt. eigenvalues --    2.57533   2.58566   2.58730   2.62021   2.62850
 Alpha virt. eigenvalues --    2.68120   2.72940   2.73119   2.73420   2.75002
 Alpha virt. eigenvalues --    2.75184   2.76004   2.76342   2.76622   2.79569
 Alpha virt. eigenvalues --    2.79621   2.80108   2.80406   2.80567   2.81009
 Alpha virt. eigenvalues --    2.81624   2.81762   2.82452   2.82956   2.83152
 Alpha virt. eigenvalues --    2.83863   2.84105   2.84420   2.85779   2.85931
 Alpha virt. eigenvalues --    2.87205   2.87404   2.88027   2.88819   2.89692
 Alpha virt. eigenvalues --    2.90687   2.91566   2.92425   2.92509   2.92873
 Alpha virt. eigenvalues --    2.93529   2.93933   2.94562   2.94992   2.95160
 Alpha virt. eigenvalues --    2.98424   2.99103   2.99563   3.00936   3.01131
 Alpha virt. eigenvalues --    3.02359   3.02951   3.04657   3.05044   3.05300
 Alpha virt. eigenvalues --    3.05683   3.06658   3.07595   3.07985   3.08797
 Alpha virt. eigenvalues --    3.11655   3.12375   3.16371   3.19034   3.19994
 Alpha virt. eigenvalues --    3.20805   3.22252   3.24134   3.26642   3.30637
 Alpha virt. eigenvalues --    3.32402   3.32759   3.33851   3.34825   3.36029
 Alpha virt. eigenvalues --    3.39660   3.46394   3.47561   3.49058   3.49485
 Alpha virt. eigenvalues --    3.49570   3.50427   3.53026   3.53845   3.60465
 Alpha virt. eigenvalues --    3.61001   3.61207   3.63749   3.64911   3.65565
 Alpha virt. eigenvalues --    3.66595   3.73756   3.74087   3.76329   3.76423
 Alpha virt. eigenvalues --    3.77278   3.77874   3.90967   3.92702   3.96244
 Alpha virt. eigenvalues --    4.09755   4.09962   4.10270   4.14513   4.14591
 Alpha virt. eigenvalues --    4.14701   4.24263   4.24541   4.25507   4.26157
 Alpha virt. eigenvalues --    4.26517   4.26961   4.27648   4.27819   4.47362
 Alpha virt. eigenvalues --    4.62958   4.66965   4.94077   4.95624   4.95765
 Alpha virt. eigenvalues --    4.98613  23.68342  23.81559  23.82310  23.88147
 Alpha virt. eigenvalues --   24.08365  24.08475  24.10851  24.10984  24.11264
 Alpha virt. eigenvalues --   24.11437  24.12896  24.13510  24.20221  24.20450
 Alpha virt. eigenvalues --   24.20989  24.24083  24.24338  24.24369  24.24568
 Alpha virt. eigenvalues --   24.26149  24.31570  24.33837  24.34111  24.35330
          Condensed to atoms (all electrons):
               1          2          3          4          5          6
     1  C   26.643845   0.798387   1.223869  -8.302290   0.327169  -0.208161
     2  C    0.798387  19.069289  -4.853154   4.383918   0.199719  -2.446786
     3  C    1.223869  -4.853154  19.172371  -4.953139   0.210594  -2.227826
     4  C   -8.302290   4.383918  -4.953139  23.675413  -0.361953  -0.335130
     5  H    0.327169   0.199719   0.210594  -0.361953   0.517450  -0.040099
     6  C   -0.208161  -2.446786  -2.227826  -0.335130  -0.040099  12.349001
     7  C   -7.523364  -4.636034   4.259763  -9.674918   0.115924  -0.045751
     8  H    0.291694   0.238790   0.191257   0.116290  -0.005204  -0.066695
     9  C   -5.679168  -1.121890  -1.235094   1.737326  -0.000909  -1.487494
    10  C    0.359099  -2.802933  -1.372083  -2.216171  -0.013929   1.111152
    11  C   -0.775082   0.264460  -0.203435   0.404290   0.025965  -0.252304
    12  C   -1.010975  -0.304970  -0.198640  -0.066820  -0.071395   0.262564
    13  C    0.097984  -1.329327  -2.716140   0.653222  -0.016158   1.018019
    14  H    0.091098   0.064764   0.063028  -0.051593  -0.002213  -0.010633
    15  C   -0.929347   0.698017  -0.541686  -0.312053  -0.249346   0.123599
    16  C    0.371028  -0.783305   0.158821  -0.023044   0.144309   0.036151
    17  C    0.031351   0.313929  -0.057022   0.128824   0.004728  -1.173920
    18  H    0.011397  -0.001472  -0.008538  -0.005818   0.005638   0.019329
    19  C   -0.390348   0.147616   0.664411   0.053873   0.005601  -1.348428
    20  H    0.049196  -0.070178   0.004478  -0.031231  -0.001078   0.068222
    21  C   -0.574328  -0.540376   1.214679   0.083126   0.002920   0.290667
    22  C   -0.230566   0.097523  -1.905378   0.390967  -0.003024  -0.096015
    23  C    0.358691   0.626289   0.133625   0.132390   0.003776  -0.110773
    24  H   -0.111997  -0.046690  -0.051062   0.057043  -0.010830   0.026837
    25  C   -0.290909  -0.294563   0.020904  -0.373946   0.007760  -0.021143
    26  H    0.019456   0.004996  -0.015812   0.143665  -0.002064   0.008815
    27  C   -0.145609  -0.060093  -0.205047   0.002300   0.002694  -0.272388
    28  H    0.000559  -0.000268   0.002986   0.000165  -0.001022   0.036679
    29  H    0.000257   0.006083   0.001901   0.003380   0.000001   0.027860
    30  C    0.579597   0.103878   0.906771  -0.195224  -0.001519  -0.033845
    31  H   -0.086318  -0.053202  -0.028685   0.014014  -0.000017   0.033840
    32  C   -0.199498   0.070416  -0.069881   0.281511   0.002609  -0.064214
    33  H    0.016356  -0.015119  -0.013260  -0.119092  -0.000109   0.009446
    34  C   -0.021272  -0.117210  -0.024576  -0.164954  -0.013305   0.032066
    35  H    0.008526   0.011736   0.001811  -0.000141   0.000981  -0.002317
    36  H   -0.002587  -0.004301  -0.000121  -0.011046   0.000575  -0.000593
    37  H   -0.004506  -0.004252  -0.006664   0.000908   0.000127   0.015015
    38  C   -0.099485  -0.036402  -0.245273   0.024159   0.000079   0.032118
    39  H    0.009563   0.001922   0.010555   0.001325  -0.000035  -0.001930
    40  H   -0.001571   0.000245  -0.000881   0.010486  -0.000011  -0.000607
    41  H    0.000716  -0.004348  -0.000739  -0.006505  -0.000423   0.000908
    42  H   -0.000429  -0.000877  -0.006170   0.001233  -0.000007   0.000763
               7          8          9         10         11         12
     1  C   -7.523364   0.291694  -5.679168   0.359099  -0.775082  -1.010975
     2  C   -4.636034   0.238790  -1.121890  -2.802933   0.264460  -0.304970
     3  C    4.259763   0.191257  -1.235094  -1.372083  -0.203435  -0.198640
     4  C   -9.674918   0.116290   1.737326  -2.216171   0.404290  -0.066820
     5  H    0.115924  -0.005204  -0.000909  -0.013929   0.025965  -0.071395
     6  C   -0.045751  -0.066695  -1.487494   1.111152  -0.252304   0.262564
     7  C   23.193771  -0.303293   1.207001   0.812090   0.035251   0.021455
     8  H   -0.303293   0.504639   0.016541  -0.020332   0.023847  -0.085653
     9  C    1.207001   0.016541  15.929217  -1.753033   0.108018  -0.355823
    10  C    0.812090  -0.020332  -1.753033  15.516407   0.015005   0.206962
    11  C    0.035251   0.023847   0.108018   0.015005  13.379992  -5.944265
    12  C    0.021455  -0.085653  -0.355823   0.206962  -5.944265  14.733505
    13  C   -1.677504  -0.054146  -1.937074   0.788733  -0.064405   0.251317
    14  H   -0.043358  -0.002422   0.259281   0.045262  -0.004334   0.003908
    15  C    0.139690  -0.002977  -0.366691  -0.475004   0.036431  -0.030078
    16  C   -0.013578   0.001557   0.590438  -2.486413  -0.024485   0.046480
    17  C   -0.095241   0.011924   0.027971  -0.123581  -1.375523   0.671454
    18  H    0.014919   0.000926   0.003904   0.024509   0.374881   0.006626
    19  C    0.329305   0.023012   0.078390   0.001226   1.014110  -2.309853
    20  H   -0.026102  -0.003889  -0.023146   0.011036  -0.015353   0.497934
    21  C   -0.759230  -0.210059  -0.639777  -0.091972   0.131812  -0.072657
    22  C   -0.210402   0.102626   1.587230   0.247240  -0.059813   0.057678
    23  C   -0.171477  -0.001006  -0.095643  -1.589989  -0.021630  -0.005311
    24  H    0.022789  -0.000302  -0.002152  -0.028175   0.006586   0.008212
    25  C    0.418534   0.003946   0.698083  -1.119836   0.018762  -0.015475
    26  H   -0.135776   0.000037  -0.079579  -0.039141  -0.001179   0.002299
    27  C   -0.042433  -0.005043  -0.034024   0.037919  -0.536097  -0.056790
    28  H   -0.000368  -0.000049  -0.000372  -0.002903  -0.094312   0.012477
    29  H    0.003581   0.000235   0.000936  -0.000587   0.010603  -0.092795
    30  C   -0.144661   0.050031  -0.265603  -0.002673   0.024016  -0.041451
    31  H    0.026437  -0.012818  -0.011700   0.010644  -0.002956   0.013276
    32  C    0.047268   0.007409   0.454138  -0.119410   0.000919  -0.004638
    33  H    0.128707  -0.002750  -0.055544   0.017055   0.001811  -0.000638
    34  C   -0.017720  -0.000246  -0.097000  -0.246270  -0.005259   0.005502
    35  H    0.000441  -0.000008   0.001644   0.031647   0.000160  -0.000381
    36  H    0.012538  -0.000011   0.018525   0.022027   0.000221  -0.000249
    37  H    0.000251  -0.000236  -0.000836   0.001238   0.005681   0.012899
    38  C   -0.229950  -0.014124   0.062826   0.035072   0.001291   0.001448
    39  H   -0.000021   0.001212   0.000721  -0.000752   0.000204  -0.000485
    40  H   -0.007967   0.000588   0.012685  -0.004094   0.000024  -0.000062
    41  H    0.000436  -0.000008  -0.005954   0.022795  -0.000164   0.000185
    42  H   -0.006955  -0.000535  -0.002675   0.001112  -0.000018   0.000113
              13         14         15         16         17         18
     1  C    0.097984   0.091098  -0.929347   0.371028   0.031351   0.011397
     2  C   -1.329327   0.064764   0.698017  -0.783305   0.313929  -0.001472
     3  C   -2.716140   0.063028  -0.541686   0.158821  -0.057022  -0.008538
     4  C    0.653222  -0.051593  -0.312053  -0.023044   0.128824  -0.005818
     5  H   -0.016158  -0.002213  -0.249346   0.144309   0.004728   0.005638
     6  C    1.018019  -0.010633   0.123599   0.036151  -1.173920   0.019329
     7  C   -1.677504  -0.043358   0.139690  -0.013578  -0.095241   0.014919
     8  H   -0.054146  -0.002422  -0.002977   0.001557   0.011924   0.000926
     9  C   -1.937074   0.259281  -0.366691   0.590438   0.027971   0.003904
    10  C    0.788733   0.045262  -0.475004  -2.486413  -0.123581   0.024509
    11  C   -0.064405  -0.004334   0.036431  -0.024485  -1.375523   0.374881
    12  C    0.251317   0.003908  -0.030078   0.046480   0.671454   0.006626
    13  C   15.581313   0.054882  -0.026331   0.189471  -0.070611   0.013652
    14  H    0.054882   0.501744   0.094129  -0.170035   0.003507  -0.000763
    15  C   -0.026331   0.094129  19.034002 -10.869667   0.042184  -0.020519
    16  C    0.189471  -0.170035 -10.869667  20.016387  -0.021264   0.011270
    17  C   -0.070611   0.003507   0.042184  -0.021264   7.982805  -0.141280
    18  H    0.013652  -0.000763  -0.020519   0.011270  -0.141280   0.473607
    19  C    0.036961  -0.003531  -0.010836   0.014017  -0.844996   0.026591
    20  H    0.018451   0.000686   0.002874  -0.002815   0.028115  -0.002470
    21  C   -0.706081   0.096076   0.050809  -0.031556   0.000135  -0.006951
    22  C   -1.957732  -0.179618  -0.046946   0.063609  -0.001551   0.004214
    23  C   -0.020927   0.002514  -1.361139   0.809068  -0.018240  -0.000522
    24  H    0.011800  -0.000922   0.600228  -0.113185  -0.000738  -0.001502
    25  C   -0.132944  -0.004717   1.132460  -1.571074   0.006121  -0.000770
    26  H    0.014777  -0.003276  -0.091460   0.531913  -0.000718   0.000135
    27  C    0.019722   0.000127  -0.018322   0.006888   0.604548  -0.005619
    28  H   -0.000808   0.000023   0.002272  -0.000622   0.422770  -0.011375
    29  H   -0.000352  -0.000059   0.000495  -0.000130  -0.000501   0.000364
    30  C   -1.616407   0.008599   0.001430   0.009074  -0.003075  -0.001481
    31  H    0.001457  -0.000996   0.003997  -0.003877  -0.004232  -0.000134
    32  C   -1.455579  -0.009068  -0.003120  -0.015236   0.002305  -0.000153
    33  H   -0.034508  -0.001561   0.002900   0.006307   0.000000   0.000108
    34  C    0.041109  -0.000150  -0.299695  -0.267180  -0.002815   0.000137
    35  H   -0.000960   0.000160  -0.121551   0.026313   0.000185   0.000066
    36  H   -0.004190  -0.000759   0.017350  -0.092679   0.000038  -0.000006
    37  H    0.000694  -0.000007  -0.000584   0.000204  -0.064227   0.000878
    38  C   -0.222725  -0.003010   0.004913  -0.015403  -0.001133   0.000071
    39  H    0.029165   0.000189  -0.000221   0.000474   0.000221  -0.000000
    40  H    0.019997  -0.000828  -0.000698   0.002418   0.000001  -0.000001
    41  H    0.001141   0.000108  -0.000021   0.004171  -0.000074   0.000012
    42  H    0.025223   0.000165   0.000178  -0.000531  -0.000021   0.000003
              19         20         21         22         23         24
     1  C   -0.390348   0.049196  -0.574328  -0.230566   0.358691  -0.111997
     2  C    0.147616  -0.070178  -0.540376   0.097523   0.626289  -0.046690
     3  C    0.664411   0.004478   1.214679  -1.905378   0.133625  -0.051062
     4  C    0.053873  -0.031231   0.083126   0.390967   0.132390   0.057043
     5  H    0.005601  -0.001078   0.002920  -0.003024   0.003776  -0.010830
     6  C   -1.348428   0.068222   0.290667  -0.096015  -0.110773   0.026837
     7  C    0.329305  -0.026102  -0.759230  -0.210402  -0.171477   0.022789
     8  H    0.023012  -0.003889  -0.210059   0.102626  -0.001006  -0.000302
     9  C    0.078390  -0.023146  -0.639777   1.587230  -0.095643  -0.002152
    10  C    0.001226   0.011036  -0.091972   0.247240  -1.589989  -0.028175
    11  C    1.014110  -0.015353   0.131812  -0.059813  -0.021630   0.006586
    12  C   -2.309853   0.497934  -0.072657   0.057678  -0.005311   0.008212
    13  C    0.036961   0.018451  -0.706081  -1.957732  -0.020927   0.011800
    14  H   -0.003531   0.000686   0.096076  -0.179618   0.002514  -0.000922
    15  C   -0.010836   0.002874   0.050809  -0.046946  -1.361139   0.600228
    16  C    0.014017  -0.002815  -0.031556   0.063609   0.809068  -0.113185
    17  C   -0.844996   0.028115   0.000135  -0.001551  -0.018240  -0.000738
    18  H    0.026591  -0.002470  -0.006951   0.004214  -0.000522  -0.001502
    19  C    8.440122  -0.203315  -0.072511   0.045393   0.010192  -0.001073
    20  H   -0.203315   0.476289   0.014760  -0.011276  -0.001361   0.000394
    21  C   -0.072511   0.014760  18.831861 -10.369370  -0.002428   0.002463
    22  C    0.045393  -0.011276 -10.369370  19.359834   0.014256  -0.002321
    23  C    0.010192  -0.001361  -0.002428   0.014256   7.887307  -0.087924
    24  H   -0.001073   0.000394   0.002463  -0.002321  -0.087924   0.491989
    25  C   -0.003366  -0.000382  -0.012343   0.009288  -0.806890   0.006081
    26  H    0.000786  -0.000029   0.001813   0.015058  -0.004988  -0.000294
    27  C    0.393936   0.004711   0.007675  -0.003894  -0.004340   0.000738
    28  H   -0.006907   0.000610   0.000343  -0.000065   0.000138   0.000114
    29  H    0.425770  -0.011788  -0.000869   0.000687   0.000081   0.000011
    30  C    0.003455  -0.003599  -1.469682   0.667642  -0.001015   0.000168
    31  H   -0.002077   0.001009   0.582126  -0.073251   0.000409   0.000252
    32  C   -0.002587  -0.000058   0.767444  -1.100322   0.005439  -0.000974
    33  H   -0.000254   0.000179  -0.079505   0.499416   0.000465   0.000165
    34  C    0.000320   0.000233   0.007281  -0.020791   0.385088   0.029340
    35  H    0.000015  -0.000015  -0.000245   0.000479   0.432079  -0.012781
    36  H   -0.000016  -0.000006  -0.000830   0.002603   0.011177  -0.000281
    37  H   -0.067391   0.000553   0.000057  -0.000024  -0.000118   0.000009
    38  C    0.000221   0.000483  -0.165651  -0.256826   0.000052   0.000185
    39  H    0.000012  -0.000047  -0.120535   0.022960  -0.000008  -0.000010
    40  H    0.000000  -0.000014   0.015881  -0.090228  -0.000007  -0.000011
    41  H    0.000013   0.000005   0.000181  -0.000537  -0.074204   0.001483
    42  H    0.000007   0.000023   0.004726  -0.000495   0.000004   0.000005
              25         26         27         28         29         30
     1  C   -0.290909   0.019456  -0.145609   0.000559   0.000257   0.579597
     2  C   -0.294563   0.004996  -0.060093  -0.000268   0.006083   0.103878
     3  C    0.020904  -0.015812  -0.205047   0.002986   0.001901   0.906771
     4  C   -0.373946   0.143665   0.002300   0.000165   0.003380  -0.195224
     5  H    0.007760  -0.002064   0.002694  -0.001022   0.000001  -0.001519
     6  C   -0.021143   0.008815  -0.272388   0.036679   0.027860  -0.033845
     7  C    0.418534  -0.135776  -0.042433  -0.000368   0.003581  -0.144661
     8  H    0.003946   0.000037  -0.005043  -0.000049   0.000235   0.050031
     9  C    0.698083  -0.079579  -0.034024  -0.000372   0.000936  -0.265603
    10  C   -1.119836  -0.039141   0.037919  -0.002903  -0.000587  -0.002673
    11  C    0.018762  -0.001179  -0.536097  -0.094312   0.010603   0.024016
    12  C   -0.015475   0.002299  -0.056790   0.012477  -0.092795  -0.041451
    13  C   -0.132944   0.014777   0.019722  -0.000808  -0.000352  -1.616407
    14  H   -0.004717  -0.003276   0.000127   0.000023  -0.000059   0.008599
    15  C    1.132460  -0.091460  -0.018322   0.002272   0.000495   0.001430
    16  C   -1.571074   0.531913   0.006888  -0.000622  -0.000130   0.009074
    17  C    0.006121  -0.000718   0.604548   0.422770  -0.000501  -0.003075
    18  H   -0.000770   0.000135  -0.005619  -0.011375   0.000364  -0.001481
    19  C   -0.003366   0.000786   0.393936  -0.006907   0.425770   0.003455
    20  H   -0.000382  -0.000029   0.004711   0.000610  -0.011788  -0.003599
    21  C   -0.012343   0.001813   0.007675   0.000343  -0.000869  -1.469682
    22  C    0.009288   0.015058  -0.003894  -0.000065   0.000687   0.667642
    23  C   -0.806890  -0.004988  -0.004340   0.000138   0.000081  -0.001015
    24  H    0.006081  -0.000294   0.000738   0.000114   0.000011   0.000168
    25  C    7.973706  -0.073450  -0.000146   0.000022   0.000006   0.006382
    26  H   -0.073450   0.499556   0.000087  -0.000001   0.000005   0.000719
    27  C   -0.000146   0.000087   6.303108  -0.049643  -0.057024  -0.000745
    28  H    0.000022  -0.000001  -0.049643   0.476626   0.000006   0.000062
    29  H    0.000006   0.000005  -0.057024   0.000006   0.474958   0.000113
    30  C    0.006382   0.000719  -0.000745   0.000062   0.000113   8.055639
    31  H   -0.001590   0.000142   0.001506  -0.000025  -0.000047  -0.123539
    32  C   -0.016230  -0.004928  -0.000411  -0.000007  -0.000023  -0.683795
    33  H    0.002093  -0.005358   0.000025  -0.000002   0.000011  -0.005069
    34  C    0.453828   0.025621   0.000054   0.000018   0.000003   0.000145
    35  H    0.004835  -0.000433  -0.000003  -0.000008  -0.000001   0.000002
    36  H    0.421051  -0.012217  -0.000003  -0.000000  -0.000000  -0.000024
    37  H   -0.000002   0.000003   0.446875  -0.009304  -0.008761  -0.000026
    38  C   -0.004249  -0.000511   0.000223   0.000006   0.000003   0.299615
    39  H    0.000070   0.000035  -0.000043   0.000000   0.000002   0.437838
    40  H    0.000365   0.000483   0.000001  -0.000000  -0.000001   0.008967
    41  H   -0.070772   0.002056   0.000007  -0.000000  -0.000000   0.000006
    42  H   -0.000126  -0.000024   0.000006   0.000000  -0.000000  -0.073382
              31         32         33         34         35         36
     1  C   -0.086318  -0.199498   0.016356  -0.021272   0.008526  -0.002587
     2  C   -0.053202   0.070416  -0.015119  -0.117210   0.011736  -0.004301
     3  C   -0.028685  -0.069881  -0.013260  -0.024576   0.001811  -0.000121
     4  C    0.014014   0.281511  -0.119092  -0.164954  -0.000141  -0.011046
     5  H   -0.000017   0.002609  -0.000109  -0.013305   0.000981   0.000575
     6  C    0.033840  -0.064214   0.009446   0.032066  -0.002317  -0.000593
     7  C    0.026437   0.047268   0.128707  -0.017720   0.000441   0.012538
     8  H   -0.012818   0.007409  -0.002750  -0.000246  -0.000008  -0.000011
     9  C   -0.011700   0.454138  -0.055544  -0.097000   0.001644   0.018525
    10  C    0.010644  -0.119410   0.017055  -0.246270   0.031647   0.022027
    11  C   -0.002956   0.000919   0.001811  -0.005259   0.000160   0.000221
    12  C    0.013276  -0.004638  -0.000638   0.005502  -0.000381  -0.000249
    13  C    0.001457  -1.455579  -0.034508   0.041109  -0.000960  -0.004190
    14  H   -0.000996  -0.009068  -0.001561  -0.000150   0.000160  -0.000759
    15  C    0.003997  -0.003120   0.002900  -0.299695  -0.121551   0.017350
    16  C   -0.003877  -0.015236   0.006307  -0.267180   0.026313  -0.092679
    17  C   -0.004232   0.002305   0.000000  -0.002815   0.000185   0.000038
    18  H   -0.000134  -0.000153   0.000108   0.000137   0.000066  -0.000006
    19  C   -0.002077  -0.002587  -0.000254   0.000320   0.000015  -0.000016
    20  H    0.001009  -0.000058   0.000179   0.000233  -0.000015  -0.000006
    21  C    0.582126   0.767444  -0.079505   0.007281  -0.000245  -0.000830
    22  C   -0.073251  -1.100322   0.499416  -0.020791   0.000479   0.002603
    23  C    0.000409   0.005439   0.000465   0.385088   0.432079   0.011177
    24  H    0.000252  -0.000974   0.000165   0.029340  -0.012781  -0.000281
    25  C   -0.001590  -0.016230   0.002093   0.453828   0.004835   0.421051
    26  H    0.000142  -0.004928  -0.005358   0.025621  -0.000433  -0.012217
    27  C    0.001506  -0.000411   0.000025   0.000054  -0.000003  -0.000003
    28  H   -0.000025  -0.000007  -0.000002   0.000018  -0.000008  -0.000000
    29  H   -0.000047  -0.000023   0.000011   0.000003  -0.000001  -0.000000
    30  C   -0.123539  -0.683795  -0.005069   0.000145   0.000002  -0.000024
    31  H    0.482418   0.000204  -0.000008   0.000215  -0.000012  -0.000011
    32  C    0.000204   7.742745  -0.049121  -0.005063   0.000047   0.000720
    33  H   -0.000008  -0.049121   0.498299  -0.001220   0.000046   0.000592
    34  C    0.000215  -0.005063  -0.001220   6.397822  -0.068867  -0.065149
    35  H   -0.000012   0.000047   0.000046  -0.068867   0.476355   0.001115
    36  H   -0.000011   0.000720   0.000592  -0.065149   0.001115   0.475493
    37  H    0.000045  -0.000009   0.000002   0.000004  -0.000001  -0.000000
    38  C    0.026162   0.422833   0.017440  -0.000198  -0.000002   0.000087
    39  H   -0.011209   0.006799  -0.000272  -0.000000   0.000000  -0.000001
    40  H   -0.000198   0.416951  -0.011086   0.000085  -0.000001  -0.000045
    41  H    0.000005  -0.000147  -0.000049   0.469055  -0.011473  -0.012069
    42  H    0.001244  -0.066818   0.001439  -0.000001  -0.000000   0.000001
              37         38         39         40         41         42
     1  C   -0.004506  -0.099485   0.009563  -0.001571   0.000716  -0.000429
     2  C   -0.004252  -0.036402   0.001922   0.000245  -0.004348  -0.000877
     3  C   -0.006664  -0.245273   0.010555  -0.000881  -0.000739  -0.006170
     4  C    0.000908   0.024159   0.001325   0.010486  -0.006505   0.001233
     5  H    0.000127   0.000079  -0.000035  -0.000011  -0.000423  -0.000007
     6  C    0.015015   0.032118  -0.001930  -0.000607   0.000908   0.000763
     7  C    0.000251  -0.229950  -0.000021  -0.007967   0.000436  -0.006955
     8  H   -0.000236  -0.014124   0.001212   0.000588  -0.000008  -0.000535
     9  C   -0.000836   0.062826   0.000721   0.012685  -0.005954  -0.002675
    10  C    0.001238   0.035072  -0.000752  -0.004094   0.022795   0.001112
    11  C    0.005681   0.001291   0.000204   0.000024  -0.000164  -0.000018
    12  C    0.012899   0.001448  -0.000485  -0.000062   0.000185   0.000113
    13  C    0.000694  -0.222725   0.029165   0.019997   0.001141   0.025223
    14  H   -0.000007  -0.003010   0.000189  -0.000828   0.000108   0.000165
    15  C   -0.000584   0.004913  -0.000221  -0.000698  -0.000021   0.000178
    16  C    0.000204  -0.015403   0.000474   0.002418   0.004171  -0.000531
    17  C   -0.064227  -0.001133   0.000221   0.000001  -0.000074  -0.000021
    18  H    0.000878   0.000071  -0.000000  -0.000001   0.000012   0.000003
    19  C   -0.067391   0.000221   0.000012   0.000000   0.000013   0.000007
    20  H    0.000553   0.000483  -0.000047  -0.000014   0.000005   0.000023
    21  C    0.000057  -0.165651  -0.120535   0.015881   0.000181   0.004726
    22  C   -0.000024  -0.256826   0.022960  -0.090228  -0.000537  -0.000495
    23  C   -0.000118   0.000052  -0.000008  -0.000007  -0.074204   0.000004
    24  H    0.000009   0.000185  -0.000010  -0.000011   0.001483   0.000005
    25  C   -0.000002  -0.004249   0.000070   0.000365  -0.070772  -0.000126
    26  H    0.000003  -0.000511   0.000035   0.000483   0.002056  -0.000024
    27  C    0.446875   0.000223  -0.000043   0.000001   0.000007   0.000006
    28  H   -0.009304   0.000006   0.000000  -0.000000  -0.000000   0.000000
    29  H   -0.008761   0.000003   0.000002  -0.000001  -0.000000  -0.000000
    30  C   -0.000026   0.299615   0.437838   0.008967   0.000006  -0.073382
    31  H    0.000045   0.026162  -0.011209  -0.000198   0.000005   0.001244
    32  C   -0.000009   0.422833   0.006799   0.416951  -0.000147  -0.066818
    33  H    0.000002   0.017440  -0.000272  -0.011086  -0.000049   0.001439
    34  C    0.000004  -0.000198  -0.000000   0.000085   0.469055  -0.000001
    35  H   -0.000001  -0.000002   0.000000  -0.000001  -0.011473  -0.000000
    36  H   -0.000000   0.000087  -0.000001  -0.000045  -0.012069   0.000001
    37  H    0.483471   0.000008  -0.000002  -0.000000   0.000000   0.000000
    38  C    0.000008   6.425892  -0.071153  -0.059194  -0.000000   0.461957
    39  H   -0.000002  -0.071153   0.475235   0.000935  -0.000000  -0.010698
    40  H   -0.000000  -0.059194   0.000935   0.474231   0.000001  -0.011049
    41  H    0.000000  -0.000000  -0.000000   0.000001   0.488518   0.000000
    42  H    0.000000   0.461957  -0.010698  -0.011049   0.000000   0.486221
 Mulliken charges:
               1
     1  C    1.297972
     2  C   -1.574229
     3  C   -1.301520
     4  C    0.905240
     5  H    0.216032
     6  C    0.744001
     7  C    0.975953
     8  H    0.205245
     9  C   -1.543695
    10  C    1.191050
    11  C   -0.503724
    12  C   -0.146891
    13  C    1.175815
    14  H    0.203606
    15  C   -0.209669
    16  C   -0.534287
    17  C   -0.282353
    18  H    0.216135
    19  C   -0.447867
    20  H    0.227911
    21  C   -0.179877
    22  C   -0.568258
    23  C   -0.433103
    24  H    0.206330
    25  C   -0.369375
    26  H    0.198782
    27  C   -0.335431
    28  H    0.222182
    29  H    0.215587
    30  C   -0.497336
    31  H    0.217497
    32  C   -0.358469
    33  H    0.191663
    34  C   -0.408986
    35  H    0.220555
    36  H    0.223077
    37  H    0.198027
    38  C   -0.391857
    39  H    0.217984
    40  H    0.224209
    41  H    0.195685
    42  H    0.196389
 Sum of Mulliken charges =  -0.00000
 Mulliken charges with hydrogens summed into heavy atoms:
               1
     1  C    1.297972
     2  C   -1.358197
     3  C   -1.096276
     4  C    0.905240
     6  C    0.744001
     7  C    0.975953
     9  C   -1.340089
    10  C    1.191050
    11  C   -0.287589
    12  C    0.081020
    13  C    1.175815
    15  C   -0.003340
    16  C   -0.335505
    17  C   -0.060171
    19  C   -0.232280
    21  C    0.037620
    22  C   -0.376595
    23  C   -0.212548
    25  C   -0.146297
    27  C   -0.137404
    30  C   -0.279352
    32  C   -0.134260
    34  C   -0.213301
    38  C   -0.195468
 Electronic spatial extent (au):  <R**2>=          10005.9343
 Charge=             -0.0000 electrons
 Dipole moment (field-independent basis, Debye):
    X=             -0.0218    Y=             -0.0027    Z=             -0.0018  Tot=              0.0221
 Quadrupole moment (field-independent basis, Debye-Ang):
   XX=           -126.5881   YY=           -130.1681   ZZ=           -137.6541
   XY=             -0.0244   XZ=              6.4102   YZ=             -1.9651
 Traceless Quadrupole moment (field-independent basis, Debye-Ang):
   XX=              4.8820   YY=              1.3020   ZZ=             -6.1840
   XY=             -0.0244   XZ=              6.4102   YZ=             -1.9651
 Octapole moment (field-independent basis, Debye-Ang**2):
  XXX=            -33.6724  YYY=              5.3043  ZZZ=              1.9578  XYY=             52.3947
  XXY=             -3.0827  XXZ=             31.1391  XZZ=            -18.3180  YZZ=             -2.1736
  YYZ=            -33.2527  XYZ=             12.3766
 Hexadecapole moment (field-independent basis, Debye-Ang**3):
 XXXX=          -6267.7045 YYYY=          -6154.5377 ZZZZ=           -621.7307 XXXY=              0.4092
 XXXZ=            118.2949 YYYX=             -6.6782 YYYZ=             11.2224 ZZZX=             10.5746
 ZZZY=            -14.5622 XXYY=          -2145.7822 XXZZ=          -1173.2224 YYZZ=          -1235.1640
 XXYZ=            -45.7251 YYXZ=             35.1217 ZZXY=              5.8332
 N-N= 1.730760351751D+03 E-N=-5.608020193242D+03  KE= 9.212945858854D+02
 No NMR shielding tensors so no spin-rotation constants.
 Leave Link  601 at Mon Nov 14 15:24:28 2022, MaxMem= 16106127360 cpu:               9.0 elap:               0.3
 (Enter /opt/ap/G16/B01/g16/l9999.exe)
 1\1\GINC-N60\SP\RwB97XD\6-311++G(d,p)\C24H18\ROOT\14-Nov-2022\0\\#P wB
 97XD/6-311++G(d,p) scf=maxcycle=512\\_conf033.gjf nmol_natom 1_42\\0,1
 \C\C,1,1.39412829\C,1,1.39435449,2,118.86443127\C,2,1.39416084,1,121.1
 529487,3,0.03668482,0\H,2,1.08488355,1,119.42236619,3,-179.97409048,0\
 C,1,1.48467131,2,120.55714816,4,179.25839056,0\C,3,1.39437784,1,121.11
 776116,2,-0.05351271,0\H,3,1.08487775,1,119.41869036,2,177.23008049,0\
 C,4,1.39432447,2,118.86473838,1,0.01008406,0\C,4,1.48466627,2,120.5464
 188,1,179.19454736,0\C,6,1.3968498,1,120.7843492,2,75.,0\C,6,1.3968682
 ,1,120.67653841,2,-105.,0\C,7,1.48449863,3,120.56496838,1,-179.9632580
 4,0\H,9,1.0848792,4,119.41824946,2,177.22245984,0\C,10,1.39685361,4,12
 0.76946845,2,-42.52368674,0\C,10,1.39686289,4,120.69448769,2,137.43107
 516,0\C,11,1.38888939,6,120.7380073,1,179.94058542,0\H,11,1.0847641,6,
 119.46912378,1,-1.41050605,0\C,12,1.38882428,6,120.76493111,1,-179.950
 82712,0\H,12,1.08482758,6,119.44182626,1,-1.23602505,0\C,13,1.39682899
 ,7,120.74134419,3,42.89023273,0\C,13,1.39683158,7,120.7379111,3,-137.1
 2494058,0\C,15,1.38888263,10,120.742191,4,179.9460119,0\H,15,1.0847633
 4,10,119.47085903,4,-1.40606944,0\C,16,1.38886088,10,120.76338989,4,-1
 79.95592713,0\H,16,1.08483431,10,119.44215232,4,-1.23439681,0\C,17,1.3
 9007919,11,120.20743432,6,0.00349958,0\H,17,1.0843506,11,119.71318733,
 6,179.5011609,0\H,19,1.08435858,12,119.73823132,6,179.53683762,0\C,21,
 1.38882373,13,120.76699356,7,179.99297883,0\H,21,1.0847938,13,119.4352
 623,7,1.32183327,0\C,22,1.38881869,13,120.76647403,7,-179.97118338,0\H
 ,22,1.08479982,13,119.43203605,7,1.34657928,0\C,23,1.39007007,15,120.2
 0732995,10,0.00573957,0\H,23,1.08434813,15,119.71220819,10,179.5072436
 8,0\H,25,1.08436328,16,119.73539424,10,179.53636455,0\H,27,1.08412515,
 17,120.21790854,11,179.98397203,0\C,30,1.39008059,21,120.18795226,13,-
 0.02169059,0\H,30,1.08435324,21,119.73787119,13,-179.52151214,0\H,32,1
 .0843543,22,119.737043,13,-179.52886928,0\H,34,1.08412314,23,120.22152
 803,15,179.98800213,0\H,38,1.08411439,30,120.21547163,21,-179.98600656
 ,0\\Version=ES64L-G16RevB.01\State=1-A\HF=-925.3095671\RMSD=3.863e-09\
 Dipole=-0.0069623,0.0009596,-0.0050875\Quadrupole=2.6861142,-4.2645469
 ,1.5784327,-5.1174763,1.0794697,-1.0829858\PG=C01 [X(C24H18)]\\@


 ARTHROPOD AXIOM: A COMPUTER SYSTEM IS LIKE A SPIDER'S WEB.
 YOU CANNOT PULL ON ONE END WITHOUT MAKING THE OTHER END MOVE.
     -- GREG WETTSTEIN
 Job cpu time:       0 days  1 hours 22 minutes  5.4 seconds.
 Elapsed time:       0 days  0 hours  2 minutes 34.2 seconds.
 File lengths (MBytes):  RWF=    224 Int=      0 D2E=      0 Chk=     26 Scr=      1
 Normal termination of Gaussian 16 at Mon Nov 14 15:24:28 2022.
