 Entering Gaussian System, Link 0=g16
 Input=_conf012.gjf
 Output=_conf012.log
 Initial command:
 /opt/ap/G16/B01/g16/l1.exe "/tmp2/scr/Gau-20917.inp" -scrdir="/tmp2/scr/"
 Entering Link 1 = /opt/ap/G16/B01/g16/l1.exe PID=     20918.
  
 Copyright (c) 1988-2017, Gaussian, Inc.  All Rights Reserved.
  
 This is part of the Gaussian(R) 16 program.  It is based on
 the Gaussian(R) 09 system (copyright 2009, Gaussian, Inc.),
 the Gaussian(R) 03 system (copyright 2003, Gaussian, Inc.),
 the Gaussian(R) 98 system (copyright 1998, Gaussian, Inc.),
 the Gaussian(R) 94 system (copyright 1995, Gaussian, Inc.),
 the Gaussian 92(TM) system (copyright 1992, Gaussian, Inc.),
 the Gaussian 90(TM) system (copyright 1990, Gaussian, Inc.),
 the Gaussian 88(TM) system (copyright 1988, Gaussian, Inc.),
 the Gaussian 86(TM) system (copyright 1986, Carnegie Mellon
 University), and the Gaussian 82(TM) system (copyright 1983,
 Carnegie Mellon University). Gaussian is a federally registered
 trademark of Gaussian, Inc.
  
 This software contains proprietary and confidential information,
 including trade secrets, belonging to Gaussian, Inc.
  
 This software is provided under written license and may be
 used, copied, transmitted, or stored only in accord with that
 written license.
  
 The following legend is applicable only to US Government
 contracts under FAR:
  
                    RESTRICTED RIGHTS LEGEND
  
 Use, reproduction and disclosure by the US Government is
 subject to restrictions as set forth in subparagraphs (a)
 and (c) of the Commercial Computer Software - Restricted
 Rights clause in FAR 52.227-19.
  
 Gaussian, Inc.
 340 Quinnipiac St., Bldg. 40, Wallingford CT 06492
  
  
 ---------------------------------------------------------------
 Warning -- This program may not be used in any manner that
 competes with the business of Gaussian, Inc. or will provide
 assistance to any competitor of Gaussian, Inc.  The licensee
 of this program is prohibited from giving any competitor of
 Gaussian, Inc. access to this program.  By using this program,
 the user acknowledges that Gaussian, Inc. is engaged in the
 business of creating and licensing software in the field of
 computational chemistry and represents and warrants to the
 licensee that it is not a competitor of Gaussian, Inc. and that
 it will not use this program in any manner prohibited above.
 ---------------------------------------------------------------
  

 Cite this work as:
 Gaussian 16, Revision B.01,
 M. J. Frisch, G. W. Trucks, H. B. Schlegel, G. E. Scuseria, 
 M. A. Robb, J. R. Cheeseman, G. Scalmani, V. Barone, 
 G. A. Petersson, H. Nakatsuji, X. Li, M. Caricato, A. V. Marenich, 
 J. Bloino, B. G. Janesko, R. Gomperts, B. Mennucci, H. P. Hratchian, 
 J. V. Ortiz, A. F. Izmaylov, J. L. Sonnenberg, D. Williams-Young, 
 F. Ding, F. Lipparini, F. Egidi, J. Goings, B. Peng, A. Petrone, 
 T. Henderson, D. Ranasinghe, V. G. Zakrzewski, J. Gao, N. Rega, 
 G. Zheng, W. Liang, M. Hada, M. Ehara, K. Toyota, R. Fukuda, 
 J. Hasegawa, M. Ishida, T. Nakajima, Y. Honda, O. Kitao, H. Nakai, 
 T. Vreven, K. Throssell, J. A. Montgomery, Jr., J. E. Peralta, 
 F. Ogliaro, M. J. Bearpark, J. J. Heyd, E. N. Brothers, K. N. Kudin, 
 V. N. Staroverov, T. A. Keith, R. Kobayashi, J. Normand, 
 K. Raghavachari, A. P. Rendell, J. C. Burant, S. S. Iyengar, 
 J. Tomasi, M. Cossi, J. M. Millam, M. Klene, C. Adamo, R. Cammi, 
 J. W. Ochterski, R. L. Martin, K. Morokuma, O. Farkas, 
 J. B. Foresman, and D. J. Fox, Gaussian, Inc., Wallingford CT, 2016.
 
 ******************************************
 Gaussian 16:  ES64L-G16RevB.01 20-Dec-2017
                14-Nov-2022 
 ******************************************
 %nprocshared=32
 Will use up to   32 processors via shared memory.
 %mem=120GB
 %chk=_conf012.chk
 ----------------------------------------
 #P wB97XD/6-311++G(d,p) scf=maxcycle=512
 ----------------------------------------
 1/38=1,172=1/1;
 2/12=2,17=6,18=5,40=1/2;
 3/5=4,6=6,7=1111,11=2,25=1,30=1,74=-58/1,2,3;
 4//1;
 5/5=2,7=512,38=5/2;
 6/7=2,8=2,9=2,10=2,28=1/1;
 99/5=1,9=1/99;
 Leave Link    1 at Mon Nov 14 15:09:38 2022, MaxMem= 16106127360 cpu:               1.9 elap:               0.1
 (Enter /opt/ap/G16/B01/g16/l101.exe)
 ----------------------------
 _conf012.gjf nmol_natom 1_42
 ----------------------------
 Symbolic Z-matrix:
 Charge =  0 Multiplicity = 1
 C
 C                    1     1.39413 
 C                    1     1.39435  2     118.86443 
 C                    2     1.39416  1     121.15295  3     0.03668  0
 H                    2     1.08488  1     119.42237  3    -179.97409  0
 C                    1     1.48467  2     120.55715  4     179.25839  0
 C                    3     1.39438  1     121.11776  2    -0.05351  0
 H                    3     1.08488  1     119.41869  2     177.23008  0
 C                    4     1.39432  2     118.86474  1     0.01008  0
 C                    4     1.48467  2     120.54642  1     179.19455  0
 C                    6     1.39685  1     120.78435  2    -30.      0
 C                    6     1.39687  1     120.67654  2     150.     0
 C                    7     1.4845   3     120.56497  1    -179.96326  0
 H                    9     1.08488  4     119.41825  2     177.22246  0
 C                    10    1.39685  4     120.76947  2    -42.52369  0
 C                    10    1.39686  4     120.69449  2     137.43108  0
 C                    11    1.38889  6     120.73801  1     179.94059  0
 H                    11    1.08476  6     119.46912  1    -1.41051  0
 C                    12    1.38882  6     120.76493  1    -179.95083  0
 H                    12    1.08483  6     119.44183  1    -1.23603  0
 C                    13    1.39683  7     120.74134  3     42.89023  0
 C                    13    1.39683  7     120.73791  3    -137.12494  0
 C                    15    1.38888  10    120.74219  4     179.94601  0
 H                    15    1.08476  10    119.47086  4    -1.40607  0
 C                    16    1.38886  10    120.76339  4    -179.95593  0
 H                    16    1.08483  10    119.44215  4    -1.2344   0
 C                    17    1.39008  11    120.20743  6     0.0035   0
 H                    17    1.08435  11    119.71319  6     179.50116  0
 H                    19    1.08436  12    119.73823  6     179.53684  0
 C                    21    1.38882  13    120.76699  7     179.99298  0
 H                    21    1.08479  13    119.43526  7     1.32183  0
 C                    22    1.38882  13    120.76647  7    -179.97118  0
 H                    22    1.0848   13    119.43204  7     1.34658  0
 C                    23    1.39007  15    120.20733  10    0.00574  0
 H                    23    1.08435  15    119.71221  10    179.50724  0
 H                    25    1.08436  16    119.73539  10    179.53636  0
 H                    27    1.08413  17    120.21791  11    179.98397  0
 C                    30    1.39008  21    120.18795  13   -0.02169  0
 H                    30    1.08435  21    119.73787  13   -179.52151  0
 H                    32    1.08435  22    119.73704  13   -179.52887  0
 H                    34    1.08412  23    120.22153  15    179.988  0
 H                    38    1.08411  30    120.21547  21   -179.98601  0
 
 ITRead=  0  0  0  0  0  0  0  0  0  0  0  0  0  0  0  0  0  0  0  0
 ITRead=  0  0  0  0  0  0  0  0  0  0  0  0  0  0  0  0  0  0  0  0
 ITRead=  0  0
 MicOpt= -1 -1 -1 -1 -1 -1 -1 -1 -1 -1 -1 -1 -1 -1 -1 -1 -1 -1 -1 -1
 MicOpt= -1 -1 -1 -1 -1 -1 -1 -1 -1 -1 -1 -1 -1 -1 -1 -1 -1 -1 -1 -1
 MicOpt= -1 -1
 NAtoms=     42 NQM=       42 NQMF=       0 NMMI=      0 NMMIF=      0
                NMic=       0 NMicF=      0.
                    Isotopes and Nuclear Properties:
 (Nuclear quadrupole moments (NQMom) in fm**2, nuclear magnetic moments (NMagM)
  in nuclear magnetons)

  Atom         1           2           3           4           5           6           7           8           9          10
 IAtWgt=          12          12          12          12           1          12          12           1          12          12
 AtmWgt=  12.0000000  12.0000000  12.0000000  12.0000000   1.0078250  12.0000000  12.0000000   1.0078250  12.0000000  12.0000000
 NucSpn=           0           0           0           0           1           0           0           1           0           0
 AtZEff=  -0.0000000  -0.0000000  -0.0000000  -0.0000000  -0.0000000  -0.0000000  -0.0000000  -0.0000000  -0.0000000  -0.0000000
 NQMom=    0.0000000   0.0000000   0.0000000   0.0000000   0.0000000   0.0000000   0.0000000   0.0000000   0.0000000   0.0000000
 NMagM=    0.0000000   0.0000000   0.0000000   0.0000000   2.7928460   0.0000000   0.0000000   2.7928460   0.0000000   0.0000000
 AtZNuc=   6.0000000   6.0000000   6.0000000   6.0000000   1.0000000   6.0000000   6.0000000   1.0000000   6.0000000   6.0000000

  Atom        11          12          13          14          15          16          17          18          19          20
 IAtWgt=          12          12          12           1          12          12          12           1          12           1
 AtmWgt=  12.0000000  12.0000000  12.0000000   1.0078250  12.0000000  12.0000000  12.0000000   1.0078250  12.0000000   1.0078250
 NucSpn=           0           0           0           1           0           0           0           1           0           1
 AtZEff=  -0.0000000  -0.0000000  -0.0000000  -0.0000000  -0.0000000  -0.0000000  -0.0000000  -0.0000000  -0.0000000  -0.0000000
 NQMom=    0.0000000   0.0000000   0.0000000   0.0000000   0.0000000   0.0000000   0.0000000   0.0000000   0.0000000   0.0000000
 NMagM=    0.0000000   0.0000000   0.0000000   2.7928460   0.0000000   0.0000000   0.0000000   2.7928460   0.0000000   2.7928460
 AtZNuc=   6.0000000   6.0000000   6.0000000   1.0000000   6.0000000   6.0000000   6.0000000   1.0000000   6.0000000   1.0000000

  Atom        21          22          23          24          25          26          27          28          29          30
 IAtWgt=          12          12          12           1          12           1          12           1           1          12
 AtmWgt=  12.0000000  12.0000000  12.0000000   1.0078250  12.0000000   1.0078250  12.0000000   1.0078250   1.0078250  12.0000000
 NucSpn=           0           0           0           1           0           1           0           1           1           0
 AtZEff=  -0.0000000  -0.0000000  -0.0000000  -0.0000000  -0.0000000  -0.0000000  -0.0000000  -0.0000000  -0.0000000  -0.0000000
 NQMom=    0.0000000   0.0000000   0.0000000   0.0000000   0.0000000   0.0000000   0.0000000   0.0000000   0.0000000   0.0000000
 NMagM=    0.0000000   0.0000000   0.0000000   2.7928460   0.0000000   2.7928460   0.0000000   2.7928460   2.7928460   0.0000000
 AtZNuc=   6.0000000   6.0000000   6.0000000   1.0000000   6.0000000   1.0000000   6.0000000   1.0000000   1.0000000   6.0000000

  Atom        31          32          33          34          35          36          37          38          39          40
 IAtWgt=           1          12           1          12           1           1           1          12           1           1
 AtmWgt=   1.0078250  12.0000000   1.0078250  12.0000000   1.0078250   1.0078250   1.0078250  12.0000000   1.0078250   1.0078250
 NucSpn=           1           0           1           0           1           1           1           0           1           1
 AtZEff=  -0.0000000  -0.0000000  -0.0000000  -0.0000000  -0.0000000  -0.0000000  -0.0000000  -0.0000000  -0.0000000  -0.0000000
 NQMom=    0.0000000   0.0000000   0.0000000   0.0000000   0.0000000   0.0000000   0.0000000   0.0000000   0.0000000   0.0000000
 NMagM=    2.7928460   0.0000000   2.7928460   0.0000000   2.7928460   2.7928460   2.7928460   0.0000000   2.7928460   2.7928460
 AtZNuc=   1.0000000   6.0000000   1.0000000   6.0000000   1.0000000   1.0000000   1.0000000   6.0000000   1.0000000   1.0000000

  Atom        41          42
 IAtWgt=           1           1
 AtmWgt=   1.0078250   1.0078250
 NucSpn=           1           1
 AtZEff=  -0.0000000  -0.0000000
 NQMom=    0.0000000   0.0000000
 NMagM=    2.7928460   2.7928460
 AtZNuc=   1.0000000   1.0000000
 Leave Link  101 at Mon Nov 14 15:09:38 2022, MaxMem= 16106127360 cpu:               5.5 elap:               0.2
 (Enter /opt/ap/G16/B01/g16/l202.exe)
                          Input orientation:                          
 ---------------------------------------------------------------------
 Center     Atomic      Atomic             Coordinates (Angstroms)
 Number     Number       Type             X           Y           Z
 ---------------------------------------------------------------------
      1          6           0        0.000000    0.000000    0.000000
      2          6           0        0.000000    0.000000    1.394128
      3          6           0        1.221126    0.000000   -0.673109
      4          6           0        1.193108    0.000764    2.115362
      5          1           0       -0.944957   -0.000427    1.927071
      6          6           0       -1.278366   -0.017366   -0.754803
      7          6           0        2.428476    0.001115    0.024455
      8          1           0        1.232154   -0.045667   -1.756969
      9          6           0        2.400843    0.001752    1.418572
     10          6           0        1.177445    0.018728    3.599837
     11          6           0       -2.414100   -0.632867   -0.223337
     12          6           0       -1.371258    0.582123   -2.013066
     13          6           0        3.721572    0.001921   -0.704680
     14          1           0        3.334061    0.048144    1.969857
     15          6           0        0.290794    0.844275    4.295193
     16          6           0        2.049080   -0.790881    4.331965
     17          6           0       -3.609835   -0.647477   -0.929749
     18          1           0       -2.352871   -1.123051    0.742418
     19          6           0       -2.566437    0.567846   -2.720296
     20          1           0       -0.503811    1.081848   -2.430990
     21          6           0        3.910862    0.818865   -1.821777
     22          6           0        4.776237   -0.814044   -0.288725
     23          6           0        0.275860    0.859807    5.683909
     24          1           0       -0.377402    1.495584    3.742000
     25          6           0        2.035025   -0.775886    5.720674
     26          1           0        2.729408   -1.453102    3.807101
     27          6           0       -3.690561   -0.046548   -2.180624
     28          1           0       -4.479104   -1.137099   -0.504946
     29          1           0       -2.621877    1.044889   -3.692505
     30          6           0        5.120444    0.820149   -2.504230
     31          1           0        3.109266    1.474569   -2.144691
     32          6           0        5.986440   -0.813321   -0.970068
     33          1           0        4.638168   -1.470412    0.563864
     34          6           0        1.147946    0.049642    6.401818
     35          1           0       -0.413890    1.513063    6.206701
     36          1           0        2.713797   -1.416787    6.272362
     37          1           0       -4.623760   -0.058077   -2.732288
     38          6           0        6.162883    0.003944   -2.080611
     39          1           0        5.251831    1.466740   -3.364741
     40          1           0        6.791448   -1.459089   -0.637249
     41          1           0        1.136620    0.061726    7.485815
     42          1           0        7.107346    0.004761   -2.612865
 ---------------------------------------------------------------------
                    Distance matrix (angstroms):
                    1          2          3          4          5
     1  C    0.000000
     2  C    1.394128   0.000000
     3  C    1.394354   2.400962   0.000000
     4  C    2.428634   1.394161   2.788612   0.000000
     5  H    2.146287   1.084884   3.384206   2.146341   0.000000
     6  C    1.484671   2.500485   2.500887   3.787659   2.702572
     7  C    2.428599   2.788100   1.394378   2.428585   3.872983
     8  H    2.146445   3.383741   1.084878   3.872806   4.279487
     9  C    2.788619   2.400968   2.401430   1.394324   3.384222
    10  C    3.787552   2.500376   4.273210   1.484666   2.702426
    11  C    2.505649   2.973986   3.717214   4.345451   2.680039
    12  C    2.504326   3.718627   2.975703   4.894677   4.005717
    13  C    3.787700   4.272598   2.500646   3.787581   5.357482
    14  H    3.872805   3.383747   3.384092   2.146415   4.279508
    15  C    4.387032   3.035381   5.124680   2.505463   2.801537
    16  C    4.856969   3.668120   5.134371   2.504540   3.920790
    17  C    3.783460   4.341721   4.880909   5.723738   3.960008
    18  H    2.710799   2.687372   4.004799   3.965085   2.155436
    19  C    3.782732   4.882370   4.342702   6.151370   4.954811
    20  H    2.708124   4.006963   2.689972   4.971679   4.512054
    21  C    4.391384   5.129076   3.037212   4.853507   6.189029
    22  C    4.853707   5.129045   3.667320   4.391169   6.189006
    23  C    5.755188   4.383786   6.484171   3.783362   4.042800
    24  H    4.047440   2.809218   4.928007   2.710524   2.419532
    25  C    6.121229   4.843792   6.491910   3.782894   4.886007
    26  H    4.904609   3.922195   4.945574   2.708491   4.375585
    27  C    4.286902   5.138215   5.138038   6.504456   4.941014
    28  H    4.648692   4.996184   5.814972   6.350963   4.438121
    29  H    4.647647   5.817205   4.997721   7.026779   5.956876
    30  C    5.758711   6.487587   4.385239   6.118495   7.556379
    31  H    4.054822   4.936104   2.811579   4.898143   5.932249
    32  C    6.118822   6.487555   4.843334   5.758354   7.556353
    33  H    4.898230   4.935996   3.920254   4.054620   5.932156
    34  C    6.504116   5.137821   7.075480   4.286973   4.940255
    35  H    6.401859   5.061770   7.231488   4.648499   4.570330
    36  H    6.979577   5.759266   7.243957   4.647859   5.854410
    37  H    5.371027   6.197567   6.197280   7.572260   5.936879
    38  C    6.504621   7.074953   5.138292   6.504219   8.159837
    39  H    6.407382   7.237395   5.063871   6.975231   8.279857
    40  H    6.975586   7.237348   5.758361   6.406985   8.279819
    41  H    7.571865   6.197125   8.159595   5.371096   5.936031
    42  H    7.572414   8.159067   6.197601   7.571945   9.243951
                    6          7          8          9         10
     6  C    0.000000
     7  C    3.787910   0.000000
     8  H    2.703303   2.146356   0.000000
     9  C    4.273231   1.394392   3.384102   0.000000
    10  C    4.999520   3.787973   5.357472   2.500981   0.000000
    11  C    1.396850   4.890181   3.998999   5.126625   5.285871
    12  C    1.396868   4.350521   2.690252   5.132418   6.190151
    13  C    5.000226   1.484499   2.703105   2.500505   5.000173
    14  H    5.357476   2.146366   4.279725   1.084879   2.703459
    15  C    5.357906   4.849723   6.189251   3.665665   1.396854
    16  C    6.127433   4.396117   6.188524   3.039714   1.396863
    17  C    2.421445   6.147550   4.948871   6.485704   6.624125
    18  H    2.149133   4.963919   4.501121   4.931547   4.683122
    19  C    2.421728   5.727477   3.966572   6.490344   7.366293
    20  H    2.148909   3.974355   2.176963   4.941938   6.350411
    21  C    5.363376   2.504946   2.815510   3.667109   6.124188
    22  C    6.124553   2.504906   3.912375   3.036921   5.363369
    23  C    6.681472   6.115597   7.556523   4.841994   2.421492
    24  H    4.829285   4.891475   5.933362   3.917716   2.149154
    25  C    7.313393   5.762417   7.555989   4.387097   2.421736
    26  H    6.239756   4.063707   5.931401   2.815959   2.148914
    27  C    2.802231   6.504402   4.940911   7.075433   7.557478
    28  H    3.400141   7.020716   5.947878   7.233988   7.083906
    29  H    3.400515   6.356990   4.448501   7.241475   8.286501
    30  C    6.686306   3.783088   4.053003   4.842972   7.310892
    31  H    4.838282   2.709194   2.446425   3.920191   6.233057
    32  C    7.311449   3.783053   4.879728   4.384797   6.686012
    33  H    6.233426   2.709077   4.360860   2.811302   4.838519
    34  C    7.557031   6.504835   8.159779   5.138559   2.802307
    35  H    7.179977   6.970308   8.280044   5.756123   3.400165
    36  H    8.202243   6.413127   8.279214   5.066504   3.400510
    37  H    3.886356   7.572131   5.936592   8.159551   8.588113
    38  C    7.558466   4.286853   4.941589   5.137824   7.557929
    39  H    7.187337   4.648230   4.585860   5.757987   8.197725
    40  H    8.198432   4.648180   5.844424   5.063385   7.187062
    41  H    8.587561   7.572613   9.243902   6.197846   3.886431
    42  H    8.589123   5.370968   5.937422   6.197069   8.588456
                   11         12         13         14         15
    11  C    0.000000
    12  C    2.401427   0.000000
    13  C    6.187173   5.290125   0.000000
    14  H    6.189930   6.187797   2.702860   0.000000
    15  C    5.469508   6.528803   6.121971   3.911840   0.000000
    16  C    6.379320   7.337797   5.365963   2.816859   2.401387
    17  C    1.388889   2.774296   7.363552   7.557069   6.688815
    18  H    1.084764   3.385835   6.344959   5.934602   4.845776
    19  C    2.774838   1.388824   6.627370   7.555363   7.580058
    20  H    3.385733   1.084828   4.690442   5.930030   6.777122
    21  C    6.683388   5.290882   1.396829   3.911930   7.107943
    22  C    7.192917   6.535620   1.396832   2.815037   6.624314
    23  C    6.660293   7.876136   7.309101   4.879095   1.388883
    24  H    4.939872   5.911255   6.229413   4.360107   1.084763
    25  C    7.426065   8.559070   6.688393   4.054029   2.774755
    26  H    6.585810   7.404859   4.843310   2.448430   3.385708
    27  C    2.409169   2.408832   7.557808   8.159704   7.653820
    28  H    2.144247   3.858608   8.281808   8.281002   7.051178
    29  H    3.859166   2.144462   7.089021   8.278227   8.504541
    30  C    8.005190   6.514606   2.421718   4.878996   8.340159
    31  H    6.216145   4.570435   2.148776   4.360587   7.057844
    32  C    8.435593   7.561139   2.421709   4.052208   7.931644
    33  H    7.145324   6.853224   2.148749   2.446125   6.179018
    34  C    7.552925   8.800011   7.558317   4.941800   2.409154
    35  H    7.067619   8.327530   8.194680   5.843284   2.144229
    36  H    8.312879   9.451541   7.190790   4.587189   3.859086
    37  H    3.392317   3.392036   8.588327   9.243829   8.622794
    38  C    8.798843   7.556596   2.802355   4.940696   8.708529
    39  H    8.546535   6.817249   3.400487   5.843645   9.147346
    40  H    9.251815   8.525796   3.400476   4.585006   8.478973
    41  H    8.515931   9.838140   8.588933   5.937569   3.392325
    42  H    9.837395   8.519379   3.886469   5.936405   9.741223
                   16         17         18         19         20
    16  C    0.000000
    17  C    7.728487   0.000000
    18  H    5.689671   2.145291   0.000000
    19  C    8.537185   2.402446   3.859422   0.000000
    20  H    7.467391   3.858974   4.283822   2.145303   0.000000
    21  C    6.627673   7.714062   7.041341   6.544139   4.464262
    22  C    5.365510   8.412186   7.209919   7.857292   6.005216
    23  C    2.774316   7.817352   5.938037   8.876630   8.155291
    24  H    3.385823   6.071785   4.444909   6.885771   6.188131
    25  C    1.388861   8.724051   6.645087   9.707165   8.737648
    26  H    1.084834   7.954419   5.943969   8.645064   7.469502
    27  C    8.712710   1.390079   3.390052   1.390101   3.389888
    28  H    8.132205   1.084351   2.465154   3.387168   4.943312
    29  H    9.464672   3.387180   4.943772   1.084359   2.465561
    30  C    7.665654   8.991701   8.376585   7.694055   5.630816
    31  H    6.942862   7.150208   6.702087   5.776424   3.645616
    32  C    6.604154   9.597792   8.518958   8.838700   6.917320
    33  H    4.622091   8.422450   7.001940   8.175974   6.474808
    34  C    2.408903   8.767801   6.757199   9.862969   9.045013
    35  H    3.858628   8.112392   6.369233   9.231369   8.648915
    36  H    2.144469   9.615121   7.505843  10.615439   9.609605
    37  H    9.745125   2.150485   4.285405   2.150465   4.285346
    38  C    7.660043   9.861788   9.041995   8.770874   6.762356
    39  H    8.636768   9.430176   9.022598   7.896115   5.843581
    40  H    6.901424  10.437000   9.253916   9.798856   7.930616
    41  H    3.392092   9.687802   7.684636  10.868923  10.103202
    42  H    8.628428  10.868130  10.100771   9.690752   7.689142
                   21         22         23         24         25
    21  C    0.000000
    22  C    2.401148   0.000000
    23  C    8.339678   7.663388   0.000000
    24  H    7.057108   6.938381   2.145221   0.000000
    25  C    7.934139   6.605193   2.402396   3.859344   0.000000
    26  H    6.184005   4.623169   3.858996   4.283837   2.145356
    27  C    7.658939   8.709478   8.854651   6.959358   9.784926
    28  H    8.715008   9.263502   8.056006   6.464637   9.017910
    29  H    6.799073   8.353050   9.815716   7.778988  10.658795
    30  C    1.388824   2.774442   9.514051   8.348527   8.928391
    31  H    1.084794   3.385432   8.348239   6.841814   8.251212
    32  C    2.774430   1.388819   8.926672   8.248218   7.770528
    33  H    3.385417   1.084800   7.118603   6.637291   5.818196
    34  C    8.709358   7.659884   1.390070   3.389995   1.390095
    35  H    9.145591   8.633852   1.084348   2.465033   3.387137
    36  H    8.482109   6.903971   3.387136   4.943698   1.084363
    37  H    8.627736   9.741788   9.781675   7.896950  10.784584
    38  C    2.408878   2.408889   9.781478   8.882743   8.860440
    39  H    2.144453   3.858761  10.344405   9.066139   9.895553
    40  H    3.858751   2.144441   9.369482   8.905073   7.969536
    41  H    9.741711   8.628862   2.150513   4.285366   2.150453
    42  H    3.392063   3.392069  10.781315   9.931179   9.787018
                   26         27         28         29         30
    26  H    0.000000
    27  C    8.890852   0.000000
    28  H    8.405728   2.149185   0.000000
    29  H    9.545695   2.149210   4.286129   0.000000
    30  C    7.121630   8.859441   9.998964   7.836200   0.000000
    31  H    6.643746   6.967979   8.191027   5.952004   2.145313
    32  C    5.817122   9.782522  10.480877   9.217794   2.402462
    33  H    3.763276   8.884106   9.185756   8.783603   3.859075
    34  C    3.389959   9.852853   8.987516  10.821157   9.782234
    35  H    4.943333   9.138718   8.282241  10.153259  10.343562
    36  H    2.465578  10.693284   9.886756  11.568398   9.371467
    37  H    9.938752   1.084125   2.479166   2.479130   9.786358
    38  C    6.969712   9.854081  10.818346   8.991873   1.390081
    39  H    8.143918   9.146505  10.471366   7.891810   1.084353
    40  H    6.021000  10.688769  11.275927  10.208584   3.387152
    41  H    4.285396  10.805250   9.840010  11.834177  10.781792
    42  H    7.906179  10.806676  11.831863   9.844047   2.150451
                   31         32         33         34         35
    31  H    0.000000
    32  C    3.859055   0.000000
    33  H    4.283308   2.145356   0.000000
    34  C    8.883693   8.860047   6.969499   0.000000
    35  H    9.064207   9.893547   8.140394   2.149187   0.000000
    36  H    8.908597   7.970392   6.024369   2.149200   4.286112
    37  H    7.905312  10.782029   9.931899  10.805373  10.004849
    38  C    3.389900   1.390094   3.389946   9.854100  10.686951
    39  H    2.465597   3.387150   4.943418  10.688111  11.122726
    40  H    4.943399   1.084354   2.465647   9.147341  10.372571
    41  H    9.931470   9.787155   7.907066   1.084123   2.479233
    42  H    4.285343   2.150458   4.285392  10.806525  11.688828
                   36         37         38         39         40
    36  H    0.000000
    37  H   11.694852   0.000000
    38  C    9.148051  10.806489   0.000000
    39  H   10.374492  10.012610   2.149134   0.000000
    40  H    8.023201  11.690124   2.149152   4.286037   0.000000
    41  H    2.479104  11.730556  10.806626  11.689465  10.013697
    42  H   10.013557  11.731882   1.084114   2.479039   2.479054
                   41         42
    41  H    0.000000
    42  H   11.731844   0.000000
 Stoichiometry    C24H18
 Framework group  C1[X(C24H18)]
 Deg. of freedom   120
 Full point group                 C1      NOp   1
 Largest Abelian subgroup         C1      NOp   1
 Largest concise Abelian subgroup C1      NOp   1
                         Standard orientation:                         
 ---------------------------------------------------------------------
 Center     Atomic      Atomic             Coordinates (Angstroms)
 Number     Number       Type             X           Y           Z
 ---------------------------------------------------------------------
      1          6           0        0.104443    1.397536   -0.041143
      2          6           0       -1.145095    0.780384   -0.004103
      3          6           0        1.248921    0.601053   -0.037968
      4          6           0       -1.262752   -0.608212    0.036398
      5          1           0       -2.041558    1.391384   -0.006667
      6          6           0        0.214135    2.876955   -0.100601
      7          6           0        1.158796   -0.789820    0.002501
      8          1           0        2.224518    1.069729   -0.112218
      9          6           0       -0.102969   -1.382184    0.039701
     10          6           0       -2.599918   -1.250832    0.093523
     11          6           0       -0.775504    3.642846   -0.721259
     12          6           0        1.310429    3.533543    0.463556
     13          6           0        2.385398   -1.625984    0.006235
     14          1           0       -0.182743   -2.461375    0.116811
     15          6           0       -3.602747   -0.741495    0.921841
     16          6           0       -2.882921   -2.378194   -0.681196
     17          6           0       -0.672520    5.026859   -0.775250
     18          1           0       -1.621892    3.147099   -1.184483
     19          6           0        1.414399    4.917430    0.409884
     20          1           0        2.077530    2.954694    0.966886
     21          6           0        3.483742   -1.278877    0.796354
     22          6           0        2.466789   -2.777600   -0.780081
     23          6           0       -4.853801   -1.342443    0.974003
     24          1           0       -3.392522    0.120010    1.546601
     25          6           0       -4.133588   -2.979941   -0.629555
     26          1           0       -2.121697   -2.773636   -1.345296
     27          6           0        0.422568    5.669311   -0.209249
     28          1           0       -1.446430    5.604571   -1.268332
     29          1           0        2.268924    5.410486    0.859902
     30          6           0        4.631500   -2.060841    0.800366
     31          1           0        3.428522   -0.399629    1.429325
     32          6           0        3.613817   -3.560628   -0.776590
     33          1           0        1.630817   -3.049151   -1.415849
     34          6           0       -5.123869   -2.463930    0.198357
     35          1           0       -5.617487   -0.937883    1.628926
     36          1           0       -4.337608   -3.849975   -1.243771
     37          1           0        0.503255    6.749603   -0.251523
     38          6           0        4.700600   -3.204899    0.013802
     39          1           0        5.471454   -1.780061    1.426035
     40          1           0        3.661833   -4.447047   -1.399309
     41          1           0       -6.100264   -2.933312    0.239040
     42          1           0        5.596233   -3.815748    0.016765
 ---------------------------------------------------------------------
 Rotational constants (GHZ):           0.1990329           0.1977235           0.1033457
 Leave Link  202 at Mon Nov 14 15:09:38 2022, MaxMem= 16106127360 cpu:               0.3 elap:               0.0
 (Enter /opt/ap/G16/B01/g16/l301.exe)
 Standard basis: 6-311++G(d,p) (5D, 7F)
 Ernie: Thresh=  0.10000D-02 Tol=  0.10000D-05 Strict=F.
 There are   678 symmetry adapted cartesian basis functions of A   symmetry.
 There are   654 symmetry adapted basis functions of A   symmetry.
   654 basis functions,  1026 primitive gaussians,   678 cartesian basis functions
    81 alpha electrons       81 beta electrons
       nuclear repulsion energy      1733.4601539406 Hartrees.
 IExCor= 4639 DFT=T Ex+Corr=wB97XD ExCW=0 ScaHFX=  1.000000
 ScaDFX=  1.000000  1.000000  1.000000  1.000000 ScalE2=  1.000000  1.000000
 IRadAn=      5 IRanWt=     -1 IRanGd=            0 ICorTp=0 IEmpDi=121
 HFx  wShort=  0.000000 wLong=  0.200000 cFull=  0.222036 cShort=  0.000000 cLong=  0.777964
 DFx  wShort=  0.000000 wLong=  0.200000 cFull=  0.000000 cShort=  0.000000 cLong=  1.000000
 NAtoms=   42 NActive=   42 NUniq=   42 SFac= 1.00D+00 NAtFMM=   60 NAOKFM=F Big=F
 Integral buffers will be    131072 words long.
 Raffenetti 2 integral format.
 Two-electron integral symmetry is turned on.
 R6Disp:  Grimme-D2 Dispersion energy=       -0.0289317287 Hartrees.
 Nuclear repulsion after empirical dispersion term =     1733.4312222119 Hartrees.
 Leave Link  301 at Mon Nov 14 15:09:38 2022, MaxMem= 16106127360 cpu:               1.2 elap:               0.0
 (Enter /opt/ap/G16/B01/g16/l302.exe)
 NPDir=0 NMtPBC=     1 NCelOv=     1 NCel=       1 NClECP=     1 NCelD=      1
         NCelK=      1 NCelE2=     1 NClLst=     1 CellRange=     0.0.
 One-electron integrals computed using PRISM.
 One-electron integral symmetry used in STVInt
 NBasis=   654 RedAO= T EigKep=  1.18D-06  NBF=   654
 NBsUse=   645 1.00D-06 EigRej=  6.92D-07 NBFU=   645
 Precomputing XC quadrature grid using
 IXCGrd= 4 IRadAn=           5 IRanWt=          -1 IRanGd=           0 AccXCQ= 0.00D+00.
 Generated NRdTot=       0 NPtTot=           0 NUsed=           0 NTot=          32
 NSgBfM=   669   669   669   669   669 MxSgAt=    42 MxSgA2=    42.
 Leave Link  302 at Mon Nov 14 15:09:39 2022, MaxMem= 16106127360 cpu:              20.9 elap:               0.7
 (Enter /opt/ap/G16/B01/g16/l303.exe)
 DipDrv:  MaxL=1.
 Leave Link  303 at Mon Nov 14 15:09:39 2022, MaxMem= 16106127360 cpu:               2.8 elap:               0.1
 (Enter /opt/ap/G16/B01/g16/l401.exe)
 ExpMin= 3.60D-02 ExpMax= 4.56D+03 ExpMxC= 6.82D+02 IAcc=3 IRadAn=         5 AccDes= 0.00D+00
 Harris functional with IExCor= 4639 and IRadAn=       5 diagonalized for initial guess.
 HarFok:  IExCor= 4639 AccDes= 0.00D+00 IRadAn=         5 IDoV= 1 UseB2=F ITyADJ=14
 ICtDFT=  3500011 ScaDFX=  1.000000  1.000000  1.000000  1.000000
 FoFCou: FMM=F IPFlag=           0 FMFlag=      100000 FMFlg1=           0
         NFxFlg=           0 DoJE=T BraDBF=F KetDBF=T FulRan=T
         wScrn=  0.000000 ICntrl=       500 IOpCl=  0 I1Cent=   200000004 NGrid=           0
         NMat0=    1 NMatS0=      1 NMatT0=    0 NMatD0=    1 NMtDS0=    0 NMtDT0=    0
 Petite list used in FoFCou.
 Harris En= -882.968480866821    
 JPrj=0 DoOrth=F DoCkMO=F.
 Leave Link  401 at Mon Nov 14 15:09:41 2022, MaxMem= 16106127360 cpu:              55.3 elap:               1.7
 (Enter /opt/ap/G16/B01/g16/l502.exe)
 Integral symmetry usage will be decided dynamically.
 Closed shell SCF:
 Using DIIS extrapolation, IDIIS=  1040.
 NGot= 16106127360 LenX= 16105179956 LenY= 16104719594
 Requested convergence on RMS density matrix=1.00D-08 within 512 cycles.
 Requested convergence on MAX density matrix=1.00D-06.
 Requested convergence on             energy=1.00D-06.
 No special actions if energy rises.
 Fock matrices will be formed incrementally for  20 cycles.

 Cycle   1  Pass 1  IDiag  1:
 FoFJK:  IHMeth= 1 ICntrl=       0 DoSepK=T KAlg= 0 I1Cent=           0 FoldK=F
 IRaf=         1 NMat=       1 IRICut=       1 DoRegI=T DoRafI=F ISym2E= 0 IDoP0=0 IntGTp=1.
 FoFCou: FMM=F IPFlag=           0 FMFlag=      100000 FMFlg1=           0
         NFxFlg=           0 DoJE=T BraDBF=F KetDBF=F FulRan=T
         wScrn=  0.000000 ICntrl=       500 IOpCl=  0 I1Cent=           0 NGrid=           0
         NMat0=    1 NMatS0=      1 NMatT0=    0 NMatD0=    1 NMtDS0=    0 NMtDT0=    0
 Symmetry not used in FoFCou.
 E= -925.115645794574    
 DIIS: error= 4.53D-02 at cycle   1 NSaved=   1.
 NSaved= 1 IEnMin= 1 EnMin= -925.115645794574     IErMin= 1 ErrMin= 4.53D-02
 ErrMax= 4.53D-02  0.00D+00 EMaxC= 1.00D-01 BMatC= 1.90D+00 BMatP= 1.90D+00
 IDIUse=3 WtCom= 5.47D-01 WtEn= 4.53D-01
 Coeff-Com:  0.100D+01
 Coeff-En:   0.100D+01
 Coeff:      0.100D+01
 Gap=     0.312 Goal=   None    Shift=    0.000
 GapD=    0.312 DampG=1.000 DampE=0.500 DampFc=0.5000 IDamp=-1.
 Damping current iteration by 5.00D-01
 RMSDP=3.94D-02 MaxDP=4.74D+00              OVMax= 4.35D-02

 Cycle   2  Pass 1  IDiag  1:
 RMSU=  6.96D-03    CP:  8.11D-01
 E= -925.214314312712     Delta-E=       -0.098668518138 Rises=F Damp=T
 DIIS: error= 2.11D-02 at cycle   2 NSaved=   2.
 NSaved= 2 IEnMin= 2 EnMin= -925.214314312712     IErMin= 2 ErrMin= 2.11D-02
 ErrMax= 2.11D-02  0.00D+00 EMaxC= 1.00D-01 BMatC= 4.32D-01 BMatP= 1.90D+00
 IDIUse=3 WtCom= 7.89D-01 WtEn= 2.11D-01
 Coeff-Com: -0.883D+00 0.188D+01
 Coeff-En:   0.000D+00 0.100D+01
 Coeff:     -0.697D+00 0.170D+01
 Gap=     0.320 Goal=   None    Shift=    0.000
 RMSDP=2.34D-02 MaxDP=2.20D+00 DE=-9.87D-02 OVMax= 3.41D-02

 Cycle   3  Pass 1  IDiag  1:
 RMSU=  3.85D-03    CP:  5.75D-01  1.34D+00
 E= -925.302499008209     Delta-E=       -0.088184695498 Rises=F Damp=F
 DIIS: error= 3.15D-03 at cycle   3 NSaved=   3.
 NSaved= 3 IEnMin= 3 EnMin= -925.302499008209     IErMin= 3 ErrMin= 3.15D-03
 ErrMax= 3.15D-03  0.00D+00 EMaxC= 1.00D-01 BMatC= 8.97D-03 BMatP= 4.32D-01
 IDIUse=3 WtCom= 9.69D-01 WtEn= 3.15D-02
 Coeff-Com: -0.374D+00 0.793D+00 0.581D+00
 Coeff-En:   0.000D+00 0.000D+00 0.100D+01
 Coeff:     -0.362D+00 0.768D+00 0.594D+00
 Gap=     0.318 Goal=   None    Shift=    0.000
 RMSDP=2.40D-03 MaxDP=2.22D-01 DE=-8.82D-02 OVMax= 1.97D-02

 Cycle   4  Pass 1  IDiag  1:
 RMSU=  1.46D-03    CP:  5.79D-01  1.54D+00  6.77D-01
 E= -925.310745973461     Delta-E=       -0.008246965252 Rises=F Damp=F
 DIIS: error= 6.89D-04 at cycle   4 NSaved=   4.
 NSaved= 4 IEnMin= 4 EnMin= -925.310745973461     IErMin= 4 ErrMin= 6.89D-04
 ErrMax= 6.89D-04  0.00D+00 EMaxC= 1.00D-01 BMatC= 2.76D-04 BMatP= 8.97D-03
 IDIUse=3 WtCom= 9.93D-01 WtEn= 6.89D-03
 Coeff-Com: -0.115D+00 0.245D+00 0.234D+00 0.636D+00
 Coeff-En:   0.000D+00 0.000D+00 0.000D+00 0.100D+01
 Coeff:     -0.114D+00 0.243D+00 0.233D+00 0.639D+00
 Gap=     0.317 Goal=   None    Shift=    0.000
 RMSDP=7.46D-04 MaxDP=5.47D-02 DE=-8.25D-03 OVMax= 4.26D-03

 Cycle   5  Pass 1  IDiag  1:
 RMSU=  3.12D-04    CP:  5.73D-01  1.58D+00  6.93D-01  8.35D-01
 E= -925.311036852547     Delta-E=       -0.000290879085 Rises=F Damp=F
 DIIS: error= 2.24D-04 at cycle   5 NSaved=   5.
 NSaved= 5 IEnMin= 5 EnMin= -925.311036852547     IErMin= 5 ErrMin= 2.24D-04
 ErrMax= 2.24D-04  0.00D+00 EMaxC= 1.00D-01 BMatC= 2.03D-05 BMatP= 2.76D-04
 IDIUse=3 WtCom= 9.98D-01 WtEn= 2.24D-03
 Coeff-Com:  0.267D-01-0.569D-01-0.263D-01 0.195D+00 0.862D+00
 Coeff-En:   0.000D+00 0.000D+00 0.000D+00 0.000D+00 0.100D+01
 Coeff:      0.267D-01-0.568D-01-0.262D-01 0.194D+00 0.862D+00
 Gap=     0.317 Goal=   None    Shift=    0.000
 RMSDP=1.87D-04 MaxDP=9.16D-03 DE=-2.91D-04 OVMax= 1.55D-03

 Cycle   6  Pass 1  IDiag  1:
 RMSU=  7.49D-05    CP:  5.72D-01  1.58D+00  7.09D-01  9.15D-01  1.21D+00
 E= -925.311063130859     Delta-E=       -0.000026278312 Rises=F Damp=F
 DIIS: error= 5.11D-05 at cycle   6 NSaved=   6.
 NSaved= 6 IEnMin= 6 EnMin= -925.311063130859     IErMin= 6 ErrMin= 5.11D-05
 ErrMax= 5.11D-05  0.00D+00 EMaxC= 1.00D-01 BMatC= 1.39D-06 BMatP= 2.03D-05
 IDIUse=1 WtCom= 1.00D+00 WtEn= 0.00D+00
 Coeff-Com:  0.135D-01-0.288D-01-0.166D-01 0.536D-01 0.330D+00 0.648D+00
 Coeff:      0.135D-01-0.288D-01-0.166D-01 0.536D-01 0.330D+00 0.648D+00
 Gap=     0.317 Goal=   None    Shift=    0.000
 RMSDP=7.22D-05 MaxDP=7.35D-03 DE=-2.63D-05 OVMax= 3.80D-04

 Cycle   7  Pass 1  IDiag  1:
 RMSU=  4.26D-05    CP:  5.73D-01  1.58D+00  7.10D-01  9.44D-01  1.16D+00
                    CP:  9.19D-01
 E= -925.311064838706     Delta-E=       -0.000001707847 Rises=F Damp=F
 DIIS: error= 1.51D-05 at cycle   7 NSaved=   7.
 NSaved= 7 IEnMin= 7 EnMin= -925.311064838706     IErMin= 7 ErrMin= 1.51D-05
 ErrMax= 1.51D-05  0.00D+00 EMaxC= 1.00D-01 BMatC= 1.03D-07 BMatP= 1.39D-06
 IDIUse=1 WtCom= 1.00D+00 WtEn= 0.00D+00
 Coeff-Com: -0.249D-02 0.534D-02 0.223D-02-0.284D-01-0.104D+00 0.101D+00
 Coeff-Com:  0.103D+01
 Coeff:     -0.249D-02 0.534D-02 0.223D-02-0.284D-01-0.104D+00 0.101D+00
 Coeff:      0.103D+01
 Gap=     0.317 Goal=   None    Shift=    0.000
 RMSDP=1.85D-05 MaxDP=1.28D-03 DE=-1.71D-06 OVMax= 2.65D-04

 Cycle   8  Pass 1  IDiag  1:
 RMSU=  5.92D-06    CP:  5.73D-01  1.58D+00  7.12D-01  9.45D-01  1.19D+00
                    CP:  1.03D+00  1.18D+00
 E= -925.311065077633     Delta-E=       -0.000000238927 Rises=F Damp=F
 DIIS: error= 4.79D-06 at cycle   8 NSaved=   8.
 NSaved= 8 IEnMin= 8 EnMin= -925.311065077633     IErMin= 8 ErrMin= 4.79D-06
 ErrMax= 4.79D-06  0.00D+00 EMaxC= 1.00D-01 BMatC= 5.20D-09 BMatP= 1.03D-07
 IDIUse=1 WtCom= 1.00D+00 WtEn= 0.00D+00
 Coeff-Com: -0.952D-03 0.203D-02 0.105D-02-0.809D-02-0.311D-01 0.776D-02
 Coeff-Com:  0.185D+00 0.844D+00
 Coeff:     -0.952D-03 0.203D-02 0.105D-02-0.809D-02-0.311D-01 0.776D-02
 Coeff:      0.185D+00 0.844D+00
 Gap=     0.317 Goal=   None    Shift=    0.000
 RMSDP=3.03D-06 MaxDP=1.86D-04 DE=-2.39D-07 OVMax= 5.74D-05

 Cycle   9  Pass 1  IDiag  1:
 RMSU=  1.94D-06    CP:  5.73D-01  1.58D+00  7.12D-01  9.45D-01  1.19D+00
                    CP:  1.04D+00  1.22D+00  1.19D+00
 E= -925.311065087182     Delta-E=       -0.000000009549 Rises=F Damp=F
 DIIS: error= 2.94D-06 at cycle   9 NSaved=   9.
 NSaved= 9 IEnMin= 9 EnMin= -925.311065087182     IErMin= 9 ErrMin= 2.94D-06
 ErrMax= 2.94D-06  0.00D+00 EMaxC= 1.00D-01 BMatC= 1.78D-09 BMatP= 5.20D-09
 IDIUse=1 WtCom= 1.00D+00 WtEn= 0.00D+00
 Coeff-Com:  0.128D-03-0.279D-03 0.193D-04 0.279D-02 0.102D-01-0.163D-01
 Coeff-Com: -0.160D+00 0.383D+00 0.780D+00
 Coeff:      0.128D-03-0.279D-03 0.193D-04 0.279D-02 0.102D-01-0.163D-01
 Coeff:     -0.160D+00 0.383D+00 0.780D+00
 Gap=     0.317 Goal=   None    Shift=    0.000
 RMSDP=1.83D-06 MaxDP=1.17D-04 DE=-9.55D-09 OVMax= 3.79D-05

 Cycle  10  Pass 1  IDiag  1:
 RMSU=  6.86D-07    CP:  5.73D-01  1.58D+00  7.12D-01  9.45D-01  1.19D+00
                    CP:  1.04D+00  1.24D+00  1.37D+00  6.20D-01
 E= -925.311065090347     Delta-E=       -0.000000003165 Rises=F Damp=F
 DIIS: error= 9.40D-07 at cycle  10 NSaved=  10.
 NSaved=10 IEnMin=10 EnMin= -925.311065090347     IErMin=10 ErrMin= 9.40D-07
 ErrMax= 9.40D-07  0.00D+00 EMaxC= 1.00D-01 BMatC= 2.24D-10 BMatP= 1.78D-09
 IDIUse=1 WtCom= 1.00D+00 WtEn= 0.00D+00
 Coeff-Com:  0.119D-03-0.256D-03-0.580D-04 0.168D-02 0.605D-02-0.572D-02
 Coeff-Com: -0.746D-01 0.628D-01 0.336D+00 0.674D+00
 Coeff:      0.119D-03-0.256D-03-0.580D-04 0.168D-02 0.605D-02-0.572D-02
 Coeff:     -0.746D-01 0.628D-01 0.336D+00 0.674D+00
 Gap=     0.317 Goal=   None    Shift=    0.000
 RMSDP=4.62D-07 MaxDP=4.17D-05 DE=-3.16D-09 OVMax= 1.00D-05

 Cycle  11  Pass 1  IDiag  1:
 RMSU=  1.41D-07    CP:  5.73D-01  1.58D+00  7.12D-01  9.45D-01  1.19D+00
                    CP:  1.04D+00  1.24D+00  1.38D+00  8.07D-01  9.83D-01
 E= -925.311065090683     Delta-E=       -0.000000000336 Rises=F Damp=F
 DIIS: error= 2.15D-07 at cycle  11 NSaved=  11.
 NSaved=11 IEnMin=11 EnMin= -925.311065090683     IErMin=11 ErrMin= 2.15D-07
 ErrMax= 2.15D-07  0.00D+00 EMaxC= 1.00D-01 BMatC= 3.14D-11 BMatP= 2.24D-10
 IDIUse=1 WtCom= 1.00D+00 WtEn= 0.00D+00
 Coeff-Com:  0.225D-04-0.477D-04-0.195D-04 0.140D-03 0.333D-03 0.110D-02
 Coeff-Com:  0.435D-03-0.585D-01-0.221D-02 0.265D+00 0.794D+00
 Coeff:      0.225D-04-0.477D-04-0.195D-04 0.140D-03 0.333D-03 0.110D-02
 Coeff:      0.435D-03-0.585D-01-0.221D-02 0.265D+00 0.794D+00
 Gap=     0.317 Goal=   None    Shift=    0.000
 RMSDP=1.95D-07 MaxDP=1.60D-05 DE=-3.36D-10 OVMax= 3.28D-06

 Cycle  12  Pass 1  IDiag  1:
 RMSU=  5.93D-08    CP:  5.73D-01  1.58D+00  7.12D-01  9.45D-01  1.19D+00
                    CP:  1.04D+00  1.24D+00  1.39D+00  7.89D-01  1.15D+00
                    CP:  1.16D+00
 E= -925.311065090755     Delta-E=       -0.000000000071 Rises=F Damp=F
 DIIS: error= 6.99D-08 at cycle  12 NSaved=  12.
 NSaved=12 IEnMin=12 EnMin= -925.311065090755     IErMin=12 ErrMin= 6.99D-08
 ErrMax= 6.99D-08  0.00D+00 EMaxC= 1.00D-01 BMatC= 1.35D-12 BMatP= 3.14D-11
 IDIUse=1 WtCom= 1.00D+00 WtEn= 0.00D+00
 Coeff-Com: -0.143D-04 0.310D-04 0.109D-04-0.217D-03-0.797D-03 0.947D-03
 Coeff-Com:  0.941D-02-0.106D-01-0.305D-01-0.674D-01-0.896D-01 0.119D+01
 Coeff:     -0.143D-04 0.310D-04 0.109D-04-0.217D-03-0.797D-03 0.947D-03
 Coeff:      0.941D-02-0.106D-01-0.305D-01-0.674D-01-0.896D-01 0.119D+01
 Gap=     0.317 Goal=   None    Shift=    0.000
 RMSDP=7.27D-08 MaxDP=3.49D-06 DE=-7.14D-11 OVMax= 1.40D-06

 Cycle  13  Pass 1  IDiag  1:
 RMSU=  2.55D-08    CP:  5.73D-01  1.58D+00  7.12D-01  9.45D-01  1.19D+00
                    CP:  1.04D+00  1.24D+00  1.39D+00  7.90D-01  1.20D+00
                    CP:  1.25D+00  1.45D+00
 E= -925.311065090760     Delta-E=       -0.000000000005 Rises=F Damp=F
 DIIS: error= 1.85D-08 at cycle  13 NSaved=  13.
 NSaved=13 IEnMin=13 EnMin= -925.311065090760     IErMin=13 ErrMin= 1.85D-08
 ErrMax= 1.85D-08  0.00D+00 EMaxC= 1.00D-01 BMatC= 1.06D-13 BMatP= 1.35D-12
 IDIUse=1 WtCom= 1.00D+00 WtEn= 0.00D+00
 Coeff-Com: -0.280D-05 0.599D-05 0.274D-05-0.321D-04-0.105D-03 0.696D-04
 Coeff-Com:  0.983D-03 0.148D-02-0.180D-02-0.199D-01-0.702D-01 0.147D+00
 Coeff-Com:  0.942D+00
 Coeff:     -0.280D-05 0.599D-05 0.274D-05-0.321D-04-0.105D-03 0.696D-04
 Coeff:      0.983D-03 0.148D-02-0.180D-02-0.199D-01-0.702D-01 0.147D+00
 Coeff:      0.942D+00
 Gap=     0.317 Goal=   None    Shift=    0.000
 RMSDP=1.91D-08 MaxDP=1.58D-06 DE=-5.46D-12 OVMax= 3.38D-07

 Cycle  14  Pass 1  IDiag  1:
 RMSU=  4.85D-09    CP:  5.73D-01  1.58D+00  7.12D-01  9.45D-01  1.19D+00
                    CP:  1.04D+00  1.24D+00  1.39D+00  7.90D-01  1.21D+00
                    CP:  1.25D+00  1.57D+00  1.29D+00
 E= -925.311065090725     Delta-E=        0.000000000035 Rises=F Damp=F
 DIIS: error= 5.71D-09 at cycle  14 NSaved=  14.
 NSaved=14 IEnMin=13 EnMin= -925.311065090760     IErMin=14 ErrMin= 5.71D-09
 ErrMax= 5.71D-09  0.00D+00 EMaxC= 1.00D-01 BMatC= 3.61D-14 BMatP= 1.06D-13
 IDIUse=1 WtCom= 1.00D+00 WtEn= 0.00D+00
 Coeff-Com:  0.668D-06-0.148D-05-0.268D-06 0.148D-04 0.612D-04-0.959D-04
 Coeff-Com: -0.837D-03 0.205D-02 0.352D-02 0.430D-03-0.225D-01-0.998D-01
 Coeff-Com:  0.436D+00 0.681D+00
 Coeff:      0.668D-06-0.148D-05-0.268D-06 0.148D-04 0.612D-04-0.959D-04
 Coeff:     -0.837D-03 0.205D-02 0.352D-02 0.430D-03-0.225D-01-0.998D-01
 Coeff:      0.436D+00 0.681D+00
 Gap=     0.317 Goal=   None    Shift=    0.000
 RMSDP=8.04D-09 MaxDP=9.24D-07 DE= 3.46D-11 OVMax= 8.36D-08

 SCF Done:  E(RwB97XD) =  -925.311065091     A.U. after   14 cycles
            NFock= 14  Conv=0.80D-08     -V/T= 2.0044
 KE= 9.213023700258D+02 PE=-5.613242887143D+03 EE= 2.033198229815D+03
 Leave Link  502 at Mon Nov 14 15:12:07 2022, MaxMem= 16106127360 cpu:            4638.6 elap:             145.6
 (Enter /opt/ap/G16/B01/g16/l601.exe)
 Copying SCF densities to generalized density rwf, IOpCl= 0 IROHF=0.

 **********************************************************************

            Population analysis using the SCF Density.

 **********************************************************************

 Orbital symmetries:
       Occupied  (A) (A) (A) (A) (A) (A) (A) (A) (A) (A) (A) (A)
                 (A) (A) (A) (A) (A) (A) (A) (A) (A) (A) (A) (A)
                 (A) (A) (A) (A) (A) (A) (A) (A) (A) (A) (A) (A)
                 (A) (A) (A) (A) (A) (A) (A) (A) (A) (A) (A) (A)
                 (A) (A) (A) (A) (A) (A) (A) (A) (A) (A) (A) (A)
                 (A) (A) (A) (A) (A) (A) (A) (A) (A) (A) (A) (A)
                 (A) (A) (A) (A) (A) (A) (A) (A) (A)
       Virtual   (A) (A) (A) (A) (A) (A) (A) (A) (A) (A) (A) (A)
                 (A) (A) (A) (A) (A) (A) (A) (A) (A) (A) (A) (A)
                 (A) (A) (A) (A) (A) (A) (A) (A) (A) (A) (A) (A)
                 (A) (A) (A) (A) (A) (A) (A) (A) (A) (A) (A) (A)
                 (A) (A) (A) (A) (A) (A) (A) (A) (A) (A) (A) (A)
                 (A) (A) (A) (A) (A) (A) (A) (A) (A) (A) (A) (A)
                 (A) (A) (A) (A) (A) (A) (A) (A) (A) (A) (A) (A)
                 (A) (A) (A) (A) (A) (A) (A) (A) (A) (A) (A) (A)
                 (A) (A) (A) (A) (A) (A) (A) (A) (A) (A) (A) (A)
                 (A) (A) (A) (A) (A) (A) (A) (A) (A) (A) (A) (A)
                 (A) (A) (A) (A) (A) (A) (A) (A) (A) (A) (A) (A)
                 (A) (A) (A) (A) (A) (A) (A) (A) (A) (A) (A) (A)
                 (A) (A) (A) (A) (A) (A) (A) (A) (A) (A) (A) (A)
                 (A) (A) (A) (A) (A) (A) (A) (A) (A) (A) (A) (A)
                 (A) (A) (A) (A) (A) (A) (A) (A) (A) (A) (A) (A)
                 (A) (A) (A) (A) (A) (A) (A) (A) (A) (A) (A) (A)
                 (A) (A) (A) (A) (A) (A) (A) (A) (A) (A) (A) (A)
                 (A) (A) (A) (A) (A) (A) (A) (A) (A) (A) (A) (A)
                 (A) (A) (A) (A) (A) (A) (A) (A) (A) (A) (A) (A)
                 (A) (A) (A) (A) (A) (A) (A) (A) (A) (A) (A) (A)
                 (A) (A) (A) (A) (A) (A) (A) (A) (A) (A) (A) (A)
                 (A) (A) (A) (A) (A) (A) (A) (A) (A) (A) (A) (A)
                 (A) (A) (A) (A) (A) (A) (A) (A) (A) (A) (A) (A)
                 (A) (A) (A) (A) (A) (A) (A) (A) (A) (A) (A) (A)
                 (A) (A) (A) (A) (A) (A) (A) (A) (A) (A) (A) (A)
                 (A) (A) (A) (A) (A) (A) (A) (A) (A) (A) (A) (A)
                 (A) (A) (A) (A) (A) (A) (A) (A) (A) (A) (A) (A)
                 (A) (A) (A) (A) (A) (A) (A) (A) (A) (A) (A) (A)
                 (A) (A) (A) (A) (A) (A) (A) (A) (A) (A) (A) (A)
                 (A) (A) (A) (A) (A) (A) (A) (A) (A) (A) (A) (A)
                 (A) (A) (A) (A) (A) (A) (A) (A) (A) (A) (A) (A)
                 (A) (A) (A) (A) (A) (A) (A) (A) (A) (A) (A) (A)
                 (A) (A) (A) (A) (A) (A) (A) (A) (A) (A) (A) (A)
                 (A) (A) (A) (A) (A) (A) (A) (A) (A) (A) (A) (A)
                 (A) (A) (A) (A) (A) (A) (A) (A) (A) (A) (A) (A)
                 (A) (A) (A) (A) (A) (A) (A) (A) (A) (A) (A) (A)
                 (A) (A) (A) (A) (A) (A) (A) (A) (A) (A) (A) (A)
                 (A) (A) (A) (A) (A) (A) (A) (A) (A) (A) (A) (A)
                 (A) (A) (A) (A) (A) (A) (A) (A) (A) (A) (A) (A)
                 (A) (A) (A) (A) (A) (A) (A) (A) (A) (A) (A) (A)
                 (A) (A) (A) (A) (A) (A) (A) (A) (A) (A) (A) (A)
                 (A) (A) (A) (A) (A) (A) (A) (A) (A) (A) (A) (A)
                 (A) (A) (A) (A) (A) (A) (A) (A) (A) (A) (A) (A)
                 (A) (A) (A) (A) (A) (A) (A) (A) (A) (A) (A) (A)
                 (A) (A) (A) (A) (A) (A) (A) (A) (A) (A) (A) (A)
                 (A) (A) (A) (A) (A) (A) (A) (A) (A) (A) (A) (A)
                 (A) (A) (A) (A) (A) (A) (A) (A) (A) (A) (A) (A)
 The electronic state is 1-A.
 Alpha  occ. eigenvalues --  -10.30480 -10.30465 -10.30460 -10.30383 -10.30362
 Alpha  occ. eigenvalues --  -10.30355 -10.29290 -10.29286 -10.29281 -10.29275
 Alpha  occ. eigenvalues --  -10.29268 -10.29256 -10.29211 -10.29203 -10.29197
 Alpha  occ. eigenvalues --  -10.29196 -10.29168 -10.29167 -10.29144 -10.29126
 Alpha  occ. eigenvalues --  -10.29122 -10.29094 -10.29091 -10.29085  -0.99035
 Alpha  occ. eigenvalues --   -0.97099  -0.97087  -0.95294  -0.89480  -0.89469
 Alpha  occ. eigenvalues --   -0.85404  -0.85366  -0.85303  -0.85084  -0.82286
 Alpha  occ. eigenvalues --   -0.82255  -0.73746  -0.73601  -0.71172  -0.70834
 Alpha  occ. eigenvalues --   -0.70160  -0.70042  -0.66720  -0.66650  -0.63706
 Alpha  occ. eigenvalues --   -0.60813  -0.60735  -0.58639  -0.57405  -0.56821
 Alpha  occ. eigenvalues --   -0.54933  -0.54845  -0.54339  -0.54083  -0.52484
 Alpha  occ. eigenvalues --   -0.51813  -0.51700  -0.51537  -0.51185  -0.50956
 Alpha  occ. eigenvalues --   -0.50678  -0.48182  -0.46841  -0.46359  -0.45961
 Alpha  occ. eigenvalues --   -0.45715  -0.44912  -0.44398  -0.43200  -0.43159
 Alpha  occ. eigenvalues --   -0.42965  -0.41772  -0.41522  -0.37156  -0.36535
 Alpha  occ. eigenvalues --   -0.33670  -0.33660  -0.33646  -0.32980  -0.30306
 Alpha  occ. eigenvalues --   -0.30010
 Alpha virt. eigenvalues --    0.01717   0.02113   0.03674   0.04178   0.04248
 Alpha virt. eigenvalues --    0.04559   0.04835   0.04933   0.05072   0.05133
 Alpha virt. eigenvalues --    0.05190   0.05689   0.05900   0.06788   0.07062
 Alpha virt. eigenvalues --    0.07135   0.07984   0.08043   0.08402   0.08721
 Alpha virt. eigenvalues --    0.08898   0.09160   0.09348   0.10363   0.10998
 Alpha virt. eigenvalues --    0.11464   0.12168   0.12389   0.12945   0.13461
 Alpha virt. eigenvalues --    0.13608   0.13846   0.14330   0.14476   0.15425
 Alpha virt. eigenvalues --    0.15748   0.15788   0.15906   0.16114   0.16266
 Alpha virt. eigenvalues --    0.16506   0.16628   0.16995   0.17313   0.17358
 Alpha virt. eigenvalues --    0.17428   0.17728   0.18037   0.18148   0.18386
 Alpha virt. eigenvalues --    0.18413   0.18528   0.18625   0.18998   0.19190
 Alpha virt. eigenvalues --    0.19369   0.19527   0.19944   0.20284   0.20582
 Alpha virt. eigenvalues --    0.20640   0.21048   0.21163   0.21765   0.21949
 Alpha virt. eigenvalues --    0.22109   0.22339   0.22561   0.23136   0.23170
 Alpha virt. eigenvalues --    0.23437   0.23660   0.23732   0.23922   0.24003
 Alpha virt. eigenvalues --    0.24724   0.24932   0.25337   0.25441   0.25524
 Alpha virt. eigenvalues --    0.25907   0.26034   0.26674   0.26979   0.27360
 Alpha virt. eigenvalues --    0.27597   0.27614   0.27762   0.28398   0.28545
 Alpha virt. eigenvalues --    0.28603   0.29111   0.29314   0.29369   0.29537
 Alpha virt. eigenvalues --    0.29707   0.30174   0.30581   0.30742   0.31012
 Alpha virt. eigenvalues --    0.31445   0.32197   0.32445   0.32882   0.33218
 Alpha virt. eigenvalues --    0.33513   0.33720   0.33824   0.34545   0.34677
 Alpha virt. eigenvalues --    0.34704   0.34868   0.34946   0.35353   0.35618
 Alpha virt. eigenvalues --    0.35817   0.36263   0.36474   0.36613   0.36948
 Alpha virt. eigenvalues --    0.37175   0.37449   0.38021   0.38251   0.38330
 Alpha virt. eigenvalues --    0.38459   0.38948   0.39432   0.39579   0.40068
 Alpha virt. eigenvalues --    0.40653   0.40766   0.40990   0.41154   0.41689
 Alpha virt. eigenvalues --    0.42099   0.42266   0.42482   0.42870   0.43879
 Alpha virt. eigenvalues --    0.43981   0.44427   0.44600   0.44845   0.44920
 Alpha virt. eigenvalues --    0.45333   0.46332   0.47589   0.47820   0.48171
 Alpha virt. eigenvalues --    0.48661   0.50089   0.53312   0.54113   0.57268
 Alpha virt. eigenvalues --    0.58342   0.58645   0.58999   0.59174   0.60683
 Alpha virt. eigenvalues --    0.61715   0.62301   0.62493   0.62927   0.63003
 Alpha virt. eigenvalues --    0.63238   0.63557   0.63793   0.63940   0.64176
 Alpha virt. eigenvalues --    0.64356   0.65123   0.65316   0.65358   0.65542
 Alpha virt. eigenvalues --    0.65713   0.66422   0.67233   0.67460   0.68011
 Alpha virt. eigenvalues --    0.68672   0.69196   0.70075   0.70286   0.70558
 Alpha virt. eigenvalues --    0.70813   0.71243   0.71557   0.72070   0.72663
 Alpha virt. eigenvalues --    0.72920   0.73295   0.73800   0.74240   0.74727
 Alpha virt. eigenvalues --    0.75327   0.76093   0.76774   0.77188   0.78088
 Alpha virt. eigenvalues --    0.78459   0.78695   0.79667   0.79802   0.80083
 Alpha virt. eigenvalues --    0.80244   0.80844   0.81451   0.81687   0.81979
 Alpha virt. eigenvalues --    0.82330   0.82588   0.83124   0.83468   0.83916
 Alpha virt. eigenvalues --    0.84297   0.84984   0.85331   0.85524   0.85753
 Alpha virt. eigenvalues --    0.86250   0.86648   0.88023   0.88378   0.88809
 Alpha virt. eigenvalues --    0.89922   0.90323   0.91395   0.91686   0.92396
 Alpha virt. eigenvalues --    0.92519   0.92976   0.93176   0.93507   0.93881
 Alpha virt. eigenvalues --    0.94083   0.94326   0.94758   0.95727   0.96607
 Alpha virt. eigenvalues --    0.96744   0.97480   0.97743   0.98676   0.99297
 Alpha virt. eigenvalues --    1.00013   1.00291   1.00745   1.00942   1.01802
 Alpha virt. eigenvalues --    1.02375   1.02852   1.04027   1.04590   1.04708
 Alpha virt. eigenvalues --    1.05974   1.06302   1.06528   1.06989   1.07160
 Alpha virt. eigenvalues --    1.07961   1.08231   1.08453   1.09131   1.11646
 Alpha virt. eigenvalues --    1.11852   1.12836   1.12962   1.13700   1.13781
 Alpha virt. eigenvalues --    1.14587   1.14774   1.16722   1.17116   1.17379
 Alpha virt. eigenvalues --    1.17986   1.18742   1.19125   1.19436   1.21016
 Alpha virt. eigenvalues --    1.21426   1.22436   1.22538   1.23877   1.23943
 Alpha virt. eigenvalues --    1.24559   1.24880   1.25636   1.28761   1.29171
 Alpha virt. eigenvalues --    1.36314   1.39572   1.40601   1.41430   1.42059
 Alpha virt. eigenvalues --    1.45896   1.46998   1.47386   1.52620   1.55918
 Alpha virt. eigenvalues --    1.56561   1.58204   1.58364   1.58703   1.59095
 Alpha virt. eigenvalues --    1.59265   1.59919   1.60557   1.60862   1.61217
 Alpha virt. eigenvalues --    1.61712   1.62152   1.62672   1.63431   1.63587
 Alpha virt. eigenvalues --    1.64380   1.65567   1.65694   1.65941   1.66347
 Alpha virt. eigenvalues --    1.66608   1.66921   1.67838   1.68574   1.68760
 Alpha virt. eigenvalues --    1.69278   1.72434   1.73244   1.73981   1.74229
 Alpha virt. eigenvalues --    1.74372   1.75206   1.75508   1.76059   1.76350
 Alpha virt. eigenvalues --    1.77581   1.77979   1.80646   1.81498   1.82477
 Alpha virt. eigenvalues --    1.82799   1.82873   1.83827   1.84647   1.84968
 Alpha virt. eigenvalues --    1.86180   1.86332   1.86435   1.86839   1.87204
 Alpha virt. eigenvalues --    1.87798   1.90084   1.92158   1.92635   1.93269
 Alpha virt. eigenvalues --    1.93860   1.94258   1.97005   1.99788   1.99861
 Alpha virt. eigenvalues --    2.00535   2.00913   2.01720   2.02437   2.02897
 Alpha virt. eigenvalues --    2.03046   2.03333   2.03957   2.04416   2.04640
 Alpha virt. eigenvalues --    2.04766   2.04869   2.05635   2.05792   2.06045
 Alpha virt. eigenvalues --    2.07134   2.07278   2.07921   2.08848   2.09280
 Alpha virt. eigenvalues --    2.10766   2.11869   2.12525   2.13101   2.13227
 Alpha virt. eigenvalues --    2.14082   2.15712   2.15984   2.16813   2.17854
 Alpha virt. eigenvalues --    2.17910   2.18847   2.19918   2.20421   2.20869
 Alpha virt. eigenvalues --    2.23971   2.28482   2.30816   2.33945   2.35493
 Alpha virt. eigenvalues --    2.36713   2.36744   2.38710   2.39920   2.43472
 Alpha virt. eigenvalues --    2.44190   2.44467   2.46386   2.47037   2.49104
 Alpha virt. eigenvalues --    2.51553   2.52744   2.53007   2.53361   2.54555
 Alpha virt. eigenvalues --    2.55395   2.56143   2.56459   2.56718   2.58351
 Alpha virt. eigenvalues --    2.58497   2.58652   2.61982   2.62894   2.63177
 Alpha virt. eigenvalues --    2.72693   2.73083   2.73305   2.75782   2.76102
 Alpha virt. eigenvalues --    2.76408   2.77005   2.78561   2.79121   2.79572
 Alpha virt. eigenvalues --    2.80054   2.80274   2.80416   2.80486   2.80890
 Alpha virt. eigenvalues --    2.81508   2.82177   2.82649   2.82991   2.83571
 Alpha virt. eigenvalues --    2.83842   2.84099   2.85648   2.86560   2.87042
 Alpha virt. eigenvalues --    2.87523   2.88756   2.89123   2.89908   2.91162
 Alpha virt. eigenvalues --    2.92136   2.92402   2.92728   2.92915   2.93241
 Alpha virt. eigenvalues --    2.93424   2.94189   2.94748   2.95325   2.97698
 Alpha virt. eigenvalues --    2.99512   3.00162   3.00927   3.01737   3.02716
 Alpha virt. eigenvalues --    3.04404   3.04533   3.04880   3.05064   3.05452
 Alpha virt. eigenvalues --    3.05990   3.06290   3.07036   3.07898   3.11478
 Alpha virt. eigenvalues --    3.11952   3.15721   3.17853   3.19578   3.19820
 Alpha virt. eigenvalues --    3.21113   3.22843   3.25341   3.32019   3.32148
 Alpha virt. eigenvalues --    3.32554   3.33568   3.34881   3.35265   3.37458
 Alpha virt. eigenvalues --    3.47261   3.47795   3.48946   3.49358   3.49587
 Alpha virt. eigenvalues --    3.49677   3.53634   3.53910   3.60755   3.61103
 Alpha virt. eigenvalues --    3.62059   3.63108   3.65007   3.65558   3.66141
 Alpha virt. eigenvalues --    3.73639   3.73732   3.76040   3.76391   3.76750
 Alpha virt. eigenvalues --    3.77402   3.90173   3.91872   3.92784   4.09818
 Alpha virt. eigenvalues --    4.10120   4.10554   4.14485   4.14536   4.14607
 Alpha virt. eigenvalues --    4.24108   4.24303   4.26197   4.26272   4.26746
 Alpha virt. eigenvalues --    4.26951   4.28394   4.29463   4.51599   4.66948
 Alpha virt. eigenvalues --    4.69681   4.93438   4.95246   4.95682   4.98787
 Alpha virt. eigenvalues --   23.67998  23.80891  23.81768  23.88075  24.08504
 Alpha virt. eigenvalues --   24.08521  24.10691  24.10914  24.11011  24.11590
 Alpha virt. eigenvalues --   24.12483  24.13040  24.20575  24.20664  24.21183
 Alpha virt. eigenvalues --   24.23766  24.24263  24.24360  24.24471  24.24642
 Alpha virt. eigenvalues --   24.31227  24.33800  24.33804  24.34683
          Condensed to atoms (all electrons):
               1          2          3          4          5          6
     1  C   17.637271   0.652970   0.144266  -5.623980  -0.083591   1.236254
     2  C    0.652970  10.857062  -0.092714   1.195396   0.387093  -1.965836
     3  C    0.144266  -0.092714  13.509939  -2.246535   0.119620  -2.453472
     4  C   -5.623980   1.195396  -2.246535  19.611088  -0.017089  -0.548259
     5  H   -0.083591   0.387093   0.119620  -0.017089   0.671186  -0.084617
     6  C    1.236254  -1.965836  -2.453472  -0.548259  -0.084617  14.012674
     7  C   -5.531362  -1.390721   1.469807  -6.961985   0.039452  -0.876348
     8  H   -0.171885   0.039853   0.304052   0.080730   0.002301   0.034410
     9  C   -1.740692   0.728938   0.735360  -0.124598   0.117785  -1.804998
    10  C   -0.320155  -2.187449  -1.710675   0.488161  -0.034242   0.963907
    11  C   -0.145520   3.012764  -3.598946   0.860990  -0.032226  -0.833579
    12  C   -1.100363  -3.139635   3.633526  -0.977041   0.007646  -1.363237
    13  C   -0.510344  -1.670405  -2.548076   0.058808  -0.037469   1.380245
    14  H    0.079356  -0.011329   0.059739  -0.028716  -0.002161  -0.020233
    15  C    0.512190   1.864830  -0.196339   0.073407  -0.145744   0.231035
    16  C   -0.610140  -1.891321   0.113054  -1.501376   0.042356   0.062185
    17  C   -0.268102   0.156526   0.290801   0.164070   0.047440  -2.109166
    18  H   -0.005578   0.010053  -0.091905  -0.027727  -0.040624  -0.028879
    19  C    0.131292   0.058215  -0.071421   0.010734  -0.020745  -1.318700
    20  H    0.094922  -0.013525  -0.031528  -0.010471  -0.003953  -0.028791
    21  C    1.789050  -0.261198   2.284942  -0.721822  -0.012743  -0.128213
    22  C   -1.229857   0.209499  -2.703045   1.387800   0.005035   0.137168
    23  C    0.357406   0.464954   0.110115  -0.011767   0.015001   0.039235
    24  H   -0.034612   0.002119  -0.026505   0.026762  -0.030045   0.033367
    25  C   -0.103152  -0.049927   0.061806   0.123390   0.006476  -0.096030
    26  H    0.007038   0.000271  -0.010633   0.117512  -0.003983   0.017024
    27  C   -0.151233  -0.026458  -0.096601  -0.082455   0.017770  -0.086592
    28  H    0.005607  -0.003336   0.010817   0.004398   0.001153   0.007335
    29  H   -0.002922  -0.001148   0.004242   0.002434   0.000058   0.003729
    30  C    0.350356   0.080565   0.603361  -0.243090   0.001394  -0.045963
    31  H   -0.059173  -0.022876  -0.061786   0.019446   0.000081   0.006571
    32  C   -0.125278   0.069754   0.260828   0.213796   0.002489  -0.071399
    33  H    0.006361  -0.018126  -0.025156  -0.092097   0.000232   0.014445
    34  C   -0.072740  -0.084975  -0.036809  -0.262983   0.012497   0.037369
    35  H    0.006566   0.000385   0.001219   0.006623  -0.000600  -0.001798
    36  H    0.000928  -0.000038   0.000649  -0.005459   0.000074  -0.001177
    37  H   -0.003035   0.000651  -0.004232   0.000068  -0.000265   0.030146
    38  C   -0.009236  -0.027098  -0.183176   0.046661  -0.000702   0.046823
    39  H    0.004067   0.000383   0.007612   0.000034  -0.000009  -0.003587
    40  H    0.000823   0.000520   0.007574   0.004973  -0.000006  -0.001225
    41  H    0.000510  -0.001611  -0.000940  -0.007679  -0.000253   0.000974
    42  H    0.000430  -0.000799  -0.007739   0.001451  -0.000011   0.001228
               7          8          9         10         11         12
     1  C   -5.531362  -0.171885  -1.740692  -0.320155  -0.145520  -1.100363
     2  C   -1.390721   0.039853   0.728938  -2.187449   3.012764  -3.139635
     3  C    1.469807   0.304052   0.735360  -1.710675  -3.598946   3.633526
     4  C   -6.961985   0.080730  -0.124598   0.488161   0.860990  -0.977041
     5  H    0.039452   0.002301   0.117785  -0.034242  -0.032226   0.007646
     6  C   -0.876348   0.034410  -1.804998   0.963907  -0.833579  -1.363237
     7  C   19.281134   0.078960   1.449825  -0.858551  -0.726871   1.084526
     8  H    0.078960   0.538296   0.062584  -0.016145   0.051221  -0.132787
     9  C    1.449825   0.062584  13.173004  -3.149007   0.157393   0.169959
    10  C   -0.858551  -0.016145  -3.149007  15.326452   0.203102  -0.033840
    11  C   -0.726871   0.051221   0.157393   0.203102  15.264864  -7.725615
    12  C    1.084526  -0.132787   0.169959  -0.033840  -7.725615  16.853710
    13  C   -0.192899   0.059850  -2.590559   1.403964   0.126445  -0.345147
    14  H   -0.065389  -0.003282   0.328745   0.052582  -0.011561   0.012969
    15  C   -0.945903  -0.002890  -2.892190  -0.278368  -0.416116   0.056101
    16  C    1.335690   0.002699   2.251441  -1.321818   0.134951  -0.026719
    17  C    0.066896   0.024320   0.055911   0.043657  -0.141976   0.116440
    18  H   -0.008009  -0.003255  -0.012137   0.032824   0.561030  -0.050854
    19  C    0.084534  -0.029641   0.023708  -0.054683   0.396521  -0.641404
    20  H   -0.114687  -0.001951  -0.010046   0.011279  -0.004519   0.470482
    21  C   -1.816757  -0.192260  -1.828723   0.110334  -0.145962   0.464002
    22  C   -0.362754   0.129032   1.716062  -0.002516   0.118680  -0.266011
    23  C   -0.073650  -0.003102   0.380596  -2.160753  -0.114155   0.042054
    24  H   -0.014950  -0.000132  -0.100171  -0.023828  -0.008993   0.002147
    25  C    0.346884   0.003148   0.529551  -1.707630   0.054833  -0.016082
    26  H   -0.121953  -0.000129  -0.066176   0.012132  -0.010431   0.006182
    27  C   -0.057828  -0.008003  -0.003554   0.023395  -0.576179  -0.355051
    28  H    0.004322   0.000416   0.000084  -0.001768  -0.087459   0.023005
    29  H    0.006664  -0.000911  -0.000120  -0.000481   0.006355  -0.061525
    30  C    0.072367  -0.019547   0.094925  -0.076375   0.024585  -0.034336
    31  H    0.042604   0.000195  -0.021670   0.014445  -0.008522   0.020850
    32  C    0.022711  -0.003977   0.367485  -0.098900  -0.021075   0.050965
    33  H    0.108790  -0.001114  -0.075239   0.005167   0.008523  -0.011153
    34  C   -0.056456   0.000417  -0.273065  -0.056514  -0.016170  -0.001264
    35  H    0.004372  -0.000056   0.015943   0.019909   0.000474   0.000415
    36  H    0.010877  -0.000015   0.013678   0.005068   0.000750  -0.000124
    37  H   -0.000325   0.000174  -0.000375   0.000687   0.004936  -0.024237
    38  C   -0.318341   0.004235  -0.087129   0.061298   0.004229  -0.021258
    39  H    0.004097  -0.000917   0.005699  -0.001350  -0.000241   0.002025
    40  H    0.000116  -0.000111   0.010451  -0.004681  -0.000306   0.000873
    41  H   -0.000688  -0.000000  -0.009236   0.029943  -0.000271   0.000025
    42  H   -0.008647   0.000290  -0.005676   0.001485   0.000108  -0.000575
              13         14         15         16         17         18
     1  C   -0.510344   0.079356   0.512190  -0.610140  -0.268102  -0.005578
     2  C   -1.670405  -0.011329   1.864830  -1.891321   0.156526   0.010053
     3  C   -2.548076   0.059739  -0.196339   0.113054   0.290801  -0.091905
     4  C    0.058808  -0.028716   0.073407  -1.501376   0.164070  -0.027727
     5  H   -0.037469  -0.002161  -0.145744   0.042356   0.047440  -0.040624
     6  C    1.380245  -0.020233   0.231035   0.062185  -2.109166  -0.028879
     7  C   -0.192899  -0.065389  -0.945903   1.335690   0.066896  -0.008009
     8  H    0.059850  -0.003282  -0.002890   0.002699   0.024320  -0.003255
     9  C   -2.590559   0.328745  -2.892190   2.251441   0.055911  -0.012137
    10  C    1.403964   0.052582  -0.278368  -1.321818   0.043657   0.032824
    11  C    0.126445  -0.011561  -0.416116   0.134951  -0.141976   0.561030
    12  C   -0.345147   0.012969   0.056101  -0.026719   0.116440  -0.050854
    13  C   15.641337   0.031531   0.164282  -0.046496  -0.002829   0.014855
    14  H    0.031531   0.494940   0.066203  -0.121439  -0.003402  -0.000117
    15  C    0.164282   0.066203  17.428202  -8.705110  -0.111560  -0.014253
    16  C   -0.046496  -0.121439  -8.705110  17.369286   0.035662   0.016805
    17  C   -0.002829  -0.003402  -0.111560   0.035662   8.362058  -0.072234
    18  H    0.014855  -0.000117  -0.014253   0.016805  -0.072234   0.528419
    19  C   -0.133752   0.003714   0.043009  -0.017134  -0.886594   0.008192
    20  H   -0.044069  -0.000027  -0.010070   0.006334  -0.011469   0.001431
    21  C   -1.297544   0.091863   0.099585  -0.137417  -0.005160  -0.000216
    22  C   -1.021511  -0.154598  -0.101713   0.211718   0.006769   0.001126
    23  C   -0.042603   0.024985  -1.149934   0.195754  -0.019646  -0.009332
    24  H    0.018293  -0.001460   0.624888  -0.078922  -0.006967   0.004531
    25  C   -0.135474  -0.014329   0.007943  -0.695123   0.004716   0.000665
    26  H   -0.001368   0.001706  -0.012933   0.435825  -0.000660   0.000214
    27  C    0.012170   0.000379  -0.017902   0.002780   0.504308   0.008572
    28  H   -0.000790  -0.000049   0.000566   0.000010   0.423806  -0.012885
    29  H   -0.000779  -0.000019   0.000481  -0.000109   0.008777  -0.000081
    30  C   -1.903824   0.012314  -0.023263   0.036933   0.005354  -0.000177
    31  H    0.034178  -0.001551   0.007341  -0.006711   0.000869  -0.000075
    32  C   -1.721022  -0.008882   0.005136  -0.021893  -0.001380  -0.000585
    33  H   -0.003924  -0.002443  -0.006333   0.026986   0.000226   0.000328
    34  C    0.045583  -0.004516   0.072826  -0.338643  -0.001182  -0.001641
    35  H   -0.001444   0.000385  -0.127092   0.022556  -0.000083   0.000107
    36  H   -0.003231  -0.001147   0.001384  -0.080706   0.000045   0.000033
    37  H    0.000670  -0.000000  -0.000337   0.000088  -0.073332   0.000858
    38  C   -0.240158  -0.004160   0.009946  -0.023142  -0.000034   0.000122
    39  H    0.017235   0.000264  -0.000390   0.000637  -0.000023   0.000004
    40  H    0.025476  -0.000367  -0.000721   0.002151   0.000007  -0.000007
    41  H    0.001247   0.000225   0.020486  -0.009454  -0.000021   0.000026
    42  H    0.024916  -0.000025   0.000218  -0.000557   0.000001   0.000003
              19         20         21         22         23         24
     1  C    0.131292   0.094922   1.789050  -1.229857   0.357406  -0.034612
     2  C    0.058215  -0.013525  -0.261198   0.209499   0.464954   0.002119
     3  C   -0.071421  -0.031528   2.284942  -2.703045   0.110115  -0.026505
     4  C    0.010734  -0.010471  -0.721822   1.387800  -0.011767   0.026762
     5  H   -0.020745  -0.003953  -0.012743   0.005035   0.015001  -0.030045
     6  C   -1.318700  -0.028791  -0.128213   0.137168   0.039235   0.033367
     7  C    0.084534  -0.114687  -1.816757  -0.362754  -0.073650  -0.014950
     8  H   -0.029641  -0.001951  -0.192260   0.129032  -0.003102  -0.000132
     9  C    0.023708  -0.010046  -1.828723   1.716062   0.380596  -0.100171
    10  C   -0.054683   0.011279   0.110334  -0.002516  -2.160753  -0.023828
    11  C    0.396521  -0.004519  -0.145962   0.118680  -0.114155  -0.008993
    12  C   -0.641404   0.470482   0.464002  -0.266011   0.042054   0.002147
    13  C   -0.133752  -0.044069  -1.297544  -1.021511  -0.042603   0.018293
    14  H    0.003714  -0.000027   0.091863  -0.154598   0.024985  -0.001460
    15  C    0.043009  -0.010070   0.099585  -0.101713  -1.149934   0.624888
    16  C   -0.017134   0.006334  -0.137417   0.211718   0.195754  -0.078922
    17  C   -0.886594  -0.011469  -0.005160   0.006769  -0.019646  -0.006967
    18  H    0.008192   0.001431  -0.000216   0.001126  -0.009332   0.004531
    19  C    8.008366  -0.020024   0.041110  -0.014794   0.001174   0.001958
    20  H   -0.020024   0.546780   0.061097  -0.025943  -0.000753   0.000230
    21  C    0.041110   0.061097  17.039879  -8.900513   0.001964   0.004230
    22  C   -0.014794  -0.025943  -8.900513  18.030589   0.002587  -0.003449
    23  C    0.001174  -0.000753   0.001964   0.002587   8.663659  -0.113524
    24  H    0.001958   0.000230   0.004230  -0.003449  -0.113524   0.493764
    25  C    0.000808   0.000306  -0.003240  -0.002267  -0.508889  -0.008286
    26  H    0.000201   0.000200  -0.005635   0.021207  -0.013786   0.001352
    27  C    0.395765   0.025152  -0.002635   0.000313   0.000152  -0.001647
    28  H    0.004928  -0.000561   0.000217  -0.000051  -0.000018  -0.000088
    29  H    0.408161  -0.013161   0.000357   0.000082  -0.000003   0.000023
    30  C   -0.015544   0.010629  -0.244568  -0.371242  -0.000533  -0.000637
    31  H   -0.004760  -0.005799   0.445047  -0.003985   0.000107   0.000338
    32  C    0.004894   0.002299   0.258916  -0.912363   0.008371  -0.000932
    33  H   -0.001266  -0.000341  -0.060319   0.508500   0.000095  -0.000059
    34  C   -0.000285  -0.000114   0.002360  -0.008676   0.068812   0.026488
    35  H    0.000000   0.000012  -0.000063   0.000258   0.452392  -0.011687
    36  H    0.000001  -0.000001  -0.000325   0.001389   0.013146  -0.000167
    37  H   -0.062789   0.000974  -0.000333   0.000101  -0.000016   0.000018
    38  C   -0.002997  -0.000340  -0.360149   0.165662  -0.000640   0.000308
    39  H    0.000587   0.000454  -0.092431  -0.004850   0.000023  -0.000014
    40  H    0.000033   0.000108   0.011980  -0.107653   0.000034  -0.000005
    41  H   -0.000006   0.000001   0.000130  -0.000421  -0.082785   0.001030
    42  H   -0.000108  -0.000103   0.001795   0.024318  -0.000009   0.000006
              25         26         27         28         29         30
     1  C   -0.103152   0.007038  -0.151233   0.005607  -0.002922   0.350356
     2  C   -0.049927   0.000271  -0.026458  -0.003336  -0.001148   0.080565
     3  C    0.061806  -0.010633  -0.096601   0.010817   0.004242   0.603361
     4  C    0.123390   0.117512  -0.082455   0.004398   0.002434  -0.243090
     5  H    0.006476  -0.003983   0.017770   0.001153   0.000058   0.001394
     6  C   -0.096030   0.017024  -0.086592   0.007335   0.003729  -0.045963
     7  C    0.346884  -0.121953  -0.057828   0.004322   0.006664   0.072367
     8  H    0.003148  -0.000129  -0.008003   0.000416  -0.000911  -0.019547
     9  C    0.529551  -0.066176  -0.003554   0.000084  -0.000120   0.094925
    10  C   -1.707630   0.012132   0.023395  -0.001768  -0.000481  -0.076375
    11  C    0.054833  -0.010431  -0.576179  -0.087459   0.006355   0.024585
    12  C   -0.016082   0.006182  -0.355051   0.023005  -0.061525  -0.034336
    13  C   -0.135474  -0.001368   0.012170  -0.000790  -0.000779  -1.903824
    14  H   -0.014329   0.001706   0.000379  -0.000049  -0.000019   0.012314
    15  C    0.007943  -0.012933  -0.017902   0.000566   0.000481  -0.023263
    16  C   -0.695123   0.435825   0.002780   0.000010  -0.000109   0.036933
    17  C    0.004716  -0.000660   0.504308   0.423806   0.008777   0.005354
    18  H    0.000665   0.000214   0.008572  -0.012885  -0.000081  -0.000177
    19  C    0.000808   0.000201   0.395765   0.004928   0.408161  -0.015544
    20  H    0.000306   0.000200   0.025152  -0.000561  -0.013161   0.010629
    21  C   -0.003240  -0.005635  -0.002635   0.000217   0.000357  -0.244568
    22  C   -0.002267   0.021207   0.000313  -0.000051   0.000082  -0.371242
    23  C   -0.508889  -0.013786   0.000152  -0.000018  -0.000003  -0.000533
    24  H   -0.008286   0.001352  -0.001647  -0.000088   0.000023  -0.000637
    25  C    7.980859  -0.067417  -0.000308   0.000015  -0.000000   0.007383
    26  H   -0.067417   0.497132  -0.000133   0.000024  -0.000001   0.000424
    27  C   -0.000308  -0.000133   6.565111  -0.067806  -0.056396  -0.003446
    28  H    0.000015   0.000024  -0.067806   0.476554   0.001253   0.000014
    29  H   -0.000000  -0.000001  -0.056396   0.001253   0.474459   0.000242
    30  C    0.007383   0.000424  -0.003446   0.000014   0.000242   7.897581
    31  H   -0.001360   0.000002  -0.000787   0.000037   0.000432  -0.092857
    32  C   -0.025152   0.002120   0.000557   0.000008  -0.000100  -0.358494
    33  H   -0.003231  -0.005199   0.000099  -0.000013   0.000007  -0.018545
    34  C    0.261878   0.017347  -0.000181   0.000085   0.000006  -0.000422
    35  H    0.010934  -0.000543   0.000081  -0.000016  -0.000001   0.000029
    36  H    0.424195  -0.010495   0.000005  -0.000002  -0.000000   0.000002
    37  H   -0.000008   0.000001   0.469316  -0.010829  -0.010573  -0.000090
    38  C   -0.004972  -0.000379  -0.000273   0.000002   0.000077   0.270834
    39  H    0.000039   0.000054   0.000057  -0.000001  -0.000030   0.432124
    40  H    0.000593   0.000444   0.000004   0.000000  -0.000002   0.019281
    41  H   -0.069814   0.001423  -0.000000   0.000001   0.000000  -0.000005
    42  H   -0.000128  -0.000042  -0.000004  -0.000000   0.000002  -0.079052
              31         32         33         34         35         36
     1  C   -0.059173  -0.125278   0.006361  -0.072740   0.006566   0.000928
     2  C   -0.022876   0.069754  -0.018126  -0.084975   0.000385  -0.000038
     3  C   -0.061786   0.260828  -0.025156  -0.036809   0.001219   0.000649
     4  C    0.019446   0.213796  -0.092097  -0.262983   0.006623  -0.005459
     5  H    0.000081   0.002489   0.000232   0.012497  -0.000600   0.000074
     6  C    0.006571  -0.071399   0.014445   0.037369  -0.001798  -0.001177
     7  C    0.042604   0.022711   0.108790  -0.056456   0.004372   0.010877
     8  H    0.000195  -0.003977  -0.001114   0.000417  -0.000056  -0.000015
     9  C   -0.021670   0.367485  -0.075239  -0.273065   0.015943   0.013678
    10  C    0.014445  -0.098900   0.005167  -0.056514   0.019909   0.005068
    11  C   -0.008522  -0.021075   0.008523  -0.016170   0.000474   0.000750
    12  C    0.020850   0.050965  -0.011153  -0.001264   0.000415  -0.000124
    13  C    0.034178  -1.721022  -0.003924   0.045583  -0.001444  -0.003231
    14  H   -0.001551  -0.008882  -0.002443  -0.004516   0.000385  -0.001147
    15  C    0.007341   0.005136  -0.006333   0.072826  -0.127092   0.001384
    16  C   -0.006711  -0.021893   0.026986  -0.338643   0.022556  -0.080706
    17  C    0.000869  -0.001380   0.000226  -0.001182  -0.000083   0.000045
    18  H   -0.000075  -0.000585   0.000328  -0.001641   0.000107   0.000033
    19  C   -0.004760   0.004894  -0.001266  -0.000285   0.000000   0.000001
    20  H   -0.005799   0.002299  -0.000341  -0.000114   0.000012  -0.000001
    21  C    0.445047   0.258916  -0.060319   0.002360  -0.000063  -0.000325
    22  C   -0.003985  -0.912363   0.508500  -0.008676   0.000258   0.001389
    23  C    0.000107   0.008371   0.000095   0.068812   0.452392   0.013146
    24  H    0.000338  -0.000932  -0.000059   0.026488  -0.011687  -0.000167
    25  C   -0.001360  -0.025152  -0.003231   0.261878   0.010934   0.424195
    26  H    0.000002   0.002120  -0.005199   0.017347  -0.000543  -0.010495
    27  C   -0.000787   0.000557   0.000099  -0.000181   0.000081   0.000005
    28  H    0.000037   0.000008  -0.000013   0.000085  -0.000016  -0.000002
    29  H    0.000432  -0.000100   0.000007   0.000006  -0.000001  -0.000000
    30  C   -0.092857  -0.358494  -0.018545  -0.000422   0.000029   0.000002
    31  H    0.494086  -0.014171   0.000775   0.000233  -0.000015  -0.000005
    32  C   -0.014171   7.976231  -0.074839  -0.005216   0.000056   0.000397
    33  H    0.000775  -0.074839   0.498015   0.000364   0.000027   0.000343
    34  C    0.000233  -0.005216   0.000364   6.731313  -0.081486  -0.058190
    35  H   -0.000015   0.000056   0.000027  -0.081486   0.475719   0.000989
    36  H   -0.000005   0.000397   0.000343  -0.058190   0.000989   0.472595
    37  H   -0.000029   0.000009   0.000003  -0.000001   0.000001   0.000000
    38  C    0.018638   0.205633   0.029965   0.000194  -0.000008   0.000033
    39  H   -0.011817   0.017468  -0.000744  -0.000005   0.000000  -0.000001
    40  H   -0.000592   0.429632  -0.013075   0.000014  -0.000001  -0.000027
    41  H    0.000005  -0.000120  -0.000018   0.464812  -0.010469  -0.010557
    42  H    0.001677  -0.089122   0.002334   0.000007  -0.000000   0.000000
              37         38         39         40         41         42
     1  C   -0.003035  -0.009236   0.004067   0.000823   0.000510   0.000430
     2  C    0.000651  -0.027098   0.000383   0.000520  -0.001611  -0.000799
     3  C   -0.004232  -0.183176   0.007612   0.007574  -0.000940  -0.007739
     4  C    0.000068   0.046661   0.000034   0.004973  -0.007679   0.001451
     5  H   -0.000265  -0.000702  -0.000009  -0.000006  -0.000253  -0.000011
     6  C    0.030146   0.046823  -0.003587  -0.001225   0.000974   0.001228
     7  C   -0.000325  -0.318341   0.004097   0.000116  -0.000688  -0.008647
     8  H    0.000174   0.004235  -0.000917  -0.000111  -0.000000   0.000290
     9  C   -0.000375  -0.087129   0.005699   0.010451  -0.009236  -0.005676
    10  C    0.000687   0.061298  -0.001350  -0.004681   0.029943   0.001485
    11  C    0.004936   0.004229  -0.000241  -0.000306  -0.000271   0.000108
    12  C   -0.024237  -0.021258   0.002025   0.000873   0.000025  -0.000575
    13  C    0.000670  -0.240158   0.017235   0.025476   0.001247   0.024916
    14  H   -0.000000  -0.004160   0.000264  -0.000367   0.000225  -0.000025
    15  C   -0.000337   0.009946  -0.000390  -0.000721   0.020486   0.000218
    16  C    0.000088  -0.023142   0.000637   0.002151  -0.009454  -0.000557
    17  C   -0.073332  -0.000034  -0.000023   0.000007  -0.000021   0.000001
    18  H    0.000858   0.000122   0.000004  -0.000007   0.000026   0.000003
    19  C   -0.062789  -0.002997   0.000587   0.000033  -0.000006  -0.000108
    20  H    0.000974  -0.000340   0.000454   0.000108   0.000001  -0.000103
    21  C   -0.000333  -0.360149  -0.092431   0.011980   0.000130   0.001795
    22  C    0.000101   0.165662  -0.004850  -0.107653  -0.000421   0.024318
    23  C   -0.000016  -0.000640   0.000023   0.000034  -0.082785  -0.000009
    24  H    0.000018   0.000308  -0.000014  -0.000005   0.001030   0.000006
    25  C   -0.000008  -0.004972   0.000039   0.000593  -0.069814  -0.000128
    26  H    0.000001  -0.000379   0.000054   0.000444   0.001423  -0.000042
    27  C    0.469316  -0.000273   0.000057   0.000004  -0.000000  -0.000004
    28  H   -0.010829   0.000002  -0.000001   0.000000   0.000001  -0.000000
    29  H   -0.010573   0.000077  -0.000030  -0.000002   0.000000   0.000002
    30  C   -0.000090   0.270834   0.432124   0.019281  -0.000005  -0.079052
    31  H   -0.000029   0.018638  -0.011817  -0.000592   0.000005   0.001677
    32  C    0.000009   0.205633   0.017468   0.429632  -0.000120  -0.089122
    33  H    0.000003   0.029965  -0.000744  -0.013075  -0.000018   0.002334
    34  C   -0.000001   0.000194  -0.000005   0.000014   0.464812   0.000007
    35  H    0.000001  -0.000008   0.000000  -0.000001  -0.010469  -0.000000
    36  H    0.000000   0.000033  -0.000001  -0.000027  -0.010557   0.000000
    37  H    0.487641  -0.000002   0.000000   0.000000   0.000000   0.000000
    38  C   -0.000002   6.537190  -0.064406  -0.076309   0.000006   0.472945
    39  H    0.000000  -0.064406   0.475428   0.001294  -0.000000  -0.011608
    40  H    0.000000  -0.076309   0.001294   0.476048  -0.000000  -0.012651
    41  H    0.000000   0.000006  -0.000000  -0.000000   0.485416   0.000000
    42  H    0.000000   0.472945  -0.011608  -0.012651   0.000000   0.488022
 Mulliken charges:
               1
     1  C    0.885285
     2  C   -0.932275
     3  C   -1.535095
     4  C    0.996394
     5  H    0.053940
     6  C    1.575976
     7  C    0.990447
     8  H    0.174929
     9  C   -1.593768
    10  C    1.289940
    11  C   -0.366061
    12  C   -0.689643
    13  C    1.434630
    14  H    0.199303
    15  C   -0.130896
    16  C   -0.671672
    17  C   -0.602840
    18  H    0.190374
    19  C   -0.331257
    20  H    0.119554
    21  C   -0.490633
    22  C   -0.479685
    23  C   -0.536719
    24  H    0.225228
    25  C   -0.313604
    26  H    0.192064
    27  C   -0.430510
    28  H    0.221014
    29  H    0.230522
    30  C   -0.388684
    31  H    0.210585
    32  C   -0.344855
    33  H    0.201650
    34  C   -0.381070
    35  H    0.215910
    36  H    0.225085
    37  H    0.194466
    38  C   -0.449889
    39  H    0.222840
    40  H    0.225313
    41  H    0.198089
    42  H    0.195618
 Sum of Mulliken charges =  -0.00000
 Mulliken charges with hydrogens summed into heavy atoms:
               1
     1  C    0.885285
     2  C   -0.878335
     3  C   -1.360166
     4  C    0.996394
     6  C    1.575976
     7  C    0.990447
     9  C   -1.394465
    10  C    1.289940
    11  C   -0.175687
    12  C   -0.570090
    13  C    1.434630
    15  C    0.094332
    16  C   -0.479608
    17  C   -0.381826
    19  C   -0.100735
    21  C   -0.280048
    22  C   -0.278034
    23  C   -0.320809
    25  C   -0.088519
    27  C   -0.236044
    30  C   -0.165844
    32  C   -0.119542
    34  C   -0.182981
    38  C   -0.254271
 Electronic spatial extent (au):  <R**2>=          10005.7334
 Charge=             -0.0000 electrons
 Dipole moment (field-independent basis, Debye):
    X=             -0.0111    Y=             -0.0027    Z=              0.0018  Tot=              0.0115
 Quadrupole moment (field-independent basis, Debye-Ang):
   XX=           -124.8311   YY=           -126.1853   ZZ=           -143.1073
   XY=              0.0429   XZ=              3.5979   YZ=              5.9321
 Traceless Quadrupole moment (field-independent basis, Debye-Ang):
   XX=              6.5434   YY=              5.1893   ZZ=            -11.7327
   XY=              0.0429   XZ=              3.5979   YZ=              5.9321
 Octapole moment (field-independent basis, Debye-Ang**2):
  XXX=             -4.5808  YYY=             34.1045  ZZZ=              0.8448  XYY=              7.6058
  XXY=            -28.4792  XXZ=             34.8803  XZZ=             -2.8507  YZZ=             -5.7620
  YYZ=            -35.7244  XYZ=             11.5143
 Hexadecapole moment (field-independent basis, Debye-Ang**3):
 XXXX=          -6309.6625 YYYY=          -6257.0258 ZZZZ=           -482.5481 XXXY=              9.6620
 XXXZ=             13.0280 YYYX=              1.9196 YYYZ=             85.3595 ZZZX=              4.8911
 ZZZY=             21.9580 XXYY=          -2055.3044 XXZZ=          -1228.3250 YYZZ=          -1258.5578
 XXYZ=             44.1052 YYXZ=             73.9491 ZZXY=             -9.9561
 N-N= 1.733431222212D+03 E-N=-5.613242887118D+03  KE= 9.213023700258D+02
 No NMR shielding tensors so no spin-rotation constants.
 Leave Link  601 at Mon Nov 14 15:12:07 2022, MaxMem= 16106127360 cpu:               9.0 elap:               0.3
 (Enter /opt/ap/G16/B01/g16/l9999.exe)
 1\1\GINC-N59\SP\RwB97XD\6-311++G(d,p)\C24H18\ROOT\14-Nov-2022\0\\#P wB
 97XD/6-311++G(d,p) scf=maxcycle=512\\_conf012.gjf nmol_natom 1_42\\0,1
 \C\C,1,1.39412829\C,1,1.39435449,2,118.86443127\C,2,1.39416084,1,121.1
 529487,3,0.03668482,0\H,2,1.08488355,1,119.42236619,3,-179.97409048,0\
 C,1,1.48467131,2,120.55714816,4,179.25839056,0\C,3,1.39437784,1,121.11
 776116,2,-0.05351271,0\H,3,1.08487775,1,119.41869036,2,177.23008049,0\
 C,4,1.39432447,2,118.86473838,1,0.01008406,0\C,4,1.48466627,2,120.5464
 188,1,179.19454736,0\C,6,1.3968498,1,120.7843492,2,-30.,0\C,6,1.396868
 2,1,120.67653841,2,150.,0\C,7,1.48449863,3,120.56496838,1,-179.9632580
 4,0\H,9,1.0848792,4,119.41824946,2,177.22245984,0\C,10,1.39685361,4,12
 0.76946845,2,-42.52368674,0\C,10,1.39686289,4,120.69448769,2,137.43107
 516,0\C,11,1.38888939,6,120.7380073,1,179.94058542,0\H,11,1.0847641,6,
 119.46912378,1,-1.41050605,0\C,12,1.38882428,6,120.76493111,1,-179.950
 82712,0\H,12,1.08482758,6,119.44182626,1,-1.23602505,0\C,13,1.39682899
 ,7,120.74134419,3,42.89023273,0\C,13,1.39683158,7,120.7379111,3,-137.1
 2494058,0\C,15,1.38888263,10,120.742191,4,179.9460119,0\H,15,1.0847633
 4,10,119.47085903,4,-1.40606944,0\C,16,1.38886088,10,120.76338989,4,-1
 79.95592713,0\H,16,1.08483431,10,119.44215232,4,-1.23439681,0\C,17,1.3
 9007919,11,120.20743432,6,0.00349958,0\H,17,1.0843506,11,119.71318733,
 6,179.5011609,0\H,19,1.08435858,12,119.73823132,6,179.53683762,0\C,21,
 1.38882373,13,120.76699356,7,179.99297883,0\H,21,1.0847938,13,119.4352
 623,7,1.32183327,0\C,22,1.38881869,13,120.76647403,7,-179.97118338,0\H
 ,22,1.08479982,13,119.43203605,7,1.34657928,0\C,23,1.39007007,15,120.2
 0732995,10,0.00573957,0\H,23,1.08434813,15,119.71220819,10,179.5072436
 8,0\H,25,1.08436328,16,119.73539424,10,179.53636455,0\H,27,1.08412515,
 17,120.21790854,11,179.98397203,0\C,30,1.39008059,21,120.18795226,13,-
 0.02169059,0\H,30,1.08435324,21,119.73787119,13,-179.52151214,0\H,32,1
 .0843543,22,119.737043,13,-179.52886928,0\H,34,1.08412314,23,120.22152
 803,15,179.98800213,0\H,38,1.08411439,30,120.21547163,21,-179.98600656
 ,0\\Version=ES64L-G16RevB.01\State=1-A\HF=-925.3110651\RMSD=8.040e-09\
 Dipole=-0.0009486,0.0006209,0.0044001\Quadrupole=3.9313301,-8.383491,4
 .4521609,-2.972896,-0.5348652,-4.6931128\PG=C01 [X(C24H18)]\\@


 SUPPORT THE RIGHT TO ARM BEARS!
 (ADD A CLAWS TO THE BILL OF RIGHTS)
 Job cpu time:       0 days  1 hours 18 minutes 58.3 seconds.
 Elapsed time:       0 days  0 hours  2 minutes 28.8 seconds.
 File lengths (MBytes):  RWF=    224 Int=      0 D2E=      0 Chk=     26 Scr=      1
 Normal termination of Gaussian 16 at Mon Nov 14 15:12:07 2022.
