 Entering Gaussian System, Link 0=g16
 Input=_conf008.gjf
 Output=_conf008.log
 Initial command:
 /opt/ap/G16/B01/g16/l1.exe "/tmp2/scr/Gau-20579.inp" -scrdir="/tmp2/scr/"
 Entering Link 1 = /opt/ap/G16/B01/g16/l1.exe PID=     20580.
  
 Copyright (c) 1988-2017, Gaussian, Inc.  All Rights Reserved.
  
 This is part of the Gaussian(R) 16 program.  It is based on
 the Gaussian(R) 09 system (copyright 2009, Gaussian, Inc.),
 the Gaussian(R) 03 system (copyright 2003, Gaussian, Inc.),
 the Gaussian(R) 98 system (copyright 1998, Gaussian, Inc.),
 the Gaussian(R) 94 system (copyright 1995, Gaussian, Inc.),
 the Gaussian 92(TM) system (copyright 1992, Gaussian, Inc.),
 the Gaussian 90(TM) system (copyright 1990, Gaussian, Inc.),
 the Gaussian 88(TM) system (copyright 1988, Gaussian, Inc.),
 the Gaussian 86(TM) system (copyright 1986, Carnegie Mellon
 University), and the Gaussian 82(TM) system (copyright 1983,
 Carnegie Mellon University). Gaussian is a federally registered
 trademark of Gaussian, Inc.
  
 This software contains proprietary and confidential information,
 including trade secrets, belonging to Gaussian, Inc.
  
 This software is provided under written license and may be
 used, copied, transmitted, or stored only in accord with that
 written license.
  
 The following legend is applicable only to US Government
 contracts under FAR:
  
                    RESTRICTED RIGHTS LEGEND
  
 Use, reproduction and disclosure by the US Government is
 subject to restrictions as set forth in subparagraphs (a)
 and (c) of the Commercial Computer Software - Restricted
 Rights clause in FAR 52.227-19.
  
 Gaussian, Inc.
 340 Quinnipiac St., Bldg. 40, Wallingford CT 06492
  
  
 ---------------------------------------------------------------
 Warning -- This program may not be used in any manner that
 competes with the business of Gaussian, Inc. or will provide
 assistance to any competitor of Gaussian, Inc.  The licensee
 of this program is prohibited from giving any competitor of
 Gaussian, Inc. access to this program.  By using this program,
 the user acknowledges that Gaussian, Inc. is engaged in the
 business of creating and licensing software in the field of
 computational chemistry and represents and warrants to the
 licensee that it is not a competitor of Gaussian, Inc. and that
 it will not use this program in any manner prohibited above.
 ---------------------------------------------------------------
  

 Cite this work as:
 Gaussian 16, Revision B.01,
 M. J. Frisch, G. W. Trucks, H. B. Schlegel, G. E. Scuseria, 
 M. A. Robb, J. R. Cheeseman, G. Scalmani, V. Barone, 
 G. A. Petersson, H. Nakatsuji, X. Li, M. Caricato, A. V. Marenich, 
 J. Bloino, B. G. Janesko, R. Gomperts, B. Mennucci, H. P. Hratchian, 
 J. V. Ortiz, A. F. Izmaylov, J. L. Sonnenberg, D. Williams-Young, 
 F. Ding, F. Lipparini, F. Egidi, J. Goings, B. Peng, A. Petrone, 
 T. Henderson, D. Ranasinghe, V. G. Zakrzewski, J. Gao, N. Rega, 
 G. Zheng, W. Liang, M. Hada, M. Ehara, K. Toyota, R. Fukuda, 
 J. Hasegawa, M. Ishida, T. Nakajima, Y. Honda, O. Kitao, H. Nakai, 
 T. Vreven, K. Throssell, J. A. Montgomery, Jr., J. E. Peralta, 
 F. Ogliaro, M. J. Bearpark, J. J. Heyd, E. N. Brothers, K. N. Kudin, 
 V. N. Staroverov, T. A. Keith, R. Kobayashi, J. Normand, 
 K. Raghavachari, A. P. Rendell, J. C. Burant, S. S. Iyengar, 
 J. Tomasi, M. Cossi, J. M. Millam, M. Klene, C. Adamo, R. Cammi, 
 J. W. Ochterski, R. L. Martin, K. Morokuma, O. Farkas, 
 J. B. Foresman, and D. J. Fox, Gaussian, Inc., Wallingford CT, 2016.
 
 ******************************************
 Gaussian 16:  ES64L-G16RevB.01 20-Dec-2017
                14-Nov-2022 
 ******************************************
 %nprocshared=32
 Will use up to   32 processors via shared memory.
 %mem=120GB
 %chk=_conf008.chk
 ----------------------------------------
 #P wB97XD/6-311++G(d,p) scf=maxcycle=512
 ----------------------------------------
 1/38=1,172=1/1;
 2/12=2,17=6,18=5,40=1/2;
 3/5=4,6=6,7=1111,11=2,25=1,30=1,74=-58/1,2,3;
 4//1;
 5/5=2,7=512,38=5/2;
 6/7=2,8=2,9=2,10=2,28=1/1;
 99/5=1,9=1/99;
 Leave Link    1 at Mon Nov 14 15:07:10 2022, MaxMem= 16106127360 cpu:               2.3 elap:               0.1
 (Enter /opt/ap/G16/B01/g16/l101.exe)
 ----------------------------
 _conf008.gjf nmol_natom 1_42
 ----------------------------
 Symbolic Z-matrix:
 Charge =  0 Multiplicity = 1
 C
 C                    1     1.39413 
 C                    1     1.39435  2     118.86443 
 C                    2     1.39416  1     121.15295  3     0.03668  0
 H                    2     1.08488  1     119.42237  3    -179.97409  0
 C                    1     1.48467  2     120.55715  4     179.25839  0
 C                    3     1.39438  1     121.11776  2    -0.05351  0
 H                    3     1.08488  1     119.41869  2     177.23008  0
 C                    4     1.39432  2     118.86474  1     0.01008  0
 C                    4     1.48467  2     120.54642  1     179.19455  0
 C                    6     1.39685  1     120.78435  2    -50.      0
 C                    6     1.39687  1     120.67654  2     130.     0
 C                    7     1.4845   3     120.56497  1    -179.96326  0
 H                    9     1.08488  4     119.41825  2     177.22246  0
 C                    10    1.39685  4     120.76947  2    -42.52369  0
 C                    10    1.39686  4     120.69449  2     137.43108  0
 C                    11    1.38889  6     120.73801  1     179.94059  0
 H                    11    1.08476  6     119.46912  1    -1.41051  0
 C                    12    1.38882  6     120.76493  1    -179.95083  0
 H                    12    1.08483  6     119.44183  1    -1.23603  0
 C                    13    1.39683  7     120.74134  3     42.89023  0
 C                    13    1.39683  7     120.73791  3    -137.12494  0
 C                    15    1.38888  10    120.74219  4     179.94601  0
 H                    15    1.08476  10    119.47086  4    -1.40607  0
 C                    16    1.38886  10    120.76339  4    -179.95593  0
 H                    16    1.08483  10    119.44215  4    -1.2344   0
 C                    17    1.39008  11    120.20743  6     0.0035   0
 H                    17    1.08435  11    119.71319  6     179.50116  0
 H                    19    1.08436  12    119.73823  6     179.53684  0
 C                    21    1.38882  13    120.76699  7     179.99298  0
 H                    21    1.08479  13    119.43526  7     1.32183  0
 C                    22    1.38882  13    120.76647  7    -179.97118  0
 H                    22    1.0848   13    119.43204  7     1.34658  0
 C                    23    1.39007  15    120.20733  10    0.00574  0
 H                    23    1.08435  15    119.71221  10    179.50724  0
 H                    25    1.08436  16    119.73539  10    179.53636  0
 H                    27    1.08413  17    120.21791  11    179.98397  0
 C                    30    1.39008  21    120.18795  13   -0.02169  0
 H                    30    1.08435  21    119.73787  13   -179.52151  0
 H                    32    1.08435  22    119.73704  13   -179.52887  0
 H                    34    1.08412  23    120.22153  15    179.988  0
 H                    38    1.08411  30    120.21547  21   -179.98601  0
 
 ITRead=  0  0  0  0  0  0  0  0  0  0  0  0  0  0  0  0  0  0  0  0
 ITRead=  0  0  0  0  0  0  0  0  0  0  0  0  0  0  0  0  0  0  0  0
 ITRead=  0  0
 MicOpt= -1 -1 -1 -1 -1 -1 -1 -1 -1 -1 -1 -1 -1 -1 -1 -1 -1 -1 -1 -1
 MicOpt= -1 -1 -1 -1 -1 -1 -1 -1 -1 -1 -1 -1 -1 -1 -1 -1 -1 -1 -1 -1
 MicOpt= -1 -1
 NAtoms=     42 NQM=       42 NQMF=       0 NMMI=      0 NMMIF=      0
                NMic=       0 NMicF=      0.
                    Isotopes and Nuclear Properties:
 (Nuclear quadrupole moments (NQMom) in fm**2, nuclear magnetic moments (NMagM)
  in nuclear magnetons)

  Atom         1           2           3           4           5           6           7           8           9          10
 IAtWgt=          12          12          12          12           1          12          12           1          12          12
 AtmWgt=  12.0000000  12.0000000  12.0000000  12.0000000   1.0078250  12.0000000  12.0000000   1.0078250  12.0000000  12.0000000
 NucSpn=           0           0           0           0           1           0           0           1           0           0
 AtZEff=  -0.0000000  -0.0000000  -0.0000000  -0.0000000  -0.0000000  -0.0000000  -0.0000000  -0.0000000  -0.0000000  -0.0000000
 NQMom=    0.0000000   0.0000000   0.0000000   0.0000000   0.0000000   0.0000000   0.0000000   0.0000000   0.0000000   0.0000000
 NMagM=    0.0000000   0.0000000   0.0000000   0.0000000   2.7928460   0.0000000   0.0000000   2.7928460   0.0000000   0.0000000
 AtZNuc=   6.0000000   6.0000000   6.0000000   6.0000000   1.0000000   6.0000000   6.0000000   1.0000000   6.0000000   6.0000000

  Atom        11          12          13          14          15          16          17          18          19          20
 IAtWgt=          12          12          12           1          12          12          12           1          12           1
 AtmWgt=  12.0000000  12.0000000  12.0000000   1.0078250  12.0000000  12.0000000  12.0000000   1.0078250  12.0000000   1.0078250
 NucSpn=           0           0           0           1           0           0           0           1           0           1
 AtZEff=  -0.0000000  -0.0000000  -0.0000000  -0.0000000  -0.0000000  -0.0000000  -0.0000000  -0.0000000  -0.0000000  -0.0000000
 NQMom=    0.0000000   0.0000000   0.0000000   0.0000000   0.0000000   0.0000000   0.0000000   0.0000000   0.0000000   0.0000000
 NMagM=    0.0000000   0.0000000   0.0000000   2.7928460   0.0000000   0.0000000   0.0000000   2.7928460   0.0000000   2.7928460
 AtZNuc=   6.0000000   6.0000000   6.0000000   1.0000000   6.0000000   6.0000000   6.0000000   1.0000000   6.0000000   1.0000000

  Atom        21          22          23          24          25          26          27          28          29          30
 IAtWgt=          12          12          12           1          12           1          12           1           1          12
 AtmWgt=  12.0000000  12.0000000  12.0000000   1.0078250  12.0000000   1.0078250  12.0000000   1.0078250   1.0078250  12.0000000
 NucSpn=           0           0           0           1           0           1           0           1           1           0
 AtZEff=  -0.0000000  -0.0000000  -0.0000000  -0.0000000  -0.0000000  -0.0000000  -0.0000000  -0.0000000  -0.0000000  -0.0000000
 NQMom=    0.0000000   0.0000000   0.0000000   0.0000000   0.0000000   0.0000000   0.0000000   0.0000000   0.0000000   0.0000000
 NMagM=    0.0000000   0.0000000   0.0000000   2.7928460   0.0000000   2.7928460   0.0000000   2.7928460   2.7928460   0.0000000
 AtZNuc=   6.0000000   6.0000000   6.0000000   1.0000000   6.0000000   1.0000000   6.0000000   1.0000000   1.0000000   6.0000000

  Atom        31          32          33          34          35          36          37          38          39          40
 IAtWgt=           1          12           1          12           1           1           1          12           1           1
 AtmWgt=   1.0078250  12.0000000   1.0078250  12.0000000   1.0078250   1.0078250   1.0078250  12.0000000   1.0078250   1.0078250
 NucSpn=           1           0           1           0           1           1           1           0           1           1
 AtZEff=  -0.0000000  -0.0000000  -0.0000000  -0.0000000  -0.0000000  -0.0000000  -0.0000000  -0.0000000  -0.0000000  -0.0000000
 NQMom=    0.0000000   0.0000000   0.0000000   0.0000000   0.0000000   0.0000000   0.0000000   0.0000000   0.0000000   0.0000000
 NMagM=    2.7928460   0.0000000   2.7928460   0.0000000   2.7928460   2.7928460   2.7928460   0.0000000   2.7928460   2.7928460
 AtZNuc=   1.0000000   6.0000000   1.0000000   6.0000000   1.0000000   1.0000000   1.0000000   6.0000000   1.0000000   1.0000000

  Atom        41          42
 IAtWgt=           1           1
 AtmWgt=   1.0078250   1.0078250
 NucSpn=           1           1
 AtZEff=  -0.0000000  -0.0000000
 NQMom=    0.0000000   0.0000000
 NMagM=    2.7928460   2.7928460
 AtZNuc=   1.0000000   1.0000000
 Leave Link  101 at Mon Nov 14 15:07:10 2022, MaxMem= 16106127360 cpu:               6.3 elap:               0.2
 (Enter /opt/ap/G16/B01/g16/l202.exe)
                          Input orientation:                          
 ---------------------------------------------------------------------
 Center     Atomic      Atomic             Coordinates (Angstroms)
 Number     Number       Type             X           Y           Z
 ---------------------------------------------------------------------
      1          6           0        0.000000    0.000000    0.000000
      2          6           0        0.000000    0.000000    1.394128
      3          6           0        1.221126    0.000000   -0.673109
      4          6           0        1.193108    0.000764    2.115362
      5          1           0       -0.944957   -0.000427    1.927071
      6          6           0       -1.278366   -0.017366   -0.754803
      7          6           0        2.428476    0.001115    0.024455
      8          1           0        1.232154   -0.045667   -1.756969
      9          6           0        2.400843    0.001752    1.418572
     10          6           0        1.177445    0.018728    3.599837
     11          6           0       -2.273580   -0.950249   -0.454025
     12          6           0       -1.511937    0.899866   -1.782116
     13          6           0        3.721572    0.001921   -0.704680
     14          1           0        3.334061    0.048144    1.969857
     15          6           0        0.290794    0.844275    4.295193
     16          6           0        2.049080   -0.790881    4.331965
     17          6           0       -3.469610   -0.964841   -1.159938
     18          1           0       -2.099010   -1.684255    0.325381
     19          6           0       -2.707503    0.885924   -2.488700
     20          1           0       -0.757313    1.643745   -2.014576
     21          6           0        3.910862    0.818865   -1.821777
     22          6           0        4.776237   -0.814044   -0.288725
     23          6           0        0.275860    0.859807    5.683909
     24          1           0       -0.377402    1.495584    3.742000
     25          6           0        2.035025   -0.775886    5.720674
     26          1           0        2.729408   -1.453102    3.807101
     27          6           0       -3.691230   -0.046307   -2.179496
     28          1           0       -4.227569   -1.701567   -0.917969
     29          1           0       -2.874293    1.610490   -3.278016
     30          6           0        5.120444    0.820149   -2.504230
     31          1           0        3.109266    1.474569   -2.144691
     32          6           0        5.986440   -0.813321   -0.970068
     33          1           0        4.638168   -1.470412    0.563864
     34          6           0        1.147946    0.049642    6.401818
     35          1           0       -0.413890    1.513063    6.206701
     36          1           0        2.713797   -1.416787    6.272362
     37          1           0       -4.624648   -0.057710   -2.730793
     38          6           0        6.162883    0.003944   -2.080611
     39          1           0        5.251831    1.466740   -3.364741
     40          1           0        6.791448   -1.459089   -0.637249
     41          1           0        1.136620    0.061726    7.485815
     42          1           0        7.107346    0.004761   -2.612865
 ---------------------------------------------------------------------
                    Distance matrix (angstroms):
                    1          2          3          4          5
     1  C    0.000000
     2  C    1.394128   0.000000
     3  C    1.394354   2.400962   0.000000
     4  C    2.428634   1.394161   2.788612   0.000000
     5  H    2.146287   1.084884   3.384206   2.146341   0.000000
     6  C    1.484671   2.500485   2.500887   3.787659   2.702572
     7  C    2.428599   2.788100   1.394378   2.428585   3.872983
     8  H    2.146445   3.383741   1.084878   3.872806   4.279487
     9  C    2.788619   2.400968   2.401430   1.394324   3.384222
    10  C    3.787552   2.500376   4.273210   1.484666   2.702426
    11  C    2.505649   3.080229   3.628215   4.418608   2.887389
    12  C    2.504326   3.631011   3.083713   4.828663   3.858764
    13  C    3.787700   4.272598   2.500646   3.787581   5.357482
    14  H    3.872805   3.383747   3.384092   2.146415   4.279508
    15  C    4.387032   3.035381   5.124680   2.505463   2.801537
    16  C    4.856969   3.668120   5.134371   2.504540   3.920790
    17  C    3.783460   4.415016   4.813619   5.779353   4.102875
    18  H    2.710799   2.895648   3.854478   4.108693   2.594711
    19  C    3.782732   4.815785   4.417619   6.098824   4.836447
    20  H    2.708124   3.859363   2.900974   4.853855   4.274937
    21  C    4.391384   5.129076   3.037212   4.853507   6.189029
    22  C    4.853707   5.129045   3.667320   4.391169   6.189006
    23  C    5.755188   4.383786   6.484171   3.783362   4.042800
    24  H    4.047440   2.809218   4.928007   2.710524   2.419532
    25  C    6.121229   4.843792   6.491910   3.782894   4.886007
    26  H    4.904609   3.922195   4.945574   2.708491   4.375585
    27  C    4.286902   5.137910   5.138345   6.504212   4.940446
    28  H    4.648692   5.110134   5.713455   6.440712   4.665155
    29  H    4.647647   5.717007   5.113871   6.944313   5.780166
    30  C    5.758711   6.487587   4.385239   6.118495   7.556379
    31  H    4.054822   4.936104   2.811579   4.898143   5.932249
    32  C    6.118822   6.487555   4.843334   5.758354   7.556353
    33  H    4.898230   4.935996   3.920254   4.054620   5.932156
    34  C    6.504116   5.137821   7.075480   4.286973   4.940255
    35  H    6.401859   5.061770   7.231488   4.648499   4.570330
    36  H    6.979577   5.759266   7.243957   4.647859   5.854410
    37  H    5.371027   6.197231   6.197618   7.571982   5.936253
    38  C    6.504621   7.074953   5.138292   6.504219   8.159837
    39  H    6.407382   7.237395   5.063871   6.975231   8.279857
    40  H    6.975586   7.237348   5.758361   6.406985   8.279819
    41  H    7.571865   6.197125   8.159595   5.371096   5.936031
    42  H    7.572414   8.159067   6.197601   7.571945   9.243951
                    6          7          8          9         10
     6  C    0.000000
     7  C    3.787910   0.000000
     8  H    2.703303   2.146356   0.000000
     9  C    4.273231   1.394392   3.384102   0.000000
    10  C    4.999520   3.787973   5.357472   2.500981   0.000000
    11  C    1.396850   4.821137   3.847869   5.124759   5.411311
    12  C    1.396868   4.426997   2.902533   5.134283   6.080674
    13  C    5.000226   1.484499   2.703105   2.500505   5.000173
    14  H    5.357476   2.146366   4.279725   1.084879   2.703459
    15  C    5.357906   4.849723   6.189251   3.665665   1.396854
    16  C    6.127433   4.396117   6.188524   3.039714   1.396863
    17  C    2.421445   6.092887   4.827827   6.484230   6.724432
    18  H    2.149133   4.840367   4.256501   4.928120   4.935319
    19  C    2.421728   5.785941   4.113901   6.491821   7.274279
    20  H    2.148909   4.123727   2.622680   4.945361   6.156752
    21  C    5.363376   2.504946   2.815510   3.667109   6.124188
    22  C    6.124553   2.504906   3.912375   3.036921   5.363369
    23  C    6.681472   6.115597   7.556523   4.841994   2.421492
    24  H    4.829285   4.891475   5.933362   3.917716   2.149154
    25  C    7.313393   5.762417   7.555989   4.387097   2.421736
    26  H    6.239756   4.063707   5.931401   2.815959   2.148914
    27  C    2.802231   6.504648   4.941481   7.075433   7.557044
    28  H    3.400141   6.934711   5.766671   7.231637   7.251494
    29  H    3.400515   6.451027   4.681810   7.243827   8.139726
    30  C    6.686306   3.783088   4.053003   4.842972   7.310892
    31  H    4.838282   2.709194   2.446425   3.920191   6.233057
    32  C    7.311449   3.783053   4.879728   4.384797   6.686012
    33  H    6.233426   2.709077   4.360860   2.811302   4.838519
    34  C    7.557031   6.504835   8.159779   5.138559   2.802307
    35  H    7.179977   6.970308   8.280044   5.756123   3.400165
    36  H    8.202243   6.413127   8.279214   5.066504   3.400510
    37  H    3.886356   7.572411   5.937222   8.159552   8.587607
    38  C    7.558466   4.286853   4.941589   5.137824   7.557929
    39  H    7.187337   4.648230   4.585860   5.757987   8.197725
    40  H    8.198432   4.648180   5.844424   5.063385   7.187062
    41  H    8.587561   7.572613   9.243902   6.197846   3.886431
    42  H    8.589123   5.370968   5.937422   6.197069   8.588456
                   11         12         13         14         15
    11  C    0.000000
    12  C    2.401427   0.000000
    13  C    6.075467   5.418190   0.000000
    14  H    6.190124   6.187603   2.702860   0.000000
    15  C    5.687830   6.339291   6.121971   3.911840   0.000000
    16  C    6.451084   7.274713   5.365963   2.816859   2.401387
    17  C    1.388889   2.774296   7.270143   7.557228   6.868187
    18  H    1.084764   3.385835   6.146819   5.934961   5.278640
    19  C    2.774838   1.388824   6.730319   7.555203   7.417056
    20  H    3.385733   1.084828   4.946900   5.929670   6.445996
    21  C    6.576308   5.423549   1.396829   3.911930   7.107943
    22  C    7.053070   6.686467   1.396832   2.815037   6.624314
    23  C    6.888409   7.677197   7.309101   4.879095   1.388883
    24  H    5.213849   5.670794   6.229413   4.360107   1.084763
    25  C    7.531361   8.466460   6.688393   4.054029   2.774755
    26  H    6.590899   7.400325   4.843310   2.448430   3.385708
    27  C    2.409169   2.408832   7.558243   8.159704   7.653186
    28  H    2.144247   3.858608   8.132417   8.281261   7.353501
    29  H    3.859166   2.144462   7.260508   8.277968   8.243686
    30  C    7.874594   6.672052   2.421718   4.878996   8.340159
    31  H    6.141101   4.670895   2.148776   4.360587   7.057844
    32  C    8.277256   7.734344   2.421709   4.052208   7.931644
    33  H    7.005636   6.996116   2.148749   2.446125   6.179018
    34  C    7.727174   8.647233   7.558317   4.941800   2.409154
    35  H    7.341091   8.087206   8.194680   5.843284   2.144229
    36  H    8.386648   9.386070   7.190790   4.587189   3.859086
    37  H    3.392317   3.392036   8.588834   9.243828   8.622043
    38  C    8.644662   7.732700   2.802355   4.940696   8.708529
    39  H    8.422940   6.969549   3.400487   5.843645   9.147346
    40  H    9.081146   8.707560   3.400476   4.585006   8.478973
    41  H    8.700265   9.675323   8.588933   5.937569   3.392325
    42  H    9.673386   8.705366   3.886469   5.936405   9.741223
                   16         17         18         19         20
    16  C    0.000000
    17  C    7.787631   0.000000
    18  H    5.835879   2.145291   0.000000
    19  C    8.482820   2.402446   3.859422   0.000000
    20  H    7.354035   3.858974   4.283822   2.145303   0.000000
    21  C    6.627673   7.621746   6.855250   6.652221   4.744413
    22  C    5.365510   8.293115   6.957256   7.983493   6.295988
    23  C    2.774316   8.012248   6.389529   8.700154   7.806963
    24  H    3.385823   6.296383   4.974796   6.680021   5.771001
    25  C    1.388861   8.813599   6.857446   9.625332   8.572389
    26  H    1.084834   7.958499   5.957300   8.641074   7.459196
    27  C    8.712329   1.390079   3.390052   1.390101   3.389888
    28  H    8.233315   1.084351   2.465154   3.387168   4.943312
    29  H    9.376460   3.387180   4.943772   1.084359   2.465561
    30  C    7.665654   8.875941   8.148573   7.828238   5.955342
    31  H    6.942862   7.085342   6.573093   5.856590   3.872465
    32  C    6.604154   9.459169   8.234756   8.987676   7.253025
    33  H    4.622091   8.304406   6.744788   8.296346   6.742221
    34  C    2.408903   8.918024   7.104380   9.726519   8.775356
    35  H    3.858628   8.351335   6.903072   9.014652   8.229484
    36  H    2.144469   9.678732   7.655144  10.556949   9.491512
    37  H    9.744677   2.150485   4.285405   2.150465   4.285346
    38  C    7.660043   9.724768   8.769133   8.923462   7.112132
    39  H    8.636768   9.318652   8.807986   8.028436   6.161501
    40  H    6.901424  10.286243   8.945255   9.957762   8.276980
    41  H    3.392092   9.849885   8.049197  10.721359   9.815660
    42  H    8.628428  10.720220   9.810354   9.855106   8.055872
                   21         22         23         24         25
    21  C    0.000000
    22  C    2.401148   0.000000
    23  C    8.339678   7.663388   0.000000
    24  H    7.057108   6.938381   2.145221   0.000000
    25  C    7.934139   6.605193   2.402396   3.859344   0.000000
    26  H    6.184005   4.623169   3.858996   4.283837   2.145356
    27  C    7.659523   8.709905   8.853925   6.958664   9.784425
    28  H    8.567585   9.069299   8.392038   6.838192   9.173252
    29  H    6.984671   8.564160   9.529065   7.451731  10.524857
    30  C    1.388824   2.774442   9.514051   8.348527   8.928391
    31  H    1.084794   3.385432   8.348239   6.841814   8.251212
    32  C    2.774430   1.388819   8.926672   8.248218   7.770528
    33  H    3.385417   1.084800   7.118603   6.637291   5.818196
    34  C    8.709358   7.659884   1.390070   3.389995   1.390095
    35  H    9.145591   8.633852   1.084348   2.465033   3.387137
    36  H    8.482109   6.903971   3.387136   4.943698   1.084363
    37  H    8.628420   9.742299   9.780799   7.896130  10.783984
    38  C    2.408878   2.408889   9.781478   8.882743   8.860440
    39  H    2.144453   3.858761  10.344405   9.066139   9.895553
    40  H    3.858751   2.144441   9.369482   8.905073   7.969536
    41  H    9.741711   8.628862   2.150513   4.285366   2.150453
    42  H    3.392063   3.392069  10.781315   9.931179   9.787018
                   26         27         28         29         30
    26  H    0.000000
    27  C    8.890614   0.000000
    28  H    8.413534   2.149185   0.000000
    29  H    9.538655   2.149210   4.286129   0.000000
    30  C    7.121630   8.860123   9.811250   8.070886   0.000000
    31  H    6.643746   6.968573   8.088376   6.091459   2.145313
    32  C    5.817122   9.783063  10.252691   9.471751   2.402462
    33  H    3.763276   8.884423   8.991694   8.982710   3.859075
    34  C    3.389959   9.852197   9.248902  10.597823   9.782234
    35  H    4.943333   9.137882   8.697064   9.799129  10.343562
    36  H    2.465578  10.692824   9.998226  11.471742   9.371467
    37  H    9.938477   1.084125   2.479166   2.479130   9.787174
    38  C    6.969712   9.854738  10.593489   9.256637   1.390081
    39  H    8.143918   9.147265  10.289990   8.127858   1.084353
    40  H    6.021000  10.689295  11.025259  10.479624   3.387152
    41  H    4.285396  10.804538  10.124589  11.590778  10.781792
    42  H    7.906179  10.807389  11.587257  10.131826   2.150451
                   31         32         33         34         35
    31  H    0.000000
    32  C    3.859055   0.000000
    33  H    4.283308   2.145356   0.000000
    34  C    8.883693   8.860047   6.969499   0.000000
    35  H    9.064207   9.893547   8.140394   2.149187   0.000000
    36  H    8.908597   7.970392   6.024369   2.149200   4.286112
    37  H    7.905999  10.782684   9.932284  10.804580  10.003829
    38  C    3.389900   1.390094   3.389946   9.854100  10.686951
    39  H    2.465597   3.387150   4.943418  10.688111  11.122726
    40  H    4.943399   1.084354   2.465647   9.147341  10.372571
    41  H    9.931470   9.787155   7.907066   1.084123   2.479233
    42  H    4.285343   2.150458   4.285392  10.806525  11.688828
                   36         37         38         39         40
    36  H    0.000000
    37  H   11.694300   0.000000
    38  C    9.148051  10.807283   0.000000
    39  H   10.374492  10.013525   2.149134   0.000000
    40  H    8.023201  11.690767   2.149152   4.286037   0.000000
    41  H    2.479104  11.729686  10.806626  11.689465  10.013697
    42  H   10.013557  11.732753   1.084114   2.479039   2.479054
                   41         42
    41  H    0.000000
    42  H   11.731844   0.000000
 Stoichiometry    C24H18
 Framework group  C1[X(C24H18)]
 Deg. of freedom   120
 Full point group                 C1      NOp   1
 Largest Abelian subgroup         C1      NOp   1
 Largest concise Abelian subgroup C1      NOp   1
                         Standard orientation:                         
 ---------------------------------------------------------------------
 Center     Atomic      Atomic             Coordinates (Angstroms)
 Number     Number       Type             X           Y           Z
 ---------------------------------------------------------------------
      1          6           0        1.395044   -0.133385    0.042051
      2          6           0        0.575494   -1.260450    0.001363
      3          6           0        0.803589    1.129313    0.041672
      4          6           0       -0.812964   -1.141466   -0.040014
      5          1           0        1.026081   -2.247336    0.001731
      6          6           0        2.871653   -0.275629    0.102398
      7          6           0       -0.582457    1.275817    0.000401
      8          1           0        1.430441    2.011397    0.118765
      9          6           0       -1.379643    0.132510   -0.040470
     10          6           0       -1.672417   -2.350537   -0.101035
     11          6           0        3.470973   -1.117406    1.042299
     12          6           0        3.692295    0.430250   -0.780507
     13          6           0       -1.199132    2.626168   -0.000328
     14          1           0       -2.456714    0.236600   -0.118228
     15          6           0       -1.339306   -3.422890   -0.931875
     16          6           0       -2.832063   -2.440829    0.672460
     17          6           0        4.852366   -1.250689    1.097097
     18          1           0        2.849336   -1.655029    1.750285
     19          6           0        5.073727    0.297794   -0.726348
     20          1           0        3.241553    1.072593   -1.529559
     21          6           0       -0.670599    3.652051   -0.787315
     22          6           0       -2.321067    2.899092    0.785746
     23          6           0       -2.143130   -4.554150   -0.987682
     24          1           0       -0.454124   -3.359758   -1.555717
     25          6           0       -3.636609   -3.571573    0.617175
     26          1           0       -3.093640   -1.625432    1.338472
     27          6           0        5.658828   -0.544028    0.212467
     28          1           0        5.300432   -1.902581    1.838777
     29          1           0        5.694613    0.847874   -1.424736
     30          6           0       -1.247189    4.915528   -0.788516
     31          1           0        0.187185    3.450583   -1.420083
     32          6           0       -2.898829    4.162028    0.785064
     33          1           0       -2.730627    2.119426    1.419128
     34          6           0       -3.294798   -4.632689   -0.213224
     35          1           0       -1.872991   -5.373540   -1.644520
     36          1           0       -4.529139   -3.627120    1.230485
     37          1           0        6.737132   -0.647737    0.255260
     38          6           0       -2.363753    5.175059   -0.002225
     39          1           0       -0.827867    5.697530   -1.411784
     40          1           0       -3.764891    4.357635    1.407557
     41          1           0       -3.922511   -5.515528   -0.256752
     42          1           0       -2.814333    6.161102   -0.002994
 ---------------------------------------------------------------------
 Rotational constants (GHZ):           0.1977387           0.1967356           0.1039719
 Leave Link  202 at Mon Nov 14 15:07:10 2022, MaxMem= 16106127360 cpu:               2.4 elap:               0.1
 (Enter /opt/ap/G16/B01/g16/l301.exe)
 Standard basis: 6-311++G(d,p) (5D, 7F)
 Ernie: Thresh=  0.10000D-02 Tol=  0.10000D-05 Strict=F.
 There are   678 symmetry adapted cartesian basis functions of A   symmetry.
 There are   654 symmetry adapted basis functions of A   symmetry.
   654 basis functions,  1026 primitive gaussians,   678 cartesian basis functions
    81 alpha electrons       81 beta electrons
       nuclear repulsion energy      1732.0657422061 Hartrees.
 IExCor= 4639 DFT=T Ex+Corr=wB97XD ExCW=0 ScaHFX=  1.000000
 ScaDFX=  1.000000  1.000000  1.000000  1.000000 ScalE2=  1.000000  1.000000
 IRadAn=      5 IRanWt=     -1 IRanGd=            0 ICorTp=0 IEmpDi=121
 HFx  wShort=  0.000000 wLong=  0.200000 cFull=  0.222036 cShort=  0.000000 cLong=  0.777964
 DFx  wShort=  0.000000 wLong=  0.200000 cFull=  0.000000 cShort=  0.000000 cLong=  1.000000
 NAtoms=   42 NActive=   42 NUniq=   42 SFac= 1.00D+00 NAtFMM=   60 NAOKFM=F Big=F
 Integral buffers will be    131072 words long.
 Raffenetti 2 integral format.
 Two-electron integral symmetry is turned on.
 R6Disp:  Grimme-D2 Dispersion energy=       -0.0289359449 Hartrees.
 Nuclear repulsion after empirical dispersion term =     1732.0368062612 Hartrees.
 Leave Link  301 at Mon Nov 14 15:07:10 2022, MaxMem= 16106127360 cpu:               2.3 elap:               0.1
 (Enter /opt/ap/G16/B01/g16/l302.exe)
 NPDir=0 NMtPBC=     1 NCelOv=     1 NCel=       1 NClECP=     1 NCelD=      1
         NCelK=      1 NCelE2=     1 NClLst=     1 CellRange=     0.0.
 One-electron integrals computed using PRISM.
 One-electron integral symmetry used in STVInt
 NBasis=   654 RedAO= T EigKep=  1.30D-06  NBF=   654
 NBsUse=   645 1.00D-06 EigRej=  8.73D-07 NBFU=   645
 Precomputing XC quadrature grid using
 IXCGrd= 4 IRadAn=           5 IRanWt=          -1 IRanGd=           0 AccXCQ= 0.00D+00.
 Generated NRdTot=       0 NPtTot=           0 NUsed=           0 NTot=          32
 NSgBfM=   669   669   669   669   669 MxSgAt=    42 MxSgA2=    42.
 Leave Link  302 at Mon Nov 14 15:07:11 2022, MaxMem= 16106127360 cpu:              21.4 elap:               0.7
 (Enter /opt/ap/G16/B01/g16/l303.exe)
 DipDrv:  MaxL=1.
 Leave Link  303 at Mon Nov 14 15:07:11 2022, MaxMem= 16106127360 cpu:               2.8 elap:               0.1
 (Enter /opt/ap/G16/B01/g16/l401.exe)
 ExpMin= 3.60D-02 ExpMax= 4.56D+03 ExpMxC= 6.82D+02 IAcc=3 IRadAn=         5 AccDes= 0.00D+00
 Harris functional with IExCor= 4639 and IRadAn=       5 diagonalized for initial guess.
 HarFok:  IExCor= 4639 AccDes= 0.00D+00 IRadAn=         5 IDoV= 1 UseB2=F ITyADJ=14
 ICtDFT=  3500011 ScaDFX=  1.000000  1.000000  1.000000  1.000000
 FoFCou: FMM=F IPFlag=           0 FMFlag=      100000 FMFlg1=           0
         NFxFlg=           0 DoJE=T BraDBF=F KetDBF=T FulRan=T
         wScrn=  0.000000 ICntrl=       500 IOpCl=  0 I1Cent=   200000004 NGrid=           0
         NMat0=    1 NMatS0=      1 NMatT0=    0 NMatD0=    1 NMtDS0=    0 NMtDT0=    0
 Petite list used in FoFCou.
 Harris En= -882.969943655822    
 JPrj=0 DoOrth=F DoCkMO=F.
 Leave Link  401 at Mon Nov 14 15:07:13 2022, MaxMem= 16106127360 cpu:              57.1 elap:               1.8
 (Enter /opt/ap/G16/B01/g16/l502.exe)
 Integral symmetry usage will be decided dynamically.
 Closed shell SCF:
 Using DIIS extrapolation, IDIIS=  1040.
 NGot= 16106127360 LenX= 16105179956 LenY= 16104719594
 Requested convergence on RMS density matrix=1.00D-08 within 512 cycles.
 Requested convergence on MAX density matrix=1.00D-06.
 Requested convergence on             energy=1.00D-06.
 No special actions if energy rises.
 Fock matrices will be formed incrementally for  20 cycles.

 Cycle   1  Pass 1  IDiag  1:
 FoFJK:  IHMeth= 1 ICntrl=       0 DoSepK=T KAlg= 0 I1Cent=           0 FoldK=F
 IRaf=         1 NMat=       1 IRICut=       1 DoRegI=T DoRafI=F ISym2E= 0 IDoP0=0 IntGTp=1.
 FoFCou: FMM=F IPFlag=           0 FMFlag=      100000 FMFlg1=           0
         NFxFlg=           0 DoJE=T BraDBF=F KetDBF=F FulRan=T
         wScrn=  0.000000 ICntrl=       500 IOpCl=  0 I1Cent=           0 NGrid=           0
         NMat0=    1 NMatS0=      1 NMatT0=    0 NMatD0=    1 NMtDS0=    0 NMtDT0=    0
 Symmetry not used in FoFCou.
 E= -925.116681274236    
 DIIS: error= 4.98D-02 at cycle   1 NSaved=   1.
 NSaved= 1 IEnMin= 1 EnMin= -925.116681274236     IErMin= 1 ErrMin= 4.98D-02
 ErrMax= 4.98D-02  0.00D+00 EMaxC= 1.00D-01 BMatC= 1.90D+00 BMatP= 1.90D+00
 IDIUse=3 WtCom= 5.02D-01 WtEn= 4.98D-01
 Coeff-Com:  0.100D+01
 Coeff-En:   0.100D+01
 Coeff:      0.100D+01
 Gap=     0.319 Goal=   None    Shift=    0.000
 GapD=    0.319 DampG=1.000 DampE=0.500 DampFc=0.5000 IDamp=-1.
 Damping current iteration by 5.00D-01
 RMSDP=3.75D-02 MaxDP=4.71D+00              OVMax= 4.30D-02

 Cycle   2  Pass 1  IDiag  1:
 RMSU=  6.83D-03    CP:  8.11D-01
 E= -925.215139882367     Delta-E=       -0.098458608131 Rises=F Damp=T
 DIIS: error= 2.42D-02 at cycle   2 NSaved=   2.
 NSaved= 2 IEnMin= 2 EnMin= -925.215139882367     IErMin= 2 ErrMin= 2.42D-02
 ErrMax= 2.42D-02  0.00D+00 EMaxC= 1.00D-01 BMatC= 4.32D-01 BMatP= 1.90D+00
 IDIUse=3 WtCom= 7.58D-01 WtEn= 2.42D-01
 Coeff-Com: -0.883D+00 0.188D+01
 Coeff-En:   0.000D+00 0.100D+01
 Coeff:     -0.669D+00 0.167D+01
 Gap=     0.327 Goal=   None    Shift=    0.000
 RMSDP=2.12D-02 MaxDP=2.15D+00 DE=-9.85D-02 OVMax= 3.36D-02

 Cycle   3  Pass 1  IDiag  1:
 RMSU=  3.35D-03    CP:  5.86D-01  1.37D+00
 E= -925.303712506588     Delta-E=       -0.088572624221 Rises=F Damp=F
 DIIS: error= 3.29D-03 at cycle   3 NSaved=   3.
 NSaved= 3 IEnMin= 3 EnMin= -925.303712506588     IErMin= 3 ErrMin= 3.29D-03
 ErrMax= 3.29D-03  0.00D+00 EMaxC= 1.00D-01 BMatC= 8.37D-03 BMatP= 4.32D-01
 IDIUse=3 WtCom= 9.67D-01 WtEn= 3.29D-02
 Coeff-Com: -0.365D+00 0.776D+00 0.590D+00
 Coeff-En:   0.000D+00 0.000D+00 0.100D+01
 Coeff:     -0.353D+00 0.750D+00 0.603D+00
 Gap=     0.325 Goal=   None    Shift=    0.000
 RMSDP=2.15D-03 MaxDP=1.98D-01 DE=-8.86D-02 OVMax= 1.92D-02

 Cycle   4  Pass 1  IDiag  1:
 RMSU=  1.39D-03    CP:  5.89D-01  1.57D+00  7.14D-01
 E= -925.311366070002     Delta-E=       -0.007653563414 Rises=F Damp=F
 DIIS: error= 8.49D-04 at cycle   4 NSaved=   4.
 NSaved= 4 IEnMin= 4 EnMin= -925.311366070002     IErMin= 4 ErrMin= 8.49D-04
 ErrMax= 8.49D-04  0.00D+00 EMaxC= 1.00D-01 BMatC= 2.74D-04 BMatP= 8.37D-03
 IDIUse=3 WtCom= 9.92D-01 WtEn= 8.49D-03
 Coeff-Com: -0.111D+00 0.236D+00 0.238D+00 0.637D+00
 Coeff-En:   0.000D+00 0.000D+00 0.000D+00 0.100D+01
 Coeff:     -0.110D+00 0.234D+00 0.236D+00 0.640D+00
 Gap=     0.324 Goal=   None    Shift=    0.000
 RMSDP=6.89D-04 MaxDP=6.05D-02 DE=-7.65D-03 OVMax= 4.22D-03

 Cycle   5  Pass 1  IDiag  1:
 RMSU=  2.34D-04    CP:  5.82D-01  1.60D+00  7.31D-01  8.49D-01
 E= -925.311653443409     Delta-E=       -0.000287373407 Rises=F Damp=F
 DIIS: error= 2.05D-04 at cycle   5 NSaved=   5.
 NSaved= 5 IEnMin= 5 EnMin= -925.311653443409     IErMin= 5 ErrMin= 2.05D-04
 ErrMax= 2.05D-04  0.00D+00 EMaxC= 1.00D-01 BMatC= 2.03D-05 BMatP= 2.74D-04
 IDIUse=3 WtCom= 9.98D-01 WtEn= 2.05D-03
 Coeff-Com:  0.260D-01-0.553D-01-0.257D-01 0.196D+00 0.859D+00
 Coeff-En:   0.000D+00 0.000D+00 0.000D+00 0.000D+00 0.100D+01
 Coeff:      0.259D-01-0.552D-01-0.256D-01 0.196D+00 0.859D+00
 Gap=     0.324 Goal=   None    Shift=    0.000
 RMSDP=1.58D-04 MaxDP=7.58D-03 DE=-2.87D-04 OVMax= 1.49D-03

 Cycle   6  Pass 1  IDiag  1:
 RMSU=  6.91D-05    CP:  5.82D-01  1.60D+00  7.49D-01  9.23D-01  1.23D+00
 E= -925.311679345729     Delta-E=       -0.000025902320 Rises=F Damp=F
 DIIS: error= 4.79D-05 at cycle   6 NSaved=   6.
 NSaved= 6 IEnMin= 6 EnMin= -925.311679345729     IErMin= 6 ErrMin= 4.79D-05
 ErrMax= 4.79D-05  0.00D+00 EMaxC= 1.00D-01 BMatC= 1.41D-06 BMatP= 2.03D-05
 IDIUse=1 WtCom= 1.00D+00 WtEn= 0.00D+00
 Coeff-Com:  0.132D-01-0.282D-01-0.166D-01 0.541D-01 0.331D+00 0.647D+00
 Coeff:      0.132D-01-0.282D-01-0.166D-01 0.541D-01 0.331D+00 0.647D+00
 Gap=     0.324 Goal=   None    Shift=    0.000
 RMSDP=7.39D-05 MaxDP=6.06D-03 DE=-2.59D-05 OVMax= 3.69D-04

 Cycle   7  Pass 1  IDiag  1:
 RMSU=  4.12D-05    CP:  5.82D-01  1.60D+00  7.53D-01  9.53D-01  1.18D+00
                    CP:  8.37D-01
 E= -925.311681066121     Delta-E=       -0.000001720392 Rises=F Damp=F
 DIIS: error= 1.33D-05 at cycle   7 NSaved=   7.
 NSaved= 7 IEnMin= 7 EnMin= -925.311681066121     IErMin= 7 ErrMin= 1.33D-05
 ErrMax= 1.33D-05  0.00D+00 EMaxC= 1.00D-01 BMatC= 1.00D-07 BMatP= 1.41D-06
 IDIUse=1 WtCom= 1.00D+00 WtEn= 0.00D+00
 Coeff-Com: -0.243D-02 0.522D-02 0.226D-02-0.285D-01-0.103D+00 0.952D-01
 Coeff-Com:  0.103D+01
 Coeff:     -0.243D-02 0.522D-02 0.226D-02-0.285D-01-0.103D+00 0.952D-01
 Coeff:      0.103D+01
 Gap=     0.324 Goal=   None    Shift=    0.000
 RMSDP=1.67D-05 MaxDP=1.12D-03 DE=-1.72D-06 OVMax= 2.62D-04

 Cycle   8  Pass 1  IDiag  1:
 RMSU=  6.55D-06    CP:  5.82D-01  1.60D+00  7.55D-01  9.55D-01  1.21D+00
                    CP:  9.32D-01  1.19D+00
 E= -925.311681299264     Delta-E=       -0.000000233143 Rises=F Damp=F
 DIIS: error= 4.06D-06 at cycle   8 NSaved=   8.
 NSaved= 8 IEnMin= 8 EnMin= -925.311681299264     IErMin= 8 ErrMin= 4.06D-06
 ErrMax= 4.06D-06  0.00D+00 EMaxC= 1.00D-01 BMatC= 5.20D-09 BMatP= 1.00D-07
 IDIUse=1 WtCom= 1.00D+00 WtEn= 0.00D+00
 Coeff-Com: -0.897D-03 0.192D-02 0.106D-02-0.775D-02-0.293D-01 0.515D-02
 Coeff-Com:  0.166D+00 0.863D+00
 Coeff:     -0.897D-03 0.192D-02 0.106D-02-0.775D-02-0.293D-01 0.515D-02
 Coeff:      0.166D+00 0.863D+00
 Gap=     0.324 Goal=   None    Shift=    0.000
 RMSDP=2.76D-06 MaxDP=1.51D-04 DE=-2.33D-07 OVMax= 5.78D-05

 Cycle   9  Pass 1  IDiag  1:
 RMSU=  1.58D-06    CP:  5.82D-01  1.60D+00  7.55D-01  9.55D-01  1.22D+00
                    CP:  9.38D-01  1.23D+00  1.23D+00
 E= -925.311681309265     Delta-E=       -0.000000010002 Rises=F Damp=F
 DIIS: error= 2.46D-06 at cycle   9 NSaved=   9.
 NSaved= 9 IEnMin= 9 EnMin= -925.311681309265     IErMin= 9 ErrMin= 2.46D-06
 ErrMax= 2.46D-06  0.00D+00 EMaxC= 1.00D-01 BMatC= 1.78D-09 BMatP= 5.20D-09
 IDIUse=1 WtCom= 1.00D+00 WtEn= 0.00D+00
 Coeff-Com:  0.144D-03-0.313D-03 0.145D-04 0.298D-02 0.108D-01-0.158D-01
 Coeff-Com: -0.170D+00 0.391D+00 0.782D+00
 Coeff:      0.144D-03-0.313D-03 0.145D-04 0.298D-02 0.108D-01-0.158D-01
 Coeff:     -0.170D+00 0.391D+00 0.782D+00
 Gap=     0.324 Goal=   None    Shift=    0.000
 RMSDP=1.83D-06 MaxDP=1.04D-04 DE=-1.00D-08 OVMax= 3.87D-05

 Cycle  10  Pass 1  IDiag  1:
 RMSU=  6.04D-07    CP:  5.82D-01  1.60D+00  7.55D-01  9.55D-01  1.22D+00
                    CP:  9.39D-01  1.25D+00  1.39D+00  6.93D-01
 E= -925.311681312481     Delta-E=       -0.000000003216 Rises=F Damp=F
 DIIS: error= 8.60D-07 at cycle  10 NSaved=  10.
 NSaved=10 IEnMin=10 EnMin= -925.311681312481     IErMin=10 ErrMin= 8.60D-07
 ErrMax= 8.60D-07  0.00D+00 EMaxC= 1.00D-01 BMatC= 2.28D-10 BMatP= 1.78D-09
 IDIUse=1 WtCom= 1.00D+00 WtEn= 0.00D+00
 Coeff-Com:  0.122D-03-0.263D-03-0.599D-04 0.173D-02 0.618D-02-0.529D-02
 Coeff-Com: -0.773D-01 0.638D-01 0.338D+00 0.673D+00
 Coeff:      0.122D-03-0.263D-03-0.599D-04 0.173D-02 0.618D-02-0.529D-02
 Coeff:     -0.773D-01 0.638D-01 0.338D+00 0.673D+00
 Gap=     0.324 Goal=   None    Shift=    0.000
 RMSDP=3.95D-07 MaxDP=4.13D-05 DE=-3.22D-09 OVMax= 9.71D-06

 Cycle  11  Pass 1  IDiag  1:
 RMSU=  1.37D-07    CP:  5.82D-01  1.60D+00  7.55D-01  9.55D-01  1.22D+00
                    CP:  9.39D-01  1.24D+00  1.40D+00  8.77D-01  9.70D-01
 E= -925.311681312792     Delta-E=       -0.000000000310 Rises=F Damp=F
 DIIS: error= 2.09D-07 at cycle  11 NSaved=  11.
 NSaved=11 IEnMin=11 EnMin= -925.311681312792     IErMin=11 ErrMin= 2.09D-07
 ErrMax= 2.09D-07  0.00D+00 EMaxC= 1.00D-01 BMatC= 3.28D-11 BMatP= 2.28D-10
 IDIUse=1 WtCom= 1.00D+00 WtEn= 0.00D+00
 Coeff-Com:  0.218D-04-0.462D-04-0.197D-04 0.130D-03 0.288D-03 0.119D-02
 Coeff-Com:  0.114D-02-0.605D-01-0.170D-02 0.270D+00 0.790D+00
 Coeff:      0.218D-04-0.462D-04-0.197D-04 0.130D-03 0.288D-03 0.119D-02
 Coeff:      0.114D-02-0.605D-01-0.170D-02 0.270D+00 0.790D+00
 Gap=     0.324 Goal=   None    Shift=    0.000
 RMSDP=1.71D-07 MaxDP=1.49D-05 DE=-3.10D-10 OVMax= 3.32D-06

 Cycle  12  Pass 1  IDiag  1:
 RMSU=  5.78D-08    CP:  5.82D-01  1.60D+00  7.55D-01  9.55D-01  1.22D+00
                    CP:  9.39D-01  1.24D+00  1.41D+00  8.74D-01  1.12D+00
                    CP:  1.18D+00
 E= -925.311681312830     Delta-E=       -0.000000000038 Rises=F Damp=F
 DIIS: error= 8.62D-08 at cycle  12 NSaved=  12.
 NSaved=12 IEnMin=12 EnMin= -925.311681312830     IErMin=12 ErrMin= 8.62D-08
 ErrMax= 8.62D-08  0.00D+00 EMaxC= 1.00D-01 BMatC= 1.35D-12 BMatP= 3.28D-11
 IDIUse=1 WtCom= 1.00D+00 WtEn= 0.00D+00
 Coeff-Com: -0.142D-04 0.306D-04 0.108D-04-0.220D-03-0.801D-03 0.896D-03
 Coeff-Com:  0.971D-02-0.113D-01-0.315D-01-0.666D-01-0.671D-01 0.117D+01
 Coeff:     -0.142D-04 0.306D-04 0.108D-04-0.220D-03-0.801D-03 0.896D-03
 Coeff:      0.971D-02-0.113D-01-0.315D-01-0.666D-01-0.671D-01 0.117D+01
 Gap=     0.324 Goal=   None    Shift=    0.000
 RMSDP=6.49D-08 MaxDP=3.24D-06 DE=-3.82D-11 OVMax= 1.25D-06

 Cycle  13  Pass 1  IDiag  1:
 RMSU=  2.17D-08    CP:  5.82D-01  1.60D+00  7.55D-01  9.55D-01  1.22D+00
                    CP:  9.39D-01  1.24D+00  1.41D+00  8.82D-01  1.16D+00
                    CP:  1.29D+00  1.45D+00
 E= -925.311681312888     Delta-E=       -0.000000000059 Rises=F Damp=F
 DIIS: error= 2.65D-08 at cycle  13 NSaved=  13.
 NSaved=13 IEnMin=13 EnMin= -925.311681312888     IErMin=13 ErrMin= 2.65D-08
 ErrMax= 2.65D-08  0.00D+00 EMaxC= 1.00D-01 BMatC= 1.30D-13 BMatP= 1.35D-12
 IDIUse=1 WtCom= 1.00D+00 WtEn= 0.00D+00
 Coeff-Com: -0.398D-05 0.854D-05 0.375D-05-0.510D-04-0.173D-03 0.140D-03
 Coeff-Com:  0.183D-02 0.640D-03-0.468D-02-0.255D-01-0.674D-01 0.247D+00
 Coeff-Com:  0.848D+00
 Coeff:     -0.398D-05 0.854D-05 0.375D-05-0.510D-04-0.173D-03 0.140D-03
 Coeff:      0.183D-02 0.640D-03-0.468D-02-0.255D-01-0.674D-01 0.247D+00
 Coeff:      0.848D+00
 Gap=     0.324 Goal=   None    Shift=    0.000
 RMSDP=1.16D-08 MaxDP=7.47D-07 DE=-5.87D-11 OVMax= 2.87D-07

 Cycle  14  Pass 1  IDiag  1:
 RMSU=  5.31D-09    CP:  5.82D-01  1.60D+00  7.55D-01  9.55D-01  1.22D+00
                    CP:  9.39D-01  1.24D+00  1.41D+00  8.83D-01  1.16D+00
                    CP:  1.29D+00  1.56D+00  1.28D+00
 E= -925.311681312879     Delta-E=        0.000000000010 Rises=F Damp=F
 DIIS: error= 7.89D-09 at cycle  14 NSaved=  14.
 NSaved=14 IEnMin=13 EnMin= -925.311681312888     IErMin=14 ErrMin= 7.89D-09
 ErrMax= 7.89D-09  0.00D+00 EMaxC= 1.00D-01 BMatC= 4.62D-14 BMatP= 1.30D-13
 IDIUse=1 WtCom= 1.00D+00 WtEn= 0.00D+00
 Coeff-Com:  0.586D-06-0.130D-05-0.175D-06 0.138D-04 0.571D-04-0.856D-04
 Coeff-Com: -0.812D-03 0.209D-02 0.327D-02-0.401D-03-0.231D-01-0.915D-01
 Coeff-Com:  0.401D+00 0.709D+00
 Coeff:      0.586D-06-0.130D-05-0.175D-06 0.138D-04 0.571D-04-0.856D-04
 Coeff:     -0.812D-03 0.209D-02 0.327D-02-0.401D-03-0.231D-01-0.915D-01
 Coeff:      0.401D+00 0.709D+00
 Gap=     0.324 Goal=   None    Shift=    0.000
 RMSDP=8.43D-09 MaxDP=6.48D-07 DE= 9.55D-12 OVMax= 8.87D-08

 SCF Done:  E(RwB97XD) =  -925.311681313     A.U. after   14 cycles
            NFock= 14  Conv=0.84D-08     -V/T= 2.0044
 KE= 9.212945243694D+02 PE=-5.610518041089D+03 EE= 2.031875029146D+03
 Leave Link  502 at Mon Nov 14 15:09:38 2022, MaxMem= 16106127360 cpu:            4593.4 elap:             144.1
 (Enter /opt/ap/G16/B01/g16/l601.exe)
 Copying SCF densities to generalized density rwf, IOpCl= 0 IROHF=0.

 **********************************************************************

            Population analysis using the SCF Density.

 **********************************************************************

 Orbital symmetries:
       Occupied  (A) (A) (A) (A) (A) (A) (A) (A) (A) (A) (A) (A)
                 (A) (A) (A) (A) (A) (A) (A) (A) (A) (A) (A) (A)
                 (A) (A) (A) (A) (A) (A) (A) (A) (A) (A) (A) (A)
                 (A) (A) (A) (A) (A) (A) (A) (A) (A) (A) (A) (A)
                 (A) (A) (A) (A) (A) (A) (A) (A) (A) (A) (A) (A)
                 (A) (A) (A) (A) (A) (A) (A) (A) (A) (A) (A) (A)
                 (A) (A) (A) (A) (A) (A) (A) (A) (A)
       Virtual   (A) (A) (A) (A) (A) (A) (A) (A) (A) (A) (A) (A)
                 (A) (A) (A) (A) (A) (A) (A) (A) (A) (A) (A) (A)
                 (A) (A) (A) (A) (A) (A) (A) (A) (A) (A) (A) (A)
                 (A) (A) (A) (A) (A) (A) (A) (A) (A) (A) (A) (A)
                 (A) (A) (A) (A) (A) (A) (A) (A) (A) (A) (A) (A)
                 (A) (A) (A) (A) (A) (A) (A) (A) (A) (A) (A) (A)
                 (A) (A) (A) (A) (A) (A) (A) (A) (A) (A) (A) (A)
                 (A) (A) (A) (A) (A) (A) (A) (A) (A) (A) (A) (A)
                 (A) (A) (A) (A) (A) (A) (A) (A) (A) (A) (A) (A)
                 (A) (A) (A) (A) (A) (A) (A) (A) (A) (A) (A) (A)
                 (A) (A) (A) (A) (A) (A) (A) (A) (A) (A) (A) (A)
                 (A) (A) (A) (A) (A) (A) (A) (A) (A) (A) (A) (A)
                 (A) (A) (A) (A) (A) (A) (A) (A) (A) (A) (A) (A)
                 (A) (A) (A) (A) (A) (A) (A) (A) (A) (A) (A) (A)
                 (A) (A) (A) (A) (A) (A) (A) (A) (A) (A) (A) (A)
                 (A) (A) (A) (A) (A) (A) (A) (A) (A) (A) (A) (A)
                 (A) (A) (A) (A) (A) (A) (A) (A) (A) (A) (A) (A)
                 (A) (A) (A) (A) (A) (A) (A) (A) (A) (A) (A) (A)
                 (A) (A) (A) (A) (A) (A) (A) (A) (A) (A) (A) (A)
                 (A) (A) (A) (A) (A) (A) (A) (A) (A) (A) (A) (A)
                 (A) (A) (A) (A) (A) (A) (A) (A) (A) (A) (A) (A)
                 (A) (A) (A) (A) (A) (A) (A) (A) (A) (A) (A) (A)
                 (A) (A) (A) (A) (A) (A) (A) (A) (A) (A) (A) (A)
                 (A) (A) (A) (A) (A) (A) (A) (A) (A) (A) (A) (A)
                 (A) (A) (A) (A) (A) (A) (A) (A) (A) (A) (A) (A)
                 (A) (A) (A) (A) (A) (A) (A) (A) (A) (A) (A) (A)
                 (A) (A) (A) (A) (A) (A) (A) (A) (A) (A) (A) (A)
                 (A) (A) (A) (A) (A) (A) (A) (A) (A) (A) (A) (A)
                 (A) (A) (A) (A) (A) (A) (A) (A) (A) (A) (A) (A)
                 (A) (A) (A) (A) (A) (A) (A) (A) (A) (A) (A) (A)
                 (A) (A) (A) (A) (A) (A) (A) (A) (A) (A) (A) (A)
                 (A) (A) (A) (A) (A) (A) (A) (A) (A) (A) (A) (A)
                 (A) (A) (A) (A) (A) (A) (A) (A) (A) (A) (A) (A)
                 (A) (A) (A) (A) (A) (A) (A) (A) (A) (A) (A) (A)
                 (A) (A) (A) (A) (A) (A) (A) (A) (A) (A) (A) (A)
                 (A) (A) (A) (A) (A) (A) (A) (A) (A) (A) (A) (A)
                 (A) (A) (A) (A) (A) (A) (A) (A) (A) (A) (A) (A)
                 (A) (A) (A) (A) (A) (A) (A) (A) (A) (A) (A) (A)
                 (A) (A) (A) (A) (A) (A) (A) (A) (A) (A) (A) (A)
                 (A) (A) (A) (A) (A) (A) (A) (A) (A) (A) (A) (A)
                 (A) (A) (A) (A) (A) (A) (A) (A) (A) (A) (A) (A)
                 (A) (A) (A) (A) (A) (A) (A) (A) (A) (A) (A) (A)
                 (A) (A) (A) (A) (A) (A) (A) (A) (A) (A) (A) (A)
                 (A) (A) (A) (A) (A) (A) (A) (A) (A) (A) (A) (A)
                 (A) (A) (A) (A) (A) (A) (A) (A) (A) (A) (A) (A)
                 (A) (A) (A) (A) (A) (A) (A) (A) (A) (A) (A) (A)
                 (A) (A) (A) (A) (A) (A) (A) (A) (A) (A) (A) (A)
 The electronic state is 1-A.
 Alpha  occ. eigenvalues --  -10.30418 -10.30412 -10.30406 -10.30329 -10.30327
 Alpha  occ. eigenvalues --  -10.30309 -10.29259 -10.29251 -10.29249 -10.29242
 Alpha  occ. eigenvalues --  -10.29227 -10.29219 -10.29177 -10.29172 -10.29170
 Alpha  occ. eigenvalues --  -10.29167 -10.29136 -10.29133 -10.29115 -10.29099
 Alpha  occ. eigenvalues --  -10.29098 -10.29072 -10.29070 -10.29067  -0.98980
 Alpha  occ. eigenvalues --   -0.97060  -0.97044  -0.95270  -0.89425  -0.89415
 Alpha  occ. eigenvalues --   -0.85339  -0.85309  -0.85258  -0.85056  -0.82257
 Alpha  occ. eigenvalues --   -0.82245  -0.73545  -0.73465  -0.71142  -0.70743
 Alpha  occ. eigenvalues --   -0.70169  -0.70114  -0.66736  -0.66697  -0.63535
 Alpha  occ. eigenvalues --   -0.60707  -0.60680  -0.58684  -0.57270  -0.56627
 Alpha  occ. eigenvalues --   -0.54917  -0.54795  -0.54394  -0.54200  -0.52855
 Alpha  occ. eigenvalues --   -0.51884  -0.51458  -0.51375  -0.51161  -0.50869
 Alpha  occ. eigenvalues --   -0.50790  -0.47839  -0.46694  -0.46198  -0.45911
 Alpha  occ. eigenvalues --   -0.45722  -0.44981  -0.44338  -0.43170  -0.43099
 Alpha  occ. eigenvalues --   -0.42922  -0.41747  -0.41555  -0.36560  -0.36255
 Alpha  occ. eigenvalues --   -0.33637  -0.33625  -0.33612  -0.32993  -0.30551
 Alpha  occ. eigenvalues --   -0.30254
 Alpha virt. eigenvalues --    0.02159   0.02374   0.03674   0.04198   0.04295
 Alpha virt. eigenvalues --    0.04678   0.04853   0.04906   0.05134   0.05161
 Alpha virt. eigenvalues --    0.05229   0.05681   0.05792   0.06777   0.06978
 Alpha virt. eigenvalues --    0.07066   0.07819   0.07974   0.08124   0.08547
 Alpha virt. eigenvalues --    0.08711   0.08951   0.09210   0.09768   0.11106
 Alpha virt. eigenvalues --    0.11473   0.12136   0.12484   0.12713   0.13307
 Alpha virt. eigenvalues --    0.13695   0.13829   0.14258   0.14409   0.15454
 Alpha virt. eigenvalues --    0.15564   0.15822   0.15869   0.16154   0.16165
 Alpha virt. eigenvalues --    0.16536   0.16849   0.17010   0.17398   0.17480
 Alpha virt. eigenvalues --    0.17608   0.17774   0.18033   0.18062   0.18214
 Alpha virt. eigenvalues --    0.18317   0.18450   0.18488   0.18743   0.19059
 Alpha virt. eigenvalues --    0.19285   0.19444   0.19463   0.20160   0.20409
 Alpha virt. eigenvalues --    0.20514   0.20842   0.21123   0.21409   0.21538
 Alpha virt. eigenvalues --    0.22179   0.22379   0.22505   0.22623   0.22899
 Alpha virt. eigenvalues --    0.23169   0.23391   0.23580   0.23809   0.23827
 Alpha virt. eigenvalues --    0.24617   0.24819   0.25231   0.25274   0.25523
 Alpha virt. eigenvalues --    0.25580   0.26053   0.26553   0.26940   0.27355
 Alpha virt. eigenvalues --    0.27503   0.27708   0.27851   0.28205   0.28587
 Alpha virt. eigenvalues --    0.28724   0.28993   0.29161   0.29344   0.29561
 Alpha virt. eigenvalues --    0.29642   0.29896   0.30433   0.31105   0.31328
 Alpha virt. eigenvalues --    0.31541   0.32027   0.32288   0.32873   0.33309
 Alpha virt. eigenvalues --    0.33493   0.33917   0.34073   0.34268   0.34376
 Alpha virt. eigenvalues --    0.34901   0.34952   0.35068   0.35361   0.35824
 Alpha virt. eigenvalues --    0.35886   0.36399   0.36627   0.36749   0.37121
 Alpha virt. eigenvalues --    0.37381   0.37501   0.37819   0.37935   0.38429
 Alpha virt. eigenvalues --    0.38514   0.38636   0.39118   0.39236   0.39650
 Alpha virt. eigenvalues --    0.39898   0.40571   0.40692   0.41349   0.41720
 Alpha virt. eigenvalues --    0.41957   0.42101   0.42286   0.43050   0.43424
 Alpha virt. eigenvalues --    0.43709   0.43763   0.44560   0.44744   0.44891
 Alpha virt. eigenvalues --    0.45295   0.46032   0.47681   0.47837   0.47992
 Alpha virt. eigenvalues --    0.48412   0.49223   0.53063   0.53591   0.57137
 Alpha virt. eigenvalues --    0.58267   0.58598   0.59021   0.59300   0.60702
 Alpha virt. eigenvalues --    0.62165   0.62411   0.62562   0.62878   0.63010
 Alpha virt. eigenvalues --    0.63453   0.63838   0.63849   0.64046   0.64179
 Alpha virt. eigenvalues --    0.64501   0.65151   0.65341   0.65561   0.65684
 Alpha virt. eigenvalues --    0.66044   0.66335   0.67189   0.67356   0.67413
 Alpha virt. eigenvalues --    0.68288   0.69141   0.69737   0.70253   0.70692
 Alpha virt. eigenvalues --    0.70882   0.71014   0.71619   0.72131   0.72344
 Alpha virt. eigenvalues --    0.72867   0.73345   0.73670   0.74015   0.74171
 Alpha virt. eigenvalues --    0.75462   0.76106   0.76739   0.76914   0.77741
 Alpha virt. eigenvalues --    0.78724   0.79255   0.79856   0.80421   0.80620
 Alpha virt. eigenvalues --    0.80873   0.81308   0.81391   0.81988   0.82375
 Alpha virt. eigenvalues --    0.82618   0.82759   0.83368   0.83934   0.84058
 Alpha virt. eigenvalues --    0.84535   0.84664   0.84880   0.85296   0.85617
 Alpha virt. eigenvalues --    0.86022   0.86972   0.87877   0.88148   0.88549
 Alpha virt. eigenvalues --    0.89274   0.89853   0.91446   0.91696   0.91960
 Alpha virt. eigenvalues --    0.92152   0.92336   0.93379   0.93749   0.93895
 Alpha virt. eigenvalues --    0.94036   0.94476   0.94872   0.96015   0.96565
 Alpha virt. eigenvalues --    0.96792   0.96982   0.97096   0.98290   0.99343
 Alpha virt. eigenvalues --    0.99845   1.00268   1.00702   1.01405   1.01914
 Alpha virt. eigenvalues --    1.02444   1.03000   1.03987   1.04224   1.04325
 Alpha virt. eigenvalues --    1.05346   1.06002   1.06932   1.07276   1.07394
 Alpha virt. eigenvalues --    1.07659   1.08187   1.08696   1.09394   1.11737
 Alpha virt. eigenvalues --    1.12047   1.12811   1.12955   1.13424   1.13747
 Alpha virt. eigenvalues --    1.14689   1.14847   1.16553   1.16930   1.17050
 Alpha virt. eigenvalues --    1.17745   1.18471   1.18993   1.19450   1.21080
 Alpha virt. eigenvalues --    1.21788   1.22199   1.22765   1.23747   1.24089
 Alpha virt. eigenvalues --    1.24256   1.24753   1.24993   1.29186   1.29309
 Alpha virt. eigenvalues --    1.37934   1.39357   1.41026   1.41519   1.41717
 Alpha virt. eigenvalues --    1.45630   1.47346   1.47943   1.52393   1.55491
 Alpha virt. eigenvalues --    1.56381   1.57976   1.58408   1.59407   1.59484
 Alpha virt. eigenvalues --    1.59782   1.60201   1.61103   1.61224   1.61684
 Alpha virt. eigenvalues --    1.62020   1.62127   1.62340   1.63269   1.63647
 Alpha virt. eigenvalues --    1.64278   1.65575   1.65682   1.65984   1.66405
 Alpha virt. eigenvalues --    1.66927   1.67182   1.67983   1.68711   1.69004
 Alpha virt. eigenvalues --    1.69671   1.72975   1.73604   1.74026   1.74096
 Alpha virt. eigenvalues --    1.74250   1.75200   1.75516   1.75613   1.76480
 Alpha virt. eigenvalues --    1.77434   1.78392   1.81681   1.82160   1.82895
 Alpha virt. eigenvalues --    1.82907   1.83152   1.84019   1.84596   1.84845
 Alpha virt. eigenvalues --    1.85352   1.86323   1.86518   1.86855   1.87716
 Alpha virt. eigenvalues --    1.88273   1.89544   1.92404   1.92552   1.93147
 Alpha virt. eigenvalues --    1.93789   1.94195   1.97202   1.99637   2.00094
 Alpha virt. eigenvalues --    2.01112   2.01755   2.02401   2.02828   2.02969
 Alpha virt. eigenvalues --    2.02986   2.03237   2.04150   2.04414   2.04623
 Alpha virt. eigenvalues --    2.04643   2.04868   2.05536   2.05731   2.06141
 Alpha virt. eigenvalues --    2.06938   2.07314   2.07720   2.07960   2.08736
 Alpha virt. eigenvalues --    2.10738   2.11692   2.11900   2.12257   2.13084
 Alpha virt. eigenvalues --    2.13447   2.14371   2.15108   2.16876   2.17365
 Alpha virt. eigenvalues --    2.18195   2.18780   2.19835   2.20384   2.21168
 Alpha virt. eigenvalues --    2.23757   2.27807   2.30147   2.33742   2.35317
 Alpha virt. eigenvalues --    2.36281   2.36681   2.38097   2.39752   2.43406
 Alpha virt. eigenvalues --    2.44342   2.44822   2.46342   2.48831   2.49647
 Alpha virt. eigenvalues --    2.51923   2.53091   2.53299   2.53722   2.54973
 Alpha virt. eigenvalues --    2.55462   2.56380   2.56543   2.56744   2.57618
 Alpha virt. eigenvalues --    2.58464   2.58767   2.62312   2.62822   2.63593
 Alpha virt. eigenvalues --    2.72801   2.73173   2.73599   2.75541   2.75903
 Alpha virt. eigenvalues --    2.76127   2.76540   2.78413   2.79182   2.79773
 Alpha virt. eigenvalues --    2.80065   2.80343   2.80419   2.80708   2.80846
 Alpha virt. eigenvalues --    2.81573   2.82144   2.82949   2.82990   2.83196
 Alpha virt. eigenvalues --    2.83354   2.84122   2.85159   2.85987   2.86930
 Alpha virt. eigenvalues --    2.87132   2.87537   2.87703   2.90710   2.92360
 Alpha virt. eigenvalues --    2.92424   2.92625   2.92926   2.93031   2.93211
 Alpha virt. eigenvalues --    2.93881   2.94275   2.94663   2.95009   2.97889
 Alpha virt. eigenvalues --    2.99765   3.00019   3.00989   3.01466   3.01774
 Alpha virt. eigenvalues --    3.04382   3.04705   3.04818   3.05318   3.05548
 Alpha virt. eigenvalues --    3.06509   3.06704   3.07566   3.07936   3.11472
 Alpha virt. eigenvalues --    3.11911   3.15882   3.18866   3.19396   3.19798
 Alpha virt. eigenvalues --    3.21364   3.22750   3.25511   3.31529   3.31884
 Alpha virt. eigenvalues --    3.32289   3.33617   3.34759   3.35757   3.37141
 Alpha virt. eigenvalues --    3.47005   3.47321   3.49082   3.49570   3.49658
 Alpha virt. eigenvalues --    3.49997   3.53571   3.53735   3.60598   3.60878
 Alpha virt. eigenvalues --    3.61234   3.63469   3.64854   3.65361   3.66134
 Alpha virt. eigenvalues --    3.73734   3.73819   3.76312   3.76334   3.76636
 Alpha virt. eigenvalues --    3.77381   3.90987   3.92515   3.93551   4.09761
 Alpha virt. eigenvalues --    4.09951   4.10276   4.14516   4.14550   4.14633
 Alpha virt. eigenvalues --    4.24181   4.24285   4.26012   4.26115   4.26560
 Alpha virt. eigenvalues --    4.26913   4.27935   4.28216   4.49729   4.65572
 Alpha virt. eigenvalues --    4.66893   4.93809   4.95345   4.95744   4.98611
 Alpha virt. eigenvalues --   23.68325  23.81568  23.81890  23.88078  24.08404
 Alpha virt. eigenvalues --   24.08458  24.10886  24.10987  24.11263  24.11496
 Alpha virt. eigenvalues --   24.12974  24.13181  24.20353  24.20593  24.20943
 Alpha virt. eigenvalues --   24.24086  24.24340  24.24386  24.24638  24.24899
 Alpha virt. eigenvalues --   24.31289  24.33813  24.33880  24.34907
          Condensed to atoms (all electrons):
               1          2          3          4          5          6
     1  C   19.313583   1.539442   0.406382  -5.405949  -0.037078   0.512408
     2  C    1.539442  11.529549   0.008713   1.565397   0.360483  -1.896623
     3  C    0.406382   0.008713  13.108342  -2.509751   0.108519  -2.664599
     4  C   -5.405949   1.565397  -2.509751  19.380488  -0.082614  -0.092904
     5  H   -0.037078   0.360483   0.108519  -0.082614   0.508351  -0.054028
     6  C    0.512408  -1.896623  -2.664599  -0.092904  -0.054028  14.587352
     7  C   -6.773111  -2.363007   1.778980  -7.221181   0.084145  -0.855839
     8  H   -0.021877   0.019668   0.329809   0.123156  -0.002565   0.038700
     9  C   -3.023930  -0.435040  -0.249040   0.248224   0.094318  -1.451994
    10  C   -0.306679  -2.008301  -1.496332   0.724065  -0.060147   0.825776
    11  C   -0.227018   1.736401  -2.290917   0.985408  -0.115831  -0.437003
    12  C   -1.495369  -2.206827   2.482735  -0.943723   0.054653  -1.236897
    13  C   -0.363038  -1.605045  -1.966282  -0.582671  -0.034895   1.063631
    14  H    0.109556   0.042485   0.057200  -0.083272  -0.001727  -0.015106
    15  C    1.313112   2.572798  -0.054656  -0.298837  -0.065393   0.333758
    16  C   -1.178035  -3.019822   0.086001  -1.598647   0.034129  -0.111919
    17  C   -0.234895   0.711622   0.128448   0.436913   0.031147  -1.986215
    18  H    0.039253  -0.010165  -0.072526  -0.036395  -0.010156   0.012232
    19  C    0.146387   0.068516   0.211116  -0.132402   0.011733  -1.535051
    20  H    0.057420  -0.010688  -0.025840   0.008244  -0.002244   0.014140
    21  C    1.977122   0.133288   2.225587  -1.105756  -0.005774  -0.017208
    22  C   -1.311525  -0.063554  -2.372745   1.828407   0.002684   0.122343
    23  C    0.341340   0.570573   0.072467  -0.236297   0.033773   0.021749
    24  H   -0.025155   0.000367  -0.025196   0.017478  -0.011545   0.032937
    25  C   -0.073708   0.087969   0.065537   0.128827   0.008977  -0.068746
    26  H    0.001970  -0.013917  -0.011644   0.089011  -0.002957   0.010376
    27  C   -0.224413  -0.207781  -0.024766  -0.063834  -0.004285  -0.276586
    28  H    0.001280   0.004032   0.009095   0.007149   0.000364   0.026471
    29  H    0.001874   0.005317   0.001142   0.000459   0.000306   0.020233
    30  C    0.207816   0.079580   0.324492  -0.144583   0.001956  -0.090915
    31  H   -0.073805  -0.018842  -0.055190   0.008038  -0.000177   0.005763
    32  C   -0.137448   0.067046   0.083194   0.265531   0.001684  -0.036577
    33  H    0.002148  -0.020269  -0.017404  -0.090630   0.000199   0.010907
    34  C   -0.071023  -0.159321  -0.027638  -0.191315  -0.002943   0.031019
    35  H    0.006304   0.001395   0.001291   0.000854   0.000627  -0.002021
    36  H    0.001450   0.003964   0.000279  -0.000706   0.000433  -0.000566
    37  H   -0.006741  -0.005741  -0.004102   0.000199  -0.000327   0.021916
    38  C    0.021446  -0.021192  -0.085357   0.023113  -0.000626   0.043217
    39  H    0.003859   0.000614   0.007564   0.000276   0.000011  -0.003508
    40  H    0.001297   0.000195   0.005862   0.004998  -0.000010  -0.000883
    41  H    0.000020  -0.003926  -0.000792  -0.005065  -0.000320   0.000756
    42  H    0.000995  -0.000739  -0.004948   0.000910  -0.000014   0.001125
               7          8          9         10         11         12
     1  C   -6.773111  -0.021877  -3.023930  -0.306679  -0.227018  -1.495369
     2  C   -2.363007   0.019668  -0.435040  -2.008301   1.736401  -2.206827
     3  C    1.778980   0.329809  -0.249040  -1.496332  -2.290917   2.482735
     4  C   -7.221181   0.123156   0.248224   0.724065   0.985408  -0.943723
     5  H    0.084145  -0.002565   0.094318  -0.060147  -0.115831   0.054653
     6  C   -0.855839   0.038700  -1.451994   0.825776  -0.437003  -1.236897
     7  C   19.792792  -0.115097   1.941154  -0.789710  -0.990569   1.680840
     8  H   -0.115097   0.490031   0.055229  -0.021786   0.063761  -0.119785
     9  C    1.941154   0.055229  13.628803  -2.317235  -0.294036   0.193452
    10  C   -0.789710  -0.021786  -2.317235  14.475166   0.358442  -0.101272
    11  C   -0.990569   0.063761  -0.294036   0.358442  16.502541  -8.511195
    12  C    1.680840  -0.119785   0.193452  -0.101272  -8.511195  17.193737
    13  C    0.597567  -0.009734  -2.131239   1.222159   0.130192   0.055222
    14  H   -0.031947  -0.002265   0.284731   0.060345  -0.002087   0.000258
    15  C   -0.886038  -0.009514  -2.970046  -0.938902  -0.338324   0.192698
    16  C    1.649029   0.008328   3.409759  -1.124663   0.154738  -0.080284
    17  C   -0.106576   0.015515   0.092168   0.045180  -1.195806   0.276477
    18  H   -0.017823  -0.001714  -0.027825   0.029796   0.556182  -0.058864
    19  C    0.223079  -0.009655   0.061059  -0.083627   0.284589  -0.738533
    20  H   -0.055026   0.001320  -0.007158   0.012860  -0.011464   0.395461
    21  C   -1.094460  -0.071435  -2.666873   0.226564  -0.075132   0.047613
    22  C   -1.264512   0.033955   2.633517  -0.254066   0.068294  -0.037573
    23  C   -0.058633  -0.001763   0.154461  -2.053509  -0.103015   0.048428
    24  H   -0.012882   0.000020  -0.072262  -0.011993   0.000881   0.005316
    25  C    0.193487   0.002722   0.152643  -1.545183   0.017258  -0.007756
    26  H   -0.082779   0.000305  -0.028057  -0.003193  -0.002887   0.002885
    27  C    0.010324  -0.000784  -0.036892   0.031467  -0.037580  -0.381461
    28  H    0.003658   0.000309   0.001912  -0.001660  -0.122278   0.024770
    29  H    0.003626  -0.001046   0.000277  -0.000856   0.003194  -0.085844
    30  C    0.011877  -0.019380   0.122179  -0.043447   0.004022  -0.031787
    31  H    0.068431  -0.001319  -0.021254   0.012844  -0.004131   0.024453
    32  C   -0.046116   0.018166   0.394150  -0.075507  -0.017647   0.028685
    33  H    0.086033  -0.003790  -0.052062   0.000018   0.003155  -0.002359
    34  C   -0.002588   0.000185  -0.020412  -0.163607  -0.003184   0.000226
    35  H    0.004396  -0.000054   0.010399   0.018212  -0.000435   0.000310
    36  H    0.005454  -0.000038   0.003151   0.009952  -0.000035   0.000049
    37  H    0.000729   0.000249  -0.000931   0.000805   0.023127  -0.008531
    38  C   -0.282889  -0.004712  -0.084959   0.041148   0.008014  -0.018505
    39  H    0.002015  -0.000556   0.005774  -0.001042  -0.000617   0.001656
    40  H    0.001198   0.000698   0.006411  -0.003449  -0.000220   0.000312
    41  H    0.000463  -0.000003  -0.004395   0.025958  -0.000039   0.000021
    42  H   -0.006727  -0.000138  -0.005696   0.001121   0.000197  -0.000440
              13         14         15         16         17         18
     1  C   -0.363038   0.109556   1.313112  -1.178035  -0.234895   0.039253
     2  C   -1.605045   0.042485   2.572798  -3.019822   0.711622  -0.010165
     3  C   -1.966282   0.057200  -0.054656   0.086001   0.128448  -0.072526
     4  C   -0.582671  -0.083272  -0.298837  -1.598647   0.436913  -0.036395
     5  H   -0.034895  -0.001727  -0.065393   0.034129   0.031147  -0.010156
     6  C    1.063631  -0.015106   0.333758  -0.111919  -1.986215   0.012232
     7  C    0.597567  -0.031947  -0.886038   1.649029  -0.106576  -0.017823
     8  H   -0.009734  -0.002265  -0.009514   0.008328   0.015515  -0.001714
     9  C   -2.131239   0.284731  -2.970046   3.409759   0.092168  -0.027825
    10  C    1.222159   0.060345  -0.938902  -1.124663   0.045180   0.029796
    11  C    0.130192  -0.002087  -0.338324   0.154738  -1.195806   0.556182
    12  C    0.055222   0.000258   0.192698  -0.080284   0.276477  -0.058864
    13  C   13.107759   0.017422   0.144785  -0.120163  -0.037684   0.015731
    14  H    0.017422   0.501287   0.090734  -0.166583  -0.002487   0.000321
    15  C    0.144785   0.090734  15.744170  -8.419114  -0.122767   0.003497
    16  C   -0.120163  -0.166583  -8.419114  17.483290   0.059180  -0.001116
    17  C   -0.037684  -0.002487  -0.122767   0.059180   8.547478  -0.141600
    18  H    0.015731   0.000321   0.003497  -0.001116  -0.141600   0.479074
    19  C   -0.098523   0.003217   0.027771  -0.011460  -0.628654   0.003326
    20  H    0.004826  -0.000151  -0.005365   0.004033  -0.003560   0.000338
    21  C   -0.641668   0.061959   0.136563  -0.167280   0.026587  -0.003426
    22  C   -0.593739  -0.111596  -0.178836   0.306286  -0.010346   0.003462
    23  C   -0.038567   0.014487  -0.352668  -0.045316  -0.007552  -0.005558
    24  H    0.015855  -0.001576   0.542146  -0.059889  -0.006467   0.001957
    25  C   -0.094406  -0.012973   0.251313  -0.543192  -0.000033  -0.000801
    26  H   -0.012486  -0.001856  -0.028385   0.426632  -0.000312   0.000245
    27  C    0.043360   0.000147  -0.000904  -0.001537   0.219252   0.024124
    28  H   -0.001150  -0.000061  -0.000687   0.000565   0.445347  -0.011532
    29  H   -0.002808  -0.000011   0.000244  -0.000042   0.010729  -0.000121
    30  C   -1.640916   0.006562  -0.016911   0.034874   0.008649  -0.001153
    31  H    0.008262  -0.002714   0.005693  -0.005603   0.000965   0.000059
    32  C   -1.676796  -0.015811   0.009105  -0.034068  -0.001352  -0.000348
    33  H    0.030384  -0.001106  -0.006828   0.028615  -0.000022   0.000224
    34  C    0.035160  -0.002920  -0.311096  -0.323666  -0.000497   0.000462
    35  H   -0.001134   0.000262  -0.102960   0.022086   0.000092  -0.000093
    36  H   -0.002026  -0.000863   0.002616  -0.072417  -0.000020  -0.000015
    37  H    0.001201  -0.000004  -0.000021   0.000003  -0.082819   0.001147
    38  C   -0.190871   0.001380   0.006449  -0.019423  -0.000086   0.000263
    39  H    0.019530   0.000345  -0.000280   0.000522  -0.000031  -0.000006
    40  H    0.013463  -0.000989  -0.000529   0.001984   0.000021  -0.000013
    41  H    0.001067   0.000230   0.017258  -0.016370  -0.000014   0.000040
    42  H    0.021483   0.000086   0.000160  -0.000480   0.000001   0.000006
              19         20         21         22         23         24
     1  C    0.146387   0.057420   1.977122  -1.311525   0.341340  -0.025155
     2  C    0.068516  -0.010688   0.133288  -0.063554   0.570573   0.000367
     3  C    0.211116  -0.025840   2.225587  -2.372745   0.072467  -0.025196
     4  C   -0.132402   0.008244  -1.105756   1.828407  -0.236297   0.017478
     5  H    0.011733  -0.002244  -0.005774   0.002684   0.033773  -0.011545
     6  C   -1.535051   0.014140  -0.017208   0.122343   0.021749   0.032937
     7  C    0.223079  -0.055026  -1.094460  -1.264512  -0.058633  -0.012882
     8  H   -0.009655   0.001320  -0.071435   0.033955  -0.001763   0.000020
     9  C    0.061059  -0.007158  -2.666873   2.633517   0.154461  -0.072262
    10  C   -0.083627   0.012860   0.226564  -0.254066  -2.053509  -0.011993
    11  C    0.284589  -0.011464  -0.075132   0.068294  -0.103015   0.000881
    12  C   -0.738533   0.395461   0.047613  -0.037573   0.048428   0.005316
    13  C   -0.098523   0.004826  -0.641668  -0.593739  -0.038567   0.015855
    14  H    0.003217  -0.000151   0.061959  -0.111596   0.014487  -0.001576
    15  C    0.027771  -0.005365   0.136563  -0.178836  -0.352668   0.542146
    16  C   -0.011460   0.004033  -0.167280   0.306286  -0.045316  -0.059889
    17  C   -0.628654  -0.003560   0.026587  -0.010346  -0.007552  -0.006467
    18  H    0.003326   0.000338  -0.003426   0.003462  -0.005558   0.001957
    19  C    7.765374  -0.064424  -0.013613  -0.000999   0.001842  -0.001558
    20  H   -0.064424   0.480347   0.006756   0.000013  -0.000644   0.000150
    21  C   -0.013613   0.006756  13.998750  -6.048613  -0.009918   0.005090
    22  C   -0.000999   0.000013  -6.048613  13.856627   0.026170  -0.005059
    23  C    0.001842  -0.000644  -0.009918   0.026170   8.074479  -0.100345
    24  H   -0.001558   0.000150   0.005090  -0.005059  -0.100345   0.485855
    25  C    0.001444  -0.000089  -0.000114  -0.010947  -0.564907  -0.003423
    26  H   -0.000142   0.000175  -0.009065   0.028777  -0.017188   0.000658
    27  C    0.463694   0.003240  -0.019425   0.006488  -0.001122   0.001063
    28  H    0.004344  -0.000212   0.000435  -0.000155   0.000101  -0.000090
    29  H    0.417354  -0.008960   0.001586  -0.000385   0.000025  -0.000020
    30  C   -0.022870   0.000901  -0.282719  -0.089260  -0.000990  -0.000324
    31  H   -0.004395  -0.003775   0.450110  -0.019824  -0.000171   0.000337
    32  C    0.005922   0.000363  -0.269777  -0.060416   0.006780  -0.000868
    33  H   -0.000739   0.000037  -0.006773   0.419997   0.001916   0.000011
    34  C   -0.000583  -0.000001   0.005601  -0.015563   0.351042   0.022713
    35  H    0.000079   0.000016  -0.000243   0.000543   0.433383  -0.011192
    36  H    0.000008  -0.000003  -0.000203   0.000947   0.015603  -0.000239
    37  H   -0.062268   0.001100  -0.000550   0.000180  -0.000024   0.000051
    38  C   -0.004443  -0.000545  -0.204457  -0.411085  -0.000013   0.000209
    39  H    0.000549   0.000343  -0.087199   0.005073   0.000017  -0.000013
    40  H    0.000023   0.000028  -0.001518  -0.078658  -0.000062  -0.000003
    41  H   -0.000012   0.000002   0.000173  -0.000521  -0.081600   0.001124
    42  H   -0.000118  -0.000022   0.009780  -0.001511   0.000001   0.000005
              25         26         27         28         29         30
     1  C   -0.073708   0.001970  -0.224413   0.001280   0.001874   0.207816
     2  C    0.087969  -0.013917  -0.207781   0.004032   0.005317   0.079580
     3  C    0.065537  -0.011644  -0.024766   0.009095   0.001142   0.324492
     4  C    0.128827   0.089011  -0.063834   0.007149   0.000459  -0.144583
     5  H    0.008977  -0.002957  -0.004285   0.000364   0.000306   0.001956
     6  C   -0.068746   0.010376  -0.276586   0.026471   0.020233  -0.090915
     7  C    0.193487  -0.082779   0.010324   0.003658   0.003626   0.011877
     8  H    0.002722   0.000305  -0.000784   0.000309  -0.001046  -0.019380
     9  C    0.152643  -0.028057  -0.036892   0.001912   0.000277   0.122179
    10  C   -1.545183  -0.003193   0.031467  -0.001660  -0.000856  -0.043447
    11  C    0.017258  -0.002887  -0.037580  -0.122278   0.003194   0.004022
    12  C   -0.007756   0.002885  -0.381461   0.024770  -0.085844  -0.031787
    13  C   -0.094406  -0.012486   0.043360  -0.001150  -0.002808  -1.640916
    14  H   -0.012973  -0.001856   0.000147  -0.000061  -0.000011   0.006562
    15  C    0.251313  -0.028385  -0.000904  -0.000687   0.000244  -0.016911
    16  C   -0.543192   0.426632  -0.001537   0.000565  -0.000042   0.034874
    17  C   -0.000033  -0.000312   0.219252   0.445347   0.010729   0.008649
    18  H   -0.000801   0.000245   0.024124  -0.011532  -0.000121  -0.001153
    19  C    0.001444  -0.000142   0.463694   0.004344   0.417354  -0.022870
    20  H   -0.000089   0.000175   0.003240  -0.000212  -0.008960   0.000901
    21  C   -0.000114  -0.009065  -0.019425   0.000435   0.001586  -0.282719
    22  C   -0.010947   0.028777   0.006488  -0.000155  -0.000385  -0.089260
    23  C   -0.564907  -0.017188  -0.001122   0.000101   0.000025  -0.000990
    24  H   -0.003423   0.000658   0.001063  -0.000090  -0.000020  -0.000324
    25  C    7.592789  -0.033602  -0.000457   0.000026   0.000003   0.005277
    26  H   -0.033602   0.495979   0.000052   0.000008  -0.000005   0.001051
    27  C   -0.000457   0.000052   6.545438  -0.073869  -0.054734  -0.005479
    28  H    0.000026   0.000008  -0.073869   0.474991   0.000738   0.000062
    29  H    0.000003  -0.000005  -0.054734   0.000738   0.472462   0.000356
    30  C    0.005277   0.001051  -0.005479   0.000062   0.000356   7.773847
    31  H   -0.000782  -0.000052   0.000543   0.000030   0.000192  -0.066458
    32  C   -0.018517   0.002280  -0.000063   0.000018  -0.000004  -0.536745
    33  H   -0.006031  -0.004573   0.000123  -0.000009   0.000003  -0.011963
    34  C    0.452121   0.012471   0.000156   0.000004   0.000002   0.000105
    35  H    0.007483  -0.000475  -0.000019   0.000002  -0.000001   0.000012
    36  H    0.409497  -0.009596  -0.000000  -0.000001   0.000000  -0.000022
    37  H   -0.000010   0.000003   0.460219  -0.010196  -0.010191  -0.000132
    38  C   -0.004385  -0.000702  -0.000065  -0.000003   0.000042   0.415103
    39  H    0.000032   0.000051   0.000033  -0.000001  -0.000022   0.422247
    40  H    0.000702   0.000466  -0.000002   0.000000  -0.000001   0.013890
    41  H   -0.058226   0.001160   0.000006  -0.000001  -0.000000   0.000004
    42  H   -0.000124  -0.000049   0.000004  -0.000000   0.000000  -0.076291
              31         32         33         34         35         36
     1  C   -0.073805  -0.137448   0.002148  -0.071023   0.006304   0.001450
     2  C   -0.018842   0.067046  -0.020269  -0.159321   0.001395   0.003964
     3  C   -0.055190   0.083194  -0.017404  -0.027638   0.001291   0.000279
     4  C    0.008038   0.265531  -0.090630  -0.191315   0.000854  -0.000706
     5  H   -0.000177   0.001684   0.000199  -0.002943   0.000627   0.000433
     6  C    0.005763  -0.036577   0.010907   0.031019  -0.002021  -0.000566
     7  C    0.068431  -0.046116   0.086033  -0.002588   0.004396   0.005454
     8  H   -0.001319   0.018166  -0.003790   0.000185  -0.000054  -0.000038
     9  C   -0.021254   0.394150  -0.052062  -0.020412   0.010399   0.003151
    10  C    0.012844  -0.075507   0.000018  -0.163607   0.018212   0.009952
    11  C   -0.004131  -0.017647   0.003155  -0.003184  -0.000435  -0.000035
    12  C    0.024453   0.028685  -0.002359   0.000226   0.000310   0.000049
    13  C    0.008262  -1.676796   0.030384   0.035160  -0.001134  -0.002026
    14  H   -0.002714  -0.015811  -0.001106  -0.002920   0.000262  -0.000863
    15  C    0.005693   0.009105  -0.006828  -0.311096  -0.102960   0.002616
    16  C   -0.005603  -0.034068   0.028615  -0.323666   0.022086  -0.072417
    17  C    0.000965  -0.001352  -0.000022  -0.000497   0.000092  -0.000020
    18  H    0.000059  -0.000348   0.000224   0.000462  -0.000093  -0.000015
    19  C   -0.004395   0.005922  -0.000739  -0.000583   0.000079   0.000008
    20  H   -0.003775   0.000363   0.000037  -0.000001   0.000016  -0.000003
    21  C    0.450110  -0.269777  -0.006773   0.005601  -0.000243  -0.000203
    22  C   -0.019824  -0.060416   0.419997  -0.015563   0.000543   0.000947
    23  C   -0.000171   0.006780   0.001916   0.351042   0.433383   0.015603
    24  H    0.000337  -0.000868   0.000011   0.022713  -0.011192  -0.000239
    25  C   -0.000782  -0.018517  -0.006031   0.452121   0.007483   0.409497
    26  H   -0.000052   0.002280  -0.004573   0.012471  -0.000475  -0.009596
    27  C    0.000543  -0.000063   0.000123   0.000156  -0.000019  -0.000000
    28  H    0.000030   0.000018  -0.000009   0.000004   0.000002  -0.000001
    29  H    0.000192  -0.000004   0.000003   0.000002  -0.000001   0.000000
    30  C   -0.066458  -0.536745  -0.011963   0.000105   0.000012  -0.000022
    31  H    0.497826  -0.014713   0.000690   0.000170  -0.000015   0.000002
    32  C   -0.014713   7.711362  -0.067398  -0.004974   0.000048   0.000414
    33  H    0.000690  -0.067398   0.497979  -0.000184   0.000047   0.000329
    34  C    0.000170  -0.004974  -0.000184   6.464148  -0.073322  -0.055749
    35  H   -0.000015   0.000048   0.000047  -0.073322   0.475520   0.001066
    36  H    0.000002   0.000414   0.000329  -0.055749   0.001066   0.472694
    37  H   -0.000006   0.000001   0.000003   0.000006  -0.000001  -0.000000
    38  C    0.025313   0.445065   0.018836  -0.000135  -0.000001   0.000050
    39  H   -0.012981   0.014289  -0.000553  -0.000002   0.000000  -0.000001
    40  H   -0.000623   0.423282  -0.012613   0.000060  -0.000002  -0.000032
    41  H    0.000004  -0.000125  -0.000019   0.462274  -0.010688  -0.010413
    42  H    0.002139  -0.069722   0.001906   0.000001  -0.000000   0.000001
              37         38         39         40         41         42
     1  C   -0.006741   0.021446   0.003859   0.001297   0.000020   0.000995
     2  C   -0.005741  -0.021192   0.000614   0.000195  -0.003926  -0.000739
     3  C   -0.004102  -0.085357   0.007564   0.005862  -0.000792  -0.004948
     4  C    0.000199   0.023113   0.000276   0.004998  -0.005065   0.000910
     5  H   -0.000327  -0.000626   0.000011  -0.000010  -0.000320  -0.000014
     6  C    0.021916   0.043217  -0.003508  -0.000883   0.000756   0.001125
     7  C    0.000729  -0.282889   0.002015   0.001198   0.000463  -0.006727
     8  H    0.000249  -0.004712  -0.000556   0.000698  -0.000003  -0.000138
     9  C   -0.000931  -0.084959   0.005774   0.006411  -0.004395  -0.005696
    10  C    0.000805   0.041148  -0.001042  -0.003449   0.025958   0.001121
    11  C    0.023127   0.008014  -0.000617  -0.000220  -0.000039   0.000197
    12  C   -0.008531  -0.018505   0.001656   0.000312   0.000021  -0.000440
    13  C    0.001201  -0.190871   0.019530   0.013463   0.001067   0.021483
    14  H   -0.000004   0.001380   0.000345  -0.000989   0.000230   0.000086
    15  C   -0.000021   0.006449  -0.000280  -0.000529   0.017258   0.000160
    16  C    0.000003  -0.019423   0.000522   0.001984  -0.016370  -0.000480
    17  C   -0.082819  -0.000086  -0.000031   0.000021  -0.000014   0.000001
    18  H    0.001147   0.000263  -0.000006  -0.000013   0.000040   0.000006
    19  C   -0.062268  -0.004443   0.000549   0.000023  -0.000012  -0.000118
    20  H    0.001100  -0.000545   0.000343   0.000028   0.000002  -0.000022
    21  C   -0.000550  -0.204457  -0.087199  -0.001518   0.000173   0.009780
    22  C    0.000180  -0.411085   0.005073  -0.078658  -0.000521  -0.001511
    23  C   -0.000024  -0.000013   0.000017  -0.000062  -0.081600   0.000001
    24  H    0.000051   0.000209  -0.000013  -0.000003   0.001124   0.000005
    25  C   -0.000010  -0.004385   0.000032   0.000702  -0.058226  -0.000124
    26  H    0.000003  -0.000702   0.000051   0.000466   0.001160  -0.000049
    27  C    0.460219  -0.000065   0.000033  -0.000002   0.000006   0.000004
    28  H   -0.010196  -0.000003  -0.000001   0.000000  -0.000001  -0.000000
    29  H   -0.010191   0.000042  -0.000022  -0.000001  -0.000000   0.000000
    30  C   -0.000132   0.415103   0.422247   0.013890   0.000004  -0.076291
    31  H   -0.000006   0.025313  -0.012981  -0.000623   0.000004   0.002139
    32  C    0.000001   0.445065   0.014289   0.423282  -0.000125  -0.069722
    33  H    0.000003   0.018836  -0.000553  -0.012613  -0.000019   0.001906
    34  C    0.000006  -0.000135  -0.000002   0.000060   0.462274   0.000001
    35  H   -0.000001  -0.000001   0.000000  -0.000002  -0.010688  -0.000000
    36  H   -0.000000   0.000050  -0.000001  -0.000032  -0.010413   0.000001
    37  H    0.485294   0.000002  -0.000000  -0.000000   0.000000   0.000000
    38  C    0.000002   6.386421  -0.067719  -0.063592   0.000001   0.467086
    39  H   -0.000000  -0.067719   0.476217   0.001191  -0.000000  -0.012201
    40  H   -0.000000  -0.063592   0.001191   0.476490   0.000000  -0.011848
    41  H    0.000000   0.000001  -0.000000   0.000000   0.486696   0.000000
    42  H    0.000000   0.467086  -0.012201  -0.011848   0.000000   0.488402
 Mulliken charges:
               1
     1  C    0.984333
     2  C   -1.038615
     3  C   -1.543030
     4  C    0.979389
     5  H    0.157166
     6  C    1.098379
     7  C    0.918234
     8  H    0.216882
     9  C   -1.592433
    10  C    1.284289
    11  C   -0.118947
    12  C   -0.643251
    13  C    1.296784
    14  H    0.205092
    15  C   -0.285810
    16  C   -0.588961
    17  C   -0.485976
    18  H    0.229511
    19  C   -0.287354
    20  H    0.208058
    21  C   -0.510365
    22  C   -0.402277
    23  C   -0.488775
    24  H    0.215875
    25  C   -0.329692
    26  H    0.189367
    27  C   -0.393674
    28  H    0.216190
    29  H    0.224886
    30  C   -0.352516
    31  H    0.194968
    32  C   -0.392394
    33  H    0.201766
    34  C   -0.407204
    35  H    0.218226
    36  H    0.224985
    37  H    0.196360
    38  C   -0.437394
    39  H    0.224525
    40  H    0.222473
    41  H    0.195271
    42  H    0.195658
 Sum of Mulliken charges =  -0.00000
 Mulliken charges with hydrogens summed into heavy atoms:
               1
     1  C    0.984333
     2  C   -0.881450
     3  C   -1.326147
     4  C    0.979389
     6  C    1.098379
     7  C    0.918234
     9  C   -1.387340
    10  C    1.284289
    11  C    0.110565
    12  C   -0.435193
    13  C    1.296784
    15  C   -0.069935
    16  C   -0.399594
    17  C   -0.269786
    19  C   -0.062468
    21  C   -0.315397
    22  C   -0.200512
    23  C   -0.270549
    25  C   -0.104708
    27  C   -0.197313
    30  C   -0.127991
    32  C   -0.169921
    34  C   -0.211933
    38  C   -0.241736
 Electronic spatial extent (au):  <R**2>=          10005.8388
 Charge=             -0.0000 electrons
 Dipole moment (field-independent basis, Debye):
    X=              0.0108    Y=             -0.0112    Z=             -0.0005  Tot=              0.0156
 Quadrupole moment (field-independent basis, Debye-Ang):
   XX=           -126.3546   YY=           -127.5882   ZZ=           -140.3213
   XY=              0.0719   XZ=             -6.5782   YZ=             -2.9390
 Traceless Quadrupole moment (field-independent basis, Debye-Ang):
   XX=              5.0668   YY=              3.8331   ZZ=             -8.8999
   XY=              0.0719   XZ=             -6.5782   YZ=             -2.9390
 Octapole moment (field-independent basis, Debye-Ang**2):
  XXX=             33.0776  YYY=             13.7620  ZZZ=              0.5487  XYY=            -39.3568
  XXY=            -10.2236  XXZ=             28.4954  XZZ=              6.1175  YZZ=             -3.3731
  YYZ=            -29.1287  XYZ=            -24.7077
 Hexadecapole moment (field-independent basis, Debye-Ang**3):
 XXXX=          -6258.5176 YYYY=          -6241.2327 ZZZZ=           -559.4457 XXXY=              5.6767
 XXXZ=           -131.2508 YYYX=              5.2205 YYYZ=             14.3662 ZZZX=            -17.3254
 ZZZY=            -13.2785 XXYY=          -2102.4686 XXZZ=          -1217.4651 YYZZ=          -1221.9624
 XXYZ=            -76.4257 YYXZ=            -19.7446 ZZXY=             -8.7339
 N-N= 1.732036806261D+03 E-N=-5.610518041046D+03  KE= 9.212945243694D+02
 No NMR shielding tensors so no spin-rotation constants.
 Leave Link  601 at Mon Nov 14 15:09:38 2022, MaxMem= 16106127360 cpu:               9.0 elap:               0.3
 (Enter /opt/ap/G16/B01/g16/l9999.exe)
 1\1\GINC-N59\SP\RwB97XD\6-311++G(d,p)\C24H18\ROOT\14-Nov-2022\0\\#P wB
 97XD/6-311++G(d,p) scf=maxcycle=512\\_conf008.gjf nmol_natom 1_42\\0,1
 \C\C,1,1.39412829\C,1,1.39435449,2,118.86443127\C,2,1.39416084,1,121.1
 529487,3,0.03668482,0\H,2,1.08488355,1,119.42236619,3,-179.97409048,0\
 C,1,1.48467131,2,120.55714816,4,179.25839056,0\C,3,1.39437784,1,121.11
 776116,2,-0.05351271,0\H,3,1.08487775,1,119.41869036,2,177.23008049,0\
 C,4,1.39432447,2,118.86473838,1,0.01008406,0\C,4,1.48466627,2,120.5464
 188,1,179.19454736,0\C,6,1.3968498,1,120.7843492,2,-50.,0\C,6,1.396868
 2,1,120.67653841,2,130.,0\C,7,1.48449863,3,120.56496838,1,-179.9632580
 4,0\H,9,1.0848792,4,119.41824946,2,177.22245984,0\C,10,1.39685361,4,12
 0.76946845,2,-42.52368674,0\C,10,1.39686289,4,120.69448769,2,137.43107
 516,0\C,11,1.38888939,6,120.7380073,1,179.94058542,0\H,11,1.0847641,6,
 119.46912378,1,-1.41050605,0\C,12,1.38882428,6,120.76493111,1,-179.950
 82712,0\H,12,1.08482758,6,119.44182626,1,-1.23602505,0\C,13,1.39682899
 ,7,120.74134419,3,42.89023273,0\C,13,1.39683158,7,120.7379111,3,-137.1
 2494058,0\C,15,1.38888263,10,120.742191,4,179.9460119,0\H,15,1.0847633
 4,10,119.47085903,4,-1.40606944,0\C,16,1.38886088,10,120.76338989,4,-1
 79.95592713,0\H,16,1.08483431,10,119.44215232,4,-1.23439681,0\C,17,1.3
 9007919,11,120.20743432,6,0.00349958,0\H,17,1.0843506,11,119.71318733,
 6,179.5011609,0\H,19,1.08435858,12,119.73823132,6,179.53683762,0\C,21,
 1.38882373,13,120.76699356,7,179.99297883,0\H,21,1.0847938,13,119.4352
 623,7,1.32183327,0\C,22,1.38881869,13,120.76647403,7,-179.97118338,0\H
 ,22,1.08479982,13,119.43203605,7,1.34657928,0\C,23,1.39007007,15,120.2
 0732995,10,0.00573957,0\H,23,1.08434813,15,119.71220819,10,179.5072436
 8,0\H,25,1.08436328,16,119.73539424,10,179.53636455,0\H,27,1.08412515,
 17,120.21790854,11,179.98397203,0\C,30,1.39008059,21,120.18795226,13,-
 0.02169059,0\H,30,1.08435324,21,119.73787119,13,-179.52151214,0\H,32,1
 .0843543,22,119.737043,13,-179.52886928,0\H,34,1.08412314,23,120.22152
 803,15,179.98800213,0\H,38,1.08411439,30,120.21547163,21,-179.98600656
 ,0\\Version=ES64L-G16RevB.01\State=1-A\HF=-925.3116813\RMSD=8.433e-09\
 Dipole=-0.0060181,0.0002731,0.0010697\Quadrupole=3.3083575,-6.2469617,
 2.9386042,-2.8407785,0.293801,-4.9280171\PG=C01 [X(C24H18)]\\@


 MOST BUREAUCRACIES FUNCTION LIKE A SEPTIC TANK.
 THE LARGE CHUNKS RISE TO THE TOP.
 Job cpu time:       0 days  1 hours 18 minutes 19.8 seconds.
 Elapsed time:       0 days  0 hours  2 minutes 27.5 seconds.
 File lengths (MBytes):  RWF=    224 Int=      0 D2E=      0 Chk=     26 Scr=      1
 Normal termination of Gaussian 16 at Mon Nov 14 15:09:38 2022.
