 Entering Gaussian System, Link 0=g16
 Input=_conf022.gjf
 Output=_conf022.log
 Initial command:
 /opt/ap/G16/B01/g16/l1.exe "/tmp2/scr/Gau-13281.inp" -scrdir="/tmp2/scr/"
 Entering Link 1 = /opt/ap/G16/B01/g16/l1.exe PID=     13282.
  
 Copyright (c) 1988-2017, Gaussian, Inc.  All Rights Reserved.
  
 This is part of the Gaussian(R) 16 program.  It is based on
 the Gaussian(R) 09 system (copyright 2009, Gaussian, Inc.),
 the Gaussian(R) 03 system (copyright 2003, Gaussian, Inc.),
 the Gaussian(R) 98 system (copyright 1998, Gaussian, Inc.),
 the Gaussian(R) 94 system (copyright 1995, Gaussian, Inc.),
 the Gaussian 92(TM) system (copyright 1992, Gaussian, Inc.),
 the Gaussian 90(TM) system (copyright 1990, Gaussian, Inc.),
 the Gaussian 88(TM) system (copyright 1988, Gaussian, Inc.),
 the Gaussian 86(TM) system (copyright 1986, Carnegie Mellon
 University), and the Gaussian 82(TM) system (copyright 1983,
 Carnegie Mellon University). Gaussian is a federally registered
 trademark of Gaussian, Inc.
  
 This software contains proprietary and confidential information,
 including trade secrets, belonging to Gaussian, Inc.
  
 This software is provided under written license and may be
 used, copied, transmitted, or stored only in accord with that
 written license.
  
 The following legend is applicable only to US Government
 contracts under FAR:
  
                    RESTRICTED RIGHTS LEGEND
  
 Use, reproduction and disclosure by the US Government is
 subject to restrictions as set forth in subparagraphs (a)
 and (c) of the Commercial Computer Software - Restricted
 Rights clause in FAR 52.227-19.
  
 Gaussian, Inc.
 340 Quinnipiac St., Bldg. 40, Wallingford CT 06492
  
  
 ---------------------------------------------------------------
 Warning -- This program may not be used in any manner that
 competes with the business of Gaussian, Inc. or will provide
 assistance to any competitor of Gaussian, Inc.  The licensee
 of this program is prohibited from giving any competitor of
 Gaussian, Inc. access to this program.  By using this program,
 the user acknowledges that Gaussian, Inc. is engaged in the
 business of creating and licensing software in the field of
 computational chemistry and represents and warrants to the
 licensee that it is not a competitor of Gaussian, Inc. and that
 it will not use this program in any manner prohibited above.
 ---------------------------------------------------------------
  

 Cite this work as:
 Gaussian 16, Revision B.01,
 M. J. Frisch, G. W. Trucks, H. B. Schlegel, G. E. Scuseria, 
 M. A. Robb, J. R. Cheeseman, G. Scalmani, V. Barone, 
 G. A. Petersson, H. Nakatsuji, X. Li, M. Caricato, A. V. Marenich, 
 J. Bloino, B. G. Janesko, R. Gomperts, B. Mennucci, H. P. Hratchian, 
 J. V. Ortiz, A. F. Izmaylov, J. L. Sonnenberg, D. Williams-Young, 
 F. Ding, F. Lipparini, F. Egidi, J. Goings, B. Peng, A. Petrone, 
 T. Henderson, D. Ranasinghe, V. G. Zakrzewski, J. Gao, N. Rega, 
 G. Zheng, W. Liang, M. Hada, M. Ehara, K. Toyota, R. Fukuda, 
 J. Hasegawa, M. Ishida, T. Nakajima, Y. Honda, O. Kitao, H. Nakai, 
 T. Vreven, K. Throssell, J. A. Montgomery, Jr., J. E. Peralta, 
 F. Ogliaro, M. J. Bearpark, J. J. Heyd, E. N. Brothers, K. N. Kudin, 
 V. N. Staroverov, T. A. Keith, R. Kobayashi, J. Normand, 
 K. Raghavachari, A. P. Rendell, J. C. Burant, S. S. Iyengar, 
 J. Tomasi, M. Cossi, J. M. Millam, M. Klene, C. Adamo, R. Cammi, 
 J. W. Ochterski, R. L. Martin, K. Morokuma, O. Farkas, 
 J. B. Foresman, and D. J. Fox, Gaussian, Inc., Wallingford CT, 2016.
 
 ******************************************
 Gaussian 16:  ES64L-G16RevB.01 20-Dec-2017
                14-Nov-2022 
 ******************************************
 %nprocshared=32
 Will use up to   32 processors via shared memory.
 %mem=120GB
 %chk=_conf022.chk
 ----------------------------------------
 #P wB97XD/6-311++G(d,p) scf=maxcycle=512
 ----------------------------------------
 1/38=1,172=1/1;
 2/12=2,17=6,18=5,40=1/2;
 3/5=4,6=6,7=1111,11=2,25=1,30=1,74=-58/1,2,3;
 4//1;
 5/5=2,7=512,38=5/2;
 6/7=2,8=2,9=2,10=2,28=1/1;
 99/5=1,9=1/99;
 Leave Link    1 at Mon Nov 14 15:14:43 2022, MaxMem= 16106127360 cpu:               2.4 elap:               0.1
 (Enter /opt/ap/G16/B01/g16/l101.exe)
 ----------------------------
 _conf022.gjf nmol_natom 1_42
 ----------------------------
 Symbolic Z-matrix:
 Charge =  0 Multiplicity = 1
 C
 C                    1     1.39413 
 C                    1     1.39435  2     118.86443 
 C                    2     1.39416  1     121.15295  3     0.03668  0
 H                    2     1.08488  1     119.42237  3    -179.97409  0
 C                    1     1.48467  2     120.55715  4     179.25839  0
 C                    3     1.39438  1     121.11776  2    -0.05351  0
 H                    3     1.08488  1     119.41869  2     177.23008  0
 C                    4     1.39432  2     118.86474  1     0.01008  0
 C                    4     1.48467  2     120.54642  1     179.19455  0
 C                    6     1.39685  1     120.78435  2     20.      0
 C                    6     1.39687  1     120.67654  2    -160.     0
 C                    7     1.4845   3     120.56497  1    -179.96326  0
 H                    9     1.08488  4     119.41825  2     177.22246  0
 C                    10    1.39685  4     120.76947  2    -42.52369  0
 C                    10    1.39686  4     120.69449  2     137.43108  0
 C                    11    1.38889  6     120.73801  1     179.94059  0
 H                    11    1.08476  6     119.46912  1    -1.41051  0
 C                    12    1.38882  6     120.76493  1    -179.95083  0
 H                    12    1.08483  6     119.44183  1    -1.23603  0
 C                    13    1.39683  7     120.74134  3     42.89023  0
 C                    13    1.39683  7     120.73791  3    -137.12494  0
 C                    15    1.38888  10    120.74219  4     179.94601  0
 H                    15    1.08476  10    119.47086  4    -1.40607  0
 C                    16    1.38886  10    120.76339  4    -179.95593  0
 H                    16    1.08483  10    119.44215  4    -1.2344   0
 C                    17    1.39008  11    120.20743  6     0.0035   0
 H                    17    1.08435  11    119.71319  6     179.50116  0
 H                    19    1.08436  12    119.73823  6     179.53684  0
 C                    21    1.38882  13    120.76699  7     179.99298  0
 H                    21    1.08479  13    119.43526  7     1.32183  0
 C                    22    1.38882  13    120.76647  7    -179.97118  0
 H                    22    1.0848   13    119.43204  7     1.34658  0
 C                    23    1.39007  15    120.20733  10    0.00574  0
 H                    23    1.08435  15    119.71221  10    179.50724  0
 H                    25    1.08436  16    119.73539  10    179.53636  0
 H                    27    1.08413  17    120.21791  11    179.98397  0
 C                    30    1.39008  21    120.18795  13   -0.02169  0
 H                    30    1.08435  21    119.73787  13   -179.52151  0
 H                    32    1.08435  22    119.73704  13   -179.52887  0
 H                    34    1.08412  23    120.22153  15    179.988  0
 H                    38    1.08411  30    120.21547  21   -179.98601  0
 
 ITRead=  0  0  0  0  0  0  0  0  0  0  0  0  0  0  0  0  0  0  0  0
 ITRead=  0  0  0  0  0  0  0  0  0  0  0  0  0  0  0  0  0  0  0  0
 ITRead=  0  0
 MicOpt= -1 -1 -1 -1 -1 -1 -1 -1 -1 -1 -1 -1 -1 -1 -1 -1 -1 -1 -1 -1
 MicOpt= -1 -1 -1 -1 -1 -1 -1 -1 -1 -1 -1 -1 -1 -1 -1 -1 -1 -1 -1 -1
 MicOpt= -1 -1
 NAtoms=     42 NQM=       42 NQMF=       0 NMMI=      0 NMMIF=      0
                NMic=       0 NMicF=      0.
                    Isotopes and Nuclear Properties:
 (Nuclear quadrupole moments (NQMom) in fm**2, nuclear magnetic moments (NMagM)
  in nuclear magnetons)

  Atom         1           2           3           4           5           6           7           8           9          10
 IAtWgt=          12          12          12          12           1          12          12           1          12          12
 AtmWgt=  12.0000000  12.0000000  12.0000000  12.0000000   1.0078250  12.0000000  12.0000000   1.0078250  12.0000000  12.0000000
 NucSpn=           0           0           0           0           1           0           0           1           0           0
 AtZEff=  -0.0000000  -0.0000000  -0.0000000  -0.0000000  -0.0000000  -0.0000000  -0.0000000  -0.0000000  -0.0000000  -0.0000000
 NQMom=    0.0000000   0.0000000   0.0000000   0.0000000   0.0000000   0.0000000   0.0000000   0.0000000   0.0000000   0.0000000
 NMagM=    0.0000000   0.0000000   0.0000000   0.0000000   2.7928460   0.0000000   0.0000000   2.7928460   0.0000000   0.0000000
 AtZNuc=   6.0000000   6.0000000   6.0000000   6.0000000   1.0000000   6.0000000   6.0000000   1.0000000   6.0000000   6.0000000

  Atom        11          12          13          14          15          16          17          18          19          20
 IAtWgt=          12          12          12           1          12          12          12           1          12           1
 AtmWgt=  12.0000000  12.0000000  12.0000000   1.0078250  12.0000000  12.0000000  12.0000000   1.0078250  12.0000000   1.0078250
 NucSpn=           0           0           0           1           0           0           0           1           0           1
 AtZEff=  -0.0000000  -0.0000000  -0.0000000  -0.0000000  -0.0000000  -0.0000000  -0.0000000  -0.0000000  -0.0000000  -0.0000000
 NQMom=    0.0000000   0.0000000   0.0000000   0.0000000   0.0000000   0.0000000   0.0000000   0.0000000   0.0000000   0.0000000
 NMagM=    0.0000000   0.0000000   0.0000000   2.7928460   0.0000000   0.0000000   0.0000000   2.7928460   0.0000000   2.7928460
 AtZNuc=   6.0000000   6.0000000   6.0000000   1.0000000   6.0000000   6.0000000   6.0000000   1.0000000   6.0000000   1.0000000

  Atom        21          22          23          24          25          26          27          28          29          30
 IAtWgt=          12          12          12           1          12           1          12           1           1          12
 AtmWgt=  12.0000000  12.0000000  12.0000000   1.0078250  12.0000000   1.0078250  12.0000000   1.0078250   1.0078250  12.0000000
 NucSpn=           0           0           0           1           0           1           0           1           1           0
 AtZEff=  -0.0000000  -0.0000000  -0.0000000  -0.0000000  -0.0000000  -0.0000000  -0.0000000  -0.0000000  -0.0000000  -0.0000000
 NQMom=    0.0000000   0.0000000   0.0000000   0.0000000   0.0000000   0.0000000   0.0000000   0.0000000   0.0000000   0.0000000
 NMagM=    0.0000000   0.0000000   0.0000000   2.7928460   0.0000000   2.7928460   0.0000000   2.7928460   2.7928460   0.0000000
 AtZNuc=   6.0000000   6.0000000   6.0000000   1.0000000   6.0000000   1.0000000   6.0000000   1.0000000   1.0000000   6.0000000

  Atom        31          32          33          34          35          36          37          38          39          40
 IAtWgt=           1          12           1          12           1           1           1          12           1           1
 AtmWgt=   1.0078250  12.0000000   1.0078250  12.0000000   1.0078250   1.0078250   1.0078250  12.0000000   1.0078250   1.0078250
 NucSpn=           1           0           1           0           1           1           1           0           1           1
 AtZEff=  -0.0000000  -0.0000000  -0.0000000  -0.0000000  -0.0000000  -0.0000000  -0.0000000  -0.0000000  -0.0000000  -0.0000000
 NQMom=    0.0000000   0.0000000   0.0000000   0.0000000   0.0000000   0.0000000   0.0000000   0.0000000   0.0000000   0.0000000
 NMagM=    2.7928460   0.0000000   2.7928460   0.0000000   2.7928460   2.7928460   2.7928460   0.0000000   2.7928460   2.7928460
 AtZNuc=   1.0000000   6.0000000   1.0000000   6.0000000   1.0000000   1.0000000   1.0000000   6.0000000   1.0000000   1.0000000

  Atom        41          42
 IAtWgt=           1           1
 AtmWgt=   1.0078250   1.0078250
 NucSpn=           1           1
 AtZEff=  -0.0000000  -0.0000000
 NQMom=    0.0000000   0.0000000
 NMagM=    2.7928460   2.7928460
 AtZNuc=   1.0000000   1.0000000
 Leave Link  101 at Mon Nov 14 15:14:43 2022, MaxMem= 16106127360 cpu:               5.6 elap:               0.2
 (Enter /opt/ap/G16/B01/g16/l202.exe)
                          Input orientation:                          
 ---------------------------------------------------------------------
 Center     Atomic      Atomic             Coordinates (Angstroms)
 Number     Number       Type             X           Y           Z
 ---------------------------------------------------------------------
      1          6           0        0.000000    0.000000    0.000000
      2          6           0        0.000000    0.000000    1.394128
      3          6           0        1.221126    0.000000   -0.673109
      4          6           0        1.193108    0.000764    2.115362
      5          1           0       -0.944957   -0.000427    1.927071
      6          6           0       -1.278366   -0.017366   -0.754803
      7          6           0        2.428476    0.001115    0.024455
      8          1           0        1.232154   -0.045667   -1.756969
      9          6           0        2.400843    0.001752    1.418572
     10          6           0        1.177445    0.018728    3.599837
     11          6           0       -2.472765    0.376882   -0.147211
     12          6           0       -1.312526   -0.428768   -2.089278
     13          6           0        3.721572    0.001921   -0.704680
     14          1           0        3.334061    0.048144    1.969857
     15          6           0        0.290794    0.844275    4.295193
     16          6           0        2.049080   -0.790881    4.331965
     17          6           0       -3.667917    0.361425   -0.854592
     18          1           0       -2.467498    0.677208    0.895137
     19          6           0       -2.507164   -0.444768   -2.797387
     20          1           0       -0.390399   -0.718788   -2.581640
     21          6           0        3.910862    0.818865   -1.821777
     22          6           0        4.776237   -0.814044   -0.288725
     23          6           0        0.275860    0.859807    5.683909
     24          1           0       -0.377402    1.495584    3.742000
     25          6           0        2.035025   -0.775886    5.720674
     26          1           0        2.729408   -1.453102    3.807101
     27          6           0       -3.689380   -0.048858   -2.182570
     28          1           0       -4.586713    0.663193   -0.364116
     29          1           0       -2.513292   -0.760046   -3.834882
     30          6           0        5.120444    0.820149   -2.504230
     31          1           0        3.109266    1.474569   -2.144691
     32          6           0        5.986440   -0.813321   -0.970068
     33          1           0        4.638168   -1.470412    0.563864
     34          6           0        1.147946    0.049642    6.401818
     35          1           0       -0.413890    1.513063    6.206701
     36          1           0        2.713797   -1.416787    6.272362
     37          1           0       -4.622226   -0.061236   -2.734814
     38          6           0        6.162883    0.003944   -2.080611
     39          1           0        5.251831    1.466740   -3.364741
     40          1           0        6.791448   -1.459089   -0.637249
     41          1           0        1.136620    0.061726    7.485815
     42          1           0        7.107346    0.004761   -2.612865
 ---------------------------------------------------------------------
                    Distance matrix (angstroms):
                    1          2          3          4          5
     1  C    0.000000
     2  C    1.394128   0.000000
     3  C    1.394354   2.400962   0.000000
     4  C    2.428634   1.394161   2.788612   0.000000
     5  H    2.146287   1.084884   3.384206   2.146341   0.000000
     6  C    1.484671   2.500485   2.500887   3.787659   2.702572
     7  C    2.428599   2.788100   1.394378   2.428585   3.872983
     8  H    2.146445   3.383741   1.084878   3.872806   4.279487
     9  C    2.788619   2.400968   2.401430   1.394324   3.384222
    10  C    3.787552   2.500376   4.273210   1.484666   2.702426
    11  C    2.505649   2.938083   3.750125   4.324271   2.603690
    12  C    2.504326   3.747090   2.934071   4.913420   4.055815
    13  C    3.787700   4.272598   2.500646   3.787581   5.357482
    14  H    3.872805   3.383747   3.384092   2.146415   4.279508
    15  C    4.387032   3.035381   5.124680   2.505463   2.801537
    16  C    4.856969   3.668120   5.134371   2.504540   3.920790
    17  C    3.783460   4.317520   4.905742   5.707912   3.909359
    18  H    2.710799   2.606943   4.064967   3.917469   1.960155
    19  C    3.782732   4.904334   4.313991   6.166491   4.995841
    20  H    2.708124   4.059040   2.599262   5.008700   4.599136
    21  C    4.391384   5.129076   3.037212   4.853507   6.189029
    22  C    4.853707   5.129045   3.667320   4.391169   6.189006
    23  C    5.755188   4.383786   6.484171   3.783362   4.042800
    24  H    4.047440   2.809218   4.928007   2.710524   2.419532
    25  C    6.121229   4.843792   6.491910   3.782894   4.886007
    26  H    4.904609   3.922195   4.945574   2.708491   4.375585
    27  C    4.286902   5.138744   5.137502   6.504873   4.941999
    28  H    4.648692   4.956731   5.853742   6.323998   4.353425
    29  H    4.647647   5.851227   4.951803   7.051357   6.019700
    30  C    5.758711   6.487587   4.385239   6.118495   7.556379
    31  H    4.054822   4.936104   2.811579   4.898143   5.932249
    32  C    6.118822   6.487555   4.843334   5.758354   7.556353
    33  H    4.898230   4.935996   3.920254   4.054620   5.932156
    34  C    6.504116   5.137821   7.075480   4.286973   4.940255
    35  H    6.401859   5.061770   7.231488   4.648499   4.570330
    36  H    6.979577   5.759266   7.243957   4.647859   5.854410
    37  H    5.371027   6.198136   6.196704   7.572724   5.937943
    38  C    6.504621   7.074953   5.138292   6.504219   8.159837
    39  H    6.407382   7.237395   5.063871   6.975231   8.279857
    40  H    6.975586   7.237348   5.758361   6.406985   8.279819
    41  H    7.571865   6.197125   8.159595   5.371096   5.936031
    42  H    7.572414   8.159067   6.197601   7.571945   9.243951
                    6          7          8          9         10
     6  C    0.000000
     7  C    3.787910   0.000000
     8  H    2.703303   2.146356   0.000000
     9  C    4.273231   1.394392   3.384102   0.000000
    10  C    4.999520   3.787973   5.357472   2.500981   0.000000
    11  C    1.396850   4.918621   4.061563   5.132685   5.243346
    12  C    1.396868   4.318305   2.594724   5.126351   6.226254
    13  C    5.000226   1.484499   2.703105   2.500505   5.000173
    14  H    5.357476   2.146366   4.279725   1.084879   2.703459
    15  C    5.357906   4.849723   6.189251   3.665665   1.396854
    16  C    6.127433   4.396117   6.188524   3.039714   1.396863
    17  C    2.421445   6.169971   4.999070   6.490492   6.590668
    18  H    2.149133   5.018541   4.609082   4.942770   4.586351
    19  C    2.421728   5.702818   3.901826   6.485539   7.397002
    20  H    2.148909   3.905899   1.940580   4.930711   6.419714
    21  C    5.363376   2.504946   2.815510   3.667109   6.124188
    22  C    6.124553   2.504906   3.912375   3.036921   5.363369
    23  C    6.681472   6.115597   7.556523   4.841994   2.421492
    24  H    4.829285   4.891475   5.933362   3.917716   2.149154
    25  C    7.313393   5.762417   7.555989   4.387097   2.421736
    26  H    6.239756   4.063707   5.931401   2.815959   2.148914
    27  C    2.802231   6.503969   4.939903   7.075423   7.558227
    28  H    3.400141   7.057067   6.025091   7.241645   7.025224
    29  H    3.400515   6.316242   4.342398   7.233798   8.336850
    30  C    6.686306   3.783088   4.053003   4.842972   7.310892
    31  H    4.838282   2.709194   2.446425   3.920191   6.233057
    32  C    7.311449   3.783053   4.879728   4.384797   6.686012
    33  H    6.233426   2.709077   4.360860   2.811302   4.838519
    34  C    7.557031   6.504835   8.159779   5.138559   2.802307
    35  H    7.179977   6.970308   8.280044   5.756123   3.400165
    36  H    8.202243   6.413127   8.279214   5.066504   3.400510
    37  H    3.886356   7.571647   5.935502   8.159539   8.588968
    38  C    7.558466   4.286853   4.941589   5.137824   7.557929
    39  H    7.187337   4.648230   4.585860   5.757987   8.197725
    40  H    8.198432   4.648180   5.844424   5.063385   7.187062
    41  H    8.587561   7.572613   9.243902   6.197846   3.886431
    42  H    8.589123   5.370968   5.937422   6.197069   8.588456
                   11         12         13         14         15
    11  C    0.000000
    12  C    2.401427   0.000000
    13  C    6.230664   5.238773   0.000000
    14  H    6.189449   6.188279   2.702860   0.000000
    15  C    5.252682   6.704681   6.121971   3.911840   0.000000
    16  C    6.470995   7.256989   5.365963   2.816859   2.401387
    17  C    1.388889   2.774296   7.399747   7.556676   6.513434
    18  H    1.084764   3.385835   6.428065   5.933703   4.381378
    19  C    2.774838   1.388824   6.586053   7.555758   7.732716
    20  H    3.385733   1.084828   4.577194   5.930929   7.085057
    21  C    6.614395   5.376982   1.396829   3.911930   7.107943
    22  C    7.347542   6.361091   1.396832   2.815037   6.624314
    23  C    6.464527   8.037775   7.309101   4.879095   1.388883
    24  H    4.557192   6.211392   6.229413   4.360107   1.084763
    25  C    7.488733   8.504231   6.688393   4.054029   2.774755
    26  H    6.785870   7.221757   4.843310   2.448430   3.385708
    27  C    2.409169   2.408832   7.557046   8.159705   7.655122
    28  H    2.144247   3.858608   8.341514   8.280361   6.747742
    29  H    3.859166   2.144462   7.017997   8.278871   8.748421
    30  C    7.962967   6.566208   2.421718   4.878996   8.340159
    31  H    6.029421   4.814354   2.148776   4.360587   7.057844
    32  C    8.582064   7.394283   2.421709   4.052208   7.931644
    33  H    7.381294   6.598102   2.148749   2.446125   6.179018
    34  C    7.490422   8.853333   7.558317   4.941800   2.409154
    35  H    6.775106   8.567468   8.194680   5.843284   2.144229
    36  H    8.445625   9.332978   7.190790   4.587189   3.859086
    37  H    3.392317   3.392036   8.587455   9.243830   8.624309
    38  C    8.857288   7.487928   2.802355   4.940696   8.708529
    39  H    8.438583   6.950579   3.400487   5.843645   9.147346
    40  H    9.457091   8.297250   3.400476   4.585006   8.478973
    41  H    8.449264   9.895519   8.588933   5.937569   3.392325
    42  H    9.899316   8.447268   3.886469   5.936405   9.741223
                   16         17         18         19         20
    16  C    0.000000
    17  C    7.804629   0.000000
    18  H    5.862299   2.145291   0.000000
    19  C    8.467988   2.402446   3.859422   0.000000
    20  H    7.331726   3.858974   4.283822   2.145303   0.000000
    21  C    6.627673   7.653926   6.934347   6.613595   4.630618
    22  C    5.365510   8.544336   7.489798   7.712177   5.653377
    23  C    2.774316   7.652042   5.521928   9.021059   8.441278
    24  H    3.385823   5.765627   3.625310   7.145938   6.700152
    25  C    1.388861   8.777878   6.757959   9.659114   8.649530
    26  H    1.084834   8.120939   6.326578   8.488680   7.147617
    27  C    8.713191   1.390079   3.390052   1.390101   3.389888
    28  H    8.258405   1.084351   2.465154   3.387168   4.943312
    29  H    9.354869   3.387180   4.943772   1.084359   2.465561
    30  C    7.665654   8.953603   8.315828   7.737335   5.722212
    31  H    6.942862   6.988108   6.401300   5.971109   4.153239
    32  C    6.604154   9.726251   8.784631   8.695759   6.578007
    33  H    4.622091   8.623149   7.430512   7.962771   5.978765
    34  C    2.408903   8.714656   6.617312   9.911087   9.146558
    35  H    3.858628   7.859822   5.755751   9.449259   9.067340
    36  H    2.144469   9.730456   7.755332  10.510166   9.408326
    37  H    9.745669   2.150485   4.285405   2.150465   4.285346
    38  C    7.660043   9.913402   9.153789   8.711190   6.612026
    39  H    8.636768   9.331906   8.852004   8.011102   6.101192
    40  H    6.901424  10.618843   9.624971   9.599960   7.477141
    41  H    3.392092   9.629941   7.536944  10.921444  10.212475
    42  H    8.628428  10.923599  10.219389   9.626781   7.532641
                   21         22         23         24         25
    21  C    0.000000
    22  C    2.401148   0.000000
    23  C    8.339678   7.663388   0.000000
    24  H    7.057108   6.938381   2.145221   0.000000
    25  C    7.934139   6.605193   2.402396   3.859344   0.000000
    26  H    6.184005   4.623169   3.858996   4.283837   2.145356
    27  C    7.658120   8.708550   8.856088   6.960965   9.785635
    28  H    8.623096   9.479069   7.762852   5.938969   9.107307
    29  H    6.914862   8.106503  10.050406   8.188958  10.582820
    30  C    1.388824   2.774442   9.514051   8.348527   8.928391
    31  H    1.084794   3.385432   8.348239   6.841814   8.251212
    32  C    2.774430   1.388819   8.926672   8.248218   7.770528
    33  H    3.385417   1.084800   7.118603   6.637291   5.818196
    34  C    8.709358   7.659884   1.390070   3.389995   1.390095
    35  H    9.145591   8.633852   1.084348   2.465033   3.387137
    36  H    8.482109   6.903971   3.387136   4.943698   1.084363
    37  H    8.626807   9.740697   9.783377   7.898818  10.785406
    38  C    2.408878   2.408889   9.781478   8.882743   8.860440
    39  H    2.144453   3.858761  10.344405   9.066139   9.895553
    40  H    3.858751   2.144441   9.369482   8.905073   7.969536
    41  H    9.741711   8.628862   2.150513   4.285366   2.150453
    42  H    3.392063   3.392069  10.781315   9.931179   9.787018
                   26         27         28         29         30
    26  H    0.000000
    27  C    8.890945   0.000000
    28  H    8.683512   2.149185   0.000000
    29  H    9.293338   2.149210   4.286129   0.000000
    30  C    7.121630   8.858422   9.941509   7.908323   0.000000
    31  H    6.643746   6.967342   7.940835   6.281991   2.145313
    32  C    5.817122   9.781414  10.692933   8.969696   2.402462
    33  H    3.763276   8.883230   9.513772   8.425970   3.859075
    34  C    3.389959   9.853992   8.890479  10.901848   9.782234
    35  H    4.943333   9.140476   7.830093  10.507516  10.343562
    36  H    2.465578  10.693820  10.082985  11.397813   9.371467
    37  H    9.938836   1.084125   2.479166   2.479130   9.785173
    38  C    6.969712   9.852933  10.905722   8.884659   1.390081
    39  H    8.143918   9.145481  10.317285   8.091770   1.084353
    40  H    6.021000  10.687588  11.577618   9.863656   3.387152
    41  H    4.285396  10.806488   9.733433  11.922891  10.781792
    42  H    7.906179  10.805430  11.926500   9.728048   2.150451
                   31         32         33         34         35
    31  H    0.000000
    32  C    3.859055   0.000000
    33  H    4.283308   2.145356   0.000000
    34  C    8.883693   8.860047   6.969499   0.000000
    35  H    9.064207   9.893547   8.140394   2.149187   0.000000
    36  H    8.908597   7.970392   6.024369   2.149200   4.286112
    37  H    7.904613  10.780712   9.930859  10.806721  10.006957
    38  C    3.389900   1.390094   3.389946   9.854100  10.686951
    39  H    2.465597   3.387150   4.943418  10.688111  11.122726
    40  H    4.943399   1.084354   2.465647   9.147341  10.372571
    41  H    9.931470   9.787155   7.907066   1.084123   2.479233
    42  H    4.285343   2.150458   4.285392  10.806525  11.688828
                   36         37         38         39         40
    36  H    0.000000
    37  H   11.695467   0.000000
    38  C    9.148051  10.805129   0.000000
    39  H   10.374492  10.011419   2.149134   0.000000
    40  H    8.023201  11.688701   2.149152   4.286037   0.000000
    41  H    2.479104  11.732036  10.806626  11.689465  10.013697
    42  H   10.013557  11.730391   1.084114   2.479039   2.479054
                   41         42
    41  H    0.000000
    42  H   11.731844   0.000000
 Stoichiometry    C24H18
 Framework group  C1[X(C24H18)]
 Deg. of freedom   120
 Full point group                 C1      NOp   1
 Largest Abelian subgroup         C1      NOp   1
 Largest concise Abelian subgroup C1      NOp   1
                         Standard orientation:                         
 ---------------------------------------------------------------------
 Center     Atomic      Atomic             Coordinates (Angstroms)
 Number     Number       Type             X           Y           Z
 ---------------------------------------------------------------------
      1          6           0       -0.051658    1.400511   -0.040224
      2          6           0       -1.224782    0.647269   -0.040793
      3          6           0        1.174149    0.737182   -0.000034
      4          6           0       -1.187423   -0.745832   -0.001325
      5          1           0       -2.183506    1.154051   -0.072325
      6          6           0       -0.106510    2.883002   -0.099058
      7          6           0        1.239111   -0.655098    0.040259
      8          1           0        2.092967    1.312267   -0.044874
      9          6           0        0.051063   -1.385077    0.039424
     10          6           0       -2.445352   -1.534225    0.015511
     11          6           0       -1.269853    3.570008    0.255691
     12          6           0        1.005377    3.621518   -0.510812
     13          6           0        2.550912   -1.348664    0.083630
     14          1           0        0.090270   -2.466535    0.116070
     15          6           0       -3.524128   -1.141696    0.811352
     16          6           0       -2.576165   -2.684954   -0.765473
     17          6           0       -1.319709    4.956942    0.201466
     18          1           0       -2.149526    3.010596    0.555603
     19          6           0        0.956422    5.008399   -0.565562
     20          1           0        1.922854    3.104088   -0.770334
     21          6           0        3.578428   -0.882011    0.906780
     22          6           0        2.785102   -2.482674   -0.697596
     23          6           0       -4.701041   -1.879030    0.825820
     24          1           0       -3.431179   -0.263063    1.440698
     25          6           0       -3.752588   -3.423038   -0.751513
     26          1           0       -1.755207   -2.991619   -1.404888
     27          6           0       -0.206452    5.681301   -0.208757
     28          1           0       -2.234011    5.472911    0.472840
     29          1           0        1.831814    5.565505   -0.880449
     30          6           0        4.805842   -1.530546    0.947879
     31          1           0        3.405489   -0.015482    1.536064
     32          6           0        4.011926   -3.132347   -0.657038
     33          1           0        2.004930   -2.845112   -1.358475
     34          6           0       -4.819635   -3.022471    0.044301
     35          1           0       -5.525181   -1.563566    1.455968
     36          1           0       -3.838746   -4.309469   -1.370109
     37          1           0       -0.245263    6.763892   -0.251395
     38          6           0        5.026986   -2.658421    0.166011
     39          1           0        5.589248   -1.158475    1.598770
     40          1           0        4.178195   -4.006825   -1.276284
     41          1           0       -5.738125   -3.598295    0.055565
     42          1           0        5.984855   -3.165148    0.197916
 ---------------------------------------------------------------------
 Rotational constants (GHZ):           0.2000549           0.1977227           0.1030726
 Leave Link  202 at Mon Nov 14 15:14:43 2022, MaxMem= 16106127360 cpu:               0.4 elap:               0.0
 (Enter /opt/ap/G16/B01/g16/l301.exe)
 Standard basis: 6-311++G(d,p) (5D, 7F)
 Ernie: Thresh=  0.10000D-02 Tol=  0.10000D-05 Strict=F.
 There are   678 symmetry adapted cartesian basis functions of A   symmetry.
 There are   654 symmetry adapted basis functions of A   symmetry.
   654 basis functions,  1026 primitive gaussians,   678 cartesian basis functions
    81 alpha electrons       81 beta electrons
       nuclear repulsion energy      1734.1269614352 Hartrees.
 IExCor= 4639 DFT=T Ex+Corr=wB97XD ExCW=0 ScaHFX=  1.000000
 ScaDFX=  1.000000  1.000000  1.000000  1.000000 ScalE2=  1.000000  1.000000
 IRadAn=      5 IRanWt=     -1 IRanGd=            0 ICorTp=0 IEmpDi=121
 HFx  wShort=  0.000000 wLong=  0.200000 cFull=  0.222036 cShort=  0.000000 cLong=  0.777964
 DFx  wShort=  0.000000 wLong=  0.200000 cFull=  0.000000 cShort=  0.000000 cLong=  1.000000
 NAtoms=   42 NActive=   42 NUniq=   42 SFac= 1.00D+00 NAtFMM=   60 NAOKFM=F Big=F
 Integral buffers will be    131072 words long.
 Raffenetti 2 integral format.
 Two-electron integral symmetry is turned on.
 R6Disp:  Grimme-D2 Dispersion energy=       -0.0287929614 Hartrees.
 Nuclear repulsion after empirical dispersion term =     1734.0981684738 Hartrees.
 Leave Link  301 at Mon Nov 14 15:14:43 2022, MaxMem= 16106127360 cpu:               1.2 elap:               0.0
 (Enter /opt/ap/G16/B01/g16/l302.exe)
 NPDir=0 NMtPBC=     1 NCelOv=     1 NCel=       1 NClECP=     1 NCelD=      1
         NCelK=      1 NCelE2=     1 NClLst=     1 CellRange=     0.0.
 One-electron integrals computed using PRISM.
 One-electron integral symmetry used in STVInt
 NBasis=   654 RedAO= T EigKep=  1.11D-06  NBF=   654
 NBsUse=   645 1.00D-06 EigRej=  6.81D-07 NBFU=   645
 Precomputing XC quadrature grid using
 IXCGrd= 4 IRadAn=           5 IRanWt=          -1 IRanGd=           0 AccXCQ= 0.00D+00.
 Generated NRdTot=       0 NPtTot=           0 NUsed=           0 NTot=          32
 NSgBfM=   669   669   669   669   669 MxSgAt=    42 MxSgA2=    42.
 Leave Link  302 at Mon Nov 14 15:14:44 2022, MaxMem= 16106127360 cpu:              20.9 elap:               0.7
 (Enter /opt/ap/G16/B01/g16/l303.exe)
 DipDrv:  MaxL=1.
 Leave Link  303 at Mon Nov 14 15:14:44 2022, MaxMem= 16106127360 cpu:               2.7 elap:               0.1
 (Enter /opt/ap/G16/B01/g16/l401.exe)
 ExpMin= 3.60D-02 ExpMax= 4.56D+03 ExpMxC= 6.82D+02 IAcc=3 IRadAn=         5 AccDes= 0.00D+00
 Harris functional with IExCor= 4639 and IRadAn=       5 diagonalized for initial guess.
 HarFok:  IExCor= 4639 AccDes= 0.00D+00 IRadAn=         5 IDoV= 1 UseB2=F ITyADJ=14
 ICtDFT=  3500011 ScaDFX=  1.000000  1.000000  1.000000  1.000000
 FoFCou: FMM=F IPFlag=           0 FMFlag=      100000 FMFlg1=           0
         NFxFlg=           0 DoJE=T BraDBF=F KetDBF=T FulRan=T
         wScrn=  0.000000 ICntrl=       500 IOpCl=  0 I1Cent=   200000004 NGrid=           0
         NMat0=    1 NMatS0=      1 NMatT0=    0 NMatD0=    1 NMtDS0=    0 NMtDT0=    0
 Petite list used in FoFCou.
 Harris En= -882.965353522098    
 JPrj=0 DoOrth=F DoCkMO=F.
 Leave Link  401 at Mon Nov 14 15:14:46 2022, MaxMem= 16106127360 cpu:              56.7 elap:               1.8
 (Enter /opt/ap/G16/B01/g16/l502.exe)
 Integral symmetry usage will be decided dynamically.
 Closed shell SCF:
 Using DIIS extrapolation, IDIIS=  1040.
 NGot= 16106127360 LenX= 16105179956 LenY= 16104719594
 Requested convergence on RMS density matrix=1.00D-08 within 512 cycles.
 Requested convergence on MAX density matrix=1.00D-06.
 Requested convergence on             energy=1.00D-06.
 No special actions if energy rises.
 Fock matrices will be formed incrementally for  20 cycles.

 Cycle   1  Pass 1  IDiag  1:
 FoFJK:  IHMeth= 1 ICntrl=       0 DoSepK=T KAlg= 0 I1Cent=           0 FoldK=F
 IRaf=         1 NMat=       1 IRICut=       1 DoRegI=T DoRafI=F ISym2E= 0 IDoP0=0 IntGTp=1.
 FoFCou: FMM=F IPFlag=           0 FMFlag=      100000 FMFlg1=           0
         NFxFlg=           0 DoJE=T BraDBF=F KetDBF=F FulRan=T
         wScrn=  0.000000 ICntrl=       500 IOpCl=  0 I1Cent=           0 NGrid=           0
         NMat0=    1 NMatS0=      1 NMatT0=    0 NMatD0=    1 NMtDS0=    0 NMtDT0=    0
 Symmetry not used in FoFCou.
 E= -925.112733695705    
 DIIS: error= 5.45D-02 at cycle   1 NSaved=   1.
 NSaved= 1 IEnMin= 1 EnMin= -925.112733695705     IErMin= 1 ErrMin= 5.45D-02
 ErrMax= 5.45D-02  0.00D+00 EMaxC= 1.00D-01 BMatC= 1.90D+00 BMatP= 1.90D+00
 IDIUse=3 WtCom= 4.55D-01 WtEn= 5.45D-01
 Coeff-Com:  0.100D+01
 Coeff-En:   0.100D+01
 Coeff:      0.100D+01
 Gap=     0.307 Goal=   None    Shift=    0.000
 GapD=    0.307 DampG=1.000 DampE=0.500 DampFc=0.5000 IDamp=-1.
 Damping current iteration by 5.00D-01
 RMSDP=4.04D-02 MaxDP=5.10D+00              OVMax= 4.44D-02

 Cycle   2  Pass 1  IDiag  1:
 RMSU=  6.91D-03    CP:  8.10D-01
 E= -925.211621188193     Delta-E=       -0.098887492488 Rises=F Damp=T
 DIIS: error= 2.65D-02 at cycle   2 NSaved=   2.
 NSaved= 2 IEnMin= 2 EnMin= -925.211621188193     IErMin= 2 ErrMin= 2.65D-02
 ErrMax= 2.65D-02  0.00D+00 EMaxC= 1.00D-01 BMatC= 4.32D-01 BMatP= 1.90D+00
 IDIUse=3 WtCom= 7.35D-01 WtEn= 2.65D-01
 Coeff-Com: -0.883D+00 0.188D+01
 Coeff-En:   0.000D+00 0.100D+01
 Coeff:     -0.648D+00 0.165D+01
 Gap=     0.315 Goal=   None    Shift=    0.000
 RMSDP=2.45D-02 MaxDP=2.50D+00 DE=-9.89D-02 OVMax= 3.31D-02

 Cycle   3  Pass 1  IDiag  1:
 RMSU=  4.40D-03    CP:  5.71D-01  1.38D+00
 E= -925.301089915771     Delta-E=       -0.089468727578 Rises=F Damp=F
 DIIS: error= 2.65D-03 at cycle   3 NSaved=   3.
 NSaved= 3 IEnMin= 3 EnMin= -925.301089915771     IErMin= 3 ErrMin= 2.65D-03
 ErrMax= 2.65D-03  0.00D+00 EMaxC= 1.00D-01 BMatC= 7.88D-03 BMatP= 4.32D-01
 IDIUse=3 WtCom= 9.73D-01 WtEn= 2.65D-02
 Coeff-Com: -0.357D+00 0.759D+00 0.598D+00
 Coeff-En:   0.000D+00 0.000D+00 0.100D+01
 Coeff:     -0.347D+00 0.739D+00 0.609D+00
 Gap=     0.313 Goal=   None    Shift=    0.000
 RMSDP=2.34D-03 MaxDP=2.42D-01 DE=-8.95D-02 OVMax= 1.87D-02

 Cycle   4  Pass 1  IDiag  1:
 RMSU=  1.85D-03    CP:  5.70D-01  1.51D+00  7.51D-01
 E= -925.308273553657     Delta-E=       -0.007183637885 Rises=F Damp=F
 DIIS: error= 6.89D-04 at cycle   4 NSaved=   4.
 NSaved= 4 IEnMin= 4 EnMin= -925.308273553657     IErMin= 4 ErrMin= 6.89D-04
 ErrMax= 6.89D-04  0.00D+00 EMaxC= 1.00D-01 BMatC= 2.66D-04 BMatP= 7.88D-03
 IDIUse=3 WtCom= 9.93D-01 WtEn= 6.89D-03
 Coeff-Com: -0.109D+00 0.233D+00 0.239D+00 0.637D+00
 Coeff-En:   0.000D+00 0.000D+00 0.000D+00 0.100D+01
 Coeff:     -0.109D+00 0.231D+00 0.237D+00 0.640D+00
 Gap=     0.312 Goal=   None    Shift=    0.000
 RMSDP=7.60D-04 MaxDP=6.98D-02 DE=-7.18D-03 OVMax= 4.18D-03

 Cycle   5  Pass 1  IDiag  1:
 RMSU=  3.76D-04    CP:  5.66D-01  1.57D+00  7.39D-01  7.98D-01
 E= -925.308554883950     Delta-E=       -0.000281330293 Rises=F Damp=F
 DIIS: error= 2.14D-04 at cycle   5 NSaved=   5.
 NSaved= 5 IEnMin= 5 EnMin= -925.308554883950     IErMin= 5 ErrMin= 2.14D-04
 ErrMax= 2.14D-04  0.00D+00 EMaxC= 1.00D-01 BMatC= 2.03D-05 BMatP= 2.66D-04
 IDIUse=3 WtCom= 9.98D-01 WtEn= 2.14D-03
 Coeff-Com:  0.259D-01-0.553D-01-0.285D-01 0.194D+00 0.864D+00
 Coeff-En:   0.000D+00 0.000D+00 0.000D+00 0.000D+00 0.100D+01
 Coeff:      0.258D-01-0.551D-01-0.285D-01 0.193D+00 0.865D+00
 Gap=     0.312 Goal=   None    Shift=    0.000
 RMSDP=2.28D-04 MaxDP=1.31D-02 DE=-2.81D-04 OVMax= 1.59D-03

 Cycle   6  Pass 1  IDiag  1:
 RMSU=  7.82D-05    CP:  5.64D-01  1.56D+00  7.56D-01  8.75D-01  1.19D+00
 E= -925.308581287772     Delta-E=       -0.000026403822 Rises=F Damp=F
 DIIS: error= 5.64D-05 at cycle   6 NSaved=   6.
 NSaved= 6 IEnMin= 6 EnMin= -925.308581287772     IErMin= 6 ErrMin= 5.64D-05
 ErrMax= 5.64D-05  0.00D+00 EMaxC= 1.00D-01 BMatC= 1.38D-06 BMatP= 2.03D-05
 IDIUse=1 WtCom= 1.00D+00 WtEn= 0.00D+00
 Coeff-Com:  0.130D-01-0.277D-01-0.175D-01 0.533D-01 0.331D+00 0.648D+00
 Coeff:      0.130D-01-0.277D-01-0.175D-01 0.533D-01 0.331D+00 0.648D+00
 Gap=     0.312 Goal=   None    Shift=    0.000
 RMSDP=8.27D-05 MaxDP=8.50D-03 DE=-2.64D-05 OVMax= 3.86D-04

 Cycle   7  Pass 1  IDiag  1:
 RMSU=  4.28D-05    CP:  5.65D-01  1.56D+00  7.59D-01  9.08D-01  1.15D+00
                    CP:  1.00D+00
 E= -925.308582991848     Delta-E=       -0.000001704077 Rises=F Damp=F
 DIIS: error= 1.46D-05 at cycle   7 NSaved=   7.
 NSaved= 7 IEnMin= 7 EnMin= -925.308582991848     IErMin= 7 ErrMin= 1.46D-05
 ErrMax= 1.46D-05  0.00D+00 EMaxC= 1.00D-01 BMatC= 1.04D-07 BMatP= 1.38D-06
 IDIUse=1 WtCom= 1.00D+00 WtEn= 0.00D+00
 Coeff-Com: -0.240D-02 0.516D-02 0.245D-02-0.283D-01-0.104D+00 0.105D+00
 Coeff-Com:  0.102D+01
 Coeff:     -0.240D-02 0.516D-02 0.245D-02-0.283D-01-0.104D+00 0.105D+00
 Coeff:      0.102D+01
 Gap=     0.312 Goal=   None    Shift=    0.000
 RMSDP=2.04D-05 MaxDP=1.45D-03 DE=-1.70D-06 OVMax= 2.69D-04

 Cycle   8  Pass 1  IDiag  1:
 RMSU=  5.93D-06    CP:  5.65D-01  1.56D+00  7.60D-01  9.10D-01  1.18D+00
                    CP:  1.13D+00  1.17D+00
 E= -925.308583233562     Delta-E=       -0.000000241714 Rises=F Damp=F
 DIIS: error= 4.96D-06 at cycle   8 NSaved=   8.
 NSaved= 8 IEnMin= 8 EnMin= -925.308583233562     IErMin= 8 ErrMin= 4.96D-06
 ErrMax= 4.96D-06  0.00D+00 EMaxC= 1.00D-01 BMatC= 5.75D-09 BMatP= 1.04D-07
 IDIUse=1 WtCom= 1.00D+00 WtEn= 0.00D+00
 Coeff-Com: -0.100D-02 0.214D-02 0.121D-02-0.909D-02-0.352D-01 0.122D-01
 Coeff-Com:  0.225D+00 0.805D+00
 Coeff:     -0.100D-02 0.214D-02 0.121D-02-0.909D-02-0.352D-01 0.122D-01
 Coeff:      0.225D+00 0.805D+00
 Gap=     0.312 Goal=   None    Shift=    0.000
 RMSDP=3.26D-06 MaxDP=2.44D-04 DE=-2.42D-07 OVMax= 5.76D-05

 Cycle   9  Pass 1  IDiag  1:
 RMSU=  2.40D-06    CP:  5.65D-01  1.56D+00  7.60D-01  9.10D-01  1.19D+00
                    CP:  1.15D+00  1.21D+00  1.12D+00
 E= -925.308583243351     Delta-E=       -0.000000009789 Rises=F Damp=F
 DIIS: error= 2.99D-06 at cycle   9 NSaved=   9.
 NSaved= 9 IEnMin= 9 EnMin= -925.308583243351     IErMin= 9 ErrMin= 2.99D-06
 ErrMax= 2.99D-06  0.00D+00 EMaxC= 1.00D-01 BMatC= 1.92D-09 BMatP= 5.75D-09
 IDIUse=1 WtCom= 1.00D+00 WtEn= 0.00D+00
 Coeff-Com:  0.119D-03-0.259D-03 0.118D-04 0.275D-02 0.999D-02-0.168D-01
 Coeff-Com: -0.159D+00 0.371D+00 0.791D+00
 Coeff:      0.119D-03-0.259D-03 0.118D-04 0.275D-02 0.999D-02-0.168D-01
 Coeff:     -0.159D+00 0.371D+00 0.791D+00
 Gap=     0.312 Goal=   None    Shift=    0.000
 RMSDP=1.97D-06 MaxDP=1.77D-04 DE=-9.79D-09 OVMax= 3.96D-05

 Cycle  10  Pass 1  IDiag  1:
 RMSU=  7.28D-07    CP:  5.65D-01  1.56D+00  7.60D-01  9.10D-01  1.19D+00
                    CP:  1.15D+00  1.23D+00  1.33D+00  6.51D-01
 E= -925.308583246796     Delta-E=       -0.000000003445 Rises=F Damp=F
 DIIS: error= 9.35D-07 at cycle  10 NSaved=  10.
 NSaved=10 IEnMin=10 EnMin= -925.308583246796     IErMin=10 ErrMin= 9.35D-07
 ErrMax= 9.35D-07  0.00D+00 EMaxC= 1.00D-01 BMatC= 2.26D-10 BMatP= 1.92D-09
 IDIUse=1 WtCom= 1.00D+00 WtEn= 0.00D+00
 Coeff-Com:  0.117D-03-0.253D-03-0.708D-04 0.172D-02 0.620D-02-0.611D-02
 Coeff-Com: -0.758D-01 0.600D-01 0.333D+00 0.682D+00
 Coeff:      0.117D-03-0.253D-03-0.708D-04 0.172D-02 0.620D-02-0.611D-02
 Coeff:     -0.758D-01 0.600D-01 0.333D+00 0.682D+00
 Gap=     0.312 Goal=   None    Shift=    0.000
 RMSDP=5.17D-07 MaxDP=4.80D-05 DE=-3.44D-09 OVMax= 1.03D-05

 Cycle  11  Pass 1  IDiag  1:
 RMSU=  1.45D-07    CP:  5.65D-01  1.56D+00  7.60D-01  9.10D-01  1.19D+00
                    CP:  1.15D+00  1.23D+00  1.33D+00  8.12D-01  1.02D+00
 E= -925.308583247117     Delta-E=       -0.000000000321 Rises=F Damp=F
 DIIS: error= 2.01D-07 at cycle  11 NSaved=  11.
 NSaved=11 IEnMin=11 EnMin= -925.308583247117     IErMin=11 ErrMin= 2.01D-07
 ErrMax= 2.01D-07  0.00D+00 EMaxC= 1.00D-01 BMatC= 3.11D-11 BMatP= 2.26D-10
 IDIUse=1 WtCom= 1.00D+00 WtEn= 0.00D+00
 Coeff-Com:  0.202D-04-0.428D-04-0.196D-04 0.115D-03 0.242D-03 0.118D-02
 Coeff-Com:  0.156D-02-0.578D-01-0.140D-01 0.252D+00 0.817D+00
 Coeff:      0.202D-04-0.428D-04-0.196D-04 0.115D-03 0.242D-03 0.118D-02
 Coeff:      0.156D-02-0.578D-01-0.140D-01 0.252D+00 0.817D+00
 Gap=     0.312 Goal=   None    Shift=    0.000
 RMSDP=2.47D-07 MaxDP=2.18D-05 DE=-3.21D-10 OVMax= 3.35D-06

 Cycle  12  Pass 1  IDiag  1:
 RMSU=  6.50D-08    CP:  5.65D-01  1.56D+00  7.60D-01  9.10D-01  1.19D+00
                    CP:  1.15D+00  1.23D+00  1.35D+00  7.93D-01  1.20D+00
                    CP:  1.20D+00
 E= -925.308583247184     Delta-E=       -0.000000000067 Rises=F Damp=F
 DIIS: error= 8.96D-08 at cycle  12 NSaved=  12.
 NSaved=12 IEnMin=12 EnMin= -925.308583247184     IErMin=12 ErrMin= 8.96D-08
 ErrMax= 8.96D-08  0.00D+00 EMaxC= 1.00D-01 BMatC= 1.38D-12 BMatP= 3.11D-11
 IDIUse=1 WtCom= 1.00D+00 WtEn= 0.00D+00
 Coeff-Com: -0.140D-04 0.303D-04 0.125D-04-0.218D-03-0.804D-03 0.977D-03
 Coeff-Com:  0.939D-02-0.992D-02-0.297D-01-0.648D-01-0.988D-01 0.119D+01
 Coeff:     -0.140D-04 0.303D-04 0.125D-04-0.218D-03-0.804D-03 0.977D-03
 Coeff:      0.939D-02-0.992D-02-0.297D-01-0.648D-01-0.988D-01 0.119D+01
 Gap=     0.312 Goal=   None    Shift=    0.000
 RMSDP=8.26D-08 MaxDP=5.77D-06 DE=-6.68D-11 OVMax= 1.55D-06

 Cycle  13  Pass 1  IDiag  1:
 RMSU=  2.90D-08    CP:  5.65D-01  1.56D+00  7.60D-01  9.10D-01  1.19D+00
                    CP:  1.15D+00  1.23D+00  1.34D+00  7.90D-01  1.25D+00
                    CP:  1.29D+00  1.43D+00
 E= -925.308583247159     Delta-E=        0.000000000025 Rises=F Damp=F
 DIIS: error= 2.53D-08 at cycle  13 NSaved=  13.
 NSaved=13 IEnMin=12 EnMin= -925.308583247184     IErMin=13 ErrMin= 2.53D-08
 ErrMax= 2.53D-08  0.00D+00 EMaxC= 1.00D-01 BMatC= 1.04D-13 BMatP= 1.38D-12
 IDIUse=1 WtCom= 1.00D+00 WtEn= 0.00D+00
 Coeff-Com: -0.233D-05 0.498D-05 0.263D-05-0.258D-04-0.830D-04 0.419D-04
 Coeff-Com:  0.701D-03 0.180D-02-0.586D-03-0.174D-01-0.732D-01 0.120D+00
 Coeff-Com:  0.969D+00
 Coeff:     -0.233D-05 0.498D-05 0.263D-05-0.258D-04-0.830D-04 0.419D-04
 Coeff:      0.701D-03 0.180D-02-0.586D-03-0.174D-01-0.732D-01 0.120D+00
 Coeff:      0.969D+00
 Gap=     0.312 Goal=   None    Shift=    0.000
 RMSDP=2.81D-08 MaxDP=2.77D-06 DE= 2.46D-11 OVMax= 3.88D-07

 Cycle  14  Pass 1  IDiag  1:
 RMSU=  6.62D-09    CP:  5.65D-01  1.56D+00  7.60D-01  9.10D-01  1.19D+00
                    CP:  1.15D+00  1.23D+00  1.35D+00  7.88D-01  1.26D+00
                    CP:  1.31D+00  1.56D+00  1.28D+00
 E= -925.308583247190     Delta-E=       -0.000000000031 Rises=F Damp=F
 DIIS: error= 6.45D-09 at cycle  14 NSaved=  14.
 NSaved=14 IEnMin=14 EnMin= -925.308583247190     IErMin=14 ErrMin= 6.45D-09
 ErrMax= 6.45D-09  0.00D+00 EMaxC= 1.00D-01 BMatC= 3.08D-14 BMatP= 1.04D-13
 IDIUse=1 WtCom= 1.00D+00 WtEn= 0.00D+00
 Coeff-Com:  0.758D-06-0.168D-05-0.489D-06 0.167D-04 0.676D-04-0.106D-03
 Coeff-Com: -0.897D-03 0.198D-02 0.374D-02 0.140D-02-0.208D-01-0.105D+00
 Coeff-Com:  0.420D+00 0.700D+00
 Coeff:      0.758D-06-0.168D-05-0.489D-06 0.167D-04 0.676D-04-0.106D-03
 Coeff:     -0.897D-03 0.198D-02 0.374D-02 0.140D-02-0.208D-01-0.105D+00
 Coeff:      0.420D+00 0.700D+00
 Gap=     0.312 Goal=   None    Shift=    0.000
 RMSDP=8.30D-09 MaxDP=1.05D-06 DE=-3.09D-11 OVMax= 8.79D-08

 Cycle  15  Pass 1  IDiag  1:
 RMSU=  2.45D-09    CP:  5.65D-01  1.56D+00  7.60D-01  9.10D-01  1.19D+00
                    CP:  1.15D+00  1.23D+00  1.35D+00  7.87D-01  1.26D+00
                    CP:  1.30D+00  1.60D+00  1.40D+00  1.16D+00
 E= -925.308583247153     Delta-E=        0.000000000037 Rises=F Damp=F
 DIIS: error= 2.72D-09 at cycle  15 NSaved=  15.
 NSaved=15 IEnMin=14 EnMin= -925.308583247190     IErMin=15 ErrMin= 2.72D-09
 ErrMax= 2.72D-09  0.00D+00 EMaxC= 1.00D-01 BMatC= 1.29D-15 BMatP= 3.08D-14
 IDIUse=1 WtCom= 1.00D+00 WtEn= 0.00D+00
 Coeff-Com:  0.389D-06-0.841D-06-0.444D-06 0.577D-05 0.213D-04-0.262D-04
 Coeff-Com: -0.234D-03 0.139D-03 0.766D-03 0.239D-02 0.443D-02-0.326D-01
 Coeff-Com: -0.129D-01 0.406D-01 0.997D+00
 Coeff:      0.389D-06-0.841D-06-0.444D-06 0.577D-05 0.213D-04-0.262D-04
 Coeff:     -0.234D-03 0.139D-03 0.766D-03 0.239D-02 0.443D-02-0.326D-01
 Coeff:     -0.129D-01 0.406D-01 0.997D+00
 Gap=     0.312 Goal=   None    Shift=    0.000
 RMSDP=4.55D-09 MaxDP=5.28D-07 DE= 3.73D-11 OVMax= 4.02D-08

 SCF Done:  E(RwB97XD) =  -925.308583247     A.U. after   15 cycles
            NFock= 15  Conv=0.46D-08     -V/T= 2.0043
 KE= 9.213114352899D+02 PE=-5.614540646663D+03 EE= 2.033822459653D+03
 Leave Link  502 at Mon Nov 14 15:17:19 2022, MaxMem= 16106127360 cpu:            4877.3 elap:             152.9
 (Enter /opt/ap/G16/B01/g16/l601.exe)
 Copying SCF densities to generalized density rwf, IOpCl= 0 IROHF=0.

 **********************************************************************

            Population analysis using the SCF Density.

 **********************************************************************

 Orbital symmetries:
       Occupied  (A) (A) (A) (A) (A) (A) (A) (A) (A) (A) (A) (A)
                 (A) (A) (A) (A) (A) (A) (A) (A) (A) (A) (A) (A)
                 (A) (A) (A) (A) (A) (A) (A) (A) (A) (A) (A) (A)
                 (A) (A) (A) (A) (A) (A) (A) (A) (A) (A) (A) (A)
                 (A) (A) (A) (A) (A) (A) (A) (A) (A) (A) (A) (A)
                 (A) (A) (A) (A) (A) (A) (A) (A) (A) (A) (A) (A)
                 (A) (A) (A) (A) (A) (A) (A) (A) (A)
       Virtual   (A) (A) (A) (A) (A) (A) (A) (A) (A) (A) (A) (A)
                 (A) (A) (A) (A) (A) (A) (A) (A) (A) (A) (A) (A)
                 (A) (A) (A) (A) (A) (A) (A) (A) (A) (A) (A) (A)
                 (A) (A) (A) (A) (A) (A) (A) (A) (A) (A) (A) (A)
                 (A) (A) (A) (A) (A) (A) (A) (A) (A) (A) (A) (A)
                 (A) (A) (A) (A) (A) (A) (A) (A) (A) (A) (A) (A)
                 (A) (A) (A) (A) (A) (A) (A) (A) (A) (A) (A) (A)
                 (A) (A) (A) (A) (A) (A) (A) (A) (A) (A) (A) (A)
                 (A) (A) (A) (A) (A) (A) (A) (A) (A) (A) (A) (A)
                 (A) (A) (A) (A) (A) (A) (A) (A) (A) (A) (A) (A)
                 (A) (A) (A) (A) (A) (A) (A) (A) (A) (A) (A) (A)
                 (A) (A) (A) (A) (A) (A) (A) (A) (A) (A) (A) (A)
                 (A) (A) (A) (A) (A) (A) (A) (A) (A) (A) (A) (A)
                 (A) (A) (A) (A) (A) (A) (A) (A) (A) (A) (A) (A)
                 (A) (A) (A) (A) (A) (A) (A) (A) (A) (A) (A) (A)
                 (A) (A) (A) (A) (A) (A) (A) (A) (A) (A) (A) (A)
                 (A) (A) (A) (A) (A) (A) (A) (A) (A) (A) (A) (A)
                 (A) (A) (A) (A) (A) (A) (A) (A) (A) (A) (A) (A)
                 (A) (A) (A) (A) (A) (A) (A) (A) (A) (A) (A) (A)
                 (A) (A) (A) (A) (A) (A) (A) (A) (A) (A) (A) (A)
                 (A) (A) (A) (A) (A) (A) (A) (A) (A) (A) (A) (A)
                 (A) (A) (A) (A) (A) (A) (A) (A) (A) (A) (A) (A)
                 (A) (A) (A) (A) (A) (A) (A) (A) (A) (A) (A) (A)
                 (A) (A) (A) (A) (A) (A) (A) (A) (A) (A) (A) (A)
                 (A) (A) (A) (A) (A) (A) (A) (A) (A) (A) (A) (A)
                 (A) (A) (A) (A) (A) (A) (A) (A) (A) (A) (A) (A)
                 (A) (A) (A) (A) (A) (A) (A) (A) (A) (A) (A) (A)
                 (A) (A) (A) (A) (A) (A) (A) (A) (A) (A) (A) (A)
                 (A) (A) (A) (A) (A) (A) (A) (A) (A) (A) (A) (A)
                 (A) (A) (A) (A) (A) (A) (A) (A) (A) (A) (A) (A)
                 (A) (A) (A) (A) (A) (A) (A) (A) (A) (A) (A) (A)
                 (A) (A) (A) (A) (A) (A) (A) (A) (A) (A) (A) (A)
                 (A) (A) (A) (A) (A) (A) (A) (A) (A) (A) (A) (A)
                 (A) (A) (A) (A) (A) (A) (A) (A) (A) (A) (A) (A)
                 (A) (A) (A) (A) (A) (A) (A) (A) (A) (A) (A) (A)
                 (A) (A) (A) (A) (A) (A) (A) (A) (A) (A) (A) (A)
                 (A) (A) (A) (A) (A) (A) (A) (A) (A) (A) (A) (A)
                 (A) (A) (A) (A) (A) (A) (A) (A) (A) (A) (A) (A)
                 (A) (A) (A) (A) (A) (A) (A) (A) (A) (A) (A) (A)
                 (A) (A) (A) (A) (A) (A) (A) (A) (A) (A) (A) (A)
                 (A) (A) (A) (A) (A) (A) (A) (A) (A) (A) (A) (A)
                 (A) (A) (A) (A) (A) (A) (A) (A) (A) (A) (A) (A)
                 (A) (A) (A) (A) (A) (A) (A) (A) (A) (A) (A) (A)
                 (A) (A) (A) (A) (A) (A) (A) (A) (A) (A) (A) (A)
                 (A) (A) (A) (A) (A) (A) (A) (A) (A) (A) (A) (A)
                 (A) (A) (A) (A) (A) (A) (A) (A) (A) (A) (A) (A)
                 (A) (A) (A) (A) (A) (A) (A) (A) (A) (A) (A) (A)
 The electronic state is 1-A.
 Alpha  occ. eigenvalues --  -10.30521 -10.30489 -10.30488 -10.30424 -10.30385
 Alpha  occ. eigenvalues --  -10.30363 -10.29309 -10.29309 -10.29297 -10.29295
 Alpha  occ. eigenvalues --  -10.29287 -10.29271 -10.29233 -10.29218 -10.29212
 Alpha  occ. eigenvalues --  -10.29208 -10.29184 -10.29180 -10.29159 -10.29140
 Alpha  occ. eigenvalues --  -10.29131 -10.29111 -10.29102 -10.29089  -0.99066
 Alpha  occ. eigenvalues --   -0.97124  -0.97104  -0.95305  -0.89517  -0.89495
 Alpha  occ. eigenvalues --   -0.85466  -0.85383  -0.85320  -0.85100  -0.82309
 Alpha  occ. eigenvalues --   -0.82253  -0.73907  -0.73640  -0.71189  -0.70871
 Alpha  occ. eigenvalues --   -0.70179  -0.70002  -0.66729  -0.66603  -0.63846
 Alpha  occ. eigenvalues --   -0.60946  -0.60750  -0.58634  -0.57461  -0.56919
 Alpha  occ. eigenvalues --   -0.54942  -0.54872  -0.54314  -0.54047  -0.52285
 Alpha  occ. eigenvalues --   -0.51979  -0.51748  -0.51589  -0.51186  -0.51010
 Alpha  occ. eigenvalues --   -0.50458  -0.48526  -0.46936  -0.46436  -0.46113
 Alpha  occ. eigenvalues --   -0.45585  -0.44876  -0.44414  -0.43209  -0.43177
 Alpha  occ. eigenvalues --   -0.42984  -0.41877  -0.41342  -0.37461  -0.36567
 Alpha  occ. eigenvalues --   -0.33697  -0.33683  -0.33663  -0.32978  -0.30314
 Alpha  occ. eigenvalues --   -0.29800
 Alpha virt. eigenvalues --    0.01447   0.01994   0.03681   0.04170   0.04221
 Alpha virt. eigenvalues --    0.04521   0.04858   0.04946   0.05041   0.05138
 Alpha virt. eigenvalues --    0.05222   0.05693   0.05941   0.06836   0.07073
 Alpha virt. eigenvalues --    0.07185   0.08064   0.08182   0.08425   0.08854
 Alpha virt. eigenvalues --    0.09028   0.09199   0.09560   0.10690   0.11147
 Alpha virt. eigenvalues --    0.11423   0.12075   0.12413   0.12990   0.13474
 Alpha virt. eigenvalues --    0.13760   0.13976   0.14368   0.14543   0.15462
 Alpha virt. eigenvalues --    0.15733   0.15793   0.15825   0.16253   0.16322
 Alpha virt. eigenvalues --    0.16419   0.16489   0.16970   0.17070   0.17294
 Alpha virt. eigenvalues --    0.17422   0.17688   0.17987   0.18104   0.18411
 Alpha virt. eigenvalues --    0.18445   0.18608   0.18754   0.19205   0.19232
 Alpha virt. eigenvalues --    0.19535   0.19654   0.20014   0.20274   0.20577
 Alpha virt. eigenvalues --    0.20879   0.21129   0.21287   0.21887   0.21987
 Alpha virt. eigenvalues --    0.22181   0.22540   0.22709   0.23111   0.23345
 Alpha virt. eigenvalues --    0.23476   0.23692   0.23748   0.24026   0.24526
 Alpha virt. eigenvalues --    0.24762   0.25198   0.25379   0.25451   0.25526
 Alpha virt. eigenvalues --    0.26098   0.26291   0.26812   0.26943   0.27129
 Alpha virt. eigenvalues --    0.27462   0.27648   0.27888   0.28244   0.28633
 Alpha virt. eigenvalues --    0.28666   0.29108   0.29213   0.29330   0.29642
 Alpha virt. eigenvalues --    0.29717   0.30215   0.30574   0.30763   0.31101
 Alpha virt. eigenvalues --    0.31591   0.31996   0.32402   0.32715   0.33282
 Alpha virt. eigenvalues --    0.33303   0.33552   0.33608   0.34250   0.34574
 Alpha virt. eigenvalues --    0.34845   0.34915   0.35406   0.35483   0.35632
 Alpha virt. eigenvalues --    0.35767   0.36040   0.36594   0.36701   0.37079
 Alpha virt. eigenvalues --    0.37190   0.37755   0.38109   0.38171   0.38366
 Alpha virt. eigenvalues --    0.38807   0.39077   0.39534   0.39770   0.40398
 Alpha virt. eigenvalues --    0.40617   0.40881   0.41067   0.41591   0.41766
 Alpha virt. eigenvalues --    0.42076   0.42469   0.42873   0.43188   0.43661
 Alpha virt. eigenvalues --    0.44034   0.44677   0.44895   0.45101   0.45191
 Alpha virt. eigenvalues --    0.45490   0.46917   0.48013   0.48121   0.48279
 Alpha virt. eigenvalues --    0.49639   0.50444   0.53373   0.54336   0.57380
 Alpha virt. eigenvalues --    0.58521   0.59050   0.59155   0.59562   0.61133
 Alpha virt. eigenvalues --    0.61684   0.62268   0.62631   0.62910   0.63133
 Alpha virt. eigenvalues --    0.63194   0.63337   0.63665   0.63762   0.64189
 Alpha virt. eigenvalues --    0.64426   0.64929   0.65228   0.65590   0.65740
 Alpha virt. eigenvalues --    0.65988   0.66269   0.67107   0.67284   0.68401
 Alpha virt. eigenvalues --    0.68783   0.69082   0.69644   0.70005   0.70486
 Alpha virt. eigenvalues --    0.70710   0.71536   0.71847   0.72015   0.72806
 Alpha virt. eigenvalues --    0.73013   0.73068   0.74119   0.74316   0.75007
 Alpha virt. eigenvalues --    0.75370   0.75822   0.76440   0.76978   0.77913
 Alpha virt. eigenvalues --    0.78149   0.78905   0.79071   0.79582   0.79807
 Alpha virt. eigenvalues --    0.80604   0.80676   0.81264   0.81547   0.81887
 Alpha virt. eigenvalues --    0.82417   0.82498   0.83201   0.83856   0.84146
 Alpha virt. eigenvalues --    0.84752   0.84870   0.85273   0.85988   0.86099
 Alpha virt. eigenvalues --    0.86770   0.87396   0.87521   0.88697   0.88884
 Alpha virt. eigenvalues --    0.90434   0.90703   0.91273   0.92319   0.92539
 Alpha virt. eigenvalues --    0.92811   0.93334   0.93578   0.94008   0.94087
 Alpha virt. eigenvalues --    0.94303   0.94359   0.95076   0.95753   0.96756
 Alpha virt. eigenvalues --    0.97380   0.98350   0.98611   0.99289   1.00068
 Alpha virt. eigenvalues --    1.00309   1.00815   1.00983   1.01499   1.02203
 Alpha virt. eigenvalues --    1.02302   1.02837   1.03467   1.04635   1.04809
 Alpha virt. eigenvalues --    1.05852   1.06304   1.06670   1.06951   1.07290
 Alpha virt. eigenvalues --    1.07946   1.08326   1.08849   1.09311   1.11541
 Alpha virt. eigenvalues --    1.12019   1.12685   1.13188   1.13507   1.13836
 Alpha virt. eigenvalues --    1.14811   1.15223   1.15469   1.16999   1.17363
 Alpha virt. eigenvalues --    1.17859   1.18455   1.19497   1.19753   1.21204
 Alpha virt. eigenvalues --    1.21480   1.22239   1.22542   1.23166   1.23883
 Alpha virt. eigenvalues --    1.24704   1.25660   1.26548   1.28417   1.29313
 Alpha virt. eigenvalues --    1.34728   1.39145   1.41226   1.41426   1.41930
 Alpha virt. eigenvalues --    1.45141   1.46678   1.47345   1.52779   1.55566
 Alpha virt. eigenvalues --    1.56722   1.57933   1.58260   1.58568   1.58732
 Alpha virt. eigenvalues --    1.59117   1.59522   1.60297   1.60926   1.61359
 Alpha virt. eigenvalues --    1.61960   1.62327   1.62905   1.63544   1.63704
 Alpha virt. eigenvalues --    1.64600   1.65520   1.65647   1.65886   1.66302
 Alpha virt. eigenvalues --    1.66503   1.67033   1.67616   1.68459   1.68886
 Alpha virt. eigenvalues --    1.69842   1.72673   1.72920   1.73440   1.74031
 Alpha virt. eigenvalues --    1.74284   1.74900   1.75699   1.76026   1.76316
 Alpha virt. eigenvalues --    1.76970   1.77558   1.80022   1.80967   1.82105
 Alpha virt. eigenvalues --    1.82707   1.82906   1.83698   1.85012   1.85110
 Alpha virt. eigenvalues --    1.85820   1.86353   1.86631   1.87020   1.87446
 Alpha virt. eigenvalues --    1.90056   1.90970   1.92195   1.92769   1.93340
 Alpha virt. eigenvalues --    1.93506   1.94319   1.96669   1.99211   1.99554
 Alpha virt. eigenvalues --    2.00108   2.01093   2.02018   2.02590   2.02669
 Alpha virt. eigenvalues --    2.03221   2.03337   2.04250   2.04408   2.04607
 Alpha virt. eigenvalues --    2.04942   2.05103   2.05500   2.05788   2.05864
 Alpha virt. eigenvalues --    2.07009   2.07411   2.08094   2.09040   2.09273
 Alpha virt. eigenvalues --    2.10199   2.11691   2.12361   2.12951   2.13477
 Alpha virt. eigenvalues --    2.14891   2.15546   2.16549   2.16875   2.17285
 Alpha virt. eigenvalues --    2.18121   2.19065   2.20222   2.20601   2.22321
 Alpha virt. eigenvalues --    2.23364   2.28177   2.30662   2.33922   2.35598
 Alpha virt. eigenvalues --    2.36312   2.36764   2.39515   2.39848   2.42281
 Alpha virt. eigenvalues --    2.43621   2.44305   2.46067   2.48047   2.49045
 Alpha virt. eigenvalues --    2.51302   2.52434   2.52990   2.54368   2.54673
 Alpha virt. eigenvalues --    2.55220   2.55729   2.56524   2.56720   2.57929
 Alpha virt. eigenvalues --    2.58410   2.58627   2.60358   2.62399   2.62908
 Alpha virt. eigenvalues --    2.72182   2.72977   2.73215   2.75206   2.75936
 Alpha virt. eigenvalues --    2.76101   2.77140   2.77977   2.79197   2.79631
 Alpha virt. eigenvalues --    2.79661   2.80019   2.80278   2.80575   2.80778
 Alpha virt. eigenvalues --    2.81725   2.82046   2.82493   2.83181   2.83540
 Alpha virt. eigenvalues --    2.83728   2.84379   2.85122   2.85712   2.86902
 Alpha virt. eigenvalues --    2.87152   2.87700   2.88228   2.89936   2.90921
 Alpha virt. eigenvalues --    2.90987   2.92078   2.92571   2.93011   2.93408
 Alpha virt. eigenvalues --    2.93671   2.94160   2.95128   2.96314   2.97401
 Alpha virt. eigenvalues --    2.99691   3.00191   3.00799   3.01189   3.03491
 Alpha virt. eigenvalues --    3.04197   3.04511   3.04754   3.05038   3.05324
 Alpha virt. eigenvalues --    3.06094   3.06933   3.07094   3.10188   3.11597
 Alpha virt. eigenvalues --    3.12503   3.15488   3.17947   3.19764   3.20381
 Alpha virt. eigenvalues --    3.20924   3.23590   3.25259   3.31973   3.32545
 Alpha virt. eigenvalues --    3.32764   3.33349   3.35027   3.35413   3.37880
 Alpha virt. eigenvalues --    3.47377   3.48011   3.49003   3.49319   3.49416
 Alpha virt. eigenvalues --    3.49579   3.53908   3.54307   3.60814   3.61087
 Alpha virt. eigenvalues --    3.62676   3.62987   3.65058   3.65668   3.66124
 Alpha virt. eigenvalues --    3.73558   3.73728   3.75561   3.76613   3.76865
 Alpha virt. eigenvalues --    3.77735   3.89387   3.91828   3.92904   4.09816
 Alpha virt. eigenvalues --    4.10142   4.10895   4.14542   4.14559   4.14593
 Alpha virt. eigenvalues --    4.23861   4.24274   4.26258   4.26367   4.26857
 Alpha virt. eigenvalues --    4.26975   4.28492   4.31067   4.52225   4.66913
 Alpha virt. eigenvalues --    4.72029   4.93362   4.95314   4.95608   4.99322
 Alpha virt. eigenvalues --   23.67706  23.80321  23.81839  23.88039  24.08542
 Alpha virt. eigenvalues --   24.08658  24.10380  24.10811  24.10967  24.11585
 Alpha virt. eigenvalues --   24.12216  24.13071  24.20582  24.20661  24.21354
 Alpha virt. eigenvalues --   24.23481  24.24206  24.24297  24.24434  24.24860
 Alpha virt. eigenvalues --   24.31254  24.33746  24.33803  24.34580
          Condensed to atoms (all electrons):
               1          2          3          4          5          6
     1  C   14.968672  -0.633486  -0.205612  -4.301878  -0.117666   3.084562
     2  C   -0.633486  12.556465  -0.637654   1.311918   0.363539  -2.140351
     3  C   -0.205612  -0.637654  11.410229  -0.699291   0.093197  -1.687821
     4  C   -4.301878   1.311918  -0.699291  19.549901   0.052476  -1.412330
     5  H   -0.117666   0.363539   0.093197   0.052476   0.599923  -0.032194
     6  C    3.084562  -2.140351  -1.687821  -1.412330  -0.032194  13.117429
     7  C   -4.661413  -1.075760   1.378007  -8.344887   0.052184  -1.550231
     8  H   -0.135199   0.123953   0.306770   0.043285   0.006265  -0.088923
     9  C   -1.790445   1.102284   0.917282   1.341542   0.060369  -1.535208
    10  C    0.002616  -1.963651  -1.318107  -0.362499   0.068580   0.885170
    11  C   -0.973472   4.108308  -4.102989   0.986652  -0.120392  -1.375661
    12  C   -0.405891  -4.197710   3.707720  -0.778063   0.023236  -0.802909
    13  C   -0.000227  -1.292276  -2.212337  -0.974304  -0.021004   0.752501
    14  H    0.032240   0.019482  -0.040228  -0.124866  -0.001544  -0.009256
    15  C    1.593459   1.509777  -0.407430  -2.113578  -0.241989   0.175029
    16  C   -1.184944  -1.975672   0.289312   0.562356   0.173719  -0.059699
    17  C    0.009191  -0.645487   0.093366  -0.050629  -0.042143  -1.005375
    18  H    0.005297   0.010241  -0.059625  -0.069946  -0.006715  -0.039091
    19  C   -0.361086   0.333678  -0.368451   0.185073   0.010280  -1.966141
    20  H   -0.018148  -0.097302   0.033548  -0.018550  -0.004863  -0.012132
    21  C    0.485814  -0.128143   1.571283  -0.814553  -0.005428  -0.044166
    22  C   -0.661113   0.024672  -1.520058   1.125343   0.004870   0.167007
    23  C    0.348753   0.538023   0.077709   0.190823  -0.047377   0.009461
    24  H   -0.022959  -0.044136  -0.019360  -0.002902   0.004307   0.007206
    25  C   -0.180800   0.158112   0.020438  -0.076133  -0.001280  -0.066567
    26  H    0.005130  -0.016183  -0.011183   0.161561  -0.001449   0.011104
    27  C   -0.257489   0.018821  -0.014945  -0.041042  -0.005722  -0.208788
    28  H    0.006331  -0.006608   0.001550   0.001319  -0.000362   0.016130
    29  H    0.009609   0.006577  -0.007677   0.003302   0.000315   0.004130
    30  C    0.354103   0.081420   0.461492  -0.082884  -0.003326   0.065313
    31  H   -0.018361  -0.022118   0.006618  -0.013595  -0.000609   0.009685
    32  C   -0.087738   0.066685  -0.044527   0.415907   0.002429  -0.091936
    33  H    0.015355  -0.003814   0.000369  -0.156266  -0.000084   0.016167
    34  C   -0.000481  -0.109457  -0.022794  -0.286396  -0.000482   0.033712
    35  H    0.001740   0.001979   0.000031   0.004404  -0.000759  -0.002166
    36  H    0.000196   0.003411   0.000260  -0.005072  -0.000069  -0.000831
    37  H   -0.000805   0.000887   0.001693   0.000272   0.000196   0.033050
    38  C   -0.077156  -0.028645  -0.099288  -0.059685   0.000506   0.020204
    39  H    0.005249   0.000676   0.002153   0.003641  -0.000033   0.000160
    40  H    0.000709   0.000484  -0.001004   0.014012  -0.000021  -0.000927
    41  H    0.001087  -0.003886  -0.000594  -0.007395   0.000157   0.000915
    42  H    0.000987  -0.000751  -0.000522  -0.000885  -0.000001   0.000750
               7          8          9         10         11         12
     1  C   -4.661413  -0.135199  -1.790445   0.002616  -0.973472  -0.405891
     2  C   -1.075760   0.123953   1.102284  -1.963651   4.108308  -4.197710
     3  C    1.378007   0.306770   0.917282  -1.318107  -4.102989   3.707720
     4  C   -8.344887   0.043285   1.341542  -0.362499   0.986652  -0.778063
     5  H    0.052184   0.006265   0.060369   0.068580  -0.120392   0.023236
     6  C   -1.550231  -0.088923  -1.535208   0.885170  -1.375661  -0.802909
     7  C   20.515177   0.032277  -0.087080  -0.176902  -1.267816   0.814166
     8  H    0.032277   0.928004   0.102798  -0.016859   0.008436  -0.036848
     9  C   -0.087080   0.102798  12.572112  -2.906647   0.258544   0.289127
    10  C   -0.176902  -0.016859  -2.906647  15.801134  -0.492699   0.075968
    11  C   -1.267816   0.008436   0.258544  -0.492699  17.303298  -7.655753
    12  C    0.814166  -0.036848   0.289127   0.075968  -7.655753  15.892127
    13  C    0.468253   0.087768  -2.905734   1.309380   0.045814  -0.118364
    14  H    0.065814  -0.003100   0.299599   0.067890   0.010416  -0.010080
    15  C    0.023606  -0.035088  -0.977752  -1.746255   0.443270  -0.039785
    16  C    0.308171   0.021251   0.610755  -0.964872  -0.295372   0.060295
    17  C    0.203440  -0.050333  -0.034701  -0.143614  -1.463750   1.075641
    18  H   -0.043895  -0.004407   0.002382  -0.064393   0.585478   0.009954
    19  C   -0.025426   0.060202   0.022739   0.059149   0.952532  -1.014833
    20  H   -0.040851  -0.128883   0.000341   0.003682  -0.025205   0.596344
    21  C   -0.064068  -0.244713  -2.170672   0.102185  -0.015012  -0.280793
    22  C   -1.486966   0.098881   1.347293   0.018881  -0.002807   0.012714
    23  C   -0.297931  -0.001974   0.256004  -1.925303  -0.010164   0.033642
    24  H    0.031225   0.000293  -0.035246   0.029182   0.005184  -0.007938
    25  C    0.343154   0.003465   0.489421  -1.432193   0.063340  -0.024763
    26  H   -0.131901   0.001007  -0.093155  -0.015359  -0.013479   0.008273
    27  C   -0.097857   0.021998   0.017822  -0.016080  -0.120504  -0.629509
    28  H    0.004310   0.000635  -0.000799   0.000499  -0.079370   0.019685
    29  H    0.001719   0.007881   0.000020  -0.000132   0.026126  -0.083829
    30  C    0.093243  -0.053282   0.345150  -0.045114   0.031293  -0.071243
    31  H    0.023532  -0.042138  -0.071087   0.013367  -0.003490  -0.003604
    32  C    0.289879   0.004783   0.719318  -0.148935  -0.016339   0.071330
    33  H    0.147810  -0.008022  -0.082677   0.001757   0.007154  -0.013206
    34  C    0.007875  -0.000474  -0.187763  -0.298052  -0.021793   0.003511
    35  H    0.000349  -0.000036   0.007563   0.021475   0.001683   0.000004
    36  H    0.009211  -0.000030   0.017451   0.031240   0.000895  -0.000245
    37  H   -0.000275  -0.001404  -0.000017   0.000048  -0.016419  -0.007767
    38  C   -0.339804   0.020841  -0.284461   0.045581  -0.001586  -0.023360
    39  H    0.004193  -0.001400   0.010339  -0.001285   0.000450   0.000374
    40  H   -0.008674   0.000417   0.017891  -0.003432  -0.000125   0.000932
    41  H    0.000270   0.000001  -0.009318   0.023572  -0.000574   0.000084
    42  H   -0.007124  -0.000527  -0.008847   0.001178   0.000033  -0.000359
              13         14         15         16         17         18
     1  C   -0.000227   0.032240   1.593459  -1.184944   0.009191   0.005297
     2  C   -1.292276   0.019482   1.509777  -1.975672  -0.645487   0.010241
     3  C   -2.212337  -0.040228  -0.407430   0.289312   0.093366  -0.059625
     4  C   -0.974304  -0.124866  -2.113578   0.562356  -0.050629  -0.069946
     5  H   -0.021004  -0.001544  -0.241989   0.173719  -0.042143  -0.006715
     6  C    0.752501  -0.009256   0.175029  -0.059699  -1.005375  -0.039091
     7  C    0.468253   0.065814   0.023606   0.308171   0.203440  -0.043895
     8  H    0.087768  -0.003100  -0.035088   0.021251  -0.050333  -0.004407
     9  C   -2.905734   0.299599  -0.977752   0.610755  -0.034701   0.002382
    10  C    1.309380   0.067890  -1.746255  -0.964872  -0.143614  -0.064393
    11  C    0.045814   0.010416   0.443270  -0.295372  -1.463750   0.585478
    12  C   -0.118364  -0.010080  -0.039785   0.060295   1.075641   0.009954
    13  C   14.796958   0.096115   0.133312  -0.048884  -0.000196   0.004274
    14  H    0.096115   0.485564   0.103957  -0.152317   0.003240  -0.000552
    15  C    0.133312   0.103957  17.765786  -9.773126   0.093134   0.065783
    16  C   -0.048884  -0.152317  -9.773126  20.093176  -0.031846  -0.035727
    17  C   -0.000196   0.003240   0.093134  -0.031846   9.242824  -0.074262
    18  H    0.004274  -0.000552   0.065783  -0.035727  -0.074262   0.594758
    19  C    0.042841  -0.004117  -0.027445   0.018870  -1.434028   0.033430
    20  H   -0.012259   0.000053   0.008034  -0.004583   0.044265   0.002695
    21  C   -0.556570   0.072879   0.121356  -0.100536   0.043907  -0.010141
    22  C   -0.888715  -0.100608  -0.184994   0.274323  -0.017293   0.005684
    23  C   -0.089307   0.010640  -0.638952  -0.384956  -0.015753   0.025658
    24  H    0.016347  -0.000475   0.485113  -0.009854   0.002993  -0.007077
    25  C   -0.096817  -0.019270   0.631423  -1.793734   0.004292   0.001881
    26  H   -0.003709  -0.001945  -0.092166   0.556351  -0.001499  -0.000381
    27  C    0.000107   0.000302   0.009092  -0.004803   0.238932   0.033354
    28  H    0.000056   0.000007  -0.000069   0.000350   0.413876  -0.018200
    29  H    0.000089  -0.000031  -0.000204   0.000143  -0.002159  -0.000754
    30  C   -1.963373   0.017096   0.011562  -0.012357  -0.000268  -0.000513
    31  H   -0.036502  -0.000264   0.004923  -0.003586   0.003114   0.000183
    32  C   -1.819152  -0.016518   0.001686  -0.023073   0.000047   0.000512
    33  H    0.014571   0.005474  -0.003336   0.014913   0.000631   0.000100
    34  C    0.058843   0.000343  -0.318035   0.362706  -0.000668   0.000976
    35  H   -0.001310   0.000021  -0.103056   0.000842   0.000048   0.000315
    36  H   -0.004250  -0.000662   0.016013  -0.117965   0.000020   0.000101
    37  H    0.000191  -0.000002  -0.000035   0.000007  -0.068967   0.000944
    38  C   -0.107435   0.000822  -0.001348   0.000968   0.000099  -0.000186
    39  H    0.016934   0.000109  -0.000022   0.000171  -0.000036   0.000003
    40  H    0.005693  -0.001581  -0.000243   0.001114  -0.000009   0.000004
    41  H    0.001367   0.000200   0.009335   0.020574  -0.000061  -0.000102
    42  H    0.031128   0.000424   0.000088  -0.000307   0.000001  -0.000000
              19         20         21         22         23         24
     1  C   -0.361086  -0.018148   0.485814  -0.661113   0.348753  -0.022959
     2  C    0.333678  -0.097302  -0.128143   0.024672   0.538023  -0.044136
     3  C   -0.368451   0.033548   1.571283  -1.520058   0.077709  -0.019360
     4  C    0.185073  -0.018550  -0.814553   1.125343   0.190823  -0.002902
     5  H    0.010280  -0.004863  -0.005428   0.004870  -0.047377   0.004307
     6  C   -1.966141  -0.012132  -0.044166   0.167007   0.009461   0.007206
     7  C   -0.025426  -0.040851  -0.064068  -1.486966  -0.297931   0.031225
     8  H    0.060202  -0.128883  -0.244713   0.098881  -0.001974   0.000293
     9  C    0.022739   0.000341  -2.170672   1.347293   0.256004  -0.035246
    10  C    0.059149   0.003682   0.102185   0.018881  -1.925303   0.029182
    11  C    0.952532  -0.025205  -0.015012  -0.002807  -0.010164   0.005184
    12  C   -1.014833   0.596344  -0.280793   0.012714   0.033642  -0.007938
    13  C    0.042841  -0.012259  -0.556570  -0.888715  -0.089307   0.016347
    14  H   -0.004117   0.000053   0.072879  -0.100608   0.010640  -0.000475
    15  C   -0.027445   0.008034   0.121356  -0.184994  -0.638952   0.485113
    16  C    0.018870  -0.004583  -0.100536   0.274323  -0.384956  -0.009854
    17  C   -1.434028   0.044265   0.043907  -0.017293  -0.015753   0.002993
    18  H    0.033430   0.002695  -0.010141   0.005684   0.025658  -0.007077
    19  C    9.422464  -0.103991  -0.086650   0.022499   0.003336  -0.000439
    20  H   -0.103991   0.619950   0.006115   0.004039   0.000842  -0.000311
    21  C   -0.086650   0.006115  17.214743  -8.123753  -0.018783   0.006953
    22  C    0.022499   0.004039  -8.123753  17.679373   0.025038  -0.005917
    23  C    0.003336   0.000842  -0.018783   0.025038   8.288414  -0.137273
    24  H   -0.000439  -0.000311   0.006953  -0.005917  -0.137273   0.493851
    25  C   -0.002222  -0.000691  -0.000506   0.000934  -0.312319  -0.005517
    26  H    0.000829   0.000057  -0.006231   0.028299  -0.016219   0.000142
    27  C    0.571091  -0.003922  -0.015391   0.000928  -0.000123  -0.001239
    28  H   -0.006801  -0.001061   0.000360  -0.000082  -0.000460   0.000544
    29  H    0.413041  -0.021438  -0.000662   0.000363  -0.000025   0.000037
    30  C   -0.027085   0.001185  -1.202654  -0.311554   0.000794   0.000029
    31  H   -0.002755   0.008243   0.587976  -0.065761  -0.000401   0.000330
    32  C    0.004020   0.002877  -0.202012  -1.431084   0.009980  -0.001493
    33  H   -0.000873   0.000777  -0.022102   0.468329  -0.000496   0.000093
    34  C    0.000292   0.000048   0.010411  -0.021778   0.117416   0.013964
    35  H    0.000005   0.000014  -0.000372   0.000610   0.437431  -0.011344
    36  H   -0.000009   0.000000  -0.000753   0.002105   0.019373  -0.000271
    37  H   -0.055455   0.002635  -0.000254   0.000061  -0.000018  -0.000041
    38  C    0.000318  -0.004432   0.085936   0.229614  -0.001187   0.000272
    39  H   -0.000473   0.000290  -0.109403   0.006871   0.000037  -0.000012
    40  H    0.000045   0.000007   0.008332  -0.095781   0.000064  -0.000010
    41  H    0.000008  -0.000000   0.000214  -0.000560  -0.081743   0.001011
    42  H    0.000011   0.000035   0.003426   0.003599  -0.000012   0.000005
              25         26         27         28         29         30
     1  C   -0.180800   0.005130  -0.257489   0.006331   0.009609   0.354103
     2  C    0.158112  -0.016183   0.018821  -0.006608   0.006577   0.081420
     3  C    0.020438  -0.011183  -0.014945   0.001550  -0.007677   0.461492
     4  C   -0.076133   0.161561  -0.041042   0.001319   0.003302  -0.082884
     5  H   -0.001280  -0.001449  -0.005722  -0.000362   0.000315  -0.003326
     6  C   -0.066567   0.011104  -0.208788   0.016130   0.004130   0.065313
     7  C    0.343154  -0.131901  -0.097857   0.004310   0.001719   0.093243
     8  H    0.003465   0.001007   0.021998   0.000635   0.007881  -0.053282
     9  C    0.489421  -0.093155   0.017822  -0.000799   0.000020   0.345150
    10  C   -1.432193  -0.015359  -0.016080   0.000499  -0.000132  -0.045114
    11  C    0.063340  -0.013479  -0.120504  -0.079370   0.026126   0.031293
    12  C   -0.024763   0.008273  -0.629509   0.019685  -0.083829  -0.071243
    13  C   -0.096817  -0.003709   0.000107   0.000056   0.000089  -1.963373
    14  H   -0.019270  -0.001945   0.000302   0.000007  -0.000031   0.017096
    15  C    0.631423  -0.092166   0.009092  -0.000069  -0.000204   0.011562
    16  C   -1.793734   0.556351  -0.004803   0.000350   0.000143  -0.012357
    17  C    0.004292  -0.001499   0.238932   0.413876  -0.002159  -0.000268
    18  H    0.001881  -0.000381   0.033354  -0.018200  -0.000754  -0.000513
    19  C   -0.002222   0.000829   0.571091  -0.006801   0.413041  -0.027085
    20  H   -0.000691   0.000057  -0.003922  -0.001061  -0.021438   0.001185
    21  C   -0.000506  -0.006231  -0.015391   0.000360  -0.000662  -1.202654
    22  C    0.000934   0.028299   0.000928  -0.000082   0.000363  -0.311554
    23  C   -0.312319  -0.016219  -0.000123  -0.000460  -0.000025   0.000794
    24  H   -0.005517   0.000142  -0.001239   0.000544   0.000037   0.000029
    25  C    8.302805  -0.089071   0.000886  -0.000104   0.000010   0.007984
    26  H   -0.089071   0.498422  -0.000054   0.000010  -0.000004  -0.000856
    27  C    0.000886  -0.000054   6.621758  -0.056969  -0.051556   0.001515
    28  H   -0.000104   0.000010  -0.056969   0.477539   0.001725  -0.000013
    29  H    0.000010  -0.000004  -0.051556   0.001725   0.478652  -0.000282
    30  C    0.007984  -0.000856   0.001515  -0.000013  -0.000282   8.847467
    31  H   -0.000937  -0.000112  -0.001287  -0.000009  -0.000435  -0.092154
    32  C   -0.031573  -0.001497   0.000308  -0.000008  -0.000065  -0.147809
    33  H    0.004764  -0.006491  -0.000218   0.000003   0.000010  -0.009841
    34  C    0.105989   0.033908  -0.000405   0.000040   0.000001  -0.000898
    35  H    0.011888  -0.000594   0.000044  -0.000020  -0.000001   0.000023
    36  H    0.432939  -0.013412   0.000008  -0.000002  -0.000000   0.000058
    37  H    0.000011   0.000000   0.456199  -0.010941  -0.011208   0.000007
    38  C   -0.004023   0.000610  -0.000472   0.000007   0.000123  -0.142863
    39  H    0.000045   0.000025   0.000066  -0.000000  -0.000010   0.448192
    40  H    0.000177   0.000435   0.000009  -0.000000  -0.000001   0.010360
    41  H   -0.087757   0.002368  -0.000009   0.000003   0.000000  -0.000011
    42  H   -0.000098  -0.000024  -0.000005   0.000000   0.000000  -0.064948
              31         32         33         34         35         36
     1  C   -0.018361  -0.087738   0.015355  -0.000481   0.001740   0.000196
     2  C   -0.022118   0.066685  -0.003814  -0.109457   0.001979   0.003411
     3  C    0.006618  -0.044527   0.000369  -0.022794   0.000031   0.000260
     4  C   -0.013595   0.415907  -0.156266  -0.286396   0.004404  -0.005072
     5  H   -0.000609   0.002429  -0.000084  -0.000482  -0.000759  -0.000069
     6  C    0.009685  -0.091936   0.016167   0.033712  -0.002166  -0.000831
     7  C    0.023532   0.289879   0.147810   0.007875   0.000349   0.009211
     8  H   -0.042138   0.004783  -0.008022  -0.000474  -0.000036  -0.000030
     9  C   -0.071087   0.719318  -0.082677  -0.187763   0.007563   0.017451
    10  C    0.013367  -0.148935   0.001757  -0.298052   0.021475   0.031240
    11  C   -0.003490  -0.016339   0.007154  -0.021793   0.001683   0.000895
    12  C   -0.003604   0.071330  -0.013206   0.003511   0.000004  -0.000245
    13  C   -0.036502  -1.819152   0.014571   0.058843  -0.001310  -0.004250
    14  H   -0.000264  -0.016518   0.005474   0.000343   0.000021  -0.000662
    15  C    0.004923   0.001686  -0.003336  -0.318035  -0.103056   0.016013
    16  C   -0.003586  -0.023073   0.014913   0.362706   0.000842  -0.117965
    17  C    0.003114   0.000047   0.000631  -0.000668   0.000048   0.000020
    18  H    0.000183   0.000512   0.000100   0.000976   0.000315   0.000101
    19  C   -0.002755   0.004020  -0.000873   0.000292   0.000005  -0.000009
    20  H    0.008243   0.002877   0.000777   0.000048   0.000014   0.000000
    21  C    0.587976  -0.202012  -0.022102   0.010411  -0.000372  -0.000753
    22  C   -0.065761  -1.431084   0.468329  -0.021778   0.000610   0.002105
    23  C   -0.000401   0.009980  -0.000496   0.117416   0.437431   0.019373
    24  H    0.000330  -0.001493   0.000093   0.013964  -0.011344  -0.000271
    25  C   -0.000937  -0.031573   0.004764   0.105989   0.011888   0.432939
    26  H   -0.000112  -0.001497  -0.006491   0.033908  -0.000594  -0.013412
    27  C   -0.001287   0.000308  -0.000218  -0.000405   0.000044   0.000008
    28  H   -0.000009  -0.000008   0.000003   0.000040  -0.000020  -0.000002
    29  H   -0.000435  -0.000065   0.000010   0.000001  -0.000001  -0.000000
    30  C   -0.092154  -0.147809  -0.009841  -0.000898   0.000023   0.000058
    31  H    0.487575  -0.010263   0.001453   0.000257  -0.000011  -0.000002
    32  C   -0.010263   8.724445  -0.098392  -0.006773   0.000058   0.000710
    33  H    0.001453  -0.098392   0.497936  -0.000386   0.000050   0.000530
    34  C    0.000257  -0.006773  -0.000386   6.618863  -0.057586  -0.079722
    35  H   -0.000011   0.000058   0.000050  -0.057586   0.474096   0.001047
    36  H   -0.000002   0.000710   0.000530  -0.079722   0.001047   0.475849
    37  H    0.000051  -0.000000   0.000000  -0.000002   0.000000   0.000000
    38  C    0.021013  -0.144884   0.019020   0.000461  -0.000006   0.000004
    39  H   -0.009611   0.015681  -0.000400  -0.000008   0.000000  -0.000001
    40  H   -0.000098   0.433902  -0.010791  -0.000005  -0.000001  -0.000029
    41  H    0.000004  -0.000150  -0.000048   0.470680  -0.010454  -0.012354
    42  H    0.000640  -0.071614   0.001364   0.000008  -0.000000  -0.000000
              37         38         39         40         41         42
     1  C   -0.000805  -0.077156   0.005249   0.000709   0.001087   0.000987
     2  C    0.000887  -0.028645   0.000676   0.000484  -0.003886  -0.000751
     3  C    0.001693  -0.099288   0.002153  -0.001004  -0.000594  -0.000522
     4  C    0.000272  -0.059685   0.003641   0.014012  -0.007395  -0.000885
     5  H    0.000196   0.000506  -0.000033  -0.000021   0.000157  -0.000001
     6  C    0.033050   0.020204   0.000160  -0.000927   0.000915   0.000750
     7  C   -0.000275  -0.339804   0.004193  -0.008674   0.000270  -0.007124
     8  H   -0.001404   0.020841  -0.001400   0.000417   0.000001  -0.000527
     9  C   -0.000017  -0.284461   0.010339   0.017891  -0.009318  -0.008847
    10  C    0.000048   0.045581  -0.001285  -0.003432   0.023572   0.001178
    11  C   -0.016419  -0.001586   0.000450  -0.000125  -0.000574   0.000033
    12  C   -0.007767  -0.023360   0.000374   0.000932   0.000084  -0.000359
    13  C    0.000191  -0.107435   0.016934   0.005693   0.001367   0.031128
    14  H   -0.000002   0.000822   0.000109  -0.001581   0.000200   0.000424
    15  C   -0.000035  -0.001348  -0.000022  -0.000243   0.009335   0.000088
    16  C    0.000007   0.000968   0.000171   0.001114   0.020574  -0.000307
    17  C   -0.068967   0.000099  -0.000036  -0.000009  -0.000061   0.000001
    18  H    0.000944  -0.000186   0.000003   0.000004  -0.000102  -0.000000
    19  C   -0.055455   0.000318  -0.000473   0.000045   0.000008   0.000011
    20  H    0.002635  -0.004432   0.000290   0.000007  -0.000000   0.000035
    21  C   -0.000254   0.085936  -0.109403   0.008332   0.000214   0.003426
    22  C    0.000061   0.229614   0.006871  -0.095781  -0.000560   0.003599
    23  C   -0.000018  -0.001187   0.000037   0.000064  -0.081743  -0.000012
    24  H   -0.000041   0.000272  -0.000012  -0.000010   0.001011   0.000005
    25  C    0.000011  -0.004023   0.000045   0.000177  -0.087757  -0.000098
    26  H    0.000000   0.000610   0.000025   0.000435   0.002368  -0.000024
    27  C    0.456199  -0.000472   0.000066   0.000009  -0.000009  -0.000005
    28  H   -0.010941   0.000007  -0.000000  -0.000000   0.000003   0.000000
    29  H   -0.011208   0.000123  -0.000010  -0.000001   0.000000   0.000000
    30  C    0.000007  -0.142863   0.448192   0.010360  -0.000011  -0.064948
    31  H    0.000051   0.021013  -0.009611  -0.000098   0.000004   0.000640
    32  C   -0.000000  -0.144884   0.015681   0.433902  -0.000150  -0.071614
    33  H    0.000000   0.019020  -0.000400  -0.010791  -0.000048   0.001364
    34  C   -0.000002   0.000461  -0.000008  -0.000005   0.470680   0.000008
    35  H    0.000000  -0.000006   0.000000  -0.000001  -0.010454  -0.000000
    36  H    0.000000   0.000004  -0.000001  -0.000029  -0.012354  -0.000000
    37  H    0.485505  -0.000006   0.000001   0.000000  -0.000000   0.000000
    38  C   -0.000006   6.889766  -0.071852  -0.057001   0.000009   0.448314
    39  H    0.000001  -0.071852   0.473160   0.000768  -0.000000  -0.008961
    40  H    0.000000  -0.057001   0.000768   0.472105  -0.000000  -0.009736
    41  H   -0.000000   0.000009  -0.000000  -0.000000   0.486622   0.000000
    42  H    0.000000   0.448314  -0.008961  -0.009736   0.000000   0.481561
 Mulliken charges:
               1
     1  C    1.165272
     2  C   -1.318302
     3  C   -0.891533
     4  C    0.843842
     5  H    0.138964
     6  C    1.723020
     7  C    0.890996
     8  H   -0.027569
     9  C   -1.626537
    10  C    1.479850
    11  C   -0.764135
    12  C   -0.488279
    13  C    1.270184
    14  H    0.194729
    15  C   -0.500829
    16  C   -0.392159
    17  C   -0.389985
    18  H    0.051957
    19  C   -0.668472
    20  H    0.162547
    21  C   -0.097572
    22  C   -0.633509
    23  C   -0.412663
    24  H    0.214735
    25  C   -0.357581
    26  H    0.208441
    27  C   -0.464850
    28  H    0.236896
    29  H    0.226598
    30  C   -0.544960
    31  H    0.230225
    32  C   -0.368719
    33  H    0.198812
    34  C   -0.426347
    35  H    0.221995
    36  H    0.224256
    37  H    0.191861
    38  C   -0.334808
    39  H    0.213919
    40  H    0.222009
    41  H    0.196534
    42  H    0.201166
 Sum of Mulliken charges =  -0.00000
 Mulliken charges with hydrogens summed into heavy atoms:
               1
     1  C    1.165272
     2  C   -1.179338
     3  C   -0.919102
     4  C    0.843842
     6  C    1.723020
     7  C    0.890996
     9  C   -1.431807
    10  C    1.479850
    11  C   -0.712178
    12  C   -0.325732
    13  C    1.270184
    15  C   -0.286094
    16  C   -0.183718
    17  C   -0.153089
    19  C   -0.441874
    21  C    0.132653
    22  C   -0.434697
    23  C   -0.190668
    25  C   -0.133325
    27  C   -0.272989
    30  C   -0.331042
    32  C   -0.146710
    34  C   -0.229813
    38  C   -0.133642
 Electronic spatial extent (au):  <R**2>=          10005.6821
 Charge=             -0.0000 electrons
 Dipole moment (field-independent basis, Debye):
    X=              0.0074    Y=             -0.0128    Z=              0.0038  Tot=              0.0153
 Quadrupole moment (field-independent basis, Debye-Ang):
   XX=           -123.5516   YY=           -126.0808   ZZ=           -144.4296
   XY=              0.0070   XZ=             -2.4398   YZ=              6.0599
 Traceless Quadrupole moment (field-independent basis, Debye-Ang):
   XX=              7.8024   YY=              5.2731   ZZ=            -13.0756
   XY=              0.0070   XZ=             -2.4398   YZ=              6.0599
 Octapole moment (field-independent basis, Debye-Ang**2):
  XXX=              1.3358  YYY=             35.0506  ZZZ=              1.4888  XYY=             -3.6722
  XXY=            -23.5202  XXZ=             33.3050  XZZ=              2.2417  YZZ=            -11.6863
  YYZ=            -34.8301  XYZ=             -8.8523
 Hexadecapole moment (field-independent basis, Debye-Ang**3):
 XXXX=          -6335.5364 YYYY=          -6252.6664 ZZZZ=           -443.9713 XXXY=             -7.7743
 XXXZ=            -10.6987 YYYX=              1.3503 YYYZ=             93.1496 ZZZX=              0.0468
 ZZZY=             25.2960 XXYY=          -2033.9877 XXZZ=          -1234.2054 YYZZ=          -1280.0829
 XXYZ=             35.9708 YYXZ=            -50.9498 ZZXY=              6.7677
 N-N= 1.734098168474D+03 E-N=-5.614540646498D+03  KE= 9.213114352899D+02
 No NMR shielding tensors so no spin-rotation constants.
 Leave Link  601 at Mon Nov 14 15:17:19 2022, MaxMem= 16106127360 cpu:               9.0 elap:               0.4
 (Enter /opt/ap/G16/B01/g16/l9999.exe)
 1\1\GINC-N61\SP\RwB97XD\6-311++G(d,p)\C24H18\ROOT\14-Nov-2022\0\\#P wB
 97XD/6-311++G(d,p) scf=maxcycle=512\\_conf022.gjf nmol_natom 1_42\\0,1
 \C\C,1,1.39412829\C,1,1.39435449,2,118.86443127\C,2,1.39416084,1,121.1
 529487,3,0.03668482,0\H,2,1.08488355,1,119.42236619,3,-179.97409048,0\
 C,1,1.48467131,2,120.55714816,4,179.25839056,0\C,3,1.39437784,1,121.11
 776116,2,-0.05351271,0\H,3,1.08487775,1,119.41869036,2,177.23008049,0\
 C,4,1.39432447,2,118.86473838,1,0.01008406,0\C,4,1.48466627,2,120.5464
 188,1,179.19454736,0\C,6,1.3968498,1,120.7843492,2,20.,0\C,6,1.3968682
 ,1,120.67653841,2,-160.,0\C,7,1.48449863,3,120.56496838,1,-179.9632580
 4,0\H,9,1.0848792,4,119.41824946,2,177.22245984,0\C,10,1.39685361,4,12
 0.76946845,2,-42.52368674,0\C,10,1.39686289,4,120.69448769,2,137.43107
 516,0\C,11,1.38888939,6,120.7380073,1,179.94058542,0\H,11,1.0847641,6,
 119.46912378,1,-1.41050605,0\C,12,1.38882428,6,120.76493111,1,-179.950
 82712,0\H,12,1.08482758,6,119.44182626,1,-1.23602505,0\C,13,1.39682899
 ,7,120.74134419,3,42.89023273,0\C,13,1.39683158,7,120.7379111,3,-137.1
 2494058,0\C,15,1.38888263,10,120.742191,4,179.9460119,0\H,15,1.0847633
 4,10,119.47085903,4,-1.40606944,0\C,16,1.38886088,10,120.76338989,4,-1
 79.95592713,0\H,16,1.08483431,10,119.44215232,4,-1.23439681,0\C,17,1.3
 9007919,11,120.20743432,6,0.00349958,0\H,17,1.0843506,11,119.71318733,
 6,179.5011609,0\H,19,1.08435858,12,119.73823132,6,179.53683762,0\C,21,
 1.38882373,13,120.76699356,7,179.99297883,0\H,21,1.0847938,13,119.4352
 623,7,1.32183327,0\C,22,1.38881869,13,120.76647403,7,-179.97118338,0\H
 ,22,1.08479982,13,119.43203605,7,1.34657928,0\C,23,1.39007007,15,120.2
 0732995,10,0.00573957,0\H,23,1.08434813,15,119.71220819,10,179.5072436
 8,0\H,25,1.08436328,16,119.73539424,10,179.53636455,0\H,27,1.08412515,
 17,120.21790854,11,179.98397203,0\C,30,1.39008059,21,120.18795226,13,-
 0.02169059,0\H,30,1.08435324,21,119.73787119,13,-179.52151214,0\H,32,1
 .0843543,22,119.737043,13,-179.52886928,0\H,34,1.08412314,23,120.22152
 803,15,179.98800213,0\H,38,1.08411439,30,120.21547163,21,-179.98600656
 ,0\\Version=ES64L-G16RevB.01\State=1-A\HF=-925.3085832\RMSD=4.554e-09\
 Dipole=0.0058538,0.0013031,0.0002731\Quadrupole=4.1377596,-9.3951906,5
 .257431,-5.224838,-0.8798564,-0.8734128\PG=C01 [X(C24H18)]\\@


 A MAN SHOULD NEVER BE ASHAMED TO OWN HE HAS BEEN IN THE WRONG
 WHICH IS BUT SAYING IN OTHER WORDS,
 THAT HE IS WISER TODAY THAN HE WAS YESTERDAY.

                          -- JONATHAN SWIFT
 Job cpu time:       0 days  1 hours 22 minutes 58.5 seconds.
 Elapsed time:       0 days  0 hours  2 minutes 36.2 seconds.
 File lengths (MBytes):  RWF=    224 Int=      0 D2E=      0 Chk=     26 Scr=      1
 Normal termination of Gaussian 16 at Mon Nov 14 15:17:20 2022.
