 Entering Gaussian System, Link 0=g16
 Input=_conf029.gjf
 Output=_conf029.log
 Initial command:
 /opt/ap/G16/B01/g16/l1.exe "/tmp2/scr/Gau-12475.inp" -scrdir="/tmp2/scr/"
 Entering Link 1 = /opt/ap/G16/B01/g16/l1.exe PID=     12476.
  
 Copyright (c) 1988-2017, Gaussian, Inc.  All Rights Reserved.
  
 This is part of the Gaussian(R) 16 program.  It is based on
 the Gaussian(R) 09 system (copyright 2009, Gaussian, Inc.),
 the Gaussian(R) 03 system (copyright 2003, Gaussian, Inc.),
 the Gaussian(R) 98 system (copyright 1998, Gaussian, Inc.),
 the Gaussian(R) 94 system (copyright 1995, Gaussian, Inc.),
 the Gaussian 92(TM) system (copyright 1992, Gaussian, Inc.),
 the Gaussian 90(TM) system (copyright 1990, Gaussian, Inc.),
 the Gaussian 88(TM) system (copyright 1988, Gaussian, Inc.),
 the Gaussian 86(TM) system (copyright 1986, Carnegie Mellon
 University), and the Gaussian 82(TM) system (copyright 1983,
 Carnegie Mellon University). Gaussian is a federally registered
 trademark of Gaussian, Inc.
  
 This software contains proprietary and confidential information,
 including trade secrets, belonging to Gaussian, Inc.
  
 This software is provided under written license and may be
 used, copied, transmitted, or stored only in accord with that
 written license.
  
 The following legend is applicable only to US Government
 contracts under FAR:
  
                    RESTRICTED RIGHTS LEGEND
  
 Use, reproduction and disclosure by the US Government is
 subject to restrictions as set forth in subparagraphs (a)
 and (c) of the Commercial Computer Software - Restricted
 Rights clause in FAR 52.227-19.
  
 Gaussian, Inc.
 340 Quinnipiac St., Bldg. 40, Wallingford CT 06492
  
  
 ---------------------------------------------------------------
 Warning -- This program may not be used in any manner that
 competes with the business of Gaussian, Inc. or will provide
 assistance to any competitor of Gaussian, Inc.  The licensee
 of this program is prohibited from giving any competitor of
 Gaussian, Inc. access to this program.  By using this program,
 the user acknowledges that Gaussian, Inc. is engaged in the
 business of creating and licensing software in the field of
 computational chemistry and represents and warrants to the
 licensee that it is not a competitor of Gaussian, Inc. and that
 it will not use this program in any manner prohibited above.
 ---------------------------------------------------------------
  

 Cite this work as:
 Gaussian 16, Revision B.01,
 M. J. Frisch, G. W. Trucks, H. B. Schlegel, G. E. Scuseria, 
 M. A. Robb, J. R. Cheeseman, G. Scalmani, V. Barone, 
 G. A. Petersson, H. Nakatsuji, X. Li, M. Caricato, A. V. Marenich, 
 J. Bloino, B. G. Janesko, R. Gomperts, B. Mennucci, H. P. Hratchian, 
 J. V. Ortiz, A. F. Izmaylov, J. L. Sonnenberg, D. Williams-Young, 
 F. Ding, F. Lipparini, F. Egidi, J. Goings, B. Peng, A. Petrone, 
 T. Henderson, D. Ranasinghe, V. G. Zakrzewski, J. Gao, N. Rega, 
 G. Zheng, W. Liang, M. Hada, M. Ehara, K. Toyota, R. Fukuda, 
 J. Hasegawa, M. Ishida, T. Nakajima, Y. Honda, O. Kitao, H. Nakai, 
 T. Vreven, K. Throssell, J. A. Montgomery, Jr., J. E. Peralta, 
 F. Ogliaro, M. J. Bearpark, J. J. Heyd, E. N. Brothers, K. N. Kudin, 
 V. N. Staroverov, T. A. Keith, R. Kobayashi, J. Normand, 
 K. Raghavachari, A. P. Rendell, J. C. Burant, S. S. Iyengar, 
 J. Tomasi, M. Cossi, J. M. Millam, M. Klene, C. Adamo, R. Cammi, 
 J. W. Ochterski, R. L. Martin, K. Morokuma, O. Farkas, 
 J. B. Foresman, and D. J. Fox, Gaussian, Inc., Wallingford CT, 2016.
 
 ******************************************
 Gaussian 16:  ES64L-G16RevB.01 20-Dec-2017
                14-Nov-2022 
 ******************************************
 %nprocshared=32
 Will use up to   32 processors via shared memory.
 %mem=120GB
 %chk=_conf029.chk
 ----------------------------------------
 #P wB97XD/6-311++G(d,p) scf=maxcycle=512
 ----------------------------------------
 1/38=1,172=1/1;
 2/12=2,17=6,18=5,40=1/2;
 3/5=4,6=6,7=1111,11=2,25=1,30=1,74=-58/1,2,3;
 4//1;
 5/5=2,7=512,38=5/2;
 6/7=2,8=2,9=2,10=2,28=1/1;
 99/5=1,9=1/99;
 Leave Link    1 at Mon Nov 14 15:19:25 2022, MaxMem= 16106127360 cpu:               2.7 elap:               0.1
 (Enter /opt/ap/G16/B01/g16/l101.exe)
 ----------------------------
 _conf029.gjf nmol_natom 1_42
 ----------------------------
 Symbolic Z-matrix:
 Charge =  0 Multiplicity = 1
 C
 C                    1     1.39413 
 C                    1     1.39435  2     118.86443 
 C                    2     1.39416  1     121.15295  3     0.03668  0
 H                    2     1.08488  1     119.42237  3    -179.97409  0
 C                    1     1.48467  2     120.55715  4     179.25839  0
 C                    3     1.39438  1     121.11776  2    -0.05351  0
 H                    3     1.08488  1     119.41869  2     177.23008  0
 C                    4     1.39432  2     118.86474  1     0.01008  0
 C                    4     1.48467  2     120.54642  1     179.19455  0
 C                    6     1.39685  1     120.78435  2     55.      0
 C                    6     1.39687  1     120.67654  2    -125.     0
 C                    7     1.4845   3     120.56497  1    -179.96326  0
 H                    9     1.08488  4     119.41825  2     177.22246  0
 C                    10    1.39685  4     120.76947  2    -42.52369  0
 C                    10    1.39686  4     120.69449  2     137.43108  0
 C                    11    1.38889  6     120.73801  1     179.94059  0
 H                    11    1.08476  6     119.46912  1    -1.41051  0
 C                    12    1.38882  6     120.76493  1    -179.95083  0
 H                    12    1.08483  6     119.44183  1    -1.23603  0
 C                    13    1.39683  7     120.74134  3     42.89023  0
 C                    13    1.39683  7     120.73791  3    -137.12494  0
 C                    15    1.38888  10    120.74219  4     179.94601  0
 H                    15    1.08476  10    119.47086  4    -1.40607  0
 C                    16    1.38886  10    120.76339  4    -179.95593  0
 H                    16    1.08483  10    119.44215  4    -1.2344   0
 C                    17    1.39008  11    120.20743  6     0.0035   0
 H                    17    1.08435  11    119.71319  6     179.50116  0
 H                    19    1.08436  12    119.73823  6     179.53684  0
 C                    21    1.38882  13    120.76699  7     179.99298  0
 H                    21    1.08479  13    119.43526  7     1.32183  0
 C                    22    1.38882  13    120.76647  7    -179.97118  0
 H                    22    1.0848   13    119.43204  7     1.34658  0
 C                    23    1.39007  15    120.20733  10    0.00574  0
 H                    23    1.08435  15    119.71221  10    179.50724  0
 H                    25    1.08436  16    119.73539  10    179.53636  0
 H                    27    1.08413  17    120.21791  11    179.98397  0
 C                    30    1.39008  21    120.18795  13   -0.02169  0
 H                    30    1.08435  21    119.73787  13   -179.52151  0
 H                    32    1.08435  22    119.73704  13   -179.52887  0
 H                    34    1.08412  23    120.22153  15    179.988  0
 H                    38    1.08411  30    120.21547  21   -179.98601  0
 
 ITRead=  0  0  0  0  0  0  0  0  0  0  0  0  0  0  0  0  0  0  0  0
 ITRead=  0  0  0  0  0  0  0  0  0  0  0  0  0  0  0  0  0  0  0  0
 ITRead=  0  0
 MicOpt= -1 -1 -1 -1 -1 -1 -1 -1 -1 -1 -1 -1 -1 -1 -1 -1 -1 -1 -1 -1
 MicOpt= -1 -1 -1 -1 -1 -1 -1 -1 -1 -1 -1 -1 -1 -1 -1 -1 -1 -1 -1 -1
 MicOpt= -1 -1
 NAtoms=     42 NQM=       42 NQMF=       0 NMMI=      0 NMMIF=      0
                NMic=       0 NMicF=      0.
                    Isotopes and Nuclear Properties:
 (Nuclear quadrupole moments (NQMom) in fm**2, nuclear magnetic moments (NMagM)
  in nuclear magnetons)

  Atom         1           2           3           4           5           6           7           8           9          10
 IAtWgt=          12          12          12          12           1          12          12           1          12          12
 AtmWgt=  12.0000000  12.0000000  12.0000000  12.0000000   1.0078250  12.0000000  12.0000000   1.0078250  12.0000000  12.0000000
 NucSpn=           0           0           0           0           1           0           0           1           0           0
 AtZEff=  -0.0000000  -0.0000000  -0.0000000  -0.0000000  -0.0000000  -0.0000000  -0.0000000  -0.0000000  -0.0000000  -0.0000000
 NQMom=    0.0000000   0.0000000   0.0000000   0.0000000   0.0000000   0.0000000   0.0000000   0.0000000   0.0000000   0.0000000
 NMagM=    0.0000000   0.0000000   0.0000000   0.0000000   2.7928460   0.0000000   0.0000000   2.7928460   0.0000000   0.0000000
 AtZNuc=   6.0000000   6.0000000   6.0000000   6.0000000   1.0000000   6.0000000   6.0000000   1.0000000   6.0000000   6.0000000

  Atom        11          12          13          14          15          16          17          18          19          20
 IAtWgt=          12          12          12           1          12          12          12           1          12           1
 AtmWgt=  12.0000000  12.0000000  12.0000000   1.0078250  12.0000000  12.0000000  12.0000000   1.0078250  12.0000000   1.0078250
 NucSpn=           0           0           0           1           0           0           0           1           0           1
 AtZEff=  -0.0000000  -0.0000000  -0.0000000  -0.0000000  -0.0000000  -0.0000000  -0.0000000  -0.0000000  -0.0000000  -0.0000000
 NQMom=    0.0000000   0.0000000   0.0000000   0.0000000   0.0000000   0.0000000   0.0000000   0.0000000   0.0000000   0.0000000
 NMagM=    0.0000000   0.0000000   0.0000000   2.7928460   0.0000000   0.0000000   0.0000000   2.7928460   0.0000000   2.7928460
 AtZNuc=   6.0000000   6.0000000   6.0000000   1.0000000   6.0000000   6.0000000   6.0000000   1.0000000   6.0000000   1.0000000

  Atom        21          22          23          24          25          26          27          28          29          30
 IAtWgt=          12          12          12           1          12           1          12           1           1          12
 AtmWgt=  12.0000000  12.0000000  12.0000000   1.0078250  12.0000000   1.0078250  12.0000000   1.0078250   1.0078250  12.0000000
 NucSpn=           0           0           0           1           0           1           0           1           1           0
 AtZEff=  -0.0000000  -0.0000000  -0.0000000  -0.0000000  -0.0000000  -0.0000000  -0.0000000  -0.0000000  -0.0000000  -0.0000000
 NQMom=    0.0000000   0.0000000   0.0000000   0.0000000   0.0000000   0.0000000   0.0000000   0.0000000   0.0000000   0.0000000
 NMagM=    0.0000000   0.0000000   0.0000000   2.7928460   0.0000000   2.7928460   0.0000000   2.7928460   2.7928460   0.0000000
 AtZNuc=   6.0000000   6.0000000   6.0000000   1.0000000   6.0000000   1.0000000   6.0000000   1.0000000   1.0000000   6.0000000

  Atom        31          32          33          34          35          36          37          38          39          40
 IAtWgt=           1          12           1          12           1           1           1          12           1           1
 AtmWgt=   1.0078250  12.0000000   1.0078250  12.0000000   1.0078250   1.0078250   1.0078250  12.0000000   1.0078250   1.0078250
 NucSpn=           1           0           1           0           1           1           1           0           1           1
 AtZEff=  -0.0000000  -0.0000000  -0.0000000  -0.0000000  -0.0000000  -0.0000000  -0.0000000  -0.0000000  -0.0000000  -0.0000000
 NQMom=    0.0000000   0.0000000   0.0000000   0.0000000   0.0000000   0.0000000   0.0000000   0.0000000   0.0000000   0.0000000
 NMagM=    2.7928460   0.0000000   2.7928460   0.0000000   2.7928460   2.7928460   2.7928460   0.0000000   2.7928460   2.7928460
 AtZNuc=   1.0000000   6.0000000   1.0000000   6.0000000   1.0000000   1.0000000   1.0000000   6.0000000   1.0000000   1.0000000

  Atom        41          42
 IAtWgt=           1           1
 AtmWgt=   1.0078250   1.0078250
 NucSpn=           1           1
 AtZEff=  -0.0000000  -0.0000000
 NQMom=    0.0000000   0.0000000
 NMagM=    2.7928460   2.7928460
 AtZNuc=   1.0000000   1.0000000
 Leave Link  101 at Mon Nov 14 15:19:25 2022, MaxMem= 16106127360 cpu:               6.0 elap:               0.2
 (Enter /opt/ap/G16/B01/g16/l202.exe)
                          Input orientation:                          
 ---------------------------------------------------------------------
 Center     Atomic      Atomic             Coordinates (Angstroms)
 Number     Number       Type             X           Y           Z
 ---------------------------------------------------------------------
      1          6           0        0.000000    0.000000    0.000000
      2          6           0        0.000000    0.000000    1.394128
      3          6           0        1.221126    0.000000   -0.673109
      4          6           0        1.193108    0.000764    2.115362
      5          1           0       -0.944957   -0.000427    1.927071
      6          6           0       -1.278366   -0.017366   -0.754803
      7          6           0        2.428476    0.001115    0.024455
      8          1           0        1.232154   -0.045667   -1.756969
      9          6           0        2.400843    0.001752    1.418572
     10          6           0        1.177445    0.018728    3.599837
     11          6           0       -2.257198    0.952437   -0.525546
     12          6           0       -1.528338   -1.004976   -1.710514
     13          6           0        3.721572    0.001921   -0.704680
     14          1           0        3.334061    0.048144    1.969857
     15          6           0        0.290794    0.844275    4.295193
     16          6           0        2.049080   -0.790881    4.331965
     17          6           0       -3.452245    0.935993   -1.233082
     18          1           0       -2.088528    1.712841    0.229470
     19          6           0       -2.723106   -1.022374   -2.418368
     20          1           0       -0.770111   -1.753465   -1.914739
     21          6           0        3.910862    0.818865   -1.821777
     22          6           0        4.776237   -0.814044   -0.288725
     23          6           0        0.275860    0.859807    5.683909
     24          1           0       -0.377402    1.495584    3.742000
     25          6           0        2.035025   -0.775886    5.720674
     26          1           0        2.729408   -1.453102    3.807101
     27          6           0       -3.689314   -0.051164   -2.182629
     28          1           0       -4.203985    1.692207   -1.035994
     29          1           0       -2.896634   -1.792375   -3.161888
     30          6           0        5.120444    0.820149   -2.504230
     31          1           0        3.109266    1.474569   -2.144691
     32          6           0        5.986440   -0.813321   -0.970068
     33          1           0        4.638168   -1.470412    0.563864
     34          6           0        1.147946    0.049642    6.401818
     35          1           0       -0.413890    1.513063    6.206701
     36          1           0        2.713797   -1.416787    6.272362
     37          1           0       -4.622179   -0.064313   -2.734823
     38          6           0        6.162883    0.003944   -2.080611
     39          1           0        5.251831    1.466740   -3.364741
     40          1           0        6.791448   -1.459089   -0.637249
     41          1           0        1.136620    0.061726    7.485815
     42          1           0        7.107346    0.004761   -2.612865
 ---------------------------------------------------------------------
                    Distance matrix (angstroms):
                    1          2          3          4          5
     1  C    0.000000
     2  C    1.394128   0.000000
     3  C    1.394354   2.400962   0.000000
     4  C    2.428634   1.394161   2.788612   0.000000
     5  H    2.146287   1.084884   3.384206   2.146341   0.000000
     6  C    1.484671   2.500485   2.500887   3.787659   2.702572
     7  C    2.428599   2.788100   1.394378   2.428585   3.872983
     8  H    2.146445   3.383741   1.084878   3.872806   4.279487
     9  C    2.788619   2.400968   2.401430   1.394324   3.384222
    10  C    3.787552   2.500376   4.273210   1.484666   2.702426
    11  C    2.505649   3.112432   3.609383   4.447998   2.940282
    12  C    2.504326   3.603414   3.105758   4.801573   3.818569
    13  C    3.787700   4.272598   2.500646   3.787581   5.357482
    14  H    3.872805   3.383747   3.384092   2.146415   4.279508
    15  C    4.387032   3.035381   5.124680   2.505463   2.801537
    16  C    4.856969   3.668120   5.134371   2.504540   3.920790
    17  C    3.783460   4.438053   4.798963   5.802243   4.141248
    18  H    2.710799   2.941463   3.834356   4.154146   2.669249
    19  C    3.782732   4.795382   4.432623   6.077685   4.805104
    20  H    2.708124   3.823129   2.929387   4.813861   4.226489
    21  C    4.391384   5.129076   3.037212   4.853507   6.189029
    22  C    4.853707   5.129045   3.667320   4.391169   6.189006
    23  C    5.755188   4.383786   6.484171   3.783362   4.042800
    24  H    4.047440   2.809218   4.928007   2.710524   2.419532
    25  C    6.121229   4.843792   6.491910   3.782894   4.886007
    26  H    4.904609   3.922195   4.945574   2.708491   4.375585
    27  C    4.286902   5.138759   5.137479   6.504880   4.942034
    28  H    4.648692   5.142232   5.694478   6.474615   4.718689
    29  H    4.647647   5.688618   5.134449   6.913081   5.737387
    30  C    5.758711   6.487587   4.385239   6.118495   7.556379
    31  H    4.054822   4.936104   2.811579   4.898143   5.932249
    32  C    6.118822   6.487555   4.843334   5.758354   7.556353
    33  H    4.898230   4.935996   3.920254   4.054620   5.932156
    34  C    6.504116   5.137821   7.075480   4.286973   4.940255
    35  H    6.401859   5.061770   7.231488   4.648499   4.570330
    36  H    6.979577   5.759266   7.243957   4.647859   5.854410
    37  H    5.371027   6.198138   6.196694   7.572720   5.937953
    38  C    6.504621   7.074953   5.138292   6.504219   8.159837
    39  H    6.407382   7.237395   5.063871   6.975231   8.279857
    40  H    6.975586   7.237348   5.758361   6.406985   8.279819
    41  H    7.571865   6.197125   8.159595   5.371096   5.936031
    42  H    7.572414   8.159067   6.197601   7.571945   9.243951
                    6          7          8          9         10
     6  C    0.000000
     7  C    3.787910   0.000000
     8  H    2.703303   2.146356   0.000000
     9  C    4.273231   1.394392   3.384102   0.000000
    10  C    4.999520   3.787973   5.357472   2.500981   0.000000
    11  C    1.396850   4.812801   3.832517   5.136219   5.448612
    12  C    1.396868   4.436069   2.922797   5.122806   6.047235
    13  C    5.000226   1.484499   2.703105   2.500505   5.000173
    14  H    5.357476   2.146366   4.279725   1.084879   2.703459
    15  C    5.357906   4.849723   6.189251   3.665665   1.396854
    16  C    6.127433   4.396117   6.188524   3.039714   1.396863
    17  C    2.421445   6.085907   4.814738   6.493282   6.755184
    18  H    2.149133   4.834807   4.250319   4.949368   4.989587
    19  C    2.421728   5.792556   4.127407   6.482731   7.246860
    20  H    2.148909   4.131583   2.636386   4.924094   6.110989
    21  C    5.363376   2.504946   2.815510   3.667109   6.124188
    22  C    6.124553   2.504906   3.912375   3.036921   5.363369
    23  C    6.681472   6.115597   7.556523   4.841994   2.421492
    24  H    4.829285   4.891475   5.933362   3.917716   2.149154
    25  C    7.313393   5.762417   7.555989   4.387097   2.421736
    26  H    6.239756   4.063707   5.931401   2.815959   2.148914
    27  C    2.802231   6.503945   4.939844   7.075413   7.558250
    28  H    3.400141   6.926318   5.752531   7.246122   7.297346
    29  H    3.400515   6.459580   4.698049   7.229299   8.099329
    30  C    6.686306   3.783088   4.053003   4.842972   7.310892
    31  H    4.838282   2.709194   2.446425   3.920191   6.233057
    32  C    7.311449   3.783053   4.879728   4.384797   6.686012
    33  H    6.233426   2.709077   4.360860   2.811302   4.838519
    34  C    7.557031   6.504835   8.159779   5.138559   2.802307
    35  H    7.179977   6.970308   8.280044   5.756123   3.400165
    36  H    8.202243   6.413127   8.279214   5.066504   3.400510
    37  H    3.886356   7.571633   5.935466   8.159528   8.588972
    38  C    7.558466   4.286853   4.941589   5.137824   7.557929
    39  H    7.187337   4.648230   4.585860   5.757987   8.197725
    40  H    8.198432   4.648180   5.844424   5.063385   7.187062
    41  H    8.587561   7.572613   9.243902   6.197846   3.886431
    42  H    8.589123   5.370968   5.937422   6.197069   8.588456
                   11         12         13         14         15
    11  C    0.000000
    12  C    2.401427   0.000000
    13  C    6.056505   5.439402   0.000000
    14  H    6.189262   6.188466   2.702860   0.000000
    15  C    5.453759   6.541979   6.121971   3.911840   0.000000
    16  C    6.721503   7.025333   5.365963   2.816859   2.401387
    17  C    1.388889   2.774296   7.253643   7.556523   6.676869
    18  H    1.084764   3.385835   6.128388   5.933349   4.790165
    19  C    2.774838   1.388824   6.746835   7.555912   7.592093
    20  H    3.385733   1.084828   4.972006   5.931282   6.814472
    21  C    6.304206   5.737915   1.396829   3.911930   7.107943
    22  C    7.255739   6.465725   1.396832   2.815037   6.624314
    23  C    6.706884   7.836455   7.309101   4.879095   1.388883
    24  H    4.694741   6.107975   6.229413   4.360107   1.084763
    25  C    7.773387   8.244549   6.688393   4.054029   2.774755
    26  H    7.030270   6.983788   4.843310   2.448430   3.385708
    27  C    2.409169   2.408832   7.557009   8.159706   7.655407
    28  H    2.144247   3.858608   8.110566   8.280110   7.024499
    29  H    3.859166   2.144462   7.284093   8.279122   8.527583
    30  C    7.639521   6.940271   2.421718   4.878996   8.340159
    31  H    5.629670   5.276743   2.148776   4.360587   7.057844
    32  C    8.442337   7.553600   2.421709   4.052208   7.931644
    33  H    7.389390   6.589023   2.148749   2.446125   6.179018
    34  C    7.771642   8.607244   7.558317   4.941800   2.409154
    35  H    7.002516   8.382410   8.194680   5.843284   2.144229
    36  H    8.748461   9.049397   7.190790   4.587189   3.859086
    37  H    3.392317   3.392036   8.587435   9.243831   8.624613
    38  C    8.614850   7.765937   2.802355   4.940696   8.708529
    39  H    8.044318   7.403819   3.400487   5.843645   9.147346
    40  H    9.365145   8.401009   3.400476   4.585006   8.478973
    41  H    8.746043   9.633914   8.588933   5.937569   3.392325
    42  H    9.641041   8.741215   3.886469   5.936405   9.741223
                   16         17         18         19         20
    16  C    0.000000
    17  C    8.013515   0.000000
    18  H    6.341837   2.145291   0.000000
    19  C    8.270088   2.402446   3.859422   0.000000
    20  H    6.920673   3.858974   4.283822   2.145303   0.000000
    21  C    6.627673   7.387532   6.403084   6.910544   5.342007
    22  C    5.365510   8.465362   7.333395   7.798650   5.855631
    23  C    2.774316   7.858074   6.005739   8.842132   8.103252
    24  H    3.385823   5.875308   3.913185   7.056386   6.535230
    25  C    1.388861   9.021939   7.304162   9.431044   8.192923
    26  H    1.084834   8.326107   6.784921   8.286852   6.713889
    27  C    8.712995   1.390079   3.390052   1.390101   3.389888
    28  H    8.607063   1.084351   2.465154   3.387168   4.943312
    29  H    9.034429   3.387180   4.943772   1.084359   2.465561
    30  C    7.665654   8.667192   7.761397   8.057514   6.455202
    31  H    6.942862   6.646391   5.719307   6.350290   5.051994
    32  C    6.604154   9.603022   8.545495   8.831618   6.886745
    33  H    4.622091   8.629866   7.449387   7.955049   5.955928
    34  C    2.408903   8.957627   7.165116   9.691747   8.723260
    35  H    3.858628   8.056983   6.210605   9.281850   8.760986
    36  H    2.144469   9.994365   8.329072  10.258863   8.903909
    37  H    9.745414   2.150485   4.285405   2.150465   4.285346
    38  C    7.660043   9.697304   8.737425   8.951437   7.154189
    39  H    8.636768   8.977004   8.176784   8.407790   6.981118
    40  H    6.901424  10.536825   9.469230   9.689678   7.674361
    41  H    3.392092   9.891470   8.110629  10.684830   9.762221
    42  H    8.628428  10.689993   9.775505   9.885880   8.101424
                   21         22         23         24         25
    21  C    0.000000
    22  C    2.401148   0.000000
    23  C    8.339678   7.663388   0.000000
    24  H    7.057108   6.938381   2.145221   0.000000
    25  C    7.934139   6.605193   2.402396   3.859344   0.000000
    26  H    6.184005   4.623169   3.858996   4.283837   2.145356
    27  C    7.658319   8.708296   8.856347   6.961495   9.785473
    28  H    8.199447   9.353294   8.119052   6.124592   9.522043
    29  H    7.413263   8.251372   9.764573   8.051140  10.210505
    30  C    1.388824   2.774442   9.514051   8.348527   8.928391
    31  H    1.084794   3.385432   8.348239   6.841814   8.251212
    32  C    2.774430   1.388819   8.926672   8.248218   7.770528
    33  H    3.385417   1.084800   7.118603   6.637291   5.818196
    34  C    8.709358   7.659884   1.390070   3.389995   1.390095
    35  H    9.145591   8.633852   1.084348   2.465033   3.387137
    36  H    8.482109   6.903971   3.387136   4.943698   1.084363
    37  H    8.627076   9.740417   9.783651   7.899408  10.785181
    38  C    2.408878   2.408889   9.781478   8.882743   8.860440
    39  H    2.144453   3.858761  10.344405   9.066139   9.895553
    40  H    3.858751   2.144441   9.369482   8.905073   7.969536
    41  H    9.741711   8.628862   2.150513   4.285366   2.150453
    42  H    3.392063   3.392069  10.781315   9.931179   9.787018
                   26         27         28         29         30
    26  H    0.000000
    27  C    8.890573   0.000000
    28  H    9.023330   2.149185   0.000000
    29  H    8.962938   2.149210   4.286129   0.000000
    30  C    7.121630   8.858581   9.479513   8.457619   0.000000
    31  H    6.643746   6.967782   7.400014   6.912195   2.145313
    32  C    5.817122   9.781176  10.494130   9.201718   2.402462
    33  H    3.763276   8.882818   9.526037   8.411785   3.859075
    34  C    3.389959   9.854034   9.309256  10.545905   9.782234
    35  H    4.943333   9.140900   8.176401  10.240136  10.343562
    36  H    2.465578  10.693532  10.532503  10.982853   9.371467
    37  H    9.938377   1.084125   2.479166   2.479130   9.785404
    38  C    6.969712   9.852880  10.555255   9.298966   1.390081
    39  H    8.143918   9.145791   9.740963   8.778408   1.084353
    40  H    6.021000  10.687228  11.445052  10.017175   3.387152
    41  H    4.285396  10.806534  10.188315  11.535961  10.781792
    42  H    7.906179  10.805374  11.544704  10.178935   2.150451
                   31         32         33         34         35
    31  H    0.000000
    32  C    3.859055   0.000000
    33  H    4.283308   2.145356   0.000000
    34  C    8.883693   8.860047   6.969499   0.000000
    35  H    9.064207   9.893547   8.140394   2.149187   0.000000
    36  H    8.908597   7.970392   6.024369   2.149200   4.286112
    37  H    7.905166  10.780453   9.930382  10.806736  10.007430
    38  C    3.389900   1.390094   3.389946   9.854100  10.686951
    39  H    2.465597   3.387150   4.943418  10.688111  11.122726
    40  H    4.943399   1.084354   2.465647   9.147341  10.372571
    41  H    9.931470   9.787155   7.907066   1.084123   2.479233
    42  H    4.285343   2.150458   4.285392  10.806525  11.688828
                   36         37         38         39         40
    36  H    0.000000
    37  H   11.695089   0.000000
    38  C    9.148051  10.805102   0.000000
    39  H   10.374492  10.011843   2.149134   0.000000
    40  H    8.023201  11.688289   2.149152   4.286037   0.000000
    41  H    2.479104  11.732053  10.806626  11.689465  10.013697
    42  H   10.013557  11.730362   1.084114   2.479039   2.479054
                   41         42
    41  H    0.000000
    42  H   11.731844   0.000000
 Stoichiometry    C24H18
 Framework group  C1[X(C24H18)]
 Deg. of freedom   120
 Full point group                 C1      NOp   1
 Largest Abelian subgroup         C1      NOp   1
 Largest concise Abelian subgroup C1      NOp   1
                         Standard orientation:                         
 ---------------------------------------------------------------------
 Center     Atomic      Atomic             Coordinates (Angstroms)
 Number     Number       Type             X           Y           Z
 ---------------------------------------------------------------------
      1          6           0       -1.395086   -0.133335    0.041027
      2          6           0       -0.802664    1.128626    0.050214
      3          6           0       -0.576372   -1.260918   -0.008856
      4          6           0        0.583191    1.275107    0.009799
      5          1           0       -1.431080    2.012106    0.089322
      6          6           0       -2.871826   -0.274378    0.100984
      7          6           0        0.812299   -1.141900   -0.050307
      8          1           0       -1.025560   -2.247700    0.029226
      9          6           0        1.379697    0.131793   -0.040729
     10          6           0        1.199280    2.625888    0.002213
     11          6           0       -3.689908    0.369713   -0.830186
     12          6           0       -3.473584   -1.054895    1.090893
     13          6           0        1.672291   -2.350727   -0.104044
     14          1           0        2.456804    0.235736   -0.118187
     15          6           0        0.667114    3.649625   -0.785163
     16          6           0        2.323964    2.901028    0.783629
     17          6           0       -5.071212    0.236113   -0.773939
     18          1           0       -3.239967    0.998122   -1.591348
     19          6           0       -4.854743   -1.188923    1.148081
     20          1           0       -2.851283   -1.577876    1.809283
     21          6           0        1.343605   -3.424470   -0.934810
     22          6           0        2.828404   -2.439610    0.674828
     23          6           0        1.243245    4.913363   -0.790976
     24          1           0       -0.192594    3.446665   -1.414783
     25          6           0        2.900904    4.164375    0.778319
     26          1           0        2.736874    2.122746    1.416597
     27          6           0       -5.658693   -0.544291    0.215078
     28          1           0       -5.690918    0.750048   -1.500336
     29          1           0       -5.303896   -1.805072    1.919090
     30          6           0        2.147864   -4.555583   -0.985608
     31          1           0        0.460930   -3.362268   -1.562340
     32          6           0        3.633715   -3.569993    0.624574
     33          1           0        3.086070   -1.623541    1.341484
     34          6           0        2.362312    5.175428   -0.009116
     35          1           0        0.821207    5.693572   -1.414650
     36          1           0        3.769218    4.361711    1.397135
     37          1           0       -6.736893   -0.648483    0.259298
     38          6           0        3.296180   -4.632345   -0.205992
     39          1           0        1.881089   -5.376200   -1.642297
     40          1           0        4.523378   -3.624462    1.242114
     41          1           0        2.812326    6.161729   -0.013626
     42          1           0        3.924428   -5.514984   -0.245465
 ---------------------------------------------------------------------
 Rotational constants (GHZ):           0.1977389           0.1963252           0.1040871
 Leave Link  202 at Mon Nov 14 15:19:25 2022, MaxMem= 16106127360 cpu:               0.4 elap:               0.0
 (Enter /opt/ap/G16/B01/g16/l301.exe)
 Standard basis: 6-311++G(d,p) (5D, 7F)
 Ernie: Thresh=  0.10000D-02 Tol=  0.10000D-05 Strict=F.
 There are   678 symmetry adapted cartesian basis functions of A   symmetry.
 There are   654 symmetry adapted basis functions of A   symmetry.
   654 basis functions,  1026 primitive gaussians,   678 cartesian basis functions
    81 alpha electrons       81 beta electrons
       nuclear repulsion energy      1731.8354317815 Hartrees.
 IExCor= 4639 DFT=T Ex+Corr=wB97XD ExCW=0 ScaHFX=  1.000000
 ScaDFX=  1.000000  1.000000  1.000000  1.000000 ScalE2=  1.000000  1.000000
 IRadAn=      5 IRanWt=     -1 IRanGd=            0 ICorTp=0 IEmpDi=121
 HFx  wShort=  0.000000 wLong=  0.200000 cFull=  0.222036 cShort=  0.000000 cLong=  0.777964
 DFx  wShort=  0.000000 wLong=  0.200000 cFull=  0.000000 cShort=  0.000000 cLong=  1.000000
 NAtoms=   42 NActive=   42 NUniq=   42 SFac= 1.00D+00 NAtFMM=   60 NAOKFM=F Big=F
 Integral buffers will be    131072 words long.
 Raffenetti 2 integral format.
 Two-electron integral symmetry is turned on.
 R6Disp:  Grimme-D2 Dispersion energy=       -0.0289209134 Hartrees.
 Nuclear repulsion after empirical dispersion term =     1731.8065108681 Hartrees.
 Leave Link  301 at Mon Nov 14 15:19:25 2022, MaxMem= 16106127360 cpu:               1.3 elap:               0.0
 (Enter /opt/ap/G16/B01/g16/l302.exe)
 NPDir=0 NMtPBC=     1 NCelOv=     1 NCel=       1 NClECP=     1 NCelD=      1
         NCelK=      1 NCelE2=     1 NClLst=     1 CellRange=     0.0.
 One-electron integrals computed using PRISM.
 One-electron integral symmetry used in STVInt
 NBasis=   654 RedAO= T EigKep=  1.31D-06  NBF=   654
 NBsUse=   645 1.00D-06 EigRej=  9.05D-07 NBFU=   645
 Precomputing XC quadrature grid using
 IXCGrd= 4 IRadAn=           5 IRanWt=          -1 IRanGd=           0 AccXCQ= 0.00D+00.
 Generated NRdTot=       0 NPtTot=           0 NUsed=           0 NTot=          32
 NSgBfM=   669   669   669   669   669 MxSgAt=    42 MxSgA2=    42.
 Leave Link  302 at Mon Nov 14 15:19:26 2022, MaxMem= 16106127360 cpu:              21.1 elap:               0.7
 (Enter /opt/ap/G16/B01/g16/l303.exe)
 DipDrv:  MaxL=1.
 Leave Link  303 at Mon Nov 14 15:19:26 2022, MaxMem= 16106127360 cpu:               2.8 elap:               0.1
 (Enter /opt/ap/G16/B01/g16/l401.exe)
 ExpMin= 3.60D-02 ExpMax= 4.56D+03 ExpMxC= 6.82D+02 IAcc=3 IRadAn=         5 AccDes= 0.00D+00
 Harris functional with IExCor= 4639 and IRadAn=       5 diagonalized for initial guess.
 HarFok:  IExCor= 4639 AccDes= 0.00D+00 IRadAn=         5 IDoV= 1 UseB2=F ITyADJ=14
 ICtDFT=  3500011 ScaDFX=  1.000000  1.000000  1.000000  1.000000
 FoFCou: FMM=F IPFlag=           0 FMFlag=      100000 FMFlg1=           0
         NFxFlg=           0 DoJE=T BraDBF=F KetDBF=T FulRan=T
         wScrn=  0.000000 ICntrl=       500 IOpCl=  0 I1Cent=   200000004 NGrid=           0
         NMat0=    1 NMatS0=      1 NMatT0=    0 NMatD0=    1 NMtDS0=    0 NMtDT0=    0
 Petite list used in FoFCou.
 Harris En= -882.969518008940    
 JPrj=0 DoOrth=F DoCkMO=F.
 Leave Link  401 at Mon Nov 14 15:19:28 2022, MaxMem= 16106127360 cpu:              54.7 elap:               1.7
 (Enter /opt/ap/G16/B01/g16/l502.exe)
 Integral symmetry usage will be decided dynamically.
 Closed shell SCF:
 Using DIIS extrapolation, IDIIS=  1040.
 NGot= 16106127360 LenX= 16105179956 LenY= 16104719594
 Requested convergence on RMS density matrix=1.00D-08 within 512 cycles.
 Requested convergence on MAX density matrix=1.00D-06.
 Requested convergence on             energy=1.00D-06.
 No special actions if energy rises.
 Fock matrices will be formed incrementally for  20 cycles.

 Cycle   1  Pass 1  IDiag  1:
 FoFJK:  IHMeth= 1 ICntrl=       0 DoSepK=T KAlg= 0 I1Cent=           0 FoldK=F
 IRaf=         1 NMat=       1 IRICut=       1 DoRegI=T DoRafI=F ISym2E= 0 IDoP0=0 IntGTp=1.
 FoFCou: FMM=F IPFlag=           0 FMFlag=      100000 FMFlg1=           0
         NFxFlg=           0 DoJE=T BraDBF=F KetDBF=F FulRan=T
         wScrn=  0.000000 ICntrl=       500 IOpCl=  0 I1Cent=           0 NGrid=           0
         NMat0=    1 NMatS0=      1 NMatT0=    0 NMatD0=    1 NMtDS0=    0 NMtDT0=    0
 Symmetry not used in FoFCou.
 E= -925.116138157684    
 DIIS: error= 4.85D-02 at cycle   1 NSaved=   1.
 NSaved= 1 IEnMin= 1 EnMin= -925.116138157684     IErMin= 1 ErrMin= 4.85D-02
 ErrMax= 4.85D-02  0.00D+00 EMaxC= 1.00D-01 BMatC= 1.90D+00 BMatP= 1.90D+00
 IDIUse=3 WtCom= 5.15D-01 WtEn= 4.85D-01
 Coeff-Com:  0.100D+01
 Coeff-En:   0.100D+01
 Coeff:      0.100D+01
 Gap=     0.319 Goal=   None    Shift=    0.000
 GapD=    0.319 DampG=1.000 DampE=0.500 DampFc=0.5000 IDamp=-1.
 Damping current iteration by 5.00D-01
 RMSDP=3.68D-02 MaxDP=4.67D+00              OVMax= 4.30D-02

 Cycle   2  Pass 1  IDiag  1:
 RMSU=  6.72D-03    CP:  8.12D-01
 E= -925.214605288226     Delta-E=       -0.098467130543 Rises=F Damp=T
 DIIS: error= 2.35D-02 at cycle   2 NSaved=   2.
 NSaved= 2 IEnMin= 2 EnMin= -925.214605288226     IErMin= 2 ErrMin= 2.35D-02
 ErrMax= 2.35D-02  0.00D+00 EMaxC= 1.00D-01 BMatC= 4.32D-01 BMatP= 1.90D+00
 IDIUse=3 WtCom= 7.65D-01 WtEn= 2.35D-01
 Coeff-Com: -0.883D+00 0.188D+01
 Coeff-En:   0.000D+00 0.100D+01
 Coeff:     -0.675D+00 0.167D+01
 Gap=     0.327 Goal=   None    Shift=    0.000
 RMSDP=2.08D-02 MaxDP=2.13D+00 DE=-9.85D-02 OVMax= 3.39D-02

 Cycle   3  Pass 1  IDiag  1:
 RMSU=  3.61D-03    CP:  5.88D-01  1.36D+00
 E= -925.303013434857     Delta-E=       -0.088408146631 Rises=F Damp=F
 DIIS: error= 3.36D-03 at cycle   3 NSaved=   3.
 NSaved= 3 IEnMin= 3 EnMin= -925.303013434857     IErMin= 3 ErrMin= 3.36D-03
 ErrMax= 3.36D-03  0.00D+00 EMaxC= 1.00D-01 BMatC= 8.55D-03 BMatP= 4.32D-01
 IDIUse=3 WtCom= 9.66D-01 WtEn= 3.36D-02
 Coeff-Com: -0.368D+00 0.780D+00 0.587D+00
 Coeff-En:   0.000D+00 0.000D+00 0.100D+01
 Coeff:     -0.355D+00 0.754D+00 0.601D+00
 Gap=     0.325 Goal=   None    Shift=    0.000
 RMSDP=2.09D-03 MaxDP=1.99D-01 DE=-8.84D-02 OVMax= 1.94D-02

 Cycle   4  Pass 1  IDiag  1:
 RMSU=  1.40D-03    CP:  5.90D-01  1.55D+00  7.45D-01
 E= -925.310837911491     Delta-E=       -0.007824476634 Rises=F Damp=F
 DIIS: error= 8.15D-04 at cycle   4 NSaved=   4.
 NSaved= 4 IEnMin= 4 EnMin= -925.310837911491     IErMin= 4 ErrMin= 8.15D-04
 ErrMax= 8.15D-04  0.00D+00 EMaxC= 1.00D-01 BMatC= 2.77D-04 BMatP= 8.55D-03
 IDIUse=3 WtCom= 9.92D-01 WtEn= 8.15D-03
 Coeff-Com: -0.112D+00 0.238D+00 0.237D+00 0.636D+00
 Coeff-En:   0.000D+00 0.000D+00 0.000D+00 0.100D+01
 Coeff:     -0.111D+00 0.236D+00 0.236D+00 0.639D+00
 Gap=     0.324 Goal=   None    Shift=    0.000
 RMSDP=6.68D-04 MaxDP=6.07D-02 DE=-7.82D-03 OVMax= 4.25D-03

 Cycle   5  Pass 1  IDiag  1:
 RMSU=  2.28D-04    CP:  5.84D-01  1.59D+00  7.58D-01  8.51D-01
 E= -925.311128145557     Delta-E=       -0.000290234066 Rises=F Damp=F
 DIIS: error= 1.94D-04 at cycle   5 NSaved=   5.
 NSaved= 5 IEnMin= 5 EnMin= -925.311128145557     IErMin= 5 ErrMin= 1.94D-04
 ErrMax= 1.94D-04  0.00D+00 EMaxC= 1.00D-01 BMatC= 2.02D-05 BMatP= 2.77D-04
 IDIUse=3 WtCom= 9.98D-01 WtEn= 1.94D-03
 Coeff-Com:  0.260D-01-0.554D-01-0.252D-01 0.196D+00 0.859D+00
 Coeff-En:   0.000D+00 0.000D+00 0.000D+00 0.000D+00 0.100D+01
 Coeff:      0.260D-01-0.553D-01-0.252D-01 0.195D+00 0.859D+00
 Gap=     0.324 Goal=   None    Shift=    0.000
 RMSDP=1.65D-04 MaxDP=9.65D-03 DE=-2.90D-04 OVMax= 1.49D-03

 Cycle   6  Pass 1  IDiag  1:
 RMSU=  6.92D-05    CP:  5.83D-01  1.59D+00  7.79D-01  9.26D-01  1.23D+00
 E= -925.311153900560     Delta-E=       -0.000025755004 Rises=F Damp=F
 DIIS: error= 4.77D-05 at cycle   6 NSaved=   6.
 NSaved= 6 IEnMin= 6 EnMin= -925.311153900560     IErMin= 6 ErrMin= 4.77D-05
 ErrMax= 4.77D-05  0.00D+00 EMaxC= 1.00D-01 BMatC= 1.43D-06 BMatP= 2.02D-05
 IDIUse=1 WtCom= 1.00D+00 WtEn= 0.00D+00
 Coeff-Com:  0.133D-01-0.284D-01-0.165D-01 0.540D-01 0.332D+00 0.645D+00
 Coeff:      0.133D-01-0.284D-01-0.165D-01 0.540D-01 0.332D+00 0.645D+00
 Gap=     0.324 Goal=   None    Shift=    0.000
 RMSDP=7.55D-05 MaxDP=5.66D-03 DE=-2.58D-05 OVMax= 3.88D-04

 Cycle   7  Pass 1  IDiag  1:
 RMSU=  4.13D-05    CP:  5.84D-01  1.59D+00  7.84D-01  9.57D-01  1.19D+00
                    CP:  8.26D-01
 E= -925.311155635450     Delta-E=       -0.000001734889 Rises=F Damp=F
 DIIS: error= 1.23D-05 at cycle   7 NSaved=   7.
 NSaved= 7 IEnMin= 7 EnMin= -925.311155635450     IErMin= 7 ErrMin= 1.23D-05
 ErrMax= 1.23D-05  0.00D+00 EMaxC= 1.00D-01 BMatC= 1.02D-07 BMatP= 1.43D-06
 IDIUse=1 WtCom= 1.00D+00 WtEn= 0.00D+00
 Coeff-Com: -0.233D-02 0.501D-02 0.212D-02-0.279D-01-0.100D+00 0.976D-01
 Coeff-Com:  0.103D+01
 Coeff:     -0.233D-02 0.501D-02 0.212D-02-0.279D-01-0.100D+00 0.976D-01
 Coeff:      0.103D+01
 Gap=     0.324 Goal=   None    Shift=    0.000
 RMSDP=1.71D-05 MaxDP=1.41D-03 DE=-1.73D-06 OVMax= 2.69D-04

 Cycle   8  Pass 1  IDiag  1:
 RMSU=  7.16D-06    CP:  5.84D-01  1.59D+00  7.86D-01  9.60D-01  1.22D+00
                    CP:  9.19D-01  1.19D+00
 E= -925.311155866663     Delta-E=       -0.000000231214 Rises=F Damp=F
 DIIS: error= 4.73D-06 at cycle   8 NSaved=   8.
 NSaved= 8 IEnMin= 8 EnMin= -925.311155866663     IErMin= 8 ErrMin= 4.73D-06
 ErrMax= 4.73D-06  0.00D+00 EMaxC= 1.00D-01 BMatC= 8.59D-09 BMatP= 1.02D-07
 IDIUse=1 WtCom= 1.00D+00 WtEn= 0.00D+00
 Coeff-Com: -0.127D-02 0.272D-02 0.137D-02-0.121D-01-0.455D-01 0.191D-01
 Coeff-Com:  0.335D+00 0.701D+00
 Coeff:     -0.127D-02 0.272D-02 0.137D-02-0.121D-01-0.455D-01 0.191D-01
 Coeff:      0.335D+00 0.701D+00
 Gap=     0.324 Goal=   None    Shift=    0.000
 RMSDP=2.70D-06 MaxDP=1.15D-04 DE=-2.31D-07 OVMax= 6.05D-05

 Cycle   9  Pass 1  IDiag  1:
 RMSU=  2.17D-06    CP:  5.84D-01  1.59D+00  7.86D-01  9.59D-01  1.22D+00
                    CP:  9.24D-01  1.22D+00  1.11D+00
 E= -925.311155879113     Delta-E=       -0.000000012450 Rises=F Damp=F
 DIIS: error= 2.84D-06 at cycle   9 NSaved=   9.
 NSaved= 9 IEnMin= 9 EnMin= -925.311155879113     IErMin= 9 ErrMin= 2.84D-06
 ErrMax= 2.84D-06  0.00D+00 EMaxC= 1.00D-01 BMatC= 2.34D-09 BMatP= 8.59D-09
 IDIUse=1 WtCom= 1.00D+00 WtEn= 0.00D+00
 Coeff-Com:  0.122D-03-0.266D-03 0.531D-04 0.288D-02 0.105D-01-0.168D-01
 Coeff-Com: -0.176D+00 0.314D+00 0.865D+00
 Coeff:      0.122D-03-0.266D-03 0.531D-04 0.288D-02 0.105D-01-0.168D-01
 Coeff:     -0.176D+00 0.314D+00 0.865D+00
 Gap=     0.324 Goal=   None    Shift=    0.000
 RMSDP=2.26D-06 MaxDP=1.30D-04 DE=-1.25D-08 OVMax= 4.59D-05

 Cycle  10  Pass 1  IDiag  1:
 RMSU=  5.87D-07    CP:  5.84D-01  1.59D+00  7.86D-01  9.59D-01  1.22D+00
                    CP:  9.27D-01  1.24D+00  1.32D+00  8.41D-01
 E= -925.311155883807     Delta-E=       -0.000000004694 Rises=F Damp=F
 DIIS: error= 8.49D-07 at cycle  10 NSaved=  10.
 NSaved=10 IEnMin=10 EnMin= -925.311155883807     IErMin=10 ErrMin= 8.49D-07
 ErrMax= 8.49D-07  0.00D+00 EMaxC= 1.00D-01 BMatC= 2.14D-10 BMatP= 2.34D-09
 IDIUse=1 WtCom= 1.00D+00 WtEn= 0.00D+00
 Coeff-Com:  0.130D-03-0.280D-03-0.613D-04 0.183D-02 0.662D-02-0.561D-02
 Coeff-Com: -0.827D-01 0.401D-01 0.321D+00 0.719D+00
 Coeff:      0.130D-03-0.280D-03-0.613D-04 0.183D-02 0.662D-02-0.561D-02
 Coeff:     -0.827D-01 0.401D-01 0.321D+00 0.719D+00
 Gap=     0.324 Goal=   None    Shift=    0.000
 RMSDP=3.67D-07 MaxDP=4.28D-05 DE=-4.69D-09 OVMax= 1.02D-05

 Cycle  11  Pass 1  IDiag  1:
 RMSU=  1.32D-07    CP:  5.84D-01  1.59D+00  7.86D-01  9.59D-01  1.22D+00
                    CP:  9.27D-01  1.24D+00  1.34D+00  9.47D-01  1.08D+00
 E= -925.311155884175     Delta-E=       -0.000000000367 Rises=F Damp=F
 DIIS: error= 2.17D-07 at cycle  11 NSaved=  11.
 NSaved=11 IEnMin=11 EnMin= -925.311155884175     IErMin=11 ErrMin= 2.17D-07
 ErrMax= 2.17D-07  0.00D+00 EMaxC= 1.00D-01 BMatC= 3.16D-11 BMatP= 2.14D-10
 IDIUse=1 WtCom= 1.00D+00 WtEn= 0.00D+00
 Coeff-Com:  0.213D-04-0.450D-04-0.193D-04 0.119D-03 0.243D-03 0.124D-02
 Coeff-Com:  0.181D-02-0.483D-01-0.343D-01 0.245D+00 0.834D+00
 Coeff:      0.213D-04-0.450D-04-0.193D-04 0.119D-03 0.243D-03 0.124D-02
 Coeff:      0.181D-02-0.483D-01-0.343D-01 0.245D+00 0.834D+00
 Gap=     0.324 Goal=   None    Shift=    0.000
 RMSDP=1.82D-07 MaxDP=1.92D-05 DE=-3.67D-10 OVMax= 3.22D-06

 Cycle  12  Pass 1  IDiag  1:
 RMSU=  5.83D-08    CP:  5.84D-01  1.59D+00  7.86D-01  9.59D-01  1.22D+00
                    CP:  9.27D-01  1.24D+00  1.35D+00  9.53D-01  1.21D+00
                    CP:  1.28D+00
 E= -925.311155884205     Delta-E=       -0.000000000030 Rises=F Damp=F
 DIIS: error= 8.29D-08 at cycle  12 NSaved=  12.
 NSaved=12 IEnMin=12 EnMin= -925.311155884205     IErMin=12 ErrMin= 8.29D-08
 ErrMax= 8.29D-08  0.00D+00 EMaxC= 1.00D-01 BMatC= 1.32D-12 BMatP= 3.16D-11
 IDIUse=1 WtCom= 1.00D+00 WtEn= 0.00D+00
 Coeff-Com: -0.143D-04 0.309D-04 0.106D-04-0.220D-03-0.806D-03 0.879D-03
 Coeff-Com:  0.976D-02-0.706D-02-0.316D-01-0.610D-01-0.756D-01 0.117D+01
 Coeff:     -0.143D-04 0.309D-04 0.106D-04-0.220D-03-0.806D-03 0.879D-03
 Coeff:      0.976D-02-0.706D-02-0.316D-01-0.610D-01-0.756D-01 0.117D+01
 Gap=     0.324 Goal=   None    Shift=    0.000
 RMSDP=6.26D-08 MaxDP=3.07D-06 DE=-3.05D-11 OVMax= 1.22D-06

 Cycle  13  Pass 1  IDiag  1:
 RMSU=  2.17D-08    CP:  5.84D-01  1.59D+00  7.86D-01  9.59D-01  1.22D+00
                    CP:  9.27D-01  1.24D+00  1.35D+00  9.54D-01  1.26D+00
                    CP:  1.40D+00  1.43D+00
 E= -925.311155884218     Delta-E=       -0.000000000013 Rises=F Damp=F
 DIIS: error= 2.74D-08 at cycle  13 NSaved=  13.
 NSaved=13 IEnMin=13 EnMin= -925.311155884218     IErMin=13 ErrMin= 2.74D-08
 ErrMax= 2.74D-08  0.00D+00 EMaxC= 1.00D-01 BMatC= 1.34D-13 BMatP= 1.32D-12
 IDIUse=1 WtCom= 1.00D+00 WtEn= 0.00D+00
 Coeff-Com: -0.416D-05 0.894D-05 0.383D-05-0.533D-04-0.183D-03 0.146D-03
 Coeff-Com:  0.193D-02 0.823D-03-0.396D-02-0.227D-01-0.715D-01 0.262D+00
 Coeff-Com:  0.834D+00
 Coeff:     -0.416D-05 0.894D-05 0.383D-05-0.533D-04-0.183D-03 0.146D-03
 Coeff:      0.193D-02 0.823D-03-0.396D-02-0.227D-01-0.715D-01 0.262D+00
 Coeff:      0.834D+00
 Gap=     0.324 Goal=   None    Shift=    0.000
 RMSDP=1.08D-08 MaxDP=6.43D-07 DE=-1.32D-11 OVMax= 2.91D-07

 Cycle  14  Pass 1  IDiag  1:
 RMSU=  5.30D-09    CP:  5.84D-01  1.59D+00  7.86D-01  9.59D-01  1.22D+00
                    CP:  9.27D-01  1.24D+00  1.35D+00  9.55D-01  1.26D+00
                    CP:  1.40D+00  1.53D+00  1.25D+00
 E= -925.311155884184     Delta-E=        0.000000000035 Rises=F Damp=F
 DIIS: error= 6.42D-09 at cycle  14 NSaved=  14.
 NSaved=14 IEnMin=13 EnMin= -925.311155884218     IErMin=14 ErrMin= 6.42D-09
 ErrMax= 6.42D-09  0.00D+00 EMaxC= 1.00D-01 BMatC= 4.61D-14 BMatP= 1.34D-13
 IDIUse=1 WtCom= 1.00D+00 WtEn= 0.00D+00
 Coeff-Com:  0.603D-06-0.134D-05-0.184D-06 0.139D-04 0.577D-04-0.842D-04
 Coeff-Com: -0.818D-03 0.147D-02 0.361D-02 0.478D-03-0.228D-01-0.911D-01
 Coeff-Com:  0.387D+00 0.722D+00
 Coeff:      0.603D-06-0.134D-05-0.184D-06 0.139D-04 0.577D-04-0.842D-04
 Coeff:     -0.818D-03 0.147D-02 0.361D-02 0.478D-03-0.228D-01-0.911D-01
 Coeff:      0.387D+00 0.722D+00
 Gap=     0.324 Goal=   None    Shift=    0.000
 RMSDP=8.69D-09 MaxDP=6.96D-07 DE= 3.46D-11 OVMax= 9.04D-08

 SCF Done:  E(RwB97XD) =  -925.311155884     A.U. after   14 cycles
            NFock= 14  Conv=0.87D-08     -V/T= 2.0044
 KE= 9.212940702181D+02 PE=-5.610060653962D+03 EE= 2.031648916992D+03
 Leave Link  502 at Mon Nov 14 15:21:53 2022, MaxMem= 16106127360 cpu:            4610.2 elap:             145.4
 (Enter /opt/ap/G16/B01/g16/l601.exe)
 Copying SCF densities to generalized density rwf, IOpCl= 0 IROHF=0.

 **********************************************************************

            Population analysis using the SCF Density.

 **********************************************************************

 Orbital symmetries:
       Occupied  (A) (A) (A) (A) (A) (A) (A) (A) (A) (A) (A) (A)
                 (A) (A) (A) (A) (A) (A) (A) (A) (A) (A) (A) (A)
                 (A) (A) (A) (A) (A) (A) (A) (A) (A) (A) (A) (A)
                 (A) (A) (A) (A) (A) (A) (A) (A) (A) (A) (A) (A)
                 (A) (A) (A) (A) (A) (A) (A) (A) (A) (A) (A) (A)
                 (A) (A) (A) (A) (A) (A) (A) (A) (A) (A) (A) (A)
                 (A) (A) (A) (A) (A) (A) (A) (A) (A)
       Virtual   (A) (A) (A) (A) (A) (A) (A) (A) (A) (A) (A) (A)
                 (A) (A) (A) (A) (A) (A) (A) (A) (A) (A) (A) (A)
                 (A) (A) (A) (A) (A) (A) (A) (A) (A) (A) (A) (A)
                 (A) (A) (A) (A) (A) (A) (A) (A) (A) (A) (A) (A)
                 (A) (A) (A) (A) (A) (A) (A) (A) (A) (A) (A) (A)
                 (A) (A) (A) (A) (A) (A) (A) (A) (A) (A) (A) (A)
                 (A) (A) (A) (A) (A) (A) (A) (A) (A) (A) (A) (A)
                 (A) (A) (A) (A) (A) (A) (A) (A) (A) (A) (A) (A)
                 (A) (A) (A) (A) (A) (A) (A) (A) (A) (A) (A) (A)
                 (A) (A) (A) (A) (A) (A) (A) (A) (A) (A) (A) (A)
                 (A) (A) (A) (A) (A) (A) (A) (A) (A) (A) (A) (A)
                 (A) (A) (A) (A) (A) (A) (A) (A) (A) (A) (A) (A)
                 (A) (A) (A) (A) (A) (A) (A) (A) (A) (A) (A) (A)
                 (A) (A) (A) (A) (A) (A) (A) (A) (A) (A) (A) (A)
                 (A) (A) (A) (A) (A) (A) (A) (A) (A) (A) (A) (A)
                 (A) (A) (A) (A) (A) (A) (A) (A) (A) (A) (A) (A)
                 (A) (A) (A) (A) (A) (A) (A) (A) (A) (A) (A) (A)
                 (A) (A) (A) (A) (A) (A) (A) (A) (A) (A) (A) (A)
                 (A) (A) (A) (A) (A) (A) (A) (A) (A) (A) (A) (A)
                 (A) (A) (A) (A) (A) (A) (A) (A) (A) (A) (A) (A)
                 (A) (A) (A) (A) (A) (A) (A) (A) (A) (A) (A) (A)
                 (A) (A) (A) (A) (A) (A) (A) (A) (A) (A) (A) (A)
                 (A) (A) (A) (A) (A) (A) (A) (A) (A) (A) (A) (A)
                 (A) (A) (A) (A) (A) (A) (A) (A) (A) (A) (A) (A)
                 (A) (A) (A) (A) (A) (A) (A) (A) (A) (A) (A) (A)
                 (A) (A) (A) (A) (A) (A) (A) (A) (A) (A) (A) (A)
                 (A) (A) (A) (A) (A) (A) (A) (A) (A) (A) (A) (A)
                 (A) (A) (A) (A) (A) (A) (A) (A) (A) (A) (A) (A)
                 (A) (A) (A) (A) (A) (A) (A) (A) (A) (A) (A) (A)
                 (A) (A) (A) (A) (A) (A) (A) (A) (A) (A) (A) (A)
                 (A) (A) (A) (A) (A) (A) (A) (A) (A) (A) (A) (A)
                 (A) (A) (A) (A) (A) (A) (A) (A) (A) (A) (A) (A)
                 (A) (A) (A) (A) (A) (A) (A) (A) (A) (A) (A) (A)
                 (A) (A) (A) (A) (A) (A) (A) (A) (A) (A) (A) (A)
                 (A) (A) (A) (A) (A) (A) (A) (A) (A) (A) (A) (A)
                 (A) (A) (A) (A) (A) (A) (A) (A) (A) (A) (A) (A)
                 (A) (A) (A) (A) (A) (A) (A) (A) (A) (A) (A) (A)
                 (A) (A) (A) (A) (A) (A) (A) (A) (A) (A) (A) (A)
                 (A) (A) (A) (A) (A) (A) (A) (A) (A) (A) (A) (A)
                 (A) (A) (A) (A) (A) (A) (A) (A) (A) (A) (A) (A)
                 (A) (A) (A) (A) (A) (A) (A) (A) (A) (A) (A) (A)
                 (A) (A) (A) (A) (A) (A) (A) (A) (A) (A) (A) (A)
                 (A) (A) (A) (A) (A) (A) (A) (A) (A) (A) (A) (A)
                 (A) (A) (A) (A) (A) (A) (A) (A) (A) (A) (A) (A)
                 (A) (A) (A) (A) (A) (A) (A) (A) (A) (A) (A) (A)
                 (A) (A) (A) (A) (A) (A) (A) (A) (A) (A) (A) (A)
                 (A) (A) (A) (A) (A) (A) (A) (A) (A) (A) (A) (A)
 The electronic state is 1-A.
 Alpha  occ. eigenvalues --  -10.30411 -10.30411 -10.30402 -10.30336 -10.30316
 Alpha  occ. eigenvalues --  -10.30305 -10.29261 -10.29252 -10.29246 -10.29240
 Alpha  occ. eigenvalues --  -10.29219 -10.29214 -10.29180 -10.29175 -10.29171
 Alpha  occ. eigenvalues --  -10.29168 -10.29130 -10.29124 -10.29115 -10.29094
 Alpha  occ. eigenvalues --  -10.29092 -10.29079 -10.29070 -10.29067  -0.98975
 Alpha  occ. eigenvalues --   -0.97059  -0.97039  -0.95268  -0.89422  -0.89410
 Alpha  occ. eigenvalues --   -0.85339  -0.85300  -0.85251  -0.85054  -0.82261
 Alpha  occ. eigenvalues --   -0.82243  -0.73542  -0.73429  -0.71141  -0.70727
 Alpha  occ. eigenvalues --   -0.70196  -0.70114  -0.66751  -0.66696  -0.63523
 Alpha  occ. eigenvalues --   -0.60705  -0.60675  -0.58697  -0.57244  -0.56609
 Alpha  occ. eigenvalues --   -0.54924  -0.54793  -0.54402  -0.54223  -0.52916
 Alpha  occ. eigenvalues --   -0.51891  -0.51458  -0.51359  -0.51145  -0.50834
 Alpha  occ. eigenvalues --   -0.50804  -0.47847  -0.46695  -0.46197  -0.45920
 Alpha  occ. eigenvalues --   -0.45674  -0.44994  -0.44333  -0.43166  -0.43095
 Alpha  occ. eigenvalues --   -0.42917  -0.41775  -0.41540  -0.36538  -0.36060
 Alpha  occ. eigenvalues --   -0.33638  -0.33619  -0.33607  -0.32996  -0.30672
 Alpha  occ. eigenvalues --   -0.30252
 Alpha virt. eigenvalues --    0.02153   0.02507   0.03672   0.04199   0.04300
 Alpha virt. eigenvalues --    0.04713   0.04865   0.04902   0.05139   0.05177
 Alpha virt. eigenvalues --    0.05235   0.05683   0.05775   0.06785   0.06956
 Alpha virt. eigenvalues --    0.07063   0.07737   0.07971   0.08078   0.08519
 Alpha virt. eigenvalues --    0.08692   0.08932   0.09191   0.09710   0.11110
 Alpha virt. eigenvalues --    0.11506   0.12124   0.12456   0.12690   0.13298
 Alpha virt. eigenvalues --    0.13671   0.13875   0.14215   0.14462   0.15404
 Alpha virt. eigenvalues --    0.15530   0.15817   0.15864   0.16129   0.16203
 Alpha virt. eigenvalues --    0.16554   0.16854   0.17008   0.17415   0.17503
 Alpha virt. eigenvalues --    0.17584   0.17764   0.17993   0.18055   0.18156
 Alpha virt. eigenvalues --    0.18318   0.18431   0.18463   0.18732   0.19044
 Alpha virt. eigenvalues --    0.19276   0.19407   0.19453   0.20122   0.20396
 Alpha virt. eigenvalues --    0.20542   0.20791   0.21111   0.21318   0.21513
 Alpha virt. eigenvalues --    0.22134   0.22389   0.22562   0.22596   0.22846
 Alpha virt. eigenvalues --    0.23126   0.23364   0.23530   0.23789   0.23822
 Alpha virt. eigenvalues --    0.24579   0.24844   0.25202   0.25272   0.25492
 Alpha virt. eigenvalues --    0.25554   0.26077   0.26577   0.26947   0.27299
 Alpha virt. eigenvalues --    0.27464   0.27726   0.27881   0.28220   0.28582
 Alpha virt. eigenvalues --    0.28727   0.28962   0.29090   0.29353   0.29570
 Alpha virt. eigenvalues --    0.29646   0.29945   0.30388   0.31106   0.31242
 Alpha virt. eigenvalues --    0.31611   0.32061   0.32266   0.32789   0.33380
 Alpha virt. eigenvalues --    0.33485   0.33910   0.34086   0.34265   0.34356
 Alpha virt. eigenvalues --    0.34903   0.34973   0.35130   0.35386   0.35836
 Alpha virt. eigenvalues --    0.35957   0.36336   0.36641   0.36737   0.37155
 Alpha virt. eigenvalues --    0.37372   0.37533   0.37730   0.37944   0.38353
 Alpha virt. eigenvalues --    0.38492   0.38544   0.38872   0.39317   0.39594
 Alpha virt. eigenvalues --    0.39880   0.40538   0.40652   0.41376   0.41728
 Alpha virt. eigenvalues --    0.41921   0.42195   0.42278   0.42837   0.43436
 Alpha virt. eigenvalues --    0.43704   0.43773   0.44446   0.44699   0.45009
 Alpha virt. eigenvalues --    0.45295   0.46132   0.47620   0.47887   0.47936
 Alpha virt. eigenvalues --    0.48304   0.49103   0.52999   0.53469   0.57113
 Alpha virt. eigenvalues --    0.58261   0.58574   0.58957   0.59352   0.60757
 Alpha virt. eigenvalues --    0.62094   0.62449   0.62660   0.62883   0.63024
 Alpha virt. eigenvalues --    0.63506   0.63801   0.63889   0.64050   0.64186
 Alpha virt. eigenvalues --    0.64546   0.65099   0.65407   0.65571   0.65846
 Alpha virt. eigenvalues --    0.66063   0.66357   0.67137   0.67360   0.67447
 Alpha virt. eigenvalues --    0.68278   0.69122   0.69654   0.70349   0.70573
 Alpha virt. eigenvalues --    0.70766   0.71155   0.71695   0.72163   0.72484
 Alpha virt. eigenvalues --    0.72867   0.73376   0.73651   0.74069   0.74202
 Alpha virt. eigenvalues --    0.75386   0.75951   0.76693   0.77036   0.77710
 Alpha virt. eigenvalues --    0.78742   0.79246   0.79952   0.80442   0.80692
 Alpha virt. eigenvalues --    0.80972   0.81264   0.81444   0.82005   0.82259
 Alpha virt. eigenvalues --    0.82675   0.82736   0.83317   0.83840   0.84014
 Alpha virt. eigenvalues --    0.84521   0.84771   0.84941   0.85293   0.85631
 Alpha virt. eigenvalues --    0.86114   0.87059   0.87722   0.88047   0.88459
 Alpha virt. eigenvalues --    0.89302   0.89928   0.91475   0.91719   0.91963
 Alpha virt. eigenvalues --    0.92171   0.92296   0.93347   0.93736   0.93814
 Alpha virt. eigenvalues --    0.94152   0.94478   0.94987   0.96050   0.96522
 Alpha virt. eigenvalues --    0.96778   0.96983   0.97177   0.98203   0.99293
 Alpha virt. eigenvalues --    0.99822   1.00192   1.00824   1.01441   1.01949
 Alpha virt. eigenvalues --    1.02288   1.03086   1.03569   1.04095   1.04320
 Alpha virt. eigenvalues --    1.05219   1.05994   1.06903   1.07280   1.07448
 Alpha virt. eigenvalues --    1.07744   1.08554   1.08792   1.09661   1.11795
 Alpha virt. eigenvalues --    1.12033   1.12554   1.12951   1.13651   1.13746
 Alpha virt. eigenvalues --    1.14694   1.14713   1.16215   1.16946   1.17091
 Alpha virt. eigenvalues --    1.18179   1.18265   1.18843   1.19344   1.21315
 Alpha virt. eigenvalues --    1.21849   1.22127   1.22882   1.23780   1.23976
 Alpha virt. eigenvalues --    1.24405   1.24958   1.25249   1.29093   1.29494
 Alpha virt. eigenvalues --    1.38148   1.39368   1.40935   1.41537   1.41731
 Alpha virt. eigenvalues --    1.45791   1.47441   1.48086   1.52255   1.55241
 Alpha virt. eigenvalues --    1.56341   1.57874   1.58389   1.59358   1.59526
 Alpha virt. eigenvalues --    1.59833   1.60187   1.61095   1.61318   1.61662
 Alpha virt. eigenvalues --    1.61996   1.62339   1.62381   1.63295   1.63679
 Alpha virt. eigenvalues --    1.64385   1.65585   1.65671   1.65999   1.66431
 Alpha virt. eigenvalues --    1.67063   1.67310   1.67922   1.68674   1.68890
 Alpha virt. eigenvalues --    1.69759   1.73014   1.73582   1.74034   1.74128
 Alpha virt. eigenvalues --    1.74274   1.75108   1.75515   1.75747   1.76583
 Alpha virt. eigenvalues --    1.77338   1.78410   1.81755   1.82120   1.82886
 Alpha virt. eigenvalues --    1.82901   1.83196   1.84114   1.84621   1.84989
 Alpha virt. eigenvalues --    1.85534   1.86339   1.86512   1.86856   1.87742
 Alpha virt. eigenvalues --    1.88296   1.89422   1.92445   1.92679   1.93083
 Alpha virt. eigenvalues --    1.93756   1.94197   1.97173   1.99648   2.00137
 Alpha virt. eigenvalues --    2.01392   2.01747   2.02197   2.02507   2.02960
 Alpha virt. eigenvalues --    2.03037   2.03465   2.04104   2.04366   2.04615
 Alpha virt. eigenvalues --    2.04654   2.04943   2.05542   2.05770   2.06150
 Alpha virt. eigenvalues --    2.06700   2.07078   2.07683   2.07923   2.08793
 Alpha virt. eigenvalues --    2.10758   2.11536   2.12024   2.12178   2.13146
 Alpha virt. eigenvalues --    2.13362   2.14443   2.15015   2.16806   2.17294
 Alpha virt. eigenvalues --    2.18171   2.18812   2.19750   2.20460   2.21445
 Alpha virt. eigenvalues --    2.23414   2.27794   2.29928   2.33747   2.35239
 Alpha virt. eigenvalues --    2.36113   2.36697   2.38054   2.39701   2.43229
 Alpha virt. eigenvalues --    2.44388   2.44780   2.46496   2.48881   2.49980
 Alpha virt. eigenvalues --    2.51996   2.53125   2.53359   2.53879   2.54956
 Alpha virt. eigenvalues --    2.55464   2.56305   2.56508   2.56739   2.57469
 Alpha virt. eigenvalues --    2.58486   2.58735   2.62335   2.62886   2.64559
 Alpha virt. eigenvalues --    2.72779   2.73185   2.73676   2.75731   2.75825
 Alpha virt. eigenvalues --    2.76088   2.76331   2.78224   2.79193   2.79781
 Alpha virt. eigenvalues --    2.80086   2.80387   2.80481   2.80762   2.80900
 Alpha virt. eigenvalues --    2.81698   2.82210   2.82941   2.83027   2.83266
 Alpha virt. eigenvalues --    2.83483   2.84099   2.84942   2.86047   2.86924
 Alpha virt. eigenvalues --    2.87300   2.87688   2.87693   2.90536   2.92275
 Alpha virt. eigenvalues --    2.92301   2.92561   2.92819   2.93079   2.93177
 Alpha virt. eigenvalues --    2.93751   2.94202   2.94644   2.95089   2.97869
 Alpha virt. eigenvalues --    2.99543   2.99803   3.00949   3.01463   3.01685
 Alpha virt. eigenvalues --    3.04197   3.04634   3.05002   3.05213   3.05456
 Alpha virt. eigenvalues --    3.06228   3.06715   3.07644   3.08295   3.11507
 Alpha virt. eigenvalues --    3.11923   3.15848   3.18853   3.19620   3.19848
 Alpha virt. eigenvalues --    3.21422   3.22815   3.25577   3.31354   3.31853
 Alpha virt. eigenvalues --    3.32274   3.33655   3.34769   3.36100   3.37097
 Alpha virt. eigenvalues --    3.46874   3.47347   3.49120   3.49615   3.49682
 Alpha virt. eigenvalues --    3.50018   3.53619   3.53679   3.60514   3.60870
 Alpha virt. eigenvalues --    3.61196   3.63574   3.64815   3.65364   3.66132
 Alpha virt. eigenvalues --    3.73737   3.73901   3.76310   3.76353   3.76702
 Alpha virt. eigenvalues --    3.77364   3.90976   3.92576   3.93988   4.09770
 Alpha virt. eigenvalues --    4.09932   4.10268   4.14513   4.14556   4.14630
 Alpha virt. eigenvalues --    4.24183   4.24339   4.25940   4.26111   4.26539
 Alpha virt. eigenvalues --    4.26928   4.27822   4.28147   4.49276   4.64836
 Alpha virt. eigenvalues --    4.66893   4.93938   4.95402   4.95730   4.98610
 Alpha virt. eigenvalues --   23.68326  23.81588  23.81931  23.88054  24.08380
 Alpha virt. eigenvalues --   24.08446  24.10901  24.10992  24.11289  24.11446
 Alpha virt. eigenvalues --   24.12956  24.13282  24.20296  24.20549  24.20937
 Alpha virt. eigenvalues --   24.24070  24.24324  24.24378  24.24651  24.25109
 Alpha virt. eigenvalues --   24.31299  24.33813  24.33922  24.34998
          Condensed to atoms (all electrons):
               1          2          3          4          5          6
     1  C   19.055213   0.438143   1.657372  -6.581985   0.007681   0.425764
     2  C    0.438143  12.841643   0.160012   1.825896   0.344194  -2.683746
     3  C    1.657372   0.160012  11.726789  -2.344232   0.024189  -1.933808
     4  C   -6.581985   1.825896  -2.344232  19.712827  -0.151940  -0.748465
     5  H    0.007681   0.344194   0.024189  -0.151940   0.502181   0.023849
     6  C    0.425764  -2.683746  -1.933808  -0.748465   0.023849  14.233972
     7  C   -5.311873  -2.430442   1.498952  -7.403842   0.130448  -0.085178
     8  H   -0.023684   0.107133   0.353277   0.096142  -0.002934  -0.050365
     9  C   -3.122596  -0.217038  -0.535823   1.753434   0.060141  -1.447206
    10  C   -0.354468  -2.000501  -1.600648   0.562507  -0.025417   1.012949
    11  C   -1.351716   2.137202  -1.997689   1.597679  -0.103725  -1.082127
    12  C   -0.362937  -1.816353   1.323244  -0.889770   0.048357  -0.304465
    13  C   -0.286273  -1.515403  -2.048322  -0.767220  -0.024619   0.862878
    14  H    0.108096   0.057512   0.052073  -0.035463  -0.002053  -0.013888
    15  C    1.936024   2.142475   0.172522  -0.983421  -0.058084   0.051538
    16  C   -1.335215  -2.380547  -0.116012  -1.329901   0.020295   0.099306
    17  C    0.149710   0.108325   0.129984   0.180372  -0.005269  -1.464485
    18  H    0.041192  -0.015744  -0.018356  -0.039045   0.002805   0.019325
    19  C   -0.247158   0.046698   0.789929  -0.118331   0.013333  -1.816392
    20  H    0.046781  -0.061892  -0.019186  -0.017057  -0.001567   0.027519
    21  C    1.439320  -0.014434   2.638953  -0.832865  -0.012614   0.325076
    22  C   -1.285597   0.046289  -3.174501   1.664973   0.011075  -0.123956
    23  C    0.210489   0.320977   0.086292   0.000018  -0.017237  -0.084903
    24  H   -0.064139  -0.048965  -0.018351   0.059419  -0.001147   0.010636
    25  C   -0.127818   0.086313   0.058577  -0.031093   0.020234  -0.032600
    26  H   -0.000100  -0.020943  -0.019811   0.086650  -0.004307   0.010640
    27  C   -0.229257   0.046409  -0.273026   0.031366   0.000093  -0.349035
    28  H    0.003878  -0.002959   0.007876   0.001463  -0.001051   0.030674
    29  H    0.001111   0.006255   0.006352   0.003166   0.000272   0.031302
    30  C    0.335577   0.067740   0.598684  -0.066626  -0.001616   0.013053
    31  H   -0.022902  -0.026010  -0.006302  -0.009709  -0.000055   0.031814
    32  C   -0.062396   0.075768   0.111715   0.192399   0.002624  -0.067595
    33  H    0.001213  -0.011764  -0.020567  -0.082099   0.000413   0.010181
    34  C    0.011217  -0.096651  -0.021556  -0.274864  -0.006757   0.041996
    35  H    0.003645   0.007152   0.000705   0.001730  -0.000451  -0.003298
    36  H    0.001632   0.006204   0.000073   0.001926   0.000839  -0.000857
    37  H   -0.006843  -0.002098  -0.007637   0.001276   0.000238   0.018026
    38  C   -0.072570  -0.028100  -0.182162   0.008487   0.000160   0.031332
    39  H    0.006074   0.001281   0.002500   0.003961  -0.000050  -0.002017
    40  H    0.001685   0.000263   0.004990   0.005187  -0.000045  -0.000559
    41  H    0.000840  -0.005058  -0.000753  -0.006928  -0.000238   0.001091
    42  H   -0.000076  -0.000816  -0.004545   0.000692  -0.000004   0.000757
               7          8          9         10         11         12
     1  C   -5.311873  -0.023684  -3.122596  -0.354468  -1.351716  -0.362937
     2  C   -2.430442   0.107133  -0.217038  -2.000501   2.137202  -1.816353
     3  C    1.498952   0.353277  -0.535823  -1.600648  -1.997689   1.323244
     4  C   -7.403842   0.096142   1.753434   0.562507   1.597679  -0.889770
     5  H    0.130448  -0.002934   0.060141  -0.025417  -0.103725   0.048357
     6  C   -0.085178  -0.050365  -1.447206   1.012949  -1.082127  -0.304465
     7  C   19.475257  -0.100092   0.414979  -0.518477  -0.874766   0.828547
     8  H   -0.100092   0.497698   0.091258  -0.035499   0.062307  -0.125325
     9  C    0.414979   0.091258  13.672650  -2.134509   0.193689  -0.347518
    10  C   -0.518477  -0.035499  -2.134509  12.934650   0.095477   0.142698
    11  C   -0.874766   0.062307   0.193689   0.095477  16.586834  -8.117557
    12  C    0.828547  -0.125325  -0.347518   0.142698  -8.117557  16.328901
    13  C    0.726686  -0.066921  -2.289012   1.263001  -0.102223   0.328519
    14  H   -0.074932  -0.002139   0.275120   0.019201  -0.001642   0.000042
    15  C   -1.004537  -0.007990  -2.642528  -0.700739  -0.044307  -0.035234
    16  C    1.719750   0.005440   2.697522  -0.449374   0.009681   0.043039
    17  C   -0.114421   0.012306   0.052725  -0.096276  -0.820063   0.326458
    18  H    0.008703  -0.001439  -0.004562   0.009662   0.388712  -0.007963
    19  C    0.476782   0.029975   0.092459  -0.032167   0.378464  -1.539279
    20  H   -0.044079  -0.008143  -0.030912   0.015766  -0.051118   0.551146
    21  C   -0.519765  -0.053247  -2.943535   0.147695   0.209224  -0.294603
    22  C   -1.544640   0.026491   3.497822  -0.140266  -0.089141   0.140231
    23  C   -0.126918   0.001671   0.137688  -1.627169  -0.042784   0.005615
    24  H    0.007294  -0.000334  -0.029442  -0.000980   0.019615  -0.001090
    25  C    0.242195   0.001825   0.352679  -1.634085   0.027373  -0.018192
    26  H   -0.090693   0.000272  -0.050171   0.027499  -0.001575   0.002566
    27  C   -0.079082  -0.006485  -0.036959   0.044178  -0.369729   0.046261
    28  H    0.000915   0.000298  -0.000024  -0.002870  -0.093012   0.006448
    29  H    0.007685   0.000492   0.002065  -0.001113   0.023457  -0.122633
    30  C   -0.236844   0.034235   0.109978  -0.040217   0.046572  -0.090900
    31  H    0.010004  -0.010526  -0.064179   0.015392   0.003870   0.003458
    32  C    0.138490   0.011684   0.157948  -0.092364  -0.005193   0.009770
    33  H    0.086910  -0.003192  -0.023204  -0.010083   0.002558  -0.002235
    34  C    0.020368  -0.000549  -0.079998  -0.167216  -0.016440   0.007907
    35  H    0.000418   0.000011   0.006512   0.020950   0.001356  -0.000602
    36  H    0.005237  -0.000016   0.005880   0.012955   0.000218  -0.000193
    37  H   -0.000174  -0.000356  -0.000909   0.001215  -0.003488   0.022745
    38  C   -0.219590  -0.005070   0.015601   0.035427   0.000506  -0.001899
    39  H    0.001947   0.000736   0.008655  -0.001117   0.000269  -0.000473
    40  H    0.000482   0.000543   0.002037  -0.002115   0.000072  -0.000110
    41  H    0.000908  -0.000013  -0.005740   0.021133  -0.000389   0.000204
    42  H   -0.005642  -0.000357  -0.003599   0.001090   0.000017  -0.000007
              13         14         15         16         17         18
     1  C   -0.286273   0.108096   1.936024  -1.335215   0.149710   0.041192
     2  C   -1.515403   0.057512   2.142475  -2.380547   0.108325  -0.015744
     3  C   -2.048322   0.052073   0.172522  -0.116012   0.129984  -0.018356
     4  C   -0.767220  -0.035463  -0.983421  -1.329901   0.180372  -0.039045
     5  H   -0.024619  -0.002053  -0.058084   0.020295  -0.005269   0.002805
     6  C    0.862878  -0.013888   0.051538   0.099306  -1.464485   0.019325
     7  C    0.726686  -0.074932  -1.004537   1.719750  -0.114421   0.008703
     8  H   -0.066921  -0.002139  -0.007990   0.005440   0.012306  -0.001439
     9  C   -2.289012   0.275120  -2.642528   2.697522   0.052725  -0.004562
    10  C    1.263001   0.019201  -0.700739  -0.449374  -0.096276   0.009662
    11  C   -0.102223  -0.001642  -0.044307   0.009681  -0.820063   0.388712
    12  C    0.328519   0.000042  -0.035234   0.043039   0.326458  -0.007963
    13  C   14.379217   0.060762   0.261258  -0.321143  -0.075049   0.011697
    14  H    0.060762   0.501433   0.065622  -0.120185   0.003084  -0.000233
    15  C    0.261258   0.065622  13.693080  -5.904619  -0.012208   0.000275
    16  C   -0.321143  -0.120185  -5.904619  13.819901  -0.002407   0.002962
    17  C   -0.075049   0.003084  -0.012208  -0.002407   7.777217  -0.078483
    18  H    0.011697  -0.000233   0.000275   0.002962  -0.078483   0.478951
    19  C    0.048786  -0.002651   0.027296  -0.010418  -0.619259   0.000428
    20  H    0.028687   0.000430  -0.002753   0.002708   0.007218  -0.000444
    21  C   -0.994212   0.093359   0.152771  -0.200947   0.019828  -0.003959
    22  C   -1.016567  -0.171783  -0.190733   0.352014  -0.008150   0.003273
    23  C   -0.041943   0.006736  -0.315968  -0.023350  -0.024451   0.000908
    24  H    0.014068  -0.002570   0.463316  -0.025973  -0.004258  -0.003535
    25  C   -0.077025  -0.016717  -0.254507  -0.089726   0.006063   0.000067
    26  H   -0.001577  -0.001619  -0.011716   0.425725  -0.000643   0.000067
    27  C    0.025129   0.000173  -0.021718   0.007325   0.477262   0.003658
    28  H   -0.000682  -0.000009   0.001777  -0.000450   0.416309  -0.009786
    29  H   -0.001365  -0.000061   0.000451  -0.000157   0.003740  -0.000118
    30  C   -2.009468   0.011485  -0.011662   0.031358   0.000785  -0.000531
    31  H    0.000298  -0.001442   0.005937  -0.006062  -0.001884   0.000101
    32  C   -1.575672  -0.008576   0.000531  -0.017767   0.001586  -0.000137
    33  H   -0.000400  -0.001924  -0.008205   0.027452  -0.000145   0.000166
    34  C    0.038652   0.001561  -0.180665  -0.471627  -0.004300  -0.000390
    35  H   -0.001064   0.000318  -0.089350   0.008169   0.000472   0.000304
    36  H   -0.003247  -0.001012  -0.001465  -0.078255   0.000023   0.000018
    37  H    0.000699  -0.000003  -0.000574   0.000192  -0.063634   0.001141
    38  C   -0.162229  -0.003290   0.005716  -0.015794  -0.000603   0.000023
    39  H    0.017109   0.000255  -0.000276   0.000597   0.000091   0.000014
    40  H    0.010435  -0.000776  -0.000217   0.000965   0.000007  -0.000003
    41  H    0.001089   0.000090   0.011956  -0.005138  -0.000112  -0.000013
    42  H    0.025826   0.000212   0.000179  -0.000536  -0.000012   0.000002
              19         20         21         22         23         24
     1  C   -0.247158   0.046781   1.439320  -1.285597   0.210489  -0.064139
     2  C    0.046698  -0.061892  -0.014434   0.046289   0.320977  -0.048965
     3  C    0.789929  -0.019186   2.638953  -3.174501   0.086292  -0.018351
     4  C   -0.118331  -0.017057  -0.832865   1.664973   0.000018   0.059419
     5  H    0.013333  -0.001567  -0.012614   0.011075  -0.017237  -0.001147
     6  C   -1.816392   0.027519   0.325076  -0.123956  -0.084903   0.010636
     7  C    0.476782  -0.044079  -0.519765  -1.544640  -0.126918   0.007294
     8  H    0.029975  -0.008143  -0.053247   0.026491   0.001671  -0.000334
     9  C    0.092459  -0.030912  -2.943535   3.497822   0.137688  -0.029442
    10  C   -0.032167   0.015766   0.147695  -0.140266  -1.627169  -0.000980
    11  C    0.378464  -0.051118   0.209224  -0.089141  -0.042784   0.019615
    12  C   -1.539279   0.551146  -0.294603   0.140231   0.005615  -0.001090
    13  C    0.048786   0.028687  -0.994212  -1.016567  -0.041943   0.014068
    14  H   -0.002651   0.000430   0.093359  -0.171783   0.006736  -0.002570
    15  C    0.027296  -0.002753   0.152771  -0.190733  -0.315968   0.463316
    16  C   -0.010418   0.002708  -0.200947   0.352014  -0.023350  -0.025973
    17  C   -0.619259   0.007218   0.019828  -0.008150  -0.024451  -0.004258
    18  H    0.000428  -0.000444  -0.003959   0.003273   0.000908  -0.003535
    19  C    8.647635  -0.165172  -0.121727   0.062687   0.009260   0.000732
    20  H   -0.165172   0.479998   0.006600  -0.003977  -0.001251   0.000137
    21  C   -0.121727   0.006600  15.504473  -8.217830  -0.015506   0.005608
    22  C    0.062687  -0.003977  -8.217830  17.346611   0.032728  -0.005545
    23  C    0.009260  -0.001251  -0.015506   0.032728   7.739883  -0.068243
    24  H    0.000732   0.000137   0.005608  -0.005545  -0.068243   0.500546
    25  C   -0.001637  -0.000346   0.008327  -0.030374  -0.557387  -0.014275
    26  H    0.000104   0.000174  -0.006991   0.029842  -0.011956   0.000590
    27  C    0.165735   0.025379   0.004348  -0.003508  -0.005750   0.000596
    28  H    0.008374  -0.000047   0.000122  -0.000001   0.000294   0.000186
    29  H    0.443668  -0.012090  -0.000871   0.000692   0.000072   0.000022
    30  C   -0.005250  -0.005533  -0.286011  -0.148405  -0.001050  -0.000217
    31  H   -0.005389   0.001841   0.520993  -0.045296  -0.000197   0.000341
    32  C   -0.001111  -0.000695   0.255030  -0.568996   0.005332  -0.000776
    33  H   -0.000286   0.000276  -0.030599   0.430899   0.000955  -0.000027
    34  C   -0.000025   0.000275   0.006216  -0.018759   0.408928   0.026192
    35  H   -0.000028  -0.000008  -0.000283   0.000531   0.421291  -0.013318
    36  H    0.000021  -0.000013  -0.000510   0.001938   0.013604  -0.000593
    37  H   -0.081253   0.001165   0.000067  -0.000027  -0.000134  -0.000004
    38  C   -0.000252   0.000546  -0.377082  -0.237561   0.000080   0.000181
    39  H    0.000088  -0.000100  -0.098435   0.016617   0.000009  -0.000015
    40  H   -0.000026  -0.000019   0.003332  -0.075282  -0.000018   0.000001
    41  H    0.000003   0.000006   0.000156  -0.000472  -0.076971   0.002167
    42  H   -0.000008   0.000041   0.014458  -0.012035   0.000004   0.000004
              25         26         27         28         29         30
     1  C   -0.127818  -0.000100  -0.229257   0.003878   0.001111   0.335577
     2  C    0.086313  -0.020943   0.046409  -0.002959   0.006255   0.067740
     3  C    0.058577  -0.019811  -0.273026   0.007876   0.006352   0.598684
     4  C   -0.031093   0.086650   0.031366   0.001463   0.003166  -0.066626
     5  H    0.020234  -0.004307   0.000093  -0.001051   0.000272  -0.001616
     6  C   -0.032600   0.010640  -0.349035   0.030674   0.031302   0.013053
     7  C    0.242195  -0.090693  -0.079082   0.000915   0.007685  -0.236844
     8  H    0.001825   0.000272  -0.006485   0.000298   0.000492   0.034235
     9  C    0.352679  -0.050171  -0.036959  -0.000024   0.002065   0.109978
    10  C   -1.634085   0.027499   0.044178  -0.002870  -0.001113  -0.040217
    11  C    0.027373  -0.001575  -0.369729  -0.093012   0.023457   0.046572
    12  C   -0.018192   0.002566   0.046261   0.006448  -0.122633  -0.090900
    13  C   -0.077025  -0.001577   0.025129  -0.000682  -0.001365  -2.009468
    14  H   -0.016717  -0.001619   0.000173  -0.000009  -0.000061   0.011485
    15  C   -0.254507  -0.011716  -0.021718   0.001777   0.000451  -0.011662
    16  C   -0.089726   0.425725   0.007325  -0.000450  -0.000157   0.031358
    17  C    0.006063  -0.000643   0.477262   0.416309   0.003740   0.000785
    18  H    0.000067   0.000067   0.003658  -0.009786  -0.000118  -0.000531
    19  C   -0.001637   0.000104   0.165735   0.008374   0.443668  -0.005250
    20  H   -0.000346   0.000174   0.025379  -0.000047  -0.012090  -0.005533
    21  C    0.008327  -0.006991   0.004348   0.000122  -0.000871  -0.286011
    22  C   -0.030374   0.029842  -0.003508  -0.000001   0.000692  -0.148405
    23  C   -0.557387  -0.011956  -0.005750   0.000294   0.000072  -0.001050
    24  H   -0.014275   0.000590   0.000596   0.000186   0.000022  -0.000217
    25  C    7.715835  -0.063412  -0.000041   0.000004   0.000014   0.006831
    26  H   -0.063412   0.498312   0.000093   0.000003  -0.000005   0.002008
    27  C   -0.000041   0.000093   6.543474  -0.056030  -0.073561  -0.000666
    28  H    0.000004   0.000003  -0.056030   0.472946   0.000628   0.000017
    29  H    0.000014  -0.000005  -0.073561   0.000628   0.474853   0.000089
    30  C    0.006831   0.002008  -0.000666   0.000017   0.000089   8.027608
    31  H   -0.000951   0.000018   0.001272  -0.000025  -0.000094  -0.100739
    32  C   -0.018294  -0.006082  -0.000453   0.000001   0.000017  -0.531922
    33  H    0.002071  -0.004659   0.000053  -0.000005   0.000007  -0.017682
    34  C    0.476800   0.020522  -0.000074   0.000041  -0.000003   0.000115
    35  H    0.013194  -0.000529   0.000031  -0.000022  -0.000001   0.000014
    36  H    0.423589  -0.012804  -0.000003  -0.000001   0.000000  -0.000071
    37  H    0.000002   0.000003   0.458719  -0.010121  -0.009960  -0.000014
    38  C   -0.004803  -0.000151   0.000149   0.000003   0.000006   0.379866
    39  H    0.000051   0.000046  -0.000028  -0.000001   0.000003   0.432165
    40  H    0.000408   0.000344   0.000000  -0.000000  -0.000001   0.016145
    41  H   -0.067448   0.001926   0.000004   0.000000  -0.000000   0.000003
    42  H   -0.000124  -0.000017   0.000005  -0.000000  -0.000001  -0.080696
              31         32         33         34         35         36
     1  C   -0.022902  -0.062396   0.001213   0.011217   0.003645   0.001632
     2  C   -0.026010   0.075768  -0.011764  -0.096651   0.007152   0.006204
     3  C   -0.006302   0.111715  -0.020567  -0.021556   0.000705   0.000073
     4  C   -0.009709   0.192399  -0.082099  -0.274864   0.001730   0.001926
     5  H   -0.000055   0.002624   0.000413  -0.006757  -0.000451   0.000839
     6  C    0.031814  -0.067595   0.010181   0.041996  -0.003298  -0.000857
     7  C    0.010004   0.138490   0.086910   0.020368   0.000418   0.005237
     8  H   -0.010526   0.011684  -0.003192  -0.000549   0.000011  -0.000016
     9  C   -0.064179   0.157948  -0.023204  -0.079998   0.006512   0.005880
    10  C    0.015392  -0.092364  -0.010083  -0.167216   0.020950   0.012955
    11  C    0.003870  -0.005193   0.002558  -0.016440   0.001356   0.000218
    12  C    0.003458   0.009770  -0.002235   0.007907  -0.000602  -0.000193
    13  C    0.000298  -1.575672  -0.000400   0.038652  -0.001064  -0.003247
    14  H   -0.001442  -0.008576  -0.001924   0.001561   0.000318  -0.001012
    15  C    0.005937   0.000531  -0.008205  -0.180665  -0.089350  -0.001465
    16  C   -0.006062  -0.017767   0.027452  -0.471627   0.008169  -0.078255
    17  C   -0.001884   0.001586  -0.000145  -0.004300   0.000472   0.000023
    18  H    0.000101  -0.000137   0.000166  -0.000390   0.000304   0.000018
    19  C   -0.005389  -0.001111  -0.000286  -0.000025  -0.000028   0.000021
    20  H    0.001841  -0.000695   0.000276   0.000275  -0.000008  -0.000013
    21  C    0.520993   0.255030  -0.030599   0.006216  -0.000283  -0.000510
    22  C   -0.045296  -0.568996   0.430899  -0.018759   0.000531   0.001938
    23  C   -0.000197   0.005332   0.000955   0.408928   0.421291   0.013604
    24  H    0.000341  -0.000776  -0.000027   0.026192  -0.013318  -0.000593
    25  C   -0.000951  -0.018294   0.002071   0.476800   0.013194   0.423589
    26  H    0.000018  -0.006082  -0.004659   0.020522  -0.000529  -0.012804
    27  C    0.001272  -0.000453   0.000053  -0.000074   0.000031  -0.000003
    28  H   -0.000025   0.000001  -0.000005   0.000041  -0.000022  -0.000001
    29  H   -0.000094   0.000017   0.000007  -0.000003  -0.000001   0.000000
    30  C   -0.100739  -0.531922  -0.017682   0.000115   0.000014  -0.000071
    31  H    0.482388  -0.005182   0.000630   0.000195  -0.000013  -0.000003
    32  C   -0.005182   7.607189  -0.036257  -0.004712   0.000039   0.000726
    33  H    0.000630  -0.036257   0.496350  -0.000767   0.000049   0.000499
    34  C    0.000195  -0.004712  -0.000767   6.377276  -0.067907  -0.064415
    35  H   -0.000013   0.000039   0.000049  -0.067907   0.476478   0.001177
    36  H   -0.000003   0.000726   0.000499  -0.064415   0.001177   0.476930
    37  H    0.000051  -0.000010   0.000003   0.000002  -0.000000  -0.000000
    38  C    0.022585   0.417335   0.012509  -0.000147  -0.000002   0.000064
    39  H   -0.010908   0.009568  -0.000484   0.000000   0.000000  -0.000002
    40  H   -0.000278   0.410737  -0.009832   0.000050  -0.000001  -0.000035
    41  H    0.000005  -0.000131  -0.000048   0.467521  -0.012217  -0.011854
    42  H    0.001150  -0.059139   0.001149   0.000000  -0.000000   0.000000
              37         38         39         40         41         42
     1  C   -0.006843  -0.072570   0.006074   0.001685   0.000840  -0.000076
     2  C   -0.002098  -0.028100   0.001281   0.000263  -0.005058  -0.000816
     3  C   -0.007637  -0.182162   0.002500   0.004990  -0.000753  -0.004545
     4  C    0.001276   0.008487   0.003961   0.005187  -0.006928   0.000692
     5  H    0.000238   0.000160  -0.000050  -0.000045  -0.000238  -0.000004
     6  C    0.018026   0.031332  -0.002017  -0.000559   0.001091   0.000757
     7  C   -0.000174  -0.219590   0.001947   0.000482   0.000908  -0.005642
     8  H   -0.000356  -0.005070   0.000736   0.000543  -0.000013  -0.000357
     9  C   -0.000909   0.015601   0.008655   0.002037  -0.005740  -0.003599
    10  C    0.001215   0.035427  -0.001117  -0.002115   0.021133   0.001090
    11  C   -0.003488   0.000506   0.000269   0.000072  -0.000389   0.000017
    12  C    0.022745  -0.001899  -0.000473  -0.000110   0.000204  -0.000007
    13  C    0.000699  -0.162229   0.017109   0.010435   0.001089   0.025826
    14  H   -0.000003  -0.003290   0.000255  -0.000776   0.000090   0.000212
    15  C   -0.000574   0.005716  -0.000276  -0.000217   0.011956   0.000179
    16  C    0.000192  -0.015794   0.000597   0.000965  -0.005138  -0.000536
    17  C   -0.063634  -0.000603   0.000091   0.000007  -0.000112  -0.000012
    18  H    0.001141   0.000023   0.000014  -0.000003  -0.000013   0.000002
    19  C   -0.081253  -0.000252   0.000088  -0.000026   0.000003  -0.000008
    20  H    0.001165   0.000546  -0.000100  -0.000019   0.000006   0.000041
    21  C    0.000067  -0.377082  -0.098435   0.003332   0.000156   0.014458
    22  C   -0.000027  -0.237561   0.016617  -0.075282  -0.000472  -0.012035
    23  C   -0.000134   0.000080   0.000009  -0.000018  -0.076971   0.000004
    24  H   -0.000004   0.000181  -0.000015   0.000001   0.002167   0.000004
    25  C    0.000002  -0.004803   0.000051   0.000408  -0.067448  -0.000124
    26  H    0.000003  -0.000151   0.000046   0.000344   0.001926  -0.000017
    27  C    0.458719   0.000149  -0.000028   0.000000   0.000004   0.000005
    28  H   -0.010121   0.000003  -0.000001  -0.000000   0.000000  -0.000000
    29  H   -0.009960   0.000006   0.000003  -0.000001  -0.000000  -0.000001
    30  C   -0.000014   0.379866   0.432165   0.016145   0.000003  -0.080696
    31  H    0.000051   0.022585  -0.010908  -0.000278   0.000005   0.001150
    32  C   -0.000010   0.417335   0.009568   0.410737  -0.000131  -0.059139
    33  H    0.000003   0.012509  -0.000484  -0.009832  -0.000048   0.001149
    34  C    0.000002  -0.000147   0.000000   0.000050   0.467521   0.000000
    35  H   -0.000000  -0.000002   0.000000  -0.000001  -0.012217  -0.000000
    36  H   -0.000000   0.000064  -0.000002  -0.000035  -0.011854   0.000000
    37  H    0.485044   0.000006  -0.000001  -0.000000   0.000000   0.000000
    38  C    0.000006   6.454824  -0.072252  -0.056621   0.000001   0.461329
    39  H   -0.000001  -0.072252   0.475247   0.001089  -0.000000  -0.010663
    40  H   -0.000000  -0.056621   0.001089   0.473086   0.000000  -0.010413
    41  H    0.000000   0.000001  -0.000000   0.000000   0.488638   0.000000
    42  H    0.000000   0.461329  -0.010663  -0.010413   0.000000   0.486433
 Mulliken charges:
               1
     1  C    0.966947
     2  C   -1.494421
     3  C   -1.061769
     4  C    0.923288
     5  H    0.207763
     6  C    0.981268
     7  C    0.983030
     8  H    0.170883
     9  C   -1.591377
    10  C    1.284224
    11  C   -0.616468
    12  C   -0.086819
    13  C    1.276843
    14  H    0.205405
    15  C   -0.509248
    16  C   -0.368800
    17  C   -0.277452
    18  H    0.210289
    19  C   -0.474637
    20  H    0.229713
    21  C   -0.329931
    22  C   -0.551311
    23  C   -0.359646
    24  H    0.192150
    25  C   -0.401597
    26  H    0.202356
    27  C   -0.376308
    28  H    0.224839
    29  H    0.215614
    30  C   -0.478208
    31  H    0.215800
    32  C   -0.345025
    33  H    0.190123
    34  C   -0.428011
    35  H    0.224549
    36  H    0.221794
    37  H    0.196647
    38  C   -0.406559
    39  H    0.218450
    40  H    0.224494
    41  H    0.195780
    42  H    0.195341
 Sum of Mulliken charges =  -0.00000
 Mulliken charges with hydrogens summed into heavy atoms:
               1
     1  C    0.966947
     2  C   -1.286659
     3  C   -0.890887
     4  C    0.923288
     6  C    0.981268
     7  C    0.983030
     9  C   -1.385972
    10  C    1.284224
    11  C   -0.406179
    12  C    0.142893
    13  C    1.276843
    15  C   -0.317098
    16  C   -0.166444
    17  C   -0.052613
    19  C   -0.259023
    21  C   -0.114131
    22  C   -0.361189
    23  C   -0.135097
    25  C   -0.179804
    27  C   -0.179661
    30  C   -0.259758
    32  C   -0.120531
    34  C   -0.232231
    38  C   -0.211218
 Electronic spatial extent (au):  <R**2>=          10005.8507
 Charge=             -0.0000 electrons
 Dipole moment (field-independent basis, Debye):
    X=             -0.0104    Y=             -0.0079    Z=              0.0003  Tot=              0.0131
 Quadrupole moment (field-independent basis, Debye-Ang):
   XX=           -126.3945   YY=           -127.8903   ZZ=           -140.0102
   XY=             -0.0449   XZ=              6.5945   YZ=             -3.0193
 Traceless Quadrupole moment (field-independent basis, Debye-Ang):
   XX=              5.0372   YY=              3.5414   ZZ=             -8.5785
   XY=             -0.0449   XZ=              6.5945   YZ=             -3.0193
 Octapole moment (field-independent basis, Debye-Ang**2):
  XXX=            -32.9872  YYY=             14.0884  ZZZ=              0.7239  XYY=             40.8919
  XXY=            -10.2872  XXZ=             28.4768  XZZ=             -7.6335  YZZ=             -3.6419
  YYZ=            -29.2512  XYZ=             24.4296
 Hexadecapole moment (field-independent basis, Debye-Ang**3):
 XXXX=          -6260.6260 YYYY=          -6226.5181 ZZZZ=           -573.1056 XXXY=             -2.0026
 XXXZ=            131.6096 YYYX=             -7.8725 YYYZ=             14.1796 ZZZX=             16.5723
 ZZZY=            -14.7320 XXYY=          -2107.2801 XXZZ=          -1211.9904 YYZZ=          -1222.7504
 XXYZ=            -75.4250 YYXZ=             20.3244 ZZXY=              8.9551
 N-N= 1.731806510868D+03 E-N=-5.610060653920D+03  KE= 9.212940702181D+02
 No NMR shielding tensors so no spin-rotation constants.
 Leave Link  601 at Mon Nov 14 15:21:54 2022, MaxMem= 16106127360 cpu:               8.9 elap:               0.3
 (Enter /opt/ap/G16/B01/g16/l9999.exe)
 1\1\GINC-N60\SP\RwB97XD\6-311++G(d,p)\C24H18\ROOT\14-Nov-2022\0\\#P wB
 97XD/6-311++G(d,p) scf=maxcycle=512\\_conf029.gjf nmol_natom 1_42\\0,1
 \C\C,1,1.39412829\C,1,1.39435449,2,118.86443127\C,2,1.39416084,1,121.1
 529487,3,0.03668482,0\H,2,1.08488355,1,119.42236619,3,-179.97409048,0\
 C,1,1.48467131,2,120.55714816,4,179.25839056,0\C,3,1.39437784,1,121.11
 776116,2,-0.05351271,0\H,3,1.08487775,1,119.41869036,2,177.23008049,0\
 C,4,1.39432447,2,118.86473838,1,0.01008406,0\C,4,1.48466627,2,120.5464
 188,1,179.19454736,0\C,6,1.3968498,1,120.7843492,2,55.,0\C,6,1.3968682
 ,1,120.67653841,2,-125.,0\C,7,1.48449863,3,120.56496838,1,-179.9632580
 4,0\H,9,1.0848792,4,119.41824946,2,177.22245984,0\C,10,1.39685361,4,12
 0.76946845,2,-42.52368674,0\C,10,1.39686289,4,120.69448769,2,137.43107
 516,0\C,11,1.38888939,6,120.7380073,1,179.94058542,0\H,11,1.0847641,6,
 119.46912378,1,-1.41050605,0\C,12,1.38882428,6,120.76493111,1,-179.950
 82712,0\H,12,1.08482758,6,119.44182626,1,-1.23602505,0\C,13,1.39682899
 ,7,120.74134419,3,42.89023273,0\C,13,1.39683158,7,120.7379111,3,-137.1
 2494058,0\C,15,1.38888263,10,120.742191,4,179.9460119,0\H,15,1.0847633
 4,10,119.47085903,4,-1.40606944,0\C,16,1.38886088,10,120.76338989,4,-1
 79.95592713,0\H,16,1.08483431,10,119.44215232,4,-1.23439681,0\C,17,1.3
 9007919,11,120.20743432,6,0.00349958,0\H,17,1.0843506,11,119.71318733,
 6,179.5011609,0\H,19,1.08435858,12,119.73823132,6,179.53683762,0\C,21,
 1.38882373,13,120.76699356,7,179.99297883,0\H,21,1.0847938,13,119.4352
 623,7,1.32183327,0\C,22,1.38881869,13,120.76647403,7,-179.97118338,0\H
 ,22,1.08479982,13,119.43203605,7,1.34657928,0\C,23,1.39007007,15,120.2
 0732995,10,0.00573957,0\H,23,1.08434813,15,119.71220819,10,179.5072436
 8,0\H,25,1.08436328,16,119.73539424,10,179.53636455,0\H,27,1.08412515,
 17,120.21790854,11,179.98397203,0\C,30,1.39008059,21,120.18795226,13,-
 0.02169059,0\H,30,1.08435324,21,119.73787119,13,-179.52151214,0\H,32,1
 .0843543,22,119.737043,13,-179.52886928,0\H,34,1.08412314,23,120.22152
 803,15,179.98800213,0\H,38,1.08411439,30,120.21547163,21,-179.98600656
 ,0\\Version=ES64L-G16RevB.01\State=1-A\HF=-925.3111559\RMSD=8.694e-09\
 Dipole=-0.0023848,-0.0000548,-0.0045645\Quadrupole=3.1551829,-5.963545
 1,2.8083622,-5.7443424,0.4420497,-0.0073826\PG=C01 [X(C24H18)]\\@


 YOU CAN WIPE THE SLATE CLEAN, BUT YOU'LL STILL
 HAVE TO EAT A LITTLE CHALK DUST.
 Job cpu time:       0 days  1 hours 18 minutes 30.8 seconds.
 Elapsed time:       0 days  0 hours  2 minutes 28.7 seconds.
 File lengths (MBytes):  RWF=    224 Int=      0 D2E=      0 Chk=     26 Scr=      1
 Normal termination of Gaussian 16 at Mon Nov 14 15:21:54 2022.
