 Entering Gaussian System, Link 0=g16
 Input=_conf035.gjf
 Output=_conf035.log
 Initial command:
 /opt/ap/G16/B01/g16/l1.exe "/tmp2/scr/Gau-24737.inp" -scrdir="/tmp2/scr/"
 Entering Link 1 = /opt/ap/G16/B01/g16/l1.exe PID=     24738.
  
 Copyright (c) 1988-2017, Gaussian, Inc.  All Rights Reserved.
  
 This is part of the Gaussian(R) 16 program.  It is based on
 the Gaussian(R) 09 system (copyright 2009, Gaussian, Inc.),
 the Gaussian(R) 03 system (copyright 2003, Gaussian, Inc.),
 the Gaussian(R) 98 system (copyright 1998, Gaussian, Inc.),
 the Gaussian(R) 94 system (copyright 1995, Gaussian, Inc.),
 the Gaussian 92(TM) system (copyright 1992, Gaussian, Inc.),
 the Gaussian 90(TM) system (copyright 1990, Gaussian, Inc.),
 the Gaussian 88(TM) system (copyright 1988, Gaussian, Inc.),
 the Gaussian 86(TM) system (copyright 1986, Carnegie Mellon
 University), and the Gaussian 82(TM) system (copyright 1983,
 Carnegie Mellon University). Gaussian is a federally registered
 trademark of Gaussian, Inc.
  
 This software contains proprietary and confidential information,
 including trade secrets, belonging to Gaussian, Inc.
  
 This software is provided under written license and may be
 used, copied, transmitted, or stored only in accord with that
 written license.
  
 The following legend is applicable only to US Government
 contracts under FAR:
  
                    RESTRICTED RIGHTS LEGEND
  
 Use, reproduction and disclosure by the US Government is
 subject to restrictions as set forth in subparagraphs (a)
 and (c) of the Commercial Computer Software - Restricted
 Rights clause in FAR 52.227-19.
  
 Gaussian, Inc.
 340 Quinnipiac St., Bldg. 40, Wallingford CT 06492
  
  
 ---------------------------------------------------------------
 Warning -- This program may not be used in any manner that
 competes with the business of Gaussian, Inc. or will provide
 assistance to any competitor of Gaussian, Inc.  The licensee
 of this program is prohibited from giving any competitor of
 Gaussian, Inc. access to this program.  By using this program,
 the user acknowledges that Gaussian, Inc. is engaged in the
 business of creating and licensing software in the field of
 computational chemistry and represents and warrants to the
 licensee that it is not a competitor of Gaussian, Inc. and that
 it will not use this program in any manner prohibited above.
 ---------------------------------------------------------------
  

 Cite this work as:
 Gaussian 16, Revision B.01,
 M. J. Frisch, G. W. Trucks, H. B. Schlegel, G. E. Scuseria, 
 M. A. Robb, J. R. Cheeseman, G. Scalmani, V. Barone, 
 G. A. Petersson, H. Nakatsuji, X. Li, M. Caricato, A. V. Marenich, 
 J. Bloino, B. G. Janesko, R. Gomperts, B. Mennucci, H. P. Hratchian, 
 J. V. Ortiz, A. F. Izmaylov, J. L. Sonnenberg, D. Williams-Young, 
 F. Ding, F. Lipparini, F. Egidi, J. Goings, B. Peng, A. Petrone, 
 T. Henderson, D. Ranasinghe, V. G. Zakrzewski, J. Gao, N. Rega, 
 G. Zheng, W. Liang, M. Hada, M. Ehara, K. Toyota, R. Fukuda, 
 J. Hasegawa, M. Ishida, T. Nakajima, Y. Honda, O. Kitao, H. Nakai, 
 T. Vreven, K. Throssell, J. A. Montgomery, Jr., J. E. Peralta, 
 F. Ogliaro, M. J. Bearpark, J. J. Heyd, E. N. Brothers, K. N. Kudin, 
 V. N. Staroverov, T. A. Keith, R. Kobayashi, J. Normand, 
 K. Raghavachari, A. P. Rendell, J. C. Burant, S. S. Iyengar, 
 J. Tomasi, M. Cossi, J. M. Millam, M. Klene, C. Adamo, R. Cammi, 
 J. W. Ochterski, R. L. Martin, K. Morokuma, O. Farkas, 
 J. B. Foresman, and D. J. Fox, Gaussian, Inc., Wallingford CT, 2016.
 
 ******************************************
 Gaussian 16:  ES64L-G16RevB.01 20-Dec-2017
                14-Nov-2022 
 ******************************************
 %nprocshared=32
 Will use up to   32 processors via shared memory.
 %mem=120GB
 %chk=_conf035.chk
 ----------------------------------------
 #P wB97XD/6-311++G(d,p) scf=maxcycle=512
 ----------------------------------------
 1/38=1,172=1/1;
 2/12=2,17=6,18=5,40=1/2;
 3/5=4,6=6,7=1111,11=2,25=1,30=1,74=-58/1,2,3;
 4//1;
 5/5=2,7=512,38=5/2;
 6/7=2,8=2,9=2,10=2,28=1/1;
 99/5=1,9=1/99;
 Leave Link    1 at Mon Nov 14 15:22:04 2022, MaxMem= 16106127360 cpu:               1.5 elap:               0.1
 (Enter /opt/ap/G16/B01/g16/l101.exe)
 ----------------------------
 _conf035.gjf nmol_natom 1_42
 ----------------------------
 Symbolic Z-matrix:
 Charge =  0 Multiplicity = 1
 C
 C                    1     1.39413 
 C                    1     1.39435  2     118.86443 
 C                    2     1.39416  1     121.15295  3     0.03668  0
 H                    2     1.08488  1     119.42237  3    -179.97409  0
 C                    1     1.48467  2     120.55715  4     179.25839  0
 C                    3     1.39438  1     121.11776  2    -0.05351  0
 H                    3     1.08488  1     119.41869  2     177.23008  0
 C                    4     1.39432  2     118.86474  1     0.01008  0
 C                    4     1.48467  2     120.54642  1     179.19455  0
 C                    6     1.39685  1     120.78435  2     85.      0
 C                    6     1.39687  1     120.67654  2    -95.      0
 C                    7     1.4845   3     120.56497  1    -179.96326  0
 H                    9     1.08488  4     119.41825  2     177.22246  0
 C                    10    1.39685  4     120.76947  2    -42.52369  0
 C                    10    1.39686  4     120.69449  2     137.43108  0
 C                    11    1.38889  6     120.73801  1     179.94059  0
 H                    11    1.08476  6     119.46912  1    -1.41051  0
 C                    12    1.38882  6     120.76493  1    -179.95083  0
 H                    12    1.08483  6     119.44183  1    -1.23603  0
 C                    13    1.39683  7     120.74134  3     42.89023  0
 C                    13    1.39683  7     120.73791  3    -137.12494  0
 C                    15    1.38888  10    120.74219  4     179.94601  0
 H                    15    1.08476  10    119.47086  4    -1.40607  0
 C                    16    1.38886  10    120.76339  4    -179.95593  0
 H                    16    1.08483  10    119.44215  4    -1.2344   0
 C                    17    1.39008  11    120.20743  6     0.0035   0
 H                    17    1.08435  11    119.71319  6     179.50116  0
 H                    19    1.08436  12    119.73823  6     179.53684  0
 C                    21    1.38882  13    120.76699  7     179.99298  0
 H                    21    1.08479  13    119.43526  7     1.32183  0
 C                    22    1.38882  13    120.76647  7    -179.97118  0
 H                    22    1.0848   13    119.43204  7     1.34658  0
 C                    23    1.39007  15    120.20733  10    0.00574  0
 H                    23    1.08435  15    119.71221  10    179.50724  0
 H                    25    1.08436  16    119.73539  10    179.53636  0
 H                    27    1.08413  17    120.21791  11    179.98397  0
 C                    30    1.39008  21    120.18795  13   -0.02169  0
 H                    30    1.08435  21    119.73787  13   -179.52151  0
 H                    32    1.08435  22    119.73704  13   -179.52887  0
 H                    34    1.08412  23    120.22153  15    179.988  0
 H                    38    1.08411  30    120.21547  21   -179.98601  0
 
 ITRead=  0  0  0  0  0  0  0  0  0  0  0  0  0  0  0  0  0  0  0  0
 ITRead=  0  0  0  0  0  0  0  0  0  0  0  0  0  0  0  0  0  0  0  0
 ITRead=  0  0
 MicOpt= -1 -1 -1 -1 -1 -1 -1 -1 -1 -1 -1 -1 -1 -1 -1 -1 -1 -1 -1 -1
 MicOpt= -1 -1 -1 -1 -1 -1 -1 -1 -1 -1 -1 -1 -1 -1 -1 -1 -1 -1 -1 -1
 MicOpt= -1 -1
 NAtoms=     42 NQM=       42 NQMF=       0 NMMI=      0 NMMIF=      0
                NMic=       0 NMicF=      0.
                    Isotopes and Nuclear Properties:
 (Nuclear quadrupole moments (NQMom) in fm**2, nuclear magnetic moments (NMagM)
  in nuclear magnetons)

  Atom         1           2           3           4           5           6           7           8           9          10
 IAtWgt=          12          12          12          12           1          12          12           1          12          12
 AtmWgt=  12.0000000  12.0000000  12.0000000  12.0000000   1.0078250  12.0000000  12.0000000   1.0078250  12.0000000  12.0000000
 NucSpn=           0           0           0           0           1           0           0           1           0           0
 AtZEff=  -0.0000000  -0.0000000  -0.0000000  -0.0000000  -0.0000000  -0.0000000  -0.0000000  -0.0000000  -0.0000000  -0.0000000
 NQMom=    0.0000000   0.0000000   0.0000000   0.0000000   0.0000000   0.0000000   0.0000000   0.0000000   0.0000000   0.0000000
 NMagM=    0.0000000   0.0000000   0.0000000   0.0000000   2.7928460   0.0000000   0.0000000   2.7928460   0.0000000   0.0000000
 AtZNuc=   6.0000000   6.0000000   6.0000000   6.0000000   1.0000000   6.0000000   6.0000000   1.0000000   6.0000000   6.0000000

  Atom        11          12          13          14          15          16          17          18          19          20
 IAtWgt=          12          12          12           1          12          12          12           1          12           1
 AtmWgt=  12.0000000  12.0000000  12.0000000   1.0078250  12.0000000  12.0000000  12.0000000   1.0078250  12.0000000   1.0078250
 NucSpn=           0           0           0           1           0           0           0           1           0           1
 AtZEff=  -0.0000000  -0.0000000  -0.0000000  -0.0000000  -0.0000000  -0.0000000  -0.0000000  -0.0000000  -0.0000000  -0.0000000
 NQMom=    0.0000000   0.0000000   0.0000000   0.0000000   0.0000000   0.0000000   0.0000000   0.0000000   0.0000000   0.0000000
 NMagM=    0.0000000   0.0000000   0.0000000   2.7928460   0.0000000   0.0000000   0.0000000   2.7928460   0.0000000   2.7928460
 AtZNuc=   6.0000000   6.0000000   6.0000000   1.0000000   6.0000000   6.0000000   6.0000000   1.0000000   6.0000000   1.0000000

  Atom        21          22          23          24          25          26          27          28          29          30
 IAtWgt=          12          12          12           1          12           1          12           1           1          12
 AtmWgt=  12.0000000  12.0000000  12.0000000   1.0078250  12.0000000   1.0078250  12.0000000   1.0078250   1.0078250  12.0000000
 NucSpn=           0           0           0           1           0           1           0           1           1           0
 AtZEff=  -0.0000000  -0.0000000  -0.0000000  -0.0000000  -0.0000000  -0.0000000  -0.0000000  -0.0000000  -0.0000000  -0.0000000
 NQMom=    0.0000000   0.0000000   0.0000000   0.0000000   0.0000000   0.0000000   0.0000000   0.0000000   0.0000000   0.0000000
 NMagM=    0.0000000   0.0000000   0.0000000   2.7928460   0.0000000   2.7928460   0.0000000   2.7928460   2.7928460   0.0000000
 AtZNuc=   6.0000000   6.0000000   6.0000000   1.0000000   6.0000000   1.0000000   6.0000000   1.0000000   1.0000000   6.0000000

  Atom        31          32          33          34          35          36          37          38          39          40
 IAtWgt=           1          12           1          12           1           1           1          12           1           1
 AtmWgt=   1.0078250  12.0000000   1.0078250  12.0000000   1.0078250   1.0078250   1.0078250  12.0000000   1.0078250   1.0078250
 NucSpn=           1           0           1           0           1           1           1           0           1           1
 AtZEff=  -0.0000000  -0.0000000  -0.0000000  -0.0000000  -0.0000000  -0.0000000  -0.0000000  -0.0000000  -0.0000000  -0.0000000
 NQMom=    0.0000000   0.0000000   0.0000000   0.0000000   0.0000000   0.0000000   0.0000000   0.0000000   0.0000000   0.0000000
 NMagM=    2.7928460   0.0000000   2.7928460   0.0000000   2.7928460   2.7928460   2.7928460   0.0000000   2.7928460   2.7928460
 AtZNuc=   1.0000000   6.0000000   1.0000000   6.0000000   1.0000000   1.0000000   1.0000000   6.0000000   1.0000000   1.0000000

  Atom        41          42
 IAtWgt=           1           1
 AtmWgt=   1.0078250   1.0078250
 NucSpn=           1           1
 AtZEff=  -0.0000000  -0.0000000
 NQMom=    0.0000000   0.0000000
 NMagM=    2.7928460   2.7928460
 AtZNuc=   1.0000000   1.0000000
 Leave Link  101 at Mon Nov 14 15:22:04 2022, MaxMem= 16106127360 cpu:               5.4 elap:               0.2
 (Enter /opt/ap/G16/B01/g16/l202.exe)
                          Input orientation:                          
 ---------------------------------------------------------------------
 Center     Atomic      Atomic             Coordinates (Angstroms)
 Number     Number       Type             X           Y           Z
 ---------------------------------------------------------------------
      1          6           0        0.000000    0.000000    0.000000
      2          6           0        0.000000    0.000000    1.394128
      3          6           0        1.221126    0.000000   -0.673109
      4          6           0        1.193108    0.000764    2.115362
      5          1           0       -0.944957   -0.000427    1.927071
      6          6           0       -1.278366   -0.017366   -0.754803
      7          6           0        2.428476    0.001115    0.024455
      8          1           0        1.232154   -0.045667   -1.756969
      9          6           0        2.400843    0.001752    1.418572
     10          6           0        1.177445    0.018728    3.599837
     11          6           0       -1.963349    1.168906   -1.028202
     12          6           0       -1.822519   -1.221689   -1.207289
     13          6           0        3.721572    0.001921   -0.704680
     14          1           0        3.334061    0.048144    1.969857
     15          6           0        0.290794    0.844275    4.295193
     16          6           0        2.049080   -0.790881    4.331965
     17          6           0       -3.158551    1.151658   -1.735455
     18          1           0       -1.566339    2.110453   -0.664079
     19          6           0       -3.017714   -1.239971   -1.914402
     20          1           0       -1.292621   -2.149717   -1.020678
     21          6           0        3.910862    0.818865   -1.821777
     22          6           0        4.776237   -0.814044   -0.288725
     23          6           0        0.275860    0.859807    5.683909
     24          1           0       -0.377402    1.495584    3.742000
     25          6           0        2.035025   -0.775886    5.720674
     26          1           0        2.729408   -1.453102    3.807101
     27          6           0       -3.689808   -0.052877   -2.181752
     28          1           0       -3.680591    2.081657   -1.931396
     29          1           0       -3.421258   -2.183642   -2.264359
     30          6           0        5.120444    0.820149   -2.504230
     31          1           0        3.109266    1.474569   -2.144691
     32          6           0        5.986440   -0.813321   -0.970068
     33          1           0        4.638168   -1.470412    0.563864
     34          6           0        1.147946    0.049642    6.401818
     35          1           0       -0.413890    1.513063    6.206701
     36          1           0        2.713797   -1.416787    6.272362
     37          1           0       -4.622868   -0.066562   -2.733604
     38          6           0        6.162883    0.003944   -2.080611
     39          1           0        5.251831    1.466740   -3.364741
     40          1           0        6.791448   -1.459089   -0.637249
     41          1           0        1.136620    0.061726    7.485815
     42          1           0        7.107346    0.004761   -2.612865
 ---------------------------------------------------------------------
                    Distance matrix (angstroms):
                    1          2          3          4          5
     1  C    0.000000
     2  C    1.394128   0.000000
     3  C    1.394354   2.400962   0.000000
     4  C    2.428634   1.394161   2.788612   0.000000
     5  H    2.146287   1.084884   3.384206   2.146341   0.000000
     6  C    1.484671   2.500485   2.500887   3.787659   2.702572
     7  C    2.428599   2.788100   1.394378   2.428585   3.872983
     8  H    2.146445   3.383741   1.084878   3.872806   4.279487
     9  C    2.788619   2.400968   2.401430   1.394324   3.384222
    10  C    3.787552   2.500376   4.273210   1.484666   2.702426
    11  C    2.505649   3.329979   3.410764   4.605406   3.337379
    12  C    2.504326   3.403157   3.322898   4.650635   3.476465
    13  C    3.787700   4.272598   2.500646   3.787581   5.357482
    14  H    3.872805   3.383747   3.384092   2.146415   4.279508
    15  C    4.387032   3.035381   5.124680   2.505463   2.801537
    16  C    4.856969   3.668120   5.134371   2.504540   3.920790
    17  C    3.783460   4.593153   4.651502   5.923705   4.431861
    18  H    2.710799   3.338210   3.496291   4.448666   3.399410
    19  C    3.782732   4.646558   4.587603   5.958980   4.537588
    20  H    2.708124   3.481873   3.325810   4.542924   3.664633
    21  C    4.391384   5.129076   3.037212   4.853507   6.189029
    22  C    4.853707   5.129045   3.667320   4.391169   6.189006
    23  C    5.755188   4.383786   6.484171   3.783362   4.042800
    24  H    4.047440   2.809218   4.928007   2.710524   2.419532
    25  C    6.121229   4.843792   6.491910   3.782894   4.886007
    26  H    4.904609   3.922195   4.945574   2.708491   4.375585
    27  C    4.286902   5.138522   5.137711   6.504686   4.941597
    28  H    4.648692   5.379513   5.472058   6.667781   5.167836
    29  H    4.647647   5.464232   5.371415   6.726512   5.335408
    30  C    5.758711   6.487587   4.385239   6.118495   7.556379
    31  H    4.054822   4.936104   2.811579   4.898143   5.932249
    32  C    6.118822   6.487555   4.843334   5.758354   7.556353
    33  H    4.898230   4.935996   3.920254   4.054620   5.932156
    34  C    6.504116   5.137821   7.075480   4.286973   4.940255
    35  H    6.401859   5.061770   7.231488   4.648499   4.570330
    36  H    6.979577   5.759266   7.243957   4.647859   5.854410
    37  H    5.371027   6.197863   6.196962   7.572488   5.937448
    38  C    6.504621   7.074953   5.138292   6.504219   8.159837
    39  H    6.407382   7.237395   5.063871   6.975231   8.279857
    40  H    6.975586   7.237348   5.758361   6.406985   8.279819
    41  H    7.571865   6.197125   8.159595   5.371096   5.936031
    42  H    7.572414   8.159067   6.197601   7.571945   9.243951
                    6          7          8          9         10
     6  C    0.000000
     7  C    3.787910   0.000000
     8  H    2.703303   2.146356   0.000000
     9  C    4.273231   1.394392   3.384102   0.000000
    10  C    4.999520   3.787973   5.357472   2.500981   0.000000
    11  C    1.396850   4.664755   3.495358   5.137618   5.710187
    12  C    1.396868   4.591667   3.319067   5.121401   5.800593
    13  C    5.000226   1.484499   2.703105   2.500505   5.000173
    14  H    5.357476   2.146366   4.279725   1.084879   2.703459
    15  C    5.357906   4.849723   6.189251   3.665665   1.396854
    16  C    6.127433   4.396117   6.188524   3.039714   1.396863
    17  C    2.421445   5.969581   4.551081   6.494385   6.967764
    18  H    2.149133   4.569675   3.697948   4.952029   5.484947
    19  C    2.421728   5.912735   4.417298   6.481617   7.042053
    20  H    2.148909   4.423227   3.368032   4.921426   5.670321
    21  C    5.363376   2.504946   2.815510   3.667109   6.124188
    22  C    6.124553   2.504906   3.912375   3.036921   5.363369
    23  C    6.681472   6.115597   7.556523   4.841994   2.421492
    24  H    4.829285   4.891475   5.933362   3.917716   2.149154
    25  C    7.313393   5.762417   7.555989   4.387097   2.421736
    26  H    6.239756   4.063707   5.931401   2.815959   2.148914
    27  C    2.802231   6.504127   4.940263   7.075405   7.557914
    28  H    3.400141   6.743494   5.356397   7.247906   7.645308
    29  H    3.400515   6.650656   5.146127   7.227503   7.770927
    30  C    6.686306   3.783088   4.053003   4.842972   7.310892
    31  H    4.838282   2.709194   2.446425   3.920191   6.233057
    32  C    7.311449   3.783053   4.879728   4.384797   6.686012
    33  H    6.233426   2.709077   4.360860   2.811302   4.838519
    34  C    7.557031   6.504835   8.159779   5.138559   2.802307
    35  H    7.179977   6.970308   8.280044   5.756123   3.400165
    36  H    8.202243   6.413127   8.279214   5.066504   3.400510
    37  H    3.886356   7.571850   5.935952   8.159519   8.588561
    38  C    7.558466   4.286853   4.941589   5.137824   7.557929
    39  H    7.187337   4.648230   4.585860   5.757987   8.197725
    40  H    8.198432   4.648180   5.844424   5.063385   7.187062
    41  H    8.587561   7.572613   9.243902   6.197846   3.886431
    42  H    8.589123   5.370968   5.937422   6.197069   8.588456
                   11         12         13         14         15
    11  C    0.000000
    12  C    2.401427   0.000000
    13  C    5.812473   5.699718   0.000000
    14  H    6.189266   6.188462   2.702860   0.000000
    15  C    5.790084   6.245928   6.121971   3.911840   0.000000
    16  C    6.976513   6.771869   5.365963   2.816859   2.401387
    17  C    1.388889   2.774296   7.051275   7.556527   6.954221
    18  H    1.084764   3.385835   5.692939   5.933351   5.444863
    19  C    2.774838   1.388824   6.958713   7.555909   7.338214
    20  H    3.385733   1.084828   5.465485   5.931280   6.303149
    21  C    5.937899   6.116626   1.396829   3.911930   7.107943
    22  C    7.064060   6.674843   1.396832   2.815037   6.624314
    23  C    7.082516   7.498295   7.309101   4.879095   1.388883
    24  H    5.037536   5.828156   6.229413   4.360107   1.084763
    25  C    8.081865   7.942044   6.688393   4.054029   2.774755
    26  H    7.230287   6.776260   4.843310   2.448430   3.385708
    27  C    2.409169   2.408832   7.557334   8.159706   7.655123
    28  H    2.144247   3.858608   7.786023   8.280114   7.488219
    29  H    3.859166   2.144462   7.630813   8.279118   8.122521
    30  C    7.244336   7.352271   2.421718   4.878996   8.340159
    31  H    5.203018   5.698336   2.148776   4.360587   7.057844
    32  C    8.193396   7.823227   2.421709   4.052208   7.931644
    33  H    7.285650   6.703681   2.148749   2.446125   6.179018
    34  C    8.132534   8.266708   7.558317   4.941800   2.409154
    35  H    7.406961   8.026852   8.194680   5.843284   2.144229
    36  H    9.047636   8.749938   7.190790   4.587189   3.859086
    37  H    3.392317   3.392036   8.587834   9.243831   8.624250
    38  C    8.276494   8.125979   2.802355   4.940696   8.708529
    39  H    7.589924   7.869478   3.400487   5.843645   9.147346
    40  H    9.149080   8.636072   3.400476   4.585006   8.478973
    41  H    9.128205   9.272201   8.588933   5.937569   3.392325
    42  H    9.281373   9.122627   3.886469   5.936405   9.741223
                   16         17         18         19         20
    16  C    0.000000
    17  C    8.228394   0.000000
    18  H    6.815384   2.145291   0.000000
    19  C    8.055507   2.402446   3.859422   0.000000
    20  H    6.454781   3.858974   4.283822   2.145303   0.000000
    21  C    6.627673   7.077769   5.745276   7.228592   6.044044
    22  C    5.365510   8.301680   6.994415   7.973075   6.257062
    23  C    2.774316   8.180912   6.727166   8.543479   7.514576
    24  H    3.385823   6.152690   4.604907   6.815379   6.067038
    25  C    1.388861   9.288839   7.878189   9.167330   7.642413
    26  H    1.084834   8.495456   7.151491   8.112363   6.322139
    27  C    8.712520   1.390079   3.390052   1.390101   3.389888
    28  H    8.961602   1.084351   2.465154   3.387168   4.943312
    29  H    8.681928   3.387180   4.943772   1.084359   2.465561
    30  C    7.665654   8.321218   7.054367   8.415557   7.221387
    31  H    6.942862   6.289457   4.945487   6.705344   5.811665
    32  C    6.604154   9.384978   8.104723   9.063585   7.400895
    33  H    4.622091   8.541133   7.268174   8.050307   6.176285
    34  C    2.408903   9.272302   7.844820   9.390173   8.117081
    35  H    3.858628   8.410804   6.992327   8.961663   8.150039
    36  H    2.144469  10.257023   8.881171   9.995228   8.353263
    37  H    9.744834   2.150485   4.285405   2.150465   4.285346
    38  C    7.660043   9.398166   8.135405   9.265976   7.832385
    39  H    8.636768   8.572536   7.361751   8.821289   7.836022
    40  H    6.901424  10.345267   9.088177   9.894382   8.122571
    41  H    3.392092  10.230751   8.827460  10.359391   9.118778
    42  H    8.628428  10.366960   9.135891  10.225167   8.816818
                   21         22         23         24         25
    21  C    0.000000
    22  C    2.401148   0.000000
    23  C    8.339678   7.663388   0.000000
    24  H    7.057108   6.938381   2.145221   0.000000
    25  C    7.934139   6.605193   2.402396   3.859344   0.000000
    26  H    6.184005   4.623169   3.858996   4.283837   2.145356
    27  C    7.658963   8.708436   8.855967   6.961365   9.784928
    28  H    7.696546   9.088532   8.668292   6.591052   9.969353
    29  H    7.935422   8.542708   9.279344   7.673208   9.773104
    30  C    1.388824   2.774442   9.514051   8.348527   8.928391
    31  H    1.084794   3.385432   8.348239   6.841814   8.251212
    32  C    2.774430   1.388819   8.926672   8.248218   7.770528
    33  H    3.385417   1.084800   7.118603   6.637291   5.818196
    34  C    8.709358   7.659884   1.390070   3.389995   1.390095
    35  H    9.145591   8.633852   1.084348   2.465033   3.387137
    36  H    8.482109   6.903971   3.387136   4.943698   1.084363
    37  H    8.627860   9.740603   9.783160   7.899223  10.784503
    38  C    2.408878   2.408889   9.781478   8.882743   8.860440
    39  H    2.144453   3.858761  10.344405   9.066139   9.895553
    40  H    3.858751   2.144441   9.369482   8.905073   7.969536
    41  H    9.741711   8.628862   2.150513   4.285366   2.150453
    42  H    3.392063   3.392069  10.781315   9.931179   9.787018
                   26         27         28         29         30
    26  H    0.000000
    27  C    8.890070   0.000000
    28  H    9.301234   2.149185   0.000000
    29  H    8.673351   2.149210   4.286129   0.000000
    30  C    7.121630   8.859272   8.909419   9.057647   0.000000
    31  H    6.643746   6.968635   6.820279   7.486292   2.145313
    32  C    5.817122   9.781423  10.136890   9.594673   2.402462
    33  H    3.763276   8.882737   9.383245   8.570992   3.859075
    34  C    3.389959   9.853531   9.843085  10.048274   9.782234
    35  H    4.943333   9.140566   8.787676   9.719503  10.343562
    36  H    2.465578  10.692916  10.974013  10.540521   9.371467
    37  H    9.937770   1.084125   2.479166   2.479130   9.786266
    38  C    6.969712   9.853375  10.061469   9.832348   1.390081
    39  H    8.143918   9.146672   9.067567   9.474102   1.084353
    40  H    6.021000  10.687360  11.129929  10.366862   3.387152
    41  H    4.285396  10.805989  10.768914  10.994627  10.781792
    42  H    7.906179  10.805911  11.007156  10.759278   2.150451
                   31         32         33         34         35
    31  H    0.000000
    32  C    3.859055   0.000000
    33  H    4.283308   2.145356   0.000000
    34  C    8.883693   8.860047   6.969499   0.000000
    35  H    9.064207   9.893547   8.140394   2.149187   0.000000
    36  H    8.908597   7.970392   6.024369   2.149200   4.286112
    37  H    7.906187  10.780775   9.930301  10.806097  10.006985
    38  C    3.389900   1.390094   3.389946   9.854100  10.686951
    39  H    2.465597   3.387150   4.943418  10.688111  11.122726
    40  H    4.943399   1.084354   2.465647   9.147341  10.372571
    41  H    9.931470   9.787155   7.907066   1.084123   2.479233
    42  H    4.285343   2.150458   4.285392  10.806525  11.688828
                   36         37         38         39         40
    36  H    0.000000
    37  H   11.694322   0.000000
    38  C    9.148051  10.805730   0.000000
    39  H   10.374492  10.012943   2.149134   0.000000
    40  H    8.023201  11.688475   2.149152   4.286037   0.000000
    41  H    2.479104  11.731354  10.806626  11.689465  10.013697
    42  H   10.013557  11.731052   1.084114   2.479039   2.479054
                   41         42
    41  H    0.000000
    42  H   11.731844   0.000000
 Stoichiometry    C24H18
 Framework group  C1[X(C24H18)]
 Deg. of freedom   120
 Full point group                 C1      NOp   1
 Largest Abelian subgroup         C1      NOp   1
 Largest concise Abelian subgroup C1      NOp   1
                         Standard orientation:                         
 ---------------------------------------------------------------------
 Center     Atomic      Atomic             Coordinates (Angstroms)
 Number     Number       Type             X           Y           Z
 ---------------------------------------------------------------------
      1          6           0       -1.401315   -0.017852    0.041562
      2          6           0       -0.707295    1.191206    0.031220
      3          6           0       -0.677944   -1.209487    0.010511
      4          6           0        0.685896    1.222769   -0.010111
      5          1           0       -1.261052    2.123801    0.055587
      6          6           0       -2.884632   -0.036224    0.102253
      7          6           0        0.715798   -1.205538   -0.031416
      8          1           0       -1.206612   -2.155332    0.063871
      9          6           0        1.385843    0.017272   -0.041579
     10          6           0        1.410790    2.518126   -0.038616
     11          6           0       -3.649217    0.077462   -1.061222
     12          6           0       -3.546276   -0.167714    1.325437
     13          6           0        1.473638   -2.481582   -0.064982
     14          1           0        2.467824    0.031198   -0.119585
     15          6           0        0.964231    3.569375   -0.842767
     16          6           0        2.554493    2.712471    0.739459
     17          6           0       -5.036781    0.058930   -1.003457
     18          1           0       -3.151407    0.203396   -2.016753
     19          6           0       -4.933733   -0.186137    1.384235
     20          1           0       -2.966885   -0.277331    2.236009
     21          6           0        1.057673   -3.537862   -0.878848
     22          6           0        2.618779   -2.652604    0.716389
     23          6           0        1.642157    4.781302   -0.868152
     24          1           0        0.090580    3.427632   -1.469947
     25          6           0        3.233194    3.923950    0.714585
     26          1           0        2.902304    1.913140    1.385185
     27          6           0       -5.684159   -0.073615    0.219512
     28          1           0       -5.614062    0.156559   -1.916163
     29          1           0       -5.430093   -0.296551    2.341976
     30          6           0        1.766349   -4.731843   -0.910773
     31          1           0        0.182901   -3.413453   -1.508192
     32          6           0        3.328562   -3.845936    0.684998
     33          1           0        2.942762   -1.849889    1.370204
     34          6           0        2.779189    4.963086   -0.089429
     35          1           0        1.285410    5.583453   -1.504624
     36          1           0        4.114957    4.059210    1.331061
     37          1           0       -6.767243   -0.087841    0.264825
     38          6           0        2.904715   -4.890135   -0.128859
     39          1           0        1.432917   -5.538183   -1.554559
     40          1           0        4.210932   -3.963372    1.304237
     41          1           0        3.308649    5.908921   -0.109214
     42          1           0        3.458374   -5.821883   -0.153605
 ---------------------------------------------------------------------
 Rotational constants (GHZ):           0.1977306           0.1940918           0.1047284
 Leave Link  202 at Mon Nov 14 15:22:04 2022, MaxMem= 16106127360 cpu:               0.3 elap:               0.0
 (Enter /opt/ap/G16/B01/g16/l301.exe)
 Standard basis: 6-311++G(d,p) (5D, 7F)
 Ernie: Thresh=  0.10000D-02 Tol=  0.10000D-05 Strict=F.
 There are   678 symmetry adapted cartesian basis functions of A   symmetry.
 There are   654 symmetry adapted basis functions of A   symmetry.
   654 basis functions,  1026 primitive gaussians,   678 cartesian basis functions
    81 alpha electrons       81 beta electrons
       nuclear repulsion energy      1730.5454768801 Hartrees.
 IExCor= 4639 DFT=T Ex+Corr=wB97XD ExCW=0 ScaHFX=  1.000000
 ScaDFX=  1.000000  1.000000  1.000000  1.000000 ScalE2=  1.000000  1.000000
 IRadAn=      5 IRanWt=     -1 IRanGd=            0 ICorTp=0 IEmpDi=121
 HFx  wShort=  0.000000 wLong=  0.200000 cFull=  0.222036 cShort=  0.000000 cLong=  0.777964
 DFx  wShort=  0.000000 wLong=  0.200000 cFull=  0.000000 cShort=  0.000000 cLong=  1.000000
 NAtoms=   42 NActive=   42 NUniq=   42 SFac= 1.00D+00 NAtFMM=   60 NAOKFM=F Big=F
 Integral buffers will be    131072 words long.
 Raffenetti 2 integral format.
 Two-electron integral symmetry is turned on.
 R6Disp:  Grimme-D2 Dispersion energy=       -0.0286779295 Hartrees.
 Nuclear repulsion after empirical dispersion term =     1730.5167989506 Hartrees.
 Leave Link  301 at Mon Nov 14 15:22:04 2022, MaxMem= 16106127360 cpu:               1.2 elap:               0.0
 (Enter /opt/ap/G16/B01/g16/l302.exe)
 NPDir=0 NMtPBC=     1 NCelOv=     1 NCel=       1 NClECP=     1 NCelD=      1
         NCelK=      1 NCelE2=     1 NClLst=     1 CellRange=     0.0.
 One-electron integrals computed using PRISM.
 One-electron integral symmetry used in STVInt
 NBasis=   654 RedAO= T EigKep=  1.09D-06  NBF=   654
 NBsUse=   646 1.00D-06 EigRej=  7.17D-07 NBFU=   646
 Precomputing XC quadrature grid using
 IXCGrd= 4 IRadAn=           5 IRanWt=          -1 IRanGd=           0 AccXCQ= 0.00D+00.
 Generated NRdTot=       0 NPtTot=           0 NUsed=           0 NTot=          32
 NSgBfM=   669   669   669   669   669 MxSgAt=    42 MxSgA2=    42.
 Leave Link  302 at Mon Nov 14 15:22:05 2022, MaxMem= 16106127360 cpu:              20.9 elap:               0.7
 (Enter /opt/ap/G16/B01/g16/l303.exe)
 DipDrv:  MaxL=1.
 Leave Link  303 at Mon Nov 14 15:22:05 2022, MaxMem= 16106127360 cpu:               2.9 elap:               0.1
 (Enter /opt/ap/G16/B01/g16/l401.exe)
 ExpMin= 3.60D-02 ExpMax= 4.56D+03 ExpMxC= 6.82D+02 IAcc=3 IRadAn=         5 AccDes= 0.00D+00
 Harris functional with IExCor= 4639 and IRadAn=       5 diagonalized for initial guess.
 HarFok:  IExCor= 4639 AccDes= 0.00D+00 IRadAn=         5 IDoV= 1 UseB2=F ITyADJ=14
 ICtDFT=  3500011 ScaDFX=  1.000000  1.000000  1.000000  1.000000
 FoFCou: FMM=F IPFlag=           0 FMFlag=      100000 FMFlg1=           0
         NFxFlg=           0 DoJE=T BraDBF=F KetDBF=T FulRan=T
         wScrn=  0.000000 ICntrl=       500 IOpCl=  0 I1Cent=   200000004 NGrid=           0
         NMat0=    1 NMatS0=      1 NMatT0=    0 NMatD0=    1 NMtDS0=    0 NMtDT0=    0
 Petite list used in FoFCou.
 Harris En= -882.967758381532    
 JPrj=0 DoOrth=F DoCkMO=F.
 Leave Link  401 at Mon Nov 14 15:22:07 2022, MaxMem= 16106127360 cpu:              55.4 elap:               1.7
 (Enter /opt/ap/G16/B01/g16/l502.exe)
 Integral symmetry usage will be decided dynamically.
 Closed shell SCF:
 Using DIIS extrapolation, IDIIS=  1040.
 NGot= 16106127360 LenX= 16105179956 LenY= 16104719594
 Requested convergence on RMS density matrix=1.00D-08 within 512 cycles.
 Requested convergence on MAX density matrix=1.00D-06.
 Requested convergence on             energy=1.00D-06.
 No special actions if energy rises.
 Fock matrices will be formed incrementally for  20 cycles.

 Cycle   1  Pass 1  IDiag  1:
 FoFJK:  IHMeth= 1 ICntrl=       0 DoSepK=T KAlg= 0 I1Cent=           0 FoldK=F
 IRaf=         1 NMat=       1 IRICut=       1 DoRegI=T DoRafI=F ISym2E= 0 IDoP0=0 IntGTp=1.
 FoFCou: FMM=F IPFlag=           0 FMFlag=      100000 FMFlg1=           0
         NFxFlg=           0 DoJE=T BraDBF=F KetDBF=F FulRan=T
         wScrn=  0.000000 ICntrl=       500 IOpCl=  0 I1Cent=           0 NGrid=           0
         NMat0=    1 NMatS0=      1 NMatT0=    0 NMatD0=    1 NMtDS0=    0 NMtDT0=    0
 Symmetry not used in FoFCou.
 E= -925.114207478586    
 DIIS: error= 4.82D-02 at cycle   1 NSaved=   1.
 NSaved= 1 IEnMin= 1 EnMin= -925.114207478586     IErMin= 1 ErrMin= 4.82D-02
 ErrMax= 4.82D-02  0.00D+00 EMaxC= 1.00D-01 BMatC= 1.90D+00 BMatP= 1.90D+00
 IDIUse=3 WtCom= 5.18D-01 WtEn= 4.82D-01
 Coeff-Com:  0.100D+01
 Coeff-En:   0.100D+01
 Coeff:      0.100D+01
 Gap=     0.317 Goal=   None    Shift=    0.000
 GapD=    0.317 DampG=1.000 DampE=0.500 DampFc=0.5000 IDamp=-1.
 Damping current iteration by 5.00D-01
 RMSDP=4.30D-02 MaxDP=4.38D+00              OVMax= 4.33D-02

 Cycle   2  Pass 1  IDiag  1:
 RMSU=  6.97D-03    CP:  8.20D-01
 E= -925.212598836256     Delta-E=       -0.098391357669 Rises=F Damp=T
 DIIS: error= 2.35D-02 at cycle   2 NSaved=   2.
 NSaved= 2 IEnMin= 2 EnMin= -925.212598836256     IErMin= 2 ErrMin= 2.35D-02
 ErrMax= 2.35D-02  0.00D+00 EMaxC= 1.00D-01 BMatC= 4.32D-01 BMatP= 1.90D+00
 IDIUse=3 WtCom= 7.65D-01 WtEn= 2.35D-01
 Coeff-Com: -0.883D+00 0.188D+01
 Coeff-En:   0.000D+00 0.100D+01
 Coeff:     -0.675D+00 0.168D+01
 Gap=     0.325 Goal=   None    Shift=    0.000
 RMSDP=2.49D-02 MaxDP=2.09D+00 DE=-9.84D-02 OVMax= 3.45D-02

 Cycle   3  Pass 1  IDiag  1:
 RMSU=  3.99D-03    CP:  6.05D-01  1.44D+00
 E= -925.300843431330     Delta-E=       -0.088244595074 Rises=F Damp=F
 DIIS: error= 3.15D-03 at cycle   3 NSaved=   3.
 NSaved= 3 IEnMin= 3 EnMin= -925.300843431330     IErMin= 3 ErrMin= 3.15D-03
 ErrMax= 3.15D-03  0.00D+00 EMaxC= 1.00D-01 BMatC= 8.65D-03 BMatP= 4.32D-01
 IDIUse=3 WtCom= 9.68D-01 WtEn= 3.15D-02
 Coeff-Com: -0.368D+00 0.782D+00 0.587D+00
 Coeff-En:   0.000D+00 0.000D+00 0.100D+01
 Coeff:     -0.357D+00 0.757D+00 0.600D+00
 Gap=     0.323 Goal=   None    Shift=    0.000
 RMSDP=2.12D-03 MaxDP=1.85D-01 DE=-8.82D-02 OVMax= 2.00D-02

 Cycle   4  Pass 1  IDiag  1:
 RMSU=  1.43D-03    CP:  6.00D-01  1.56D+00  7.04D-01
 E= -925.308755974767     Delta-E=       -0.007912543437 Rises=F Damp=F
 DIIS: error= 9.56D-04 at cycle   4 NSaved=   4.
 NSaved= 4 IEnMin= 4 EnMin= -925.308755974767     IErMin= 4 ErrMin= 9.56D-04
 ErrMax= 9.56D-04  0.00D+00 EMaxC= 1.00D-01 BMatC= 2.75D-04 BMatP= 8.65D-03
 IDIUse=3 WtCom= 9.90D-01 WtEn= 9.56D-03
 Coeff-Com: -0.113D+00 0.239D+00 0.237D+00 0.636D+00
 Coeff-En:   0.000D+00 0.000D+00 0.000D+00 0.100D+01
 Coeff:     -0.111D+00 0.237D+00 0.234D+00 0.640D+00
 Gap=     0.322 Goal=   None    Shift=    0.000
 RMSDP=6.54D-04 MaxDP=5.75D-02 DE=-7.91D-03 OVMax= 4.43D-03

 Cycle   5  Pass 1  IDiag  1:
 RMSU=  2.96D-04    CP:  5.97D-01  1.61D+00  7.54D-01  8.21D-01
 E= -925.309042328439     Delta-E=       -0.000286353672 Rises=F Damp=F
 DIIS: error= 2.49D-04 at cycle   5 NSaved=   5.
 NSaved= 5 IEnMin= 5 EnMin= -925.309042328439     IErMin= 5 ErrMin= 2.49D-04
 ErrMax= 2.49D-04  0.00D+00 EMaxC= 1.00D-01 BMatC= 2.03D-05 BMatP= 2.75D-04
 IDIUse=3 WtCom= 9.98D-01 WtEn= 2.49D-03
 Coeff-Com:  0.256D-01-0.544D-01-0.244D-01 0.197D+00 0.857D+00
 Coeff-En:   0.000D+00 0.000D+00 0.000D+00 0.000D+00 0.100D+01
 Coeff:      0.255D-01-0.543D-01-0.243D-01 0.196D+00 0.857D+00
 Gap=     0.322 Goal=   None    Shift=    0.000
 RMSDP=1.88D-04 MaxDP=1.14D-02 DE=-2.86D-04 OVMax= 1.42D-03

 Cycle   6  Pass 1  IDiag  1:
 RMSU=  9.11D-05    CP:  5.97D-01  1.61D+00  7.78D-01  8.83D-01  1.28D+00
 E= -925.309067806022     Delta-E=       -0.000025477583 Rises=F Damp=F
 DIIS: error= 6.94D-05 at cycle   6 NSaved=   6.
 NSaved= 6 IEnMin= 6 EnMin= -925.309067806022     IErMin= 6 ErrMin= 6.94D-05
 ErrMax= 6.94D-05  0.00D+00 EMaxC= 1.00D-01 BMatC= 1.52D-06 BMatP= 2.03D-05
 IDIUse=1 WtCom= 1.00D+00 WtEn= 0.00D+00
 Coeff-Com:  0.135D-01-0.287D-01-0.165D-01 0.549D-01 0.338D+00 0.639D+00
 Coeff:      0.135D-01-0.287D-01-0.165D-01 0.549D-01 0.338D+00 0.639D+00
 Gap=     0.322 Goal=   None    Shift=    0.000
 RMSDP=8.25D-05 MaxDP=8.08D-03 DE=-2.55D-05 OVMax= 4.37D-04

 Cycle   7  Pass 1  IDiag  1:
 RMSU=  4.75D-05    CP:  5.97D-01  1.61D+00  7.84D-01  9.14D-01  1.31D+00
                    CP:  7.53D-01
 E= -925.309069617765     Delta-E=       -0.000001811743 Rises=F Damp=F
 DIIS: error= 1.63D-05 at cycle   7 NSaved=   7.
 NSaved= 7 IEnMin= 7 EnMin= -925.309069617765     IErMin= 7 ErrMin= 1.63D-05
 ErrMax= 1.63D-05  0.00D+00 EMaxC= 1.00D-01 BMatC= 1.10D-07 BMatP= 1.52D-06
 IDIUse=1 WtCom= 1.00D+00 WtEn= 0.00D+00
 Coeff-Com: -0.183D-02 0.393D-02 0.161D-02-0.256D-01-0.865D-01 0.109D+00
 Coeff-Com:  0.100D+01
 Coeff:     -0.183D-02 0.393D-02 0.161D-02-0.256D-01-0.865D-01 0.109D+00
 Coeff:      0.100D+01
 Gap=     0.322 Goal=   None    Shift=    0.000
 RMSDP=3.00D-05 MaxDP=1.90D-03 DE=-1.81D-06 OVMax= 2.52D-04

 Cycle   8  Pass 1  IDiag  1:
 RMSU=  9.23D-06    CP:  5.97D-01  1.61D+00  7.88D-01  9.15D-01  1.36D+00
                    CP:  8.53D-01  1.22D+00
 E= -925.309069842668     Delta-E=       -0.000000224903 Rises=F Damp=F
 DIIS: error= 9.42D-06 at cycle   8 NSaved=   8.
 NSaved= 8 IEnMin= 8 EnMin= -925.309069842668     IErMin= 8 ErrMin= 9.42D-06
 ErrMax= 9.42D-06  0.00D+00 EMaxC= 1.00D-01 BMatC= 2.27D-08 BMatP= 1.10D-07
 IDIUse=1 WtCom= 1.00D+00 WtEn= 0.00D+00
 Coeff-Com: -0.165D-02 0.352D-02 0.176D-02-0.168D-01-0.622D-01 0.294D-01
 Coeff-Com:  0.504D+00 0.542D+00
 Coeff:     -0.165D-02 0.352D-02 0.176D-02-0.168D-01-0.622D-01 0.294D-01
 Coeff:      0.504D+00 0.542D+00
 Gap=     0.322 Goal=   None    Shift=    0.000
 RMSDP=4.55D-06 MaxDP=2.87D-04 DE=-2.25D-07 OVMax= 7.33D-05

 Cycle   9  Pass 1  IDiag  1:
 RMSU=  2.86D-06    CP:  5.97D-01  1.61D+00  7.88D-01  9.15D-01  1.37D+00
                    CP:  8.56D-01  1.25D+00  9.43D-01
 E= -925.309069870814     Delta-E=       -0.000000028145 Rises=F Damp=F
 DIIS: error= 3.01D-06 at cycle   9 NSaved=   9.
 NSaved= 9 IEnMin= 9 EnMin= -925.309069870814     IErMin= 9 ErrMin= 3.01D-06
 ErrMax= 3.01D-06  0.00D+00 EMaxC= 1.00D-01 BMatC= 1.89D-09 BMatP= 2.27D-08
 IDIUse=1 WtCom= 1.00D+00 WtEn= 0.00D+00
 Coeff-Com:  0.120D-03-0.263D-03 0.706D-04 0.300D-02 0.109D-01-0.168D-01
 Coeff-Com: -0.184D+00 0.753D-01 0.111D+01
 Coeff:      0.120D-03-0.263D-03 0.706D-04 0.300D-02 0.109D-01-0.168D-01
 Coeff:     -0.184D+00 0.753D-01 0.111D+01
 Gap=     0.322 Goal=   None    Shift=    0.000
 RMSDP=3.18D-06 MaxDP=2.04D-04 DE=-2.81D-08 OVMax= 4.74D-05

 Cycle  10  Pass 1  IDiag  1:
 RMSU=  7.88D-07    CP:  5.97D-01  1.61D+00  7.89D-01  9.15D-01  1.37D+00
                    CP:  8.60D-01  1.28D+00  1.16D+00  1.24D+00
 E= -925.309069876537     Delta-E=       -0.000000005723 Rises=F Damp=F
 DIIS: error= 8.21D-07 at cycle  10 NSaved=  10.
 NSaved=10 IEnMin=10 EnMin= -925.309069876537     IErMin=10 ErrMin= 8.21D-07
 ErrMax= 8.21D-07  0.00D+00 EMaxC= 1.00D-01 BMatC= 1.96D-10 BMatP= 1.89D-09
 IDIUse=1 WtCom= 1.00D+00 WtEn= 0.00D+00
 Coeff-Com:  0.141D-03-0.303D-03-0.696D-04 0.197D-02 0.710D-02-0.529D-02
 Coeff-Com: -0.867D-01-0.236D-01 0.355D+00 0.752D+00
 Coeff:      0.141D-03-0.303D-03-0.696D-04 0.197D-02 0.710D-02-0.529D-02
 Coeff:     -0.867D-01-0.236D-01 0.355D+00 0.752D+00
 Gap=     0.322 Goal=   None    Shift=    0.000
 RMSDP=5.68D-07 MaxDP=4.54D-05 DE=-5.72D-09 OVMax= 1.02D-05

 Cycle  11  Pass 1  IDiag  1:
 RMSU=  1.69D-07    CP:  5.97D-01  1.61D+00  7.89D-01  9.15D-01  1.37D+00
                    CP:  8.59D-01  1.29D+00  1.18D+00  1.32D+00  1.17D+00
 E= -925.309069876873     Delta-E=       -0.000000000336 Rises=F Damp=F
 DIIS: error= 2.26D-07 at cycle  11 NSaved=  11.
 NSaved=11 IEnMin=11 EnMin= -925.309069876873     IErMin=11 ErrMin= 2.26D-07
 ErrMax= 2.26D-07  0.00D+00 EMaxC= 1.00D-01 BMatC= 3.40D-11 BMatP= 1.96D-10
 IDIUse=1 WtCom= 1.00D+00 WtEn= 0.00D+00
 Coeff-Com:  0.217D-04-0.458D-04-0.208D-04 0.109D-03 0.204D-03 0.132D-02
 Coeff-Com:  0.287D-02-0.250D-01-0.721D-01 0.240D+00 0.853D+00
 Coeff:      0.217D-04-0.458D-04-0.208D-04 0.109D-03 0.204D-03 0.132D-02
 Coeff:      0.287D-02-0.250D-01-0.721D-01 0.240D+00 0.853D+00
 Gap=     0.322 Goal=   None    Shift=    0.000
 RMSDP=3.83D-07 MaxDP=3.56D-05 DE=-3.36D-10 OVMax= 3.47D-06

 Cycle  12  Pass 1  IDiag  1:
 RMSU=  7.00D-08    CP:  5.97D-01  1.61D+00  7.88D-01  9.15D-01  1.37D+00
                    CP:  8.59D-01  1.28D+00  1.19D+00  1.35D+00  1.34D+00
                    CP:  1.25D+00
 E= -925.309069876962     Delta-E=       -0.000000000089 Rises=F Damp=F
 DIIS: error= 7.49D-08 at cycle  12 NSaved=  12.
 NSaved=12 IEnMin=12 EnMin= -925.309069876962     IErMin=12 ErrMin= 7.49D-08
 ErrMax= 7.49D-08  0.00D+00 EMaxC= 1.00D-01 BMatC= 1.42D-12 BMatP= 3.40D-11
 IDIUse=1 WtCom= 1.00D+00 WtEn= 0.00D+00
 Coeff-Com: -0.146D-04 0.316D-04 0.107D-04-0.228D-03-0.837D-03 0.816D-03
 Coeff-Com:  0.101D-01 0.686D-03-0.394D-01-0.604D-01-0.466D-01 0.114D+01
 Coeff:     -0.146D-04 0.316D-04 0.107D-04-0.228D-03-0.837D-03 0.816D-03
 Coeff:      0.101D-01 0.686D-03-0.394D-01-0.604D-01-0.466D-01 0.114D+01
 Gap=     0.322 Goal=   None    Shift=    0.000
 RMSDP=1.64D-07 MaxDP=1.54D-05 DE=-8.91D-11 OVMax= 1.22D-06

 Cycle  13  Pass 1  IDiag  1:
 RMSU=  3.64D-08    CP:  5.97D-01  1.61D+00  7.88D-01  9.15D-01  1.37D+00
                    CP:  8.59D-01  1.28D+00  1.18D+00  1.36D+00  1.41D+00
                    CP:  1.37D+00  1.56D+00
 E= -925.309069876903     Delta-E=        0.000000000059 Rises=F Damp=F
 DIIS: error= 3.62D-08 at cycle  13 NSaved=  13.
 NSaved=13 IEnMin=12 EnMin= -925.309069876962     IErMin=13 ErrMin= 3.62D-08
 ErrMax= 3.62D-08  0.00D+00 EMaxC= 1.00D-01 BMatC= 2.05D-13 BMatP= 1.42D-12
 IDIUse=1 WtCom= 1.00D+00 WtEn= 0.00D+00
 Coeff-Com: -0.559D-05 0.120D-04 0.496D-05-0.746D-04-0.259D-03 0.192D-03
 Coeff-Com:  0.283D-02 0.153D-02-0.677D-02-0.283D-01-0.687D-01 0.353D+00
 Coeff-Com:  0.747D+00
 Coeff:     -0.559D-05 0.120D-04 0.496D-05-0.746D-04-0.259D-03 0.192D-03
 Coeff:      0.283D-02 0.153D-02-0.677D-02-0.283D-01-0.687D-01 0.353D+00
 Coeff:      0.747D+00
 Gap=     0.322 Goal=   None    Shift=    0.000
 RMSDP=2.02D-08 MaxDP=1.62D-06 DE= 5.87D-11 OVMax= 3.08D-07

 Cycle  14  Pass 1  IDiag  1:
 RMSU=  7.56D-09    CP:  5.97D-01  1.61D+00  7.88D-01  9.15D-01  1.37D+00
                    CP:  8.59D-01  1.28D+00  1.18D+00  1.36D+00  1.41D+00
                    CP:  1.37D+00  1.67D+00  1.14D+00
 E= -925.309069876961     Delta-E=       -0.000000000058 Rises=F Damp=F
 DIIS: error= 9.29D-09 at cycle  14 NSaved=  14.
 NSaved=14 IEnMin=12 EnMin= -925.309069876962     IErMin=14 ErrMin= 9.29D-09
 ErrMax= 9.29D-09  0.00D+00 EMaxC= 1.00D-01 BMatC= 4.95D-14 BMatP= 2.05D-13
 IDIUse=1 WtCom= 1.00D+00 WtEn= 0.00D+00
 Coeff-Com:  0.598D-06-0.133D-05-0.207D-06 0.139D-04 0.581D-04-0.781D-04
 Coeff-Com: -0.815D-03 0.385D-03 0.456D-02 0.479D-03-0.214D-01-0.867D-01
 Coeff-Com:  0.310D+00 0.794D+00
 Coeff:      0.598D-06-0.133D-05-0.207D-06 0.139D-04 0.581D-04-0.781D-04
 Coeff:     -0.815D-03 0.385D-03 0.456D-02 0.479D-03-0.214D-01-0.867D-01
 Coeff:      0.310D+00 0.794D+00
 Gap=     0.322 Goal=   None    Shift=    0.000
 RMSDP=1.51D-08 MaxDP=1.67D-06 DE=-5.78D-11 OVMax= 1.12D-07

 Cycle  15  Pass 1  IDiag  1:
 RMSU=  2.75D-09    CP:  5.97D-01  1.61D+00  7.88D-01  9.15D-01  1.37D+00
                    CP:  8.59D-01  1.28D+00  1.18D+00  1.36D+00  1.41D+00
                    CP:  1.38D+00  1.75D+00  1.31D+00  8.92D-01
 E= -925.309069876937     Delta-E=        0.000000000024 Rises=F Damp=F
 DIIS: error= 2.49D-09 at cycle  15 NSaved=  15.
 NSaved=15 IEnMin=12 EnMin= -925.309069876962     IErMin=15 ErrMin= 2.49D-09
 ErrMax= 2.49D-09  0.00D+00 EMaxC= 1.00D-01 BMatC= 2.28D-15 BMatP= 4.95D-14
 IDIUse=1 WtCom= 1.00D+00 WtEn= 0.00D+00
 Coeff-Com:  0.559D-06-0.121D-05-0.475D-06 0.911D-05 0.348D-04-0.379D-04
 Coeff-Com: -0.429D-03 0.569D-05 0.176D-02 0.206D-02-0.141D-02-0.509D-01
 Coeff-Com:  0.398D-01 0.193D+00 0.816D+00
 Coeff:      0.559D-06-0.121D-05-0.475D-06 0.911D-05 0.348D-04-0.379D-04
 Coeff:     -0.429D-03 0.569D-05 0.176D-02 0.206D-02-0.141D-02-0.509D-01
 Coeff:      0.398D-01 0.193D+00 0.816D+00
 Gap=     0.322 Goal=   None    Shift=    0.000
 RMSDP=3.77D-09 MaxDP=4.20D-07 DE= 2.36D-11 OVMax= 2.63D-08

 SCF Done:  E(RwB97XD) =  -925.309069877     A.U. after   15 cycles
            NFock= 15  Conv=0.38D-08     -V/T= 2.0044
 KE= 9.212948750565D+02 PE=-5.607545192030D+03 EE= 2.030424448146D+03
 Leave Link  502 at Mon Nov 14 15:24:40 2022, MaxMem= 16106127360 cpu:            4883.1 elap:             153.2
 (Enter /opt/ap/G16/B01/g16/l601.exe)
 Copying SCF densities to generalized density rwf, IOpCl= 0 IROHF=0.

 **********************************************************************

            Population analysis using the SCF Density.

 **********************************************************************

 Orbital symmetries:
       Occupied  (A) (A) (A) (A) (A) (A) (A) (A) (A) (A) (A) (A)
                 (A) (A) (A) (A) (A) (A) (A) (A) (A) (A) (A) (A)
                 (A) (A) (A) (A) (A) (A) (A) (A) (A) (A) (A) (A)
                 (A) (A) (A) (A) (A) (A) (A) (A) (A) (A) (A) (A)
                 (A) (A) (A) (A) (A) (A) (A) (A) (A) (A) (A) (A)
                 (A) (A) (A) (A) (A) (A) (A) (A) (A) (A) (A) (A)
                 (A) (A) (A) (A) (A) (A) (A) (A) (A)
       Virtual   (A) (A) (A) (A) (A) (A) (A) (A) (A) (A) (A) (A)
                 (A) (A) (A) (A) (A) (A) (A) (A) (A) (A) (A) (A)
                 (A) (A) (A) (A) (A) (A) (A) (A) (A) (A) (A) (A)
                 (A) (A) (A) (A) (A) (A) (A) (A) (A) (A) (A) (A)
                 (A) (A) (A) (A) (A) (A) (A) (A) (A) (A) (A) (A)
                 (A) (A) (A) (A) (A) (A) (A) (A) (A) (A) (A) (A)
                 (A) (A) (A) (A) (A) (A) (A) (A) (A) (A) (A) (A)
                 (A) (A) (A) (A) (A) (A) (A) (A) (A) (A) (A) (A)
                 (A) (A) (A) (A) (A) (A) (A) (A) (A) (A) (A) (A)
                 (A) (A) (A) (A) (A) (A) (A) (A) (A) (A) (A) (A)
                 (A) (A) (A) (A) (A) (A) (A) (A) (A) (A) (A) (A)
                 (A) (A) (A) (A) (A) (A) (A) (A) (A) (A) (A) (A)
                 (A) (A) (A) (A) (A) (A) (A) (A) (A) (A) (A) (A)
                 (A) (A) (A) (A) (A) (A) (A) (A) (A) (A) (A) (A)
                 (A) (A) (A) (A) (A) (A) (A) (A) (A) (A) (A) (A)
                 (A) (A) (A) (A) (A) (A) (A) (A) (A) (A) (A) (A)
                 (A) (A) (A) (A) (A) (A) (A) (A) (A) (A) (A) (A)
                 (A) (A) (A) (A) (A) (A) (A) (A) (A) (A) (A) (A)
                 (A) (A) (A) (A) (A) (A) (A) (A) (A) (A) (A) (A)
                 (A) (A) (A) (A) (A) (A) (A) (A) (A) (A) (A) (A)
                 (A) (A) (A) (A) (A) (A) (A) (A) (A) (A) (A) (A)
                 (A) (A) (A) (A) (A) (A) (A) (A) (A) (A) (A) (A)
                 (A) (A) (A) (A) (A) (A) (A) (A) (A) (A) (A) (A)
                 (A) (A) (A) (A) (A) (A) (A) (A) (A) (A) (A) (A)
                 (A) (A) (A) (A) (A) (A) (A) (A) (A) (A) (A) (A)
                 (A) (A) (A) (A) (A) (A) (A) (A) (A) (A) (A) (A)
                 (A) (A) (A) (A) (A) (A) (A) (A) (A) (A) (A) (A)
                 (A) (A) (A) (A) (A) (A) (A) (A) (A) (A) (A) (A)
                 (A) (A) (A) (A) (A) (A) (A) (A) (A) (A) (A) (A)
                 (A) (A) (A) (A) (A) (A) (A) (A) (A) (A) (A) (A)
                 (A) (A) (A) (A) (A) (A) (A) (A) (A) (A) (A) (A)
                 (A) (A) (A) (A) (A) (A) (A) (A) (A) (A) (A) (A)
                 (A) (A) (A) (A) (A) (A) (A) (A) (A) (A) (A) (A)
                 (A) (A) (A) (A) (A) (A) (A) (A) (A) (A) (A) (A)
                 (A) (A) (A) (A) (A) (A) (A) (A) (A) (A) (A) (A)
                 (A) (A) (A) (A) (A) (A) (A) (A) (A) (A) (A) (A)
                 (A) (A) (A) (A) (A) (A) (A) (A) (A) (A) (A) (A)
                 (A) (A) (A) (A) (A) (A) (A) (A) (A) (A) (A) (A)
                 (A) (A) (A) (A) (A) (A) (A) (A) (A) (A) (A) (A)
                 (A) (A) (A) (A) (A) (A) (A) (A) (A) (A) (A) (A)
                 (A) (A) (A) (A) (A) (A) (A) (A) (A) (A) (A) (A)
                 (A) (A) (A) (A) (A) (A) (A) (A) (A) (A) (A) (A)
                 (A) (A) (A) (A) (A) (A) (A) (A) (A) (A) (A) (A)
                 (A) (A) (A) (A) (A) (A) (A) (A) (A) (A) (A) (A)
                 (A) (A) (A) (A) (A) (A) (A) (A) (A) (A) (A) (A)
                 (A) (A) (A) (A) (A) (A) (A) (A) (A) (A) (A) (A)
                 (A) (A) (A) (A) (A) (A) (A) (A) (A) (A) (A) (A)
                 (A)
 The electronic state is 1-A.
 Alpha  occ. eigenvalues --  -10.30372 -10.30370 -10.30316 -10.30302 -10.30290
 Alpha  occ. eigenvalues --  -10.30216 -10.29229 -10.29224 -10.29212 -10.29200
 Alpha  occ. eigenvalues --  -10.29194 -10.29169 -10.29149 -10.29145 -10.29126
 Alpha  occ. eigenvalues --  -10.29126 -10.29107 -10.29091 -10.29081 -10.29074
 Alpha  occ. eigenvalues --  -10.29061 -10.29051 -10.29042 -10.29036  -0.98922
 Alpha  occ. eigenvalues --   -0.97028  -0.96987  -0.95239  -0.89381  -0.89353
 Alpha  occ. eigenvalues --   -0.85307  -0.85261  -0.85170  -0.85023  -0.82251
 Alpha  occ. eigenvalues --   -0.82205  -0.73499  -0.73196  -0.71110  -0.70516
 Alpha  occ. eigenvalues --   -0.70425  -0.70084  -0.66811  -0.66663  -0.63422
 Alpha  occ. eigenvalues --   -0.60677  -0.60634  -0.58730  -0.57081  -0.56452
 Alpha  occ. eigenvalues --   -0.54958  -0.54714  -0.54573  -0.54257  -0.53103
 Alpha  occ. eigenvalues --   -0.51917  -0.51392  -0.51261  -0.51077  -0.50838
 Alpha  occ. eigenvalues --   -0.50724  -0.47646  -0.46615  -0.46054  -0.46023
 Alpha  occ. eigenvalues --   -0.45440  -0.45124  -0.44268  -0.43141  -0.43023
 Alpha  occ. eigenvalues --   -0.42860  -0.41843  -0.41343  -0.36511  -0.34965
 Alpha  occ. eigenvalues --   -0.33604  -0.33595  -0.33590  -0.33076  -0.31355
 Alpha  occ. eigenvalues --   -0.30205
 Alpha virt. eigenvalues --    0.02013   0.03117   0.03672   0.04208   0.04347
 Alpha virt. eigenvalues --    0.04812   0.04933   0.05068   0.05172   0.05307
 Alpha virt. eigenvalues --    0.05416   0.05655   0.05665   0.06717   0.06812
 Alpha virt. eigenvalues --    0.06830   0.07091   0.07913   0.08023   0.08257
 Alpha virt. eigenvalues --    0.08613   0.09010   0.09119   0.09409   0.11111
 Alpha virt. eigenvalues --    0.11485   0.11885   0.12088   0.12741   0.13400
 Alpha virt. eigenvalues --    0.13575   0.14079   0.14183   0.14844   0.14968
 Alpha virt. eigenvalues --    0.15593   0.15690   0.15779   0.16074   0.16353
 Alpha virt. eigenvalues --    0.16452   0.16575   0.17030   0.17336   0.17420
 Alpha virt. eigenvalues --    0.17531   0.17682   0.17779   0.17931   0.18070
 Alpha virt. eigenvalues --    0.18099   0.18185   0.18473   0.18721   0.18809
 Alpha virt. eigenvalues --    0.18972   0.19138   0.19453   0.20186   0.20292
 Alpha virt. eigenvalues --    0.20364   0.20647   0.20789   0.21313   0.21381
 Alpha virt. eigenvalues --    0.21910   0.22197   0.22223   0.22571   0.22878
 Alpha virt. eigenvalues --    0.23063   0.23147   0.23322   0.23606   0.23813
 Alpha virt. eigenvalues --    0.24385   0.25044   0.25127   0.25175   0.25609
 Alpha virt. eigenvalues --    0.25781   0.26045   0.26247   0.26775   0.27129
 Alpha virt. eigenvalues --    0.27417   0.27597   0.27987   0.28166   0.28495
 Alpha virt. eigenvalues --    0.28630   0.28941   0.29196   0.29363   0.29527
 Alpha virt. eigenvalues --    0.29666   0.30081   0.30268   0.30467   0.30631
 Alpha virt. eigenvalues --    0.31560   0.31971   0.32153   0.32718   0.33390
 Alpha virt. eigenvalues --    0.33672   0.33747   0.33973   0.34084   0.34312
 Alpha virt. eigenvalues --    0.34715   0.35061   0.35128   0.35323   0.35871
 Alpha virt. eigenvalues --    0.35889   0.35997   0.36571   0.36650   0.36861
 Alpha virt. eigenvalues --    0.36979   0.37199   0.37325   0.37886   0.37953
 Alpha virt. eigenvalues --    0.38147   0.38399   0.38715   0.39407   0.39627
 Alpha virt. eigenvalues --    0.39760   0.40101   0.40359   0.40832   0.41741
 Alpha virt. eigenvalues --    0.41965   0.42387   0.42683   0.42766   0.43076
 Alpha virt. eigenvalues --    0.43191   0.43459   0.43798   0.44604   0.44744
 Alpha virt. eigenvalues --    0.44887   0.45373   0.47542   0.47713   0.48118
 Alpha virt. eigenvalues --    0.48707   0.48964   0.49427   0.52872   0.53087
 Alpha virt. eigenvalues --    0.57192   0.58219   0.58782   0.59871   0.60149
 Alpha virt. eigenvalues --    0.61592   0.62189   0.62373   0.62647   0.62763
 Alpha virt. eigenvalues --    0.63085   0.63199   0.63511   0.63868   0.64052
 Alpha virt. eigenvalues --    0.64322   0.64687   0.64721   0.64754   0.65709
 Alpha virt. eigenvalues --    0.66168   0.66286   0.66774   0.67015   0.67392
 Alpha virt. eigenvalues --    0.67978   0.68591   0.69209   0.69644   0.70115
 Alpha virt. eigenvalues --    0.70658   0.71091   0.71665   0.71977   0.72590
 Alpha virt. eigenvalues --    0.73329   0.73701   0.73811   0.74559   0.74785
 Alpha virt. eigenvalues --    0.75049   0.75651   0.75879   0.77645   0.78225
 Alpha virt. eigenvalues --    0.79011   0.79205   0.80117   0.80434   0.80812
 Alpha virt. eigenvalues --    0.81178   0.81276   0.81367   0.81671   0.81896
 Alpha virt. eigenvalues --    0.82587   0.82644   0.82976   0.83662   0.83819
 Alpha virt. eigenvalues --    0.84082   0.84281   0.84802   0.85319   0.85728
 Alpha virt. eigenvalues --    0.85953   0.86541   0.87088   0.87414   0.88093
 Alpha virt. eigenvalues --    0.88468   0.90142   0.90741   0.91438   0.91681
 Alpha virt. eigenvalues --    0.91937   0.92264   0.92787   0.93126   0.93555
 Alpha virt. eigenvalues --    0.93733   0.94063   0.94573   0.95053   0.95392
 Alpha virt. eigenvalues --    0.95933   0.96260   0.96650   0.97001   0.97918
 Alpha virt. eigenvalues --    0.99276   1.00085   1.00505   1.00599   1.01416
 Alpha virt. eigenvalues --    1.01637   1.01905   1.03254   1.04062   1.05040
 Alpha virt. eigenvalues --    1.05567   1.06364   1.06774   1.07740   1.08294
 Alpha virt. eigenvalues --    1.08347   1.08519   1.09004   1.09503   1.09798
 Alpha virt. eigenvalues --    1.11935   1.12174   1.12582   1.12859   1.13371
 Alpha virt. eigenvalues --    1.13789   1.14387   1.14618   1.16017   1.16468
 Alpha virt. eigenvalues --    1.17055   1.17983   1.18311   1.19307   1.19906
 Alpha virt. eigenvalues --    1.21453   1.22276   1.22384   1.23463   1.23899
 Alpha virt. eigenvalues --    1.24494   1.25252   1.27191   1.28094   1.30076
 Alpha virt. eigenvalues --    1.30988   1.38869   1.39035   1.40312   1.41437
 Alpha virt. eigenvalues --    1.41554   1.45819   1.46558   1.48225   1.51007
 Alpha virt. eigenvalues --    1.54231   1.56803   1.57285   1.58393   1.59328
 Alpha virt. eigenvalues --    1.59838   1.59917   1.60227   1.61016   1.61585
 Alpha virt. eigenvalues --    1.61804   1.62256   1.62664   1.63118   1.63988
 Alpha virt. eigenvalues --    1.64228   1.65084   1.65659   1.65786   1.65890
 Alpha virt. eigenvalues --    1.66296   1.66592   1.67043   1.68247   1.68818
 Alpha virt. eigenvalues --    1.69927   1.71098   1.72693   1.73022   1.73765
 Alpha virt. eigenvalues --    1.73858   1.74519   1.75168   1.75265   1.75836
 Alpha virt. eigenvalues --    1.76109   1.77036   1.79895   1.81560   1.82012
 Alpha virt. eigenvalues --    1.82868   1.82948   1.84085   1.84434   1.84891
 Alpha virt. eigenvalues --    1.85551   1.86054   1.86358   1.86396   1.87630
 Alpha virt. eigenvalues --    1.88395   1.88771   1.89693   1.92499   1.92683
 Alpha virt. eigenvalues --    1.93088   1.93408   1.95141   1.96803   1.96992
 Alpha virt. eigenvalues --    1.98907   1.99840   2.00008   2.01771   2.02348
 Alpha virt. eigenvalues --    2.02727   2.02959   2.03302   2.04121   2.04317
 Alpha virt. eigenvalues --    2.04674   2.05111   2.05395   2.05504   2.05924
 Alpha virt. eigenvalues --    2.06266   2.06562   2.07214   2.08060   2.09337
 Alpha virt. eigenvalues --    2.11023   2.11773   2.11910   2.12469   2.12933
 Alpha virt. eigenvalues --    2.13462   2.14194   2.15318   2.16456   2.16898
 Alpha virt. eigenvalues --    2.17531   2.18468   2.19236   2.19852   2.21166
 Alpha virt. eigenvalues --    2.21876   2.22867   2.28201   2.29388   2.32987
 Alpha virt. eigenvalues --    2.35167   2.35755   2.37397   2.37946   2.39487
 Alpha virt. eigenvalues --    2.40903   2.44457   2.44632   2.48764   2.49015
 Alpha virt. eigenvalues --    2.50333   2.52034   2.53166   2.53574   2.54224
 Alpha virt. eigenvalues --    2.54906   2.55231   2.56400   2.56550   2.56964
 Alpha virt. eigenvalues --    2.57419   2.58675   2.58713   2.61884   2.62759
 Alpha virt. eigenvalues --    2.69937   2.72730   2.72954   2.73122   2.74089
 Alpha virt. eigenvalues --    2.74493   2.75960   2.76322   2.76426   2.79479
 Alpha virt. eigenvalues --    2.79652   2.80096   2.80408   2.80592   2.81101
 Alpha virt. eigenvalues --    2.81670   2.81931   2.82510   2.83040   2.83214
 Alpha virt. eigenvalues --    2.83911   2.84071   2.84261   2.85398   2.85736
 Alpha virt. eigenvalues --    2.86506   2.87286   2.87752   2.88906   2.89423
 Alpha virt. eigenvalues --    2.90706   2.91551   2.92241   2.92483   2.92786
 Alpha virt. eigenvalues --    2.93353   2.93661   2.94523   2.94983   2.95643
 Alpha virt. eigenvalues --    2.98405   2.99187   2.99505   2.99867   3.01267
 Alpha virt. eigenvalues --    3.01983   3.03509   3.04648   3.04984   3.05323
 Alpha virt. eigenvalues --    3.05539   3.07033   3.07651   3.08085   3.09200
 Alpha virt. eigenvalues --    3.11618   3.12528   3.16159   3.18993   3.20075
 Alpha virt. eigenvalues --    3.21227   3.22234   3.24484   3.27160   3.30290
 Alpha virt. eigenvalues --    3.32474   3.32619   3.33973   3.34772   3.35589
 Alpha virt. eigenvalues --    3.42123   3.46109   3.47678   3.48818   3.49285
 Alpha virt. eigenvalues --    3.49537   3.50798   3.52685   3.53948   3.60333
 Alpha virt. eigenvalues --    3.61041   3.61161   3.63799   3.64944   3.65815
 Alpha virt. eigenvalues --    3.66960   3.73753   3.74104   3.76260   3.76513
 Alpha virt. eigenvalues --    3.77485   3.78383   3.90821   3.92782   3.96855
 Alpha virt. eigenvalues --    4.09715   4.09985   4.10259   4.14513   4.14582
 Alpha virt. eigenvalues --    4.14726   4.24239   4.24671   4.25448   4.26256
 Alpha virt. eigenvalues --    4.26465   4.27026   4.27598   4.27788   4.46912
 Alpha virt. eigenvalues --    4.62821   4.66931   4.94018   4.95577   4.95779
 Alpha virt. eigenvalues --    4.98339  23.68399  23.81526  23.82535  23.88217
 Alpha virt. eigenvalues --   24.08383  24.08478  24.10709  24.11059  24.11278
 Alpha virt. eigenvalues --   24.11426  24.12854  24.13559  24.20267  24.20433
 Alpha virt. eigenvalues --   24.21011  24.24102  24.24330  24.24363  24.24545
 Alpha virt. eigenvalues --   24.26585  24.31613  24.33838  24.34170  24.35495
          Condensed to atoms (all electrons):
               1          2          3          4          5          6
     1  C   26.247445   0.767538   0.841064  -8.173978   0.340384   0.256440
     2  C    0.767538  18.840149  -4.728014   4.147702   0.196118  -2.559281
     3  C    0.841064  -4.728014  18.880526  -4.310717   0.200285  -2.410427
     4  C   -8.173978   4.147702  -4.310717  23.406907  -0.360848  -0.510943
     5  H    0.340384   0.196118   0.200285  -0.360848   0.517849  -0.026447
     6  C    0.256440  -2.559281  -2.410427  -0.510943  -0.026447  12.194727
     7  C   -7.909251  -4.220690   4.008622  -9.085122   0.098384  -0.389304
     8  H    0.330338   0.210172   0.192279   0.099658  -0.004077  -0.039387
     9  C   -5.587443  -0.930551  -0.974976   1.750485   0.005682  -1.626181
    10  C    0.433666  -2.760370  -1.470469  -2.245986  -0.014742   1.213865
    11  C   -0.776963   0.161684   0.033859   0.247259   0.027952  -0.193234
    12  C   -1.052332  -0.328198  -0.291931  -0.027927  -0.078998   0.438268
    13  C    0.343916  -1.457294  -2.677937   0.504493  -0.019244   1.166999
    14  H    0.092693   0.061875   0.059510  -0.048331  -0.002276  -0.009890
    15  C   -0.700845   1.098645  -0.507667  -0.398593  -0.233670   0.126482
    16  C    0.184760  -1.286646   0.148847  -0.336364   0.131090   0.028880
    17  C   -0.019904   0.199419   0.096547   0.051199   0.005771  -1.140945
    18  H    0.016152   0.000794  -0.007677   0.003213   0.004946   0.001209
    19  C   -0.418172   0.305306   0.442415   0.146829   0.005597  -1.259886
    20  H    0.056048  -0.048623  -0.010745  -0.029255  -0.000929   0.058669
    21  C   -0.511793  -0.538579   1.178927   0.102467  -0.003479   0.235440
    22  C   -0.071786   0.149722  -1.584101   0.254854   0.001225  -0.050497
    23  C    0.374915   0.656921   0.135110   0.137748   0.016146  -0.105943
    24  H   -0.083404  -0.036786  -0.045419   0.032144  -0.010861   0.031403
    25  C   -0.293406  -0.280189   0.034679  -0.247754   0.005340  -0.035540
    26  H    0.019720  -0.001718  -0.014928   0.138377  -0.002099   0.009491
    27  C   -0.097951  -0.121361  -0.173616  -0.016479   0.001767  -0.198565
    28  H   -0.001323  -0.000839   0.002731  -0.000548  -0.000738   0.036476
    29  H   -0.002242   0.005603   0.002047   0.003320  -0.000127   0.025260
    30  C    0.476714   0.116106   0.771261  -0.163414  -0.001313  -0.067576
    31  H   -0.075282  -0.046527  -0.033721   0.019126  -0.000439   0.033860
    32  C   -0.287404   0.059103  -0.217779   0.365181   0.003252  -0.056175
    33  H    0.020216  -0.015282  -0.007739  -0.129206  -0.000130   0.009416
    34  C   -0.016014  -0.124770  -0.027614  -0.219867  -0.012327   0.033122
    35  H    0.006194   0.008309   0.001584   0.002707   0.000880  -0.002304
    36  H   -0.002868  -0.004011  -0.000049  -0.009479   0.000547  -0.000606
    37  H   -0.002771  -0.005148  -0.006389   0.000606   0.000020   0.018809
    38  C   -0.035113  -0.032328  -0.158436  -0.002810  -0.000175   0.033790
    39  H    0.006009   0.001565   0.007834   0.001420  -0.000012  -0.002133
    40  H   -0.002816   0.000119  -0.003209   0.012013  -0.000005  -0.000593
    41  H    0.001180  -0.003466  -0.000803  -0.007864  -0.000405   0.000922
    42  H    0.000846  -0.000860  -0.003988   0.000640  -0.000011   0.000853
               7          8          9         10         11         12
     1  C   -7.909251   0.330338  -5.587443   0.433666  -0.776963  -1.052332
     2  C   -4.220690   0.210172  -0.930551  -2.760370   0.161684  -0.328198
     3  C    4.008622   0.192279  -0.974976  -1.470469   0.033859  -0.291931
     4  C   -9.085122   0.099658   1.750485  -2.245986   0.247259  -0.027927
     5  H    0.098384  -0.004077   0.005682  -0.014742   0.027952  -0.078998
     6  C   -0.389304  -0.039387  -1.626181   1.213865  -0.193234   0.438268
     7  C   23.156715  -0.341496   1.692907   0.575841   0.152630  -0.031195
     8  H   -0.341496   0.507621   0.011276  -0.019137   0.026611  -0.083934
     9  C    1.692907   0.011276  15.828136  -2.048105   0.099245  -0.361085
    10  C    0.575841  -0.019137  -2.048105  15.654172  -0.018206   0.250252
    11  C    0.152630   0.026611   0.099245  -0.018206  12.952233  -5.685281
    12  C   -0.031195  -0.083934  -0.361085   0.250252  -5.685281  14.350632
    13  C   -1.989456  -0.033906  -2.161263   0.981259  -0.045468   0.260712
    14  H   -0.047230  -0.002420   0.256731   0.052959  -0.003863   0.003902
    15  C    0.116364  -0.006647  -0.692703  -0.647883   0.070053  -0.039921
    16  C    0.126124   0.004659   0.956768  -2.234878  -0.035052   0.051716
    17  C   -0.010684   0.006294   0.019727  -0.113272  -1.469899   0.865569
    18  H    0.009639   0.002909   0.006558   0.023150   0.395423  -0.011522
    19  C    0.223937   0.014371   0.068980   0.017717   1.161778  -2.274718
    20  H   -0.022879  -0.001989  -0.019881   0.009599  -0.018137   0.493458
    21  C   -0.631652  -0.217896  -0.817743  -0.032806   0.106802  -0.045850
    22  C   -0.324011   0.115143   1.308449   0.207160  -0.049903   0.051197
    23  C   -0.149030  -0.001651  -0.081433  -1.595203  -0.002968  -0.017002
    24  H    0.020011  -0.000533  -0.020281  -0.023722  -0.000289   0.012172
    25  C    0.403067   0.004159   0.690521  -1.154354   0.011598  -0.011700
    26  H   -0.132588   0.000020  -0.076280  -0.042819  -0.000151   0.001768
    27  C   -0.035610  -0.000873  -0.033432   0.035043  -0.598246  -0.188953
    28  H    0.000078  -0.000425  -0.000474  -0.002242  -0.089257   0.016953
    29  H    0.002757  -0.000018   0.000494  -0.000352   0.009734  -0.079612
    30  C   -0.040429   0.038481  -0.153902  -0.015099   0.014875  -0.029252
    31  H    0.020750  -0.011459  -0.022329   0.013003  -0.003954   0.014275
    32  C   -0.038602   0.003350   0.639850  -0.142583   0.004775  -0.008937
    33  H    0.133150  -0.002535  -0.068387   0.020154   0.000996   0.000553
    34  C   -0.015616  -0.000206  -0.094716  -0.223206  -0.002245   0.004580
    35  H    0.001184  -0.000007   0.003707   0.029359   0.000257  -0.000453
    36  H    0.012371  -0.000009   0.018400   0.024297   0.000141  -0.000203
    37  H    0.000230  -0.000100  -0.000821   0.001140   0.003550   0.006221
    38  C   -0.250062  -0.012209  -0.042973   0.043253   0.000076   0.003340
    39  H    0.003266   0.000907   0.003439  -0.000961   0.000304  -0.000514
    40  H   -0.008708   0.000561   0.016675  -0.004571   0.000067  -0.000130
    41  H    0.000371  -0.000009  -0.006709   0.022573  -0.000102   0.000182
    42  H   -0.007864  -0.000457  -0.005536   0.001288  -0.000053   0.000159
              13         14         15         16         17         18
     1  C    0.343916   0.092693  -0.700845   0.184760  -0.019904   0.016152
     2  C   -1.457294   0.061875   1.098645  -1.286646   0.199419   0.000794
     3  C   -2.677937   0.059510  -0.507667   0.148847   0.096547  -0.007677
     4  C    0.504493  -0.048331  -0.398593  -0.336364   0.051199   0.003213
     5  H   -0.019244  -0.002276  -0.233670   0.131090   0.005771   0.004946
     6  C    1.166999  -0.009890   0.126482   0.028880  -1.140945   0.001209
     7  C   -1.989456  -0.047230   0.116364   0.126124  -0.010684   0.009639
     8  H   -0.033906  -0.002420  -0.006647   0.004659   0.006294   0.002909
     9  C   -2.161263   0.256731  -0.692703   0.956768   0.019727   0.006558
    10  C    0.981259   0.052959  -0.647883  -2.234878  -0.113272   0.023150
    11  C   -0.045468  -0.003863   0.070053  -0.035052  -1.469899   0.395423
    12  C    0.260712   0.003902  -0.039921   0.051716   0.865569  -0.011522
    13  C   15.679026   0.057137  -0.007124   0.168318  -0.087920   0.017415
    14  H    0.057137   0.501311   0.097677  -0.178733   0.003692  -0.000889
    15  C   -0.007124   0.097677  18.622212 -10.629802   0.034052  -0.018596
    16  C    0.168318  -0.178733 -10.629802  20.099087  -0.016543   0.009728
    17  C   -0.087920   0.003692   0.034052  -0.016543   7.874590  -0.140012
    18  H    0.017415  -0.000889  -0.018596   0.009728  -0.140012   0.473024
    19  C    0.027020  -0.003740  -0.029049   0.024042  -0.943685   0.031992
    20  H    0.013558   0.000690   0.006845  -0.006240   0.035991  -0.002867
    21  C   -0.630392   0.097228   0.080349  -0.065715   0.016211  -0.012581
    22  C   -2.165357  -0.178315  -0.065742   0.086607  -0.008284   0.006842
    23  C   -0.023667   0.003792  -1.241329   0.675533  -0.011617  -0.001517
    24  H    0.014078  -0.000669   0.578427  -0.091812  -0.002397  -0.000945
    25  C   -0.141243  -0.004244   1.065518  -1.541510   0.004671  -0.000544
    26  H    0.016502  -0.002925  -0.088836   0.530103  -0.000479   0.000124
    27  C    0.026833   0.000116  -0.012038   0.004610   0.685910  -0.006616
    28  H   -0.001393   0.000030   0.001684  -0.000458   0.418495  -0.011381
    29  H   -0.000272  -0.000058   0.000273   0.000026  -0.004318   0.000488
    30  C   -1.571208   0.006134   0.001629   0.010082  -0.006698  -0.001804
    31  H   -0.006823  -0.000798   0.005294  -0.004989  -0.003494  -0.000436
    32  C   -1.307218  -0.008106  -0.009031  -0.003767   0.003247  -0.000246
    33  H   -0.036297  -0.001861   0.003240   0.006792  -0.000181   0.000112
    34  C    0.043419  -0.001227  -0.293867  -0.171869  -0.002170   0.000140
    35  H   -0.001042   0.000145  -0.116430   0.021211   0.000232   0.000021
    36  H   -0.004334  -0.000761   0.016405  -0.093016   0.000025  -0.000005
    37  H    0.000899  -0.000008  -0.000435   0.000152  -0.060648   0.000750
    38  C   -0.221409  -0.002040   0.006394  -0.018763  -0.001504   0.000092
    39  H    0.028136   0.000170  -0.000264   0.000521   0.000241  -0.000002
    40  H    0.023800  -0.000821  -0.000821   0.002757   0.000010  -0.000003
    41  H    0.001268   0.000129   0.000572   0.005652  -0.000053   0.000009
    42  H    0.023349   0.000159   0.000196  -0.000580  -0.000032   0.000005
              19         20         21         22         23         24
     1  C   -0.418172   0.056048  -0.511793  -0.071786   0.374915  -0.083404
     2  C    0.305306  -0.048623  -0.538579   0.149722   0.656921  -0.036786
     3  C    0.442415  -0.010745   1.178927  -1.584101   0.135110  -0.045419
     4  C    0.146829  -0.029255   0.102467   0.254854   0.137748   0.032144
     5  H    0.005597  -0.000929  -0.003479   0.001225   0.016146  -0.010861
     6  C   -1.259886   0.058669   0.235440  -0.050497  -0.105943   0.031403
     7  C    0.223937  -0.022879  -0.631652  -0.324011  -0.149030   0.020011
     8  H    0.014371  -0.001989  -0.217896   0.115143  -0.001651  -0.000533
     9  C    0.068980  -0.019881  -0.817743   1.308449  -0.081433  -0.020281
    10  C    0.017717   0.009599  -0.032806   0.207160  -1.595203  -0.023722
    11  C    1.161778  -0.018137   0.106802  -0.049903  -0.002968  -0.000289
    12  C   -2.274718   0.493458  -0.045850   0.051197  -0.017002   0.012172
    13  C    0.027020   0.013558  -0.630392  -2.165357  -0.023667   0.014078
    14  H   -0.003740   0.000690   0.097228  -0.178315   0.003792  -0.000669
    15  C   -0.029049   0.006845   0.080349  -0.065742  -1.241329   0.578427
    16  C    0.024042  -0.006240  -0.065715   0.086607   0.675533  -0.091812
    17  C   -0.943685   0.035991   0.016211  -0.008284  -0.011617  -0.002397
    18  H    0.031992  -0.002867  -0.012581   0.006842  -0.001517  -0.000945
    19  C    8.220011  -0.195238  -0.053512   0.035893   0.008896  -0.001114
    20  H   -0.195238   0.471655   0.011388  -0.009226  -0.001481   0.000469
    21  C   -0.053512   0.011388  18.605250 -10.465561   0.001366   0.004574
    22  C    0.035893  -0.009226 -10.465561  19.824250   0.009102  -0.004034
    23  C    0.008896  -0.001481   0.001366   0.009102   7.755961  -0.087474
    24  H   -0.001114   0.000469   0.004574  -0.004034  -0.087474   0.486798
    25  C   -0.003467  -0.000373  -0.013096   0.008945  -0.713830   0.002105
    26  H    0.000612  -0.000034   0.001660   0.012425  -0.008050   0.000071
    27  C    0.537486  -0.003875  -0.000575  -0.000188  -0.003336   0.000873
    28  H   -0.012560   0.000835   0.000962  -0.000250   0.000135   0.000061
    29  H    0.415784  -0.010966  -0.000286   0.000362   0.000088   0.000008
    30  C    0.006714  -0.002745  -1.272358   0.646027  -0.000325   0.000193
    31  H   -0.001516   0.000666   0.570020  -0.074196   0.000332   0.000367
    32  C   -0.003106   0.000120   0.923708  -1.371945   0.005146  -0.001217
    33  H    0.000121   0.000075  -0.080145   0.510659   0.000658   0.000138
    34  C    0.000412   0.000251   0.007018  -0.019910   0.341078   0.026799
    35  H    0.000008  -0.000019  -0.000268   0.000509   0.432656  -0.011641
    36  H   -0.000016  -0.000006  -0.000824   0.002684   0.011919  -0.000307
    37  H   -0.061346   0.000244  -0.000162   0.000053  -0.000096   0.000023
    38  C    0.000274   0.000365  -0.267035  -0.141731  -0.000028   0.000236
    39  H    0.000007  -0.000028  -0.112970   0.018330  -0.000003  -0.000013
    40  H   -0.000006  -0.000009   0.016357  -0.094618  -0.000017  -0.000012
    41  H    0.000015   0.000006   0.000194  -0.000573  -0.074169   0.001343
    42  H    0.000011   0.000013   0.001286   0.004875   0.000003   0.000006
              25         26         27         28         29         30
     1  C   -0.293406   0.019720  -0.097951  -0.001323  -0.002242   0.476714
     2  C   -0.280189  -0.001718  -0.121361  -0.000839   0.005603   0.116106
     3  C    0.034679  -0.014928  -0.173616   0.002731   0.002047   0.771261
     4  C   -0.247754   0.138377  -0.016479  -0.000548   0.003320  -0.163414
     5  H    0.005340  -0.002099   0.001767  -0.000738  -0.000127  -0.001313
     6  C   -0.035540   0.009491  -0.198565   0.036476   0.025260  -0.067576
     7  C    0.403067  -0.132588  -0.035610   0.000078   0.002757  -0.040429
     8  H    0.004159   0.000020  -0.000873  -0.000425  -0.000018   0.038481
     9  C    0.690521  -0.076280  -0.033432  -0.000474   0.000494  -0.153902
    10  C   -1.154354  -0.042819   0.035043  -0.002242  -0.000352  -0.015099
    11  C    0.011598  -0.000151  -0.598246  -0.089257   0.009734   0.014875
    12  C   -0.011700   0.001768  -0.188953   0.016953  -0.079612  -0.029252
    13  C   -0.141243   0.016502   0.026833  -0.001393  -0.000272  -1.571208
    14  H   -0.004244  -0.002925   0.000116   0.000030  -0.000058   0.006134
    15  C    1.065518  -0.088836  -0.012038   0.001684   0.000273   0.001629
    16  C   -1.541510   0.530103   0.004610  -0.000458   0.000026   0.010082
    17  C    0.004671  -0.000479   0.685910   0.418495  -0.004318  -0.006698
    18  H   -0.000544   0.000124  -0.006616  -0.011381   0.000488  -0.001804
    19  C   -0.003467   0.000612   0.537486  -0.012560   0.415784   0.006714
    20  H   -0.000373  -0.000034  -0.003875   0.000835  -0.010966  -0.002745
    21  C   -0.013096   0.001660  -0.000575   0.000962  -0.000286  -1.272358
    22  C    0.008945   0.012425  -0.000188  -0.000250   0.000362   0.646027
    23  C   -0.713830  -0.008050  -0.003336   0.000135   0.000088  -0.000325
    24  H    0.002105   0.000071   0.000873   0.000061   0.000008   0.000193
    25  C    7.864242  -0.062545  -0.000219   0.000008  -0.000005   0.005244
    26  H   -0.062545   0.498742   0.000093  -0.000001   0.000009   0.000792
    27  C   -0.000219   0.000093   6.179327  -0.046537  -0.050181  -0.001529
    28  H    0.000008  -0.000001  -0.046537   0.477204  -0.000219   0.000086
    29  H   -0.000005   0.000009  -0.050181  -0.000219   0.474870   0.000106
    30  C    0.005244   0.000792  -0.001529   0.000086   0.000106   7.783640
    31  H   -0.001467   0.000103   0.001189   0.000011  -0.000009  -0.104885
    32  C   -0.013792  -0.003585  -0.000421  -0.000002  -0.000019  -0.676028
    33  H   -0.000738  -0.005316   0.000056  -0.000002   0.000011  -0.006419
    34  C    0.428030   0.026100   0.000140   0.000012   0.000004   0.000088
    35  H    0.007048  -0.000456  -0.000016  -0.000003  -0.000000   0.000001
    36  H    0.418555  -0.011857  -0.000002  -0.000000  -0.000000  -0.000027
    37  H   -0.000004   0.000003   0.441164  -0.008965  -0.008344  -0.000054
    38  C   -0.004306  -0.000800   0.000227   0.000008   0.000003   0.337573
    39  H    0.000060   0.000042  -0.000032  -0.000000   0.000001   0.433177
    40  H    0.000516   0.000516  -0.000001  -0.000000  -0.000000   0.010066
    41  H   -0.069475   0.001945   0.000008  -0.000000  -0.000000   0.000005
    42  H   -0.000135  -0.000030   0.000007   0.000000  -0.000000  -0.072357
              31         32         33         34         35         36
     1  C   -0.075282  -0.287404   0.020216  -0.016014   0.006194  -0.002868
     2  C   -0.046527   0.059103  -0.015282  -0.124770   0.008309  -0.004011
     3  C   -0.033721  -0.217779  -0.007739  -0.027614   0.001584  -0.000049
     4  C    0.019126   0.365181  -0.129206  -0.219867   0.002707  -0.009479
     5  H   -0.000439   0.003252  -0.000130  -0.012327   0.000880   0.000547
     6  C    0.033860  -0.056175   0.009416   0.033122  -0.002304  -0.000606
     7  C    0.020750  -0.038602   0.133150  -0.015616   0.001184   0.012371
     8  H   -0.011459   0.003350  -0.002535  -0.000206  -0.000007  -0.000009
     9  C   -0.022329   0.639850  -0.068387  -0.094716   0.003707   0.018400
    10  C    0.013003  -0.142583   0.020154  -0.223206   0.029359   0.024297
    11  C   -0.003954   0.004775   0.000996  -0.002245   0.000257   0.000141
    12  C    0.014275  -0.008937   0.000553   0.004580  -0.000453  -0.000203
    13  C   -0.006823  -1.307218  -0.036297   0.043419  -0.001042  -0.004334
    14  H   -0.000798  -0.008106  -0.001861  -0.001227   0.000145  -0.000761
    15  C    0.005294  -0.009031   0.003240  -0.293867  -0.116430   0.016405
    16  C   -0.004989  -0.003767   0.006792  -0.171869   0.021211  -0.093016
    17  C   -0.003494   0.003247  -0.000181  -0.002170   0.000232   0.000025
    18  H   -0.000436  -0.000246   0.000112   0.000140   0.000021  -0.000005
    19  C   -0.001516  -0.003106   0.000121   0.000412   0.000008  -0.000016
    20  H    0.000666   0.000120   0.000075   0.000251  -0.000019  -0.000006
    21  C    0.570020   0.923708  -0.080145   0.007018  -0.000268  -0.000824
    22  C   -0.074196  -1.371945   0.510659  -0.019910   0.000509   0.002684
    23  C    0.000332   0.005146   0.000658   0.341078   0.432656   0.011919
    24  H    0.000367  -0.001217   0.000138   0.026799  -0.011641  -0.000307
    25  C   -0.001467  -0.013792  -0.000738   0.428030   0.007048   0.418555
    26  H    0.000103  -0.003585  -0.005316   0.026100  -0.000456  -0.011857
    27  C    0.001189  -0.000421   0.000056   0.000140  -0.000016  -0.000002
    28  H    0.000011  -0.000002  -0.000002   0.000012  -0.000003  -0.000000
    29  H   -0.000009  -0.000019   0.000011   0.000004  -0.000000  -0.000000
    30  C   -0.104885  -0.676028  -0.006419   0.000088   0.000001  -0.000027
    31  H    0.481839   0.000866   0.000220   0.000234  -0.000014  -0.000011
    32  C    0.000866   7.802390  -0.054908  -0.004961   0.000053   0.000678
    33  H    0.000220  -0.054908   0.497950  -0.001149   0.000047   0.000567
    34  C    0.000234  -0.004961  -0.001149   6.400593  -0.069092  -0.066051
    35  H   -0.000014   0.000053   0.000047  -0.069092   0.475794   0.001104
    36  H   -0.000011   0.000678   0.000567  -0.066051   0.001104   0.475226
    37  H    0.000036  -0.000008   0.000002   0.000005  -0.000001  -0.000000
    38  C    0.024605   0.394685   0.021461  -0.000192  -0.000002   0.000097
    39  H   -0.010904   0.008147  -0.000372  -0.000001   0.000000  -0.000001
    40  H   -0.000260   0.419215  -0.011459   0.000097  -0.000001  -0.000047
    41  H    0.000006  -0.000152  -0.000041   0.467121  -0.011275  -0.011861
    42  H    0.001278  -0.068290   0.001640  -0.000000  -0.000000   0.000001
              37         38         39         40         41         42
     1  C   -0.002771  -0.035113   0.006009  -0.002816   0.001180   0.000846
     2  C   -0.005148  -0.032328   0.001565   0.000119  -0.003466  -0.000860
     3  C   -0.006389  -0.158436   0.007834  -0.003209  -0.000803  -0.003988
     4  C    0.000606  -0.002810   0.001420   0.012013  -0.007864   0.000640
     5  H    0.000020  -0.000175  -0.000012  -0.000005  -0.000405  -0.000011
     6  C    0.018809   0.033790  -0.002133  -0.000593   0.000922   0.000853
     7  C    0.000230  -0.250062   0.003266  -0.008708   0.000371  -0.007864
     8  H   -0.000100  -0.012209   0.000907   0.000561  -0.000009  -0.000457
     9  C   -0.000821  -0.042973   0.003439   0.016675  -0.006709  -0.005536
    10  C    0.001140   0.043253  -0.000961  -0.004571   0.022573   0.001288
    11  C    0.003550   0.000076   0.000304   0.000067  -0.000102  -0.000053
    12  C    0.006221   0.003340  -0.000514  -0.000130   0.000182   0.000159
    13  C    0.000899  -0.221409   0.028136   0.023800   0.001268   0.023349
    14  H   -0.000008  -0.002040   0.000170  -0.000821   0.000129   0.000159
    15  C   -0.000435   0.006394  -0.000264  -0.000821   0.000572   0.000196
    16  C    0.000152  -0.018763   0.000521   0.002757   0.005652  -0.000580
    17  C   -0.060648  -0.001504   0.000241   0.000010  -0.000053  -0.000032
    18  H    0.000750   0.000092  -0.000002  -0.000003   0.000009   0.000005
    19  C   -0.061346   0.000274   0.000007  -0.000006   0.000015   0.000011
    20  H    0.000244   0.000365  -0.000028  -0.000009   0.000006   0.000013
    21  C   -0.000162  -0.267035  -0.112970   0.016357   0.000194   0.001286
    22  C    0.000053  -0.141731   0.018330  -0.094618  -0.000573   0.004875
    23  C   -0.000096  -0.000028  -0.000003  -0.000017  -0.074169   0.000003
    24  H    0.000023   0.000236  -0.000013  -0.000012   0.001343   0.000006
    25  C   -0.000004  -0.004306   0.000060   0.000516  -0.069475  -0.000135
    26  H    0.000003  -0.000800   0.000042   0.000516   0.001945  -0.000030
    27  C    0.441164   0.000227  -0.000032  -0.000001   0.000008   0.000007
    28  H   -0.008965   0.000008  -0.000000  -0.000000  -0.000000   0.000000
    29  H   -0.008344   0.000003   0.000001  -0.000000  -0.000000  -0.000000
    30  C   -0.000054   0.337573   0.433177   0.010066   0.000005  -0.072357
    31  H    0.000036   0.024605  -0.010904  -0.000260   0.000006   0.001278
    32  C   -0.000008   0.394685   0.008147   0.419215  -0.000152  -0.068290
    33  H    0.000002   0.021461  -0.000372  -0.011459  -0.000041   0.001640
    34  C    0.000005  -0.000192  -0.000001   0.000097   0.467121  -0.000000
    35  H   -0.000001  -0.000002   0.000000  -0.000001  -0.011275  -0.000000
    36  H   -0.000000   0.000097  -0.000001  -0.000047  -0.011861   0.000001
    37  H    0.483165   0.000007  -0.000002  -0.000000   0.000000   0.000000
    38  C    0.000007   6.402988  -0.069660  -0.062879  -0.000000   0.463207
    39  H   -0.000002  -0.069660   0.475123   0.001004  -0.000000  -0.010930
    40  H   -0.000000  -0.062879   0.001004   0.474800   0.000001  -0.011378
    41  H    0.000000  -0.000000  -0.000000   0.000001   0.487542   0.000000
    42  H    0.000000   0.463207  -0.010930  -0.011378   0.000000   0.486381
 Mulliken charges:
               1
     1  C    1.306821
     2  C   -1.455319
     3  C   -1.369776
     4  C    0.897138
     5  H    0.210118
     6  C    0.731473
     7  C    0.923081
     8  H    0.212573
     9  C   -1.550829
    10  C    1.201216
    11  C   -0.488629
    12  C   -0.176258
    13  C    1.192134
    14  H    0.203122
    15  C   -0.191020
    16  C   -0.561327
    17  C   -0.277155
    18  H    0.212909
    19  C   -0.435095
    20  H    0.224597
    21  C   -0.185928
    22  C   -0.575081
    23  C   -0.447334
    24  H    0.210630
    25  C   -0.360366
    26  H    0.196282
    27  C   -0.324195
    28  H    0.221847
    29  H    0.215779
    30  C   -0.471572
    31  H    0.215436
    32  C   -0.355482
    33  H    0.193933
    34  C   -0.412172
    35  H    0.220015
    36  H    0.223335
    37  H    0.198223
    38  C   -0.408228
    39  H    0.219101
    40  H    0.223790
    41  H    0.195915
    42  H    0.196300
 Sum of Mulliken charges =  -0.00000
 Mulliken charges with hydrogens summed into heavy atoms:
               1
     1  C    1.306821
     2  C   -1.245201
     3  C   -1.157202
     4  C    0.897138
     6  C    0.731473
     7  C    0.923081
     9  C   -1.347707
    10  C    1.201216
    11  C   -0.275720
    12  C    0.048338
    13  C    1.192134
    15  C    0.019610
    16  C   -0.365045
    17  C   -0.055308
    19  C   -0.219316
    21  C    0.029508
    22  C   -0.381148
    23  C   -0.227319
    25  C   -0.137032
    27  C   -0.125972
    30  C   -0.252471
    32  C   -0.131693
    34  C   -0.216257
    38  C   -0.211929
 Electronic spatial extent (au):  <R**2>=          10005.9496
 Charge=             -0.0000 electrons
 Dipole moment (field-independent basis, Debye):
    X=             -0.0250    Y=              0.0008    Z=             -0.0026  Tot=              0.0251
 Quadrupole moment (field-independent basis, Debye-Ang):
   XX=           -126.6289   YY=           -130.7458   ZZ=           -137.0572
   XY=              0.0006   XZ=              6.3878   YZ=             -0.8413
 Traceless Quadrupole moment (field-independent basis, Debye-Ang):
   XX=              4.8484   YY=              0.7315   ZZ=             -5.5799
   XY=              0.0006   XZ=              6.3878   YZ=             -0.8413
 Octapole moment (field-independent basis, Debye-Ang**2):
  XXX=            -33.6471  YYY=              2.5051  ZZZ=              2.2719  XYY=             55.0297
  XXY=             -1.4964  XXZ=             31.4187  XZZ=            -20.9819  YZZ=             -0.9781
  YYZ=            -33.8768  XYZ=              5.1693
 Hexadecapole moment (field-independent basis, Debye-Ang**3):
 XXXX=          -6269.1083 YYYY=          -6135.4557 ZZZZ=           -631.4398 XXXY=              1.5186
 XXXZ=            116.7299 YYYX=             -3.7608 YYYZ=              4.6506 ZZZX=              9.1153
 ZZZY=             -6.5218 XXYY=          -2155.5781 XXZZ=          -1163.5303 YYZZ=          -1239.8917
 XXYZ=            -18.5283 YYXZ=             37.6101 ZZXY=              2.5197
 N-N= 1.730516798951D+03 E-N=-5.607545191879D+03  KE= 9.212948750565D+02
 No NMR shielding tensors so no spin-rotation constants.
 Leave Link  601 at Mon Nov 14 15:24:41 2022, MaxMem= 16106127360 cpu:              18.8 elap:               0.7
 (Enter /opt/ap/G16/B01/g16/l9999.exe)
 1\1\GINC-N62\SP\RwB97XD\6-311++G(d,p)\C24H18\ROOT\14-Nov-2022\0\\#P wB
 97XD/6-311++G(d,p) scf=maxcycle=512\\_conf035.gjf nmol_natom 1_42\\0,1
 \C\C,1,1.39412829\C,1,1.39435449,2,118.86443127\C,2,1.39416084,1,121.1
 529487,3,0.03668482,0\H,2,1.08488355,1,119.42236619,3,-179.97409048,0\
 C,1,1.48467131,2,120.55714816,4,179.25839056,0\C,3,1.39437784,1,121.11
 776116,2,-0.05351271,0\H,3,1.08487775,1,119.41869036,2,177.23008049,0\
 C,4,1.39432447,2,118.86473838,1,0.01008406,0\C,4,1.48466627,2,120.5464
 188,1,179.19454736,0\C,6,1.3968498,1,120.7843492,2,85.,0\C,6,1.3968682
 ,1,120.67653841,2,-95.,0\C,7,1.48449863,3,120.56496838,1,-179.96325804
 ,0\H,9,1.0848792,4,119.41824946,2,177.22245984,0\C,10,1.39685361,4,120
 .76946845,2,-42.52368674,0\C,10,1.39686289,4,120.69448769,2,137.431075
 16,0\C,11,1.38888939,6,120.7380073,1,179.94058542,0\H,11,1.0847641,6,1
 19.46912378,1,-1.41050605,0\C,12,1.38882428,6,120.76493111,1,-179.9508
 2712,0\H,12,1.08482758,6,119.44182626,1,-1.23602505,0\C,13,1.39682899,
 7,120.74134419,3,42.89023273,0\C,13,1.39683158,7,120.7379111,3,-137.12
 494058,0\C,15,1.38888263,10,120.742191,4,179.9460119,0\H,15,1.08476334
 ,10,119.47085903,4,-1.40606944,0\C,16,1.38886088,10,120.76338989,4,-17
 9.95592713,0\H,16,1.08483431,10,119.44215232,4,-1.23439681,0\C,17,1.39
 007919,11,120.20743432,6,0.00349958,0\H,17,1.0843506,11,119.71318733,6
 ,179.5011609,0\H,19,1.08435858,12,119.73823132,6,179.53683762,0\C,21,1
 .38882373,13,120.76699356,7,179.99297883,0\H,21,1.0847938,13,119.43526
 23,7,1.32183327,0\C,22,1.38881869,13,120.76647403,7,-179.97118338,0\H,
 22,1.08479982,13,119.43203605,7,1.34657928,0\C,23,1.39007007,15,120.20
 732995,10,0.00573957,0\H,23,1.08434813,15,119.71220819,10,179.50724368
 ,0\H,25,1.08436328,16,119.73539424,10,179.53636455,0\H,27,1.08412515,1
 7,120.21790854,11,179.98397203,0\C,30,1.39008059,21,120.18795226,13,-0
 .02169059,0\H,30,1.08435324,21,119.73787119,13,-179.52151214,0\H,32,1.
 0843543,22,119.737043,13,-179.52886928,0\H,34,1.08412314,23,120.221528
 03,15,179.98800213,0\H,38,1.08411439,30,120.21547163,21,-179.98600656,
 0\\Version=ES64L-G16RevB.01\State=1-A\HF=-925.3090699\RMSD=3.767e-09\D
 ipole=-0.0086521,0.0013027,-0.0045958\Quadrupole=2.5776128,-3.8531281,
 1.2755153,-4.6377327,1.2333533,-1.8992597\PG=C01 [X(C24H18)]\\@


 TO BEHOLD HARMS OF OUR OWN HANDS DOING,
 WHERE NONE BESIDE US WROUGHT,
 CAUSES SHARP RUING...

                                         SOPHOCLES
 Job cpu time:       0 days  1 hours 23 minutes 12.1 seconds.
 Elapsed time:       0 days  0 hours  2 minutes 36.7 seconds.
 File lengths (MBytes):  RWF=    224 Int=      0 D2E=      0 Chk=     26 Scr=      1
 Normal termination of Gaussian 16 at Mon Nov 14 15:24:41 2022.
