 Entering Gaussian System, Link 0=g16
 Input=_conf015.gjf
 Output=_conf015.log
 Initial command:
 /opt/ap/G16/B01/g16/l1.exe "/tmp2/scr/Gau-22928.inp" -scrdir="/tmp2/scr/"
 Entering Link 1 = /opt/ap/G16/B01/g16/l1.exe PID=     22929.
  
 Copyright (c) 1988-2017, Gaussian, Inc.  All Rights Reserved.
  
 This is part of the Gaussian(R) 16 program.  It is based on
 the Gaussian(R) 09 system (copyright 2009, Gaussian, Inc.),
 the Gaussian(R) 03 system (copyright 2003, Gaussian, Inc.),
 the Gaussian(R) 98 system (copyright 1998, Gaussian, Inc.),
 the Gaussian(R) 94 system (copyright 1995, Gaussian, Inc.),
 the Gaussian 92(TM) system (copyright 1992, Gaussian, Inc.),
 the Gaussian 90(TM) system (copyright 1990, Gaussian, Inc.),
 the Gaussian 88(TM) system (copyright 1988, Gaussian, Inc.),
 the Gaussian 86(TM) system (copyright 1986, Carnegie Mellon
 University), and the Gaussian 82(TM) system (copyright 1983,
 Carnegie Mellon University). Gaussian is a federally registered
 trademark of Gaussian, Inc.
  
 This software contains proprietary and confidential information,
 including trade secrets, belonging to Gaussian, Inc.
  
 This software is provided under written license and may be
 used, copied, transmitted, or stored only in accord with that
 written license.
  
 The following legend is applicable only to US Government
 contracts under FAR:
  
                    RESTRICTED RIGHTS LEGEND
  
 Use, reproduction and disclosure by the US Government is
 subject to restrictions as set forth in subparagraphs (a)
 and (c) of the Commercial Computer Software - Restricted
 Rights clause in FAR 52.227-19.
  
 Gaussian, Inc.
 340 Quinnipiac St., Bldg. 40, Wallingford CT 06492
  
  
 ---------------------------------------------------------------
 Warning -- This program may not be used in any manner that
 competes with the business of Gaussian, Inc. or will provide
 assistance to any competitor of Gaussian, Inc.  The licensee
 of this program is prohibited from giving any competitor of
 Gaussian, Inc. access to this program.  By using this program,
 the user acknowledges that Gaussian, Inc. is engaged in the
 business of creating and licensing software in the field of
 computational chemistry and represents and warrants to the
 licensee that it is not a competitor of Gaussian, Inc. and that
 it will not use this program in any manner prohibited above.
 ---------------------------------------------------------------
  

 Cite this work as:
 Gaussian 16, Revision B.01,
 M. J. Frisch, G. W. Trucks, H. B. Schlegel, G. E. Scuseria, 
 M. A. Robb, J. R. Cheeseman, G. Scalmani, V. Barone, 
 G. A. Petersson, H. Nakatsuji, X. Li, M. Caricato, A. V. Marenich, 
 J. Bloino, B. G. Janesko, R. Gomperts, B. Mennucci, H. P. Hratchian, 
 J. V. Ortiz, A. F. Izmaylov, J. L. Sonnenberg, D. Williams-Young, 
 F. Ding, F. Lipparini, F. Egidi, J. Goings, B. Peng, A. Petrone, 
 T. Henderson, D. Ranasinghe, V. G. Zakrzewski, J. Gao, N. Rega, 
 G. Zheng, W. Liang, M. Hada, M. Ehara, K. Toyota, R. Fukuda, 
 J. Hasegawa, M. Ishida, T. Nakajima, Y. Honda, O. Kitao, H. Nakai, 
 T. Vreven, K. Throssell, J. A. Montgomery, Jr., J. E. Peralta, 
 F. Ogliaro, M. J. Bearpark, J. J. Heyd, E. N. Brothers, K. N. Kudin, 
 V. N. Staroverov, T. A. Keith, R. Kobayashi, J. Normand, 
 K. Raghavachari, A. P. Rendell, J. C. Burant, S. S. Iyengar, 
 J. Tomasi, M. Cossi, J. M. Millam, M. Klene, C. Adamo, R. Cammi, 
 J. W. Ochterski, R. L. Martin, K. Morokuma, O. Farkas, 
 J. B. Foresman, and D. J. Fox, Gaussian, Inc., Wallingford CT, 2016.
 
 ******************************************
 Gaussian 16:  ES64L-G16RevB.01 20-Dec-2017
                14-Nov-2022 
 ******************************************
 %nprocshared=32
 Will use up to   32 processors via shared memory.
 %mem=120GB
 %chk=_conf015.chk
 ----------------------------------------
 #P wB97XD/6-311++G(d,p) scf=maxcycle=512
 ----------------------------------------
 1/38=1,172=1/1;
 2/12=2,17=6,18=5,40=1/2;
 3/5=4,6=6,7=1111,11=2,25=1,30=1,74=-58/1,2,3;
 4//1;
 5/5=2,7=512,38=5/2;
 6/7=2,8=2,9=2,10=2,28=1/1;
 99/5=1,9=1/99;
 Leave Link    1 at Mon Nov 14 15:09:24 2022, MaxMem= 16106127360 cpu:               1.8 elap:               0.1
 (Enter /opt/ap/G16/B01/g16/l101.exe)
 ----------------------------
 _conf015.gjf nmol_natom 1_42
 ----------------------------
 Symbolic Z-matrix:
 Charge =  0 Multiplicity = 1
 C
 C                    1     1.39413 
 C                    1     1.39435  2     118.86443 
 C                    2     1.39416  1     121.15295  3     0.03668  0
 H                    2     1.08488  1     119.42237  3    -179.97409  0
 C                    1     1.48467  2     120.55715  4     179.25839  0
 C                    3     1.39438  1     121.11776  2    -0.05351  0
 H                    3     1.08488  1     119.41869  2     177.23008  0
 C                    4     1.39432  2     118.86474  1     0.01008  0
 C                    4     1.48467  2     120.54642  1     179.19455  0
 C                    6     1.39685  1     120.78435  2    -15.      0
 C                    6     1.39687  1     120.67654  2     165.     0
 C                    7     1.4845   3     120.56497  1    -179.96326  0
 H                    9     1.08488  4     119.41825  2     177.22246  0
 C                    10    1.39685  4     120.76947  2    -42.52369  0
 C                    10    1.39686  4     120.69449  2     137.43108  0
 C                    11    1.38889  6     120.73801  1     179.94059  0
 H                    11    1.08476  6     119.46912  1    -1.41051  0
 C                    12    1.38882  6     120.76493  1    -179.95083  0
 H                    12    1.08483  6     119.44183  1    -1.23603  0
 C                    13    1.39683  7     120.74134  3     42.89023  0
 C                    13    1.39683  7     120.73791  3    -137.12494  0
 C                    15    1.38888  10    120.74219  4     179.94601  0
 H                    15    1.08476  10    119.47086  4    -1.40607  0
 C                    16    1.38886  10    120.76339  4    -179.95593  0
 H                    16    1.08483  10    119.44215  4    -1.2344   0
 C                    17    1.39008  11    120.20743  6     0.0035   0
 H                    17    1.08435  11    119.71319  6     179.50116  0
 H                    19    1.08436  12    119.73823  6     179.53684  0
 C                    21    1.38882  13    120.76699  7     179.99298  0
 H                    21    1.08479  13    119.43526  7     1.32183  0
 C                    22    1.38882  13    120.76647  7    -179.97118  0
 H                    22    1.0848   13    119.43204  7     1.34658  0
 C                    23    1.39007  15    120.20733  10    0.00574  0
 H                    23    1.08435  15    119.71221  10    179.50724  0
 H                    25    1.08436  16    119.73539  10    179.53636  0
 H                    27    1.08413  17    120.21791  11    179.98397  0
 C                    30    1.39008  21    120.18795  13   -0.02169  0
 H                    30    1.08435  21    119.73787  13   -179.52151  0
 H                    32    1.08435  22    119.73704  13   -179.52887  0
 H                    34    1.08412  23    120.22153  15    179.988  0
 H                    38    1.08411  30    120.21547  21   -179.98601  0
 
 ITRead=  0  0  0  0  0  0  0  0  0  0  0  0  0  0  0  0  0  0  0  0
 ITRead=  0  0  0  0  0  0  0  0  0  0  0  0  0  0  0  0  0  0  0  0
 ITRead=  0  0
 MicOpt= -1 -1 -1 -1 -1 -1 -1 -1 -1 -1 -1 -1 -1 -1 -1 -1 -1 -1 -1 -1
 MicOpt= -1 -1 -1 -1 -1 -1 -1 -1 -1 -1 -1 -1 -1 -1 -1 -1 -1 -1 -1 -1
 MicOpt= -1 -1
 NAtoms=     42 NQM=       42 NQMF=       0 NMMI=      0 NMMIF=      0
                NMic=       0 NMicF=      0.
                    Isotopes and Nuclear Properties:
 (Nuclear quadrupole moments (NQMom) in fm**2, nuclear magnetic moments (NMagM)
  in nuclear magnetons)

  Atom         1           2           3           4           5           6           7           8           9          10
 IAtWgt=          12          12          12          12           1          12          12           1          12          12
 AtmWgt=  12.0000000  12.0000000  12.0000000  12.0000000   1.0078250  12.0000000  12.0000000   1.0078250  12.0000000  12.0000000
 NucSpn=           0           0           0           0           1           0           0           1           0           0
 AtZEff=  -0.0000000  -0.0000000  -0.0000000  -0.0000000  -0.0000000  -0.0000000  -0.0000000  -0.0000000  -0.0000000  -0.0000000
 NQMom=    0.0000000   0.0000000   0.0000000   0.0000000   0.0000000   0.0000000   0.0000000   0.0000000   0.0000000   0.0000000
 NMagM=    0.0000000   0.0000000   0.0000000   0.0000000   2.7928460   0.0000000   0.0000000   2.7928460   0.0000000   0.0000000
 AtZNuc=   6.0000000   6.0000000   6.0000000   6.0000000   1.0000000   6.0000000   6.0000000   1.0000000   6.0000000   6.0000000

  Atom        11          12          13          14          15          16          17          18          19          20
 IAtWgt=          12          12          12           1          12          12          12           1          12           1
 AtmWgt=  12.0000000  12.0000000  12.0000000   1.0078250  12.0000000  12.0000000  12.0000000   1.0078250  12.0000000   1.0078250
 NucSpn=           0           0           0           1           0           0           0           1           0           1
 AtZEff=  -0.0000000  -0.0000000  -0.0000000  -0.0000000  -0.0000000  -0.0000000  -0.0000000  -0.0000000  -0.0000000  -0.0000000
 NQMom=    0.0000000   0.0000000   0.0000000   0.0000000   0.0000000   0.0000000   0.0000000   0.0000000   0.0000000   0.0000000
 NMagM=    0.0000000   0.0000000   0.0000000   2.7928460   0.0000000   0.0000000   0.0000000   2.7928460   0.0000000   2.7928460
 AtZNuc=   6.0000000   6.0000000   6.0000000   1.0000000   6.0000000   6.0000000   6.0000000   1.0000000   6.0000000   1.0000000

  Atom        21          22          23          24          25          26          27          28          29          30
 IAtWgt=          12          12          12           1          12           1          12           1           1          12
 AtmWgt=  12.0000000  12.0000000  12.0000000   1.0078250  12.0000000   1.0078250  12.0000000   1.0078250   1.0078250  12.0000000
 NucSpn=           0           0           0           1           0           1           0           1           1           0
 AtZEff=  -0.0000000  -0.0000000  -0.0000000  -0.0000000  -0.0000000  -0.0000000  -0.0000000  -0.0000000  -0.0000000  -0.0000000
 NQMom=    0.0000000   0.0000000   0.0000000   0.0000000   0.0000000   0.0000000   0.0000000   0.0000000   0.0000000   0.0000000
 NMagM=    0.0000000   0.0000000   0.0000000   2.7928460   0.0000000   2.7928460   0.0000000   2.7928460   2.7928460   0.0000000
 AtZNuc=   6.0000000   6.0000000   6.0000000   1.0000000   6.0000000   1.0000000   6.0000000   1.0000000   1.0000000   6.0000000

  Atom        31          32          33          34          35          36          37          38          39          40
 IAtWgt=           1          12           1          12           1           1           1          12           1           1
 AtmWgt=   1.0078250  12.0000000   1.0078250  12.0000000   1.0078250   1.0078250   1.0078250  12.0000000   1.0078250   1.0078250
 NucSpn=           1           0           1           0           1           1           1           0           1           1
 AtZEff=  -0.0000000  -0.0000000  -0.0000000  -0.0000000  -0.0000000  -0.0000000  -0.0000000  -0.0000000  -0.0000000  -0.0000000
 NQMom=    0.0000000   0.0000000   0.0000000   0.0000000   0.0000000   0.0000000   0.0000000   0.0000000   0.0000000   0.0000000
 NMagM=    2.7928460   0.0000000   2.7928460   0.0000000   2.7928460   2.7928460   2.7928460   0.0000000   2.7928460   2.7928460
 AtZNuc=   1.0000000   6.0000000   1.0000000   6.0000000   1.0000000   1.0000000   1.0000000   6.0000000   1.0000000   1.0000000

  Atom        41          42
 IAtWgt=           1           1
 AtmWgt=   1.0078250   1.0078250
 NucSpn=           1           1
 AtZEff=  -0.0000000  -0.0000000
 NQMom=    0.0000000   0.0000000
 NMagM=    2.7928460   2.7928460
 AtZNuc=   1.0000000   1.0000000
 Leave Link  101 at Mon Nov 14 15:09:24 2022, MaxMem= 16106127360 cpu:               5.5 elap:               0.2
 (Enter /opt/ap/G16/B01/g16/l202.exe)
                          Input orientation:                          
 ---------------------------------------------------------------------
 Center     Atomic      Atomic             Coordinates (Angstroms)
 Number     Number       Type             X           Y           Z
 ---------------------------------------------------------------------
      1          6           0        0.000000    0.000000    0.000000
      2          6           0        0.000000    0.000000    1.394128
      3          6           0        1.221126    0.000000   -0.673109
      4          6           0        1.193108    0.000764    2.115362
      5          1           0       -0.944957   -0.000427    1.927071
      6          6           0       -1.278366   -0.017366   -0.754803
      7          6           0        2.428476    0.001115    0.024455
      8          1           0        1.232154   -0.045667   -1.756969
      9          6           0        2.400843    0.001752    1.418572
     10          6           0        1.177445    0.018728    3.599837
     11          6           0       -2.478974   -0.344296   -0.120102
     12          6           0       -1.306310    0.293226   -2.116417
     13          6           0        3.721572    0.001921   -0.704680
     14          1           0        3.334061    0.048144    1.969857
     15          6           0        0.290794    0.844275    4.295193
     16          6           0        2.049080   -0.790881    4.331965
     17          6           0       -3.674499   -0.359050   -0.826868
     18          1           0       -2.471471   -0.610398    0.931490
     19          6           0       -2.501249    0.278537   -2.824045
     20          1           0       -0.385548    0.568861   -2.619482
     21          6           0        3.910862    0.818865   -1.821777
     22          6           0        4.776237   -0.814044   -0.288725
     23          6           0        0.275860    0.859807    5.683909
     24          1           0       -0.377402    1.495584    3.742000
     25          6           0        2.035025   -0.775886    5.720674
     26          1           0        2.729408   -1.453102    3.807101
     27          6           0       -3.690106   -0.047017   -2.181383
     28          1           0       -4.595652   -0.623153   -0.319381
     29          1           0       -2.504824    0.529746   -3.878898
     30          6           0        5.120444    0.820149   -2.504230
     31          1           0        3.109266    1.474569   -2.144691
     32          6           0        5.986440   -0.813321   -0.970068
     33          1           0        4.638168   -1.470412    0.563864
     34          6           0        1.147946    0.049642    6.401818
     35          1           0       -0.413890    1.513063    6.206701
     36          1           0        2.713797   -1.416787    6.272362
     37          1           0       -4.623162   -0.058733   -2.733286
     38          6           0        6.162883    0.003944   -2.080611
     39          1           0        5.251831    1.466740   -3.364741
     40          1           0        6.791448   -1.459089   -0.637249
     41          1           0        1.136620    0.061726    7.485815
     42          1           0        7.107346    0.004761   -2.612865
 ---------------------------------------------------------------------
                    Distance matrix (angstroms):
                    1          2          3          4          5
     1  C    0.000000
     2  C    1.394128   0.000000
     3  C    1.394354   2.400962   0.000000
     4  C    2.428634   1.394161   2.788612   0.000000
     5  H    2.146287   1.084884   3.384206   2.146341   0.000000
     6  C    1.484671   2.500485   2.500887   3.787659   2.702572
     7  C    2.428599   2.788100   1.394378   2.428585   3.872983
     8  H    2.146445   3.383741   1.084878   3.872806   4.279487
     9  C    2.788619   2.400968   2.401430   1.394324   3.384222
    10  C    3.787552   2.500376   4.273210   1.484666   2.702426
    11  C    2.505649   2.925192   3.757007   4.312836   2.581157
    12  C    2.504326   3.757174   2.925244   4.923472   4.070209
    13  C    3.787700   4.272598   2.500646   3.787581   5.357482
    14  H    3.872805   3.383747   3.384092   2.146415   4.279508
    15  C    4.387032   3.035381   5.124680   2.505463   2.801537
    16  C    4.856969   3.668120   5.134371   2.504540   3.920790
    17  C    3.783460   4.308559   4.911181   5.699103   3.893993
    18  H    2.710799   2.587429   4.072174   3.899258   1.921845
    19  C    3.782732   4.911906   4.308154   6.174396   5.007291
    20  H    2.708124   4.072016   2.587155   5.023309   4.616077
    21  C    4.391384   5.129076   3.037212   4.853507   6.189029
    22  C    4.853707   5.129045   3.667320   4.391169   6.189006
    23  C    5.755188   4.383786   6.484171   3.783362   4.042800
    24  H    4.047440   2.809218   4.928007   2.710524   2.419532
    25  C    6.121229   4.843792   6.491910   3.782894   4.886007
    26  H    4.904609   3.922195   4.945574   2.708491   4.375585
    27  C    4.286902   5.138421   5.137831   6.504620   4.941397
    28  H    4.648692   4.944133   5.860746   6.310862   4.331501
    29  H    4.647647   5.861705   4.943725   7.062979   6.035192
    30  C    5.758711   6.487587   4.385239   6.118495   7.556379
    31  H    4.054822   4.936104   2.811579   4.898143   5.932249
    32  C    6.118822   6.487555   4.843334   5.758354   7.556353
    33  H    4.898230   4.935996   3.920254   4.054620   5.932156
    34  C    6.504116   5.137821   7.075480   4.286973   4.940255
    35  H    6.401859   5.061770   7.231488   4.648499   4.570330
    36  H    6.979577   5.759266   7.243957   4.647859   5.854410
    37  H    5.371027   6.197792   6.197054   7.572445   5.937298
    38  C    6.504621   7.074953   5.138292   6.504219   8.159837
    39  H    6.407382   7.237395   5.063871   6.975231   8.279857
    40  H    6.975586   7.237348   5.758361   6.406985   8.279819
    41  H    7.571865   6.197125   8.159595   5.371096   5.936031
    42  H    7.572414   8.159067   6.197601   7.571945   9.243951
                    6          7          8          9         10
     6  C    0.000000
     7  C    3.787910   0.000000
     8  H    2.703303   2.146356   0.000000
     9  C    4.273231   1.394392   3.384102   0.000000
    10  C    4.999520   3.787973   5.357472   2.500981   0.000000
    11  C    1.396850   4.921714   4.067061   5.128341   5.228684
    12  C    1.396868   4.314775   2.586088   5.130701   6.238585
    13  C    5.000226   1.484499   2.703105   2.500505   5.000173
    14  H    5.357476   2.146366   4.279725   1.084879   2.703459
    15  C    5.357906   4.849723   6.189251   3.665665   1.396854
    16  C    6.127433   4.396117   6.188524   3.039714   1.396863
    17  C    2.421445   6.172582   5.003852   6.487061   6.578738
    18  H    2.149133   5.020572   4.611244   4.934716   4.564040
    19  C    2.421728   5.700272   3.896416   6.488985   7.407196
    20  H    2.148909   3.902751   1.933528   4.938772   6.436266
    21  C    5.363376   2.504946   2.815510   3.667109   6.124188
    22  C    6.124553   2.504906   3.912375   3.036921   5.363369
    23  C    6.681472   6.115597   7.556523   4.841994   2.421492
    24  H    4.829285   4.891475   5.933362   3.917716   2.149154
    25  C    7.313393   5.762417   7.555989   4.387097   2.421736
    26  H    6.239756   4.063707   5.931401   2.815959   2.148914
    27  C    2.802231   6.504236   4.940523   7.075431   7.557770
    28  H    3.400141   7.060191   6.030213   7.236154   7.007205
    29  H    3.400515   6.312928   4.335745   7.239305   8.351750
    30  C    6.686306   3.783088   4.053003   4.842972   7.310892
    31  H    4.838282   2.709194   2.446425   3.920191   6.233057
    32  C    7.311449   3.783053   4.879728   4.384797   6.686012
    33  H    6.233426   2.709077   4.360860   2.811302   4.838519
    34  C    7.557031   6.504835   8.159779   5.138559   2.802307
    35  H    7.179977   6.970308   8.280044   5.756123   3.400165
    36  H    8.202243   6.413127   8.279214   5.066504   3.400510
    37  H    3.886356   7.571942   5.936167   8.159548   8.588451
    38  C    7.558466   4.286853   4.941589   5.137824   7.557929
    39  H    7.187337   4.648230   4.585860   5.757987   8.197725
    40  H    8.198432   4.648180   5.844424   5.063385   7.187062
    41  H    8.587561   7.572613   9.243902   6.197846   3.886431
    42  H    8.589123   5.370968   5.937422   6.197069   8.588456
                   11         12         13         14         15
    11  C    0.000000
    12  C    2.401427   0.000000
    13  C    6.237657   5.230435   0.000000
    14  H    6.189775   6.187952   2.702860   0.000000
    15  C    5.345947   6.630471   6.121971   3.911840   0.000000
    16  C    6.365816   7.349528   5.365963   2.816859   2.401387
    17  C    1.388889   2.774296   7.405882   7.556943   6.588402
    18  H    1.084764   3.385835   6.434732   5.934314   4.589192
    19  C    2.774838   1.388824   6.579645   7.555490   7.668058
    20  H    3.385733   1.084828   4.566872   5.930318   6.953130
    21  C    6.714064   5.251856   1.396829   3.911930   7.107943
    22  C    7.272358   6.447006   1.396832   2.815037   6.624314
    23  C    6.536476   7.979308   7.309101   4.879095   1.388883
    24  H    4.766298   6.052238   6.229413   4.360107   1.084763
    25  C    7.394399   8.586473   6.688393   4.054029   2.774755
    26  H    6.616617   7.377313   4.843310   2.448430   3.385708
    27  C    2.409169   2.408832   7.557514   8.159704   7.654280
    28  H    2.144247   3.858608   8.349574   8.280797   6.879316
    29  H    3.859166   2.144462   7.008728   8.278433   8.644662
    30  C    8.049295   6.459970   2.421718   4.878996   8.340159
    31  H    6.215759   4.570961   2.148776   4.360587   7.057844
    32  C    8.520895   7.464768   2.421709   4.052208   7.931644
    33  H    7.238071   6.755083   2.148749   2.446125   6.179018
    34  C    7.472964   8.868091   7.558317   4.941800   2.409154
    35  H    6.909616   8.459238   8.194680   5.843284   2.144229
    36  H    8.305342   9.458172   7.190790   4.587189   3.859086
    37  H    3.392317   3.392036   8.587986   9.243829   8.623335
    38  C    8.868290   7.474879   2.802355   4.940696   8.708529
    39  H    8.577464   6.778249   3.400487   5.843645   9.147346
    40  H    9.351521   8.416189   3.400476   4.585006   8.478973
    41  H    8.431331   9.910820   8.588933   5.937569   3.392325
    42  H    9.911268   8.433225   3.886469   5.936405   9.741223
                   16         17         18         19         20
    16  C    0.000000
    17  C    7.717473   0.000000
    18  H    5.659610   2.145291   0.000000
    19  C    8.547376   2.402446   3.859422   0.000000
    20  H    7.489922   3.858974   4.283822   2.145303   0.000000
    21  C    6.627673   7.740480   7.096298   6.512424   4.376983
    22  C    5.365510   8.480068   7.352529   7.783534   5.829999
    23  C    2.774316   7.712403   5.682853   8.968583   8.334771
    24  H    3.385823   5.931700   4.088918   7.007487   6.428634
    25  C    1.388861   8.697282   6.578159   9.731486   8.787817
    26  H    1.084834   7.980015   6.002369   8.621511   7.422416
    27  C    8.712938   1.390079   3.390052   1.390101   3.389888
    28  H    8.112682   1.084351   2.465154   3.387168   4.943312
    29  H    9.481581   3.387180   4.943772   1.084359   2.465561
    30  C    7.665654   9.030784   8.455046   7.647603   5.512928
    31  H    6.942862   7.149705   6.704819   5.776668   3.641354
    32  C    6.604154   9.672673   8.671410   8.756155   6.725565
    33  H    4.622091   8.501158   7.170896   8.093704   6.287293
    34  C    2.408903   8.699247   6.592444   9.923990   9.165427
    35  H    3.858628   7.975428   6.047360   9.350694   8.876588
    36  H    2.144469   9.608756   7.487468  10.621462   9.623597
    37  H    9.745390   2.150485   4.285405   2.150465   4.285346
    38  C    7.660043   9.923594   9.165274   8.700304   6.594806
    39  H    8.636768   9.457995   9.078629   7.862216   5.756878
    40  H    6.901424  10.525307   9.433075   9.703383   7.716936
    41  H    3.392092   9.613772   7.511940  10.935004  10.231872
    42  H    8.628428  10.934821  10.232038   9.614814   7.514101
                   21         22         23         24         25
    21  C    0.000000
    22  C    2.401148   0.000000
    23  C    8.339678   7.663388   0.000000
    24  H    7.057108   6.938381   2.145221   0.000000
    25  C    7.934139   6.605193   2.402396   3.859344   0.000000
    26  H    6.184005   4.623169   3.858996   4.283837   2.145356
    27  C    7.658576   8.709160   8.855170   6.959892   9.785238
    28  H    8.757704   9.373883   7.872121   6.227158   8.970589
    29  H    6.743617   8.228546   9.964357   7.971001  10.698911
    30  C    1.388824   2.774442   9.514051   8.348527   8.928391
    31  H    1.084794   3.385432   8.348239   6.841814   8.251212
    32  C    2.774430   1.388819   8.926672   8.248218   7.770528
    33  H    3.385417   1.084800   7.118603   6.637291   5.818196
    34  C    8.709358   7.659884   1.390070   3.389995   1.390095
    35  H    9.145591   8.633852   1.084348   2.465033   3.387137
    36  H    8.482109   6.903971   3.387136   4.943698   1.084363
    37  H    8.627317   9.741411   9.782296   7.897576  10.784953
    38  C    2.408878   2.408889   9.781478   8.882743   8.860440
    39  H    2.144453   3.858761  10.344405   9.066139   9.895553
    40  H    3.858751   2.144441   9.369482   8.905073   7.969536
    41  H    9.741711   8.628862   2.150513   4.285366   2.150453
    42  H    3.392063   3.392069  10.781315   9.931179   9.787018
                   26         27         28         29         30
    26  H    0.000000
    27  C    8.890961   0.000000
    28  H    8.448264   2.149185   0.000000
    29  H    9.508073   2.149210   4.286129   0.000000
    30  C    7.121630   8.859006  10.062763   7.753629   0.000000
    31  H    6.643746   6.967641   8.191334   5.951317   2.145313
    32  C    5.817122   9.782129  10.603783   9.075609   2.402462
    33  H    3.763276   8.883839   9.314580   8.646451   3.859075
    34  C    3.389959   9.853296   8.866571  10.920914   9.782234
    35  H    4.943333   9.139332   8.039918  10.346894  10.343562
    36  H    2.465578  10.693552   9.874663  11.578906   9.371467
    37  H    9.938874   1.084125   2.479166   2.479130   9.785844
    38  C    6.969712   9.853637  10.919765   8.867889   1.390081
    39  H    8.143918   9.146039  10.517357   7.829944   1.084353
    40  H    6.021000  10.688371  11.422166  10.044124   3.387152
    41  H    4.285396  10.805731   9.708196  11.943025  10.781792
    42  H    7.906179  10.806194  11.942131   9.709390   2.150451
                   31         32         33         34         35
    31  H    0.000000
    32  C    3.859055   0.000000
    33  H    4.283308   2.145356   0.000000
    34  C    8.883693   8.860047   6.969499   0.000000
    35  H    9.064207   9.893547   8.140394   2.149187   0.000000
    36  H    8.908597   7.970392   6.024369   2.149200   4.286112
    37  H    7.904929  10.781558   9.931580  10.805904  10.005592
    38  C    3.389900   1.390094   3.389946   9.854100  10.686951
    39  H    2.465597   3.387150   4.943418  10.688111  11.122726
    40  H    4.943399   1.084354   2.465647   9.147341  10.372571
    41  H    9.931470   9.787155   7.907066   1.084123   2.479233
    42  H    4.285343   2.150458   4.285392  10.806525  11.688828
                   36         37         38         39         40
    36  H    0.000000
    37  H   11.695169   0.000000
    38  C    9.148051  10.805956   0.000000
    39  H   10.374492  10.012057   2.149134   0.000000
    40  H    8.023201  11.689640   2.149152   4.286037   0.000000
    41  H    2.479104  11.731139  10.806626  11.689465  10.013697
    42  H   10.013557  11.731297   1.084114   2.479039   2.479054
                   41         42
    41  H    0.000000
    42  H   11.731844   0.000000
 Stoichiometry    C24H18
 Framework group  C1[X(C24H18)]
 Deg. of freedom   120
 Full point group                 C1      NOp   1
 Largest Abelian subgroup         C1      NOp   1
 Largest concise Abelian subgroup C1      NOp   1
                         Standard orientation:                         
 ---------------------------------------------------------------------
 Center     Atomic      Atomic             Coordinates (Angstroms)
 Number     Number       Type             X           Y           Z
 ---------------------------------------------------------------------
      1          6           0        0.031037    1.401107   -0.040585
      2          6           0       -1.184566    0.719098   -0.012880
      3          6           0        1.215756    0.665905   -0.028558
      4          6           0       -1.229347   -0.673771    0.027037
      5          1           0       -2.111871    1.282114   -0.022374
      6          6           0        0.063233    2.884258   -0.099538
      7          6           0        1.198587   -0.727790    0.011536
      8          1           0        2.165894    1.185245   -0.095515
      9          6           0       -0.030529   -1.385688    0.039303
     10          6           0       -2.531267   -1.385824    0.074168
     11          6           0       -1.080288    3.611252   -0.438696
     12          6           0        1.239025    3.583376    0.183286
     13          6           0        2.467397   -1.498300    0.024753
     14          1           0       -0.054029   -2.467594    0.116045
     15          6           0       -3.565742   -0.930069    0.894747
     16          6           0       -2.748718   -2.526370   -0.702424
     17          6           0       -1.049404    4.998761   -0.492360
     18          1           0       -1.995447    3.082856   -0.683634
     19          6           0        1.270947    4.970798    0.129682
     20          1           0        2.130400    3.034505    0.467964
     21          6           0        3.539948   -1.094058    0.823097
     22          6           0        2.615189   -2.643904   -0.760668
     23          6           0       -4.783825   -1.595979    0.937558
     24          1           0       -3.405850   -0.058812    1.520892
     25          6           0       -3.966368   -3.193058   -0.660130
     26          1           0       -1.962741   -2.881121   -1.360647
     27          6           0        0.126248    5.683692   -0.207698
     28          1           0       -1.944744    5.546131   -0.765432
     29          1           0        2.190766    5.496950    0.359750
     30          6           0        4.727172   -1.814590    0.835982
     31          1           0        3.433775   -0.219043    1.455436
     32          6           0        3.801744   -3.365535   -0.748308
     33          1           0        1.799496   -2.958925   -1.402694
     34          6           0       -4.988661   -2.729978    0.160138
     35          1           0       -5.572671   -1.232251    1.586584
     36          1           0       -4.119696   -4.072507   -1.275681
     37          1           0        0.150614    6.766725   -0.249788
     38          6           0        4.862296   -2.953292    0.050220
     39          1           0        5.546432   -1.490141    1.467938
     40          1           0        3.901023   -4.248093   -1.370449
     41          1           0       -5.939304   -3.250060    0.193523
     42          1           0        5.788761   -3.516202    0.060106
 ---------------------------------------------------------------------
 Rotational constants (GHZ):           0.2002938           0.1977257           0.1030084
 Leave Link  202 at Mon Nov 14 15:09:24 2022, MaxMem= 16106127360 cpu:               0.4 elap:               0.0
 (Enter /opt/ap/G16/B01/g16/l301.exe)
 Standard basis: 6-311++G(d,p) (5D, 7F)
 Ernie: Thresh=  0.10000D-02 Tol=  0.10000D-05 Strict=F.
 There are   678 symmetry adapted cartesian basis functions of A   symmetry.
 There are   654 symmetry adapted basis functions of A   symmetry.
   654 basis functions,  1026 primitive gaussians,   678 cartesian basis functions
    81 alpha electrons       81 beta electrons
       nuclear repulsion energy      1734.2744742524 Hartrees.
 IExCor= 4639 DFT=T Ex+Corr=wB97XD ExCW=0 ScaHFX=  1.000000
 ScaDFX=  1.000000  1.000000  1.000000  1.000000 ScalE2=  1.000000  1.000000
 IRadAn=      5 IRanWt=     -1 IRanGd=            0 ICorTp=0 IEmpDi=121
 HFx  wShort=  0.000000 wLong=  0.200000 cFull=  0.222036 cShort=  0.000000 cLong=  0.777964
 DFx  wShort=  0.000000 wLong=  0.200000 cFull=  0.000000 cShort=  0.000000 cLong=  1.000000
 NAtoms=   42 NActive=   42 NUniq=   42 SFac= 1.00D+00 NAtFMM=   60 NAOKFM=F Big=F
 Integral buffers will be    131072 words long.
 Raffenetti 2 integral format.
 Two-electron integral symmetry is turned on.
 R6Disp:  Grimme-D2 Dispersion energy=       -0.0287713894 Hartrees.
 Nuclear repulsion after empirical dispersion term =     1734.2457028629 Hartrees.
 Leave Link  301 at Mon Nov 14 15:09:24 2022, MaxMem= 16106127360 cpu:               2.0 elap:               0.1
 (Enter /opt/ap/G16/B01/g16/l302.exe)
 NPDir=0 NMtPBC=     1 NCelOv=     1 NCel=       1 NClECP=     1 NCelD=      1
         NCelK=      1 NCelE2=     1 NClLst=     1 CellRange=     0.0.
 One-electron integrals computed using PRISM.
 One-electron integral symmetry used in STVInt
 NBasis=   654 RedAO= T EigKep=  1.07D-06  NBF=   654
 NBsUse=   645 1.00D-06 EigRej=  6.72D-07 NBFU=   645
 Precomputing XC quadrature grid using
 IXCGrd= 4 IRadAn=           5 IRanWt=          -1 IRanGd=           0 AccXCQ= 0.00D+00.
 Generated NRdTot=       0 NPtTot=           0 NUsed=           0 NTot=          32
 NSgBfM=   669   669   669   669   669 MxSgAt=    42 MxSgA2=    42.
 Leave Link  302 at Mon Nov 14 15:09:25 2022, MaxMem= 16106127360 cpu:              21.1 elap:               0.7
 (Enter /opt/ap/G16/B01/g16/l303.exe)
 DipDrv:  MaxL=1.
 Leave Link  303 at Mon Nov 14 15:09:25 2022, MaxMem= 16106127360 cpu:               3.3 elap:               0.1
 (Enter /opt/ap/G16/B01/g16/l401.exe)
 ExpMin= 3.60D-02 ExpMax= 4.56D+03 ExpMxC= 6.82D+02 IAcc=3 IRadAn=         5 AccDes= 0.00D+00
 Harris functional with IExCor= 4639 and IRadAn=       5 diagonalized for initial guess.
 HarFok:  IExCor= 4639 AccDes= 0.00D+00 IRadAn=         5 IDoV= 1 UseB2=F ITyADJ=14
 ICtDFT=  3500011 ScaDFX=  1.000000  1.000000  1.000000  1.000000
 FoFCou: FMM=F IPFlag=           0 FMFlag=      100000 FMFlg1=           0
         NFxFlg=           0 DoJE=T BraDBF=F KetDBF=T FulRan=T
         wScrn=  0.000000 ICntrl=       500 IOpCl=  0 I1Cent=   200000004 NGrid=           0
         NMat0=    1 NMatS0=      1 NMatT0=    0 NMatD0=    1 NMtDS0=    0 NMtDT0=    0
 Petite list used in FoFCou.
 Harris En= -882.964928837167    
 JPrj=0 DoOrth=F DoCkMO=F.
 Leave Link  401 at Mon Nov 14 15:09:27 2022, MaxMem= 16106127360 cpu:              55.4 elap:               1.7
 (Enter /opt/ap/G16/B01/g16/l502.exe)
 Integral symmetry usage will be decided dynamically.
 Closed shell SCF:
 Using DIIS extrapolation, IDIIS=  1040.
 NGot= 16106127360 LenX= 16105179956 LenY= 16104719594
 Requested convergence on RMS density matrix=1.00D-08 within 512 cycles.
 Requested convergence on MAX density matrix=1.00D-06.
 Requested convergence on             energy=1.00D-06.
 No special actions if energy rises.
 Fock matrices will be formed incrementally for  20 cycles.

 Cycle   1  Pass 1  IDiag  1:
 FoFJK:  IHMeth= 1 ICntrl=       0 DoSepK=T KAlg= 0 I1Cent=           0 FoldK=F
 IRaf=         1 NMat=       1 IRICut=       1 DoRegI=T DoRafI=F ISym2E= 0 IDoP0=0 IntGTp=1.
 FoFCou: FMM=F IPFlag=           0 FMFlag=      100000 FMFlg1=           0
         NFxFlg=           0 DoJE=T BraDBF=F KetDBF=F FulRan=T
         wScrn=  0.000000 ICntrl=       500 IOpCl=  0 I1Cent=           0 NGrid=           0
         NMat0=    1 NMatS0=      1 NMatT0=    0 NMatD0=    1 NMtDS0=    0 NMtDT0=    0
 Symmetry not used in FoFCou.
 E= -925.112429950420    
 DIIS: error= 5.60D-02 at cycle   1 NSaved=   1.
 NSaved= 1 IEnMin= 1 EnMin= -925.112429950420     IErMin= 1 ErrMin= 5.60D-02
 ErrMax= 5.60D-02  0.00D+00 EMaxC= 1.00D-01 BMatC= 1.90D+00 BMatP= 1.90D+00
 IDIUse=3 WtCom= 4.40D-01 WtEn= 5.60D-01
 Coeff-Com:  0.100D+01
 Coeff-En:   0.100D+01
 Coeff:      0.100D+01
 Gap=     0.305 Goal=   None    Shift=    0.000
 GapD=    0.305 DampG=1.000 DampE=0.500 DampFc=0.5000 IDamp=-1.
 Damping current iteration by 5.00D-01
 RMSDP=4.23D-02 MaxDP=5.66D+00              OVMax= 4.45D-02

 Cycle   2  Pass 1  IDiag  1:
 RMSU=  7.10D-03    CP:  8.07D-01
 E= -925.211336359291     Delta-E=       -0.098906408871 Rises=F Damp=T
 DIIS: error= 2.73D-02 at cycle   2 NSaved=   2.
 NSaved= 2 IEnMin= 2 EnMin= -925.211336359291     IErMin= 2 ErrMin= 2.73D-02
 ErrMax= 2.73D-02  0.00D+00 EMaxC= 1.00D-01 BMatC= 4.32D-01 BMatP= 1.90D+00
 IDIUse=3 WtCom= 7.27D-01 WtEn= 2.73D-01
 Coeff-Com: -0.883D+00 0.188D+01
 Coeff-En:   0.000D+00 0.100D+01
 Coeff:     -0.642D+00 0.164D+01
 Gap=     0.313 Goal=   None    Shift=    0.000
 RMSDP=2.53D-02 MaxDP=2.79D+00 DE=-9.89D-02 OVMax= 3.29D-02

 Cycle   3  Pass 1  IDiag  1:
 RMSU=  4.62D-03    CP:  5.68D-01  1.39D+00
 E= -925.300980492171     Delta-E=       -0.089644132880 Rises=F Damp=F
 DIIS: error= 2.75D-03 at cycle   3 NSaved=   3.
 NSaved= 3 IEnMin= 3 EnMin= -925.300980492171     IErMin= 3 ErrMin= 2.75D-03
 ErrMax= 2.75D-03  0.00D+00 EMaxC= 1.00D-01 BMatC= 7.71D-03 BMatP= 4.32D-01
 IDIUse=3 WtCom= 9.73D-01 WtEn= 2.75D-02
 Coeff-Com: -0.354D+00 0.754D+00 0.601D+00
 Coeff-En:   0.000D+00 0.000D+00 0.100D+01
 Coeff:     -0.345D+00 0.733D+00 0.612D+00
 Gap=     0.312 Goal=   None    Shift=    0.000
 RMSDP=2.44D-03 MaxDP=2.60D-01 DE=-8.96D-02 OVMax= 1.86D-02

 Cycle   4  Pass 1  IDiag  1:
 RMSU=  1.94D-03    CP:  5.64D-01  1.51D+00  7.57D-01
 E= -925.308004594929     Delta-E=       -0.007024102758 Rises=F Damp=F
 DIIS: error= 7.53D-04 at cycle   4 NSaved=   4.
 NSaved= 4 IEnMin= 4 EnMin= -925.308004594929     IErMin= 4 ErrMin= 7.53D-04
 ErrMax= 7.53D-04  0.00D+00 EMaxC= 1.00D-01 BMatC= 2.68D-04 BMatP= 7.71D-03
 IDIUse=3 WtCom= 9.92D-01 WtEn= 7.53D-03
 Coeff-Com: -0.108D+00 0.231D+00 0.240D+00 0.637D+00
 Coeff-En:   0.000D+00 0.000D+00 0.000D+00 0.100D+01
 Coeff:     -0.108D+00 0.229D+00 0.238D+00 0.640D+00
 Gap=     0.311 Goal=   None    Shift=    0.000
 RMSDP=7.79D-04 MaxDP=7.58D-02 DE=-7.02D-03 OVMax= 4.21D-03

 Cycle   5  Pass 1  IDiag  1:
 RMSU=  3.87D-04    CP:  5.60D-01  1.56D+00  7.46D-01  7.77D-01
 E= -925.308287343256     Delta-E=       -0.000282748327 Rises=F Damp=F
 DIIS: error= 1.88D-04 at cycle   5 NSaved=   5.
 NSaved= 5 IEnMin= 5 EnMin= -925.308287343256     IErMin= 5 ErrMin= 1.88D-04
 ErrMax= 1.88D-04  0.00D+00 EMaxC= 1.00D-01 BMatC= 2.04D-05 BMatP= 2.68D-04
 IDIUse=3 WtCom= 9.98D-01 WtEn= 1.88D-03
 Coeff-Com:  0.258D-01-0.551D-01-0.286D-01 0.194D+00 0.864D+00
 Coeff-En:   0.000D+00 0.000D+00 0.000D+00 0.000D+00 0.100D+01
 Coeff:      0.258D-01-0.550D-01-0.286D-01 0.193D+00 0.864D+00
 Gap=     0.311 Goal=   None    Shift=    0.000
 RMSDP=2.34D-04 MaxDP=1.35D-02 DE=-2.83D-04 OVMax= 1.61D-03

 Cycle   6  Pass 1  IDiag  1:
 RMSU=  7.72D-05    CP:  5.59D-01  1.56D+00  7.65D-01  8.50D-01  1.17D+00
 E= -925.308313892657     Delta-E=       -0.000026549401 Rises=F Damp=F
 DIIS: error= 5.55D-05 at cycle   6 NSaved=   6.
 NSaved= 6 IEnMin= 6 EnMin= -925.308313892657     IErMin= 6 ErrMin= 5.55D-05
 ErrMax= 5.55D-05  0.00D+00 EMaxC= 1.00D-01 BMatC= 1.39D-06 BMatP= 2.04D-05
 IDIUse=1 WtCom= 1.00D+00 WtEn= 0.00D+00
 Coeff-Com:  0.129D-01-0.276D-01-0.176D-01 0.535D-01 0.331D+00 0.648D+00
 Coeff:      0.129D-01-0.276D-01-0.176D-01 0.535D-01 0.331D+00 0.648D+00
 Gap=     0.311 Goal=   None    Shift=    0.000
 RMSDP=8.42D-05 MaxDP=9.68D-03 DE=-2.65D-05 OVMax= 3.97D-04

 Cycle   7  Pass 1  IDiag  1:
 RMSU=  4.46D-05    CP:  5.59D-01  1.56D+00  7.68D-01  8.83D-01  1.15D+00
                    CP:  1.00D+00
 E= -925.308315601310     Delta-E=       -0.000001708653 Rises=F Damp=F
 DIIS: error= 1.36D-05 at cycle   7 NSaved=   7.
 NSaved= 7 IEnMin= 7 EnMin= -925.308315601310     IErMin= 7 ErrMin= 1.36D-05
 ErrMax= 1.36D-05  0.00D+00 EMaxC= 1.00D-01 BMatC= 1.05D-07 BMatP= 1.39D-06
 IDIUse=1 WtCom= 1.00D+00 WtEn= 0.00D+00
 Coeff-Com: -0.235D-02 0.504D-02 0.238D-02-0.281D-01-0.103D+00 0.107D+00
 Coeff-Com:  0.102D+01
 Coeff:     -0.235D-02 0.504D-02 0.238D-02-0.281D-01-0.103D+00 0.107D+00
 Coeff:      0.102D+01
 Gap=     0.311 Goal=   None    Shift=    0.000
 RMSDP=2.10D-05 MaxDP=1.63D-03 DE=-1.71D-06 OVMax= 2.75D-04

 Cycle   8  Pass 1  IDiag  1:
 RMSU=  6.28D-06    CP:  5.60D-01  1.56D+00  7.70D-01  8.84D-01  1.18D+00
                    CP:  1.14D+00  1.17D+00
 E= -925.308315843669     Delta-E=       -0.000000242359 Rises=F Damp=F
 DIIS: error= 5.77D-06 at cycle   8 NSaved=   8.
 NSaved= 8 IEnMin= 8 EnMin= -925.308315843669     IErMin= 8 ErrMin= 5.77D-06
 ErrMax= 5.77D-06  0.00D+00 EMaxC= 1.00D-01 BMatC= 7.28D-09 BMatP= 1.05D-07
 IDIUse=1 WtCom= 1.00D+00 WtEn= 0.00D+00
 Coeff-Com: -0.116D-02 0.249D-02 0.137D-02-0.111D-01-0.426D-01 0.194D-01
 Coeff-Com:  0.300D+00 0.732D+00
 Coeff:     -0.116D-02 0.249D-02 0.137D-02-0.111D-01-0.426D-01 0.194D-01
 Coeff:      0.300D+00 0.732D+00
 Gap=     0.311 Goal=   None    Shift=    0.000
 RMSDP=3.52D-06 MaxDP=2.80D-04 DE=-2.42D-07 OVMax= 5.91D-05

 Cycle   9  Pass 1  IDiag  1:
 RMSU=  2.78D-06    CP:  5.60D-01  1.56D+00  7.70D-01  8.84D-01  1.18D+00
                    CP:  1.15D+00  1.20D+00  1.03D+00
 E= -925.308315854520     Delta-E=       -0.000000010851 Rises=F Damp=F
 DIIS: error= 3.61D-06 at cycle   9 NSaved=   9.
 NSaved= 9 IEnMin= 9 EnMin= -925.308315854520     IErMin= 9 ErrMin= 3.61D-06
 ErrMax= 3.61D-06  0.00D+00 EMaxC= 1.00D-01 BMatC= 2.13D-09 BMatP= 7.28D-09
 IDIUse=1 WtCom= 1.00D+00 WtEn= 0.00D+00
 Coeff-Com:  0.102D-03-0.222D-03 0.347D-04 0.264D-02 0.951D-02-0.173D-01
 Coeff-Com: -0.157D+00 0.335D+00 0.827D+00
 Coeff:      0.102D-03-0.222D-03 0.347D-04 0.264D-02 0.951D-02-0.173D-01
 Coeff:     -0.157D+00 0.335D+00 0.827D+00
 Gap=     0.311 Goal=   None    Shift=    0.000
 RMSDP=2.16D-06 MaxDP=1.99D-04 DE=-1.09D-08 OVMax= 4.24D-05

 Cycle  10  Pass 1  IDiag  1:
 RMSU=  7.07D-07    CP:  5.60D-01  1.56D+00  7.70D-01  8.84D-01  1.18D+00
                    CP:  1.15D+00  1.22D+00  1.26D+00  7.36D-01
 E= -925.308315858520     Delta-E=       -0.000000004000 Rises=F Damp=F
 DIIS: error= 9.97D-07 at cycle  10 NSaved=  10.
 NSaved=10 IEnMin=10 EnMin= -925.308315858520     IErMin=10 ErrMin= 9.97D-07
 ErrMax= 9.97D-07  0.00D+00 EMaxC= 1.00D-01 BMatC= 2.13D-10 BMatP= 2.13D-09
 IDIUse=1 WtCom= 1.00D+00 WtEn= 0.00D+00
 Coeff-Com:  0.118D-03-0.254D-03-0.701D-04 0.174D-02 0.626D-02-0.627D-02
 Coeff-Com: -0.763D-01 0.475D-01 0.322D+00 0.705D+00
 Coeff:      0.118D-03-0.254D-03-0.701D-04 0.174D-02 0.626D-02-0.627D-02
 Coeff:     -0.763D-01 0.475D-01 0.322D+00 0.705D+00
 Gap=     0.311 Goal=   None    Shift=    0.000
 RMSDP=4.90D-07 MaxDP=3.41D-05 DE=-4.00D-09 OVMax= 1.06D-05

 Cycle  11  Pass 1  IDiag  1:
 RMSU=  1.48D-07    CP:  5.60D-01  1.56D+00  7.70D-01  8.85D-01  1.18D+00
                    CP:  1.15D+00  1.22D+00  1.26D+00  8.63D-01  1.08D+00
 E= -925.308315858848     Delta-E=       -0.000000000328 Rises=F Damp=F
 DIIS: error= 1.99D-07 at cycle  11 NSaved=  11.
 NSaved=11 IEnMin=11 EnMin= -925.308315858848     IErMin=11 ErrMin= 1.99D-07
 ErrMax= 1.99D-07  0.00D+00 EMaxC= 1.00D-01 BMatC= 3.06D-11 BMatP= 2.13D-10
 IDIUse=1 WtCom= 1.00D+00 WtEn= 0.00D+00
 Coeff-Com:  0.211D-04-0.447D-04-0.206D-04 0.127D-03 0.287D-03 0.114D-02
 Coeff-Com:  0.106D-02-0.513D-01-0.261D-01 0.246D+00 0.829D+00
 Coeff:      0.211D-04-0.447D-04-0.206D-04 0.127D-03 0.287D-03 0.114D-02
 Coeff:      0.106D-02-0.513D-01-0.261D-01 0.246D+00 0.829D+00
 Gap=     0.311 Goal=   None    Shift=    0.000
 RMSDP=2.71D-07 MaxDP=2.38D-05 DE=-3.28D-10 OVMax= 3.30D-06

 Cycle  12  Pass 1  IDiag  1:
 RMSU=  6.68D-08    CP:  5.60D-01  1.56D+00  7.70D-01  8.85D-01  1.18D+00
                    CP:  1.15D+00  1.22D+00  1.27D+00  8.52D-01  1.25D+00
                    CP:  1.24D+00
 E= -925.308315858920     Delta-E=       -0.000000000072 Rises=F Damp=F
 DIIS: error= 9.80D-08 at cycle  12 NSaved=  12.
 NSaved=12 IEnMin=12 EnMin= -925.308315858920     IErMin=12 ErrMin= 9.80D-08
 ErrMax= 9.80D-08  0.00D+00 EMaxC= 1.00D-01 BMatC= 1.40D-12 BMatP= 3.06D-11
 IDIUse=1 WtCom= 1.00D+00 WtEn= 0.00D+00
 Coeff-Com: -0.140D-04 0.305D-04 0.126D-04-0.220D-03-0.812D-03 0.990D-03
 Coeff-Com:  0.944D-02-0.809D-02-0.302D-01-0.633D-01-0.107D+00 0.120D+01
 Coeff:     -0.140D-04 0.305D-04 0.126D-04-0.220D-03-0.812D-03 0.990D-03
 Coeff:      0.944D-02-0.809D-02-0.302D-01-0.633D-01-0.107D+00 0.120D+01
 Gap=     0.311 Goal=   None    Shift=    0.000
 RMSDP=8.88D-08 MaxDP=6.35D-06 DE=-7.23D-11 OVMax= 1.61D-06

 Cycle  13  Pass 1  IDiag  1:
 RMSU=  2.97D-08    CP:  5.60D-01  1.56D+00  7.70D-01  8.85D-01  1.18D+00
                    CP:  1.15D+00  1.22D+00  1.27D+00  8.48D-01  1.30D+00
                    CP:  1.34D+00  1.45D+00
 E= -925.308315858926     Delta-E=       -0.000000000005 Rises=F Damp=F
 DIIS: error= 2.73D-08 at cycle  13 NSaved=  13.
 NSaved=13 IEnMin=13 EnMin= -925.308315858926     IErMin=13 ErrMin= 2.73D-08
 ErrMax= 2.73D-08  0.00D+00 EMaxC= 1.00D-01 BMatC= 1.09D-13 BMatP= 1.40D-12
 IDIUse=1 WtCom= 1.00D+00 WtEn= 0.00D+00
 Coeff-Com: -0.245D-05 0.524D-05 0.274D-05-0.277D-04-0.897D-04 0.487D-04
 Coeff-Com:  0.775D-03 0.165D-02-0.409D-03-0.167D-01-0.765D-01 0.126D+00
 Coeff-Com:  0.965D+00
 Coeff:     -0.245D-05 0.524D-05 0.274D-05-0.277D-04-0.897D-04 0.487D-04
 Coeff:      0.775D-03 0.165D-02-0.409D-03-0.167D-01-0.765D-01 0.126D+00
 Coeff:      0.965D+00
 Gap=     0.311 Goal=   None    Shift=    0.000
 RMSDP=3.00D-08 MaxDP=3.01D-06 DE=-5.46D-12 OVMax= 4.05D-07

 Cycle  14  Pass 1  IDiag  1:
 RMSU=  7.24D-09    CP:  5.60D-01  1.56D+00  7.70D-01  8.85D-01  1.18D+00
                    CP:  1.15D+00  1.22D+00  1.27D+00  8.46D-01  1.31D+00
                    CP:  1.35D+00  1.58D+00  1.27D+00
 E= -925.308315858935     Delta-E=       -0.000000000010 Rises=F Damp=F
 DIIS: error= 6.50D-09 at cycle  14 NSaved=  14.
 NSaved=14 IEnMin=14 EnMin= -925.308315858935     IErMin=14 ErrMin= 6.50D-09
 ErrMax= 6.50D-09  0.00D+00 EMaxC= 1.00D-01 BMatC= 3.36D-14 BMatP= 1.09D-13
 IDIUse=1 WtCom= 1.00D+00 WtEn= 0.00D+00
 Coeff-Com:  0.734D-06-0.163D-05-0.458D-06 0.165D-04 0.673D-04-0.107D-03
 Coeff-Com: -0.892D-03 0.172D-02 0.391D-02 0.168D-02-0.216D-01-0.106D+00
 Coeff-Com:  0.427D+00 0.694D+00
 Coeff:      0.734D-06-0.163D-05-0.458D-06 0.165D-04 0.673D-04-0.107D-03
 Coeff:     -0.892D-03 0.172D-02 0.391D-02 0.168D-02-0.216D-01-0.106D+00
 Coeff:      0.427D+00 0.694D+00
 Gap=     0.311 Goal=   None    Shift=    0.000
 RMSDP=8.36D-09 MaxDP=1.00D-06 DE=-9.55D-12 OVMax= 9.54D-08

 Cycle  15  Pass 1  IDiag  1:
 RMSU=  2.78D-09    CP:  5.60D-01  1.56D+00  7.70D-01  8.85D-01  1.18D+00
                    CP:  1.15D+00  1.22D+00  1.27D+00  8.46D-01  1.31D+00
                    CP:  1.35D+00  1.62D+00  1.39D+00  1.09D+00
 E= -925.308315858886     Delta-E=        0.000000000049 Rises=F Damp=F
 DIIS: error= 2.86D-09 at cycle  15 NSaved=  15.
 NSaved=15 IEnMin=14 EnMin= -925.308315858935     IErMin=15 ErrMin= 2.86D-09
 ErrMax= 2.86D-09  0.00D+00 EMaxC= 1.00D-01 BMatC= 1.69D-15 BMatP= 3.36D-14
 IDIUse=1 WtCom= 1.00D+00 WtEn= 0.00D+00
 Coeff-Com:  0.452D-06-0.980D-06-0.488D-06 0.711D-05 0.266D-04-0.342D-04
 Coeff-Com: -0.301D-03 0.219D-03 0.101D-02 0.251D-02 0.352D-02-0.406D-01
 Coeff-Com:  0.110D-01 0.907D-01 0.932D+00
 Coeff:      0.452D-06-0.980D-06-0.488D-06 0.711D-05 0.266D-04-0.342D-04
 Coeff:     -0.301D-03 0.219D-03 0.101D-02 0.251D-02 0.352D-02-0.406D-01
 Coeff:      0.110D-01 0.907D-01 0.932D+00
 Gap=     0.311 Goal=   None    Shift=    0.000
 RMSDP=4.57D-09 MaxDP=5.09D-07 DE= 4.91D-11 OVMax= 4.06D-08

 SCF Done:  E(RwB97XD) =  -925.308315859     A.U. after   15 cycles
            NFock= 15  Conv=0.46D-08     -V/T= 2.0043
 KE= 9.213140142798D+02 PE=-5.614836454167D+03 EE= 2.033968421166D+03
 Leave Link  502 at Mon Nov 14 15:12:00 2022, MaxMem= 16106127360 cpu:            4876.9 elap:             152.9
 (Enter /opt/ap/G16/B01/g16/l601.exe)
 Copying SCF densities to generalized density rwf, IOpCl= 0 IROHF=0.

 **********************************************************************

            Population analysis using the SCF Density.

 **********************************************************************

 Orbital symmetries:
       Occupied  (A) (A) (A) (A) (A) (A) (A) (A) (A) (A) (A) (A)
                 (A) (A) (A) (A) (A) (A) (A) (A) (A) (A) (A) (A)
                 (A) (A) (A) (A) (A) (A) (A) (A) (A) (A) (A) (A)
                 (A) (A) (A) (A) (A) (A) (A) (A) (A) (A) (A) (A)
                 (A) (A) (A) (A) (A) (A) (A) (A) (A) (A) (A) (A)
                 (A) (A) (A) (A) (A) (A) (A) (A) (A) (A) (A) (A)
                 (A) (A) (A) (A) (A) (A) (A) (A) (A)
       Virtual   (A) (A) (A) (A) (A) (A) (A) (A) (A) (A) (A) (A)
                 (A) (A) (A) (A) (A) (A) (A) (A) (A) (A) (A) (A)
                 (A) (A) (A) (A) (A) (A) (A) (A) (A) (A) (A) (A)
                 (A) (A) (A) (A) (A) (A) (A) (A) (A) (A) (A) (A)
                 (A) (A) (A) (A) (A) (A) (A) (A) (A) (A) (A) (A)
                 (A) (A) (A) (A) (A) (A) (A) (A) (A) (A) (A) (A)
                 (A) (A) (A) (A) (A) (A) (A) (A) (A) (A) (A) (A)
                 (A) (A) (A) (A) (A) (A) (A) (A) (A) (A) (A) (A)
                 (A) (A) (A) (A) (A) (A) (A) (A) (A) (A) (A) (A)
                 (A) (A) (A) (A) (A) (A) (A) (A) (A) (A) (A) (A)
                 (A) (A) (A) (A) (A) (A) (A) (A) (A) (A) (A) (A)
                 (A) (A) (A) (A) (A) (A) (A) (A) (A) (A) (A) (A)
                 (A) (A) (A) (A) (A) (A) (A) (A) (A) (A) (A) (A)
                 (A) (A) (A) (A) (A) (A) (A) (A) (A) (A) (A) (A)
                 (A) (A) (A) (A) (A) (A) (A) (A) (A) (A) (A) (A)
                 (A) (A) (A) (A) (A) (A) (A) (A) (A) (A) (A) (A)
                 (A) (A) (A) (A) (A) (A) (A) (A) (A) (A) (A) (A)
                 (A) (A) (A) (A) (A) (A) (A) (A) (A) (A) (A) (A)
                 (A) (A) (A) (A) (A) (A) (A) (A) (A) (A) (A) (A)
                 (A) (A) (A) (A) (A) (A) (A) (A) (A) (A) (A) (A)
                 (A) (A) (A) (A) (A) (A) (A) (A) (A) (A) (A) (A)
                 (A) (A) (A) (A) (A) (A) (A) (A) (A) (A) (A) (A)
                 (A) (A) (A) (A) (A) (A) (A) (A) (A) (A) (A) (A)
                 (A) (A) (A) (A) (A) (A) (A) (A) (A) (A) (A) (A)
                 (A) (A) (A) (A) (A) (A) (A) (A) (A) (A) (A) (A)
                 (A) (A) (A) (A) (A) (A) (A) (A) (A) (A) (A) (A)
                 (A) (A) (A) (A) (A) (A) (A) (A) (A) (A) (A) (A)
                 (A) (A) (A) (A) (A) (A) (A) (A) (A) (A) (A) (A)
                 (A) (A) (A) (A) (A) (A) (A) (A) (A) (A) (A) (A)
                 (A) (A) (A) (A) (A) (A) (A) (A) (A) (A) (A) (A)
                 (A) (A) (A) (A) (A) (A) (A) (A) (A) (A) (A) (A)
                 (A) (A) (A) (A) (A) (A) (A) (A) (A) (A) (A) (A)
                 (A) (A) (A) (A) (A) (A) (A) (A) (A) (A) (A) (A)
                 (A) (A) (A) (A) (A) (A) (A) (A) (A) (A) (A) (A)
                 (A) (A) (A) (A) (A) (A) (A) (A) (A) (A) (A) (A)
                 (A) (A) (A) (A) (A) (A) (A) (A) (A) (A) (A) (A)
                 (A) (A) (A) (A) (A) (A) (A) (A) (A) (A) (A) (A)
                 (A) (A) (A) (A) (A) (A) (A) (A) (A) (A) (A) (A)
                 (A) (A) (A) (A) (A) (A) (A) (A) (A) (A) (A) (A)
                 (A) (A) (A) (A) (A) (A) (A) (A) (A) (A) (A) (A)
                 (A) (A) (A) (A) (A) (A) (A) (A) (A) (A) (A) (A)
                 (A) (A) (A) (A) (A) (A) (A) (A) (A) (A) (A) (A)
                 (A) (A) (A) (A) (A) (A) (A) (A) (A) (A) (A) (A)
                 (A) (A) (A) (A) (A) (A) (A) (A) (A) (A) (A) (A)
                 (A) (A) (A) (A) (A) (A) (A) (A) (A) (A) (A) (A)
                 (A) (A) (A) (A) (A) (A) (A) (A) (A) (A) (A) (A)
                 (A) (A) (A) (A) (A) (A) (A) (A) (A) (A) (A) (A)
 The electronic state is 1-A.
 Alpha  occ. eigenvalues --  -10.30520 -10.30492 -10.30488 -10.30423 -10.30376
 Alpha  occ. eigenvalues --  -10.30373 -10.29310 -10.29303 -10.29299 -10.29293
 Alpha  occ. eigenvalues --  -10.29292 -10.29279 -10.29222 -10.29216 -10.29212
 Alpha  occ. eigenvalues --  -10.29198 -10.29193 -10.29184 -10.29156 -10.29145
 Alpha  occ. eigenvalues --  -10.29131 -10.29097 -10.29096 -10.29087  -0.99067
 Alpha  occ. eigenvalues --   -0.97125  -0.97105  -0.95304  -0.89519  -0.89497
 Alpha  occ. eigenvalues --   -0.85474  -0.85383  -0.85323  -0.85100  -0.82309
 Alpha  occ. eigenvalues --   -0.82248  -0.73934  -0.73642  -0.71188  -0.70875
 Alpha  occ. eigenvalues --   -0.70181  -0.69988  -0.66727  -0.66588  -0.63866
 Alpha  occ. eigenvalues --   -0.60965  -0.60751  -0.58627  -0.57471  -0.56928
 Alpha  occ. eigenvalues --   -0.54938  -0.54872  -0.54310  -0.54038  -0.52220
 Alpha  occ. eigenvalues --   -0.52001  -0.51738  -0.51593  -0.51187  -0.51024
 Alpha  occ. eigenvalues --   -0.50459  -0.48544  -0.46946  -0.46452  -0.46127
 Alpha  occ. eigenvalues --   -0.45564  -0.44874  -0.44411  -0.43207  -0.43176
 Alpha  occ. eigenvalues --   -0.42985  -0.41884  -0.41293  -0.37560  -0.36569
 Alpha  occ. eigenvalues --   -0.33703  -0.33681  -0.33668  -0.32977  -0.30314
 Alpha  occ. eigenvalues --   -0.29745
 Alpha virt. eigenvalues --    0.01367   0.01960   0.03684   0.04170   0.04215
 Alpha virt. eigenvalues --    0.04514   0.04867   0.04953   0.05032   0.05137
 Alpha virt. eigenvalues --    0.05246   0.05692   0.05949   0.06845   0.07079
 Alpha virt. eigenvalues --    0.07191   0.08080   0.08203   0.08437   0.08891
 Alpha virt. eigenvalues --    0.09045   0.09208   0.09611   0.10711   0.11174
 Alpha virt. eigenvalues --    0.11388   0.12033   0.12424   0.13034   0.13453
 Alpha virt. eigenvalues --    0.13758   0.14027   0.14365   0.14596   0.15486
 Alpha virt. eigenvalues --    0.15722   0.15788   0.15835   0.16253   0.16318
 Alpha virt. eigenvalues --    0.16409   0.16441   0.16952   0.17005   0.17258
 Alpha virt. eigenvalues --    0.17460   0.17691   0.17984   0.18108   0.18421
 Alpha virt. eigenvalues --    0.18438   0.18604   0.18822   0.19236   0.19282
 Alpha virt. eigenvalues --    0.19574   0.19683   0.20010   0.20259   0.20594
 Alpha virt. eigenvalues --    0.20901   0.21161   0.21331   0.21885   0.21965
 Alpha virt. eigenvalues --    0.22185   0.22599   0.22736   0.23066   0.23380
 Alpha virt. eigenvalues --    0.23475   0.23718   0.23779   0.24095   0.24672
 Alpha virt. eigenvalues --    0.24811   0.25178   0.25399   0.25469   0.25575
 Alpha virt. eigenvalues --    0.26116   0.26334   0.26877   0.26892   0.27068
 Alpha virt. eigenvalues --    0.27466   0.27667   0.27913   0.28247   0.28611
 Alpha virt. eigenvalues --    0.28715   0.29067   0.29220   0.29395   0.29734
 Alpha virt. eigenvalues --    0.29801   0.30161   0.30491   0.30778   0.31172
 Alpha virt. eigenvalues --    0.31625   0.31960   0.32391   0.32588   0.33214
 Alpha virt. eigenvalues --    0.33285   0.33495   0.33650   0.34218   0.34522
 Alpha virt. eigenvalues --    0.34848   0.34909   0.35355   0.35458   0.35808
 Alpha virt. eigenvalues --    0.35849   0.36062   0.36559   0.36752   0.37099
 Alpha virt. eigenvalues --    0.37190   0.37851   0.38132   0.38216   0.38296
 Alpha virt. eigenvalues --    0.38845   0.39064   0.39600   0.39874   0.40378
 Alpha virt. eigenvalues --    0.40669   0.40894   0.41017   0.41552   0.41758
 Alpha virt. eigenvalues --    0.42156   0.42694   0.42973   0.43216   0.43663
 Alpha virt. eigenvalues --    0.44184   0.44712   0.44888   0.45227   0.45332
 Alpha virt. eigenvalues --    0.45711   0.46956   0.48168   0.48318   0.48365
 Alpha virt. eigenvalues --    0.49802   0.50581   0.53397   0.54492   0.57422
 Alpha virt. eigenvalues --    0.58528   0.59095   0.59300   0.59512   0.61310
 Alpha virt. eigenvalues --    0.61746   0.62255   0.62672   0.62914   0.63114
 Alpha virt. eigenvalues --    0.63204   0.63288   0.63614   0.63769   0.64211
 Alpha virt. eigenvalues --    0.64449   0.64895   0.65174   0.65569   0.65775
 Alpha virt. eigenvalues --    0.66083   0.66411   0.67158   0.67310   0.68554
 Alpha virt. eigenvalues --    0.68792   0.69157   0.69717   0.70039   0.70415
 Alpha virt. eigenvalues --    0.70767   0.71543   0.71889   0.72108   0.72799
 Alpha virt. eigenvalues --    0.73089   0.73214   0.74126   0.74320   0.74877
 Alpha virt. eigenvalues --    0.75321   0.75889   0.76246   0.76880   0.77964
 Alpha virt. eigenvalues --    0.78008   0.78932   0.79013   0.79511   0.79998
 Alpha virt. eigenvalues --    0.80646   0.80745   0.81299   0.81526   0.81865
 Alpha virt. eigenvalues --    0.82344   0.82461   0.83260   0.83773   0.84229
 Alpha virt. eigenvalues --    0.84805   0.84990   0.85270   0.85844   0.86247
 Alpha virt. eigenvalues --    0.86699   0.87564   0.87726   0.88676   0.88857
 Alpha virt. eigenvalues --    0.90451   0.90983   0.91322   0.92369   0.92652
 Alpha virt. eigenvalues --    0.92849   0.93401   0.93621   0.93968   0.94182
 Alpha virt. eigenvalues --    0.94316   0.94639   0.95114   0.95678   0.96780
 Alpha virt. eigenvalues --    0.97380   0.98328   0.98750   0.99451   1.00013
 Alpha virt. eigenvalues --    1.00593   1.01084   1.01201   1.01779   1.02137
 Alpha virt. eigenvalues --    1.02584   1.02858   1.04117   1.04636   1.04784
 Alpha virt. eigenvalues --    1.05981   1.06258   1.06829   1.06973   1.07413
 Alpha virt. eigenvalues --    1.08239   1.08358   1.09244   1.10055   1.11695
 Alpha virt. eigenvalues --    1.11957   1.12789   1.13403   1.13506   1.14366
 Alpha virt. eigenvalues --    1.14625   1.15009   1.16616   1.17188   1.17325
 Alpha virt. eigenvalues --    1.17886   1.18769   1.19105   1.19382   1.21236
 Alpha virt. eigenvalues --    1.21348   1.22264   1.22686   1.23660   1.24046
 Alpha virt. eigenvalues --    1.24880   1.25458   1.26332   1.28361   1.29681
 Alpha virt. eigenvalues --    1.33824   1.39038   1.41258   1.41496   1.42077
 Alpha virt. eigenvalues --    1.45037   1.46596   1.47300   1.52807   1.55493
 Alpha virt. eigenvalues --    1.56697   1.57895   1.58242   1.58575   1.58752
 Alpha virt. eigenvalues --    1.59033   1.59518   1.60265   1.60967   1.61442
 Alpha virt. eigenvalues --    1.61923   1.62424   1.62995   1.63606   1.63686
 Alpha virt. eigenvalues --    1.64552   1.65475   1.65622   1.65756   1.66163
 Alpha virt. eigenvalues --    1.66449   1.66767   1.67863   1.68620   1.69007
 Alpha virt. eigenvalues --    1.69718   1.72751   1.73059   1.73412   1.74033
 Alpha virt. eigenvalues --    1.74241   1.74842   1.75831   1.76073   1.76319
 Alpha virt. eigenvalues --    1.76736   1.77746   1.80381   1.81031   1.82056
 Alpha virt. eigenvalues --    1.82763   1.82916   1.83708   1.85006   1.85287
 Alpha virt. eigenvalues --    1.85882   1.86347   1.86646   1.87063   1.87478
 Alpha virt. eigenvalues --    1.90040   1.91332   1.92202   1.92694   1.93342
 Alpha virt. eigenvalues --    1.93442   1.94464   1.96701   1.99027   2.00118
 Alpha virt. eigenvalues --    2.00493   2.01127   2.01700   2.02560   2.02768
 Alpha virt. eigenvalues --    2.03338   2.03564   2.04035   2.04419   2.04611
 Alpha virt. eigenvalues --    2.04950   2.05140   2.05455   2.05648   2.05794
 Alpha virt. eigenvalues --    2.07093   2.07438   2.08299   2.08853   2.09317
 Alpha virt. eigenvalues --    2.10184   2.11548   2.12483   2.12766   2.13474
 Alpha virt. eigenvalues --    2.14833   2.15393   2.16588   2.16842   2.17009
 Alpha virt. eigenvalues --    2.18170   2.19242   2.20337   2.20651   2.23095
 Alpha virt. eigenvalues --    2.23691   2.28308   2.30857   2.34104   2.35652
 Alpha virt. eigenvalues --    2.36409   2.36807   2.39644   2.40208   2.42216
 Alpha virt. eigenvalues --    2.43506   2.44339   2.45599   2.48105   2.49038
 Alpha virt. eigenvalues --    2.51318   2.52349   2.52979   2.54307   2.54869
 Alpha virt. eigenvalues --    2.55256   2.55652   2.56483   2.56914   2.57814
 Alpha virt. eigenvalues --    2.58400   2.58683   2.60038   2.62529   2.62816
 Alpha virt. eigenvalues --    2.72085   2.72993   2.73214   2.74798   2.75926
 Alpha virt. eigenvalues --    2.76113   2.77552   2.77918   2.79263   2.79536
 Alpha virt. eigenvalues --    2.79674   2.80020   2.80327   2.80649   2.80859
 Alpha virt. eigenvalues --    2.81677   2.82032   2.82504   2.83221   2.83579
 Alpha virt. eigenvalues --    2.83648   2.84416   2.85440   2.85636   2.86812
 Alpha virt. eigenvalues --    2.87175   2.87746   2.88208   2.90136   2.90804
 Alpha virt. eigenvalues --    2.90934   2.92002   2.92538   2.93035   2.93578
 Alpha virt. eigenvalues --    2.93765   2.94210   2.95045   2.96368   2.97330
 Alpha virt. eigenvalues --    2.99724   3.00423   3.00820   3.01117   3.02948
 Alpha virt. eigenvalues --    3.04274   3.04669   3.04915   3.04991   3.05249
 Alpha virt. eigenvalues --    3.05912   3.06975   3.07217   3.10652   3.11614
 Alpha virt. eigenvalues --    3.12687   3.15615   3.17837   3.19765   3.20415
 Alpha virt. eigenvalues --    3.20996   3.23773   3.25319   3.31945   3.32599
 Alpha virt. eigenvalues --    3.33013   3.33501   3.35026   3.35446   3.38194
 Alpha virt. eigenvalues --    3.47401   3.48047   3.49065   3.49338   3.49441
 Alpha virt. eigenvalues --    3.49584   3.54095   3.54491   3.60857   3.61085
 Alpha virt. eigenvalues --    3.62834   3.63131   3.65066   3.65747   3.66194
 Alpha virt. eigenvalues --    3.73533   3.73731   3.75557   3.76617   3.76934
 Alpha virt. eigenvalues --    3.77848   3.89137   3.91761   3.92911   4.09824
 Alpha virt. eigenvalues --    4.10149   4.10953   4.14558   4.14573   4.14594
 Alpha virt. eigenvalues --    4.23821   4.24252   4.26270   4.26363   4.26876
 Alpha virt. eigenvalues --    4.26992   4.28512   4.31519   4.52369   4.66916
 Alpha virt. eigenvalues --    4.72738   4.93298   4.95338   4.95586   4.99658
 Alpha virt. eigenvalues --   23.67631  23.80153  23.81875  23.88066  24.08553
 Alpha virt. eigenvalues --   24.08763  24.10334  24.10741  24.10977  24.11632
 Alpha virt. eigenvalues --   24.12199  24.13087  24.20611  24.20672  24.21394
 Alpha virt. eigenvalues --   24.23396  24.24209  24.24283  24.24427  24.24997
 Alpha virt. eigenvalues --   24.31295  24.33771  24.33818  24.34603
          Condensed to atoms (all electrons):
               1          2          3          4          5          6
     1  C   14.530593  -0.420414  -1.053395  -4.539043  -0.149378   3.912104
     2  C   -0.420414  11.727844  -0.802753   1.791028   0.274251  -1.569839
     3  C   -1.053395  -0.802753  12.410809  -0.656527   0.104720  -2.133870
     4  C   -4.539043   1.791028  -0.656527  21.804647   0.042191  -2.063440
     5  H   -0.149378   0.274251   0.104720   0.042191   0.994264  -0.098185
     6  C    3.912104  -1.569839  -2.133870  -2.063440  -0.098185  13.066397
     7  C   -4.274221  -0.572490   1.248607  -9.287683   0.074418  -1.868472
     8  H   -0.087351   0.092577   0.376428   0.052103   0.007176  -0.044618
     9  C   -2.035507   0.697157   1.019405  -0.285067   0.112583  -1.360232
    10  C    0.179055  -2.074371  -1.118617   0.645359   0.139990   0.630281
    11  C   -0.405680   3.750924  -4.447998   0.767815  -0.027803  -0.618152
    12  C   -1.086378  -4.533352   4.360285  -1.431965  -0.009646  -1.379585
    13  C    0.437049  -1.131876  -1.541296  -0.488436  -0.009509   0.680614
    14  H    0.018535  -0.039007   0.003093   0.090230  -0.002375  -0.005685
    15  C    0.476042   1.631779  -0.067056   0.050224  -0.285152  -0.129312
    16  C   -0.673665  -1.604107   0.033621  -1.699940   0.134624   0.152783
    17  C   -0.446780  -0.644987   0.260415  -0.092724   0.053850  -1.949374
    18  H   -0.014166   0.026583  -0.084543  -0.054202  -0.149502  -0.000742
    19  C   -0.042399   0.159113  -0.977406   0.270726  -0.056266  -0.884330
    20  H   -0.019923  -0.079574   0.015181  -0.067819  -0.005926  -0.019628
    21  C    1.506903  -0.343386   1.173518   0.250430  -0.034513   0.256243
    22  C   -1.118902   0.209959  -1.446509  -0.110644   0.019998  -0.118839
    23  C    0.337045   0.483816   0.064288   0.103213  -0.091789   0.080649
    24  H   -0.015684   0.012534  -0.017776   0.026835  -0.043882  -0.000039
    25  C   -0.086531  -0.023207   0.040307   0.308134   0.007328  -0.078238
    26  H    0.015219   0.004203  -0.000090   0.165512  -0.008398   0.013862
    27  C   -0.304003  -0.053149   0.095373  -0.092442   0.022660  -0.233007
    28  H    0.009143  -0.008765   0.003735   0.000780   0.009406   0.004741
    29  H    0.010215   0.003538  -0.012579   0.004920   0.000616   0.018486
    30  C    0.302362   0.061854   0.433814  -0.322113  -0.002803   0.035242
    31  H   -0.014632  -0.013333  -0.039198   0.038300   0.000394   0.003620
    32  C   -0.209721   0.009083   0.085548   0.428185   0.003017  -0.065419
    33  H    0.007450  -0.011800  -0.006278  -0.158369   0.001169   0.009311
    34  C   -0.075906  -0.103676  -0.017999  -0.311122   0.021910   0.006955
    35  H    0.004696   0.002097   0.000281  -0.000646  -0.001575   0.001200
    36  H    0.000640  -0.001679   0.000127  -0.011453   0.000534  -0.000584
    37  H    0.001785   0.001104   0.003373  -0.000228  -0.001594   0.036138
    38  C    0.012374  -0.019783  -0.050120  -0.012734  -0.000278   0.026904
    39  H    0.000930  -0.000326   0.000256   0.000308  -0.000046  -0.001437
    40  H   -0.000067   0.000212   0.001297   0.011186  -0.000043  -0.000584
    41  H    0.001202  -0.000150  -0.000557  -0.005208  -0.000538   0.000585
    42  H    0.001577  -0.000490  -0.001812  -0.000330   0.000004   0.000780
               7          8          9         10         11         12
     1  C   -4.274221  -0.087351  -2.035507   0.179055  -0.405680  -1.086378
     2  C   -0.572490   0.092577   0.697157  -2.074371   3.750924  -4.533352
     3  C    1.248607   0.376428   1.019405  -1.118617  -4.447998   4.360285
     4  C   -9.287683   0.052103  -0.285067   0.645359   0.767815  -1.431965
     5  H    0.074418   0.007176   0.112583   0.139990  -0.027803  -0.009646
     6  C   -1.868472  -0.044618  -1.360232   0.630281  -0.618152  -1.379585
     7  C   20.522215   0.035913   1.681381  -1.075165  -0.773986   0.869968
     8  H    0.035913   0.588649   0.056459  -0.019512   0.008989  -0.095825
     9  C    1.681381   0.056459  12.575319  -2.747020   0.284283   0.261674
    10  C   -1.075165  -0.019512  -2.747020  14.275392  -0.220211   0.078140
    11  C   -0.773986   0.008989   0.284283  -0.220211  16.318252  -8.022099
    12  C    0.869968  -0.095825   0.261674   0.078140  -8.022099  18.238724
    13  C   -0.370843   0.046304  -2.940951   1.159302   0.089238  -0.498475
    14  H   -0.143564  -0.001108   0.287840   0.098994  -0.008871   0.008262
    15  C   -0.731311  -0.002585  -1.850029  -0.871392  -0.208862  -0.022497
    16  C    1.111633   0.002927   1.246126  -0.745436  -0.041082   0.001555
    17  C    0.179343  -0.003658   0.043930   0.025159  -1.454414   1.540899
    18  H   -0.031862  -0.005149  -0.004001  -0.030280   0.578383  -0.007759
    19  C   -0.109196  -0.038393  -0.054810   0.023678   1.705022  -2.297382
    20  H   -0.067802  -0.011196   0.003155   0.001772   0.020154   0.617422
    21  C   -2.408428  -0.209617  -0.738955   0.104102  -0.010107   0.400168
    22  C    1.142363   0.156452   0.275651  -0.026426   0.043798  -0.295357
    23  C   -0.112700  -0.002991   0.281230  -1.770486  -0.051726   0.026153
    24  H   -0.010521  -0.000562  -0.061495  -0.043990  -0.002101  -0.003823
    25  C    0.404712   0.001652   0.657438  -1.643497   0.077961  -0.017654
    26  H   -0.164744   0.000144  -0.091000   0.005625  -0.013665   0.007244
    27  C   -0.014171  -0.002877   0.017739  -0.005747  -0.775370   0.085742
    28  H    0.002558   0.000178   0.000499   0.000699  -0.090298   0.028996
    29  H   -0.000638   0.000056  -0.000561   0.000151   0.032019  -0.105610
    30  C    0.248679  -0.047944   0.296503  -0.089462   0.032915   0.007909
    31  H   -0.015127   0.003794  -0.034875   0.015373  -0.006907  -0.002995
    32  C   -0.161211   0.003367   0.558859  -0.083112  -0.025744   0.062709
    33  H    0.187921  -0.001902  -0.093644  -0.006863   0.007999  -0.013467
    34  C   -0.045856   0.000601  -0.236090  -0.189929  -0.025009  -0.001130
    35  H    0.003243  -0.000033   0.007752   0.015843   0.000129   0.000469
    36  H    0.014061  -0.000032   0.018010   0.010321   0.000920  -0.000118
    37  H    0.000762   0.000198   0.000010   0.000012  -0.018580  -0.005494
    38  C   -0.258566  -0.002663  -0.208671   0.054297   0.003853  -0.022269
    39  H    0.004416  -0.000488   0.007043  -0.001198   0.000028   0.001744
    40  H   -0.009130   0.000038   0.018581  -0.003979  -0.000233   0.000884
    41  H   -0.000739   0.000002  -0.008005   0.030217  -0.000376   0.000047
    42  H   -0.005930   0.000048  -0.009928   0.001250   0.000087  -0.000554
              13         14         15         16         17         18
     1  C    0.437049   0.018535   0.476042  -0.673665  -0.446780  -0.014166
     2  C   -1.131876  -0.039007   1.631779  -1.604107  -0.644987   0.026583
     3  C   -1.541296   0.003093  -0.067056   0.033621   0.260415  -0.084543
     4  C   -0.488436   0.090230   0.050224  -1.699940  -0.092724  -0.054202
     5  H   -0.009509  -0.002375  -0.285152   0.134624   0.053850  -0.149502
     6  C    0.680614  -0.005685  -0.129312   0.152783  -1.949374  -0.000742
     7  C   -0.370843  -0.143564  -0.731311   1.111633   0.179343  -0.031862
     8  H    0.046304  -0.001108  -0.002585   0.002927  -0.003658  -0.005149
     9  C   -2.940951   0.287840  -1.850029   1.246126   0.043930  -0.004001
    10  C    1.159302   0.098994  -0.871392  -0.745436   0.025159  -0.030280
    11  C    0.089238  -0.008871  -0.208862  -0.041082  -1.454414   0.578383
    12  C   -0.498475   0.008262  -0.022497   0.001555   1.540899  -0.007759
    13  C   15.515206   0.080640   0.058818   0.020403   0.067652   0.001467
    14  H    0.080640   0.483666   0.067904  -0.083327  -0.003802  -0.000005
    15  C    0.058818   0.067904  16.569967  -7.738297  -0.084726   0.021277
    16  C    0.020403  -0.083327  -7.738297  17.916182   0.022216  -0.006882
    17  C    0.067652  -0.003802  -0.084726   0.022216   9.997465  -0.082972
    18  H    0.001467  -0.000005   0.021277  -0.006882  -0.082972   0.629284
    19  C   -0.141024   0.002832   0.037038  -0.015074  -1.834216   0.054381
    20  H   -0.060266  -0.000656  -0.009685   0.005206   0.061167   0.004528
    21  C   -1.770152   0.103093   0.114964  -0.187733  -0.026692   0.007483
    22  C   -1.068886  -0.135049  -0.087419   0.283312   0.017927  -0.004082
    23  C   -0.034826   0.015390  -1.179602  -0.444397  -0.030095   0.009572
    24  H    0.011529  -0.000372   0.568403  -0.061871  -0.000914   0.008582
    25  C   -0.142380  -0.025565  -0.142625  -1.813926   0.004651   0.002668
    26  H   -0.003903   0.005972  -0.033864   0.484217  -0.001166   0.000779
    27  C   -0.017995   0.000161  -0.010110  -0.000780   0.726571  -0.009256
    28  H   -0.000041  -0.000023  -0.001556   0.000580   0.420122  -0.022441
    29  H    0.000028   0.000020   0.000251  -0.000059  -0.018225  -0.001048
    30  C   -1.775065   0.006555  -0.015427   0.019988   0.004320   0.000978
    31  H    0.023422  -0.000059   0.006414  -0.005505  -0.001516  -0.000380
    32  C   -1.392961  -0.022027  -0.001988   0.006584  -0.002355  -0.000592
    33  H   -0.012860  -0.001245  -0.005928   0.027176   0.001043   0.000017
    34  C    0.036574   0.003572   0.037932   0.387956   0.000499  -0.004402
    35  H   -0.001015   0.000011  -0.096737   0.007132  -0.000590   0.000265
    36  H   -0.002864  -0.001786   0.015008  -0.098462   0.000045  -0.000017
    37  H   -0.000057  -0.000005  -0.000141   0.000028  -0.044865   0.002689
    38  C   -0.342495   0.003736   0.009819  -0.020286   0.000207   0.000017
    39  H    0.024446  -0.000065  -0.000346   0.000577   0.000038   0.000017
    40  H    0.031974  -0.000898  -0.000762   0.002158  -0.000011   0.000002
    41  H    0.001009   0.000495  -0.002994   0.000647   0.000021   0.000032
    42  H    0.023292   0.000339   0.000202  -0.000555   0.000006  -0.000001
              19         20         21         22         23         24
     1  C   -0.042399  -0.019923   1.506903  -1.118902   0.337045  -0.015684
     2  C    0.159113  -0.079574  -0.343386   0.209959   0.483816   0.012534
     3  C   -0.977406   0.015181   1.173518  -1.446509   0.064288  -0.017776
     4  C    0.270726  -0.067819   0.250430  -0.110644   0.103213   0.026835
     5  H   -0.056266  -0.005926  -0.034513   0.019998  -0.091789  -0.043882
     6  C   -0.884330  -0.019628   0.256243  -0.118839   0.080649  -0.000039
     7  C   -0.109196  -0.067802  -2.408428   1.142363  -0.112700  -0.010521
     8  H   -0.038393  -0.011196  -0.209617   0.156452  -0.002991  -0.000562
     9  C   -0.054810   0.003155  -0.738955   0.275651   0.281230  -0.061495
    10  C    0.023678   0.001772   0.104102  -0.026426  -1.770486  -0.043990
    11  C    1.705022   0.020154  -0.010107   0.043798  -0.051726  -0.002101
    12  C   -2.297382   0.617422   0.400168  -0.295357   0.026153  -0.003823
    13  C   -0.141024  -0.060266  -1.770152  -1.068886  -0.034826   0.011529
    14  H    0.002832  -0.000656   0.103093  -0.135049   0.015390  -0.000372
    15  C    0.037038  -0.009685   0.114964  -0.087419  -1.179602   0.568403
    16  C   -0.015074   0.005206  -0.187733   0.283312  -0.444397  -0.061871
    17  C   -1.834216   0.061167  -0.026692   0.017927  -0.030095  -0.000914
    18  H    0.054381   0.004528   0.007483  -0.004082   0.009572   0.008582
    19  C   10.118775  -0.098400   0.104995  -0.035922   0.000082   0.002506
    20  H   -0.098400   0.603425   0.057992  -0.034645  -0.000367   0.000180
    21  C    0.104995   0.057992  18.345535  -9.956682   0.016133   0.003858
    22  C   -0.035922  -0.034645  -9.956682  20.002830  -0.021598  -0.002263
    23  C    0.000082  -0.000367   0.016133  -0.021598   8.825603  -0.086221
    24  H    0.002506   0.000180   0.003858  -0.002263  -0.086221   0.489145
    25  C   -0.000210   0.000682   0.002351  -0.017282  -0.079624  -0.008653
    26  H    0.000812   0.000024  -0.004023   0.014774  -0.006637   0.001238
    27  C    0.156943   0.032680   0.011646  -0.005874   0.001499  -0.000860
    28  H   -0.008286  -0.000667  -0.000265   0.000161  -0.000414  -0.000511
    29  H    0.437515  -0.019180   0.000063   0.000318  -0.000009  -0.000022
    30  C   -0.021370   0.032356  -1.002799  -0.278471   0.001217  -0.000397
    31  H    0.006390  -0.007919   0.499470  -0.013223   0.000028   0.000311
    32  C    0.003935   0.000962   0.709076  -1.851583   0.007247  -0.000859
    33  H   -0.001582  -0.000261  -0.096029   0.557491  -0.001062  -0.000094
    34  C    0.000064  -0.000246  -0.002658   0.004519  -0.185414   0.015654
    35  H   -0.000016   0.000005   0.000008   0.000118   0.439194  -0.008810
    36  H   -0.000011   0.000008  -0.000174   0.000956   0.005923   0.000015
    37  H   -0.072123   0.000928   0.000029  -0.000012   0.000009   0.000065
    38  C    0.000475   0.001258  -0.278716   0.334060  -0.000969   0.000243
    39  H   -0.000210   0.000313  -0.107111   0.003498   0.000024  -0.000010
    40  H    0.000014   0.000087   0.019109  -0.117285   0.000065  -0.000002
    41  H    0.000001  -0.000001   0.000070  -0.000263  -0.055498   0.000431
    42  H   -0.000030  -0.000097   0.007118   0.018455  -0.000010   0.000004
              25         26         27         28         29         30
     1  C   -0.086531   0.015219  -0.304003   0.009143   0.010215   0.302362
     2  C   -0.023207   0.004203  -0.053149  -0.008765   0.003538   0.061854
     3  C    0.040307  -0.000090   0.095373   0.003735  -0.012579   0.433814
     4  C    0.308134   0.165512  -0.092442   0.000780   0.004920  -0.322113
     5  H    0.007328  -0.008398   0.022660   0.009406   0.000616  -0.002803
     6  C   -0.078238   0.013862  -0.233007   0.004741   0.018486   0.035242
     7  C    0.404712  -0.164744  -0.014171   0.002558  -0.000638   0.248679
     8  H    0.001652   0.000144  -0.002877   0.000178   0.000056  -0.047944
     9  C    0.657438  -0.091000   0.017739   0.000499  -0.000561   0.296503
    10  C   -1.643497   0.005625  -0.005747   0.000699   0.000151  -0.089462
    11  C    0.077961  -0.013665  -0.775370  -0.090298   0.032019   0.032915
    12  C   -0.017654   0.007244   0.085742   0.028996  -0.105610   0.007909
    13  C   -0.142380  -0.003903  -0.017995  -0.000041   0.000028  -1.775065
    14  H   -0.025565   0.005972   0.000161  -0.000023   0.000020   0.006555
    15  C   -0.142625  -0.033864  -0.010110  -0.001556   0.000251  -0.015427
    16  C   -1.813926   0.484217  -0.000780   0.000580  -0.000059   0.019988
    17  C    0.004651  -0.001166   0.726571   0.420122  -0.018225   0.004320
    18  H    0.002668   0.000779  -0.009256  -0.022441  -0.001048   0.000978
    19  C   -0.000210   0.000812   0.156943  -0.008286   0.437515  -0.021370
    20  H    0.000682   0.000024   0.032680  -0.000667  -0.019180   0.032356
    21  C    0.002351  -0.004023   0.011646  -0.000265   0.000063  -1.002799
    22  C   -0.017282   0.014774  -0.005874   0.000161   0.000318  -0.278471
    23  C   -0.079624  -0.006637   0.001499  -0.000414  -0.000009   0.001217
    24  H   -0.008653   0.001238  -0.000860  -0.000511  -0.000022  -0.000397
    25  C    8.876647  -0.098616   0.000354  -0.000034  -0.000007   0.010337
    26  H   -0.098616   0.497973  -0.000194  -0.000001   0.000004  -0.000746
    27  C    0.000354  -0.000194   6.527479  -0.043879  -0.056640   0.000863
    28  H   -0.000034  -0.000001  -0.043879   0.479264   0.001640  -0.000020
    29  H   -0.000007   0.000004  -0.056640   0.001640   0.479082  -0.000732
    30  C    0.010337  -0.000746   0.000863  -0.000020  -0.000732   8.496711
    31  H   -0.001436   0.000091  -0.001108   0.000025   0.000556  -0.150530
    32  C   -0.034150   0.006808   0.000753   0.000010  -0.000068  -0.336022
    33  H   -0.000187  -0.006991  -0.000093  -0.000000   0.000004  -0.013799
    34  C   -0.179103   0.018712  -0.000372   0.000072   0.000004  -0.001264
    35  H    0.011668  -0.000274   0.000026  -0.000000   0.000000   0.000037
    36  H    0.429086  -0.010578   0.000007  -0.000000  -0.000000   0.000071
    37  H   -0.000000   0.000000   0.443224  -0.011133  -0.011091   0.000005
    38  C   -0.006454  -0.000517  -0.000322  -0.000001   0.000005   0.108757
    39  H    0.000056   0.000050   0.000025  -0.000000  -0.000013   0.438578
    40  H    0.000656   0.000589   0.000008   0.000000  -0.000001   0.016675
    41  H   -0.064261   0.001278  -0.000003  -0.000001  -0.000000  -0.000012
    42  H   -0.000141  -0.000056  -0.000009  -0.000000   0.000002  -0.076421
              31         32         33         34         35         36
     1  C   -0.014632  -0.209721   0.007450  -0.075906   0.004696   0.000640
     2  C   -0.013333   0.009083  -0.011800  -0.103676   0.002097  -0.001679
     3  C   -0.039198   0.085548  -0.006278  -0.017999   0.000281   0.000127
     4  C    0.038300   0.428185  -0.158369  -0.311122  -0.000646  -0.011453
     5  H    0.000394   0.003017   0.001169   0.021910  -0.001575   0.000534
     6  C    0.003620  -0.065419   0.009311   0.006955   0.001200  -0.000584
     7  C   -0.015127  -0.161211   0.187921  -0.045856   0.003243   0.014061
     8  H    0.003794   0.003367  -0.001902   0.000601  -0.000033  -0.000032
     9  C   -0.034875   0.558859  -0.093644  -0.236090   0.007752   0.018010
    10  C    0.015373  -0.083112  -0.006863  -0.189929   0.015843   0.010321
    11  C   -0.006907  -0.025744   0.007999  -0.025009   0.000129   0.000920
    12  C   -0.002995   0.062709  -0.013467  -0.001130   0.000469  -0.000118
    13  C    0.023422  -1.392961  -0.012860   0.036574  -0.001015  -0.002864
    14  H   -0.000059  -0.022027  -0.001245   0.003572   0.000011  -0.001786
    15  C    0.006414  -0.001988  -0.005928   0.037932  -0.096737   0.015008
    16  C   -0.005505   0.006584   0.027176   0.387956   0.007132  -0.098462
    17  C   -0.001516  -0.002355   0.001043   0.000499  -0.000590   0.000045
    18  H   -0.000380  -0.000592   0.000017  -0.004402   0.000265  -0.000017
    19  C    0.006390   0.003935  -0.001582   0.000064  -0.000016  -0.000011
    20  H   -0.007919   0.000962  -0.000261  -0.000246   0.000005   0.000008
    21  C    0.499470   0.709076  -0.096029  -0.002658   0.000008  -0.000174
    22  C   -0.013223  -1.851583   0.557491   0.004519   0.000118   0.000956
    23  C    0.000028   0.007247  -0.001062  -0.185414   0.439194   0.005923
    24  H    0.000311  -0.000859  -0.000094   0.015654  -0.008810   0.000015
    25  C   -0.001436  -0.034150  -0.000187  -0.179103   0.011668   0.429086
    26  H    0.000091   0.006808  -0.006991   0.018712  -0.000274  -0.010578
    27  C   -0.001108   0.000753  -0.000093  -0.000372   0.000026   0.000007
    28  H    0.000025   0.000010  -0.000000   0.000072  -0.000000  -0.000000
    29  H    0.000556  -0.000068   0.000004   0.000004   0.000000  -0.000000
    30  C   -0.150530  -0.336022  -0.013799  -0.001264   0.000037   0.000071
    31  H    0.491059  -0.001345  -0.000057   0.000246  -0.000010  -0.000009
    32  C   -0.001345   8.317637  -0.097571  -0.003537   0.000040   0.000103
    33  H   -0.000057  -0.097571   0.499186   0.000426   0.000028   0.000501
    34  C    0.000246  -0.003537   0.000426   6.848885  -0.062058  -0.052481
    35  H   -0.000010   0.000040   0.000028  -0.062058   0.471703   0.000563
    36  H   -0.000009   0.000103   0.000501  -0.052481   0.000563   0.471370
    37  H   -0.000038   0.000008  -0.000001  -0.000004  -0.000000   0.000000
    38  C    0.012847   0.100359   0.031651   0.000459  -0.000007  -0.000002
    39  H   -0.010882   0.009218  -0.000532  -0.000005   0.000000  -0.000001
    40  H   -0.000140   0.431403  -0.013362   0.000009  -0.000001  -0.000032
    41  H    0.000004  -0.000088  -0.000032   0.438226  -0.008211  -0.009162
    42  H    0.000816  -0.085609   0.002264   0.000007  -0.000000   0.000000
              37         38         39         40         41         42
     1  C    0.001785   0.012374   0.000930  -0.000067   0.001202   0.001577
     2  C    0.001104  -0.019783  -0.000326   0.000212  -0.000150  -0.000490
     3  C    0.003373  -0.050120   0.000256   0.001297  -0.000557  -0.001812
     4  C   -0.000228  -0.012734   0.000308   0.011186  -0.005208  -0.000330
     5  H   -0.001594  -0.000278  -0.000046  -0.000043  -0.000538   0.000004
     6  C    0.036138   0.026904  -0.001437  -0.000584   0.000585   0.000780
     7  C    0.000762  -0.258566   0.004416  -0.009130  -0.000739  -0.005930
     8  H    0.000198  -0.002663  -0.000488   0.000038   0.000002   0.000048
     9  C    0.000010  -0.208671   0.007043   0.018581  -0.008005  -0.009928
    10  C    0.000012   0.054297  -0.001198  -0.003979   0.030217   0.001250
    11  C   -0.018580   0.003853   0.000028  -0.000233  -0.000376   0.000087
    12  C   -0.005494  -0.022269   0.001744   0.000884   0.000047  -0.000554
    13  C   -0.000057  -0.342495   0.024446   0.031974   0.001009   0.023292
    14  H   -0.000005   0.003736  -0.000065  -0.000898   0.000495   0.000339
    15  C   -0.000141   0.009819  -0.000346  -0.000762  -0.002994   0.000202
    16  C    0.000028  -0.020286   0.000577   0.002158   0.000647  -0.000555
    17  C   -0.044865   0.000207   0.000038  -0.000011   0.000021   0.000006
    18  H    0.002689   0.000017   0.000017   0.000002   0.000032  -0.000001
    19  C   -0.072123   0.000475  -0.000210   0.000014   0.000001  -0.000030
    20  H    0.000928   0.001258   0.000313   0.000087  -0.000001  -0.000097
    21  C    0.000029  -0.278716  -0.107111   0.019109   0.000070   0.007118
    22  C   -0.000012   0.334060   0.003498  -0.117285  -0.000263   0.018455
    23  C    0.000009  -0.000969   0.000024   0.000065  -0.055498  -0.000010
    24  H    0.000065   0.000243  -0.000010  -0.000002   0.000431   0.000004
    25  C   -0.000000  -0.006454   0.000056   0.000656  -0.064261  -0.000141
    26  H    0.000000  -0.000517   0.000050   0.000589   0.001278  -0.000056
    27  C    0.443224  -0.000322   0.000025   0.000008  -0.000003  -0.000009
    28  H   -0.011133  -0.000001  -0.000000   0.000000  -0.000001  -0.000000
    29  H   -0.011091   0.000005  -0.000013  -0.000001  -0.000000   0.000002
    30  C    0.000005   0.108757   0.438578   0.016675  -0.000012  -0.076421
    31  H   -0.000038   0.012847  -0.010882  -0.000140   0.000004   0.000816
    32  C    0.000008   0.100359   0.009218   0.431403  -0.000088  -0.085609
    33  H   -0.000001   0.031651  -0.000532  -0.013362  -0.000032   0.002264
    34  C   -0.000004   0.000459  -0.000005   0.000009   0.438226   0.000007
    35  H   -0.000000  -0.000007   0.000000  -0.000001  -0.008211  -0.000000
    36  H    0.000000  -0.000002  -0.000001  -0.000032  -0.009162   0.000000
    37  H    0.483803  -0.000000  -0.000000   0.000000   0.000000  -0.000000
    38  C   -0.000000   6.606742  -0.054607  -0.076565   0.000007   0.465184
    39  H   -0.000000  -0.054607   0.473254   0.000898  -0.000000  -0.009872
    40  H    0.000000  -0.076565   0.000898   0.475457   0.000000  -0.011970
    41  H    0.000000   0.000007  -0.000000   0.000000   0.480125   0.000000
    42  H   -0.000000   0.465184  -0.009872  -0.011970   0.000000   0.485478
 Mulliken charges:
               1
     1  C    1.308826
     2  C   -0.887142
     3  C   -1.258105
     4  C    0.840010
     5  H   -0.045900
     6  C    1.686718
     7  C    0.782161
     8  H    0.144450
     9  C   -1.647784
    10  C    1.271681
    11  C   -0.473494
    12  C   -0.745563
    13  C    1.439209
    14  H    0.194154
    15  C   -0.085637
    16  C   -0.626246
    17  C   -0.703464
    18  H    0.165279
    19  C   -0.396641
    20  H    0.044774
    21  C   -0.516317
    22  C   -0.339425
    23  C   -0.541946
    24  H    0.230202
    25  C   -0.372908
    26  H    0.200335
    27  C   -0.495490
    28  H    0.225726
    29  H    0.236990
    30  C   -0.421327
    31  H    0.218064
    32  C   -0.368948
    33  H    0.210370
    34  C   -0.325019
    35  H    0.213475
    36  H    0.221176
    37  H    0.191196
    38  C   -0.417228
    39  H    0.221432
    40  H    0.223759
    41  H    0.201700
    42  H    0.196900
 Sum of Mulliken charges =  -0.00000
 Mulliken charges with hydrogens summed into heavy atoms:
               1
     1  C    1.308826
     2  C   -0.933042
     3  C   -1.113656
     4  C    0.840010
     6  C    1.686718
     7  C    0.782161
     9  C   -1.453630
    10  C    1.271681
    11  C   -0.308215
    12  C   -0.700788
    13  C    1.439209
    15  C    0.144565
    16  C   -0.425912
    17  C   -0.477738
    19  C   -0.159651
    21  C   -0.298253
    22  C   -0.129055
    23  C   -0.328472
    25  C   -0.151731
    27  C   -0.304295
    30  C   -0.199895
    32  C   -0.145189
    34  C   -0.123320
    38  C   -0.220328
 Electronic spatial extent (au):  <R**2>=          10005.6712
 Charge=             -0.0000 electrons
 Dipole moment (field-independent basis, Debye):
    X=             -0.0083    Y=             -0.0115    Z=              0.0045  Tot=              0.0149
 Quadrupole moment (field-independent basis, Debye-Ang):
   XX=           -123.3861   YY=           -126.0626   ZZ=           -144.5931
   XY=              0.0182   XZ=              1.9967   YZ=              6.0973
 Traceless Quadrupole moment (field-independent basis, Debye-Ang):
   XX=              7.9611   YY=              5.2846   ZZ=            -13.2458
   XY=              0.0182   XZ=              1.9967   YZ=              6.0973
 Octapole moment (field-independent basis, Debye-Ang**2):
  XXX=             -0.4158  YYY=             35.2399  ZZZ=              1.5727  XYY=              2.2097
  XXY=            -22.7839  XXZ=             32.9466  XZZ=             -1.6606  YZZ=            -12.5379
  YYZ=            -34.5405  XYZ=              8.4158
 Hexadecapole moment (field-independent basis, Debye-Ang**3):
 XXXX=          -6342.8071 YYYY=          -6252.4405 ZZZZ=           -434.4067 XXXY=              4.6697
 XXXZ=              7.7390 YYYX=              1.9083 YYYZ=             95.4276 ZZZX=             -0.5443
 ZZZY=             25.8008 XXYY=          -2030.7972 XXZZ=          -1235.3390 YYZZ=          -1283.0890
 XXYZ=             34.1524 YYXZ=             43.7677 ZZXY=             -5.7476
 N-N= 1.734245702863D+03 E-N=-5.614836454021D+03  KE= 9.213140142798D+02
 No NMR shielding tensors so no spin-rotation constants.
 Leave Link  601 at Mon Nov 14 15:12:00 2022, MaxMem= 16106127360 cpu:               9.0 elap:               0.3
 (Enter /opt/ap/G16/B01/g16/l9999.exe)
 1\1\GINC-N62\SP\RwB97XD\6-311++G(d,p)\C24H18\ROOT\14-Nov-2022\0\\#P wB
 97XD/6-311++G(d,p) scf=maxcycle=512\\_conf015.gjf nmol_natom 1_42\\0,1
 \C\C,1,1.39412829\C,1,1.39435449,2,118.86443127\C,2,1.39416084,1,121.1
 529487,3,0.03668482,0\H,2,1.08488355,1,119.42236619,3,-179.97409048,0\
 C,1,1.48467131,2,120.55714816,4,179.25839056,0\C,3,1.39437784,1,121.11
 776116,2,-0.05351271,0\H,3,1.08487775,1,119.41869036,2,177.23008049,0\
 C,4,1.39432447,2,118.86473838,1,0.01008406,0\C,4,1.48466627,2,120.5464
 188,1,179.19454736,0\C,6,1.3968498,1,120.7843492,2,-15.,0\C,6,1.396868
 2,1,120.67653841,2,165.,0\C,7,1.48449863,3,120.56496838,1,-179.9632580
 4,0\H,9,1.0848792,4,119.41824946,2,177.22245984,0\C,10,1.39685361,4,12
 0.76946845,2,-42.52368674,0\C,10,1.39686289,4,120.69448769,2,137.43107
 516,0\C,11,1.38888939,6,120.7380073,1,179.94058542,0\H,11,1.0847641,6,
 119.46912378,1,-1.41050605,0\C,12,1.38882428,6,120.76493111,1,-179.950
 82712,0\H,12,1.08482758,6,119.44182626,1,-1.23602505,0\C,13,1.39682899
 ,7,120.74134419,3,42.89023273,0\C,13,1.39683158,7,120.7379111,3,-137.1
 2494058,0\C,15,1.38888263,10,120.742191,4,179.9460119,0\H,15,1.0847633
 4,10,119.47085903,4,-1.40606944,0\C,16,1.38886088,10,120.76338989,4,-1
 79.95592713,0\H,16,1.08483431,10,119.44215232,4,-1.23439681,0\C,17,1.3
 9007919,11,120.20743432,6,0.00349958,0\H,17,1.0843506,11,119.71318733,
 6,179.5011609,0\H,19,1.08435858,12,119.73823132,6,179.53683762,0\C,21,
 1.38882373,13,120.76699356,7,179.99297883,0\H,21,1.0847938,13,119.4352
 623,7,1.32183327,0\C,22,1.38881869,13,120.76647403,7,-179.97118338,0\H
 ,22,1.08479982,13,119.43203605,7,1.34657928,0\C,23,1.39007007,15,120.2
 0732995,10,0.00573957,0\H,23,1.08434813,15,119.71220819,10,179.5072436
 8,0\H,25,1.08436328,16,119.73539424,10,179.53636455,0\H,27,1.08412515,
 17,120.21790854,11,179.98397203,0\C,30,1.39008059,21,120.18795226,13,-
 0.02169059,0\H,30,1.08435324,21,119.73787119,13,-179.52151214,0\H,32,1
 .0843543,22,119.737043,13,-179.52886928,0\H,34,1.08412314,23,120.22152
 803,15,179.98800213,0\H,38,1.08411439,30,120.21547163,21,-179.98600656
 ,0\\Version=ES64L-G16RevB.01\State=1-A\HF=-925.3083159\RMSD=4.567e-09\
 Dipole=0.0023879,0.0016345,0.0050821\Quadrupole=4.2542482,-9.5626431,5
 .3083949,-3.5001916,-0.9852343,-3.7943279\PG=C01 [X(C24H18)]\\@


 ADAM SMITH SAID, "THE REAL PRICE OF ANYTHING IS THE TOIL AND TROUBLE
 OF ACQUIRING IT."  BUT IN ALL UNDERTAKINGS WITH NATURE WE SHOULD FIRST
 READ CAREFULLY THE SMALL PRINT IN THE CONTRACT. THIS MIGHT DISCLOSE
 THAT THE REAL PRICE IS TO BE PAID BY THOSE WHO INHERIT THE DEPLETION
 AND DESPOILATION THAT FOLLOWS.
                               -- E. R. HARRISON IN "COSMOLOGY" (1980)
 Job cpu time:       0 days  1 hours 22 minutes 57.6 seconds.
 Elapsed time:       0 days  0 hours  2 minutes 36.2 seconds.
 File lengths (MBytes):  RWF=    224 Int=      0 D2E=      0 Chk=     26 Scr=      1
 Normal termination of Gaussian 16 at Mon Nov 14 15:12:00 2022.
