 Entering Gaussian System, Link 0=g16
 Input=_conf032.gjf
 Output=_conf032.log
 Initial command:
 /opt/ap/G16/B01/g16/l1.exe "/tmp2/scr/Gau-22686.inp" -scrdir="/tmp2/scr/"
 Entering Link 1 = /opt/ap/G16/B01/g16/l1.exe PID=     22687.
  
 Copyright (c) 1988-2017, Gaussian, Inc.  All Rights Reserved.
  
 This is part of the Gaussian(R) 16 program.  It is based on
 the Gaussian(R) 09 system (copyright 2009, Gaussian, Inc.),
 the Gaussian(R) 03 system (copyright 2003, Gaussian, Inc.),
 the Gaussian(R) 98 system (copyright 1998, Gaussian, Inc.),
 the Gaussian(R) 94 system (copyright 1995, Gaussian, Inc.),
 the Gaussian 92(TM) system (copyright 1992, Gaussian, Inc.),
 the Gaussian 90(TM) system (copyright 1990, Gaussian, Inc.),
 the Gaussian 88(TM) system (copyright 1988, Gaussian, Inc.),
 the Gaussian 86(TM) system (copyright 1986, Carnegie Mellon
 University), and the Gaussian 82(TM) system (copyright 1983,
 Carnegie Mellon University). Gaussian is a federally registered
 trademark of Gaussian, Inc.
  
 This software contains proprietary and confidential information,
 including trade secrets, belonging to Gaussian, Inc.
  
 This software is provided under written license and may be
 used, copied, transmitted, or stored only in accord with that
 written license.
  
 The following legend is applicable only to US Government
 contracts under FAR:
  
                    RESTRICTED RIGHTS LEGEND
  
 Use, reproduction and disclosure by the US Government is
 subject to restrictions as set forth in subparagraphs (a)
 and (c) of the Commercial Computer Software - Restricted
 Rights clause in FAR 52.227-19.
  
 Gaussian, Inc.
 340 Quinnipiac St., Bldg. 40, Wallingford CT 06492
  
  
 ---------------------------------------------------------------
 Warning -- This program may not be used in any manner that
 competes with the business of Gaussian, Inc. or will provide
 assistance to any competitor of Gaussian, Inc.  The licensee
 of this program is prohibited from giving any competitor of
 Gaussian, Inc. access to this program.  By using this program,
 the user acknowledges that Gaussian, Inc. is engaged in the
 business of creating and licensing software in the field of
 computational chemistry and represents and warrants to the
 licensee that it is not a competitor of Gaussian, Inc. and that
 it will not use this program in any manner prohibited above.
 ---------------------------------------------------------------
  

 Cite this work as:
 Gaussian 16, Revision B.01,
 M. J. Frisch, G. W. Trucks, H. B. Schlegel, G. E. Scuseria, 
 M. A. Robb, J. R. Cheeseman, G. Scalmani, V. Barone, 
 G. A. Petersson, H. Nakatsuji, X. Li, M. Caricato, A. V. Marenich, 
 J. Bloino, B. G. Janesko, R. Gomperts, B. Mennucci, H. P. Hratchian, 
 J. V. Ortiz, A. F. Izmaylov, J. L. Sonnenberg, D. Williams-Young, 
 F. Ding, F. Lipparini, F. Egidi, J. Goings, B. Peng, A. Petrone, 
 T. Henderson, D. Ranasinghe, V. G. Zakrzewski, J. Gao, N. Rega, 
 G. Zheng, W. Liang, M. Hada, M. Ehara, K. Toyota, R. Fukuda, 
 J. Hasegawa, M. Ishida, T. Nakajima, Y. Honda, O. Kitao, H. Nakai, 
 T. Vreven, K. Throssell, J. A. Montgomery, Jr., J. E. Peralta, 
 F. Ogliaro, M. J. Bearpark, J. J. Heyd, E. N. Brothers, K. N. Kudin, 
 V. N. Staroverov, T. A. Keith, R. Kobayashi, J. Normand, 
 K. Raghavachari, A. P. Rendell, J. C. Burant, S. S. Iyengar, 
 J. Tomasi, M. Cossi, J. M. Millam, M. Klene, C. Adamo, R. Cammi, 
 J. W. Ochterski, R. L. Martin, K. Morokuma, O. Farkas, 
 J. B. Foresman, and D. J. Fox, Gaussian, Inc., Wallingford CT, 2016.
 
 ******************************************
 Gaussian 16:  ES64L-G16RevB.01 20-Dec-2017
                14-Nov-2022 
 ******************************************
 %nprocshared=32
 Will use up to   32 processors via shared memory.
 %mem=120GB
 %chk=_conf032.chk
 ----------------------------------------
 #P wB97XD/6-311++G(d,p) scf=maxcycle=512
 ----------------------------------------
 1/38=1,172=1/1;
 2/12=2,17=6,18=5,40=1/2;
 3/5=4,6=6,7=1111,11=2,25=1,30=1,74=-58/1,2,3;
 4//1;
 5/5=2,7=512,38=5/2;
 6/7=2,8=2,9=2,10=2,28=1/1;
 99/5=1,9=1/99;
 Leave Link    1 at Mon Nov 14 15:21:59 2022, MaxMem= 16106127360 cpu:               1.8 elap:               0.1
 (Enter /opt/ap/G16/B01/g16/l101.exe)
 ----------------------------
 _conf032.gjf nmol_natom 1_42
 ----------------------------
 Symbolic Z-matrix:
 Charge =  0 Multiplicity = 1
 C
 C                    1     1.39413 
 C                    1     1.39435  2     118.86443 
 C                    2     1.39416  1     121.15295  3     0.03668  0
 H                    2     1.08488  1     119.42237  3    -179.97409  0
 C                    1     1.48467  2     120.55715  4     179.25839  0
 C                    3     1.39438  1     121.11776  2    -0.05351  0
 H                    3     1.08488  1     119.41869  2     177.23008  0
 C                    4     1.39432  2     118.86474  1     0.01008  0
 C                    4     1.48467  2     120.54642  1     179.19455  0
 C                    6     1.39685  1     120.78435  2     70.      0
 C                    6     1.39687  1     120.67654  2    -110.     0
 C                    7     1.4845   3     120.56497  1    -179.96326  0
 H                    9     1.08488  4     119.41825  2     177.22246  0
 C                    10    1.39685  4     120.76947  2    -42.52369  0
 C                    10    1.39686  4     120.69449  2     137.43108  0
 C                    11    1.38889  6     120.73801  1     179.94059  0
 H                    11    1.08476  6     119.46912  1    -1.41051  0
 C                    12    1.38882  6     120.76493  1    -179.95083  0
 H                    12    1.08483  6     119.44183  1    -1.23603  0
 C                    13    1.39683  7     120.74134  3     42.89023  0
 C                    13    1.39683  7     120.73791  3    -137.12494  0
 C                    15    1.38888  10    120.74219  4     179.94601  0
 H                    15    1.08476  10    119.47086  4    -1.40607  0
 C                    16    1.38886  10    120.76339  4    -179.95593  0
 H                    16    1.08483  10    119.44215  4    -1.2344   0
 C                    17    1.39008  11    120.20743  6     0.0035   0
 H                    17    1.08435  11    119.71319  6     179.50116  0
 H                    19    1.08436  12    119.73823  6     179.53684  0
 C                    21    1.38882  13    120.76699  7     179.99298  0
 H                    21    1.08479  13    119.43526  7     1.32183  0
 C                    22    1.38882  13    120.76647  7    -179.97118  0
 H                    22    1.0848   13    119.43204  7     1.34658  0
 C                    23    1.39007  15    120.20733  10    0.00574  0
 H                    23    1.08435  15    119.71221  10    179.50724  0
 H                    25    1.08436  16    119.73539  10    179.53636  0
 H                    27    1.08413  17    120.21791  11    179.98397  0
 C                    30    1.39008  21    120.18795  13   -0.02169  0
 H                    30    1.08435  21    119.73787  13   -179.52151  0
 H                    32    1.08435  22    119.73704  13   -179.52887  0
 H                    34    1.08412  23    120.22153  15    179.988  0
 H                    38    1.08411  30    120.21547  21   -179.98601  0
 
 ITRead=  0  0  0  0  0  0  0  0  0  0  0  0  0  0  0  0  0  0  0  0
 ITRead=  0  0  0  0  0  0  0  0  0  0  0  0  0  0  0  0  0  0  0  0
 ITRead=  0  0
 MicOpt= -1 -1 -1 -1 -1 -1 -1 -1 -1 -1 -1 -1 -1 -1 -1 -1 -1 -1 -1 -1
 MicOpt= -1 -1 -1 -1 -1 -1 -1 -1 -1 -1 -1 -1 -1 -1 -1 -1 -1 -1 -1 -1
 MicOpt= -1 -1
 NAtoms=     42 NQM=       42 NQMF=       0 NMMI=      0 NMMIF=      0
                NMic=       0 NMicF=      0.
                    Isotopes and Nuclear Properties:
 (Nuclear quadrupole moments (NQMom) in fm**2, nuclear magnetic moments (NMagM)
  in nuclear magnetons)

  Atom         1           2           3           4           5           6           7           8           9          10
 IAtWgt=          12          12          12          12           1          12          12           1          12          12
 AtmWgt=  12.0000000  12.0000000  12.0000000  12.0000000   1.0078250  12.0000000  12.0000000   1.0078250  12.0000000  12.0000000
 NucSpn=           0           0           0           0           1           0           0           1           0           0
 AtZEff=  -0.0000000  -0.0000000  -0.0000000  -0.0000000  -0.0000000  -0.0000000  -0.0000000  -0.0000000  -0.0000000  -0.0000000
 NQMom=    0.0000000   0.0000000   0.0000000   0.0000000   0.0000000   0.0000000   0.0000000   0.0000000   0.0000000   0.0000000
 NMagM=    0.0000000   0.0000000   0.0000000   0.0000000   2.7928460   0.0000000   0.0000000   2.7928460   0.0000000   0.0000000
 AtZNuc=   6.0000000   6.0000000   6.0000000   6.0000000   1.0000000   6.0000000   6.0000000   1.0000000   6.0000000   6.0000000

  Atom        11          12          13          14          15          16          17          18          19          20
 IAtWgt=          12          12          12           1          12          12          12           1          12           1
 AtmWgt=  12.0000000  12.0000000  12.0000000   1.0078250  12.0000000  12.0000000  12.0000000   1.0078250  12.0000000   1.0078250
 NucSpn=           0           0           0           1           0           0           0           1           0           1
 AtZEff=  -0.0000000  -0.0000000  -0.0000000  -0.0000000  -0.0000000  -0.0000000  -0.0000000  -0.0000000  -0.0000000  -0.0000000
 NQMom=    0.0000000   0.0000000   0.0000000   0.0000000   0.0000000   0.0000000   0.0000000   0.0000000   0.0000000   0.0000000
 NMagM=    0.0000000   0.0000000   0.0000000   2.7928460   0.0000000   0.0000000   0.0000000   2.7928460   0.0000000   2.7928460
 AtZNuc=   6.0000000   6.0000000   6.0000000   1.0000000   6.0000000   6.0000000   6.0000000   1.0000000   6.0000000   1.0000000

  Atom        21          22          23          24          25          26          27          28          29          30
 IAtWgt=          12          12          12           1          12           1          12           1           1          12
 AtmWgt=  12.0000000  12.0000000  12.0000000   1.0078250  12.0000000   1.0078250  12.0000000   1.0078250   1.0078250  12.0000000
 NucSpn=           0           0           0           1           0           1           0           1           1           0
 AtZEff=  -0.0000000  -0.0000000  -0.0000000  -0.0000000  -0.0000000  -0.0000000  -0.0000000  -0.0000000  -0.0000000  -0.0000000
 NQMom=    0.0000000   0.0000000   0.0000000   0.0000000   0.0000000   0.0000000   0.0000000   0.0000000   0.0000000   0.0000000
 NMagM=    0.0000000   0.0000000   0.0000000   2.7928460   0.0000000   2.7928460   0.0000000   2.7928460   2.7928460   0.0000000
 AtZNuc=   6.0000000   6.0000000   6.0000000   1.0000000   6.0000000   1.0000000   6.0000000   1.0000000   1.0000000   6.0000000

  Atom        31          32          33          34          35          36          37          38          39          40
 IAtWgt=           1          12           1          12           1           1           1          12           1           1
 AtmWgt=   1.0078250  12.0000000   1.0078250  12.0000000   1.0078250   1.0078250   1.0078250  12.0000000   1.0078250   1.0078250
 NucSpn=           1           0           1           0           1           1           1           0           1           1
 AtZEff=  -0.0000000  -0.0000000  -0.0000000  -0.0000000  -0.0000000  -0.0000000  -0.0000000  -0.0000000  -0.0000000  -0.0000000
 NQMom=    0.0000000   0.0000000   0.0000000   0.0000000   0.0000000   0.0000000   0.0000000   0.0000000   0.0000000   0.0000000
 NMagM=    2.7928460   0.0000000   2.7928460   0.0000000   2.7928460   2.7928460   2.7928460   0.0000000   2.7928460   2.7928460
 AtZNuc=   1.0000000   6.0000000   1.0000000   6.0000000   1.0000000   1.0000000   1.0000000   6.0000000   1.0000000   1.0000000

  Atom        41          42
 IAtWgt=           1           1
 AtmWgt=   1.0078250   1.0078250
 NucSpn=           1           1
 AtZEff=  -0.0000000  -0.0000000
 NQMom=    0.0000000   0.0000000
 NMagM=    2.7928460   2.7928460
 AtZNuc=   1.0000000   1.0000000
 Leave Link  101 at Mon Nov 14 15:21:59 2022, MaxMem= 16106127360 cpu:               5.5 elap:               0.2
 (Enter /opt/ap/G16/B01/g16/l202.exe)
                          Input orientation:                          
 ---------------------------------------------------------------------
 Center     Atomic      Atomic             Coordinates (Angstroms)
 Number     Number       Type             X           Y           Z
 ---------------------------------------------------------------------
      1          6           0        0.000000    0.000000    0.000000
      2          6           0        0.000000    0.000000    1.394128
      3          6           0        1.221126    0.000000   -0.673109
      4          6           0        1.193108    0.000764    2.115362
      5          1           0       -0.944957   -0.000427    1.927071
      6          6           0       -1.278366   -0.017366   -0.754803
      7          6           0        2.428476    0.001115    0.024455
      8          1           0        1.232154   -0.045667   -1.756969
      9          6           0        2.400843    0.001752    1.418572
     10          6           0        1.177445    0.018728    3.599837
     11          6           0       -2.117905    1.098996   -0.764831
     12          6           0       -1.667789   -1.151700   -1.470958
     13          6           0        3.721572    0.001921   -0.704680
     14          1           0        3.334061    0.048144    1.969857
     15          6           0        0.290794    0.844275    4.295193
     16          6           0        2.049080   -0.790881    4.331965
     17          6           0       -3.313002    1.082129   -1.472271
     18          1           0       -1.841428    1.979768   -0.195171
     19          6           0       -2.862740   -1.169596   -2.178492
     20          1           0       -1.017417   -2.019752   -1.489766
     21          6           0        3.910862    0.818865   -1.821777
     22          6           0        4.776237   -0.814044   -0.288725
     23          6           0        0.275860    0.859807    5.683909
     24          1           0       -0.377402    1.495584    3.742000
     25          6           0        2.035025   -0.775886    5.720674
     26          1           0        2.729408   -1.453102    3.807101
     27          6           0       -3.689503   -0.052086   -2.182287
     28          1           0       -3.956011    1.955199   -1.462024
     29          1           0       -3.145161   -2.056437   -2.734896
     30          6           0        5.120444    0.820149   -2.504230
     31          1           0        3.109266    1.474569   -2.144691
     32          6           0        5.986440   -0.813321   -0.970068
     33          1           0        4.638168   -1.470412    0.563864
     34          6           0        1.147946    0.049642    6.401818
     35          1           0       -0.413890    1.513063    6.206701
     36          1           0        2.713797   -1.416787    6.272362
     37          1           0       -4.622447   -0.065529   -2.734340
     38          6           0        6.162883    0.003944   -2.080611
     39          1           0        5.251831    1.466740   -3.364741
     40          1           0        6.791448   -1.459089   -0.637249
     41          1           0        1.136620    0.061726    7.485815
     42          1           0        7.107346    0.004761   -2.612865
 ---------------------------------------------------------------------
                    Distance matrix (angstroms):
                    1          2          3          4          5
     1  C    0.000000
     2  C    1.394128   0.000000
     3  C    1.394354   2.400962   0.000000
     4  C    2.428634   1.394161   2.788612   0.000000
     5  H    2.146287   1.084884   3.384206   2.146341   0.000000
     6  C    1.484671   2.500485   2.500887   3.787659   2.702572
     7  C    2.428599   2.788100   1.394378   2.428585   3.872983
     8  H    2.146445   3.383741   1.084878   3.872806   4.279487
     9  C    2.788619   2.400968   2.401430   1.394324   3.384222
    10  C    3.787552   2.500376   4.273210   1.484666   2.702426
    11  C    2.505649   3.217828   3.516437   4.523763   3.135422
    12  C    2.504326   3.509509   3.210732   4.730179   3.659851
    13  C    3.787700   4.272598   2.500646   3.787581   5.357482
    14  H    3.872805   3.383747   3.384092   2.146415   4.279508
    15  C    4.387032   3.035381   5.124680   2.505463   2.801537
    16  C    4.856969   3.668120   5.134371   2.504540   3.920790
    17  C    3.783460   4.512564   4.729480   5.860502   4.281949
    18  H    2.710799   3.136273   3.677926   4.296909   3.037884
    19  C    3.782732   4.725130   4.506894   6.021364   4.679796
    20  H    2.708124   3.664884   3.123684   4.686773   3.969596
    21  C    4.391384   5.129076   3.037212   4.853507   6.189029
    22  C    4.853707   5.129045   3.667320   4.391169   6.189006
    23  C    5.755188   4.383786   6.484171   3.783362   4.042800
    24  H    4.047440   2.809218   4.928007   2.710524   2.419532
    25  C    6.121229   4.843792   6.491910   3.782894   4.886007
    26  H    4.904609   3.922195   4.945574   2.708491   4.375585
    27  C    4.286902   5.138667   5.137569   6.504804   4.941864
    28  H    4.648692   5.256466   5.589985   6.567414   4.937295
    29  H    4.647647   5.582993   5.248272   6.824782   5.549955
    30  C    5.758711   6.487587   4.385239   6.118495   7.556379
    31  H    4.054822   4.936104   2.811579   4.898143   5.932249
    32  C    6.118822   6.487555   4.843334   5.758354   7.556353
    33  H    4.898230   4.935996   3.920254   4.054620   5.932156
    34  C    6.504116   5.137821   7.075480   4.286973   4.940255
    35  H    6.401859   5.061770   7.231488   4.648499   4.570330
    36  H    6.979577   5.759266   7.243957   4.647859   5.854410
    37  H    5.371027   6.198029   6.196799   7.572627   5.937754
    38  C    6.504621   7.074953   5.138292   6.504219   8.159837
    39  H    6.407382   7.237395   5.063871   6.975231   8.279857
    40  H    6.975586   7.237348   5.758361   6.406985   8.279819
    41  H    7.571865   6.197125   8.159595   5.371096   5.936031
    42  H    7.572414   8.159067   6.197601   7.571945   9.243951
                    6          7          8          9         10
     6  C    0.000000
     7  C    3.787910   0.000000
     8  H    2.703303   2.146356   0.000000
     9  C    4.273231   1.394392   3.384102   0.000000
    10  C    4.999520   3.787973   5.357472   2.500981   0.000000
    11  C    1.396850   4.743194   3.676613   5.137147   5.574642
    12  C    1.396868   4.510501   3.116853   5.121875   5.931123
    13  C    5.000226   1.484499   2.703105   2.500505   5.000173
    14  H    5.357476   2.146366   4.279725   1.084879   2.703459
    15  C    5.357906   4.849723   6.189251   3.665665   1.396854
    16  C    6.127433   4.396117   6.188524   3.039714   1.396863
    17  C    2.421445   6.031032   4.691633   6.494014   6.857202
    18  H    2.149133   4.711197   3.998563   4.951119   5.230808
    19  C    2.421728   5.849829   4.267206   6.481993   7.150125
    20  H    2.148909   4.272112   3.004825   4.922338   5.905664
    21  C    5.363376   2.504946   2.815510   3.667109   6.124188
    22  C    6.124553   2.504906   3.912375   3.036921   5.363369
    23  C    6.681472   6.115597   7.556523   4.841994   2.421492
    24  H    4.829285   4.891475   5.933362   3.917716   2.149154
    25  C    7.313393   5.762417   7.555989   4.387097   2.421736
    26  H    6.239756   4.063707   5.931401   2.815959   2.148914
    27  C    2.802231   6.504015   4.940004   7.075409   7.558119
    28  H    3.400141   6.840302   5.568438   7.247302   7.464900
    29  H    3.400515   6.550798   4.915325   7.228112   7.944814
    30  C    6.686306   3.783088   4.053003   4.842972   7.310892
    31  H    4.838282   2.709194   2.446425   3.920191   6.233057
    32  C    7.311449   3.783053   4.879728   4.384797   6.686012
    33  H    6.233426   2.709077   4.360860   2.811302   4.838519
    34  C    7.557031   6.504835   8.159779   5.138559   2.802307
    35  H    7.179977   6.970308   8.280044   5.756123   3.400165
    36  H    8.202243   6.413127   8.279214   5.066504   3.400510
    37  H    3.886356   7.571717   5.935655   8.159523   8.588809
    38  C    7.558466   4.286853   4.941589   5.137824   7.557929
    39  H    7.187337   4.648230   4.585860   5.757987   8.197725
    40  H    8.198432   4.648180   5.844424   5.063385   7.187062
    41  H    8.587561   7.572613   9.243902   6.197846   3.886431
    42  H    8.589123   5.370968   5.937422   6.197069   8.588456
                   11         12         13         14         15
    11  C    0.000000
    12  C    2.401427   0.000000
    13  C    5.941942   5.564461   0.000000
    14  H    6.189244   6.188484   2.702860   0.000000
    15  C    5.609863   6.408468   6.121971   3.911840   0.000000
    16  C    6.849287   6.900668   5.365963   2.816859   2.401387
    17  C    1.388889   2.774296   7.158301   7.556508   6.804966
    18  H    1.084764   3.385835   5.926082   5.933313   5.098929
    19  C    2.774838   1.388824   6.848192   7.555927   7.477236
    20  H    3.385733   1.084828   5.211673   5.931319   6.586335
    21  C    6.127123   5.926849   1.396829   3.911930   7.107943
    22  C    7.170467   6.560271   1.396832   2.815037   6.624314
    23  C    6.882846   7.682190   7.309101   4.879095   1.388883
    24  H    4.847490   5.987332   6.229413   4.360107   1.084763
    25  C    7.926146   8.097632   6.688393   4.054029   2.774755
    26  H    7.135279   6.876343   4.843310   2.448430   3.385708
    27  C    2.409169   2.408832   7.557134   8.159706   7.655324
    28  H    2.144247   3.858608   7.958275   8.280085   7.239824
    29  H    3.859166   2.144462   7.450546   8.279147   8.345183
    30  C    7.449628   7.143944   2.421718   4.878996   8.340159
    31  H    5.419260   5.492855   2.148776   4.360587   7.057844
    32  C    8.329434   7.678060   2.421709   4.052208   7.931644
    33  H    7.349273   6.633790   2.148749   2.446125   6.179018
    34  C    7.945300   8.447023   7.558317   4.941800   2.409154
    35  H    7.188697   8.223118   8.194680   5.843284   2.144229
    36  H    8.899246   8.900987   7.190790   4.587189   3.859086
    37  H    3.392317   3.392036   8.587591   9.243831   8.624501
    38  C    8.455878   7.938930   2.802355   4.940696   8.708529
    39  H    7.823540   7.637000   3.400487   5.843645   9.147346
    40  H    9.270202   8.505777   3.400476   4.585006   8.478973
    41  H    8.929783   9.463661   8.588933   5.937569   3.392325
    42  H    9.471949   8.924367   3.886469   5.936405   9.741223
                   16         17         18         19         20
    16  C    0.000000
    17  C    8.120914   0.000000
    18  H    6.580844   2.145291   0.000000
    19  C    8.164279   2.402446   3.859422   0.000000
    20  H    6.693734   3.858974   4.283822   2.145303   0.000000
    21  C    6.627673   7.237104   6.089531   7.068444   5.697009
    22  C    5.365510   8.392381   7.183845   7.877285   6.038432
    23  C    2.774316   8.008762   6.348291   8.705552   7.837476
    24  H    3.385823   5.998109   4.228371   6.952144   6.335501
    25  C    1.388861   9.153801   7.590635   9.302684   7.928117
    26  H    1.084834   8.414861   6.978203   8.196329   6.512802
    27  C    8.712786   1.390079   3.390052   1.390101   3.389888
    28  H    8.784781   1.084351   2.465154   3.387168   4.943312
    29  H    8.861281   3.387180   4.943772   1.084359   2.465561
    30  C    7.665654   8.500387   7.425909   8.233858   6.838677
    31  H    6.942862   6.469288   5.344644   6.531279   5.446899
    32  C    6.604154   9.503923   8.347294   8.938412   7.125978
    33  H    4.622091   8.595489   7.380044   7.992161   6.041921
    34  C    2.408903   9.108643   7.495466   9.549548   8.440870
    35  H    3.858628   8.219316   6.575685   9.138106   8.490030
    36  H    2.144469  10.126511   8.609044  10.127971   8.633432
    37  H    9.745157   2.150485   4.285405   2.150465   4.285346
    38  C    7.660043   9.556410   8.457409   9.102124   7.483392
    39  H    8.636768   8.779849   7.786122   8.614158   7.414487
    40  H    6.901424  10.452510   9.303103   9.780725   7.875246
    41  H    3.392092  10.054236   8.458439  10.531375   9.462212
    42  H    8.628428  10.537805   9.477682  10.048403   8.448181
                   21         22         23         24         25
    21  C    0.000000
    22  C    2.401148   0.000000
    23  C    8.339678   7.663388   0.000000
    24  H    7.057108   6.938381   2.145221   0.000000
    25  C    7.934139   6.605193   2.402396   3.859344   0.000000
    26  H    6.184005   4.623169   3.858996   4.283837   2.145356
    27  C    7.658595   8.708325   8.856224   6.961500   9.785240
    28  H    7.956655   9.235664   8.376931   6.332421   9.743844
    29  H    7.673891   8.383069   9.543801   7.888442   9.998540
    30  C    1.388824   2.774442   9.514051   8.348527   8.928391
    31  H    1.084794   3.385432   8.348239   6.841814   8.251212
    32  C    2.774430   1.388819   8.926672   8.248218   7.770528
    33  H    3.385417   1.084800   7.118603   6.637291   5.818196
    34  C    8.709358   7.659884   1.390070   3.389995   1.390095
    35  H    9.145591   8.633852   1.084348   2.465033   3.387137
    36  H    8.482109   6.903971   3.387136   4.943698   1.084363
    37  H    8.627415   9.740461   9.783485   7.899396  10.784888
    38  C    2.408878   2.408889   9.781478   8.882743   8.860440
    39  H    2.144453   3.858761  10.344405   9.066139   9.895553
    40  H    3.858751   2.144441   9.369482   8.905073   7.969536
    41  H    9.741711   8.628862   2.150513   4.285366   2.150453
    42  H    3.392063   3.392069  10.781315   9.931179   9.787018
                   26         27         28         29         30
    26  H    0.000000
    27  C    8.890334   0.000000
    28  H    9.169243   2.149185   0.000000
    29  H    8.813189   2.149210   4.286129   0.000000
    30  C    7.121630   8.858872   9.206332   8.754894   0.000000
    31  H    6.643746   6.968167   7.114434   7.206538   2.145313
    32  C    5.817122   9.781249  10.332427   9.383287   2.402462
    33  H    3.763276   8.882742   9.470953   8.473810   3.859075
    34  C    3.389959   9.853839   9.566689  10.312414   9.782234
    35  H    4.943333   9.140812   8.458809  10.007663  10.343562
    36  H    2.465578  10.693257  10.755341  10.764164   9.371467
    37  H    9.938088   1.084125   2.479166   2.479130   9.785770
    38  C    6.969712   9.853071  10.323859   9.555781   1.390081
    39  H    8.143918   9.146174   9.415056   9.127921   1.084353
    40  H    6.021000  10.687242  11.306878  10.173158   3.387152
    41  H    4.285396  10.806323  10.468235  11.281985  10.781792
    42  H    7.906179  10.805581  11.292763  10.458361   2.150451
                   31         32         33         34         35
    31  H    0.000000
    32  C    3.859055   0.000000
    33  H    4.283308   2.145356   0.000000
    34  C    8.883693   8.860047   6.969499   0.000000
    35  H    9.064207   9.893547   8.140394   2.149187   0.000000
    36  H    8.908597   7.970392   6.024369   2.149200   4.286112
    37  H    7.905629  10.780553   9.930299  10.806484  10.007303
    38  C    3.389900   1.390094   3.389946   9.854100  10.686951
    39  H    2.465597   3.387150   4.943418  10.688111  11.122726
    40  H    4.943399   1.084354   2.465647   9.147341  10.372571
    41  H    9.931470   9.787155   7.907066   1.084123   2.479233
    42  H    4.285343   2.150458   4.285392  10.806525  11.688828
                   36         37         38         39         40
    36  H    0.000000
    37  H   11.694745   0.000000
    38  C    9.148051  10.805348   0.000000
    39  H   10.374492  10.012324   2.149134   0.000000
    40  H    8.023201  11.688319   2.149152   4.286037   0.000000
    41  H    2.479104  11.731778  10.806626  11.689465  10.013697
    42  H   10.013557  11.730633   1.084114   2.479039   2.479054
                   41         42
    41  H    0.000000
    42  H   11.731844   0.000000
 Stoichiometry    C24H18
 Framework group  C1[X(C24H18)]
 Deg. of freedom   120
 Full point group                 C1      NOp   1
 Largest Abelian subgroup         C1      NOp   1
 Largest concise Abelian subgroup C1      NOp   1
                         Standard orientation:                         
 ---------------------------------------------------------------------
 Center     Atomic      Atomic             Coordinates (Angstroms)
 Number     Number       Type             X           Y           Z
 ---------------------------------------------------------------------
      1          6           0       -1.400543   -0.049951    0.041396
      2          6           0       -0.734115    1.174575    0.043309
      3          6           0       -0.650345   -1.224504   -0.001676
      4          6           0        0.657994    1.238134    0.002354
      5          1           0       -1.308870    2.094079    0.077083
      6          6           0       -2.883050   -0.102563    0.101839
      7          6           0        0.742941   -1.188531   -0.043506
      8          1           0       -1.157422   -2.182584    0.042095
      9          6           0        1.385087    0.049197   -0.041276
     10          6           0        1.353327    2.549816   -0.013021
     11          6           0       -3.657941    0.309440   -0.984893
     12          6           0       -3.533597   -0.565650    1.247954
     13          6           0        1.529511   -2.446660   -0.089944
     14          1           0        2.466460    0.088439   -0.119094
     15          6           0        0.882895    3.598747   -0.806518
     16          6           0        2.492477    2.762166    0.767024
     17          6           0       -5.044726    0.258661   -0.927757
     18          1           0       -3.169050    0.693319   -1.873901
     19          6           0       -4.920267   -0.616599    1.306114
     20          1           0       -2.945914   -0.908219    2.093014
     21          6           0        1.137447   -3.503817   -0.914467
     22          6           0        2.678384   -2.599566    0.689702
     23          6           0        1.533165    4.825927   -0.819619
     24          1           0        0.012564    3.443579   -1.435134
     25          6           0        3.143532    3.988911    0.754429
     26          1           0        2.858445    1.964437    1.404647
     27          6           0       -5.680999   -0.205205    0.217802
     28          1           0       -5.630186    0.590282   -1.778098
     29          1           0       -5.407859   -0.986103    2.201409
     30          6           0        1.873006   -4.681039   -0.958437
     31          1           0        0.259960   -3.392917   -1.542555
     32          6           0        3.415034   -3.776119    0.646273
     33          1           0        2.984207   -1.796363    1.351614
     34          6           0        2.665931    5.025563   -0.039053
     35          1           0        1.158202    5.626177   -1.447961
     36          1           0        4.022118    4.137889    1.372276
     37          1           0       -6.763475   -0.244670    0.262681
     38          6           0        3.014816   -4.821378   -0.178118
     39          1           0        1.557819   -5.488181   -1.610357
     40          1           0        4.299957   -3.879773    1.264328
     41          1           0        3.173806    5.983311   -0.049251
     42          1           0        3.589454   -5.740034   -0.212263
 ---------------------------------------------------------------------
 Rotational constants (GHZ):           0.1977326           0.1948714           0.1045022
 Leave Link  202 at Mon Nov 14 15:21:59 2022, MaxMem= 16106127360 cpu:               0.3 elap:               0.0
 (Enter /opt/ap/G16/B01/g16/l301.exe)
 Standard basis: 6-311++G(d,p) (5D, 7F)
 Ernie: Thresh=  0.10000D-02 Tol=  0.10000D-05 Strict=F.
 There are   678 symmetry adapted cartesian basis functions of A   symmetry.
 There are   654 symmetry adapted basis functions of A   symmetry.
   654 basis functions,  1026 primitive gaussians,   678 cartesian basis functions
    81 alpha electrons       81 beta electrons
       nuclear repulsion energy      1730.9888098675 Hartrees.
 IExCor= 4639 DFT=T Ex+Corr=wB97XD ExCW=0 ScaHFX=  1.000000
 ScaDFX=  1.000000  1.000000  1.000000  1.000000 ScalE2=  1.000000  1.000000
 IRadAn=      5 IRanWt=     -1 IRanGd=            0 ICorTp=0 IEmpDi=121
 HFx  wShort=  0.000000 wLong=  0.200000 cFull=  0.222036 cShort=  0.000000 cLong=  0.777964
 DFx  wShort=  0.000000 wLong=  0.200000 cFull=  0.000000 cShort=  0.000000 cLong=  1.000000
 NAtoms=   42 NActive=   42 NUniq=   42 SFac= 1.00D+00 NAtFMM=   60 NAOKFM=F Big=F
 Integral buffers will be    131072 words long.
 Raffenetti 2 integral format.
 Two-electron integral symmetry is turned on.
 R6Disp:  Grimme-D2 Dispersion energy=       -0.0287685580 Hartrees.
 Nuclear repulsion after empirical dispersion term =     1730.9600413095 Hartrees.
 Leave Link  301 at Mon Nov 14 15:21:59 2022, MaxMem= 16106127360 cpu:               1.3 elap:               0.0
 (Enter /opt/ap/G16/B01/g16/l302.exe)
 NPDir=0 NMtPBC=     1 NCelOv=     1 NCel=       1 NClECP=     1 NCelD=      1
         NCelK=      1 NCelE2=     1 NClLst=     1 CellRange=     0.0.
 One-electron integrals computed using PRISM.
 One-electron integral symmetry used in STVInt
 NBasis=   654 RedAO= T EigKep=  1.01D-06  NBF=   654
 NBsUse=   646 1.00D-06 EigRej=  7.46D-07 NBFU=   646
 Precomputing XC quadrature grid using
 IXCGrd= 4 IRadAn=           5 IRanWt=          -1 IRanGd=           0 AccXCQ= 0.00D+00.
 Generated NRdTot=       0 NPtTot=           0 NUsed=           0 NTot=          32
 NSgBfM=   669   669   669   669   669 MxSgAt=    42 MxSgA2=    42.
 Leave Link  302 at Mon Nov 14 15:22:00 2022, MaxMem= 16106127360 cpu:              21.2 elap:               0.7
 (Enter /opt/ap/G16/B01/g16/l303.exe)
 DipDrv:  MaxL=1.
 Leave Link  303 at Mon Nov 14 15:22:00 2022, MaxMem= 16106127360 cpu:               4.1 elap:               0.1
 (Enter /opt/ap/G16/B01/g16/l401.exe)
 ExpMin= 3.60D-02 ExpMax= 4.56D+03 ExpMxC= 6.82D+02 IAcc=3 IRadAn=         5 AccDes= 0.00D+00
 Harris functional with IExCor= 4639 and IRadAn=       5 diagonalized for initial guess.
 HarFok:  IExCor= 4639 AccDes= 0.00D+00 IRadAn=         5 IDoV= 1 UseB2=F ITyADJ=14
 ICtDFT=  3500011 ScaDFX=  1.000000  1.000000  1.000000  1.000000
 FoFCou: FMM=F IPFlag=           0 FMFlag=      100000 FMFlg1=           0
         NFxFlg=           0 DoJE=T BraDBF=F KetDBF=T FulRan=T
         wScrn=  0.000000 ICntrl=       500 IOpCl=  0 I1Cent=   200000004 NGrid=           0
         NMat0=    1 NMatS0=      1 NMatT0=    0 NMatD0=    1 NMtDS0=    0 NMtDT0=    0
 Petite list used in FoFCou.
 Harris En= -882.968558023789    
 JPrj=0 DoOrth=F DoCkMO=F.
 Leave Link  401 at Mon Nov 14 15:22:02 2022, MaxMem= 16106127360 cpu:              55.9 elap:               1.8
 (Enter /opt/ap/G16/B01/g16/l502.exe)
 Integral symmetry usage will be decided dynamically.
 Closed shell SCF:
 Using DIIS extrapolation, IDIIS=  1040.
 NGot= 16106127360 LenX= 16105179956 LenY= 16104719594
 Requested convergence on RMS density matrix=1.00D-08 within 512 cycles.
 Requested convergence on MAX density matrix=1.00D-06.
 Requested convergence on             energy=1.00D-06.
 No special actions if energy rises.
 Fock matrices will be formed incrementally for  20 cycles.

 Cycle   1  Pass 1  IDiag  1:
 FoFJK:  IHMeth= 1 ICntrl=       0 DoSepK=T KAlg= 0 I1Cent=           0 FoldK=F
 IRaf=         1 NMat=       1 IRICut=       1 DoRegI=T DoRafI=F ISym2E= 0 IDoP0=0 IntGTp=1.
 FoFCou: FMM=F IPFlag=           0 FMFlag=      100000 FMFlg1=           0
         NFxFlg=           0 DoJE=T BraDBF=F KetDBF=F FulRan=T
         wScrn=  0.000000 ICntrl=       500 IOpCl=  0 I1Cent=           0 NGrid=           0
         NMat0=    1 NMatS0=      1 NMatT0=    0 NMatD0=    1 NMtDS0=    0 NMtDT0=    0
 Symmetry not used in FoFCou.
 E= -925.115052011990    
 DIIS: error= 4.61D-02 at cycle   1 NSaved=   1.
 NSaved= 1 IEnMin= 1 EnMin= -925.115052011990     IErMin= 1 ErrMin= 4.61D-02
 ErrMax= 4.61D-02  0.00D+00 EMaxC= 1.00D-01 BMatC= 1.90D+00 BMatP= 1.90D+00
 IDIUse=3 WtCom= 5.39D-01 WtEn= 4.61D-01
 Coeff-Com:  0.100D+01
 Coeff-En:   0.100D+01
 Coeff:      0.100D+01
 Gap=     0.318 Goal=   None    Shift=    0.000
 GapD=    0.318 DampG=1.000 DampE=0.500 DampFc=0.5000 IDamp=-1.
 Damping current iteration by 5.00D-01
 RMSDP=4.47D-02 MaxDP=4.42D+00              OVMax= 4.32D-02

 Cycle   2  Pass 1  IDiag  1:
 RMSU=  7.37D-03    CP:  8.21D-01
 E= -925.213460146945     Delta-E=       -0.098408134956 Rises=F Damp=T
 DIIS: error= 2.24D-02 at cycle   2 NSaved=   2.
 NSaved= 2 IEnMin= 2 EnMin= -925.213460146945     IErMin= 2 ErrMin= 2.24D-02
 ErrMax= 2.24D-02  0.00D+00 EMaxC= 1.00D-01 BMatC= 4.32D-01 BMatP= 1.90D+00
 IDIUse=3 WtCom= 7.76D-01 WtEn= 2.24D-01
 Coeff-Com: -0.883D+00 0.188D+01
 Coeff-En:   0.000D+00 0.100D+01
 Coeff:     -0.685D+00 0.169D+01
 Gap=     0.326 Goal=   None    Shift=    0.000
 RMSDP=2.61D-02 MaxDP=2.46D+00 DE=-9.84D-02 OVMax= 3.44D-02

 Cycle   3  Pass 1  IDiag  1:
 RMSU=  4.55D-03    CP:  6.04D-01  1.38D+00
 E= -925.301518349680     Delta-E=       -0.088058202734 Rises=F Damp=F
 DIIS: error= 3.39D-03 at cycle   3 NSaved=   3.
 NSaved= 3 IEnMin= 3 EnMin= -925.301518349680     IErMin= 3 ErrMin= 3.39D-03
 ErrMax= 3.39D-03  0.00D+00 EMaxC= 1.00D-01 BMatC= 8.85D-03 BMatP= 4.32D-01
 IDIUse=3 WtCom= 9.66D-01 WtEn= 3.39D-02
 Coeff-Com: -0.372D+00 0.788D+00 0.583D+00
 Coeff-En:   0.000D+00 0.000D+00 0.100D+01
 Coeff:     -0.359D+00 0.761D+00 0.598D+00
 Gap=     0.324 Goal=   None    Shift=    0.000
 RMSDP=2.23D-03 MaxDP=1.90D-01 DE=-8.81D-02 OVMax= 1.99D-02

 Cycle   4  Pass 1  IDiag  1:
 RMSU=  1.49D-03    CP:  6.00D-01  1.52D+00  7.36D-01
 E= -925.309631878115     Delta-E=       -0.008113528435 Rises=F Damp=F
 DIIS: error= 8.11D-04 at cycle   4 NSaved=   4.
 NSaved= 4 IEnMin= 4 EnMin= -925.309631878115     IErMin= 4 ErrMin= 8.11D-04
 ErrMax= 8.11D-04  0.00D+00 EMaxC= 1.00D-01 BMatC= 2.80D-04 BMatP= 8.85D-03
 IDIUse=3 WtCom= 9.92D-01 WtEn= 8.11D-03
 Coeff-Com: -0.114D+00 0.242D+00 0.237D+00 0.636D+00
 Coeff-En:   0.000D+00 0.000D+00 0.000D+00 0.100D+01
 Coeff:     -0.113D+00 0.240D+00 0.235D+00 0.638D+00
 Gap=     0.323 Goal=   None    Shift=    0.000
 RMSDP=6.57D-04 MaxDP=5.48D-02 DE=-8.11D-03 OVMax= 4.34D-03

 Cycle   5  Pass 1  IDiag  1:
 RMSU=  3.00D-04    CP:  5.97D-01  1.57D+00  7.71D-01  8.15D-01
 E= -925.309923804065     Delta-E=       -0.000291925950 Rises=F Damp=F
 DIIS: error= 1.99D-04 at cycle   5 NSaved=   5.
 NSaved= 5 IEnMin= 5 EnMin= -925.309923804065     IErMin= 5 ErrMin= 1.99D-04
 ErrMax= 1.99D-04  0.00D+00 EMaxC= 1.00D-01 BMatC= 2.02D-05 BMatP= 2.80D-04
 IDIUse=3 WtCom= 9.98D-01 WtEn= 1.99D-03
 Coeff-Com:  0.259D-01-0.552D-01-0.242D-01 0.196D+00 0.858D+00
 Coeff-En:   0.000D+00 0.000D+00 0.000D+00 0.000D+00 0.100D+01
 Coeff:      0.259D-01-0.551D-01-0.242D-01 0.195D+00 0.858D+00
 Gap=     0.323 Goal=   None    Shift=    0.000
 RMSDP=1.93D-04 MaxDP=1.08D-02 DE=-2.92D-04 OVMax= 1.42D-03

 Cycle   6  Pass 1  IDiag  1:
 RMSU=  8.53D-05    CP:  5.97D-01  1.57D+00  7.95D-01  8.75D-01  1.28D+00
 E= -925.309949297243     Delta-E=       -0.000025493178 Rises=F Damp=F
 DIIS: error= 5.97D-05 at cycle   6 NSaved=   6.
 NSaved= 6 IEnMin= 6 EnMin= -925.309949297243     IErMin= 6 ErrMin= 5.97D-05
 ErrMax= 5.97D-05  0.00D+00 EMaxC= 1.00D-01 BMatC= 1.49D-06 BMatP= 2.02D-05
 IDIUse=1 WtCom= 1.00D+00 WtEn= 0.00D+00
 Coeff-Com:  0.135D-01-0.288D-01-0.163D-01 0.543D-01 0.336D+00 0.641D+00
 Coeff:      0.135D-01-0.288D-01-0.163D-01 0.543D-01 0.336D+00 0.641D+00
 Gap=     0.323 Goal=   None    Shift=    0.000
 RMSDP=8.55D-05 MaxDP=7.48D-03 DE=-2.55D-05 OVMax= 4.21D-04

 Cycle   7  Pass 1  IDiag  1:
 RMSU=  5.00D-05    CP:  5.97D-01  1.57D+00  8.01D-01  9.06D-01  1.30D+00
                    CP:  8.09D-01
 E= -925.309951078094     Delta-E=       -0.000001780851 Rises=F Damp=F
 DIIS: error= 1.30D-05 at cycle   7 NSaved=   7.
 NSaved= 7 IEnMin= 7 EnMin= -925.309951078094     IErMin= 7 ErrMin= 1.30D-05
 ErrMax= 1.30D-05  0.00D+00 EMaxC= 1.00D-01 BMatC= 1.07D-07 BMatP= 1.49D-06
 IDIUse=1 WtCom= 1.00D+00 WtEn= 0.00D+00
 Coeff-Com: -0.205D-02 0.440D-02 0.176D-02-0.265D-01-0.920D-01 0.104D+00
 Coeff-Com:  0.101D+01
 Coeff:     -0.205D-02 0.440D-02 0.176D-02-0.265D-01-0.920D-01 0.104D+00
 Coeff:      0.101D+01
 Gap=     0.323 Goal=   None    Shift=    0.000
 RMSDP=3.05D-05 MaxDP=2.08D-03 DE=-1.78D-06 OVMax= 2.65D-04

 Cycle   8  Pass 1  IDiag  1:
 RMSU=  9.67D-06    CP:  5.97D-01  1.57D+00  8.04D-01  9.06D-01  1.36D+00
                    CP:  9.19D-01  1.23D+00
 E= -925.309951305523     Delta-E=       -0.000000227428 Rises=F Damp=F
 DIIS: error= 8.03D-06 at cycle   8 NSaved=   8.
 NSaved= 8 IEnMin= 8 EnMin= -925.309951305523     IErMin= 8 ErrMin= 8.03D-06
 ErrMax= 8.03D-06  0.00D+00 EMaxC= 1.00D-01 BMatC= 1.74D-08 BMatP= 1.07D-07
 IDIUse=1 WtCom= 1.00D+00 WtEn= 0.00D+00
 Coeff-Com: -0.159D-02 0.340D-02 0.164D-02-0.158D-01-0.591D-01 0.284D-01
 Coeff-Com:  0.473D+00 0.570D+00
 Coeff:     -0.159D-02 0.340D-02 0.164D-02-0.158D-01-0.591D-01 0.284D-01
 Coeff:      0.473D+00 0.570D+00
 Gap=     0.323 Goal=   None    Shift=    0.000
 RMSDP=4.04D-06 MaxDP=2.56D-04 DE=-2.27D-07 OVMax= 6.81D-05

 Cycle   9  Pass 1  IDiag  1:
 RMSU=  2.63D-06    CP:  5.97D-01  1.57D+00  8.04D-01  9.06D-01  1.36D+00
                    CP:  9.23D-01  1.25D+00  9.92D-01
 E= -925.309951327567     Delta-E=       -0.000000022044 Rises=F Damp=F
 DIIS: error= 2.87D-06 at cycle   9 NSaved=   9.
 NSaved= 9 IEnMin= 9 EnMin= -925.309951327567     IErMin= 9 ErrMin= 2.87D-06
 ErrMax= 2.87D-06  0.00D+00 EMaxC= 1.00D-01 BMatC= 2.04D-09 BMatP= 1.74D-08
 IDIUse=1 WtCom= 1.00D+00 WtEn= 0.00D+00
 Coeff-Com:  0.119D-03-0.259D-03 0.725D-04 0.293D-02 0.107D-01-0.169D-01
 Coeff-Com: -0.182D+00 0.141D+00 0.104D+01
 Coeff:      0.119D-03-0.259D-03 0.725D-04 0.293D-02 0.107D-01-0.169D-01
 Coeff:     -0.182D+00 0.141D+00 0.104D+01
 Gap=     0.323 Goal=   None    Shift=    0.000
 RMSDP=3.12D-06 MaxDP=2.12D-04 DE=-2.20D-08 OVMax= 4.87D-05

 Cycle  10  Pass 1  IDiag  1:
 RMSU=  7.63D-07    CP:  5.97D-01  1.57D+00  8.04D-01  9.06D-01  1.36D+00
                    CP:  9.29D-01  1.29D+00  1.22D+00  1.11D+00
 E= -925.309951333047     Delta-E=       -0.000000005480 Rises=F Damp=F
 DIIS: error= 8.38D-07 at cycle  10 NSaved=  10.
 NSaved=10 IEnMin=10 EnMin= -925.309951333047     IErMin=10 ErrMin= 8.38D-07
 ErrMax= 8.38D-07  0.00D+00 EMaxC= 1.00D-01 BMatC= 1.95D-10 BMatP= 2.04D-09
 IDIUse=1 WtCom= 1.00D+00 WtEn= 0.00D+00
 Coeff-Com:  0.138D-03-0.297D-03-0.629D-04 0.191D-02 0.693D-02-0.542D-02
 Coeff-Com: -0.855D-01-0.631D-02 0.341D+00 0.747D+00
 Coeff:      0.138D-03-0.297D-03-0.629D-04 0.191D-02 0.693D-02-0.542D-02
 Coeff:     -0.855D-01-0.631D-02 0.341D+00 0.747D+00
 Gap=     0.323 Goal=   None    Shift=    0.000
 RMSDP=5.47D-07 MaxDP=4.42D-05 DE=-5.48D-09 OVMax= 1.02D-05

 Cycle  11  Pass 1  IDiag  1:
 RMSU=  1.64D-07    CP:  5.97D-01  1.57D+00  8.04D-01  9.06D-01  1.36D+00
                    CP:  9.28D-01  1.29D+00  1.23D+00  1.19D+00  1.14D+00
 E= -925.309951333378     Delta-E=       -0.000000000331 Rises=F Damp=F
 DIIS: error= 2.13D-07 at cycle  11 NSaved=  11.
 NSaved=11 IEnMin=11 EnMin= -925.309951333378     IErMin=11 ErrMin= 2.13D-07
 ErrMax= 2.13D-07  0.00D+00 EMaxC= 1.00D-01 BMatC= 3.31D-11 BMatP= 1.95D-10
 IDIUse=1 WtCom= 1.00D+00 WtEn= 0.00D+00
 Coeff-Com:  0.217D-04-0.458D-04-0.199D-04 0.113D-03 0.219D-03 0.130D-02
 Coeff-Com:  0.247D-02-0.310D-01-0.629D-01 0.242D+00 0.848D+00
 Coeff:      0.217D-04-0.458D-04-0.199D-04 0.113D-03 0.219D-03 0.130D-02
 Coeff:      0.247D-02-0.310D-01-0.629D-01 0.242D+00 0.848D+00
 Gap=     0.323 Goal=   None    Shift=    0.000
 RMSDP=3.78D-07 MaxDP=3.48D-05 DE=-3.31D-10 OVMax= 3.29D-06

 Cycle  12  Pass 1  IDiag  1:
 RMSU=  7.25D-08    CP:  5.97D-01  1.57D+00  8.04D-01  9.06D-01  1.36D+00
                    CP:  9.28D-01  1.29D+00  1.24D+00  1.21D+00  1.31D+00
                    CP:  1.30D+00
 E= -925.309951333440     Delta-E=       -0.000000000062 Rises=F Damp=F
 DIIS: error= 7.91D-08 at cycle  12 NSaved=  12.
 NSaved=12 IEnMin=12 EnMin= -925.309951333440     IErMin=12 ErrMin= 7.91D-08
 ErrMax= 7.91D-08  0.00D+00 EMaxC= 1.00D-01 BMatC= 1.38D-12 BMatP= 3.31D-11
 IDIUse=1 WtCom= 1.00D+00 WtEn= 0.00D+00
 Coeff-Com: -0.146D-04 0.316D-04 0.103D-04-0.225D-03-0.826D-03 0.840D-03
 Coeff-Com:  0.100D-01-0.136D-02-0.368D-01-0.608D-01-0.583D-01 0.115D+01
 Coeff:     -0.146D-04 0.316D-04 0.103D-04-0.225D-03-0.826D-03 0.840D-03
 Coeff:      0.100D-01-0.136D-02-0.368D-01-0.608D-01-0.583D-01 0.115D+01
 Gap=     0.323 Goal=   None    Shift=    0.000
 RMSDP=1.63D-07 MaxDP=1.56D-05 DE=-6.18D-11 OVMax= 1.22D-06

 Cycle  13  Pass 1  IDiag  1:
 RMSU=  3.59D-08    CP:  5.97D-01  1.57D+00  8.04D-01  9.06D-01  1.36D+00
                    CP:  9.28D-01  1.28D+00  1.24D+00  1.21D+00  1.38D+00
                    CP:  1.45D+00  1.57D+00
 E= -925.309951333437     Delta-E=        0.000000000002 Rises=F Damp=F
 DIIS: error= 3.32D-08 at cycle  13 NSaved=  13.
 NSaved=13 IEnMin=12 EnMin= -925.309951333440     IErMin=13 ErrMin= 3.32D-08
 ErrMax= 3.32D-08  0.00D+00 EMaxC= 1.00D-01 BMatC= 1.75D-13 BMatP= 1.38D-12
 IDIUse=1 WtCom= 1.00D+00 WtEn= 0.00D+00
 Coeff-Com: -0.514D-05 0.111D-04 0.443D-05-0.671D-04-0.233D-03 0.179D-03
 Coeff-Com:  0.253D-02 0.121D-02-0.564D-02-0.262D-01-0.703D-01 0.324D+00
 Coeff-Com:  0.775D+00
 Coeff:     -0.514D-05 0.111D-04 0.443D-05-0.671D-04-0.233D-03 0.179D-03
 Coeff:      0.253D-02 0.121D-02-0.564D-02-0.262D-01-0.703D-01 0.324D+00
 Coeff:      0.775D+00
 Gap=     0.323 Goal=   None    Shift=    0.000
 RMSDP=2.04D-08 MaxDP=1.81D-06 DE= 2.27D-12 OVMax= 3.02D-07

 Cycle  14  Pass 1  IDiag  1:
 RMSU=  7.82D-09    CP:  5.97D-01  1.57D+00  8.04D-01  9.06D-01  1.36D+00
                    CP:  9.28D-01  1.28D+00  1.24D+00  1.21D+00  1.38D+00
                    CP:  1.45D+00  1.68D+00  1.14D+00
 E= -925.309951333429     Delta-E=        0.000000000009 Rises=F Damp=F
 DIIS: error= 8.72D-09 at cycle  14 NSaved=  14.
 NSaved=14 IEnMin=12 EnMin= -925.309951333440     IErMin=14 ErrMin= 8.72D-09
 ErrMax= 8.72D-09  0.00D+00 EMaxC= 1.00D-01 BMatC= 4.93D-14 BMatP= 1.75D-13
 IDIUse=1 WtCom= 1.00D+00 WtEn= 0.00D+00
 Coeff-Com:  0.604D-06-0.134D-05-0.173D-06 0.138D-04 0.579D-04-0.802D-04
 Coeff-Com: -0.816D-03 0.663D-03 0.430D-02 0.533D-03-0.220D-01-0.882D-01
 Coeff-Com:  0.338D+00 0.767D+00
 Coeff:      0.604D-06-0.134D-05-0.173D-06 0.138D-04 0.579D-04-0.802D-04
 Coeff:     -0.816D-03 0.663D-03 0.430D-02 0.533D-03-0.220D-01-0.882D-01
 Coeff:      0.338D+00 0.767D+00
 Gap=     0.323 Goal=   None    Shift=    0.000
 RMSDP=1.48D-08 MaxDP=1.58D-06 DE= 8.64D-12 OVMax= 1.03D-07

 Cycle  15  Pass 1  IDiag  1:
 RMSU=  2.98D-09    CP:  5.97D-01  1.57D+00  8.04D-01  9.06D-01  1.36D+00
                    CP:  9.28D-01  1.28D+00  1.24D+00  1.21D+00  1.39D+00
                    CP:  1.46D+00  1.76D+00  1.31D+00  8.59D-01
 E= -925.309951333436     Delta-E=       -0.000000000007 Rises=F Damp=F
 DIIS: error= 1.58D-09 at cycle  15 NSaved=  15.
 NSaved=15 IEnMin=12 EnMin= -925.309951333440     IErMin=15 ErrMin= 1.58D-09
 ErrMax= 1.58D-09  0.00D+00 EMaxC= 1.00D-01 BMatC= 2.08D-15 BMatP= 4.93D-14
 IDIUse=1 WtCom= 1.00D+00 WtEn= 0.00D+00
 Coeff-Com:  0.543D-06-0.118D-05-0.435D-06 0.868D-05 0.333D-04-0.373D-04
 Coeff-Com: -0.411D-03 0.968D-04 0.160D-02 0.209D-02-0.969D-03-0.496D-01
 Coeff-Com:  0.416D-01 0.176D+00 0.830D+00
 Coeff:      0.543D-06-0.118D-05-0.435D-06 0.868D-05 0.333D-04-0.373D-04
 Coeff:     -0.411D-03 0.968D-04 0.160D-02 0.209D-02-0.969D-03-0.496D-01
 Coeff:      0.416D-01 0.176D+00 0.830D+00
 Gap=     0.323 Goal=   None    Shift=    0.000
 RMSDP=4.02D-09 MaxDP=4.59D-07 DE=-7.28D-12 OVMax= 2.60D-08

 SCF Done:  E(RwB97XD) =  -925.309951333     A.U. after   15 cycles
            NFock= 15  Conv=0.40D-08     -V/T= 2.0044
 KE= 9.212943292467D+02 PE=-5.608409958584D+03 EE= 2.030845636694D+03
 Leave Link  502 at Mon Nov 14 15:24:35 2022, MaxMem= 16106127360 cpu:            4889.5 elap:             153.3
 (Enter /opt/ap/G16/B01/g16/l601.exe)
 Copying SCF densities to generalized density rwf, IOpCl= 0 IROHF=0.

 **********************************************************************

            Population analysis using the SCF Density.

 **********************************************************************

 Orbital symmetries:
       Occupied  (A) (A) (A) (A) (A) (A) (A) (A) (A) (A) (A) (A)
                 (A) (A) (A) (A) (A) (A) (A) (A) (A) (A) (A) (A)
                 (A) (A) (A) (A) (A) (A) (A) (A) (A) (A) (A) (A)
                 (A) (A) (A) (A) (A) (A) (A) (A) (A) (A) (A) (A)
                 (A) (A) (A) (A) (A) (A) (A) (A) (A) (A) (A) (A)
                 (A) (A) (A) (A) (A) (A) (A) (A) (A) (A) (A) (A)
                 (A) (A) (A) (A) (A) (A) (A) (A) (A)
       Virtual   (A) (A) (A) (A) (A) (A) (A) (A) (A) (A) (A) (A)
                 (A) (A) (A) (A) (A) (A) (A) (A) (A) (A) (A) (A)
                 (A) (A) (A) (A) (A) (A) (A) (A) (A) (A) (A) (A)
                 (A) (A) (A) (A) (A) (A) (A) (A) (A) (A) (A) (A)
                 (A) (A) (A) (A) (A) (A) (A) (A) (A) (A) (A) (A)
                 (A) (A) (A) (A) (A) (A) (A) (A) (A) (A) (A) (A)
                 (A) (A) (A) (A) (A) (A) (A) (A) (A) (A) (A) (A)
                 (A) (A) (A) (A) (A) (A) (A) (A) (A) (A) (A) (A)
                 (A) (A) (A) (A) (A) (A) (A) (A) (A) (A) (A) (A)
                 (A) (A) (A) (A) (A) (A) (A) (A) (A) (A) (A) (A)
                 (A) (A) (A) (A) (A) (A) (A) (A) (A) (A) (A) (A)
                 (A) (A) (A) (A) (A) (A) (A) (A) (A) (A) (A) (A)
                 (A) (A) (A) (A) (A) (A) (A) (A) (A) (A) (A) (A)
                 (A) (A) (A) (A) (A) (A) (A) (A) (A) (A) (A) (A)
                 (A) (A) (A) (A) (A) (A) (A) (A) (A) (A) (A) (A)
                 (A) (A) (A) (A) (A) (A) (A) (A) (A) (A) (A) (A)
                 (A) (A) (A) (A) (A) (A) (A) (A) (A) (A) (A) (A)
                 (A) (A) (A) (A) (A) (A) (A) (A) (A) (A) (A) (A)
                 (A) (A) (A) (A) (A) (A) (A) (A) (A) (A) (A) (A)
                 (A) (A) (A) (A) (A) (A) (A) (A) (A) (A) (A) (A)
                 (A) (A) (A) (A) (A) (A) (A) (A) (A) (A) (A) (A)
                 (A) (A) (A) (A) (A) (A) (A) (A) (A) (A) (A) (A)
                 (A) (A) (A) (A) (A) (A) (A) (A) (A) (A) (A) (A)
                 (A) (A) (A) (A) (A) (A) (A) (A) (A) (A) (A) (A)
                 (A) (A) (A) (A) (A) (A) (A) (A) (A) (A) (A) (A)
                 (A) (A) (A) (A) (A) (A) (A) (A) (A) (A) (A) (A)
                 (A) (A) (A) (A) (A) (A) (A) (A) (A) (A) (A) (A)
                 (A) (A) (A) (A) (A) (A) (A) (A) (A) (A) (A) (A)
                 (A) (A) (A) (A) (A) (A) (A) (A) (A) (A) (A) (A)
                 (A) (A) (A) (A) (A) (A) (A) (A) (A) (A) (A) (A)
                 (A) (A) (A) (A) (A) (A) (A) (A) (A) (A) (A) (A)
                 (A) (A) (A) (A) (A) (A) (A) (A) (A) (A) (A) (A)
                 (A) (A) (A) (A) (A) (A) (A) (A) (A) (A) (A) (A)
                 (A) (A) (A) (A) (A) (A) (A) (A) (A) (A) (A) (A)
                 (A) (A) (A) (A) (A) (A) (A) (A) (A) (A) (A) (A)
                 (A) (A) (A) (A) (A) (A) (A) (A) (A) (A) (A) (A)
                 (A) (A) (A) (A) (A) (A) (A) (A) (A) (A) (A) (A)
                 (A) (A) (A) (A) (A) (A) (A) (A) (A) (A) (A) (A)
                 (A) (A) (A) (A) (A) (A) (A) (A) (A) (A) (A) (A)
                 (A) (A) (A) (A) (A) (A) (A) (A) (A) (A) (A) (A)
                 (A) (A) (A) (A) (A) (A) (A) (A) (A) (A) (A) (A)
                 (A) (A) (A) (A) (A) (A) (A) (A) (A) (A) (A) (A)
                 (A) (A) (A) (A) (A) (A) (A) (A) (A) (A) (A) (A)
                 (A) (A) (A) (A) (A) (A) (A) (A) (A) (A) (A) (A)
                 (A) (A) (A) (A) (A) (A) (A) (A) (A) (A) (A) (A)
                 (A) (A) (A) (A) (A) (A) (A) (A) (A) (A) (A) (A)
                 (A) (A) (A) (A) (A) (A) (A) (A) (A) (A) (A) (A)
                 (A)
 The electronic state is 1-A.
 Alpha  occ. eigenvalues --  -10.30385 -10.30384 -10.30347 -10.30314 -10.30299
 Alpha  occ. eigenvalues --  -10.30248 -10.29240 -10.29231 -10.29228 -10.29209
 Alpha  occ. eigenvalues --  -10.29205 -10.29183 -10.29159 -10.29153 -10.29146
 Alpha  occ. eigenvalues --  -10.29141 -10.29110 -10.29103 -10.29094 -10.29080
 Alpha  occ. eigenvalues --  -10.29071 -10.29058 -10.29055 -10.29046  -0.98940
 Alpha  occ. eigenvalues --   -0.97038  -0.97005  -0.95249  -0.89395  -0.89372
 Alpha  occ. eigenvalues --   -0.85318  -0.85272  -0.85199  -0.85034  -0.82255
 Alpha  occ. eigenvalues --   -0.82218  -0.73513  -0.73274  -0.71121  -0.70629
 Alpha  occ. eigenvalues --   -0.70305  -0.70094  -0.66792  -0.66675  -0.63453
 Alpha  occ. eigenvalues --   -0.60687  -0.60643  -0.58720  -0.57141  -0.56503
 Alpha  occ. eigenvalues --   -0.54936  -0.54748  -0.54501  -0.54255  -0.53051
 Alpha  occ. eigenvalues --   -0.51910  -0.51413  -0.51282  -0.51102  -0.50841
 Alpha  occ. eigenvalues --   -0.50754  -0.47711  -0.46639  -0.46104  -0.45994
 Alpha  occ. eigenvalues --   -0.45525  -0.45066  -0.44290  -0.43148  -0.43047
 Alpha  occ. eigenvalues --   -0.42881  -0.41826  -0.41413  -0.36516  -0.35394
 Alpha  occ. eigenvalues --   -0.33616  -0.33603  -0.33593  -0.33030  -0.31092
 Alpha  occ. eigenvalues --   -0.30223
 Alpha virt. eigenvalues --    0.02073   0.02907   0.03674   0.04208   0.04328
 Alpha virt. eigenvalues --    0.04810   0.04916   0.04942   0.05161   0.05273
 Alpha virt. eigenvalues --    0.05315   0.05675   0.05703   0.06779   0.06869
 Alpha virt. eigenvalues --    0.06961   0.07301   0.07918   0.07997   0.08401
 Alpha virt. eigenvalues --    0.08638   0.08949   0.09105   0.09496   0.11119
 Alpha virt. eigenvalues --    0.11496   0.12017   0.12169   0.12726   0.13339
 Alpha virt. eigenvalues --    0.13592   0.14006   0.14170   0.14616   0.15174
 Alpha virt. eigenvalues --    0.15563   0.15777   0.15826   0.16085   0.16321
 Alpha virt. eigenvalues --    0.16383   0.16576   0.17027   0.17401   0.17496
 Alpha virt. eigenvalues --    0.17535   0.17660   0.17849   0.18019   0.18063
 Alpha virt. eigenvalues --    0.18211   0.18260   0.18434   0.18685   0.18912
 Alpha virt. eigenvalues --    0.19037   0.19345   0.19445   0.20058   0.20328
 Alpha virt. eigenvalues --    0.20476   0.20653   0.20887   0.21207   0.21388
 Alpha virt. eigenvalues --    0.21942   0.22295   0.22471   0.22613   0.22853
 Alpha virt. eigenvalues --    0.22988   0.23205   0.23361   0.23681   0.23819
 Alpha virt. eigenvalues --    0.24447   0.24956   0.25113   0.25231   0.25497
 Alpha virt. eigenvalues --    0.25526   0.26109   0.26545   0.26885   0.27130
 Alpha virt. eigenvalues --    0.27443   0.27768   0.27921   0.28136   0.28282
 Alpha virt. eigenvalues --    0.28732   0.28854   0.29138   0.29278   0.29509
 Alpha virt. eigenvalues --    0.29758   0.30004   0.30174   0.30429   0.30704
 Alpha virt. eigenvalues --    0.31297   0.31898   0.32170   0.32745   0.33353
 Alpha virt. eigenvalues --    0.33601   0.33819   0.34066   0.34162   0.34339
 Alpha virt. eigenvalues --    0.34849   0.35098   0.35285   0.35492   0.35715
 Alpha virt. eigenvalues --    0.35755   0.36010   0.36450   0.36739   0.36932
 Alpha virt. eigenvalues --    0.37153   0.37227   0.37482   0.37833   0.38000
 Alpha virt. eigenvalues --    0.38129   0.38330   0.38577   0.39039   0.39493
 Alpha virt. eigenvalues --    0.39718   0.39937   0.40439   0.40932   0.41529
 Alpha virt. eigenvalues --    0.41596   0.42198   0.42357   0.42517   0.43149
 Alpha virt. eigenvalues --    0.43248   0.43612   0.44118   0.44173   0.44600
 Alpha virt. eigenvalues --    0.45026   0.45581   0.47267   0.47814   0.48036
 Alpha virt. eigenvalues --    0.48182   0.48398   0.48914   0.52926   0.53172
 Alpha virt. eigenvalues --    0.57075   0.58337   0.58772   0.59503   0.60365
 Alpha virt. eigenvalues --    0.61958   0.62202   0.62315   0.62655   0.62798
 Alpha virt. eigenvalues --    0.63088   0.63347   0.63522   0.63951   0.64164
 Alpha virt. eigenvalues --    0.64241   0.64560   0.64694   0.65158   0.65678
 Alpha virt. eigenvalues --    0.65944   0.66106   0.66978   0.67202   0.67406
 Alpha virt. eigenvalues --    0.67916   0.68850   0.69332   0.69566   0.70087
 Alpha virt. eigenvalues --    0.70723   0.70849   0.71239   0.71915   0.72548
 Alpha virt. eigenvalues --    0.73073   0.73531   0.73614   0.73918   0.74480
 Alpha virt. eigenvalues --    0.74858   0.75301   0.76087   0.76806   0.78188
 Alpha virt. eigenvalues --    0.78507   0.79180   0.79729   0.80206   0.80621
 Alpha virt. eigenvalues --    0.81074   0.81271   0.81442   0.81684   0.82052
 Alpha virt. eigenvalues --    0.82400   0.82857   0.83088   0.83452   0.83613
 Alpha virt. eigenvalues --    0.84271   0.84522   0.84763   0.85130   0.85644
 Alpha virt. eigenvalues --    0.85923   0.86506   0.86943   0.87315   0.87861
 Alpha virt. eigenvalues --    0.88791   0.89610   0.90252   0.91405   0.91664
 Alpha virt. eigenvalues --    0.92104   0.92247   0.92498   0.93156   0.93502
 Alpha virt. eigenvalues --    0.93706   0.94260   0.94503   0.95186   0.95683
 Alpha virt. eigenvalues --    0.96223   0.96568   0.96731   0.97228   0.97940
 Alpha virt. eigenvalues --    0.99593   0.99918   1.00323   1.00858   1.01135
 Alpha virt. eigenvalues --    1.01803   1.01964   1.03261   1.03666   1.04613
 Alpha virt. eigenvalues --    1.05614   1.06168   1.06464   1.07106   1.07437
 Alpha virt. eigenvalues --    1.07874   1.08285   1.08642   1.09489   1.10261
 Alpha virt. eigenvalues --    1.11818   1.12131   1.12696   1.13031   1.13374
 Alpha virt. eigenvalues --    1.14147   1.14400   1.14749   1.16230   1.16488
 Alpha virt. eigenvalues --    1.16970   1.18014   1.18330   1.18830   1.19645
 Alpha virt. eigenvalues --    1.21334   1.22002   1.22306   1.23433   1.24069
 Alpha virt. eigenvalues --    1.24347   1.24592   1.25704   1.27183   1.29591
 Alpha virt. eigenvalues --    1.30409   1.38644   1.38828   1.40395   1.41517
 Alpha virt. eigenvalues --    1.41710   1.45788   1.47251   1.48246   1.51599
 Alpha virt. eigenvalues --    1.54434   1.56705   1.57503   1.58389   1.59316
 Alpha virt. eigenvalues --    1.59747   1.59968   1.60219   1.61104   1.61565
 Alpha virt. eigenvalues --    1.61742   1.62407   1.63138   1.63210   1.63455
 Alpha virt. eigenvalues --    1.64069   1.64601   1.65627   1.65733   1.65931
 Alpha virt. eigenvalues --    1.66357   1.67064   1.67193   1.68062   1.68615
 Alpha virt. eigenvalues --    1.69525   1.70812   1.72921   1.73163   1.73956
 Alpha virt. eigenvalues --    1.74082   1.74727   1.74806   1.75336   1.75729
 Alpha virt. eigenvalues --    1.76602   1.76918   1.78839   1.81783   1.82217
 Alpha virt. eigenvalues --    1.82917   1.82937   1.83754   1.84256   1.84602
 Alpha virt. eigenvalues --    1.84907   1.85841   1.86394   1.86605   1.87202
 Alpha virt. eigenvalues --    1.88096   1.88820   1.89436   1.92484   1.92788
 Alpha virt. eigenvalues --    1.93031   1.93524   1.94591   1.96965   1.99176
 Alpha virt. eigenvalues --    1.99469   2.00112   2.00430   2.02258   2.02597
 Alpha virt. eigenvalues --    2.02685   2.03007   2.03497   2.04168   2.04417
 Alpha virt. eigenvalues --    2.04660   2.05031   2.05163   2.05510   2.05868
 Alpha virt. eigenvalues --    2.06379   2.06626   2.07234   2.08062   2.09331
 Alpha virt. eigenvalues --    2.10209   2.10945   2.11555   2.11903   2.12542
 Alpha virt. eigenvalues --    2.13215   2.13640   2.15126   2.15225   2.16846
 Alpha virt. eigenvalues --    2.17482   2.18349   2.18672   2.19798   2.21163
 Alpha virt. eigenvalues --    2.21664   2.23197   2.28284   2.29547   2.33248
 Alpha virt. eigenvalues --    2.35001   2.35847   2.37038   2.37907   2.39663
 Alpha virt. eigenvalues --    2.41842   2.44427   2.44693   2.47877   2.49041
 Alpha virt. eigenvalues --    2.50421   2.52220   2.53195   2.53506   2.54328
 Alpha virt. eigenvalues --    2.55180   2.55364   2.56324   2.56394   2.56818
 Alpha virt. eigenvalues --    2.57516   2.58543   2.58735   2.62126   2.62896
 Alpha virt. eigenvalues --    2.67119   2.72903   2.73169   2.73543   2.75336
 Alpha virt. eigenvalues --    2.75687   2.76002   2.76290   2.76917   2.79584
 Alpha virt. eigenvalues --    2.79669   2.80112   2.80402   2.80557   2.80966
 Alpha virt. eigenvalues --    2.81452   2.81789   2.82468   2.82923   2.83149
 Alpha virt. eigenvalues --    2.83829   2.84056   2.84634   2.85863   2.86144
 Alpha virt. eigenvalues --    2.87233   2.87617   2.88665   2.88862   2.89498
 Alpha virt. eigenvalues --    2.90138   2.91841   2.92463   2.92545   2.92895
 Alpha virt. eigenvalues --    2.93339   2.94113   2.94459   2.94719   2.95153
 Alpha virt. eigenvalues --    2.98406   2.98913   2.99495   3.00981   3.01214
 Alpha virt. eigenvalues --    3.02328   3.03089   3.04656   3.05075   3.05273
 Alpha virt. eigenvalues --    3.05678   3.06395   3.07295   3.07910   3.08756
 Alpha virt. eigenvalues --    3.11680   3.12256   3.16359   3.19032   3.19967
 Alpha virt. eigenvalues --    3.20535   3.22131   3.23916   3.26303   3.30868
 Alpha virt. eigenvalues --    3.32361   3.32794   3.33787   3.34825   3.36311
 Alpha virt. eigenvalues --    3.38442   3.46571   3.47501   3.49127   3.49564
 Alpha virt. eigenvalues --    3.49698   3.50250   3.53250   3.53781   3.60514
 Alpha virt. eigenvalues --    3.60962   3.61224   3.63726   3.64882   3.65480
 Alpha virt. eigenvalues --    3.66412   3.73756   3.74077   3.76344   3.76393
 Alpha virt. eigenvalues --    3.77158   3.77605   3.91009   3.92669   3.95809
 Alpha virt. eigenvalues --    4.09770   4.09951   4.10274   4.14512   4.14593
 Alpha virt. eigenvalues --    4.14686   4.24265   4.24466   4.25585   4.26125
 Alpha virt. eigenvalues --    4.26543   4.26935   4.27665   4.27870   4.47741
 Alpha virt. eigenvalues --    4.63216   4.66968   4.94094   4.95621   4.95755
 Alpha virt. eigenvalues --    4.98752  23.68326  23.81574  23.82209  23.88117
 Alpha virt. eigenvalues --   24.08361  24.08473  24.10937  24.10956  24.11274
 Alpha virt. eigenvalues --   24.11449  24.12923  24.13474  24.20208  24.20467
 Alpha virt. eigenvalues --   24.20977  24.24076  24.24339  24.24377  24.24588
 Alpha virt. eigenvalues --   24.25889  24.31528  24.33834  24.34071  24.35229
          Condensed to atoms (all electrons):
               1          2          3          4          5          6
     1  C   27.074385   0.599407   1.642656  -8.573085   0.317972  -0.376247
     2  C    0.599407  19.258381  -4.899382   4.530880   0.203245  -2.416118
     3  C    1.642656  -4.899382  19.072027  -5.220058   0.206353  -2.109848
     4  C   -8.573085   4.530880  -5.220058  23.976020  -0.360286  -0.300551
     5  H    0.317972   0.203245   0.206353  -0.360286   0.516218  -0.041156
     6  C   -0.376247  -2.416118  -2.109848  -0.300551  -0.041156  12.577219
     7  C   -7.415362  -4.889750   4.375383  -9.993666   0.126368   0.073350
     8  H    0.254850   0.246453   0.201983   0.122901  -0.005655  -0.074977
     9  C   -5.767514  -1.205549  -1.414788   1.809619  -0.003324  -1.419582
    10  C    0.351079  -2.802709  -1.276684  -2.235628  -0.010147   1.063734
    11  C   -0.803012   0.581941  -0.606605   0.619395   0.009473  -0.303015
    12  C   -0.962095  -0.320646  -0.082076  -0.138095  -0.058804   0.129446
    13  C    0.033047  -1.280089  -2.698659   0.665737  -0.013215   0.949146
    14  H    0.092951   0.064223   0.064488  -0.054648  -0.002217  -0.010960
    15  C   -1.066055   0.440051  -0.547021  -0.202329  -0.253150   0.136736
    16  C    0.479277  -0.500007   0.144501   0.030917   0.148106   0.027186
    17  C    0.043350   0.317733  -0.080728   0.162917   0.003413  -1.218749
    18  H    0.013396  -0.005876  -0.006901  -0.013484   0.005661   0.028551
    19  C   -0.384885  -0.014212   0.869538  -0.021530   0.009424  -1.426107
    20  H    0.047033  -0.070402   0.000167  -0.028298  -0.001341   0.070524
    21  C   -0.625455  -0.546732   1.190872   0.071718   0.005508   0.297408
    22  C   -0.289524   0.085145  -2.001032   0.458308  -0.004283  -0.100001
    23  C    0.367483   0.622835   0.127509   0.096454  -0.000289  -0.105014
    24  H   -0.134264  -0.054243  -0.054531   0.077510  -0.010769   0.022807
    25  C   -0.303763  -0.302068   0.020677  -0.366918   0.008191  -0.019398
    26  H    0.021387   0.008701  -0.017084   0.144740  -0.002156   0.008536
    27  C   -0.171978   0.019497  -0.266660   0.022799   0.001603  -0.309198
    28  H    0.001106  -0.000161   0.003330   0.000662  -0.001130   0.036515
    29  H    0.000795   0.004666   0.004025   0.003019   0.000108   0.029545
    30  C    0.620209   0.106779   0.973023  -0.212314  -0.001844  -0.022884
    31  H   -0.094641  -0.057567  -0.026813   0.010388   0.000264   0.034207
    32  C   -0.144534   0.071442  -0.003281   0.243111   0.002316  -0.064818
    33  H    0.014205  -0.014609  -0.012936  -0.115673  -0.000044   0.009715
    34  C   -0.020204  -0.110987  -0.023766  -0.154150  -0.013053   0.032868
    35  H    0.010015   0.013870   0.001915  -0.001876   0.000951  -0.002333
    36  H   -0.002648  -0.004531  -0.000068  -0.011089   0.000589  -0.000608
    37  H   -0.005221  -0.003083  -0.007358   0.001177   0.000161   0.013930
    38  C   -0.135813  -0.038977  -0.289311   0.037068   0.000269   0.031572
    39  H    0.012087   0.002283   0.012294   0.001253  -0.000052  -0.001948
    40  H   -0.000822   0.000275   0.000070   0.009744  -0.000018  -0.000625
    41  H    0.000547  -0.004806  -0.000712  -0.006150  -0.000422   0.000912
    42  H   -0.001059  -0.000893  -0.007075   0.001480  -0.000004   0.000741
               7          8          9         10         11         12
     1  C   -7.415362   0.254850  -5.767514   0.351079  -0.803012  -0.962095
     2  C   -4.889750   0.246453  -1.205549  -2.802709   0.581941  -0.320646
     3  C    4.375383   0.201983  -1.414788  -1.276684  -0.606605  -0.082076
     4  C   -9.993666   0.122901   1.809619  -2.235628   0.619395  -0.138095
     5  H    0.126368  -0.005655  -0.003324  -0.010147   0.009473  -0.058804
     6  C    0.073350  -0.074977  -1.419582   1.063734  -0.303015   0.129446
     7  C   23.511979  -0.281746   0.988168   0.919662  -0.139613   0.093657
     8  H   -0.281746   0.502891   0.020685  -0.021785   0.030547  -0.087724
     9  C    0.988168   0.020685  16.028192  -1.640439   0.121384  -0.356266
    10  C    0.919662  -0.021785  -1.640439  15.455726   0.027739   0.180461
    11  C   -0.139613   0.030547   0.121384   0.027739  13.749493  -6.215832
    12  C    0.093657  -0.087724  -0.356266   0.180461  -6.215832  14.999532
    13  C   -1.592349  -0.060096  -1.850310   0.696133  -0.071086   0.253805
    14  H   -0.041218  -0.002328   0.260271   0.042280  -0.004490   0.003897
    15  C    0.147792   0.000309  -0.153028  -0.439534   0.039558  -0.024525
    16  C   -0.081923  -0.001527   0.364193  -2.558532  -0.030323   0.044964
    17  C   -0.125159   0.013230   0.034149  -0.123593  -1.255290   0.571061
    18  H    0.016729   0.000087   0.001929   0.022962   0.363865   0.013512
    19  C    0.415888   0.023571   0.084521  -0.006583   0.909298  -2.279922
    20  H   -0.030969  -0.004694  -0.025142   0.012415  -0.016684   0.500732
    21  C   -0.839023  -0.203218  -0.538217  -0.120469   0.129719  -0.098906
    22  C   -0.155990   0.096193   1.694073   0.259446  -0.057936   0.065362
    23  C   -0.187331  -0.000409  -0.118267  -1.578142  -0.031781  -0.000113
    24  H    0.023921  -0.000101   0.011631  -0.029695   0.012453   0.005627
    25  C    0.422790   0.003600   0.718844  -1.138105   0.023120  -0.017368
    26  H   -0.138948  -0.000014  -0.083846  -0.035495  -0.001820   0.002588
    27  C   -0.059914  -0.005408  -0.034653   0.037977  -0.509181   0.011910
    28  H   -0.000434   0.000096  -0.000300  -0.003106  -0.096330   0.010604
    29  H    0.004788   0.000313   0.001258  -0.000720   0.012639  -0.101860
    30  C   -0.133024   0.052957  -0.321904   0.002104   0.029722  -0.050485
    31  H    0.030689  -0.013615  -0.005685   0.009756  -0.002311   0.011737
    32  C    0.069673   0.010465   0.359057  -0.101719  -0.000471  -0.002182
    33  H    0.128205  -0.002755  -0.050221   0.013925   0.002258  -0.001270
    34  C   -0.016475  -0.000304  -0.098245  -0.265607  -0.007324   0.006101
    35  H   -0.000028  -0.000009   0.000184   0.032414   0.000115  -0.000357
    36  H    0.012619  -0.000009   0.018874   0.021550   0.000273  -0.000269
    37  H    0.000100  -0.000279  -0.000848   0.001238   0.005348   0.016346
    38  C   -0.228054  -0.015348   0.114572   0.029854   0.001179   0.000650
    39  H   -0.001008   0.001409  -0.001009  -0.000641   0.000196  -0.000462
    40  H   -0.007605   0.000599   0.010877  -0.003681   0.000015  -0.000042
    41  H    0.000527  -0.000008  -0.005574   0.022602  -0.000207   0.000188
    42  H   -0.006902  -0.000561  -0.001389   0.001002  -0.000010   0.000091
              13         14         15         16         17         18
     1  C    0.033047   0.092951  -1.066055   0.479277   0.043350   0.013396
     2  C   -1.280089   0.064223   0.440051  -0.500007   0.317733  -0.005876
     3  C   -2.698659   0.064488  -0.547021   0.144501  -0.080728  -0.006901
     4  C    0.665737  -0.054648  -0.202329   0.030917   0.162917  -0.013484
     5  H   -0.013215  -0.002217  -0.253150   0.148106   0.003413   0.005661
     6  C    0.949146  -0.010960   0.136736   0.027186  -1.218749   0.028551
     7  C   -1.592349  -0.041218   0.147792  -0.081923  -0.125159   0.016729
     8  H   -0.060096  -0.002328   0.000309  -0.001527   0.013230   0.000087
     9  C   -1.850310   0.260271  -0.153028   0.364193   0.034149   0.001929
    10  C    0.696133   0.042280  -0.439534  -2.558532  -0.123593   0.022962
    11  C   -0.071086  -0.004490   0.039558  -0.030323  -1.255290   0.363865
    12  C    0.253805   0.003897  -0.024525   0.044964   0.571061   0.013512
    13  C   15.597194   0.052226  -0.055130   0.233842  -0.067062   0.012521
    14  H    0.052226   0.501895   0.092485  -0.165303   0.003359  -0.000665
    15  C   -0.055130   0.092485  19.212677 -10.966310   0.038998  -0.019291
    16  C    0.233842  -0.165303 -10.966310  19.993283  -0.021014   0.011137
    17  C   -0.067062   0.003359   0.038998  -0.021014   7.988706  -0.135501
    18  H    0.012521  -0.000665  -0.019291   0.011137  -0.135501   0.473937
    19  C    0.040404  -0.003364  -0.006646   0.011299  -0.797486   0.022608
    20  H    0.020619   0.000662   0.001545  -0.001597   0.023518  -0.002103
    21  C   -0.737425   0.092348   0.028858  -0.003330  -0.002167  -0.004977
    22  C   -1.862764  -0.175959  -0.033241   0.044115  -0.000515   0.003386
    23  C   -0.019023   0.002524  -1.381856   0.852930  -0.021454   0.000146
    24  H    0.009827  -0.001156   0.613056  -0.124702   0.000021  -0.001955
    25  C   -0.132191  -0.006551   1.116096  -1.573536   0.006673  -0.000816
    26  H    0.016245  -0.003257  -0.091351   0.531713  -0.000796   0.000137
    27  C    0.018772   0.000150  -0.018090   0.006637   0.572894  -0.005188
    28  H   -0.000660   0.000017   0.002416  -0.000659   0.423677  -0.011155
    29  H   -0.000470  -0.000061   0.000494  -0.000143   0.001011   0.000280
    30  C   -1.653424   0.009685   0.002571   0.006128  -0.001502  -0.001314
    31  H    0.002870  -0.001152   0.002598  -0.002462  -0.004209  -0.000016
    32  C   -1.531617  -0.008640   0.000311  -0.022011   0.002035  -0.000136
    33  H   -0.033433  -0.001522   0.002102   0.007469   0.000027   0.000111
    34  C    0.041392   0.000358  -0.296768  -0.288808  -0.003193   0.000095
    35  H   -0.000888   0.000176  -0.122864   0.028306   0.000172   0.000106
    36  H   -0.004300  -0.000779   0.017663  -0.094912   0.000042  -0.000005
    37  H    0.000644  -0.000006  -0.000595   0.000206  -0.065404   0.000953
    38  C   -0.226515  -0.003376   0.003679  -0.012627  -0.001021   0.000069
    39  H    0.030418   0.000207  -0.000166   0.000398   0.000203   0.000002
    40  H    0.017561  -0.000828  -0.000602   0.002145   0.000001  -0.000001
    41  H    0.001109   0.000103   0.000239   0.003539  -0.000084   0.000012
    42  H    0.026265   0.000168   0.000159  -0.000483  -0.000018   0.000002
              19         20         21         22         23         24
     1  C   -0.384885   0.047033  -0.625455  -0.289524   0.367483  -0.134264
     2  C   -0.014212  -0.070402  -0.546732   0.085145   0.622835  -0.054243
     3  C    0.869538   0.000167   1.190872  -2.001032   0.127509  -0.054531
     4  C   -0.021530  -0.028298   0.071718   0.458308   0.096454   0.077510
     5  H    0.009424  -0.001341   0.005508  -0.004283  -0.000289  -0.010769
     6  C   -1.426107   0.070524   0.297408  -0.100001  -0.105014   0.022807
     7  C    0.415888  -0.030969  -0.839023  -0.155990  -0.187331   0.023921
     8  H    0.023571  -0.004694  -0.203218   0.096193  -0.000409  -0.000101
     9  C    0.084521  -0.025142  -0.538217   1.694073  -0.118267   0.011631
    10  C   -0.006583   0.012415  -0.120469   0.259446  -1.578142  -0.029695
    11  C    0.909298  -0.016684   0.129719  -0.057936  -0.031781   0.012453
    12  C   -2.279922   0.500732  -0.098906   0.065362  -0.000113   0.005627
    13  C    0.040404   0.020619  -0.737425  -1.862764  -0.019023   0.009827
    14  H   -0.003364   0.000662   0.092348  -0.175959   0.002524  -0.001156
    15  C   -0.006646   0.001545   0.028858  -0.033241  -1.381856   0.613056
    16  C    0.011299  -0.001597  -0.003330   0.044115   0.852930  -0.124702
    17  C   -0.797486   0.023518  -0.002167  -0.000515  -0.021454   0.000021
    18  H    0.022608  -0.002103  -0.004977   0.003386   0.000146  -0.001955
    19  C    8.568878  -0.202332  -0.075196   0.046647   0.010557  -0.001266
    20  H   -0.202332   0.477474   0.014358  -0.010607  -0.001410   0.000357
    21  C   -0.075196   0.014358  19.119365 -10.341872  -0.004468   0.001207
    22  C    0.046647  -0.010607 -10.341872  19.059788   0.016983  -0.001440
    23  C    0.010557  -0.001410  -0.004468   0.016983   7.930977  -0.090678
    24  H   -0.001266   0.000357   0.001207  -0.001440  -0.090678   0.495760
    25  C   -0.003255  -0.000310  -0.011253   0.007470  -0.836136   0.008239
    26  H    0.000815  -0.000010   0.002705   0.015014  -0.002813  -0.000502
    27  C    0.308809   0.009583   0.008144  -0.004353  -0.004804   0.000917
    28  H   -0.003498   0.000455   0.000166  -0.000012   0.000145   0.000144
    29  H    0.431882  -0.012023  -0.001024   0.000768   0.000082   0.000011
    30  C    0.001120  -0.003908  -1.646825   0.677988  -0.001295   0.000217
    31  H   -0.002128   0.001206   0.595400  -0.076571   0.000370   0.000166
    32  C   -0.002297  -0.000298   0.652480  -0.920013   0.005373  -0.000850
    33  H   -0.000424   0.000236  -0.078885   0.491999   0.000375   0.000169
    34  C    0.000237   0.000235   0.007465  -0.021332   0.407433   0.030072
    35  H    0.000021  -0.000013  -0.000227   0.000461   0.431530  -0.013417
    36  H   -0.000014  -0.000006  -0.000856   0.002610   0.010506  -0.000266
    37  H   -0.070782   0.000738   0.000100  -0.000038  -0.000125   0.000005
    38  C    0.000298   0.000537  -0.054714  -0.339822   0.000111   0.000138
    39  H    0.000006  -0.000060  -0.128845   0.026024  -0.000008  -0.000007
    40  H    0.000001  -0.000018   0.014976  -0.086813  -0.000004  -0.000010
    41  H    0.000011   0.000004   0.000175  -0.000524  -0.073600   0.001607
    42  H    0.000007   0.000028   0.007245  -0.003169   0.000005   0.000005
              25         26         27         28         29         30
     1  C   -0.303763   0.021387  -0.171978   0.001106   0.000795   0.620209
     2  C   -0.302068   0.008701   0.019497  -0.000161   0.004666   0.106779
     3  C    0.020677  -0.017084  -0.266660   0.003330   0.004025   0.973023
     4  C   -0.366918   0.144740   0.022799   0.000662   0.003019  -0.212314
     5  H    0.008191  -0.002156   0.001603  -0.001130   0.000108  -0.001844
     6  C   -0.019398   0.008536  -0.309198   0.036515   0.029545  -0.022884
     7  C    0.422790  -0.138948  -0.059914  -0.000434   0.004788  -0.133024
     8  H    0.003600  -0.000014  -0.005408   0.000096   0.000313   0.052957
     9  C    0.718844  -0.083846  -0.034653  -0.000300   0.001258  -0.321904
    10  C   -1.138105  -0.035495   0.037977  -0.003106  -0.000720   0.002104
    11  C    0.023120  -0.001820  -0.509181  -0.096330   0.012639   0.029722
    12  C   -0.017368   0.002588   0.011910   0.010604  -0.101860  -0.050485
    13  C   -0.132191   0.016245   0.018772  -0.000660  -0.000470  -1.653424
    14  H   -0.006551  -0.003257   0.000150   0.000017  -0.000061   0.009685
    15  C    1.116096  -0.091351  -0.018090   0.002416   0.000494   0.002571
    16  C   -1.573536   0.531713   0.006637  -0.000659  -0.000143   0.006128
    17  C    0.006673  -0.000796   0.572894   0.423677   0.001011  -0.001502
    18  H   -0.000816   0.000137  -0.005188  -0.011155   0.000280  -0.001314
    19  C   -0.003255   0.000815   0.308809  -0.003498   0.431882   0.001120
    20  H   -0.000310  -0.000010   0.009583   0.000455  -0.012023  -0.003908
    21  C   -0.011253   0.002705   0.008144   0.000166  -0.001024  -1.646825
    22  C    0.007470   0.015014  -0.004353  -0.000012   0.000768   0.677988
    23  C   -0.836136  -0.002813  -0.004804   0.000145   0.000082  -0.001295
    24  H    0.008239  -0.000502   0.000917   0.000144   0.000011   0.000217
    25  C    8.032470  -0.079014  -0.000086   0.000027   0.000008   0.007019
    26  H   -0.079014   0.499897   0.000069  -0.000000   0.000004   0.000528
    27  C   -0.000086   0.000069   6.374703  -0.051182  -0.060926  -0.000570
    28  H    0.000027  -0.000000  -0.051182   0.475955   0.000151   0.000053
    29  H    0.000008   0.000004  -0.060926   0.000151   0.474816   0.000109
    30  C    0.007019   0.000528  -0.000570   0.000053   0.000109   8.252217
    31  H   -0.001593   0.000192   0.001480  -0.000036  -0.000066  -0.132377
    32  C   -0.016786  -0.005413  -0.000411  -0.000007  -0.000018  -0.667839
    33  H    0.003058  -0.005412   0.000030  -0.000002   0.000009  -0.004764
    34  C    0.449006   0.025257   0.000026   0.000022   0.000002   0.000116
    35  H    0.004288  -0.000402  -0.000003  -0.000011  -0.000001   0.000001
    36  H    0.424162  -0.012461  -0.000002  -0.000000  -0.000000  -0.000017
    37  H   -0.000000   0.000003   0.449835  -0.009522  -0.009016  -0.000019
    38  C   -0.004400  -0.000328   0.000195   0.000005   0.000003   0.246261
    39  H    0.000073   0.000031  -0.000043   0.000000   0.000003   0.443395
    40  H    0.000323   0.000470   0.000001  -0.000000  -0.000001   0.009142
    41  H   -0.071457   0.002084   0.000006  -0.000000  -0.000000   0.000006
    42  H   -0.000126  -0.000020   0.000005   0.000000  -0.000000  -0.074745
              31         32         33         34         35         36
     1  C   -0.094641  -0.144534   0.014205  -0.020204   0.010015  -0.002648
     2  C   -0.057567   0.071442  -0.014609  -0.110987   0.013870  -0.004531
     3  C   -0.026813  -0.003281  -0.012936  -0.023766   0.001915  -0.000068
     4  C    0.010388   0.243111  -0.115673  -0.154150  -0.001876  -0.011089
     5  H    0.000264   0.002316  -0.000044  -0.013053   0.000951   0.000589
     6  C    0.034207  -0.064818   0.009715   0.032868  -0.002333  -0.000608
     7  C    0.030689   0.069673   0.128205  -0.016475  -0.000028   0.012619
     8  H   -0.013615   0.010465  -0.002755  -0.000304  -0.000009  -0.000009
     9  C   -0.005685   0.359057  -0.050221  -0.098245   0.000184   0.018874
    10  C    0.009756  -0.101719   0.013925  -0.265607   0.032414   0.021550
    11  C   -0.002311  -0.000471   0.002258  -0.007324   0.000115   0.000273
    12  C    0.011737  -0.002182  -0.001270   0.006101  -0.000357  -0.000269
    13  C    0.002870  -1.531617  -0.033433   0.041392  -0.000888  -0.004300
    14  H   -0.001152  -0.008640  -0.001522   0.000358   0.000176  -0.000779
    15  C    0.002598   0.000311   0.002102  -0.296768  -0.122864   0.017663
    16  C   -0.002462  -0.022011   0.007469  -0.288808   0.028306  -0.094912
    17  C   -0.004209   0.002035   0.000027  -0.003193   0.000172   0.000042
    18  H   -0.000016  -0.000136   0.000111   0.000095   0.000106  -0.000005
    19  C   -0.002128  -0.002297  -0.000424   0.000237   0.000021  -0.000014
    20  H    0.001206  -0.000298   0.000236   0.000235  -0.000013  -0.000006
    21  C    0.595400   0.652480  -0.078885   0.007465  -0.000227  -0.000856
    22  C   -0.076571  -0.920013   0.491999  -0.021332   0.000461   0.002610
    23  C    0.000370   0.005373   0.000375   0.407433   0.431530   0.010506
    24  H    0.000166  -0.000850   0.000169   0.030072  -0.013417  -0.000266
    25  C   -0.001593  -0.016786   0.003058   0.449006   0.004288   0.424162
    26  H    0.000192  -0.005413  -0.005412   0.025257  -0.000402  -0.012461
    27  C    0.001480  -0.000411   0.000030   0.000026  -0.000003  -0.000002
    28  H   -0.000036  -0.000007  -0.000002   0.000022  -0.000011  -0.000000
    29  H   -0.000066  -0.000018   0.000009   0.000002  -0.000001  -0.000000
    30  C   -0.132377  -0.667839  -0.004764   0.000116   0.000001  -0.000017
    31  H    0.483370  -0.001130  -0.000122   0.000215  -0.000010  -0.000012
    32  C   -0.001130   7.696314  -0.046108  -0.005021   0.000044   0.000734
    33  H   -0.000122  -0.046108   0.498525  -0.001196   0.000044   0.000597
    34  C    0.000215  -0.005021  -0.001196   6.400747  -0.069199  -0.065065
    35  H   -0.000010   0.000044   0.000044  -0.069199   0.476651   0.001116
    36  H   -0.000012   0.000734   0.000597  -0.065065   0.001116   0.475742
    37  H    0.000048  -0.000010   0.000002   0.000003  -0.000001  -0.000000
    38  C    0.029581   0.435634   0.015371  -0.000183  -0.000001   0.000078
    39  H   -0.011621   0.006630  -0.000247  -0.000000   0.000000  -0.000001
    40  H   -0.000183   0.415461  -0.010896   0.000077  -0.000001  -0.000044
    41  H    0.000005  -0.000142  -0.000051   0.469320  -0.011601  -0.012130
    42  H    0.001260  -0.066308   0.001373  -0.000000  -0.000000   0.000001
              37         38         39         40         41         42
     1  C   -0.005221  -0.135813   0.012087  -0.000822   0.000547  -0.001059
     2  C   -0.003083  -0.038977   0.002283   0.000275  -0.004806  -0.000893
     3  C   -0.007358  -0.289311   0.012294   0.000070  -0.000712  -0.007075
     4  C    0.001177   0.037068   0.001253   0.009744  -0.006150   0.001480
     5  H    0.000161   0.000269  -0.000052  -0.000018  -0.000422  -0.000004
     6  C    0.013930   0.031572  -0.001948  -0.000625   0.000912   0.000741
     7  C    0.000100  -0.228054  -0.001008  -0.007605   0.000527  -0.006902
     8  H   -0.000279  -0.015348   0.001409   0.000599  -0.000008  -0.000561
     9  C   -0.000848   0.114572  -0.001009   0.010877  -0.005574  -0.001389
    10  C    0.001238   0.029854  -0.000641  -0.003681   0.022602   0.001002
    11  C    0.005348   0.001179   0.000196   0.000015  -0.000207  -0.000010
    12  C    0.016346   0.000650  -0.000462  -0.000042   0.000188   0.000091
    13  C    0.000644  -0.226515   0.030418   0.017561   0.001109   0.026265
    14  H   -0.000006  -0.003376   0.000207  -0.000828   0.000103   0.000168
    15  C   -0.000595   0.003679  -0.000166  -0.000602   0.000239   0.000159
    16  C    0.000206  -0.012627   0.000398   0.002145   0.003539  -0.000483
    17  C   -0.065404  -0.001021   0.000203   0.000001  -0.000084  -0.000018
    18  H    0.000953   0.000069   0.000002  -0.000001   0.000012   0.000002
    19  C   -0.070782   0.000298   0.000006   0.000001   0.000011   0.000007
    20  H    0.000738   0.000537  -0.000060  -0.000018   0.000004   0.000028
    21  C    0.000100  -0.054714  -0.128845   0.014976   0.000175   0.007245
    22  C   -0.000038  -0.339822   0.026024  -0.086813  -0.000524  -0.003169
    23  C   -0.000125   0.000111  -0.000008  -0.000004  -0.073600   0.000005
    24  H    0.000005   0.000138  -0.000007  -0.000010   0.001607   0.000005
    25  C   -0.000000  -0.004400   0.000073   0.000323  -0.071457  -0.000126
    26  H    0.000003  -0.000328   0.000031   0.000470   0.002084  -0.000020
    27  C    0.449835   0.000195  -0.000043   0.000001   0.000006   0.000005
    28  H   -0.009522   0.000005   0.000000  -0.000000  -0.000000   0.000000
    29  H   -0.009016   0.000003   0.000003  -0.000001  -0.000000  -0.000000
    30  C   -0.000019   0.246261   0.443395   0.009142   0.000006  -0.074745
    31  H    0.000048   0.029581  -0.011621  -0.000183   0.000005   0.001260
    32  C   -0.000010   0.435634   0.006630   0.415461  -0.000142  -0.066308
    33  H    0.000002   0.015371  -0.000247  -0.010896  -0.000051   0.001373
    34  C    0.000003  -0.000183  -0.000000   0.000077   0.469320  -0.000000
    35  H   -0.000001  -0.000001   0.000000  -0.000001  -0.011601  -0.000000
    36  H   -0.000000   0.000078  -0.000001  -0.000044  -0.012130   0.000001
    37  H    0.483716   0.000008  -0.000002  -0.000000   0.000000   0.000000
    38  C    0.000008   6.457336  -0.073978  -0.057909  -0.000000   0.461941
    39  H   -0.000002  -0.073978   0.475590   0.000935  -0.000000  -0.010671
    40  H   -0.000000  -0.057909   0.000935   0.473981   0.000001  -0.010953
    41  H    0.000000  -0.000000  -0.000000   0.000001   0.488773   0.000000
    42  H    0.000000   0.461941  -0.010671  -0.010953   0.000000   0.486174
 Mulliken charges:
               1
     1  C    1.280940
     2  C   -1.634408
     3  C   -1.257437
     4  C    0.912009
     5  H    0.217166
     6  C    0.749489
     7  C    1.004204
     8  H    0.199431
     9  C   -1.546384
    10  C    1.188954
    11  C   -0.516409
    12  C   -0.122975
    13  C    1.170928
    14  H    0.204006
    15  C   -0.221841
    16  C   -0.522082
    17  C   -0.282244
    18  H    0.217190
    19  C   -0.453911
    20  H    0.229797
    21  C   -0.176132
    22  C   -0.563970
    23  C   -0.425305
    24  H    0.203984
    25  C   -0.371005
    26  H    0.200026
    27  C   -0.343393
    28  H    0.222659
    29  H    0.215542
    30  C   -0.510298
    31  H    0.218516
    32  C   -0.359024
    33  H    0.190768
    34  C   -0.410166
    35  H    0.220860
    36  H    0.222936
    37  H    0.197745
    38  C   -0.384032
    39  H    0.217332
    40  H    0.224403
    41  H    0.195699
    42  H    0.196433
 Sum of Mulliken charges =  -0.00000
 Mulliken charges with hydrogens summed into heavy atoms:
               1
     1  C    1.280940
     2  C   -1.417242
     3  C   -1.058006
     4  C    0.912009
     6  C    0.749489
     7  C    1.004204
     9  C   -1.342377
    10  C    1.188954
    11  C   -0.299219
    12  C    0.106822
    13  C    1.170928
    15  C   -0.017857
    16  C   -0.322056
    17  C   -0.059584
    19  C   -0.238369
    21  C    0.042383
    22  C   -0.373202
    23  C   -0.204446
    25  C   -0.148069
    27  C   -0.145648
    30  C   -0.292966
    32  C   -0.134620
    34  C   -0.214468
    38  C   -0.187599
 Electronic spatial extent (au):  <R**2>=          10005.9203
 Charge=              0.0000 electrons
 Dipole moment (field-independent basis, Debye):
    X=             -0.0195    Y=             -0.0042    Z=             -0.0013  Tot=              0.0200
 Quadrupole moment (field-independent basis, Debye-Ang):
   XX=           -126.5545   YY=           -129.7133   ZZ=           -138.1230
   XY=             -0.0337   XZ=              6.4299   YZ=             -2.4202
 Traceless Quadrupole moment (field-independent basis, Debye-Ang):
   XX=              4.9091   YY=              1.7503   ZZ=             -6.6594
   XY=             -0.0337   XZ=              6.4299   YZ=             -2.4202
 Octapole moment (field-independent basis, Debye-Ang**2):
  XXX=            -33.6787  YYY=              6.8335  ZZZ=              1.7098  XYY=             50.2868
  XXY=             -4.0853  XXZ=             30.8833  XZZ=            -16.2118  YZZ=             -2.6796
  YYZ=            -32.7257  XYZ=             15.6346
 Hexadecapole moment (field-independent basis, Debye-Ang**3):
 XXXX=          -6266.5578 YYYY=          -6169.4824 ZZZZ=           -613.1936 XXXY=             -0.1232
 XXXZ=            119.6808 YYYX=             -7.7389 YYYZ=             13.1571 ZZZX=             11.7313
 ZZZY=            -16.7861 XXYY=          -2138.0710 XXZZ=          -1180.8722 YYZZ=          -1231.8970
 XXYZ=            -57.0531 YYXZ=             33.0478 ZZXY=              7.1759
 N-N= 1.730960041310D+03 E-N=-5.608409958432D+03  KE= 9.212943292467D+02
 No NMR shielding tensors so no spin-rotation constants.
 Leave Link  601 at Mon Nov 14 15:24:35 2022, MaxMem= 16106127360 cpu:               9.0 elap:               0.4
 (Enter /opt/ap/G16/B01/g16/l9999.exe)
 1\1\GINC-N59\SP\RwB97XD\6-311++G(d,p)\C24H18\ROOT\14-Nov-2022\0\\#P wB
 97XD/6-311++G(d,p) scf=maxcycle=512\\_conf032.gjf nmol_natom 1_42\\0,1
 \C\C,1,1.39412829\C,1,1.39435449,2,118.86443127\C,2,1.39416084,1,121.1
 529487,3,0.03668482,0\H,2,1.08488355,1,119.42236619,3,-179.97409048,0\
 C,1,1.48467131,2,120.55714816,4,179.25839056,0\C,3,1.39437784,1,121.11
 776116,2,-0.05351271,0\H,3,1.08487775,1,119.41869036,2,177.23008049,0\
 C,4,1.39432447,2,118.86473838,1,0.01008406,0\C,4,1.48466627,2,120.5464
 188,1,179.19454736,0\C,6,1.3968498,1,120.7843492,2,70.,0\C,6,1.3968682
 ,1,120.67653841,2,-110.,0\C,7,1.48449863,3,120.56496838,1,-179.9632580
 4,0\H,9,1.0848792,4,119.41824946,2,177.22245984,0\C,10,1.39685361,4,12
 0.76946845,2,-42.52368674,0\C,10,1.39686289,4,120.69448769,2,137.43107
 516,0\C,11,1.38888939,6,120.7380073,1,179.94058542,0\H,11,1.0847641,6,
 119.46912378,1,-1.41050605,0\C,12,1.38882428,6,120.76493111,1,-179.950
 82712,0\H,12,1.08482758,6,119.44182626,1,-1.23602505,0\C,13,1.39682899
 ,7,120.74134419,3,42.89023273,0\C,13,1.39683158,7,120.7379111,3,-137.1
 2494058,0\C,15,1.38888263,10,120.742191,4,179.9460119,0\H,15,1.0847633
 4,10,119.47085903,4,-1.40606944,0\C,16,1.38886088,10,120.76338989,4,-1
 79.95592713,0\H,16,1.08483431,10,119.44215232,4,-1.23439681,0\C,17,1.3
 9007919,11,120.20743432,6,0.00349958,0\H,17,1.0843506,11,119.71318733,
 6,179.5011609,0\H,19,1.08435858,12,119.73823132,6,179.53683762,0\C,21,
 1.38882373,13,120.76699356,7,179.99297883,0\H,21,1.0847938,13,119.4352
 623,7,1.32183327,0\C,22,1.38881869,13,120.76647403,7,-179.97118338,0\H
 ,22,1.08479982,13,119.43203605,7,1.34657928,0\C,23,1.39007007,15,120.2
 0732995,10,0.00573957,0\H,23,1.08434813,15,119.71220819,10,179.5072436
 8,0\H,25,1.08436328,16,119.73539424,10,179.53636455,0\H,27,1.08412515,
 17,120.21790854,11,179.98397203,0\C,30,1.39008059,21,120.18795226,13,-
 0.02169059,0\H,30,1.08435324,21,119.73787119,13,-179.52151214,0\H,32,1
 .0843543,22,119.737043,13,-179.52886928,0\H,34,1.08412314,23,120.22152
 803,15,179.98800213,0\H,38,1.08411439,30,120.21547163,21,-179.98600656
 ,0\\Version=ES64L-G16RevB.01\State=1-A\HF=-925.3099513\RMSD=4.023e-09\
 Dipole=-0.0059463,0.0006936,-0.0051114\Quadrupole=2.775623,-4.5944621,
 1.818839,-5.3246193,0.954782,-0.72882\PG=C01 [X(C24H18)]\\@


 REFRAIN FROM ILLUSIONS, INSIST ON WORK AND NOT WORDS,
 PATIENTLY SEEK DIVINE AND SCIENTIFIC TRUTH.
 LAST WORDS OF MARIA MENDELEEVA TO HER SON DMITRI, C. 1850
 Job cpu time:       0 days  1 hours 23 minutes 10.8 seconds.
 Elapsed time:       0 days  0 hours  2 minutes 36.6 seconds.
 File lengths (MBytes):  RWF=    224 Int=      0 D2E=      0 Chk=     26 Scr=      1
 Normal termination of Gaussian 16 at Mon Nov 14 15:24:36 2022.
