 Entering Gaussian System, Link 0=g16
 Input=_conf004.gjf
 Output=_conf004.log
 Initial command:
 /opt/ap/G16/B01/g16/l1.exe "/tmp2/scr/Gau-20230.inp" -scrdir="/tmp2/scr/"
 Entering Link 1 = /opt/ap/G16/B01/g16/l1.exe PID=     20231.
  
 Copyright (c) 1988-2017, Gaussian, Inc.  All Rights Reserved.
  
 This is part of the Gaussian(R) 16 program.  It is based on
 the Gaussian(R) 09 system (copyright 2009, Gaussian, Inc.),
 the Gaussian(R) 03 system (copyright 2003, Gaussian, Inc.),
 the Gaussian(R) 98 system (copyright 1998, Gaussian, Inc.),
 the Gaussian(R) 94 system (copyright 1995, Gaussian, Inc.),
 the Gaussian 92(TM) system (copyright 1992, Gaussian, Inc.),
 the Gaussian 90(TM) system (copyright 1990, Gaussian, Inc.),
 the Gaussian 88(TM) system (copyright 1988, Gaussian, Inc.),
 the Gaussian 86(TM) system (copyright 1986, Carnegie Mellon
 University), and the Gaussian 82(TM) system (copyright 1983,
 Carnegie Mellon University). Gaussian is a federally registered
 trademark of Gaussian, Inc.
  
 This software contains proprietary and confidential information,
 including trade secrets, belonging to Gaussian, Inc.
  
 This software is provided under written license and may be
 used, copied, transmitted, or stored only in accord with that
 written license.
  
 The following legend is applicable only to US Government
 contracts under FAR:
  
                    RESTRICTED RIGHTS LEGEND
  
 Use, reproduction and disclosure by the US Government is
 subject to restrictions as set forth in subparagraphs (a)
 and (c) of the Commercial Computer Software - Restricted
 Rights clause in FAR 52.227-19.
  
 Gaussian, Inc.
 340 Quinnipiac St., Bldg. 40, Wallingford CT 06492
  
  
 ---------------------------------------------------------------
 Warning -- This program may not be used in any manner that
 competes with the business of Gaussian, Inc. or will provide
 assistance to any competitor of Gaussian, Inc.  The licensee
 of this program is prohibited from giving any competitor of
 Gaussian, Inc. access to this program.  By using this program,
 the user acknowledges that Gaussian, Inc. is engaged in the
 business of creating and licensing software in the field of
 computational chemistry and represents and warrants to the
 licensee that it is not a competitor of Gaussian, Inc. and that
 it will not use this program in any manner prohibited above.
 ---------------------------------------------------------------
  

 Cite this work as:
 Gaussian 16, Revision B.01,
 M. J. Frisch, G. W. Trucks, H. B. Schlegel, G. E. Scuseria, 
 M. A. Robb, J. R. Cheeseman, G. Scalmani, V. Barone, 
 G. A. Petersson, H. Nakatsuji, X. Li, M. Caricato, A. V. Marenich, 
 J. Bloino, B. G. Janesko, R. Gomperts, B. Mennucci, H. P. Hratchian, 
 J. V. Ortiz, A. F. Izmaylov, J. L. Sonnenberg, D. Williams-Young, 
 F. Ding, F. Lipparini, F. Egidi, J. Goings, B. Peng, A. Petrone, 
 T. Henderson, D. Ranasinghe, V. G. Zakrzewski, J. Gao, N. Rega, 
 G. Zheng, W. Liang, M. Hada, M. Ehara, K. Toyota, R. Fukuda, 
 J. Hasegawa, M. Ishida, T. Nakajima, Y. Honda, O. Kitao, H. Nakai, 
 T. Vreven, K. Throssell, J. A. Montgomery, Jr., J. E. Peralta, 
 F. Ogliaro, M. J. Bearpark, J. J. Heyd, E. N. Brothers, K. N. Kudin, 
 V. N. Staroverov, T. A. Keith, R. Kobayashi, J. Normand, 
 K. Raghavachari, A. P. Rendell, J. C. Burant, S. S. Iyengar, 
 J. Tomasi, M. Cossi, J. M. Millam, M. Klene, C. Adamo, R. Cammi, 
 J. W. Ochterski, R. L. Martin, K. Morokuma, O. Farkas, 
 J. B. Foresman, and D. J. Fox, Gaussian, Inc., Wallingford CT, 2016.
 
 ******************************************
 Gaussian 16:  ES64L-G16RevB.01 20-Dec-2017
                14-Nov-2022 
 ******************************************
 %nprocshared=32
 Will use up to   32 processors via shared memory.
 %mem=120GB
 %chk=_conf004.chk
 ----------------------------------------
 #P wB97XD/6-311++G(d,p) scf=maxcycle=512
 ----------------------------------------
 1/38=1,172=1/1;
 2/12=2,17=6,18=5,40=1/2;
 3/5=4,6=6,7=1111,11=2,25=1,30=1,74=-58/1,2,3;
 4//1;
 5/5=2,7=512,38=5/2;
 6/7=2,8=2,9=2,10=2,28=1/1;
 99/5=1,9=1/99;
 Leave Link    1 at Mon Nov 14 15:04:30 2022, MaxMem= 16106127360 cpu:               2.5 elap:               0.1
 (Enter /opt/ap/G16/B01/g16/l101.exe)
 ----------------------------
 _conf004.gjf nmol_natom 1_42
 ----------------------------
 Symbolic Z-matrix:
 Charge =  0 Multiplicity = 1
 C
 C                    1     1.39413 
 C                    1     1.39435  2     118.86443 
 C                    2     1.39416  1     121.15295  3     0.03668  0
 H                    2     1.08488  1     119.42237  3    -179.97409  0
 C                    1     1.48467  2     120.55715  4     179.25839  0
 C                    3     1.39438  1     121.11776  2    -0.05351  0
 H                    3     1.08488  1     119.41869  2     177.23008  0
 C                    4     1.39432  2     118.86474  1     0.01008  0
 C                    4     1.48467  2     120.54642  1     179.19455  0
 C                    6     1.39685  1     120.78435  2    -70.      0
 C                    6     1.39687  1     120.67654  2     110.     0
 C                    7     1.4845   3     120.56497  1    -179.96326  0
 H                    9     1.08488  4     119.41825  2     177.22246  0
 C                    10    1.39685  4     120.76947  2    -42.52369  0
 C                    10    1.39686  4     120.69449  2     137.43108  0
 C                    11    1.38889  6     120.73801  1     179.94059  0
 H                    11    1.08476  6     119.46912  1    -1.41051  0
 C                    12    1.38882  6     120.76493  1    -179.95083  0
 H                    12    1.08483  6     119.44183  1    -1.23603  0
 C                    13    1.39683  7     120.74134  3     42.89023  0
 C                    13    1.39683  7     120.73791  3    -137.12494  0
 C                    15    1.38888  10    120.74219  4     179.94601  0
 H                    15    1.08476  10    119.47086  4    -1.40607  0
 C                    16    1.38886  10    120.76339  4    -179.95593  0
 H                    16    1.08483  10    119.44215  4    -1.2344   0
 C                    17    1.39008  11    120.20743  6     0.0035   0
 H                    17    1.08435  11    119.71319  6     179.50116  0
 H                    19    1.08436  12    119.73823  6     179.53684  0
 C                    21    1.38882  13    120.76699  7     179.99298  0
 H                    21    1.08479  13    119.43526  7     1.32183  0
 C                    22    1.38882  13    120.76647  7    -179.97118  0
 H                    22    1.0848   13    119.43204  7     1.34658  0
 C                    23    1.39007  15    120.20733  10    0.00574  0
 H                    23    1.08435  15    119.71221  10    179.50724  0
 H                    25    1.08436  16    119.73539  10    179.53636  0
 H                    27    1.08413  17    120.21791  11    179.98397  0
 C                    30    1.39008  21    120.18795  13   -0.02169  0
 H                    30    1.08435  21    119.73787  13   -179.52151  0
 H                    32    1.08435  22    119.73704  13   -179.52887  0
 H                    34    1.08412  23    120.22153  15    179.988  0
 H                    38    1.08411  30    120.21547  21   -179.98601  0
 
 ITRead=  0  0  0  0  0  0  0  0  0  0  0  0  0  0  0  0  0  0  0  0
 ITRead=  0  0  0  0  0  0  0  0  0  0  0  0  0  0  0  0  0  0  0  0
 ITRead=  0  0
 MicOpt= -1 -1 -1 -1 -1 -1 -1 -1 -1 -1 -1 -1 -1 -1 -1 -1 -1 -1 -1 -1
 MicOpt= -1 -1 -1 -1 -1 -1 -1 -1 -1 -1 -1 -1 -1 -1 -1 -1 -1 -1 -1 -1
 MicOpt= -1 -1
 NAtoms=     42 NQM=       42 NQMF=       0 NMMI=      0 NMMIF=      0
                NMic=       0 NMicF=      0.
                    Isotopes and Nuclear Properties:
 (Nuclear quadrupole moments (NQMom) in fm**2, nuclear magnetic moments (NMagM)
  in nuclear magnetons)

  Atom         1           2           3           4           5           6           7           8           9          10
 IAtWgt=          12          12          12          12           1          12          12           1          12          12
 AtmWgt=  12.0000000  12.0000000  12.0000000  12.0000000   1.0078250  12.0000000  12.0000000   1.0078250  12.0000000  12.0000000
 NucSpn=           0           0           0           0           1           0           0           1           0           0
 AtZEff=  -0.0000000  -0.0000000  -0.0000000  -0.0000000  -0.0000000  -0.0000000  -0.0000000  -0.0000000  -0.0000000  -0.0000000
 NQMom=    0.0000000   0.0000000   0.0000000   0.0000000   0.0000000   0.0000000   0.0000000   0.0000000   0.0000000   0.0000000
 NMagM=    0.0000000   0.0000000   0.0000000   0.0000000   2.7928460   0.0000000   0.0000000   2.7928460   0.0000000   0.0000000
 AtZNuc=   6.0000000   6.0000000   6.0000000   6.0000000   1.0000000   6.0000000   6.0000000   1.0000000   6.0000000   6.0000000

  Atom        11          12          13          14          15          16          17          18          19          20
 IAtWgt=          12          12          12           1          12          12          12           1          12           1
 AtmWgt=  12.0000000  12.0000000  12.0000000   1.0078250  12.0000000  12.0000000  12.0000000   1.0078250  12.0000000   1.0078250
 NucSpn=           0           0           0           1           0           0           0           1           0           1
 AtZEff=  -0.0000000  -0.0000000  -0.0000000  -0.0000000  -0.0000000  -0.0000000  -0.0000000  -0.0000000  -0.0000000  -0.0000000
 NQMom=    0.0000000   0.0000000   0.0000000   0.0000000   0.0000000   0.0000000   0.0000000   0.0000000   0.0000000   0.0000000
 NMagM=    0.0000000   0.0000000   0.0000000   2.7928460   0.0000000   0.0000000   0.0000000   2.7928460   0.0000000   2.7928460
 AtZNuc=   6.0000000   6.0000000   6.0000000   1.0000000   6.0000000   6.0000000   6.0000000   1.0000000   6.0000000   1.0000000

  Atom        21          22          23          24          25          26          27          28          29          30
 IAtWgt=          12          12          12           1          12           1          12           1           1          12
 AtmWgt=  12.0000000  12.0000000  12.0000000   1.0078250  12.0000000   1.0078250  12.0000000   1.0078250   1.0078250  12.0000000
 NucSpn=           0           0           0           1           0           1           0           1           1           0
 AtZEff=  -0.0000000  -0.0000000  -0.0000000  -0.0000000  -0.0000000  -0.0000000  -0.0000000  -0.0000000  -0.0000000  -0.0000000
 NQMom=    0.0000000   0.0000000   0.0000000   0.0000000   0.0000000   0.0000000   0.0000000   0.0000000   0.0000000   0.0000000
 NMagM=    0.0000000   0.0000000   0.0000000   2.7928460   0.0000000   2.7928460   0.0000000   2.7928460   2.7928460   0.0000000
 AtZNuc=   6.0000000   6.0000000   6.0000000   1.0000000   6.0000000   1.0000000   6.0000000   1.0000000   1.0000000   6.0000000

  Atom        31          32          33          34          35          36          37          38          39          40
 IAtWgt=           1          12           1          12           1           1           1          12           1           1
 AtmWgt=   1.0078250  12.0000000   1.0078250  12.0000000   1.0078250   1.0078250   1.0078250  12.0000000   1.0078250   1.0078250
 NucSpn=           1           0           1           0           1           1           1           0           1           1
 AtZEff=  -0.0000000  -0.0000000  -0.0000000  -0.0000000  -0.0000000  -0.0000000  -0.0000000  -0.0000000  -0.0000000  -0.0000000
 NQMom=    0.0000000   0.0000000   0.0000000   0.0000000   0.0000000   0.0000000   0.0000000   0.0000000   0.0000000   0.0000000
 NMagM=    2.7928460   0.0000000   2.7928460   0.0000000   2.7928460   2.7928460   2.7928460   0.0000000   2.7928460   2.7928460
 AtZNuc=   1.0000000   6.0000000   1.0000000   6.0000000   1.0000000   1.0000000   1.0000000   6.0000000   1.0000000   1.0000000

  Atom        41          42
 IAtWgt=           1           1
 AtmWgt=   1.0078250   1.0078250
 NucSpn=           1           1
 AtZEff=  -0.0000000  -0.0000000
 NQMom=    0.0000000   0.0000000
 NMagM=    2.7928460   2.7928460
 AtZNuc=   1.0000000   1.0000000
 Leave Link  101 at Mon Nov 14 15:04:30 2022, MaxMem= 16106127360 cpu:               5.6 elap:               0.2
 (Enter /opt/ap/G16/B01/g16/l202.exe)
                          Input orientation:                          
 ---------------------------------------------------------------------
 Center     Atomic      Atomic             Coordinates (Angstroms)
 Number     Number       Type             X           Y           Z
 ---------------------------------------------------------------------
      1          6           0        0.000000    0.000000    0.000000
      2          6           0        0.000000    0.000000    1.394128
      3          6           0        1.221126    0.000000   -0.673109
      4          6           0        1.193108    0.000764    2.115362
      5          1           0       -0.944957   -0.000427    1.927071
      6          6           0       -1.278366   -0.017366   -0.754803
      7          6           0        2.428476    0.001115    0.024455
      8          1           0        1.232154   -0.045667   -1.756969
      9          6           0        2.400843    0.001752    1.418572
     10          6           0        1.177445    0.018728    3.599837
     11          6           0       -2.087270   -1.156121   -0.764831
     12          6           0       -1.698458    1.105971   -1.470958
     13          6           0        3.721572    0.001921   -0.704680
     14          1           0        3.334061    0.048144    1.969857
     15          6           0        0.290794    0.844275    4.295193
     16          6           0        2.049080   -0.790881    4.331965
     17          6           0       -3.283579   -1.170894   -1.470268
     18          1           0       -1.764543   -2.044658   -0.232794
     19          6           0       -2.894443    1.092088   -2.176834
     20          1           0       -1.091565    2.005043   -1.456785
     21          6           0        3.910862    0.818865   -1.821777
     22          6           0        4.776237   -0.814044   -0.288725
     23          6           0        0.275860    0.859807    5.683909
     24          1           0       -0.377402    1.495584    3.742000
     25          6           0        2.035025   -0.775886    5.720674
     26          1           0        2.729408   -1.453102    3.807101
     27          6           0       -3.691896   -0.046528   -2.178363
     28          1           0       -3.894705   -2.066624   -1.473323
     29          1           0       -3.208176    1.976025   -2.720948
     30          6           0        5.120444    0.820149   -2.504230
     31          1           0        3.109266    1.474569   -2.144691
     32          6           0        5.986440   -0.813321   -0.970068
     33          1           0        4.638168   -1.470412    0.563864
     34          6           0        1.147946    0.049642    6.401818
     35          1           0       -0.413890    1.513063    6.206701
     36          1           0        2.713797   -1.416787    6.272362
     37          1           0       -4.625540   -0.057961   -2.729276
     38          6           0        6.162883    0.003944   -2.080611
     39          1           0        5.251831    1.466740   -3.364741
     40          1           0        6.791448   -1.459089   -0.637249
     41          1           0        1.136620    0.061726    7.485815
     42          1           0        7.107346    0.004761   -2.612865
 ---------------------------------------------------------------------
                    Distance matrix (angstroms):
                    1          2          3          4          5
     1  C    0.000000
     2  C    1.394128   0.000000
     3  C    1.394354   2.400962   0.000000
     4  C    2.428634   1.394161   2.788612   0.000000
     5  H    2.146287   1.084884   3.384206   2.146341   0.000000
     6  C    1.484671   2.500485   2.500887   3.787659   2.702572
     7  C    2.428599   2.788100   1.394378   2.428585   3.872983
     8  H    2.146445   3.383741   1.084878   3.872806   4.279487
     9  C    2.788619   2.400968   2.401430   1.394324   3.384222
    10  C    3.787552   2.500376   4.273210   1.484666   2.702426
    11  C    2.505649   3.217828   3.505783   4.516057   3.144335
    12  C    2.504326   3.509509   3.222376   4.737544   3.652188
    13  C    3.787700   4.272598   2.500646   3.787581   5.357482
    14  H    3.872805   3.383747   3.384092   2.146415   4.279508
    15  C    4.387032   3.035381   5.124680   2.505463   2.801537
    16  C    4.856969   3.668120   5.134371   2.504540   3.920790
    17  C    3.783460   4.511945   4.722162   5.854079   4.287312
    18  H    2.710799   3.152953   3.645370   4.294797   3.084738
    19  C    3.782732   4.724640   4.515723   6.026774   4.672913
    20  H    2.708124   3.652317   3.159571   4.690106   3.936227
    21  C    4.391384   5.129076   3.037212   4.853507   6.189029
    22  C    4.853707   5.129045   3.667320   4.391169   6.189006
    23  C    5.755188   4.383786   6.484171   3.783362   4.042800
    24  H    4.047440   2.809218   4.928007   2.710524   2.419532
    25  C    6.121229   4.843792   6.491910   3.782894   4.886007
    26  H    4.904609   3.922195   4.945574   2.708491   4.375585
    27  C    4.286902   5.137602   5.138651   6.503966   4.939877
    28  H    4.648692   5.259462   5.575213   6.560380   4.953065
    29  H    4.647647   5.579509   5.264697   6.831021   5.534672
    30  C    5.758711   6.487587   4.385239   6.118495   7.556379
    31  H    4.054822   4.936104   2.811579   4.898143   5.932249
    32  C    6.118822   6.487555   4.843334   5.758354   7.556353
    33  H    4.898230   4.935996   3.920254   4.054620   5.932156
    34  C    6.504116   5.137821   7.075480   4.286973   4.940255
    35  H    6.401859   5.061770   7.231488   4.648499   4.570330
    36  H    6.979577   5.759266   7.243957   4.647859   5.854410
    37  H    5.371027   6.196890   6.197958   7.571699   5.935618
    38  C    6.504621   7.074953   5.138292   6.504219   8.159837
    39  H    6.407382   7.237395   5.063871   6.975231   8.279857
    40  H    6.975586   7.237348   5.758361   6.406985   8.279819
    41  H    7.571865   6.197125   8.159595   5.371096   5.936031
    42  H    7.572414   8.159067   6.197601   7.571945   9.243951
                    6          7          8          9         10
     6  C    0.000000
     7  C    3.787910   0.000000
     8  H    2.703303   2.146356   0.000000
     9  C    4.273231   1.394392   3.384102   0.000000
    10  C    4.999520   3.787973   5.357472   2.500981   0.000000
    11  C    1.396850   4.728015   3.638134   5.123581   5.575748
    12  C    1.396868   4.526428   3.161733   5.135460   5.930082
    13  C    5.000226   1.484499   2.703105   2.500505   5.000173
    14  H    5.357476   2.146366   4.279725   1.084879   2.703459
    15  C    5.357906   4.849723   6.189251   3.665665   1.396854
    16  C    6.127433   4.396117   6.188524   3.039714   1.396863
    17  C    2.421445   6.019582   4.662636   6.483297   6.857251
    18  H    2.149133   4.672555   3.911428   4.925976   5.253752
    19  C    2.421728   5.862538   4.301113   6.492752   7.148587
    20  H    2.148909   4.312828   3.113710   4.947501   5.887553
    21  C    5.363376   2.504946   2.815510   3.667109   6.124188
    22  C    6.124553   2.504906   3.912375   3.036921   5.363369
    23  C    6.681472   6.115597   7.556523   4.841994   2.421492
    24  H    4.829285   4.891475   5.933362   3.917716   2.149154
    25  C    7.313393   5.762417   7.555989   4.387097   2.421736
    26  H    6.239756   4.063707   5.931401   2.815959   2.148914
    27  C    2.802231   6.504892   4.942048   7.075432   7.556609
    28  H    3.400141   6.819200   5.518097   7.230156   7.470766
    29  H    3.400515   6.573382   4.973230   7.245307   7.938325
    30  C    6.686306   3.783088   4.053003   4.842972   7.310892
    31  H    4.838282   2.709194   2.446425   3.920191   6.233057
    32  C    7.311449   3.783053   4.879728   4.384797   6.686012
    33  H    6.233426   2.709077   4.360860   2.811302   4.838519
    34  C    7.557031   6.504835   8.159779   5.138559   2.802307
    35  H    7.179977   6.970308   8.280044   5.756123   3.400165
    36  H    8.202243   6.413127   8.279214   5.066504   3.400510
    37  H    3.886356   7.572692   5.937854   8.159551   8.587094
    38  C    7.558466   4.286853   4.941589   5.137824   7.557929
    39  H    7.187337   4.648230   4.585860   5.757987   8.197725
    40  H    8.198432   4.648180   5.844424   5.063385   7.187062
    41  H    8.587561   7.572613   9.243902   6.197846   3.886431
    42  H    8.589123   5.370968   5.937422   6.197069   8.588456
                   11         12         13         14         15
    11  C    0.000000
    12  C    2.401427   0.000000
    13  C    5.923455   5.584159   0.000000
    14  H    6.190283   6.187443   2.702860   0.000000
    15  C    5.938065   6.105253   6.121971   3.911840   0.000000
    16  C    6.574201   7.163519   5.365963   2.816859   2.401387
    17  C    1.388889   2.774296   7.143791   7.557358   7.076552
    18  H    1.084764   3.385835   5.874404   5.935255   5.750914
    19  C    2.774838   1.388824   6.864936   7.555073   7.217637
    20  H    3.385733   1.084828   5.267300   5.929376   6.028561
    21  C    6.402756   5.627609   1.396829   3.911930   7.107943
    22  C    6.888500   6.856079   1.396832   2.815037   6.624314
    23  C    7.157834   7.426348   7.309101   4.879095   1.388883
    24  H    5.501519   5.391838   6.229413   4.360107   1.084763
    25  C    7.694132   8.318645   6.688393   4.054029   2.774755
    26  H    6.647642   7.349337   4.843310   2.448430   3.385708
    27  C    2.409169   2.408832   7.558676   8.159704   7.652600
    28  H    2.144247   3.858608   7.929524   8.281472   7.698540
    29  H    3.859166   2.144462   7.482234   8.277756   7.921482
    30  C    7.673479   6.902664   2.421718   4.878996   8.340159
    31  H    5.985693   4.868674   2.148776   4.360587   7.057844
    32  C    8.083589   7.936764   2.421709   4.052208   7.931644
    33  H    6.862633   7.136602   2.148749   2.446125   6.179018
    34  C    7.954957   8.437918   7.558317   4.941800   2.409154
    35  H    7.650294   7.795016   8.194680   5.843284   2.144229
    36  H    8.522926   9.262359   7.190790   4.587189   3.859086
    37  H    3.392317   3.392036   8.589345   9.243828   8.621342
    38  C    8.434575   7.961585   2.802355   4.940696   8.708529
    39  H    8.215920   7.212703   3.400487   5.843645   9.147346
    40  H    8.884802   8.908036   3.400476   4.585006   8.478973
    41  H    8.941464   9.452613   8.588933   5.937569   3.392325
    42  H    9.450070   8.947558   3.886469   5.936405   9.741223
                   16         17         18         19         20
    16  C    0.000000
    17  C    7.889712   0.000000
    18  H    6.078873   2.145291   0.000000
    19  C    8.387399   2.402446   3.859422   0.000000
    20  H    7.154752   3.858974   4.283822   2.145303   0.000000
    21  C    6.627673   7.472796   6.552469   6.820036   5.154078
    22  C    5.365510   8.153773   6.655776   8.126354   6.613829
    23  C    2.774316   8.244731   6.899748   8.479154   7.360090
    24  H    3.385823   6.536337   5.500587   6.444447   5.272281
    25  C    1.388861   8.952833   7.175673   9.495242   8.308132
    26  H    1.084834   8.005390   6.071761   8.597277   7.366621
    27  C    8.711902   1.390079   3.390052   1.390101   3.389888
    28  H    8.405800   1.084351   2.465154   3.387168   4.943312
    29  H    9.221610   3.387180   4.943772   1.084359   2.465561
    30  C    7.665654   8.698329   7.795485   8.026179   6.410162
    31  H    6.942862   6.951387   6.308274   6.015966   4.289709
    32  C    6.604154   9.290387   7.882734   9.162802   7.634018
    33  H    4.622091   8.184221   6.477587   8.415347   6.999404
    34  C    2.408903   9.115802   7.542331   9.540486   8.402181
    35  H    3.858628   8.624070   7.479888   8.752943   7.709105
    36  H    2.144469   9.796800   7.922550  10.446804   9.269812
    37  H    9.744170   2.150485   4.285405   2.150465   4.285346
    38  C    7.660043   9.538785   8.393765   9.122964   7.551198
    39  H    8.636768   9.132325   8.447989   8.240950   6.645957
    40  H    6.901424  10.113513   8.585538  10.133869   8.649495
    41  H    3.392092  10.063246   8.510612  10.520356   9.418672
    42  H    8.628428  10.519458   9.411443  10.070163   8.518204
                   21         22         23         24         25
    21  C    0.000000
    22  C    2.401148   0.000000
    23  C    8.339678   7.663388   0.000000
    24  H    7.057108   6.938381   2.145221   0.000000
    25  C    7.934139   6.605193   2.402396   3.859344   0.000000
    26  H    6.184005   4.623169   3.858996   4.283837   2.145356
    27  C    7.660156   8.710287   8.853240   6.958066   9.783884
    28  H    8.329126   8.840671   8.785418   7.229131   9.411764
    29  H    7.268303   8.800628   9.166573   7.072044  10.311409
    30  C    1.388824   2.774442   9.514051   8.348527   8.928391
    31  H    1.084794   3.385432   8.348239   6.841814   8.251212
    32  C    2.774430   1.388819   8.926672   8.248218   7.770528
    33  H    3.385417   1.084800   7.118603   6.637291   5.818196
    34  C    8.709358   7.659884   1.390070   3.389995   1.390095
    35  H    9.145591   8.633852   1.084348   2.465033   3.387137
    36  H    8.482109   6.903971   3.387136   4.943698   1.084363
    37  H    8.629168   9.742760   9.779964   7.895416  10.783330
    38  C    2.408878   2.408889   9.781478   8.882743   8.860440
    39  H    2.144453   3.858761  10.344405   9.066139   9.895553
    40  H    3.858751   2.144441   9.369482   8.905073   7.969536
    41  H    9.741711   8.628862   2.150513   4.285366   2.150453
    42  H    3.392063   3.392069  10.781315   9.931179   9.787018
                   26         27         28         29         30
    26  H    0.000000
    27  C    8.890297   0.000000
    28  H    8.493419   2.149185   0.000000
    29  H    9.467272   2.149210   4.286129   0.000000
    30  C    7.121630   8.860849   9.522034   8.411238   0.000000
    31  H    6.643746   6.969266   7.876952   6.363458   2.145313
    32  C    5.817122   9.783564   9.973016   9.766626   2.402462
    33  H    3.763276   8.884662   8.792924   9.177856   3.859075
    34  C    3.389959   9.851540   9.587740  10.291337   9.782234
    35  H    4.943333   9.137119   9.160403   9.366177  10.343562
    36  H    2.465578  10.692299  10.202461  11.289843   9.371467
    37  H    9.938104   1.084125   2.479166   2.479130   9.788050
    38  C    6.969712   9.855393  10.286454   9.597702   1.390081
    39  H    8.143918   9.148099   9.986052   8.499739   1.084353
    40  H    6.021000  10.689755  10.736013  10.776562   3.387152
    41  H    4.285396  10.803824  10.493343  11.256989  10.781792
    42  H    7.906179  10.808101  11.253191  10.502740   2.150451
                   31         32         33         34         35
    31  H    0.000000
    32  C    3.859055   0.000000
    33  H    4.283308   2.145356   0.000000
    34  C    8.883693   8.860047   6.969499   0.000000
    35  H    9.064207   9.893547   8.140394   2.149187   0.000000
    36  H    8.908597   7.970392   6.024369   2.149200   4.286112
    37  H    7.906808  10.783297   9.932577  10.803777  10.002889
    38  C    3.389900   1.390094   3.389946   9.854100  10.686951
    39  H    2.465597   3.387150   4.943418  10.688111  11.122726
    40  H    4.943399   1.084354   2.465647   9.147341  10.372571
    41  H    9.931470   9.787155   7.907066   1.084123   2.479233
    42  H    4.285343   2.150458   4.285392  10.806525  11.688828
                   36         37         38         39         40
    36  H    0.000000
    37  H   11.693663   0.000000
    38  C    9.148051  10.808084   0.000000
    39  H   10.374492  10.014539   2.149134   0.000000
    40  H    8.023201  11.691337   2.149152   4.286037   0.000000
    41  H    2.479104  11.728806  10.806626  11.689465  10.013697
    42  H   10.013557  11.733631   1.084114   2.479039   2.479054
                   41         42
    41  H    0.000000
    42  H   11.731844   0.000000
 Stoichiometry    C24H18
 Framework group  C1[X(C24H18)]
 Deg. of freedom   120
 Full point group                 C1      NOp   1
 Largest Abelian subgroup         C1      NOp   1
 Largest concise Abelian subgroup C1      NOp   1
                         Standard orientation:                         
 ---------------------------------------------------------------------
 Center     Atomic      Atomic             Coordinates (Angstroms)
 Number     Number       Type             X           Y           Z
 ---------------------------------------------------------------------
      1          6           0        1.401294   -0.015832    0.042788
      2          6           0        0.678851   -1.207733    0.010508
      3          6           0        0.706351    1.192964    0.033263
      4          6           0       -0.714676   -1.205545   -0.031489
      5          1           0        1.210363   -2.153466    0.018027
      6          6           0        2.884599   -0.033690    0.103909
      7          6           0       -0.687073    1.222777   -0.008829
      8          1           0        1.257235    2.124905    0.103777
      9          6           0       -1.385873    0.016560   -0.041177
     10          6           0       -1.470018   -2.482647   -0.083494
     11          6           0        3.547508   -0.455050    1.258984
     12          6           0        3.648024    0.370967   -0.993668
     13          6           0       -1.414475    2.516806   -0.019343
     14          1           0       -2.467841    0.029672   -0.119502
     15          6           0       -1.048067   -3.529449   -0.906513
     16          6           0       -2.618391   -2.663906    0.690852
     17          6           0        4.935170   -0.472531    1.314683
     18          1           0        2.969664   -0.750649    2.128139
     19          6           0        5.035663    0.354037   -0.938855
     20          1           0        3.148543    0.681822   -1.905117
     21          6           0       -0.973214    3.577497   -0.813921
     22          6           0       -2.555638    2.700727    0.764913
     23          6           0       -1.754481   -4.724326   -0.953884
     24          1           0       -0.170991   -3.397105   -1.530961
     25          6           0       -3.325569   -3.858325    0.643999
     26          1           0       -2.947505   -1.868379    1.350918
     27          6           0        5.684384   -0.068648    0.215648
     28          1           0        5.432606   -0.795056    2.222620
     29          1           0        5.611941    0.664584   -1.803319
     30          6           0       -1.653409    4.788306   -0.824276
     31          1           0       -0.101316    3.443819   -1.445351
     32          6           0       -3.236957    3.910903    0.755081
     33          1           0       -2.898861    1.894207    1.404065
     34          6           0       -2.895888   -4.893199   -0.178663
     35          1           0       -1.416505   -5.523048   -1.604749
     36          1           0       -4.210596   -3.983803    1.257861
     37          1           0        6.767558   -0.081979    0.259029
     38          6           0       -2.788101    4.959332   -0.039707
     39          1           0       -1.300659    5.598044   -1.453334
     40          1           0       -4.116609    4.037973    1.376280
     41          1           0       -3.447581   -5.825719   -0.215607
     42          1           0       -3.319534    5.904223   -0.047620
 ---------------------------------------------------------------------
 Rotational constants (GHZ):           0.1977349           0.1947648           0.1045320
 Leave Link  202 at Mon Nov 14 15:04:30 2022, MaxMem= 16106127360 cpu:               0.2 elap:               0.0
 (Enter /opt/ap/G16/B01/g16/l301.exe)
 Standard basis: 6-311++G(d,p) (5D, 7F)
 Ernie: Thresh=  0.10000D-02 Tol=  0.10000D-05 Strict=F.
 There are   678 symmetry adapted cartesian basis functions of A   symmetry.
 There are   654 symmetry adapted basis functions of A   symmetry.
   654 basis functions,  1026 primitive gaussians,   678 cartesian basis functions
    81 alpha electrons       81 beta electrons
       nuclear repulsion energy      1730.9218560603 Hartrees.
 IExCor= 4639 DFT=T Ex+Corr=wB97XD ExCW=0 ScaHFX=  1.000000
 ScaDFX=  1.000000  1.000000  1.000000  1.000000 ScalE2=  1.000000  1.000000
 IRadAn=      5 IRanWt=     -1 IRanGd=            0 ICorTp=0 IEmpDi=121
 HFx  wShort=  0.000000 wLong=  0.200000 cFull=  0.222036 cShort=  0.000000 cLong=  0.777964
 DFx  wShort=  0.000000 wLong=  0.200000 cFull=  0.000000 cShort=  0.000000 cLong=  1.000000
 NAtoms=   42 NActive=   42 NUniq=   42 SFac= 1.00D+00 NAtFMM=   60 NAOKFM=F Big=F
 Integral buffers will be    131072 words long.
 Raffenetti 2 integral format.
 Two-electron integral symmetry is turned on.
 R6Disp:  Grimme-D2 Dispersion energy=       -0.0287439227 Hartrees.
 Nuclear repulsion after empirical dispersion term =     1730.8931121376 Hartrees.
 Leave Link  301 at Mon Nov 14 15:04:30 2022, MaxMem= 16106127360 cpu:               2.7 elap:               0.1
 (Enter /opt/ap/G16/B01/g16/l302.exe)
 NPDir=0 NMtPBC=     1 NCelOv=     1 NCel=       1 NClECP=     1 NCelD=      1
         NCelK=      1 NCelE2=     1 NClLst=     1 CellRange=     0.0.
 One-electron integrals computed using PRISM.
 One-electron integral symmetry used in STVInt
 NBasis=   654 RedAO= T EigKep=  1.02D-06  NBF=   654
 NBsUse=   646 1.00D-06 EigRej=  7.58D-07 NBFU=   646
 Precomputing XC quadrature grid using
 IXCGrd= 4 IRadAn=           5 IRanWt=          -1 IRanGd=           0 AccXCQ= 0.00D+00.
 Generated NRdTot=       0 NPtTot=           0 NUsed=           0 NTot=          32
 NSgBfM=   669   669   669   669   669 MxSgAt=    42 MxSgA2=    42.
 Leave Link  302 at Mon Nov 14 15:04:31 2022, MaxMem= 16106127360 cpu:              21.0 elap:               0.7
 (Enter /opt/ap/G16/B01/g16/l303.exe)
 DipDrv:  MaxL=1.
 Leave Link  303 at Mon Nov 14 15:04:31 2022, MaxMem= 16106127360 cpu:               2.8 elap:               0.1
 (Enter /opt/ap/G16/B01/g16/l401.exe)
 ExpMin= 3.60D-02 ExpMax= 4.56D+03 ExpMxC= 6.82D+02 IAcc=3 IRadAn=         5 AccDes= 0.00D+00
 Harris functional with IExCor= 4639 and IRadAn=       5 diagonalized for initial guess.
 HarFok:  IExCor= 4639 AccDes= 0.00D+00 IRadAn=         5 IDoV= 1 UseB2=F ITyADJ=14
 ICtDFT=  3500011 ScaDFX=  1.000000  1.000000  1.000000  1.000000
 FoFCou: FMM=F IPFlag=           0 FMFlag=      100000 FMFlg1=           0
         NFxFlg=           0 DoJE=T BraDBF=F KetDBF=T FulRan=T
         wScrn=  0.000000 ICntrl=       500 IOpCl=  0 I1Cent=   200000004 NGrid=           0
         NMat0=    1 NMatS0=      1 NMatT0=    0 NMatD0=    1 NMtDS0=    0 NMtDT0=    0
 Petite list used in FoFCou.
 Harris En= -882.968594216125    
 JPrj=0 DoOrth=F DoCkMO=F.
 Leave Link  401 at Mon Nov 14 15:04:33 2022, MaxMem= 16106127360 cpu:              55.1 elap:               1.7
 (Enter /opt/ap/G16/B01/g16/l502.exe)
 Integral symmetry usage will be decided dynamically.
 Closed shell SCF:
 Using DIIS extrapolation, IDIIS=  1040.
 NGot= 16106127360 LenX= 16105179956 LenY= 16104719594
 Requested convergence on RMS density matrix=1.00D-08 within 512 cycles.
 Requested convergence on MAX density matrix=1.00D-06.
 Requested convergence on             energy=1.00D-06.
 No special actions if energy rises.
 Fock matrices will be formed incrementally for  20 cycles.

 Cycle   1  Pass 1  IDiag  1:
 FoFJK:  IHMeth= 1 ICntrl=       0 DoSepK=T KAlg= 0 I1Cent=           0 FoldK=F
 IRaf=         1 NMat=       1 IRICut=       1 DoRegI=T DoRafI=F ISym2E= 0 IDoP0=0 IntGTp=1.
 FoFCou: FMM=F IPFlag=           0 FMFlag=      100000 FMFlg1=           0
         NFxFlg=           0 DoJE=T BraDBF=F KetDBF=F FulRan=T
         wScrn=  0.000000 ICntrl=       500 IOpCl=  0 I1Cent=           0 NGrid=           0
         NMat0=    1 NMatS0=      1 NMatT0=    0 NMatD0=    1 NMtDS0=    0 NMtDT0=    0
 Symmetry not used in FoFCou.
 E= -925.115136944488    
 DIIS: error= 4.60D-02 at cycle   1 NSaved=   1.
 NSaved= 1 IEnMin= 1 EnMin= -925.115136944488     IErMin= 1 ErrMin= 4.60D-02
 ErrMax= 4.60D-02  0.00D+00 EMaxC= 1.00D-01 BMatC= 1.90D+00 BMatP= 1.90D+00
 IDIUse=3 WtCom= 5.40D-01 WtEn= 4.60D-01
 Coeff-Com:  0.100D+01
 Coeff-En:   0.100D+01
 Coeff:      0.100D+01
 Gap=     0.318 Goal=   None    Shift=    0.000
 GapD=    0.318 DampG=1.000 DampE=0.500 DampFc=0.5000 IDamp=-1.
 Damping current iteration by 5.00D-01
 RMSDP=4.47D-02 MaxDP=4.49D+00              OVMax= 4.32D-02

 Cycle   2  Pass 1  IDiag  1:
 RMSU=  7.30D-03    CP:  8.20D-01
 E= -925.213525782697     Delta-E=       -0.098388838209 Rises=F Damp=T
 DIIS: error= 2.24D-02 at cycle   2 NSaved=   2.
 NSaved= 2 IEnMin= 2 EnMin= -925.213525782697     IErMin= 2 ErrMin= 2.24D-02
 ErrMax= 2.24D-02  0.00D+00 EMaxC= 1.00D-01 BMatC= 4.32D-01 BMatP= 1.90D+00
 IDIUse=3 WtCom= 7.76D-01 WtEn= 2.24D-01
 Coeff-Com: -0.883D+00 0.188D+01
 Coeff-En:   0.000D+00 0.100D+01
 Coeff:     -0.685D+00 0.169D+01
 Gap=     0.326 Goal=   None    Shift=    0.000
 RMSDP=2.60D-02 MaxDP=2.47D+00 DE=-9.84D-02 OVMax= 3.43D-02

 Cycle   3  Pass 1  IDiag  1:
 RMSU=  4.46D-03    CP:  6.03D-01  1.39D+00
 E= -925.301576775067     Delta-E=       -0.088050992370 Rises=F Damp=F
 DIIS: error= 3.34D-03 at cycle   3 NSaved=   3.
 NSaved= 3 IEnMin= 3 EnMin= -925.301576775067     IErMin= 3 ErrMin= 3.34D-03
 ErrMax= 3.34D-03  0.00D+00 EMaxC= 1.00D-01 BMatC= 8.84D-03 BMatP= 4.32D-01
 IDIUse=3 WtCom= 9.67D-01 WtEn= 3.34D-02
 Coeff-Com: -0.372D+00 0.788D+00 0.583D+00
 Coeff-En:   0.000D+00 0.000D+00 0.100D+01
 Coeff:     -0.359D+00 0.762D+00 0.597D+00
 Gap=     0.324 Goal=   None    Shift=    0.000
 RMSDP=2.22D-03 MaxDP=1.92D-01 DE=-8.81D-02 OVMax= 1.99D-02

 Cycle   4  Pass 1  IDiag  1:
 RMSU=  1.49D-03    CP:  5.99D-01  1.53D+00  7.35D-01
 E= -925.309679142816     Delta-E=       -0.008102367749 Rises=F Damp=F
 DIIS: error= 7.53D-04 at cycle   4 NSaved=   4.
 NSaved= 4 IEnMin= 4 EnMin= -925.309679142816     IErMin= 4 ErrMin= 7.53D-04
 ErrMax= 7.53D-04  0.00D+00 EMaxC= 1.00D-01 BMatC= 2.78D-04 BMatP= 8.84D-03
 IDIUse=3 WtCom= 9.92D-01 WtEn= 7.53D-03
 Coeff-Com: -0.113D+00 0.241D+00 0.236D+00 0.636D+00
 Coeff-En:   0.000D+00 0.000D+00 0.000D+00 0.100D+01
 Coeff:     -0.113D+00 0.240D+00 0.234D+00 0.639D+00
 Gap=     0.322 Goal=   None    Shift=    0.000
 RMSDP=6.52D-04 MaxDP=5.46D-02 DE=-8.10D-03 OVMax= 4.32D-03

 Cycle   5  Pass 1  IDiag  1:
 RMSU=  3.01D-04    CP:  5.96D-01  1.58D+00  7.70D-01  8.12D-01
 E= -925.309969399692     Delta-E=       -0.000290256876 Rises=F Damp=F
 DIIS: error= 1.77D-04 at cycle   5 NSaved=   5.
 NSaved= 5 IEnMin= 5 EnMin= -925.309969399692     IErMin= 5 ErrMin= 1.77D-04
 ErrMax= 1.77D-04  0.00D+00 EMaxC= 1.00D-01 BMatC= 2.01D-05 BMatP= 2.78D-04
 IDIUse=3 WtCom= 9.98D-01 WtEn= 1.77D-03
 Coeff-Com:  0.259D-01-0.552D-01-0.242D-01 0.196D+00 0.858D+00
 Coeff-En:   0.000D+00 0.000D+00 0.000D+00 0.000D+00 0.100D+01
 Coeff:      0.259D-01-0.551D-01-0.242D-01 0.195D+00 0.858D+00
 Gap=     0.323 Goal=   None    Shift=    0.000
 RMSDP=1.90D-04 MaxDP=1.11D-02 DE=-2.90D-04 OVMax= 1.44D-03

 Cycle   6  Pass 1  IDiag  1:
 RMSU=  8.38D-05    CP:  5.95D-01  1.57D+00  7.94D-01  8.72D-01  1.28D+00
 E= -925.309994832657     Delta-E=       -0.000025432964 Rises=F Damp=F
 DIIS: error= 6.01D-05 at cycle   6 NSaved=   6.
 NSaved= 6 IEnMin= 6 EnMin= -925.309994832657     IErMin= 6 ErrMin= 6.01D-05
 ErrMax= 6.01D-05  0.00D+00 EMaxC= 1.00D-01 BMatC= 1.48D-06 BMatP= 2.01D-05
 IDIUse=1 WtCom= 1.00D+00 WtEn= 0.00D+00
 Coeff-Com:  0.135D-01-0.287D-01-0.163D-01 0.542D-01 0.335D+00 0.642D+00
 Coeff:      0.135D-01-0.287D-01-0.163D-01 0.542D-01 0.335D+00 0.642D+00
 Gap=     0.323 Goal=   None    Shift=    0.000
 RMSDP=8.51D-05 MaxDP=7.38D-03 DE=-2.54D-05 OVMax= 4.16D-04

 Cycle   7  Pass 1  IDiag  1:
 RMSU=  4.99D-05    CP:  5.96D-01  1.57D+00  8.01D-01  9.03D-01  1.30D+00
                    CP:  8.06D-01
 E= -925.309996605552     Delta-E=       -0.000001772896 Rises=F Damp=F
 DIIS: error= 1.19D-05 at cycle   7 NSaved=   7.
 NSaved= 7 IEnMin= 7 EnMin= -925.309996605552     IErMin= 7 ErrMin= 1.19D-05
 ErrMax= 1.19D-05  0.00D+00 EMaxC= 1.00D-01 BMatC= 1.05D-07 BMatP= 1.48D-06
 IDIUse=1 WtCom= 1.00D+00 WtEn= 0.00D+00
 Coeff-Com: -0.211D-02 0.453D-02 0.184D-02-0.268D-01-0.937D-01 0.102D+00
 Coeff-Com:  0.101D+01
 Coeff:     -0.211D-02 0.453D-02 0.184D-02-0.268D-01-0.937D-01 0.102D+00
 Coeff:      0.101D+01
 Gap=     0.323 Goal=   None    Shift=    0.000
 RMSDP=3.07D-05 MaxDP=2.02D-03 DE=-1.77D-06 OVMax= 2.62D-04

 Cycle   8  Pass 1  IDiag  1:
 RMSU=  9.37D-06    CP:  5.96D-01  1.57D+00  8.04D-01  9.02D-01  1.36D+00
                    CP:  9.14D-01  1.23D+00
 E= -925.309996833338     Delta-E=       -0.000000227786 Rises=F Damp=F
 DIIS: error= 7.86D-06 at cycle   8 NSaved=   8.
 NSaved= 8 IEnMin= 8 EnMin= -925.309996833338     IErMin= 8 ErrMin= 7.86D-06
 ErrMax= 7.86D-06  0.00D+00 EMaxC= 1.00D-01 BMatC= 1.55D-08 BMatP= 1.05D-07
 IDIUse=1 WtCom= 1.00D+00 WtEn= 0.00D+00
 Coeff-Com: -0.155D-02 0.332D-02 0.161D-02-0.153D-01-0.575D-01 0.272D-01
 Coeff-Com:  0.457D+00 0.586D+00
 Coeff:     -0.155D-02 0.332D-02 0.161D-02-0.153D-01-0.575D-01 0.272D-01
 Coeff:      0.457D+00 0.586D+00
 Gap=     0.323 Goal=   None    Shift=    0.000
 RMSDP=4.01D-06 MaxDP=2.54D-04 DE=-2.28D-07 OVMax= 6.68D-05

 Cycle   9  Pass 1  IDiag  1:
 RMSU=  2.55D-06    CP:  5.96D-01  1.57D+00  8.04D-01  9.02D-01  1.36D+00
                    CP:  9.18D-01  1.26D+00  1.00D+00
 E= -925.309996853404     Delta-E=       -0.000000020065 Rises=F Damp=F
 DIIS: error= 2.65D-06 at cycle   9 NSaved=   9.
 NSaved= 9 IEnMin= 9 EnMin= -925.309996853404     IErMin= 9 ErrMin= 2.65D-06
 ErrMax= 2.65D-06  0.00D+00 EMaxC= 1.00D-01 BMatC= 2.12D-09 BMatP= 1.55D-08
 IDIUse=1 WtCom= 1.00D+00 WtEn= 0.00D+00
 Coeff-Com:  0.119D-03-0.259D-03 0.718D-04 0.293D-02 0.107D-01-0.170D-01
 Coeff-Com: -0.182D+00 0.169D+00 0.102D+01
 Coeff:      0.119D-03-0.259D-03 0.718D-04 0.293D-02 0.107D-01-0.170D-01
 Coeff:     -0.182D+00 0.169D+00 0.102D+01
 Gap=     0.323 Goal=   None    Shift=    0.000
 RMSDP=3.12D-06 MaxDP=2.07D-04 DE=-2.01D-08 OVMax= 4.84D-05

 Cycle  10  Pass 1  IDiag  1:
 RMSU=  7.46D-07    CP:  5.96D-01  1.57D+00  8.04D-01  9.02D-01  1.37D+00
                    CP:  9.23D-01  1.29D+00  1.24D+00  1.08D+00
 E= -925.309996858803     Delta-E=       -0.000000005400 Rises=F Damp=F
 DIIS: error= 8.51D-07 at cycle  10 NSaved=  10.
 NSaved=10 IEnMin=10 EnMin= -925.309996858803     IErMin=10 ErrMin= 8.51D-07
 ErrMax= 8.51D-07  0.00D+00 EMaxC= 1.00D-01 BMatC= 1.98D-10 BMatP= 2.12D-09
 IDIUse=1 WtCom= 1.00D+00 WtEn= 0.00D+00
 Coeff-Com:  0.137D-03-0.295D-03-0.628D-04 0.191D-02 0.691D-02-0.543D-02
 Coeff-Com: -0.856D-01 0.663D-03 0.337D+00 0.745D+00
 Coeff:      0.137D-03-0.295D-03-0.628D-04 0.191D-02 0.691D-02-0.543D-02
 Coeff:     -0.856D-01 0.663D-03 0.337D+00 0.745D+00
 Gap=     0.323 Goal=   None    Shift=    0.000
 RMSDP=5.28D-07 MaxDP=4.13D-05 DE=-5.40D-09 OVMax= 1.03D-05

 Cycle  11  Pass 1  IDiag  1:
 RMSU=  1.60D-07    CP:  5.96D-01  1.57D+00  8.04D-01  9.02D-01  1.37D+00
                    CP:  9.23D-01  1.29D+00  1.25D+00  1.16D+00  1.15D+00
 E= -925.309996859174     Delta-E=       -0.000000000371 Rises=F Damp=F
 DIIS: error= 2.12D-07 at cycle  11 NSaved=  11.
 NSaved=11 IEnMin=11 EnMin= -925.309996859174     IErMin=11 ErrMin= 2.12D-07
 ErrMax= 2.12D-07  0.00D+00 EMaxC= 1.00D-01 BMatC= 3.31D-11 BMatP= 1.98D-10
 IDIUse=1 WtCom= 1.00D+00 WtEn= 0.00D+00
 Coeff-Com:  0.220D-04-0.464D-04-0.202D-04 0.117D-03 0.234D-03 0.129D-02
 Coeff-Com:  0.229D-02-0.337D-01-0.585D-01 0.243D+00 0.845D+00
 Coeff:      0.220D-04-0.464D-04-0.202D-04 0.117D-03 0.234D-03 0.129D-02
 Coeff:      0.229D-02-0.337D-01-0.585D-01 0.243D+00 0.845D+00
 Gap=     0.323 Goal=   None    Shift=    0.000
 RMSDP=3.70D-07 MaxDP=3.42D-05 DE=-3.71D-10 OVMax= 3.27D-06

 Cycle  12  Pass 1  IDiag  1:
 RMSU=  7.13D-08    CP:  5.96D-01  1.57D+00  8.04D-01  9.02D-01  1.37D+00
                    CP:  9.23D-01  1.29D+00  1.26D+00  1.18D+00  1.32D+00
                    CP:  1.27D+00
 E= -925.309996859217     Delta-E=       -0.000000000043 Rises=F Damp=F
 DIIS: error= 7.86D-08 at cycle  12 NSaved=  12.
 NSaved=12 IEnMin=12 EnMin= -925.309996859217     IErMin=12 ErrMin= 7.86D-08
 ErrMax= 7.86D-08  0.00D+00 EMaxC= 1.00D-01 BMatC= 1.39D-12 BMatP= 3.31D-11
 IDIUse=1 WtCom= 1.00D+00 WtEn= 0.00D+00
 Coeff-Com: -0.146D-04 0.316D-04 0.103D-04-0.225D-03-0.827D-03 0.844D-03
 Coeff-Com:  0.100D-01-0.234D-02-0.361D-01-0.612D-01-0.582D-01 0.115D+01
 Coeff:     -0.146D-04 0.316D-04 0.103D-04-0.225D-03-0.827D-03 0.844D-03
 Coeff:      0.100D-01-0.234D-02-0.361D-01-0.612D-01-0.582D-01 0.115D+01
 Gap=     0.323 Goal=   None    Shift=    0.000
 RMSDP=1.63D-07 MaxDP=1.59D-05 DE=-4.27D-11 OVMax= 1.23D-06

 Cycle  13  Pass 1  IDiag  1:
 RMSU=  3.62D-08    CP:  5.96D-01  1.57D+00  8.04D-01  9.02D-01  1.37D+00
                    CP:  9.23D-01  1.29D+00  1.26D+00  1.19D+00  1.39D+00
                    CP:  1.41D+00  1.57D+00
 E= -925.309996859223     Delta-E=       -0.000000000005 Rises=F Damp=F
 DIIS: error= 3.45D-08 at cycle  13 NSaved=  13.
 NSaved=13 IEnMin=13 EnMin= -925.309996859223     IErMin=13 ErrMin= 3.45D-08
 ErrMax= 3.45D-08  0.00D+00 EMaxC= 1.00D-01 BMatC= 1.81D-13 BMatP= 1.39D-12
 IDIUse=1 WtCom= 1.00D+00 WtEn= 0.00D+00
 Coeff-Com: -0.525D-05 0.113D-04 0.452D-05-0.688D-04-0.239D-03 0.185D-03
 Coeff-Com:  0.261D-02 0.109D-02-0.587D-02-0.269D-01-0.706D-01 0.331D+00
 Coeff-Com:  0.769D+00
 Coeff:     -0.525D-05 0.113D-04 0.452D-05-0.688D-04-0.239D-03 0.185D-03
 Coeff:      0.261D-02 0.109D-02-0.587D-02-0.269D-01-0.706D-01 0.331D+00
 Coeff:      0.769D+00
 Gap=     0.323 Goal=   None    Shift=    0.000
 RMSDP=2.04D-08 MaxDP=1.71D-06 DE=-5.46D-12 OVMax= 3.03D-07

 Cycle  14  Pass 1  IDiag  1:
 RMSU=  8.21D-09    CP:  5.96D-01  1.57D+00  8.04D-01  9.02D-01  1.37D+00
                    CP:  9.23D-01  1.29D+00  1.26D+00  1.19D+00  1.39D+00
                    CP:  1.41D+00  1.69D+00  1.13D+00
 E= -925.309996859221     Delta-E=        0.000000000002 Rises=F Damp=F
 DIIS: error= 7.33D-09 at cycle  14 NSaved=  14.
 NSaved=14 IEnMin=13 EnMin= -925.309996859223     IErMin=14 ErrMin= 7.33D-09
 ErrMax= 7.33D-09  0.00D+00 EMaxC= 1.00D-01 BMatC= 5.04D-14 BMatP= 1.81D-13
 IDIUse=1 WtCom= 1.00D+00 WtEn= 0.00D+00
 Coeff-Com:  0.590D-06-0.131D-05-0.158D-06 0.136D-04 0.574D-04-0.801D-04
 Coeff-Com: -0.813D-03 0.793D-03 0.418D-02 0.469D-03-0.220D-01-0.877D-01
 Coeff-Com:  0.337D+00 0.769D+00
 Coeff:      0.590D-06-0.131D-05-0.158D-06 0.136D-04 0.574D-04-0.801D-04
 Coeff:     -0.813D-03 0.793D-03 0.418D-02 0.469D-03-0.220D-01-0.877D-01
 Coeff:      0.337D+00 0.769D+00
 Gap=     0.323 Goal=   None    Shift=    0.000
 RMSDP=1.51D-08 MaxDP=1.66D-06 DE= 1.82D-12 OVMax= 1.06D-07

 Cycle  15  Pass 1  IDiag  1:
 RMSU=  2.77D-09    CP:  5.96D-01  1.57D+00  8.04D-01  9.02D-01  1.37D+00
                    CP:  9.23D-01  1.29D+00  1.26D+00  1.19D+00  1.39D+00
                    CP:  1.42D+00  1.76D+00  1.30D+00  8.56D-01
 E= -925.309996859274     Delta-E=       -0.000000000053 Rises=F Damp=F
 DIIS: error= 1.64D-09 at cycle  15 NSaved=  15.
 NSaved=15 IEnMin=15 EnMin= -925.309996859274     IErMin=15 ErrMin= 1.64D-09
 ErrMax= 1.64D-09  0.00D+00 EMaxC= 1.00D-01 BMatC= 2.26D-15 BMatP= 5.04D-14
 IDIUse=1 WtCom= 1.00D+00 WtEn= 0.00D+00
 Coeff-Com:  0.556D-06-0.121D-05-0.438D-06 0.899D-05 0.346D-04-0.393D-04
 Coeff-Com: -0.431D-03 0.158D-03 0.167D-02 0.209D-02-0.152D-02-0.516D-01
 Coeff-Com:  0.487D-01 0.194D+00 0.807D+00
 Coeff:      0.556D-06-0.121D-05-0.438D-06 0.899D-05 0.346D-04-0.393D-04
 Coeff:     -0.431D-03 0.158D-03 0.167D-02 0.209D-02-0.152D-02-0.516D-01
 Coeff:      0.487D-01 0.194D+00 0.807D+00
 Gap=     0.323 Goal=   None    Shift=    0.000
 RMSDP=3.99D-09 MaxDP=4.13D-07 DE=-5.32D-11 OVMax= 2.58D-08

 SCF Done:  E(RwB97XD) =  -925.309996859     A.U. after   15 cycles
            NFock= 15  Conv=0.40D-08     -V/T= 2.0044
 KE= 9.212944489759D+02 PE=-5.608283461635D+03 EE= 2.030785903662D+03
 Leave Link  502 at Mon Nov 14 15:07:09 2022, MaxMem= 16106127360 cpu:            4937.1 elap:             155.7
 (Enter /opt/ap/G16/B01/g16/l601.exe)
 Copying SCF densities to generalized density rwf, IOpCl= 0 IROHF=0.

 **********************************************************************

            Population analysis using the SCF Density.

 **********************************************************************

 Orbital symmetries:
       Occupied  (A) (A) (A) (A) (A) (A) (A) (A) (A) (A) (A) (A)
                 (A) (A) (A) (A) (A) (A) (A) (A) (A) (A) (A) (A)
                 (A) (A) (A) (A) (A) (A) (A) (A) (A) (A) (A) (A)
                 (A) (A) (A) (A) (A) (A) (A) (A) (A) (A) (A) (A)
                 (A) (A) (A) (A) (A) (A) (A) (A) (A) (A) (A) (A)
                 (A) (A) (A) (A) (A) (A) (A) (A) (A) (A) (A) (A)
                 (A) (A) (A) (A) (A) (A) (A) (A) (A)
       Virtual   (A) (A) (A) (A) (A) (A) (A) (A) (A) (A) (A) (A)
                 (A) (A) (A) (A) (A) (A) (A) (A) (A) (A) (A) (A)
                 (A) (A) (A) (A) (A) (A) (A) (A) (A) (A) (A) (A)
                 (A) (A) (A) (A) (A) (A) (A) (A) (A) (A) (A) (A)
                 (A) (A) (A) (A) (A) (A) (A) (A) (A) (A) (A) (A)
                 (A) (A) (A) (A) (A) (A) (A) (A) (A) (A) (A) (A)
                 (A) (A) (A) (A) (A) (A) (A) (A) (A) (A) (A) (A)
                 (A) (A) (A) (A) (A) (A) (A) (A) (A) (A) (A) (A)
                 (A) (A) (A) (A) (A) (A) (A) (A) (A) (A) (A) (A)
                 (A) (A) (A) (A) (A) (A) (A) (A) (A) (A) (A) (A)
                 (A) (A) (A) (A) (A) (A) (A) (A) (A) (A) (A) (A)
                 (A) (A) (A) (A) (A) (A) (A) (A) (A) (A) (A) (A)
                 (A) (A) (A) (A) (A) (A) (A) (A) (A) (A) (A) (A)
                 (A) (A) (A) (A) (A) (A) (A) (A) (A) (A) (A) (A)
                 (A) (A) (A) (A) (A) (A) (A) (A) (A) (A) (A) (A)
                 (A) (A) (A) (A) (A) (A) (A) (A) (A) (A) (A) (A)
                 (A) (A) (A) (A) (A) (A) (A) (A) (A) (A) (A) (A)
                 (A) (A) (A) (A) (A) (A) (A) (A) (A) (A) (A) (A)
                 (A) (A) (A) (A) (A) (A) (A) (A) (A) (A) (A) (A)
                 (A) (A) (A) (A) (A) (A) (A) (A) (A) (A) (A) (A)
                 (A) (A) (A) (A) (A) (A) (A) (A) (A) (A) (A) (A)
                 (A) (A) (A) (A) (A) (A) (A) (A) (A) (A) (A) (A)
                 (A) (A) (A) (A) (A) (A) (A) (A) (A) (A) (A) (A)
                 (A) (A) (A) (A) (A) (A) (A) (A) (A) (A) (A) (A)
                 (A) (A) (A) (A) (A) (A) (A) (A) (A) (A) (A) (A)
                 (A) (A) (A) (A) (A) (A) (A) (A) (A) (A) (A) (A)
                 (A) (A) (A) (A) (A) (A) (A) (A) (A) (A) (A) (A)
                 (A) (A) (A) (A) (A) (A) (A) (A) (A) (A) (A) (A)
                 (A) (A) (A) (A) (A) (A) (A) (A) (A) (A) (A) (A)
                 (A) (A) (A) (A) (A) (A) (A) (A) (A) (A) (A) (A)
                 (A) (A) (A) (A) (A) (A) (A) (A) (A) (A) (A) (A)
                 (A) (A) (A) (A) (A) (A) (A) (A) (A) (A) (A) (A)
                 (A) (A) (A) (A) (A) (A) (A) (A) (A) (A) (A) (A)
                 (A) (A) (A) (A) (A) (A) (A) (A) (A) (A) (A) (A)
                 (A) (A) (A) (A) (A) (A) (A) (A) (A) (A) (A) (A)
                 (A) (A) (A) (A) (A) (A) (A) (A) (A) (A) (A) (A)
                 (A) (A) (A) (A) (A) (A) (A) (A) (A) (A) (A) (A)
                 (A) (A) (A) (A) (A) (A) (A) (A) (A) (A) (A) (A)
                 (A) (A) (A) (A) (A) (A) (A) (A) (A) (A) (A) (A)
                 (A) (A) (A) (A) (A) (A) (A) (A) (A) (A) (A) (A)
                 (A) (A) (A) (A) (A) (A) (A) (A) (A) (A) (A) (A)
                 (A) (A) (A) (A) (A) (A) (A) (A) (A) (A) (A) (A)
                 (A) (A) (A) (A) (A) (A) (A) (A) (A) (A) (A) (A)
                 (A) (A) (A) (A) (A) (A) (A) (A) (A) (A) (A) (A)
                 (A) (A) (A) (A) (A) (A) (A) (A) (A) (A) (A) (A)
                 (A) (A) (A) (A) (A) (A) (A) (A) (A) (A) (A) (A)
                 (A) (A) (A) (A) (A) (A) (A) (A) (A) (A) (A) (A)
                 (A)
 The electronic state is 1-A.
 Alpha  occ. eigenvalues --  -10.30383 -10.30378 -10.30337 -10.30306 -10.30300
 Alpha  occ. eigenvalues --  -10.30238 -10.29233 -10.29232 -10.29217 -10.29209
 Alpha  occ. eigenvalues --  -10.29204 -10.29180 -10.29153 -10.29153 -10.29132
 Alpha  occ. eigenvalues --  -10.29130 -10.29119 -10.29101 -10.29087 -10.29081
 Alpha  occ. eigenvalues --  -10.29070 -10.29056 -10.29045 -10.29043  -0.98935
 Alpha  occ. eigenvalues --   -0.97035  -0.97000  -0.95246  -0.89391  -0.89367
 Alpha  occ. eigenvalues --   -0.85313  -0.85270  -0.85192  -0.85030  -0.82253
 Alpha  occ. eigenvalues --   -0.82213  -0.73508  -0.73259  -0.71117  -0.70616
 Alpha  occ. eigenvalues --   -0.70314  -0.70091  -0.66793  -0.66671  -0.63444
 Alpha  occ. eigenvalues --   -0.60684  -0.60638  -0.58719  -0.57134  -0.56489
 Alpha  occ. eigenvalues --   -0.54933  -0.54737  -0.54518  -0.54252  -0.53052
 Alpha  occ. eigenvalues --   -0.51911  -0.51404  -0.51274  -0.51102  -0.50849
 Alpha  occ. eigenvalues --   -0.50741  -0.47676  -0.46625  -0.46064  -0.46011
 Alpha  occ. eigenvalues --   -0.45539  -0.45068  -0.44283  -0.43148  -0.43038
 Alpha  occ. eigenvalues --   -0.42876  -0.41825  -0.41390  -0.36517  -0.35371
 Alpha  occ. eigenvalues --   -0.33610  -0.33603  -0.33594  -0.33035  -0.31108
 Alpha  occ. eigenvalues --   -0.30218
 Alpha virt. eigenvalues --    0.02063   0.02916   0.03676   0.04209   0.04333
 Alpha virt. eigenvalues --    0.04807   0.04919   0.04947   0.05163   0.05285
 Alpha virt. eigenvalues --    0.05331   0.05666   0.05699   0.06770   0.06864
 Alpha virt. eigenvalues --    0.06944   0.07293   0.07907   0.07980   0.08400
 Alpha virt. eigenvalues --    0.08622   0.08955   0.09106   0.09476   0.11116
 Alpha virt. eigenvalues --    0.11477   0.11999   0.12162   0.12738   0.13349
 Alpha virt. eigenvalues --    0.13591   0.14012   0.14181   0.14604   0.15178
 Alpha virt. eigenvalues --    0.15573   0.15775   0.15824   0.16088   0.16329
 Alpha virt. eigenvalues --    0.16387   0.16565   0.17034   0.17398   0.17492
 Alpha virt. eigenvalues --    0.17558   0.17667   0.17848   0.18001   0.18055
 Alpha virt. eigenvalues --    0.18180   0.18247   0.18439   0.18679   0.18909
 Alpha virt. eigenvalues --    0.18991   0.19320   0.19449   0.20073   0.20317
 Alpha virt. eigenvalues --    0.20434   0.20644   0.20900   0.21226   0.21389
 Alpha virt. eigenvalues --    0.21924   0.22289   0.22446   0.22602   0.22879
 Alpha virt. eigenvalues --    0.22969   0.23179   0.23351   0.23694   0.23819
 Alpha virt. eigenvalues --    0.24442   0.24961   0.25104   0.25235   0.25502
 Alpha virt. eigenvalues --    0.25550   0.26105   0.26516   0.26886   0.27140
 Alpha virt. eigenvalues --    0.27492   0.27712   0.27889   0.28129   0.28308
 Alpha virt. eigenvalues --    0.28746   0.28848   0.29131   0.29275   0.29536
 Alpha virt. eigenvalues --    0.29744   0.29996   0.30197   0.30424   0.30659
 Alpha virt. eigenvalues --    0.31329   0.31875   0.32167   0.32768   0.33374
 Alpha virt. eigenvalues --    0.33607   0.33793   0.34052   0.34116   0.34371
 Alpha virt. eigenvalues --    0.34829   0.35089   0.35225   0.35495   0.35753
 Alpha virt. eigenvalues --    0.35791   0.35976   0.36445   0.36785   0.36920
 Alpha virt. eigenvalues --    0.37134   0.37211   0.37517   0.37814   0.37966
 Alpha virt. eigenvalues --    0.38139   0.38299   0.38601   0.39066   0.39512
 Alpha virt. eigenvalues --    0.39720   0.40051   0.40431   0.40869   0.41529
 Alpha virt. eigenvalues --    0.41619   0.42215   0.42420   0.42529   0.43127
 Alpha virt. eigenvalues --    0.43202   0.43557   0.44144   0.44208   0.44632
 Alpha virt. eigenvalues --    0.44989   0.45551   0.47263   0.47813   0.48101
 Alpha virt. eigenvalues --    0.48280   0.48443   0.48892   0.52918   0.53145
 Alpha virt. eigenvalues --    0.57076   0.58330   0.58772   0.59611   0.60333
 Alpha virt. eigenvalues --    0.61922   0.62217   0.62274   0.62647   0.62782
 Alpha virt. eigenvalues --    0.63073   0.63336   0.63487   0.63956   0.64100
 Alpha virt. eigenvalues --    0.64261   0.64571   0.64707   0.65048   0.65672
 Alpha virt. eigenvalues --    0.65899   0.66100   0.66807   0.67190   0.67424
 Alpha virt. eigenvalues --    0.67896   0.68791   0.69281   0.69583   0.70044
 Alpha virt. eigenvalues --    0.70751   0.70934   0.71310   0.71897   0.72533
 Alpha virt. eigenvalues --    0.73115   0.73611   0.73658   0.74010   0.74492
 Alpha virt. eigenvalues --    0.74871   0.75336   0.76289   0.76909   0.78196
 Alpha virt. eigenvalues --    0.78614   0.79317   0.79785   0.80140   0.80658
 Alpha virt. eigenvalues --    0.81062   0.81296   0.81456   0.81639   0.82041
 Alpha virt. eigenvalues --    0.82400   0.82838   0.83048   0.83485   0.83725
 Alpha virt. eigenvalues --    0.84191   0.84568   0.84761   0.85093   0.85676
 Alpha virt. eigenvalues --    0.85976   0.86535   0.86946   0.87234   0.87907
 Alpha virt. eigenvalues --    0.88798   0.89590   0.90243   0.91381   0.91625
 Alpha virt. eigenvalues --    0.92090   0.92200   0.92457   0.93107   0.93611
 Alpha virt. eigenvalues --    0.93707   0.94230   0.94455   0.95186   0.95504
 Alpha virt. eigenvalues --    0.96189   0.96469   0.96753   0.97179   0.97913
 Alpha virt. eigenvalues --    0.99532   0.99931   1.00388   1.00783   1.01039
 Alpha virt. eigenvalues --    1.01747   1.01999   1.03289   1.03716   1.04623
 Alpha virt. eigenvalues --    1.05725   1.06193   1.06559   1.07238   1.07568
 Alpha virt. eigenvalues --    1.07909   1.08355   1.08673   1.09431   1.10232
 Alpha virt. eigenvalues --    1.11869   1.12259   1.12754   1.13126   1.13395
 Alpha virt. eigenvalues --    1.14208   1.14488   1.14739   1.16168   1.16393
 Alpha virt. eigenvalues --    1.16972   1.17629   1.18273   1.19140   1.19913
 Alpha virt. eigenvalues --    1.21611   1.21803   1.22495   1.23612   1.23750
 Alpha virt. eigenvalues --    1.24180   1.24945   1.25772   1.27035   1.29724
 Alpha virt. eigenvalues --    1.30239   1.38334   1.38768   1.40362   1.41513
 Alpha virt. eigenvalues --    1.41671   1.45758   1.47063   1.48211   1.51619
 Alpha virt. eigenvalues --    1.54414   1.56692   1.57550   1.58405   1.59334
 Alpha virt. eigenvalues --    1.59756   1.59953   1.60242   1.61015   1.61550
 Alpha virt. eigenvalues --    1.61720   1.62317   1.63163   1.63236   1.63539
 Alpha virt. eigenvalues --    1.64128   1.64588   1.65622   1.65734   1.65884
 Alpha virt. eigenvalues --    1.66342   1.66962   1.67174   1.67999   1.68607
 Alpha virt. eigenvalues --    1.69907   1.71089   1.72783   1.73162   1.73833
 Alpha virt. eigenvalues --    1.73976   1.74670   1.74973   1.75282   1.75649
 Alpha virt. eigenvalues --    1.76560   1.76866   1.78875   1.81842   1.82081
 Alpha virt. eigenvalues --    1.82894   1.82924   1.83840   1.84194   1.84562
 Alpha virt. eigenvalues --    1.84944   1.85766   1.86383   1.86597   1.87296
 Alpha virt. eigenvalues --    1.88130   1.88752   1.89703   1.92468   1.92689
 Alpha virt. eigenvalues --    1.92938   1.93494   1.94724   1.96947   1.98656
 Alpha virt. eigenvalues --    1.99378   2.00111   2.00797   2.02312   2.02355
 Alpha virt. eigenvalues --    2.02766   2.02913   2.03305   2.04026   2.04400
 Alpha virt. eigenvalues --    2.04684   2.05021   2.05113   2.05588   2.05931
 Alpha virt. eigenvalues --    2.06194   2.06685   2.07256   2.08034   2.09401
 Alpha virt. eigenvalues --    2.10543   2.11145   2.11601   2.11956   2.12754
 Alpha virt. eigenvalues --    2.13398   2.13659   2.15048   2.15265   2.16903
 Alpha virt. eigenvalues --    2.17496   2.18227   2.18749   2.19822   2.21157
 Alpha virt. eigenvalues --    2.21784   2.23336   2.28461   2.29550   2.33245
 Alpha virt. eigenvalues --    2.34930   2.35843   2.37110   2.37902   2.39666
 Alpha virt. eigenvalues --    2.41589   2.44408   2.44709   2.48166   2.49052
 Alpha virt. eigenvalues --    2.50404   2.52192   2.53181   2.53510   2.54217
 Alpha virt. eigenvalues --    2.55270   2.55401   2.56239   2.56414   2.56823
 Alpha virt. eigenvalues --    2.57527   2.58544   2.58781   2.62077   2.62816
 Alpha virt. eigenvalues --    2.66851   2.72966   2.73137   2.73413   2.75281
 Alpha virt. eigenvalues --    2.75729   2.76004   2.76283   2.76934   2.79575
 Alpha virt. eigenvalues --    2.79648   2.80108   2.80407   2.80547   2.80906
 Alpha virt. eigenvalues --    2.81515   2.81719   2.82410   2.82926   2.83163
 Alpha virt. eigenvalues --    2.83827   2.83965   2.84451   2.85839   2.86025
 Alpha virt. eigenvalues --    2.87205   2.87358   2.88169   2.88610   2.89529
 Alpha virt. eigenvalues --    2.90389   2.91865   2.92478   2.92599   2.92979
 Alpha virt. eigenvalues --    2.93544   2.94204   2.94584   2.94889   2.95123
 Alpha virt. eigenvalues --    2.98443   2.99111   2.99506   3.01004   3.01222
 Alpha virt. eigenvalues --    3.02690   3.03328   3.04660   3.05077   3.05217
 Alpha virt. eigenvalues --    3.05726   3.06818   3.07568   3.07988   3.08663
 Alpha virt. eigenvalues --    3.11644   3.12316   3.16411   3.19064   3.19949
 Alpha virt. eigenvalues --    3.20567   3.22170   3.24024   3.26434   3.30806
 Alpha virt. eigenvalues --    3.32382   3.32775   3.33789   3.34789   3.36213
 Alpha virt. eigenvalues --    3.38579   3.46485   3.47520   3.49105   3.49559
 Alpha virt. eigenvalues --    3.49651   3.50363   3.53170   3.53808   3.60567
 Alpha virt. eigenvalues --    3.60976   3.61230   3.63704   3.64885   3.65476
 Alpha virt. eigenvalues --    3.66507   3.73758   3.74034   3.76342   3.76377
 Alpha virt. eigenvalues --    3.77224   3.77755   3.91024   3.92671   3.95876
 Alpha virt. eigenvalues --    4.09760   4.09960   4.10275   4.14514   4.14588
 Alpha virt. eigenvalues --    4.14694   4.24293   4.24467   4.25568   4.26134
 Alpha virt. eigenvalues --    4.26538   4.26943   4.27681   4.27844   4.47674
 Alpha virt. eigenvalues --    4.63276   4.66969   4.94105   4.95627   4.95765
 Alpha virt. eigenvalues --    4.98728  23.68324  23.81552  23.82289  23.88197
 Alpha virt. eigenvalues --   24.08371  24.08472  24.10927  24.10955  24.11261
 Alpha virt. eigenvalues --   24.11454  24.12919  24.13462  24.20232  24.20479
 Alpha virt. eigenvalues --   24.20989  24.24089  24.24350  24.24376  24.24564
 Alpha virt. eigenvalues --   24.25929  24.31588  24.33837  24.34096  24.35208
          Condensed to atoms (all electrons):
               1          2          3          4          5          6
     1  C   27.063431   1.359663   0.947706  -7.584565   0.282803  -0.357616
     2  C    1.359663  19.246586  -4.932506   4.536318   0.201841  -2.216710
     3  C    0.947706  -4.932506  19.039958  -4.796392   0.241979  -2.255253
     4  C   -7.584565   4.536318  -4.796392  23.437640  -0.297660   0.038495
     5  H    0.282803   0.201841   0.241979  -0.297660   0.510775  -0.071539
     6  C   -0.357616  -2.216710  -2.255253   0.038495  -0.071539  12.444577
     7  C   -8.473239  -5.301897   4.256216  -9.901989   0.115619  -0.265699
     8  H    0.311393   0.201297   0.209936   0.118127  -0.005274  -0.041116
     9  C   -5.756414  -1.386651  -1.353250   0.845210   0.014644  -1.391157
    10  C   -0.057313  -2.733828  -1.194963  -1.561610  -0.054256   0.924884
    11  C   -0.976526  -0.119194  -0.309819   0.102520  -0.078555   0.183553
    12  C   -0.766920  -0.215863   0.189982  -0.016648   0.015982  -0.294422
    13  C    0.340347  -1.299182  -2.676233   0.819126  -0.019925   1.048270
    14  H    0.093382   0.063122   0.063654  -0.042885  -0.002221  -0.010602
    15  C   -0.672144   1.158389  -0.503484  -0.579758  -0.203446   0.273975
    16  C   -0.251903  -1.982489   0.059131  -0.317598   0.095999  -0.094437
    17  C   -0.383374   0.772956   0.103390   0.376520   0.023753  -1.443871
    18  H    0.043402   0.003732  -0.072031  -0.026207  -0.004008   0.070784
    19  C    0.053135  -0.195187   0.482121  -0.162910   0.016585  -1.199294
    20  H    0.012481  -0.002918  -0.009858   0.017675   0.000209   0.023813
    21  C   -0.926069  -0.560546   0.454525   0.168858  -0.002507   0.143060
    22  C    0.370452   0.182730  -0.467996  -0.089565   0.000518   0.017609
    23  C    0.622448   0.955820   0.098681  -0.182317   0.050439  -0.020772
    24  H   -0.095404  -0.025088  -0.053840   0.037867  -0.013087   0.031769
    25  C   -0.161682  -0.020565   0.066104   0.061731   0.008901  -0.064179
    26  H    0.014615  -0.014011  -0.014159   0.127082  -0.002833   0.009130
    27  C   -0.174523  -0.182099  -0.085975  -0.032683  -0.006646  -0.280392
    28  H    0.000646   0.003436   0.005358   0.004349   0.000213   0.028543
    29  H    0.000362  -0.000102   0.004158  -0.001574   0.000141   0.035312
    30  C    0.357912   0.126822   0.614420  -0.189467  -0.000575  -0.111315
    31  H   -0.122948  -0.052535  -0.055968   0.026554  -0.000212   0.024335
    32  C   -0.281294   0.022094  -0.307077   0.439772   0.003426  -0.015707
    33  H    0.018209  -0.015848   0.009949  -0.141255   0.000067   0.007968
    34  C   -0.133102  -0.285147  -0.035412  -0.204295  -0.014434   0.029875
    35  H    0.011821   0.011982   0.002004  -0.003222   0.001293  -0.001799
    36  H   -0.000862   0.000263   0.000203  -0.007408   0.000599  -0.000577
    37  H   -0.005694  -0.005804  -0.005185   0.000563  -0.000308   0.014134
    38  C   -0.021224  -0.022870  -0.103449  -0.020638  -0.000282   0.030930
    39  H    0.009100   0.001863   0.013109   0.000007  -0.000005  -0.002312
    40  H   -0.002432  -0.000143  -0.004793   0.013089  -0.000013  -0.000532
    41  H   -0.001020  -0.007076  -0.000826  -0.006194  -0.000550   0.000702
    42  H    0.000593  -0.000691  -0.004328   0.000392  -0.000008   0.000878
               7          8          9         10         11         12
     1  C   -8.473239   0.311393  -5.756414  -0.057313  -0.976526  -0.766920
     2  C   -5.301897   0.201297  -1.386651  -2.733828  -0.119194  -0.215863
     3  C    4.256216   0.209936  -1.353250  -1.194963  -0.309819   0.189982
     4  C   -9.901989   0.118127   0.845210  -1.561610   0.102520  -0.016648
     5  H    0.115619  -0.005274   0.014644  -0.054256  -0.078555   0.015982
     6  C   -0.265699  -0.041116  -1.391157   0.924884   0.183553  -0.294422
     7  C   23.900780  -0.357845   1.948846   0.745289  -0.111973   0.451874
     8  H   -0.357845   0.506673  -0.005886  -0.014228  -0.063190   0.026901
     9  C    1.948846  -0.005886  15.991148  -1.710903  -0.344303   0.109870
    10  C    0.745289  -0.014228  -1.710903  15.365950   0.256178  -0.073187
    11  C   -0.111973  -0.063190  -0.344303   0.256178  14.806472  -6.062794
    12  C    0.451874   0.026901   0.109870  -0.073187  -6.062794  13.711383
    13  C   -2.124262  -0.012482  -1.669642   0.693011   0.179336   0.035630
    14  H   -0.053922  -0.002182   0.259475   0.054395   0.003700  -0.004595
    15  C    0.081876   0.005409  -0.427311  -0.849511  -0.100456   0.139902
    16  C    0.433712  -0.004100   1.601512  -1.753912   0.071170  -0.064437
    17  C    0.009171   0.007421   0.084296   0.042310  -2.271784   0.900703
    18  H   -0.027486  -0.001263  -0.022892   0.017929   0.492623  -0.011000
    19  C    0.206490  -0.001812   0.036916  -0.075023   0.573208  -1.416781
    20  H   -0.012731   0.006143   0.003103   0.014097   0.010283   0.372696
    21  C   -0.444367  -0.244016  -0.321186  -0.027806  -0.034978   0.026461
    22  C    0.279510   0.144835   0.507023   0.187289   0.049154  -0.023081
    23  C   -0.203806  -0.001690  -0.323705  -1.642231  -0.046101   0.025743
    24  H    0.010498   0.000167  -0.004327  -0.004546   0.011653  -0.001074
    25  C    0.246910   0.002420   0.374074  -1.470234  -0.002199  -0.000024
    26  H   -0.113597  -0.000073  -0.053507  -0.036700  -0.000512   0.001744
    27  C   -0.006390   0.004132  -0.035848   0.020763  -0.007302  -0.469707
    28  H    0.003028   0.000084   0.001175  -0.000432  -0.101961   0.011425
    29  H    0.002091  -0.001253  -0.000205  -0.000820   0.010247  -0.100377
    30  C    0.119034  -0.000215  -0.123561  -0.018404  -0.003282  -0.023759
    31  H    0.064732  -0.010469   0.006958   0.010168   0.005992   0.009364
    32  C   -0.427572   0.010171   0.718329  -0.118377  -0.016455   0.020876
    33  H    0.149903  -0.002082  -0.077132   0.014012   0.002098  -0.001233
    34  C    0.034866   0.000233   0.111764  -0.223174   0.000652   0.001386
    35  H    0.001417  -0.000047  -0.000732   0.029151  -0.000431   0.000150
    36  H    0.009565  -0.000016   0.011025   0.018703  -0.000069   0.000030
    37  H    0.000675   0.000180  -0.000881   0.000685   0.017274   0.008122
    38  C   -0.135491  -0.013448  -0.095726   0.039505   0.005777  -0.006793
    39  H   -0.000472   0.000943   0.000525  -0.000899  -0.000363   0.000211
    40  H   -0.013248   0.000587   0.018519  -0.004097  -0.000256   0.000254
    41  H    0.001442  -0.000004  -0.001459   0.025642   0.000097  -0.000012
    42  H   -0.005448  -0.000403  -0.005616   0.001067   0.000183  -0.000196
              13         14         15         16         17         18
     1  C    0.340347   0.093382  -0.672144  -0.251903  -0.383374   0.043402
     2  C   -1.299182   0.063122   1.158389  -1.982489   0.772956   0.003732
     3  C   -2.676233   0.063654  -0.503484   0.059131   0.103390  -0.072031
     4  C    0.819126  -0.042885  -0.579758  -0.317598   0.376520  -0.026207
     5  H   -0.019925  -0.002221  -0.203446   0.095999   0.023753  -0.004008
     6  C    1.048270  -0.010602   0.273975  -0.094437  -1.443871   0.070784
     7  C   -2.124262  -0.053922   0.081876   0.433712   0.009171  -0.027486
     8  H   -0.012482  -0.002182   0.005409  -0.004100   0.007421  -0.001263
     9  C   -1.669642   0.259475  -0.427311   1.601512   0.084296  -0.022892
    10  C    0.693011   0.054395  -0.849511  -1.753912   0.042310   0.017929
    11  C    0.179336   0.003700  -0.100456   0.071170  -2.271784   0.492623
    12  C    0.035630  -0.004595   0.139902  -0.064437   0.900703  -0.011000
    13  C   15.432755   0.042723  -0.119337   0.251035  -0.010794   0.011912
    14  H    0.042723   0.501852   0.096623  -0.181988  -0.003313   0.000624
    15  C   -0.119337   0.096623  18.594082 -10.231472  -0.076964   0.014470
    16  C    0.251035  -0.181988 -10.231472  19.183934   0.047942  -0.011079
    17  C   -0.010794  -0.003313  -0.076964   0.047942   8.550410  -0.199126
    18  H    0.011912   0.000624   0.014470  -0.011079  -0.199126   0.475464
    19  C   -0.129788   0.003505  -0.002274  -0.001196  -0.774867   0.022116
    20  H    0.024453  -0.000744  -0.006327   0.003943   0.023319  -0.002022
    21  C   -0.327867   0.088441   0.037840  -0.039816  -0.003823   0.001569
    22  C   -2.653965  -0.157749  -0.015509   0.055145   0.009751  -0.001421
    23  C    0.003725   0.010611  -1.443852   0.660547   0.001501  -0.003236
    24  H    0.009625  -0.001053   0.585562  -0.076877  -0.002335   0.001073
    25  C   -0.110261  -0.011039   0.696018  -1.003744  -0.002269  -0.000386
    26  H    0.014282  -0.001756  -0.081354   0.497996  -0.000280   0.000207
    27  C    0.040019   0.000102   0.008337  -0.004118   0.310464   0.007817
    28  H   -0.000693  -0.000059  -0.000947   0.000713   0.432660  -0.011734
    29  H   -0.003342   0.000022   0.000216  -0.000034  -0.002658   0.000443
    30  C   -1.561164   0.000969  -0.004270   0.018189   0.010647  -0.001513
    31  H   -0.026033  -0.001128   0.001683  -0.001854  -0.001070   0.000359
    32  C   -1.184206  -0.005460  -0.009323  -0.000043  -0.003224  -0.000214
    33  H   -0.032822  -0.002983   0.002147   0.014882   0.000707  -0.000017
    34  C    0.029826  -0.003280  -0.105035  -0.327062   0.000322   0.000451
    35  H   -0.000638   0.000181  -0.121883   0.026563   0.000003  -0.000051
    36  H   -0.003731  -0.000845   0.014972  -0.087877  -0.000004  -0.000015
    37  H    0.001281  -0.000007   0.000094  -0.000034  -0.072332   0.000762
    38  C   -0.264208   0.000689   0.007080  -0.020837   0.000236   0.000238
    39  H    0.032747   0.000181  -0.000225   0.000455   0.000016  -0.000013
    40  H    0.020483  -0.000786  -0.000827   0.002577  -0.000013  -0.000006
    41  H    0.001016   0.000172   0.007544  -0.004867   0.000008   0.000024
    42  H    0.023106   0.000116   0.000169  -0.000515   0.000011   0.000004
              19         20         21         22         23         24
     1  C    0.053135   0.012481  -0.926069   0.370452   0.622448  -0.095404
     2  C   -0.195187  -0.002918  -0.560546   0.182730   0.955820  -0.025088
     3  C    0.482121  -0.009858   0.454525  -0.467996   0.098681  -0.053840
     4  C   -0.162910   0.017675   0.168858  -0.089565  -0.182317   0.037867
     5  H    0.016585   0.000209  -0.002507   0.000518   0.050439  -0.013087
     6  C   -1.199294   0.023813   0.143060   0.017609  -0.020772   0.031769
     7  C    0.206490  -0.012731  -0.444367   0.279510  -0.203806   0.010498
     8  H   -0.001812   0.006143  -0.244016   0.144835  -0.001690   0.000167
     9  C    0.036916   0.003103  -0.321186   0.507023  -0.323705  -0.004327
    10  C   -0.075023   0.014097  -0.027806   0.187289  -1.642231  -0.004546
    11  C    0.573208   0.010283  -0.034978   0.049154  -0.046101   0.011653
    12  C   -1.416781   0.372696   0.026461  -0.023081   0.025743  -0.001074
    13  C   -0.129788   0.024453  -0.327867  -2.653965   0.003725   0.009625
    14  H    0.003505  -0.000744   0.088441  -0.157749   0.010611  -0.001053
    15  C   -0.002274  -0.006327   0.037840  -0.015509  -1.443852   0.585562
    16  C   -0.001196   0.003943  -0.039816   0.055145   0.660547  -0.076877
    17  C   -0.774867   0.023319  -0.003823   0.009751   0.001501  -0.002335
    18  H    0.022116  -0.002022   0.001569  -0.001421  -0.003236   0.001073
    19  C    8.110521  -0.138513   0.051311  -0.024875  -0.000980  -0.004764
    20  H   -0.138513   0.473880  -0.022781   0.012463  -0.001673  -0.000058
    21  C    0.051311  -0.022781  19.386883 -10.919104   0.002389   0.003398
    22  C   -0.024875   0.012463 -10.919104  19.562989   0.005224  -0.003176
    23  C   -0.000980  -0.001673   0.002389   0.005224   8.110986  -0.124794
    24  H   -0.004764  -0.000058   0.003398  -0.003176  -0.124794   0.485293
    25  C    0.002062  -0.000117  -0.001866  -0.012776  -0.674976  -0.000930
    26  H    0.000002   0.000108   0.002502   0.006759  -0.005431  -0.000095
    27  C    0.514414  -0.004964  -0.021166   0.007744  -0.000999   0.001720
    28  H    0.001970   0.000302   0.000508  -0.000147   0.000117  -0.000062
    29  H    0.429055  -0.011097   0.002739  -0.000744   0.000087  -0.000045
    30  C   -0.020147  -0.000469  -1.441975   0.863595  -0.001193   0.000385
    31  H    0.000501  -0.001830   0.605993  -0.118877   0.000201   0.000201
    32  C    0.006668  -0.000788   1.076695  -1.382318   0.006348  -0.001519
    33  H   -0.000825   0.000141  -0.088115   0.520759   0.000748   0.000150
    34  C   -0.001137   0.000063   0.004303  -0.013697   0.255635   0.027504
    35  H    0.000225   0.000002  -0.000200   0.000442   0.438608  -0.011494
    36  H    0.000002  -0.000001  -0.000635   0.002225   0.009189  -0.000212
    37  H   -0.068165   0.000991  -0.000646   0.000220  -0.000029   0.000052
    38  C   -0.002989   0.000051  -0.287996  -0.325047   0.000112   0.000206
    39  H    0.000169   0.000087  -0.123070   0.026950   0.000003  -0.000010
    40  H    0.000043  -0.000006   0.018602  -0.091658  -0.000023  -0.000010
    41  H   -0.000020   0.000002   0.000172  -0.000514  -0.075275   0.001238
    42  H   -0.000082   0.000012  -0.002373   0.004862   0.000006   0.000005
              25         26         27         28         29         30
     1  C   -0.161682   0.014615  -0.174523   0.000646   0.000362   0.357912
     2  C   -0.020565  -0.014011  -0.182099   0.003436  -0.000102   0.126822
     3  C    0.066104  -0.014159  -0.085975   0.005358   0.004158   0.614420
     4  C    0.061731   0.127082  -0.032683   0.004349  -0.001574  -0.189467
     5  H    0.008901  -0.002833  -0.006646   0.000213   0.000141  -0.000575
     6  C   -0.064179   0.009130  -0.280392   0.028543   0.035312  -0.111315
     7  C    0.246910  -0.113597  -0.006390   0.003028   0.002091   0.119034
     8  H    0.002420  -0.000073   0.004132   0.000084  -0.001253  -0.000215
     9  C    0.374074  -0.053507  -0.035848   0.001175  -0.000205  -0.123561
    10  C   -1.470234  -0.036700   0.020763  -0.000432  -0.000820  -0.018404
    11  C   -0.002199  -0.000512  -0.007302  -0.101961   0.010247  -0.003282
    12  C   -0.000024   0.001744  -0.469707   0.011425  -0.100377  -0.023759
    13  C   -0.110261   0.014282   0.040019  -0.000693  -0.003342  -1.561164
    14  H   -0.011039  -0.001756   0.000102  -0.000059   0.000022   0.000969
    15  C    0.696018  -0.081354   0.008337  -0.000947   0.000216  -0.004270
    16  C   -1.003744   0.497996  -0.004118   0.000713  -0.000034   0.018189
    17  C   -0.002269  -0.000280   0.310464   0.432660  -0.002658   0.010647
    18  H   -0.000386   0.000207   0.007817  -0.011734   0.000443  -0.001513
    19  C    0.002062   0.000002   0.514414   0.001970   0.429055  -0.020147
    20  H   -0.000117   0.000108  -0.004964   0.000302  -0.011097  -0.000469
    21  C   -0.001866   0.002502  -0.021166   0.000508   0.002739  -1.441975
    22  C   -0.012776   0.006759   0.007744  -0.000147  -0.000744   0.863595
    23  C   -0.674976  -0.005431  -0.000999   0.000117   0.000087  -0.001193
    24  H   -0.000930  -0.000095   0.001720  -0.000062  -0.000045   0.000385
    25  C    7.695848  -0.044253  -0.000361  -0.000025  -0.000008   0.005338
    26  H   -0.044253   0.498287   0.000036   0.000009  -0.000002   0.000466
    27  C   -0.000361   0.000036   6.403869  -0.060398  -0.052379  -0.004510
    28  H   -0.000025   0.000009  -0.060398   0.474879   0.000161   0.000080
    29  H   -0.000008  -0.000002  -0.052379   0.000161   0.476371   0.000147
    30  C    0.005338   0.000466  -0.004510   0.000080   0.000147   7.947418
    31  H   -0.000876   0.000171   0.000700   0.000012   0.000140  -0.088105
    32  C   -0.016326   0.002863  -0.000183   0.000011   0.000031  -0.831506
    33  H   -0.005229  -0.005460   0.000092   0.000004  -0.000002  -0.002422
    34  C    0.451059   0.017129   0.000224   0.000003   0.000004   0.000145
    35  H    0.006024  -0.000250  -0.000048   0.000003   0.000001  -0.000009
    36  H    0.415649  -0.010939   0.000001  -0.000001  -0.000000  -0.000007
    37  H   -0.000009   0.000002   0.451115  -0.009030  -0.009560  -0.000123
    38  C   -0.004738  -0.001235   0.000021   0.000002   0.000023   0.419895
    39  H    0.000041   0.000044  -0.000000  -0.000001  -0.000009   0.432053
    40  H    0.000707   0.000604  -0.000002  -0.000000  -0.000000   0.009826
    41  H   -0.065285   0.001403   0.000006  -0.000000   0.000000   0.000006
    42  H   -0.000139  -0.000051   0.000006  -0.000000  -0.000000  -0.072259
              31         32         33         34         35         36
     1  C   -0.122948  -0.281294   0.018209  -0.133102   0.011821  -0.000862
     2  C   -0.052535   0.022094  -0.015848  -0.285147   0.011982   0.000263
     3  C   -0.055968  -0.307077   0.009949  -0.035412   0.002004   0.000203
     4  C    0.026554   0.439772  -0.141255  -0.204295  -0.003222  -0.007408
     5  H   -0.000212   0.003426   0.000067  -0.014434   0.001293   0.000599
     6  C    0.024335  -0.015707   0.007968   0.029875  -0.001799  -0.000577
     7  C    0.064732  -0.427572   0.149903   0.034866   0.001417   0.009565
     8  H   -0.010469   0.010171  -0.002082   0.000233  -0.000047  -0.000016
     9  C    0.006958   0.718329  -0.077132   0.111764  -0.000732   0.011025
    10  C    0.010168  -0.118377   0.014012  -0.223174   0.029151   0.018703
    11  C    0.005992  -0.016455   0.002098   0.000652  -0.000431  -0.000069
    12  C    0.009364   0.020876  -0.001233   0.001386   0.000150   0.000030
    13  C   -0.026033  -1.184206  -0.032822   0.029826  -0.000638  -0.003731
    14  H   -0.001128  -0.005460  -0.002983  -0.003280   0.000181  -0.000845
    15  C    0.001683  -0.009323   0.002147  -0.105035  -0.121883   0.014972
    16  C   -0.001854  -0.000043   0.014882  -0.327062   0.026563  -0.087877
    17  C   -0.001070  -0.003224   0.000707   0.000322   0.000003  -0.000004
    18  H    0.000359  -0.000214  -0.000017   0.000451  -0.000051  -0.000015
    19  C    0.000501   0.006668  -0.000825  -0.001137   0.000225   0.000002
    20  H   -0.001830  -0.000788   0.000141   0.000063   0.000002  -0.000001
    21  C    0.605993   1.076695  -0.088115   0.004303  -0.000200  -0.000635
    22  C   -0.118877  -1.382318   0.520759  -0.013697   0.000442   0.002225
    23  C    0.000201   0.006348   0.000748   0.255635   0.438608   0.009189
    24  H    0.000201  -0.001519   0.000150   0.027504  -0.011494  -0.000212
    25  C   -0.000876  -0.016326  -0.005229   0.451059   0.006024   0.415649
    26  H    0.000171   0.002863  -0.005460   0.017129  -0.000250  -0.010939
    27  C    0.000700  -0.000183   0.000092   0.000224  -0.000048   0.000001
    28  H    0.000012   0.000011   0.000004   0.000003   0.000003  -0.000001
    29  H    0.000140   0.000031  -0.000002   0.000004   0.000001  -0.000000
    30  C   -0.088105  -0.831506  -0.002422   0.000145  -0.000009  -0.000007
    31  H    0.490949   0.007554  -0.000445   0.000152  -0.000009  -0.000011
    32  C    0.007554   7.934873  -0.077974  -0.004386   0.000070   0.000352
    33  H   -0.000445  -0.077974   0.500041  -0.000530   0.000036   0.000486
    34  C    0.000152  -0.004386  -0.000530   6.437707  -0.072543  -0.058272
    35  H   -0.000009   0.000070   0.000036  -0.072543   0.475536   0.000951
    36  H   -0.000011   0.000352   0.000486  -0.058272   0.000951   0.474076
    37  H    0.000004  -0.000002   0.000003   0.000008  -0.000002  -0.000000
    38  C    0.030420   0.455823   0.022974  -0.000204   0.000000   0.000081
    39  H   -0.012958   0.004367  -0.000397  -0.000001   0.000000  -0.000001
    40  H   -0.000219   0.421777  -0.012343   0.000085  -0.000001  -0.000045
    41  H    0.000005  -0.000125  -0.000026   0.462647  -0.010701  -0.010966
    42  H    0.001500  -0.072036   0.002025  -0.000001  -0.000000   0.000001
              37         38         39         40         41         42
     1  C   -0.005694  -0.021224   0.009100  -0.002432  -0.001020   0.000593
     2  C   -0.005804  -0.022870   0.001863  -0.000143  -0.007076  -0.000691
     3  C   -0.005185  -0.103449   0.013109  -0.004793  -0.000826  -0.004328
     4  C    0.000563  -0.020638   0.000007   0.013089  -0.006194   0.000392
     5  H   -0.000308  -0.000282  -0.000005  -0.000013  -0.000550  -0.000008
     6  C    0.014134   0.030930  -0.002312  -0.000532   0.000702   0.000878
     7  C    0.000675  -0.135491  -0.000472  -0.013248   0.001442  -0.005448
     8  H    0.000180  -0.013448   0.000943   0.000587  -0.000004  -0.000403
     9  C   -0.000881  -0.095726   0.000525   0.018519  -0.001459  -0.005616
    10  C    0.000685   0.039505  -0.000899  -0.004097   0.025642   0.001067
    11  C    0.017274   0.005777  -0.000363  -0.000256   0.000097   0.000183
    12  C    0.008122  -0.006793   0.000211   0.000254  -0.000012  -0.000196
    13  C    0.001281  -0.264208   0.032747   0.020483   0.001016   0.023106
    14  H   -0.000007   0.000689   0.000181  -0.000786   0.000172   0.000116
    15  C    0.000094   0.007080  -0.000225  -0.000827   0.007544   0.000169
    16  C   -0.000034  -0.020837   0.000455   0.002577  -0.004867  -0.000515
    17  C   -0.072332   0.000236   0.000016  -0.000013   0.000008   0.000011
    18  H    0.000762   0.000238  -0.000013  -0.000006   0.000024   0.000004
    19  C   -0.068165  -0.002989   0.000169   0.000043  -0.000020  -0.000082
    20  H    0.000991   0.000051   0.000087  -0.000006   0.000002   0.000012
    21  C   -0.000646  -0.287996  -0.123070   0.018602   0.000172  -0.002373
    22  C    0.000220  -0.325047   0.026950  -0.091658  -0.000514   0.004862
    23  C   -0.000029   0.000112   0.000003  -0.000023  -0.075275   0.000006
    24  H    0.000052   0.000206  -0.000010  -0.000010   0.001238   0.000005
    25  C   -0.000009  -0.004738   0.000041   0.000707  -0.065285  -0.000139
    26  H    0.000002  -0.001235   0.000044   0.000604   0.001403  -0.000051
    27  C    0.451115   0.000021  -0.000000  -0.000002   0.000006   0.000006
    28  H   -0.009030   0.000002  -0.000001  -0.000000  -0.000000  -0.000000
    29  H   -0.009560   0.000023  -0.000009  -0.000000   0.000000  -0.000000
    30  C   -0.000123   0.419895   0.432053   0.009826   0.000006  -0.072259
    31  H    0.000004   0.030420  -0.012958  -0.000219   0.000005   0.001500
    32  C   -0.000002   0.455823   0.004367   0.421777  -0.000125  -0.072036
    33  H    0.000003   0.022974  -0.000397  -0.012343  -0.000026   0.002025
    34  C    0.000008  -0.000204  -0.000001   0.000085   0.462647  -0.000001
    35  H   -0.000002   0.000000   0.000000  -0.000001  -0.010701  -0.000000
    36  H   -0.000000   0.000081  -0.000001  -0.000045  -0.010966   0.000001
    37  H    0.483578   0.000003  -0.000001  -0.000000   0.000000   0.000000
    38  C    0.000003   6.385245  -0.068672  -0.063294  -0.000001   0.468500
    39  H   -0.000001  -0.068672   0.476299   0.001075  -0.000000  -0.011437
    40  H   -0.000000  -0.063294   0.001075   0.475523   0.000001  -0.012050
    41  H    0.000000  -0.000001  -0.000000   0.000001   0.486562   0.000000
    42  H    0.000000   0.468500  -0.011437  -0.012050   0.000000   0.488613
 Mulliken charges:
               1
     1  C    1.292364
     2  C   -1.269964
     3  C   -1.619787
     4  C    0.994946
     5  H    0.192556
     6  C    0.756709
     7  C    0.907889
     8  H    0.226045
     9  C   -1.532115
    10  C    1.165421
    11  C   -0.129672
    12  C   -0.507787
    13  C    1.175866
    14  H    0.204058
    15  C   -0.170679
    16  C   -0.563156
    17  C   -0.456415
    18  H    0.229715
    19  C   -0.289388
    20  H    0.216580
    21  C   -0.233340
    22  C   -0.516030
    23  C   -0.506082
    24  H    0.216436
    25  C   -0.358387
    26  H    0.191055
    27  C   -0.340889
    28  H    0.215801
    29  H    0.222458
    30  C   -0.427096
    31  H    0.206896
    32  C   -0.375986
    33  H    0.199736
    34  C   -0.384332
    35  H    0.217597
    36  H    0.224121
    37  H    0.198060
    38  C   -0.408670
    39  H    0.220603
    40  H    0.223048
    41  H    0.196231
    42  H    0.195582
 Sum of Mulliken charges =  -0.00000
 Mulliken charges with hydrogens summed into heavy atoms:
               1
     1  C    1.292364
     2  C   -1.077407
     3  C   -1.393741
     4  C    0.994946
     6  C    0.756709
     7  C    0.907889
     9  C   -1.328057
    10  C    1.165421
    11  C    0.100043
    12  C   -0.291207
    13  C    1.175866
    15  C    0.045757
    16  C   -0.372101
    17  C   -0.240614
    19  C   -0.066930
    21  C   -0.026445
    22  C   -0.316293
    23  C   -0.288485
    25  C   -0.134267
    27  C   -0.142828
    30  C   -0.206493
    32  C   -0.152939
    34  C   -0.188101
    38  C   -0.213088
 Electronic spatial extent (au):  <R**2>=          10005.9355
 Charge=              0.0000 electrons
 Dipole moment (field-independent basis, Debye):
    X=              0.0222    Y=             -0.0063    Z=             -0.0025  Tot=              0.0232
 Quadrupole moment (field-independent basis, Debye-Ang):
   XX=           -126.5642   YY=           -129.9792   ZZ=           -137.8507
   XY=              0.0940   XZ=             -6.3745   YZ=             -2.1459
 Traceless Quadrupole moment (field-independent basis, Debye-Ang):
   XX=              4.9005   YY=              1.4855   ZZ=             -6.3860
   XY=              0.0940   XZ=             -6.3745   YZ=             -2.1459
 Octapole moment (field-independent basis, Debye-Ang**2):
  XXX=             33.8113  YYY=              3.1789  ZZZ=              1.8418  XYY=            -51.5531
  XXY=             -1.1894  XXZ=             31.4988  XZZ=             17.3972  YZZ=             -1.9534
  YYZ=            -33.5345  XYZ=            -12.6954
 Hexadecapole moment (field-independent basis, Debye-Ang**3):
 XXXX=          -6266.9432 YYYY=          -6164.7011 ZZZZ=           -614.5158 XXXY=              5.3572
 XXXZ=           -116.0850 YYYX=              2.8505 YYYZ=             12.3647 ZZZX=            -10.8890
 ZZZY=            -15.7689 XXYY=          -2142.4372 XXZZ=          -1176.5566 YYZZ=          -1233.6889
 XXYZ=            -52.1869 YYXZ=            -36.2754 ZZXY=             -5.5416
 N-N= 1.730893112138D+03 E-N=-5.608283461486D+03  KE= 9.212944489759D+02
 No NMR shielding tensors so no spin-rotation constants.
 Leave Link  601 at Mon Nov 14 15:07:10 2022, MaxMem= 16106127360 cpu:              32.0 elap:               1.1
 (Enter /opt/ap/G16/B01/g16/l9999.exe)
 1\1\GINC-N59\SP\RwB97XD\6-311++G(d,p)\C24H18\ROOT\14-Nov-2022\0\\#P wB
 97XD/6-311++G(d,p) scf=maxcycle=512\\_conf004.gjf nmol_natom 1_42\\0,1
 \C\C,1,1.39412829\C,1,1.39435449,2,118.86443127\C,2,1.39416084,1,121.1
 529487,3,0.03668482,0\H,2,1.08488355,1,119.42236619,3,-179.97409048,0\
 C,1,1.48467131,2,120.55714816,4,179.25839056,0\C,3,1.39437784,1,121.11
 776116,2,-0.05351271,0\H,3,1.08487775,1,119.41869036,2,177.23008049,0\
 C,4,1.39432447,2,118.86473838,1,0.01008406,0\C,4,1.48466627,2,120.5464
 188,1,179.19454736,0\C,6,1.3968498,1,120.7843492,2,-70.,0\C,6,1.396868
 2,1,120.67653841,2,110.,0\C,7,1.48449863,3,120.56496838,1,-179.9632580
 4,0\H,9,1.0848792,4,119.41824946,2,177.22245984,0\C,10,1.39685361,4,12
 0.76946845,2,-42.52368674,0\C,10,1.39686289,4,120.69448769,2,137.43107
 516,0\C,11,1.38888939,6,120.7380073,1,179.94058542,0\H,11,1.0847641,6,
 119.46912378,1,-1.41050605,0\C,12,1.38882428,6,120.76493111,1,-179.950
 82712,0\H,12,1.08482758,6,119.44182626,1,-1.23602505,0\C,13,1.39682899
 ,7,120.74134419,3,42.89023273,0\C,13,1.39683158,7,120.7379111,3,-137.1
 2494058,0\C,15,1.38888263,10,120.742191,4,179.9460119,0\H,15,1.0847633
 4,10,119.47085903,4,-1.40606944,0\C,16,1.38886088,10,120.76338989,4,-1
 79.95592713,0\H,16,1.08483431,10,119.44215232,4,-1.23439681,0\C,17,1.3
 9007919,11,120.20743432,6,0.00349958,0\H,17,1.0843506,11,119.71318733,
 6,179.5011609,0\H,19,1.08435858,12,119.73823132,6,179.53683762,0\C,21,
 1.38882373,13,120.76699356,7,179.99297883,0\H,21,1.0847938,13,119.4352
 623,7,1.32183327,0\C,22,1.38881869,13,120.76647403,7,-179.97118338,0\H
 ,22,1.08479982,13,119.43203605,7,1.34657928,0\C,23,1.39007007,15,120.2
 0732995,10,0.00573957,0\H,23,1.08434813,15,119.71220819,10,179.5072436
 8,0\H,25,1.08436328,16,119.73539424,10,179.53636455,0\H,27,1.08412515,
 17,120.21790854,11,179.98397203,0\C,30,1.39008059,21,120.18795226,13,-
 0.02169059,0\H,30,1.08435324,21,119.73787119,13,-179.52151214,0\H,32,1
 .0843543,22,119.737043,13,-179.52886928,0\H,34,1.08412314,23,120.22152
 803,15,179.98800213,0\H,38,1.08411439,30,120.21547163,21,-179.98600656
 ,0\\Version=ES64L-G16RevB.01\State=1-A\HF=-925.3099969\RMSD=3.991e-09\
 Dipole=-0.0087237,0.0012314,-0.0023584\Quadrupole=2.7624064,-4.4305086
 ,1.6681023,-3.4026653,1.0009153,-3.9909603\PG=C01 [X(C24H18)]\\@


 Everywhere is walking distance if you have the time.
                                    -- Steven Wright
 Job cpu time:       0 days  1 hours 24 minutes 22.3 seconds.
 Elapsed time:       0 days  0 hours  2 minutes 39.8 seconds.
 File lengths (MBytes):  RWF=    224 Int=      0 D2E=      0 Chk=     26 Scr=      1
 Normal termination of Gaussian 16 at Mon Nov 14 15:07:10 2022.
