 Entering Gaussian System, Link 0=g16
 Input=_conf034.gjf
 Output=_conf034.log
 Initial command:
 /opt/ap/G16/B01/g16/l1.exe "/tmp2/scr/Gau-14345.inp" -scrdir="/tmp2/scr/"
 Entering Link 1 = /opt/ap/G16/B01/g16/l1.exe PID=     14346.
  
 Copyright (c) 1988-2017, Gaussian, Inc.  All Rights Reserved.
  
 This is part of the Gaussian(R) 16 program.  It is based on
 the Gaussian(R) 09 system (copyright 2009, Gaussian, Inc.),
 the Gaussian(R) 03 system (copyright 2003, Gaussian, Inc.),
 the Gaussian(R) 98 system (copyright 1998, Gaussian, Inc.),
 the Gaussian(R) 94 system (copyright 1995, Gaussian, Inc.),
 the Gaussian 92(TM) system (copyright 1992, Gaussian, Inc.),
 the Gaussian 90(TM) system (copyright 1990, Gaussian, Inc.),
 the Gaussian 88(TM) system (copyright 1988, Gaussian, Inc.),
 the Gaussian 86(TM) system (copyright 1986, Carnegie Mellon
 University), and the Gaussian 82(TM) system (copyright 1983,
 Carnegie Mellon University). Gaussian is a federally registered
 trademark of Gaussian, Inc.
  
 This software contains proprietary and confidential information,
 including trade secrets, belonging to Gaussian, Inc.
  
 This software is provided under written license and may be
 used, copied, transmitted, or stored only in accord with that
 written license.
  
 The following legend is applicable only to US Government
 contracts under FAR:
  
                    RESTRICTED RIGHTS LEGEND
  
 Use, reproduction and disclosure by the US Government is
 subject to restrictions as set forth in subparagraphs (a)
 and (c) of the Commercial Computer Software - Restricted
 Rights clause in FAR 52.227-19.
  
 Gaussian, Inc.
 340 Quinnipiac St., Bldg. 40, Wallingford CT 06492
  
  
 ---------------------------------------------------------------
 Warning -- This program may not be used in any manner that
 competes with the business of Gaussian, Inc. or will provide
 assistance to any competitor of Gaussian, Inc.  The licensee
 of this program is prohibited from giving any competitor of
 Gaussian, Inc. access to this program.  By using this program,
 the user acknowledges that Gaussian, Inc. is engaged in the
 business of creating and licensing software in the field of
 computational chemistry and represents and warrants to the
 licensee that it is not a competitor of Gaussian, Inc. and that
 it will not use this program in any manner prohibited above.
 ---------------------------------------------------------------
  

 Cite this work as:
 Gaussian 16, Revision B.01,
 M. J. Frisch, G. W. Trucks, H. B. Schlegel, G. E. Scuseria, 
 M. A. Robb, J. R. Cheeseman, G. Scalmani, V. Barone, 
 G. A. Petersson, H. Nakatsuji, X. Li, M. Caricato, A. V. Marenich, 
 J. Bloino, B. G. Janesko, R. Gomperts, B. Mennucci, H. P. Hratchian, 
 J. V. Ortiz, A. F. Izmaylov, J. L. Sonnenberg, D. Williams-Young, 
 F. Ding, F. Lipparini, F. Egidi, J. Goings, B. Peng, A. Petrone, 
 T. Henderson, D. Ranasinghe, V. G. Zakrzewski, J. Gao, N. Rega, 
 G. Zheng, W. Liang, M. Hada, M. Ehara, K. Toyota, R. Fukuda, 
 J. Hasegawa, M. Ishida, T. Nakajima, Y. Honda, O. Kitao, H. Nakai, 
 T. Vreven, K. Throssell, J. A. Montgomery, Jr., J. E. Peralta, 
 F. Ogliaro, M. J. Bearpark, J. J. Heyd, E. N. Brothers, K. N. Kudin, 
 V. N. Staroverov, T. A. Keith, R. Kobayashi, J. Normand, 
 K. Raghavachari, A. P. Rendell, J. C. Burant, S. S. Iyengar, 
 J. Tomasi, M. Cossi, J. M. Millam, M. Klene, C. Adamo, R. Cammi, 
 J. W. Ochterski, R. L. Martin, K. Morokuma, O. Farkas, 
 J. B. Foresman, and D. J. Fox, Gaussian, Inc., Wallingford CT, 2016.
 
 ******************************************
 Gaussian 16:  ES64L-G16RevB.01 20-Dec-2017
                14-Nov-2022 
 ******************************************
 %nprocshared=32
 Will use up to   32 processors via shared memory.
 %mem=120GB
 %chk=_conf034.chk
 ----------------------------------------
 #P wB97XD/6-311++G(d,p) scf=maxcycle=512
 ----------------------------------------
 1/38=1,172=1/1;
 2/12=2,17=6,18=5,40=1/2;
 3/5=4,6=6,7=1111,11=2,25=1,30=1,74=-58/1,2,3;
 4//1;
 5/5=2,7=512,38=5/2;
 6/7=2,8=2,9=2,10=2,28=1/1;
 99/5=1,9=1/99;
 Leave Link    1 at Mon Nov 14 15:22:21 2022, MaxMem= 16106127360 cpu:               2.8 elap:               0.1
 (Enter /opt/ap/G16/B01/g16/l101.exe)
 ----------------------------
 _conf034.gjf nmol_natom 1_42
 ----------------------------
 Symbolic Z-matrix:
 Charge =  0 Multiplicity = 1
 C
 C                    1     1.39413 
 C                    1     1.39435  2     118.86443 
 C                    2     1.39416  1     121.15295  3     0.03668  0
 H                    2     1.08488  1     119.42237  3    -179.97409  0
 C                    1     1.48467  2     120.55715  4     179.25839  0
 C                    3     1.39438  1     121.11776  2    -0.05351  0
 H                    3     1.08488  1     119.41869  2     177.23008  0
 C                    4     1.39432  2     118.86474  1     0.01008  0
 C                    4     1.48467  2     120.54642  1     179.19455  0
 C                    6     1.39685  1     120.78435  2     80.      0
 C                    6     1.39687  1     120.67654  2    -100.     0
 C                    7     1.4845   3     120.56497  1    -179.96326  0
 H                    9     1.08488  4     119.41825  2     177.22246  0
 C                    10    1.39685  4     120.76947  2    -42.52369  0
 C                    10    1.39686  4     120.69449  2     137.43108  0
 C                    11    1.38889  6     120.73801  1     179.94059  0
 H                    11    1.08476  6     119.46912  1    -1.41051  0
 C                    12    1.38882  6     120.76493  1    -179.95083  0
 H                    12    1.08483  6     119.44183  1    -1.23603  0
 C                    13    1.39683  7     120.74134  3     42.89023  0
 C                    13    1.39683  7     120.73791  3    -137.12494  0
 C                    15    1.38888  10    120.74219  4     179.94601  0
 H                    15    1.08476  10    119.47086  4    -1.40607  0
 C                    16    1.38886  10    120.76339  4    -179.95593  0
 H                    16    1.08483  10    119.44215  4    -1.2344   0
 C                    17    1.39008  11    120.20743  6     0.0035   0
 H                    17    1.08435  11    119.71319  6     179.50116  0
 H                    19    1.08436  12    119.73823  6     179.53684  0
 C                    21    1.38882  13    120.76699  7     179.99298  0
 H                    21    1.08479  13    119.43526  7     1.32183  0
 C                    22    1.38882  13    120.76647  7    -179.97118  0
 H                    22    1.0848   13    119.43204  7     1.34658  0
 C                    23    1.39007  15    120.20733  10    0.00574  0
 H                    23    1.08435  15    119.71221  10    179.50724  0
 H                    25    1.08436  16    119.73539  10    179.53636  0
 H                    27    1.08413  17    120.21791  11    179.98397  0
 C                    30    1.39008  21    120.18795  13   -0.02169  0
 H                    30    1.08435  21    119.73787  13   -179.52151  0
 H                    32    1.08435  22    119.73704  13   -179.52887  0
 H                    34    1.08412  23    120.22153  15    179.988  0
 H                    38    1.08411  30    120.21547  21   -179.98601  0
 
 ITRead=  0  0  0  0  0  0  0  0  0  0  0  0  0  0  0  0  0  0  0  0
 ITRead=  0  0  0  0  0  0  0  0  0  0  0  0  0  0  0  0  0  0  0  0
 ITRead=  0  0
 MicOpt= -1 -1 -1 -1 -1 -1 -1 -1 -1 -1 -1 -1 -1 -1 -1 -1 -1 -1 -1 -1
 MicOpt= -1 -1 -1 -1 -1 -1 -1 -1 -1 -1 -1 -1 -1 -1 -1 -1 -1 -1 -1 -1
 MicOpt= -1 -1
 NAtoms=     42 NQM=       42 NQMF=       0 NMMI=      0 NMMIF=      0
                NMic=       0 NMicF=      0.
                    Isotopes and Nuclear Properties:
 (Nuclear quadrupole moments (NQMom) in fm**2, nuclear magnetic moments (NMagM)
  in nuclear magnetons)

  Atom         1           2           3           4           5           6           7           8           9          10
 IAtWgt=          12          12          12          12           1          12          12           1          12          12
 AtmWgt=  12.0000000  12.0000000  12.0000000  12.0000000   1.0078250  12.0000000  12.0000000   1.0078250  12.0000000  12.0000000
 NucSpn=           0           0           0           0           1           0           0           1           0           0
 AtZEff=  -0.0000000  -0.0000000  -0.0000000  -0.0000000  -0.0000000  -0.0000000  -0.0000000  -0.0000000  -0.0000000  -0.0000000
 NQMom=    0.0000000   0.0000000   0.0000000   0.0000000   0.0000000   0.0000000   0.0000000   0.0000000   0.0000000   0.0000000
 NMagM=    0.0000000   0.0000000   0.0000000   0.0000000   2.7928460   0.0000000   0.0000000   2.7928460   0.0000000   0.0000000
 AtZNuc=   6.0000000   6.0000000   6.0000000   6.0000000   1.0000000   6.0000000   6.0000000   1.0000000   6.0000000   6.0000000

  Atom        11          12          13          14          15          16          17          18          19          20
 IAtWgt=          12          12          12           1          12          12          12           1          12           1
 AtmWgt=  12.0000000  12.0000000  12.0000000   1.0078250  12.0000000  12.0000000  12.0000000   1.0078250  12.0000000   1.0078250
 NucSpn=           0           0           0           1           0           0           0           1           0           1
 AtZEff=  -0.0000000  -0.0000000  -0.0000000  -0.0000000  -0.0000000  -0.0000000  -0.0000000  -0.0000000  -0.0000000  -0.0000000
 NQMom=    0.0000000   0.0000000   0.0000000   0.0000000   0.0000000   0.0000000   0.0000000   0.0000000   0.0000000   0.0000000
 NMagM=    0.0000000   0.0000000   0.0000000   2.7928460   0.0000000   0.0000000   0.0000000   2.7928460   0.0000000   2.7928460
 AtZNuc=   6.0000000   6.0000000   6.0000000   1.0000000   6.0000000   6.0000000   6.0000000   1.0000000   6.0000000   1.0000000

  Atom        21          22          23          24          25          26          27          28          29          30
 IAtWgt=          12          12          12           1          12           1          12           1           1          12
 AtmWgt=  12.0000000  12.0000000  12.0000000   1.0078250  12.0000000   1.0078250  12.0000000   1.0078250   1.0078250  12.0000000
 NucSpn=           0           0           0           1           0           1           0           1           1           0
 AtZEff=  -0.0000000  -0.0000000  -0.0000000  -0.0000000  -0.0000000  -0.0000000  -0.0000000  -0.0000000  -0.0000000  -0.0000000
 NQMom=    0.0000000   0.0000000   0.0000000   0.0000000   0.0000000   0.0000000   0.0000000   0.0000000   0.0000000   0.0000000
 NMagM=    0.0000000   0.0000000   0.0000000   2.7928460   0.0000000   2.7928460   0.0000000   2.7928460   2.7928460   0.0000000
 AtZNuc=   6.0000000   6.0000000   6.0000000   1.0000000   6.0000000   1.0000000   6.0000000   1.0000000   1.0000000   6.0000000

  Atom        31          32          33          34          35          36          37          38          39          40
 IAtWgt=           1          12           1          12           1           1           1          12           1           1
 AtmWgt=   1.0078250  12.0000000   1.0078250  12.0000000   1.0078250   1.0078250   1.0078250  12.0000000   1.0078250   1.0078250
 NucSpn=           1           0           1           0           1           1           1           0           1           1
 AtZEff=  -0.0000000  -0.0000000  -0.0000000  -0.0000000  -0.0000000  -0.0000000  -0.0000000  -0.0000000  -0.0000000  -0.0000000
 NQMom=    0.0000000   0.0000000   0.0000000   0.0000000   0.0000000   0.0000000   0.0000000   0.0000000   0.0000000   0.0000000
 NMagM=    2.7928460   0.0000000   2.7928460   0.0000000   2.7928460   2.7928460   2.7928460   0.0000000   2.7928460   2.7928460
 AtZNuc=   1.0000000   6.0000000   1.0000000   6.0000000   1.0000000   1.0000000   1.0000000   6.0000000   1.0000000   1.0000000

  Atom        41          42
 IAtWgt=           1           1
 AtmWgt=   1.0078250   1.0078250
 NucSpn=           1           1
 AtZEff=  -0.0000000  -0.0000000
 NQMom=    0.0000000   0.0000000
 NMagM=    2.7928460   2.7928460
 AtZNuc=   1.0000000   1.0000000
 Leave Link  101 at Mon Nov 14 15:22:21 2022, MaxMem= 16106127360 cpu:               6.9 elap:               0.2
 (Enter /opt/ap/G16/B01/g16/l202.exe)
                          Input orientation:                          
 ---------------------------------------------------------------------
 Center     Atomic      Atomic             Coordinates (Angstroms)
 Number     Number       Type             X           Y           Z
 ---------------------------------------------------------------------
      1          6           0        0.000000    0.000000    0.000000
      2          6           0        0.000000    0.000000    1.394128
      3          6           0        1.221126    0.000000   -0.673109
      4          6           0        1.193108    0.000764    2.115362
      5          1           0       -0.944957   -0.000427    1.927071
      6          6           0       -1.278366   -0.017366   -0.754803
      7          6           0        2.428476    0.001115    0.024455
      8          1           0        1.232154   -0.045667   -1.756969
      9          6           0        2.400843    0.001752    1.418572
     10          6           0        1.177445    0.018728    3.599837
     11          6           0       -2.015927    1.154526   -0.938823
     12          6           0       -1.769882   -1.207293   -1.296770
     13          6           0        3.721572    0.001921   -0.704680
     14          1           0        3.334061    0.048144    1.969857
     15          6           0        0.290794    0.844275    4.295193
     16          6           0        2.049080   -0.790881    4.331965
     17          6           0       -3.211089    1.137399   -1.646148
     18          1           0       -1.660013    2.082780   -0.504792
     19          6           0       -2.964990   -1.225460   -2.004032
     20          1           0       -1.198919   -2.122289   -1.180007
     21          6           0        3.910862    0.818865   -1.821777
     22          6           0        4.776237   -0.814044   -0.288725
     23          6           0        0.275860    0.859807    5.683909
     24          1           0       -0.377402    1.495584    3.742000
     25          6           0        2.035025   -0.775886    5.720674
     26          1           0        2.729408   -1.453102    3.807101
     27          6           0       -3.689695   -0.052632   -2.181950
     28          1           0       -3.774313    2.055407   -1.772060
     29          1           0       -3.327299   -2.157183   -2.424101
     30          6           0        5.120444    0.820149   -2.504230
     31          1           0        3.109266    1.474569   -2.144691
     32          6           0        5.986440   -0.813321   -0.970068
     33          1           0        4.638168   -1.470412    0.563864
     34          6           0        1.147946    0.049642    6.401818
     35          1           0       -0.413890    1.513063    6.206701
     36          1           0        2.713797   -1.416787    6.272362
     37          1           0       -4.622713   -0.066243   -2.733874
     38          6           0        6.162883    0.003944   -2.080611
     39          1           0        5.251831    1.466740   -3.364741
     40          1           0        6.791448   -1.459089   -0.637249
     41          1           0        1.136620    0.061726    7.485815
     42          1           0        7.107346    0.004761   -2.612865
 ---------------------------------------------------------------------
                    Distance matrix (angstroms):
                    1          2          3          4          5
     1  C    0.000000
     2  C    1.394128   0.000000
     3  C    1.394354   2.400962   0.000000
     4  C    2.428634   1.394161   2.788612   0.000000
     5  H    2.146287   1.084884   3.384206   2.146341   0.000000
     6  C    1.484671   2.500485   2.500887   3.787659   2.702572
     7  C    2.428599   2.788100   1.394378   2.428585   3.872983
     8  H    2.146445   3.383741   1.084878   3.872806   4.279487
     9  C    2.788619   2.400968   2.401430   1.394324   3.384222
    10  C    3.787552   2.500376   4.273210   1.484666   2.702426
    11  C    2.505649   3.292347   3.447034   4.577894   3.270204
    12  C    2.504326   3.439618   3.285215   4.677750   3.539798
    13  C    3.787700   4.272598   2.500646   3.787581   5.357482
    14  H    3.872805   3.383747   3.384092   2.146415   4.279508
    15  C    4.387032   3.035381   5.124680   2.505463   2.801537
    16  C    4.856969   3.668120   5.134371   2.504540   3.920790
    17  C    3.783460   4.565966   4.678141   5.902359   4.381539
    18  H    2.710799   3.271011   3.559110   4.397760   3.281007
    19  C    3.782732   4.673373   4.560337   5.980201   4.586372
    20  H    2.708124   3.545094   3.258477   4.592233   3.771038
    21  C    4.391384   5.129076   3.037212   4.853507   6.189029
    22  C    4.853707   5.129045   3.667320   4.391169   6.189006
    23  C    5.755188   4.383786   6.484171   3.783362   4.042800
    24  H    4.047440   2.809218   4.928007   2.710524   2.419532
    25  C    6.121229   4.843792   6.491910   3.782894   4.886007
    26  H    4.904609   3.922195   4.945574   2.708491   4.375585
    27  C    4.286902   5.138575   5.137658   6.504729   4.941696
    28  H    4.648692   5.338061   5.512423   6.633919   5.090705
    29  H    4.647647   5.504838   5.329876   6.759995   5.409237
    30  C    5.758711   6.487587   4.385239   6.118495   7.556379
    31  H    4.054822   4.936104   2.811579   4.898143   5.932249
    32  C    6.118822   6.487555   4.843334   5.758354   7.556353
    33  H    4.898230   4.935996   3.920254   4.054620   5.932156
    34  C    6.504116   5.137821   7.075480   4.286973   4.940255
    35  H    6.401859   5.061770   7.231488   4.648499   4.570330
    36  H    6.979577   5.759266   7.243957   4.647859   5.854410
    37  H    5.371027   6.197924   6.196902   7.572539   5.937560
    38  C    6.504621   7.074953   5.138292   6.504219   8.159837
    39  H    6.407382   7.237395   5.063871   6.975231   8.279857
    40  H    6.975586   7.237348   5.758361   6.406985   8.279819
    41  H    7.571865   6.197125   8.159595   5.371096   5.936031
    42  H    7.572414   8.159067   6.197601   7.571945   9.243951
                    6          7          8          9         10
     6  C    0.000000
     7  C    3.787910   0.000000
     8  H    2.703303   2.146356   0.000000
     9  C    4.273231   1.394392   3.384102   0.000000
    10  C    4.999520   3.787973   5.357472   2.500981   0.000000
    11  C    1.396850   4.691585   3.558069   5.137514   5.664547
    12  C    1.396868   4.564218   3.251673   5.121505   5.845222
    13  C    5.000226   1.484499   2.703105   2.500505   5.000173
    14  H    5.357476   2.146366   4.279725   1.084879   2.703459
    15  C    5.357906   4.849723   6.189251   3.665665   1.396854
    16  C    6.127433   4.396117   6.188524   3.039714   1.396863
    17  C    2.421445   5.990554   4.599383   6.494304   6.930441
    18  H    2.149133   4.618352   3.803007   4.951824   5.399950
    19  C    2.421728   5.891410   4.366802   6.481700   7.078921
    20  H    2.148909   4.372364   3.248901   4.921631   5.751345
    21  C    5.363376   2.504946   2.815510   3.667109   6.124188
    22  C    6.124553   2.504906   3.912375   3.036921   5.363369
    23  C    6.681472   6.115597   7.556523   4.841994   2.421492
    24  H    4.829285   4.891475   5.933362   3.917716   2.149154
    25  C    7.313393   5.762417   7.555989   4.387097   2.421736
    26  H    6.239756   4.063707   5.931401   2.815959   2.148914
    27  C    2.802231   6.504085   4.940167   7.075406   7.557990
    28  H    3.400141   6.776590   5.429498   7.247772   7.584541
    29  H    3.400515   6.616844   5.068745   7.227638   7.830399
    30  C    6.686306   3.783088   4.053003   4.842972   7.310892
    31  H    4.838282   2.709194   2.446425   3.920191   6.233057
    32  C    7.311449   3.783053   4.879728   4.384797   6.686012
    33  H    6.233426   2.709077   4.360860   2.811302   4.838519
    34  C    7.557031   6.504835   8.159779   5.138559   2.802307
    35  H    7.179977   6.970308   8.280044   5.756123   3.400165
    36  H    8.202243   6.413127   8.279214   5.066504   3.400510
    37  H    3.886356   7.571801   5.935842   8.159520   8.588652
    38  C    7.558466   4.286853   4.941589   5.137824   7.557929
    39  H    7.187337   4.648230   4.585860   5.757987   8.197725
    40  H    8.198432   4.648180   5.844424   5.063385   7.187062
    41  H    8.587561   7.572613   9.243902   6.197846   3.886431
    42  H    8.589123   5.370968   5.937422   6.197069   8.588456
                   11         12         13         14         15
    11  C    0.000000
    12  C    2.401427   0.000000
    13  C    5.856809   5.654099   0.000000
    14  H    6.189254   6.188473   2.702860   0.000000
    15  C    5.728188   6.302806   6.121971   3.911840   0.000000
    16  C    6.934702   6.814728   5.365963   2.816859   2.401387
    17  C    1.388889   2.774296   7.087838   7.556517   6.902799
    18  H    1.084764   3.385835   5.773334   5.933330   5.327232
    19  C    2.774838   1.388824   6.921335   7.555918   7.386757
    20  H    3.385733   1.084828   5.380468   5.931301   6.402935
    21  C    6.001592   6.054073   1.396829   3.911930   7.107943
    22  C    7.101506   6.634944   1.396832   2.815037   6.624314
    23  C    7.014251   7.562264   7.309101   4.879095   1.388883
    24  H    4.971035   5.885044   6.229413   4.360107   1.084763
    25  C    8.030293   7.994244   6.688393   4.054029   2.774755
    26  H    7.200119   6.808343   4.843310   2.448430   3.385708
    27  C    2.409169   2.408832   7.557260   8.159706   7.655202
    28  H    2.144247   3.858608   7.845024   8.280099   7.402939
    29  H    3.859166   2.144462   7.569988   8.279134   8.200504
    30  C    7.313692   7.283204   2.421718   4.878996   8.340159
    31  H    5.274860   5.631823   2.148776   4.360587   7.057844
    32  C    8.240829   7.773189   2.421709   4.052208   7.931644
    33  H    7.309265   6.677896   2.148749   2.446125   6.179018
    34  C    8.069440   8.328377   7.558317   4.941800   2.409154
    35  H    7.331683   8.095747   8.194680   5.843284   2.144229
    36  H    8.999062   8.799944   7.190790   4.587189   3.859086
    37  H    3.392317   3.392036   8.587744   9.243831   8.624348
    38  C    8.337893   8.062895   2.802355   4.940696   8.708529
    39  H    7.668303   7.793036   3.400487   5.843645   9.147346
    40  H    9.191941   8.590386   3.400476   4.585006   8.478973
    41  H    9.061307   9.337663   8.588933   5.937569   3.392325
    42  H    9.346576   9.055736   3.886469   5.936405   9.741223
                   16         17         18         19         20
    16  C    0.000000
    17  C    8.193014   0.000000
    18  H    6.738658   2.145291   0.000000
    19  C    8.091639   2.402446   3.859422   0.000000
    20  H    6.534829   3.858974   4.283822   2.145303   0.000000
    21  C    6.627673   7.131234   5.862302   7.175641   5.930608
    22  C    5.365510   8.333553   7.061416   7.939656   6.181293
    23  C    2.774316   8.121921   6.598733   8.599761   7.627661
    24  H    3.385823   6.098378   4.474945   6.864152   6.163607
    25  C    1.388861   9.244049   7.783425   9.212674   7.738902
    26  H    1.084834   8.469836   7.096612   8.139242   6.383637
    27  C    8.712614   1.390079   3.390052   1.390101   3.389888
    28  H    8.903505   1.084351   2.465154   3.387168   4.943312
    29  H    8.741663   3.387180   4.943772   1.084359   2.465561
    30  C    7.665654   8.381610   7.180988   8.355175   7.095481
    31  H    6.942862   6.348946   5.079883   6.648798   5.694599
    32  C    6.604154   9.426395   8.189757   9.020367   7.306630
    33  H    4.622091   8.561289   7.309876   8.028829   6.126795
    34  C    2.408903   9.217058   7.727842   9.444599   8.228556
    35  H    3.858628   8.344619   6.849929   9.023511   8.270158
    36  H    2.144469  10.214251   8.792439  10.039119   8.446590
    37  H    9.744948   2.150485   4.285405   2.150465   4.285346
    38  C    7.660043   9.452239   8.246362   9.210612   7.715445
    39  H    8.636768   8.641935   7.505492   8.753034   7.698465
    40  H    6.901424  10.383177   9.164583   9.854479   8.036192
    41  H    3.392092  10.171154   8.703770  10.418121   9.236944
    42  H    8.628428  10.425330   9.253579  10.165434   8.693184
                   21         22         23         24         25
    21  C    0.000000
    22  C    2.401148   0.000000
    23  C    8.339678   7.663388   0.000000
    24  H    7.057108   6.938381   2.145221   0.000000
    25  C    7.934139   6.605193   2.402396   3.859344   0.000000
    26  H    6.184005   4.623169   3.858996   4.283837   2.145356
    27  C    7.658831   8.708390   8.856066   6.961425   9.785039
    28  H    7.784178   9.140348   8.568830   6.500559   9.894731
    29  H    7.849244   8.487117   9.371489   7.750187   9.848851
    30  C    1.388824   2.774442   9.514051   8.348527   8.928391
    31  H    1.084794   3.385432   8.348239   6.841814   8.251212
    32  C    2.774430   1.388819   8.926672   8.248218   7.770528
    33  H    3.385417   1.084800   7.118603   6.637291   5.818196
    34  C    8.709358   7.659884   1.390070   3.389995   1.390095
    35  H    9.145591   8.633852   1.084348   2.465033   3.387137
    36  H    8.482109   6.903971   3.387136   4.943698   1.084363
    37  H    8.627702   9.740545   9.783285   7.899298  10.784640
    38  C    2.408878   2.408889   9.781478   8.882743   8.860440
    39  H    2.144453   3.858761  10.344405   9.066139   9.895553
    40  H    3.858751   2.144441   9.369482   8.905073   7.969536
    41  H    9.741711   8.628862   2.150513   4.285366   2.150453
    42  H    3.392063   3.392069  10.781315   9.931179   9.787018
                   26         27         28         29         30
    26  H    0.000000
    27  C    8.890160   0.000000
    28  H    9.259323   2.149185   0.000000
    29  H    8.718218   2.149210   4.286129   0.000000
    30  C    7.121630   8.859128   9.009919   8.957415   0.000000
    31  H    6.643746   6.968472   6.918084   7.395746   2.145313
    32  C    5.817122   9.781354  10.205150   9.521865   2.402462
    33  H    3.763276   8.882731   9.415827   8.535119   3.859075
    34  C    3.389959   9.853645   9.750078  10.138775   9.782234
    35  H    4.943333   9.140665   8.674515   9.820866  10.343562
    36  H    2.465578  10.693036  10.902497  10.614683   9.371467
    37  H    9.937878   1.084125   2.479166   2.479130   9.786088
    38  C    6.969712   9.853262  10.151433   9.739200   1.390081
    39  H    8.143918   9.146495   9.184468   9.360507   1.084353
    40  H    6.021000  10.687310  11.192623  10.298991   3.387152
    41  H    4.285396  10.806113  10.667722  11.093086  10.781792
    42  H    7.906179  10.805789  11.105071  10.657929   2.150451
                   31         32         33         34         35
    31  H    0.000000
    32  C    3.859055   0.000000
    33  H    4.283308   2.145356   0.000000
    34  C    8.883693   8.860047   6.969499   0.000000
    35  H    9.064207   9.893547   8.140394   2.149187   0.000000
    36  H    8.908597   7.970392   6.024369   2.149200   4.286112
    37  H    7.905993  10.780689   9.930291  10.806239  10.007111
    38  C    3.389900   1.390094   3.389946   9.854100  10.686951
    39  H    2.465597   3.387150   4.943418  10.688111  11.122726
    40  H    4.943399   1.084354   2.465647   9.147341  10.372571
    41  H    9.931470   9.787155   7.907066   1.084123   2.479233
    42  H    4.285343   2.150458   4.285392  10.806525  11.688828
                   36         37         38         39         40
    36  H    0.000000
    37  H   11.694470   0.000000
    38  C    9.148051  10.805589   0.000000
    39  H   10.374492  10.012724   2.149134   0.000000
    40  H    8.023201  11.688410   2.149152   4.286037   0.000000
    41  H    2.479104  11.731510  10.806626  11.689465  10.013697
    42  H   10.013557  11.730897   1.084114   2.479039   2.479054
                   41         42
    41  H    0.000000
    42  H   11.731844   0.000000
 Stoichiometry    C24H18
 Framework group  C1[X(C24H18)]
 Deg. of freedom   120
 Full point group                 C1      NOp   1
 Largest Abelian subgroup         C1      NOp   1
 Largest concise Abelian subgroup C1      NOp   1
                         Standard orientation:                         
 ---------------------------------------------------------------------
 Center     Atomic      Atomic             Coordinates (Angstroms)
 Number     Number       Type             X           Y           Z
 ---------------------------------------------------------------------
      1          6           0       -1.401172   -0.026847    0.041536
      2          6           0       -0.714823    1.186612    0.035641
      3          6           0       -0.670270   -1.213755    0.006083
      4          6           0        0.678139    1.227149   -0.005592
      5          1           0       -1.274473    2.115584    0.063452
      6          6           0       -2.884341   -0.054836    0.102180
      7          6           0        0.723417   -1.200826   -0.035848
      8          1           0       -1.192936   -2.163119    0.055965
      9          6           0        1.385704    0.026232   -0.041513
     10          6           0        1.394814    2.527167   -0.029333
     11          6           0       -3.650987    0.161799   -1.045214
     12          6           0       -3.543778   -0.298643    1.309218
     13          6           0        1.489321   -2.471912   -0.074127
     14          1           0        2.467573    0.047297   -0.119482
     15          6           0        0.941577    3.578523   -0.829599
     16          6           0        2.537292    2.725882    0.749437
     17          6           0       -5.038407    0.134186   -0.987620
     18          1           0       -3.154963    0.375323   -1.986001
     19          6           0       -4.931090   -0.326241    1.367851
     20          1           0       -2.962718   -0.488799    2.205355
     21          6           0        1.080024   -3.527799   -0.891875
     22          6           0        2.635552   -2.638558    0.706592
     23          6           0        1.611814    4.794804   -0.850526
     24          1           0        0.068818    3.433562   -1.457285
     25          6           0        3.208307    3.941718    0.729018
     26          1           0        2.890183    1.926394    1.392207
     27          6           0       -5.683576   -0.110612    0.219091
     28          1           0       -5.617328    0.312604   -1.886971
     29          1           0       -5.425702   -0.524505    2.312246
     30          6           0        1.796245   -4.717142   -0.928210
     31          1           0        0.204458   -3.406613   -1.520743
     32          6           0        3.352876   -3.827247    0.670793
     33          1           0        2.954469   -1.836222    1.363357
     34          6           0        2.747701    4.980914   -0.071154
     35          1           0        1.249971    5.597019   -1.484032
     36          1           0        4.089219    4.080286    1.345976
     37          1           0       -6.766549   -0.131947    0.264292
     38          6           0        2.935620   -4.871103   -0.146900
     39          1           0        1.467902   -5.523200   -1.574959
     40          1           0        4.235995   -3.941374    1.289583
     41          1           0        3.271160    5.930149   -0.087461
     42          1           0        3.495167   -5.799228   -0.175087
 ---------------------------------------------------------------------
 Rotational constants (GHZ):           0.1977311           0.1942587           0.1046797
 Leave Link  202 at Mon Nov 14 15:22:21 2022, MaxMem= 16106127360 cpu:               2.2 elap:               0.1
 (Enter /opt/ap/G16/B01/g16/l301.exe)
 Standard basis: 6-311++G(d,p) (5D, 7F)
 Ernie: Thresh=  0.10000D-02 Tol=  0.10000D-05 Strict=F.
 There are   678 symmetry adapted cartesian basis functions of A   symmetry.
 There are   654 symmetry adapted basis functions of A   symmetry.
   654 basis functions,  1026 primitive gaussians,   678 cartesian basis functions
    81 alpha electrons       81 beta electrons
       nuclear repulsion energy      1730.6400668861 Hartrees.
 IExCor= 4639 DFT=T Ex+Corr=wB97XD ExCW=0 ScaHFX=  1.000000
 ScaDFX=  1.000000  1.000000  1.000000  1.000000 ScalE2=  1.000000  1.000000
 IRadAn=      5 IRanWt=     -1 IRanGd=            0 ICorTp=0 IEmpDi=121
 HFx  wShort=  0.000000 wLong=  0.200000 cFull=  0.222036 cShort=  0.000000 cLong=  0.777964
 DFx  wShort=  0.000000 wLong=  0.200000 cFull=  0.000000 cShort=  0.000000 cLong=  1.000000
 NAtoms=   42 NActive=   42 NUniq=   42 SFac= 1.00D+00 NAtFMM=   60 NAOKFM=F Big=F
 Integral buffers will be    131072 words long.
 Raffenetti 2 integral format.
 Two-electron integral symmetry is turned on.
 R6Disp:  Grimme-D2 Dispersion energy=       -0.0286980310 Hartrees.
 Nuclear repulsion after empirical dispersion term =     1730.6113688551 Hartrees.
 Leave Link  301 at Mon Nov 14 15:22:21 2022, MaxMem= 16106127360 cpu:               2.2 elap:               0.1
 (Enter /opt/ap/G16/B01/g16/l302.exe)
 NPDir=0 NMtPBC=     1 NCelOv=     1 NCel=       1 NClECP=     1 NCelD=      1
         NCelK=      1 NCelE2=     1 NClLst=     1 CellRange=     0.0.
 One-electron integrals computed using PRISM.
 One-electron integral symmetry used in STVInt
 NBasis=   654 RedAO= T EigKep=  1.07D-06  NBF=   654
 NBsUse=   646 1.00D-06 EigRej=  7.31D-07 NBFU=   646
 Precomputing XC quadrature grid using
 IXCGrd= 4 IRadAn=           5 IRanWt=          -1 IRanGd=           0 AccXCQ= 0.00D+00.
 Generated NRdTot=       0 NPtTot=           0 NUsed=           0 NTot=          32
 NSgBfM=   669   669   669   669   669 MxSgAt=    42 MxSgA2=    42.
 Leave Link  302 at Mon Nov 14 15:22:22 2022, MaxMem= 16106127360 cpu:              21.5 elap:               0.7
 (Enter /opt/ap/G16/B01/g16/l303.exe)
 DipDrv:  MaxL=1.
 Leave Link  303 at Mon Nov 14 15:22:22 2022, MaxMem= 16106127360 cpu:               4.9 elap:               0.2
 (Enter /opt/ap/G16/B01/g16/l401.exe)
 ExpMin= 3.60D-02 ExpMax= 4.56D+03 ExpMxC= 6.82D+02 IAcc=3 IRadAn=         5 AccDes= 0.00D+00
 Harris functional with IExCor= 4639 and IRadAn=       5 diagonalized for initial guess.
 HarFok:  IExCor= 4639 AccDes= 0.00D+00 IRadAn=         5 IDoV= 1 UseB2=F ITyADJ=14
 ICtDFT=  3500011 ScaDFX=  1.000000  1.000000  1.000000  1.000000
 FoFCou: FMM=F IPFlag=           0 FMFlag=      100000 FMFlg1=           0
         NFxFlg=           0 DoJE=T BraDBF=F KetDBF=T FulRan=T
         wScrn=  0.000000 ICntrl=       500 IOpCl=  0 I1Cent=   200000004 NGrid=           0
         NMat0=    1 NMatS0=      1 NMatT0=    0 NMatD0=    1 NMtDS0=    0 NMtDT0=    0
 Petite list used in FoFCou.
 Harris En= -882.967929259686    
 JPrj=0 DoOrth=F DoCkMO=F.
 Leave Link  401 at Mon Nov 14 15:22:24 2022, MaxMem= 16106127360 cpu:              56.3 elap:               1.8
 (Enter /opt/ap/G16/B01/g16/l502.exe)
 Integral symmetry usage will be decided dynamically.
 Closed shell SCF:
 Using DIIS extrapolation, IDIIS=  1040.
 NGot= 16106127360 LenX= 16105179956 LenY= 16104719594
 Requested convergence on RMS density matrix=1.00D-08 within 512 cycles.
 Requested convergence on MAX density matrix=1.00D-06.
 Requested convergence on             energy=1.00D-06.
 No special actions if energy rises.
 Fock matrices will be formed incrementally for  20 cycles.

 Cycle   1  Pass 1  IDiag  1:
 FoFJK:  IHMeth= 1 ICntrl=       0 DoSepK=T KAlg= 0 I1Cent=           0 FoldK=F
 IRaf=         1 NMat=       1 IRICut=       1 DoRegI=T DoRafI=F ISym2E= 0 IDoP0=0 IntGTp=1.
 FoFCou: FMM=F IPFlag=           0 FMFlag=      100000 FMFlg1=           0
         NFxFlg=           0 DoJE=T BraDBF=F KetDBF=F FulRan=T
         wScrn=  0.000000 ICntrl=       500 IOpCl=  0 I1Cent=           0 NGrid=           0
         NMat0=    1 NMatS0=      1 NMatT0=    0 NMatD0=    1 NMtDS0=    0 NMtDT0=    0
 Symmetry not used in FoFCou.
 E= -925.114394117204    
 DIIS: error= 4.68D-02 at cycle   1 NSaved=   1.
 NSaved= 1 IEnMin= 1 EnMin= -925.114394117204     IErMin= 1 ErrMin= 4.68D-02
 ErrMax= 4.68D-02  0.00D+00 EMaxC= 1.00D-01 BMatC= 1.90D+00 BMatP= 1.90D+00
 IDIUse=3 WtCom= 5.32D-01 WtEn= 4.68D-01
 Coeff-Com:  0.100D+01
 Coeff-En:   0.100D+01
 Coeff:      0.100D+01
 Gap=     0.317 Goal=   None    Shift=    0.000
 GapD=    0.317 DampG=1.000 DampE=0.500 DampFc=0.5000 IDamp=-1.
 Damping current iteration by 5.00D-01
 RMSDP=4.32D-02 MaxDP=4.30D+00              OVMax= 4.33D-02

 Cycle   2  Pass 1  IDiag  1:
 RMSU=  7.02D-03    CP:  8.21D-01
 E= -925.212787823070     Delta-E=       -0.098393705866 Rises=F Damp=T
 DIIS: error= 2.27D-02 at cycle   2 NSaved=   2.
 NSaved= 2 IEnMin= 2 EnMin= -925.212787823070     IErMin= 2 ErrMin= 2.27D-02
 ErrMax= 2.27D-02  0.00D+00 EMaxC= 1.00D-01 BMatC= 4.32D-01 BMatP= 1.90D+00
 IDIUse=3 WtCom= 7.73D-01 WtEn= 2.27D-01
 Coeff-Com: -0.883D+00 0.188D+01
 Coeff-En:   0.000D+00 0.100D+01
 Coeff:     -0.682D+00 0.168D+01
 Gap=     0.326 Goal=   None    Shift=    0.000
 RMSDP=2.51D-02 MaxDP=2.18D+00 DE=-9.84D-02 OVMax= 3.45D-02

 Cycle   3  Pass 1  IDiag  1:
 RMSU=  4.12D-03    CP:  6.06D-01  1.42D+00
 E= -925.300886833482     Delta-E=       -0.088099010412 Rises=F Damp=F
 DIIS: error= 3.24D-03 at cycle   3 NSaved=   3.
 NSaved= 3 IEnMin= 3 EnMin= -925.300886833482     IErMin= 3 ErrMin= 3.24D-03
 ErrMax= 3.24D-03  0.00D+00 EMaxC= 1.00D-01 BMatC= 8.80D-03 BMatP= 4.32D-01
 IDIUse=3 WtCom= 9.68D-01 WtEn= 3.24D-02
 Coeff-Com: -0.371D+00 0.786D+00 0.584D+00
 Coeff-En:   0.000D+00 0.000D+00 0.100D+01
 Coeff:     -0.359D+00 0.761D+00 0.598D+00
 Gap=     0.324 Goal=   None    Shift=    0.000
 RMSDP=2.15D-03 MaxDP=1.83D-01 DE=-8.81D-02 OVMax= 2.01D-02

 Cycle   4  Pass 1  IDiag  1:
 RMSU=  1.45D-03    CP:  6.01D-01  1.55D+00  7.11D-01
 E= -925.308945949706     Delta-E=       -0.008059116224 Rises=F Damp=F
 DIIS: error= 8.82D-04 at cycle   4 NSaved=   4.
 NSaved= 4 IEnMin= 4 EnMin= -925.308945949706     IErMin= 4 ErrMin= 8.82D-04
 ErrMax= 8.82D-04  0.00D+00 EMaxC= 1.00D-01 BMatC= 2.78D-04 BMatP= 8.80D-03
 IDIUse=3 WtCom= 9.91D-01 WtEn= 8.82D-03
 Coeff-Com: -0.113D+00 0.241D+00 0.236D+00 0.636D+00
 Coeff-En:   0.000D+00 0.000D+00 0.000D+00 0.100D+01
 Coeff:     -0.112D+00 0.239D+00 0.234D+00 0.639D+00
 Gap=     0.322 Goal=   None    Shift=    0.000
 RMSDP=6.49D-04 MaxDP=5.57D-02 DE=-8.06D-03 OVMax= 4.41D-03

 Cycle   5  Pass 1  IDiag  1:
 RMSU=  2.98D-04    CP:  5.98D-01  1.60D+00  7.57D-01  8.19D-01
 E= -925.309234822943     Delta-E=       -0.000288873237 Rises=F Damp=F
 DIIS: error= 2.33D-04 at cycle   5 NSaved=   5.
 NSaved= 5 IEnMin= 5 EnMin= -925.309234822943     IErMin= 5 ErrMin= 2.33D-04
 ErrMax= 2.33D-04  0.00D+00 EMaxC= 1.00D-01 BMatC= 2.02D-05 BMatP= 2.78D-04
 IDIUse=3 WtCom= 9.98D-01 WtEn= 2.33D-03
 Coeff-Com:  0.257D-01-0.548D-01-0.242D-01 0.196D+00 0.857D+00
 Coeff-En:   0.000D+00 0.000D+00 0.000D+00 0.000D+00 0.100D+01
 Coeff:      0.257D-01-0.546D-01-0.241D-01 0.196D+00 0.857D+00
 Gap=     0.322 Goal=   None    Shift=    0.000
 RMSDP=1.89D-04 MaxDP=1.13D-02 DE=-2.89D-04 OVMax= 1.42D-03

 Cycle   6  Pass 1  IDiag  1:
 RMSU=  8.96D-05    CP:  5.98D-01  1.60D+00  7.82D-01  8.79D-01  1.28D+00
 E= -925.309260265698     Delta-E=       -0.000025442755 Rises=F Damp=F
 DIIS: error= 6.43D-05 at cycle   6 NSaved=   6.
 NSaved= 6 IEnMin= 6 EnMin= -925.309260265698     IErMin= 6 ErrMin= 6.43D-05
 ErrMax= 6.43D-05  0.00D+00 EMaxC= 1.00D-01 BMatC= 1.52D-06 BMatP= 2.02D-05
 IDIUse=1 WtCom= 1.00D+00 WtEn= 0.00D+00
 Coeff-Com:  0.135D-01-0.288D-01-0.164D-01 0.547D-01 0.338D+00 0.639D+00
 Coeff:      0.135D-01-0.288D-01-0.164D-01 0.547D-01 0.338D+00 0.639D+00
 Gap=     0.322 Goal=   None    Shift=    0.000
 RMSDP=8.32D-05 MaxDP=7.89D-03 DE=-2.54D-05 OVMax= 4.34D-04

 Cycle   7  Pass 1  IDiag  1:
 RMSU=  4.81D-05    CP:  5.98D-01  1.60D+00  7.88D-01  9.11D-01  1.31D+00
                    CP:  7.65D-01
 E= -925.309262070966     Delta-E=       -0.000001805269 Rises=F Damp=F
 DIIS: error= 1.26D-05 at cycle   7 NSaved=   7.
 NSaved= 7 IEnMin= 7 EnMin= -925.309262070966     IErMin= 7 ErrMin= 1.26D-05
 ErrMax= 1.26D-05  0.00D+00 EMaxC= 1.00D-01 BMatC= 1.09D-07 BMatP= 1.52D-06
 IDIUse=1 WtCom= 1.00D+00 WtEn= 0.00D+00
 Coeff-Com: -0.188D-02 0.404D-02 0.163D-02-0.258D-01-0.877D-01 0.108D+00
 Coeff-Com:  0.100D+01
 Coeff:     -0.188D-02 0.404D-02 0.163D-02-0.258D-01-0.877D-01 0.108D+00
 Coeff:      0.100D+01
 Gap=     0.322 Goal=   None    Shift=    0.000
 RMSDP=3.03D-05 MaxDP=1.91D-03 DE=-1.81D-06 OVMax= 2.56D-04

 Cycle   8  Pass 1  IDiag  1:
 RMSU=  9.44D-06    CP:  5.98D-01  1.60D+00  7.92D-01  9.11D-01  1.36D+00
                    CP:  8.67D-01  1.22D+00
 E= -925.309262296483     Delta-E=       -0.000000225516 Rises=F Damp=F
 DIIS: error= 9.15D-06 at cycle   8 NSaved=   8.
 NSaved= 8 IEnMin= 8 EnMin= -925.309262296483     IErMin= 8 ErrMin= 9.15D-06
 ErrMax= 9.15D-06  0.00D+00 EMaxC= 1.00D-01 BMatC= 2.17D-08 BMatP= 1.09D-07
 IDIUse=1 WtCom= 1.00D+00 WtEn= 0.00D+00
 Coeff-Com: -0.164D-02 0.352D-02 0.172D-02-0.166D-01-0.618D-01 0.294D-01
 Coeff-Com:  0.499D+00 0.547D+00
 Coeff:     -0.164D-02 0.352D-02 0.172D-02-0.166D-01-0.618D-01 0.294D-01
 Coeff:      0.499D+00 0.547D+00
 Gap=     0.322 Goal=   None    Shift=    0.000
 RMSDP=4.47D-06 MaxDP=2.77D-04 DE=-2.26D-07 OVMax= 7.23D-05

 Cycle   9  Pass 1  IDiag  1:
 RMSU=  2.80D-06    CP:  5.98D-01  1.60D+00  7.92D-01  9.11D-01  1.37D+00
                    CP:  8.71D-01  1.25D+00  9.55D-01
 E= -925.309262323429     Delta-E=       -0.000000026947 Rises=F Damp=F
 DIIS: error= 2.20D-06 at cycle   9 NSaved=   9.
 NSaved= 9 IEnMin= 9 EnMin= -925.309262323429     IErMin= 9 ErrMin= 2.20D-06
 ErrMax= 2.20D-06  0.00D+00 EMaxC= 1.00D-01 BMatC= 1.91D-09 BMatP= 2.17D-08
 IDIUse=1 WtCom= 1.00D+00 WtEn= 0.00D+00
 Coeff-Com:  0.120D-03-0.262D-03 0.727D-04 0.298D-02 0.108D-01-0.168D-01
 Coeff-Com: -0.184D+00 0.866D-01 0.110D+01
 Coeff:      0.120D-03-0.262D-03 0.727D-04 0.298D-02 0.108D-01-0.168D-01
 Coeff:     -0.184D+00 0.866D-01 0.110D+01
 Gap=     0.322 Goal=   None    Shift=    0.000
 RMSDP=3.19D-06 MaxDP=2.10D-04 DE=-2.69D-08 OVMax= 4.79D-05

 Cycle  10  Pass 1  IDiag  1:
 RMSU=  7.83D-07    CP:  5.98D-01  1.60D+00  7.92D-01  9.11D-01  1.37D+00
                    CP:  8.75D-01  1.29D+00  1.18D+00  1.21D+00
 E= -925.309262329112     Delta-E=       -0.000000005683 Rises=F Damp=F
 DIIS: error= 8.25D-07 at cycle  10 NSaved=  10.
 NSaved=10 IEnMin=10 EnMin= -925.309262329112     IErMin=10 ErrMin= 8.25D-07
 ErrMax= 8.25D-07  0.00D+00 EMaxC= 1.00D-01 BMatC= 1.95D-10 BMatP= 1.91D-09
 IDIUse=1 WtCom= 1.00D+00 WtEn= 0.00D+00
 Coeff-Com:  0.140D-03-0.302D-03-0.670D-04 0.195D-02 0.706D-02-0.532D-02
 Coeff-Com: -0.864D-01-0.206D-01 0.352D+00 0.752D+00
 Coeff:      0.140D-03-0.302D-03-0.670D-04 0.195D-02 0.706D-02-0.532D-02
 Coeff:     -0.864D-01-0.206D-01 0.352D+00 0.752D+00
 Gap=     0.322 Goal=   None    Shift=    0.000
 RMSDP=5.70D-07 MaxDP=4.60D-05 DE=-5.68D-09 OVMax= 1.02D-05

 Cycle  11  Pass 1  IDiag  1:
 RMSU=  1.69D-07    CP:  5.98D-01  1.60D+00  7.92D-01  9.11D-01  1.37D+00
                    CP:  8.74D-01  1.29D+00  1.19D+00  1.29D+00  1.17D+00
 E= -925.309262329424     Delta-E=       -0.000000000312 Rises=F Damp=F
 DIIS: error= 2.21D-07 at cycle  11 NSaved=  11.
 NSaved=11 IEnMin=11 EnMin= -925.309262329424     IErMin=11 ErrMin= 2.21D-07
 ErrMax= 2.21D-07  0.00D+00 EMaxC= 1.00D-01 BMatC= 3.38D-11 BMatP= 1.95D-10
 IDIUse=1 WtCom= 1.00D+00 WtEn= 0.00D+00
 Coeff-Com:  0.218D-04-0.459D-04-0.206D-04 0.110D-03 0.209D-03 0.131D-02
 Coeff-Com:  0.277D-02-0.260D-01-0.705D-01 0.240D+00 0.852D+00
 Coeff:      0.218D-04-0.459D-04-0.206D-04 0.110D-03 0.209D-03 0.131D-02
 Coeff:      0.277D-02-0.260D-01-0.705D-01 0.240D+00 0.852D+00
 Gap=     0.322 Goal=   None    Shift=    0.000
 RMSDP=3.86D-07 MaxDP=3.54D-05 DE=-3.12D-10 OVMax= 3.43D-06

 Cycle  12  Pass 1  IDiag  1:
 RMSU=  7.07D-08    CP:  5.98D-01  1.60D+00  7.92D-01  9.11D-01  1.37D+00
                    CP:  8.74D-01  1.28D+00  1.20D+00  1.32D+00  1.33D+00
                    CP:  1.27D+00
 E= -925.309262329529     Delta-E=       -0.000000000105 Rises=F Damp=F
 DIIS: error= 7.60D-08 at cycle  12 NSaved=  12.
 NSaved=12 IEnMin=12 EnMin= -925.309262329529     IErMin=12 ErrMin= 7.60D-08
 ErrMax= 7.60D-08  0.00D+00 EMaxC= 1.00D-01 BMatC= 1.41D-12 BMatP= 3.38D-11
 IDIUse=1 WtCom= 1.00D+00 WtEn= 0.00D+00
 Coeff-Com: -0.146D-04 0.317D-04 0.105D-04-0.227D-03-0.835D-03 0.821D-03
 Coeff-Com:  0.101D-01 0.339D-03-0.389D-01-0.606D-01-0.492D-01 0.114D+01
 Coeff:     -0.146D-04 0.317D-04 0.105D-04-0.227D-03-0.835D-03 0.821D-03
 Coeff:      0.101D-01 0.339D-03-0.389D-01-0.606D-01-0.492D-01 0.114D+01
 Gap=     0.322 Goal=   None    Shift=    0.000
 RMSDP=1.65D-07 MaxDP=1.57D-05 DE=-1.05D-10 OVMax= 1.22D-06

 Cycle  13  Pass 1  IDiag  1:
 RMSU=  3.64D-08    CP:  5.98D-01  1.60D+00  7.92D-01  9.11D-01  1.37D+00
                    CP:  8.74D-01  1.28D+00  1.20D+00  1.32D+00  1.40D+00
                    CP:  1.40D+00  1.56D+00
 E= -925.309262329452     Delta-E=        0.000000000078 Rises=F Damp=F
 DIIS: error= 3.55D-08 at cycle  13 NSaved=  13.
 NSaved=13 IEnMin=12 EnMin= -925.309262329529     IErMin=13 ErrMin= 3.55D-08
 ErrMax= 3.55D-08  0.00D+00 EMaxC= 1.00D-01 BMatC= 1.97D-13 BMatP= 1.41D-12
 IDIUse=1 WtCom= 1.00D+00 WtEn= 0.00D+00
 Coeff-Com: -0.551D-05 0.118D-04 0.479D-05-0.728D-04-0.254D-03 0.189D-03
 Coeff-Com:  0.276D-02 0.146D-02-0.651D-02-0.278D-01-0.690D-01 0.346D+00
 Coeff-Com:  0.753D+00
 Coeff:     -0.551D-05 0.118D-04 0.479D-05-0.728D-04-0.254D-03 0.189D-03
 Coeff:      0.276D-02 0.146D-02-0.651D-02-0.278D-01-0.690D-01 0.346D+00
 Coeff:      0.753D+00
 Gap=     0.322 Goal=   None    Shift=    0.000
 RMSDP=2.00D-08 MaxDP=1.62D-06 DE= 7.78D-11 OVMax= 3.07D-07

 Cycle  14  Pass 1  IDiag  1:
 RMSU=  7.58D-09    CP:  5.98D-01  1.60D+00  7.92D-01  9.11D-01  1.37D+00
                    CP:  8.74D-01  1.28D+00  1.20D+00  1.32D+00  1.41D+00
                    CP:  1.40D+00  1.67D+00  1.14D+00
 E= -925.309262329503     Delta-E=       -0.000000000052 Rises=F Damp=F
 DIIS: error= 9.03D-09 at cycle  14 NSaved=  14.
 NSaved=14 IEnMin=12 EnMin= -925.309262329529     IErMin=14 ErrMin= 9.03D-09
 ErrMax= 9.03D-09  0.00D+00 EMaxC= 1.00D-01 BMatC= 4.95D-14 BMatP= 1.97D-13
 IDIUse=1 WtCom= 1.00D+00 WtEn= 0.00D+00
 Coeff-Com:  0.602D-06-0.134D-05-0.193D-06 0.139D-04 0.581D-04-0.786D-04
 Coeff-Com: -0.815D-03 0.432D-03 0.451D-02 0.496D-03-0.215D-01-0.871D-01
 Coeff-Com:  0.316D+00 0.788D+00
 Coeff:      0.602D-06-0.134D-05-0.193D-06 0.139D-04 0.581D-04-0.786D-04
 Coeff:     -0.815D-03 0.432D-03 0.451D-02 0.496D-03-0.215D-01-0.871D-01
 Coeff:      0.316D+00 0.788D+00
 Gap=     0.322 Goal=   None    Shift=    0.000
 RMSDP=1.54D-08 MaxDP=1.69D-06 DE=-5.18D-11 OVMax= 1.10D-07

 Cycle  15  Pass 1  IDiag  1:
 RMSU=  2.85D-09    CP:  5.98D-01  1.60D+00  7.92D-01  9.11D-01  1.37D+00
                    CP:  8.74D-01  1.28D+00  1.20D+00  1.33D+00  1.41D+00
                    CP:  1.40D+00  1.75D+00  1.31D+00  8.84D-01
 E= -925.309262329464     Delta-E=        0.000000000040 Rises=F Damp=F
 DIIS: error= 2.23D-09 at cycle  15 NSaved=  15.
 NSaved=15 IEnMin=12 EnMin= -925.309262329529     IErMin=15 ErrMin= 2.23D-09
 ErrMax= 2.23D-09  0.00D+00 EMaxC= 1.00D-01 BMatC= 2.22D-15 BMatP= 4.95D-14
 IDIUse=1 WtCom= 1.00D+00 WtEn= 0.00D+00
 Coeff-Com:  0.556D-06-0.121D-05-0.460D-06 0.897D-05 0.343D-04-0.376D-04
 Coeff-Com: -0.423D-03 0.208D-04 0.172D-02 0.206D-02-0.128D-02-0.504D-01
 Coeff-Com:  0.398D-01 0.187D+00 0.821D+00
 Coeff:      0.556D-06-0.121D-05-0.460D-06 0.897D-05 0.343D-04-0.376D-04
 Coeff:     -0.423D-03 0.208D-04 0.172D-02 0.206D-02-0.128D-02-0.504D-01
 Coeff:      0.398D-01 0.187D+00 0.821D+00
 Gap=     0.322 Goal=   None    Shift=    0.000
 RMSDP=3.96D-09 MaxDP=4.28D-07 DE= 3.96D-11 OVMax= 2.62D-08

 SCF Done:  E(RwB97XD) =  -925.309262329     A.U. after   15 cycles
            NFock= 15  Conv=0.40D-08     -V/T= 2.0044
 KE= 9.212948066929D+02 PE=-5.607729558808D+03 EE= 2.030514120931D+03
 Leave Link  502 at Mon Nov 14 15:24:57 2022, MaxMem= 16106127360 cpu:            4881.5 elap:             153.1
 (Enter /opt/ap/G16/B01/g16/l601.exe)
 Copying SCF densities to generalized density rwf, IOpCl= 0 IROHF=0.

 **********************************************************************

            Population analysis using the SCF Density.

 **********************************************************************

 Orbital symmetries:
       Occupied  (A) (A) (A) (A) (A) (A) (A) (A) (A) (A) (A) (A)
                 (A) (A) (A) (A) (A) (A) (A) (A) (A) (A) (A) (A)
                 (A) (A) (A) (A) (A) (A) (A) (A) (A) (A) (A) (A)
                 (A) (A) (A) (A) (A) (A) (A) (A) (A) (A) (A) (A)
                 (A) (A) (A) (A) (A) (A) (A) (A) (A) (A) (A) (A)
                 (A) (A) (A) (A) (A) (A) (A) (A) (A) (A) (A) (A)
                 (A) (A) (A) (A) (A) (A) (A) (A) (A)
       Virtual   (A) (A) (A) (A) (A) (A) (A) (A) (A) (A) (A) (A)
                 (A) (A) (A) (A) (A) (A) (A) (A) (A) (A) (A) (A)
                 (A) (A) (A) (A) (A) (A) (A) (A) (A) (A) (A) (A)
                 (A) (A) (A) (A) (A) (A) (A) (A) (A) (A) (A) (A)
                 (A) (A) (A) (A) (A) (A) (A) (A) (A) (A) (A) (A)
                 (A) (A) (A) (A) (A) (A) (A) (A) (A) (A) (A) (A)
                 (A) (A) (A) (A) (A) (A) (A) (A) (A) (A) (A) (A)
                 (A) (A) (A) (A) (A) (A) (A) (A) (A) (A) (A) (A)
                 (A) (A) (A) (A) (A) (A) (A) (A) (A) (A) (A) (A)
                 (A) (A) (A) (A) (A) (A) (A) (A) (A) (A) (A) (A)
                 (A) (A) (A) (A) (A) (A) (A) (A) (A) (A) (A) (A)
                 (A) (A) (A) (A) (A) (A) (A) (A) (A) (A) (A) (A)
                 (A) (A) (A) (A) (A) (A) (A) (A) (A) (A) (A) (A)
                 (A) (A) (A) (A) (A) (A) (A) (A) (A) (A) (A) (A)
                 (A) (A) (A) (A) (A) (A) (A) (A) (A) (A) (A) (A)
                 (A) (A) (A) (A) (A) (A) (A) (A) (A) (A) (A) (A)
                 (A) (A) (A) (A) (A) (A) (A) (A) (A) (A) (A) (A)
                 (A) (A) (A) (A) (A) (A) (A) (A) (A) (A) (A) (A)
                 (A) (A) (A) (A) (A) (A) (A) (A) (A) (A) (A) (A)
                 (A) (A) (A) (A) (A) (A) (A) (A) (A) (A) (A) (A)
                 (A) (A) (A) (A) (A) (A) (A) (A) (A) (A) (A) (A)
                 (A) (A) (A) (A) (A) (A) (A) (A) (A) (A) (A) (A)
                 (A) (A) (A) (A) (A) (A) (A) (A) (A) (A) (A) (A)
                 (A) (A) (A) (A) (A) (A) (A) (A) (A) (A) (A) (A)
                 (A) (A) (A) (A) (A) (A) (A) (A) (A) (A) (A) (A)
                 (A) (A) (A) (A) (A) (A) (A) (A) (A) (A) (A) (A)
                 (A) (A) (A) (A) (A) (A) (A) (A) (A) (A) (A) (A)
                 (A) (A) (A) (A) (A) (A) (A) (A) (A) (A) (A) (A)
                 (A) (A) (A) (A) (A) (A) (A) (A) (A) (A) (A) (A)
                 (A) (A) (A) (A) (A) (A) (A) (A) (A) (A) (A) (A)
                 (A) (A) (A) (A) (A) (A) (A) (A) (A) (A) (A) (A)
                 (A) (A) (A) (A) (A) (A) (A) (A) (A) (A) (A) (A)
                 (A) (A) (A) (A) (A) (A) (A) (A) (A) (A) (A) (A)
                 (A) (A) (A) (A) (A) (A) (A) (A) (A) (A) (A) (A)
                 (A) (A) (A) (A) (A) (A) (A) (A) (A) (A) (A) (A)
                 (A) (A) (A) (A) (A) (A) (A) (A) (A) (A) (A) (A)
                 (A) (A) (A) (A) (A) (A) (A) (A) (A) (A) (A) (A)
                 (A) (A) (A) (A) (A) (A) (A) (A) (A) (A) (A) (A)
                 (A) (A) (A) (A) (A) (A) (A) (A) (A) (A) (A) (A)
                 (A) (A) (A) (A) (A) (A) (A) (A) (A) (A) (A) (A)
                 (A) (A) (A) (A) (A) (A) (A) (A) (A) (A) (A) (A)
                 (A) (A) (A) (A) (A) (A) (A) (A) (A) (A) (A) (A)
                 (A) (A) (A) (A) (A) (A) (A) (A) (A) (A) (A) (A)
                 (A) (A) (A) (A) (A) (A) (A) (A) (A) (A) (A) (A)
                 (A) (A) (A) (A) (A) (A) (A) (A) (A) (A) (A) (A)
                 (A) (A) (A) (A) (A) (A) (A) (A) (A) (A) (A) (A)
                 (A) (A) (A) (A) (A) (A) (A) (A) (A) (A) (A) (A)
                 (A)
 The electronic state is 1-A.
 Alpha  occ. eigenvalues --  -10.30375 -10.30373 -10.30323 -10.30305 -10.30292
 Alpha  occ. eigenvalues --  -10.30223 -10.29232 -10.29225 -10.29216 -10.29201
 Alpha  occ. eigenvalues --  -10.29197 -10.29172 -10.29152 -10.29147 -10.29131
 Alpha  occ. eigenvalues --  -10.29130 -10.29107 -10.29093 -10.29084 -10.29075
 Alpha  occ. eigenvalues --  -10.29063 -10.29053 -10.29045 -10.29038  -0.98926
 Alpha  occ. eigenvalues --   -0.97030  -0.96991  -0.95241  -0.89384  -0.89357
 Alpha  occ. eigenvalues --   -0.85309  -0.85264  -0.85177  -0.85025  -0.82252
 Alpha  occ. eigenvalues --   -0.82208  -0.73502  -0.73212  -0.71113  -0.70555
 Alpha  occ. eigenvalues --   -0.70385  -0.70086  -0.66807  -0.66665  -0.63429
 Alpha  occ. eigenvalues --   -0.60679  -0.60636  -0.58728  -0.57095  -0.56463
 Alpha  occ. eigenvalues --   -0.54952  -0.54723  -0.54556  -0.54257  -0.53094
 Alpha  occ. eigenvalues --   -0.51916  -0.51396  -0.51265  -0.51082  -0.50839
 Alpha  occ. eigenvalues --   -0.50730  -0.47661  -0.46620  -0.46066  -0.46018
 Alpha  occ. eigenvalues --   -0.45458  -0.45110  -0.44273  -0.43143  -0.43029
 Alpha  occ. eigenvalues --   -0.42865  -0.41840  -0.41359  -0.36512  -0.35062
 Alpha  occ. eigenvalues --   -0.33607  -0.33597  -0.33590  -0.33063  -0.31297
 Alpha  occ. eigenvalues --   -0.30209
 Alpha virt. eigenvalues --    0.02026   0.03073   0.03673   0.04209   0.04342
 Alpha virt. eigenvalues --    0.04814   0.04930   0.05033   0.05170   0.05300
 Alpha virt. eigenvalues --    0.05390   0.05662   0.05673   0.06757   0.06817
 Alpha virt. eigenvalues --    0.06858   0.07124   0.07917   0.08007   0.08298
 Alpha virt. eigenvalues --    0.08618   0.08999   0.09108   0.09428   0.11112
 Alpha virt. eigenvalues --    0.11489   0.11922   0.12098   0.12738   0.13391
 Alpha virt. eigenvalues --    0.13573   0.14062   0.14179   0.14768   0.15034
 Alpha virt. eigenvalues --    0.15577   0.15725   0.15790   0.16080   0.16352
 Alpha virt. eigenvalues --    0.16429   0.16576   0.17031   0.17347   0.17450
 Alpha virt. eigenvalues --    0.17552   0.17639   0.17801   0.17963   0.18065
 Alpha virt. eigenvalues --    0.18126   0.18195   0.18462   0.18703   0.18865
 Alpha virt. eigenvalues --    0.18936   0.19213   0.19450   0.20144   0.20303
 Alpha virt. eigenvalues --    0.20390   0.20644   0.20803   0.21277   0.21392
 Alpha virt. eigenvalues --    0.21903   0.22221   0.22297   0.22585   0.22904
 Alpha virt. eigenvalues --    0.23006   0.23164   0.23319   0.23631   0.23815
 Alpha virt. eigenvalues --    0.24400   0.25050   0.25104   0.25173   0.25583
 Alpha virt. eigenvalues --    0.25699   0.26066   0.26322   0.26806   0.27117
 Alpha virt. eigenvalues --    0.27482   0.27648   0.27896   0.28160   0.28439
 Alpha virt. eigenvalues --    0.28698   0.28917   0.29197   0.29257   0.29543
 Alpha virt. eigenvalues --    0.29695   0.30107   0.30275   0.30499   0.30561
 Alpha virt. eigenvalues --    0.31489   0.31915   0.32180   0.32731   0.33368
 Alpha virt. eigenvalues --    0.33635   0.33769   0.34018   0.34088   0.34327
 Alpha virt. eigenvalues --    0.34785   0.35102   0.35191   0.35322   0.35823
 Alpha virt. eigenvalues --    0.35849   0.35977   0.36561   0.36729   0.36830
 Alpha virt. eigenvalues --    0.37009   0.37177   0.37371   0.37871   0.37967
 Alpha virt. eigenvalues --    0.38115   0.38315   0.38678   0.39229   0.39583
 Alpha virt. eigenvalues --    0.39727   0.40114   0.40374   0.40873   0.41684
 Alpha virt. eigenvalues --    0.41927   0.42249   0.42589   0.42718   0.43072
 Alpha virt. eigenvalues --    0.43176   0.43509   0.43915   0.44555   0.44625
 Alpha virt. eigenvalues --    0.44874   0.45414   0.47497   0.47751   0.48098
 Alpha virt. eigenvalues --    0.48633   0.48807   0.49125   0.52883   0.53089
 Alpha virt. eigenvalues --    0.57145   0.58273   0.58769   0.59739   0.60231
 Alpha virt. eigenvalues --    0.61671   0.62185   0.62302   0.62645   0.62753
 Alpha virt. eigenvalues --    0.63104   0.63214   0.63484   0.63938   0.64012
 Alpha virt. eigenvalues --    0.64322   0.64626   0.64740   0.64834   0.65726
 Alpha virt. eigenvalues --    0.66080   0.66190   0.66887   0.67038   0.67391
 Alpha virt. eigenvalues --    0.67927   0.68677   0.69225   0.69622   0.70098
 Alpha virt. eigenvalues --    0.70706   0.70959   0.71514   0.71985   0.72557
 Alpha virt. eigenvalues --    0.73304   0.73683   0.73760   0.74400   0.74694
 Alpha virt. eigenvalues --    0.74969   0.75509   0.75926   0.77418   0.78243
 Alpha virt. eigenvalues --    0.78820   0.79293   0.79923   0.80293   0.80725
 Alpha virt. eigenvalues --    0.81167   0.81302   0.81385   0.81704   0.81951
 Alpha virt. eigenvalues --    0.82544   0.82848   0.82897   0.83685   0.83797
 Alpha virt. eigenvalues --    0.84033   0.84446   0.84840   0.85148   0.85760
 Alpha virt. eigenvalues --    0.85986   0.86588   0.87123   0.87178   0.88028
 Alpha virt. eigenvalues --    0.88627   0.89909   0.90580   0.91461   0.91665
 Alpha virt. eigenvalues --    0.92071   0.92198   0.92683   0.93130   0.93501
 Alpha virt. eigenvalues --    0.93713   0.94158   0.94552   0.95170   0.95461
 Alpha virt. eigenvalues --    0.95984   0.96313   0.96654   0.96960   0.97962
 Alpha virt. eigenvalues --    0.99388   0.99985   1.00506   1.00629   1.01345
 Alpha virt. eigenvalues --    1.01668   1.01905   1.03273   1.03959   1.05079
 Alpha virt. eigenvalues --    1.05589   1.06161   1.06837   1.07500   1.07926
 Alpha virt. eigenvalues --    1.08161   1.08445   1.08790   1.09615   1.09975
 Alpha virt. eigenvalues --    1.11863   1.12239   1.12661   1.12980   1.13305
 Alpha virt. eigenvalues --    1.13826   1.14378   1.14658   1.16090   1.16434
 Alpha virt. eigenvalues --    1.17029   1.18017   1.18329   1.19141   1.19795
 Alpha virt. eigenvalues --    1.21343   1.22182   1.22352   1.23595   1.23976
 Alpha virt. eigenvalues --    1.24496   1.25075   1.26670   1.27908   1.30095
 Alpha virt. eigenvalues --    1.30865   1.38783   1.38993   1.40313   1.41439
 Alpha virt. eigenvalues --    1.41607   1.45788   1.46738   1.48222   1.51120
 Alpha virt. eigenvalues --    1.54247   1.56798   1.57326   1.58391   1.59305
 Alpha virt. eigenvalues --    1.59831   1.59878   1.60227   1.60983   1.61592
 Alpha virt. eigenvalues --    1.61754   1.62293   1.62918   1.63166   1.63858
 Alpha virt. eigenvalues --    1.64208   1.64863   1.65706   1.65742   1.65909
 Alpha virt. eigenvalues --    1.66309   1.66774   1.67061   1.68198   1.68750
 Alpha virt. eigenvalues --    1.69825   1.71065   1.72704   1.73059   1.73813
 Alpha virt. eigenvalues --    1.73911   1.74597   1.75122   1.75208   1.75759
 Alpha virt. eigenvalues --    1.76303   1.76990   1.79590   1.81646   1.82073
 Alpha virt. eigenvalues --    1.82887   1.82938   1.84092   1.84467   1.84844
 Alpha virt. eigenvalues --    1.84933   1.85979   1.86375   1.86495   1.87495
 Alpha virt. eigenvalues --    1.88311   1.88677   1.89608   1.92534   1.92647
 Alpha virt. eigenvalues --    1.93082   1.93442   1.94863   1.96908   1.97625
 Alpha virt. eigenvalues --    1.98999   1.99883   2.00029   2.02008   2.02359
 Alpha virt. eigenvalues --    2.02693   2.03008   2.03342   2.04142   2.04344
 Alpha virt. eigenvalues --    2.04676   2.05125   2.05405   2.05413   2.05924
 Alpha virt. eigenvalues --    2.06305   2.06580   2.07196   2.08062   2.09402
 Alpha virt. eigenvalues --    2.11077   2.11534   2.11666   2.12450   2.12836
 Alpha virt. eigenvalues --    2.13341   2.13966   2.15291   2.16102   2.16891
 Alpha virt. eigenvalues --    2.17534   2.18430   2.19041   2.19834   2.21101
 Alpha virt. eigenvalues --    2.21777   2.23063   2.28285   2.29423   2.33031
 Alpha virt. eigenvalues --    2.35104   2.35777   2.37303   2.37918   2.39545
 Alpha virt. eigenvalues --    2.41132   2.44447   2.44650   2.48555   2.49022
 Alpha virt. eigenvalues --    2.50382   2.52107   2.53175   2.53562   2.54266
 Alpha virt. eigenvalues --    2.54951   2.55267   2.56359   2.56499   2.56918
 Alpha virt. eigenvalues --    2.57492   2.58613   2.58720   2.61939   2.62799
 Alpha virt. eigenvalues --    2.69106   2.72957   2.73003   2.73257   2.74531
 Alpha virt. eigenvalues --    2.74715   2.75986   2.76346   2.76491   2.79508
 Alpha virt. eigenvalues --    2.79639   2.80102   2.80408   2.80580   2.81055
 Alpha virt. eigenvalues --    2.81686   2.81806   2.82468   2.82989   2.83178
 Alpha virt. eigenvalues --    2.83884   2.84125   2.84240   2.85603   2.85774
 Alpha virt. eigenvalues --    2.86896   2.87293   2.87776   2.88823   2.89676
 Alpha virt. eigenvalues --    2.91106   2.91278   2.92348   2.92492   2.92831
 Alpha virt. eigenvalues --    2.93508   2.93766   2.94546   2.95094   2.95362
 Alpha virt. eigenvalues --    2.98435   2.99172   2.99566   3.00425   3.01228
 Alpha virt. eigenvalues --    3.02076   3.03276   3.04653   3.05012   3.05316
 Alpha virt. eigenvalues --    3.05616   3.06897   3.07752   3.08040   3.08900
 Alpha virt. eigenvalues --    3.11633   3.12467   3.16281   3.19017   3.20033
 Alpha virt. eigenvalues --    3.21044   3.22270   3.24334   3.26946   3.30434
 Alpha virt. eigenvalues --    3.32441   3.32692   3.33917   3.34807   3.35769
 Alpha virt. eigenvalues --    3.40991   3.46229   3.47622   3.48939   3.49358
 Alpha virt. eigenvalues --    3.49548   3.50617   3.52827   3.53903   3.60395
 Alpha virt. eigenvalues --    3.61026   3.61183   3.63774   3.64932   3.65684
 Alpha virt. eigenvalues --    3.66792   3.73755   3.74096   3.76294   3.76471
 Alpha virt. eigenvalues --    3.77383   3.78159   3.90895   3.92743   3.96602
 Alpha virt. eigenvalues --    4.09734   4.09974   4.10264   4.14513   4.14587
 Alpha virt. eigenvalues --    4.14715   4.24251   4.24615   4.25464   4.26204
 Alpha virt. eigenvalues --    4.26492   4.26994   4.27624   4.27792   4.47083
 Alpha virt. eigenvalues --    4.62837   4.66950   4.94046   4.95604   4.95772
 Alpha virt. eigenvalues --    4.98459  23.68370  23.81542  23.82425  23.88181
 Alpha virt. eigenvalues --   24.08374  24.08477  24.10768  24.11022  24.11268
 Alpha virt. eigenvalues --   24.11430  24.12871  24.13539  24.20243  24.20439
 Alpha virt. eigenvalues --   24.21001  24.24093  24.24335  24.24365  24.24554
 Alpha virt. eigenvalues --   24.26393  24.31596  24.33838  24.34144  24.35424
          Condensed to atoms (all electrons):
               1          2          3          4          5          6
     1  C   26.367191   0.830317   0.952293  -8.182527   0.333123   0.032569
     2  C    0.830317  18.915809  -4.781328   4.242744   0.197512  -2.507343
     3  C    0.952293  -4.781328  19.080707  -4.620651   0.206682  -2.336347
     4  C   -8.182527   4.242744  -4.620651  23.477130  -0.360526  -0.419215
     5  H    0.333123   0.197512   0.206682  -0.360526   0.517855  -0.033649
     6  C    0.032569  -2.507343  -2.336347  -0.419215  -0.033649  12.234021
     7  C   -7.701115  -4.390888   4.131749  -9.350888   0.106238  -0.214809
     8  H    0.315865   0.224823   0.189213   0.107543  -0.004598  -0.053371
     9  C   -5.614333  -1.017326  -1.076451   1.733550   0.002833  -1.562924
    10  C    0.398804  -2.783628  -1.441706  -2.226161  -0.014622   1.169959
    11  C   -0.778664   0.148953  -0.007579   0.293997   0.030465  -0.218538
    12  C   -1.040051  -0.317397  -0.264464  -0.034922  -0.077167   0.369228
    13  C    0.211232  -1.394083  -2.709206   0.590430  -0.018411   1.093586
    14  H    0.091213   0.063666   0.061118  -0.049494  -0.002243  -0.010289
    15  C   -0.803414   0.935887  -0.522802  -0.375577  -0.242048   0.115699
    16  C    0.275274  -1.058737   0.157181  -0.159865   0.138175   0.039571
    17  C    0.007389   0.272177   0.007791   0.090523   0.005273  -1.150350
    18  H    0.013137   0.000459  -0.008758  -0.000545   0.005412   0.009262
    19  C   -0.402042   0.247527   0.526684   0.107784   0.004437  -1.292093
    20  H    0.052766  -0.062393   0.000486  -0.031330  -0.000942   0.063272
    21  C   -0.525443  -0.539875   1.205636   0.091696  -0.000261   0.270834
    22  C   -0.158968   0.123643  -1.758058   0.323543  -0.001095  -0.079943
    23  C    0.359224   0.635247   0.136968   0.152378   0.009194  -0.112252
    24  H   -0.094778  -0.040671  -0.047803   0.041795  -0.010831   0.029689
    25  C   -0.287932  -0.288802   0.025861  -0.335398   0.006779  -0.026524
    26  H    0.019147   0.001738  -0.015165   0.141595  -0.002025   0.009194
    27  C   -0.120523  -0.104868  -0.177617  -0.009762   0.002661  -0.232403
    28  H   -0.000337  -0.000533   0.002831  -0.000243  -0.000891   0.036595
    29  H   -0.000932   0.006353   0.001370   0.003447  -0.000079   0.026325
    30  C    0.531698   0.107152   0.839391  -0.178014  -0.001332  -0.048209
    31  H   -0.079194  -0.049242  -0.031148   0.016938  -0.000263   0.033748
    32  C   -0.252552   0.066523  -0.147063   0.325083   0.002936  -0.061745
    33  H    0.018652  -0.015347  -0.011231  -0.124007  -0.000148   0.009346
    34  C   -0.018340  -0.119872  -0.025870  -0.188928  -0.012936   0.032277
    35  H    0.007173   0.009761   0.001690   0.001505   0.000945  -0.002318
    36  H   -0.002699  -0.004194  -0.000107  -0.010485   0.000557  -0.000596
    37  H   -0.003639  -0.004883  -0.006426   0.000734   0.000077   0.016904
    38  C   -0.063583  -0.034202  -0.199293   0.010075  -0.000078   0.032930
    39  H    0.007425   0.001676   0.008976   0.001403  -0.000022  -0.001999
    40  H   -0.002300   0.000193  -0.002076   0.011300  -0.000006  -0.000595
    41  H    0.000975  -0.003805  -0.000771  -0.007145  -0.000411   0.000918
    42  H    0.000262  -0.000868  -0.005055   0.000931  -0.000010   0.000802
               7          8          9         10         11         12
     1  C   -7.701115   0.315865  -5.614333   0.398804  -0.778664  -1.040051
     2  C   -4.390888   0.224823  -1.017326  -2.783628   0.148953  -0.317397
     3  C    4.131749   0.189213  -1.076451  -1.441706  -0.007579  -0.264464
     4  C   -9.350888   0.107543   1.733550  -2.226161   0.293997  -0.034922
     5  H    0.106238  -0.004598   0.002833  -0.014622   0.030465  -0.077167
     6  C   -0.214809  -0.053371  -1.562924   1.169959  -0.218538   0.369228
     7  C   23.085856  -0.323288   1.451825   0.681757   0.122096  -0.014553
     8  H   -0.323288   0.506179   0.013813  -0.019531   0.023296  -0.084903
     9  C    1.451825   0.013813  15.859506  -1.908653   0.101746  -0.358029
    10  C    0.681757  -0.019531  -1.908653  15.591042  -0.000728   0.231515
    11  C    0.122096   0.023296   0.101746  -0.000728  13.121939  -5.773651
    12  C   -0.014553  -0.084903  -0.358029   0.231515  -5.773651  14.512621
    13  C   -1.812728  -0.044988  -2.050809   0.893710  -0.056658   0.255557
    14  H   -0.045367  -0.002446   0.258170   0.049042  -0.004079   0.003878
    15  C    0.126735  -0.005572  -0.561173  -0.557887   0.048463  -0.036233
    16  C    0.058401   0.003849   0.792456  -2.363014  -0.026753   0.049353
    17  C   -0.055665   0.009509   0.022984  -0.120315  -1.443394   0.778354
    18  H    0.012511   0.001864   0.005450   0.024559   0.386559  -0.002940
    19  C    0.267518   0.019488   0.073024   0.009406   1.099256  -2.301830
    20  H   -0.023525  -0.002933  -0.021385   0.010049  -0.016590   0.495967
    21  C   -0.682717  -0.213869  -0.742117  -0.060240   0.123841  -0.055027
    22  C   -0.280801   0.108684   1.454803   0.228824  -0.057137   0.052971
    23  C   -0.157671  -0.001451  -0.080064  -1.597778  -0.011742  -0.011250
    24  H    0.021335  -0.000455  -0.013294  -0.026457   0.002463   0.010443
    25  C    0.413126   0.004163   0.690830  -1.125953   0.014890  -0.013438
    26  H   -0.134059   0.000050  -0.077437  -0.041782  -0.000612   0.002013
    27  C   -0.035549  -0.003396  -0.033594   0.037111  -0.567146  -0.128816
    28  H   -0.000184  -0.000224  -0.000432  -0.002612  -0.091589   0.014830
    29  H    0.002952   0.000112   0.000675  -0.000463   0.009751  -0.085057
    30  C   -0.117291   0.045336  -0.208595  -0.008596   0.019340  -0.034541
    31  H    0.022967  -0.012045  -0.017750   0.011833  -0.003687   0.014117
    32  C    0.015982   0.004622   0.555531  -0.134814   0.002696  -0.006990
    33  H    0.130539  -0.002673  -0.062250   0.019417   0.001376   0.000010
    34  C   -0.017818  -0.000217  -0.098528  -0.231728  -0.003583   0.004995
    35  H    0.000855  -0.000006   0.002905   0.030548   0.000215  -0.000417
    36  H    0.012490  -0.000011   0.018482   0.023099   0.000177  -0.000226
    37  H    0.000267  -0.000173  -0.000827   0.001209   0.004836   0.009247
    38  C   -0.239824  -0.012882   0.007367   0.039936   0.000851   0.002430
    39  H    0.001530   0.001030   0.002295  -0.000866   0.000253  -0.000506
    40  H   -0.008327   0.000573   0.014774  -0.004422   0.000044  -0.000095
    41  H    0.000368  -0.000008  -0.006444   0.022753  -0.000130   0.000183
    42  H   -0.007326  -0.000496  -0.004158   0.001218  -0.000034   0.000137
              13         14         15         16         17         18
     1  C    0.211232   0.091213  -0.803414   0.275274   0.007389   0.013137
     2  C   -1.394083   0.063666   0.935887  -1.058737   0.272177   0.000459
     3  C   -2.709206   0.061118  -0.522802   0.157181   0.007791  -0.008758
     4  C    0.590430  -0.049494  -0.375577  -0.159865   0.090523  -0.000545
     5  H   -0.018411  -0.002243  -0.242048   0.138175   0.005273   0.005412
     6  C    1.093586  -0.010289   0.115699   0.039571  -1.150350   0.009262
     7  C   -1.812728  -0.045367   0.126735   0.058401  -0.055665   0.012511
     8  H   -0.044988  -0.002446  -0.005572   0.003849   0.009509   0.001864
     9  C   -2.050809   0.258170  -0.561173   0.792456   0.022984   0.005450
    10  C    0.893710   0.049042  -0.557887  -2.363014  -0.120315   0.024559
    11  C   -0.056658  -0.004079   0.048463  -0.026753  -1.443394   0.386559
    12  C    0.255557   0.003878  -0.036233   0.049353   0.778354  -0.002940
    13  C   15.611219   0.056566  -0.009225   0.166652  -0.077683   0.015304
    14  H    0.056566   0.501519   0.095929  -0.174594   0.003623  -0.000839
    15  C   -0.009225   0.095929  18.834907 -10.752579   0.040491  -0.020279
    16  C    0.166652  -0.174594 -10.752579  20.049237  -0.019699   0.010783
    17  C   -0.077683   0.003623   0.040491  -0.019699   7.932069  -0.141813
    18  H    0.015304  -0.000839  -0.020279   0.010783  -0.141813   0.473269
    19  C    0.032484  -0.003660  -0.018413   0.018321  -0.897605   0.029745
    20  H    0.016022   0.000694   0.004688  -0.004405   0.032511  -0.002717
    21  C   -0.667524   0.097561   0.068754  -0.053207   0.006467  -0.009490
    22  C   -2.067172  -0.180236  -0.058070   0.077953  -0.004211   0.005367
    23  C   -0.022963   0.002911  -1.311749   0.744480  -0.014821  -0.001101
    24  H    0.013295  -0.000752   0.588513  -0.102103  -0.001590  -0.001180
    25  C   -0.135933  -0.003830   1.112012  -1.555262   0.005422  -0.000669
    26  H    0.014967  -0.003160  -0.090686   0.531789  -0.000608   0.000130
    27  C    0.022560   0.000116  -0.016311   0.006222   0.646890  -0.006070
    28  H   -0.001054   0.000027   0.002023  -0.000553   0.420625  -0.011423
    29  H   -0.000290  -0.000059   0.000425  -0.000076  -0.002490   0.000434
    30  C   -1.587149   0.007480   0.001191   0.010300  -0.004832  -0.001654
    31  H   -0.001954  -0.000884   0.004941  -0.004763  -0.003970  -0.000271
    32  C   -1.375736  -0.008981  -0.006423  -0.008784   0.002702  -0.000187
    33  H   -0.035674  -0.001666   0.003355   0.005892  -0.000072   0.000109
    34  C    0.041964  -0.000685  -0.297967  -0.225818  -0.002471   0.000146
    35  H   -0.001016   0.000149  -0.119431   0.023799   0.000208   0.000039
    36  H   -0.004212  -0.000752   0.016924  -0.092086   0.000032  -0.000006
    37  H    0.000782  -0.000007  -0.000532   0.000186  -0.062384   0.000804
    38  C   -0.221675  -0.002572   0.005853  -0.017534  -0.001290   0.000079
    39  H    0.028352   0.000178  -0.000254   0.000515   0.000233  -0.000002
    40  H    0.022287  -0.000826  -0.000776   0.002640   0.000004  -0.000002
    41  H    0.001201   0.000117   0.000115   0.004985  -0.000063   0.000011
    42  H    0.024171   0.000162   0.000191  -0.000566  -0.000026   0.000003
              19         20         21         22         23         24
     1  C   -0.402042   0.052766  -0.525443  -0.158968   0.359224  -0.094778
     2  C    0.247527  -0.062393  -0.539875   0.123643   0.635247  -0.040671
     3  C    0.526684   0.000486   1.205636  -1.758058   0.136968  -0.047803
     4  C    0.107784  -0.031330   0.091696   0.323543   0.152378   0.041795
     5  H    0.004437  -0.000942  -0.000261  -0.001095   0.009194  -0.010831
     6  C   -1.292093   0.063272   0.270834  -0.079943  -0.112252   0.029689
     7  C    0.267518  -0.023525  -0.682717  -0.280801  -0.157671   0.021335
     8  H    0.019488  -0.002933  -0.213869   0.108684  -0.001451  -0.000455
     9  C    0.073024  -0.021385  -0.742117   1.454803  -0.080064  -0.013294
    10  C    0.009406   0.010049  -0.060240   0.228824  -1.597778  -0.026457
    11  C    1.099256  -0.016590   0.123841  -0.057137  -0.011742   0.002463
    12  C   -2.301830   0.495967  -0.055027   0.052971  -0.011250   0.010443
    13  C    0.032484   0.016022  -0.667524  -2.067172  -0.022963   0.013295
    14  H   -0.003660   0.000694   0.097561  -0.180236   0.002911  -0.000752
    15  C   -0.018413   0.004688   0.068754  -0.058070  -1.311749   0.588513
    16  C    0.018321  -0.004405  -0.053207   0.077953   0.744480  -0.102103
    17  C   -0.897605   0.032511   0.006467  -0.004211  -0.014821  -0.001590
    18  H    0.029745  -0.002717  -0.009490   0.005367  -0.001101  -0.001180
    19  C    8.317011  -0.200008  -0.064848   0.041606   0.009624  -0.001036
    20  H   -0.200008   0.474127   0.013529  -0.010671  -0.001362   0.000432
    21  C   -0.064848   0.013529  18.643515 -10.411168  -0.000361   0.003622
    22  C    0.041606  -0.010671 -10.411168  19.644093   0.011444  -0.003208
    23  C    0.009624  -0.001362  -0.000361   0.011444   7.826335  -0.086615
    24  H   -0.001036   0.000432   0.003622  -0.003208  -0.086615   0.488973
    25  C   -0.003436  -0.000415  -0.013042   0.009912  -0.762824   0.003989
    26  H    0.000720  -0.000039   0.001449   0.014199  -0.006875  -0.000101
    27  C    0.474266  -0.000013   0.004641  -0.002457  -0.003863   0.000742
    28  H   -0.010128   0.000742   0.000609  -0.000145   0.000136   0.000087
    29  H    0.420132  -0.011392  -0.000603   0.000543   0.000083   0.000011
    30  C    0.005273  -0.003202  -1.336508   0.654902  -0.000663   0.000164
    31  H   -0.001830   0.000820   0.573195  -0.072133   0.000392   0.000322
    32  C   -0.002876   0.000100   0.862094  -1.267823   0.005375  -0.001101
    33  H   -0.000069   0.000125  -0.079868   0.505892   0.000558   0.000156
    34  C    0.000381   0.000238   0.007144  -0.020326   0.361361   0.028133
    35  H    0.000010  -0.000017  -0.000259   0.000495   0.432593  -0.012170
    36  H   -0.000017  -0.000006  -0.000821   0.002633   0.011703  -0.000294
    37  H   -0.064029   0.000375  -0.000033   0.000007  -0.000109   0.000015
    38  C    0.000232   0.000417  -0.238844  -0.183044  -0.000002   0.000218
    39  H    0.000010  -0.000035  -0.114893   0.020170  -0.000006  -0.000012
    40  H   -0.000003  -0.000010   0.016372  -0.093259  -0.000011  -0.000012
    41  H    0.000014   0.000005   0.000188  -0.000556  -0.074404   0.001391
    42  H    0.000009   0.000017   0.002658   0.002388   0.000004   0.000006
              25         26         27         28         29         30
     1  C   -0.287932   0.019147  -0.120523  -0.000337  -0.000932   0.531698
     2  C   -0.288802   0.001738  -0.104868  -0.000533   0.006353   0.107152
     3  C    0.025861  -0.015165  -0.177617   0.002831   0.001370   0.839391
     4  C   -0.335398   0.141595  -0.009762  -0.000243   0.003447  -0.178014
     5  H    0.006779  -0.002025   0.002661  -0.000891  -0.000079  -0.001332
     6  C   -0.026524   0.009194  -0.232403   0.036595   0.026325  -0.048209
     7  C    0.413126  -0.134059  -0.035549  -0.000184   0.002952  -0.117291
     8  H    0.004163   0.000050  -0.003396  -0.000224   0.000112   0.045336
     9  C    0.690830  -0.077437  -0.033594  -0.000432   0.000675  -0.208595
    10  C   -1.125953  -0.041782   0.037111  -0.002612  -0.000463  -0.008596
    11  C    0.014890  -0.000612  -0.567146  -0.091589   0.009751   0.019340
    12  C   -0.013438   0.002013  -0.128816   0.014830  -0.085057  -0.034541
    13  C   -0.135933   0.014967   0.022560  -0.001054  -0.000290  -1.587149
    14  H   -0.003830  -0.003160   0.000116   0.000027  -0.000059   0.007480
    15  C    1.112012  -0.090686  -0.016311   0.002023   0.000425   0.001191
    16  C   -1.555262   0.531789   0.006222  -0.000553  -0.000076   0.010300
    17  C    0.005422  -0.000608   0.646890   0.420625  -0.002490  -0.004832
    18  H   -0.000669   0.000130  -0.006070  -0.011423   0.000434  -0.001654
    19  C   -0.003436   0.000720   0.474266  -0.010128   0.420132   0.005273
    20  H   -0.000415  -0.000039  -0.000013   0.000742  -0.011392  -0.003202
    21  C   -0.013042   0.001449   0.004641   0.000609  -0.000603  -1.336508
    22  C    0.009912   0.014199  -0.002457  -0.000145   0.000543   0.654902
    23  C   -0.762824  -0.006875  -0.003863   0.000136   0.000083  -0.000663
    24  H    0.003989  -0.000101   0.000742   0.000087   0.000011   0.000164
    25  C    7.912754  -0.067869  -0.000186   0.000015   0.000002   0.005733
    26  H   -0.067869   0.499184   0.000095  -0.000001   0.000007   0.000803
    27  C   -0.000186   0.000095   6.233477  -0.047960  -0.053240  -0.001048
    28  H    0.000015  -0.000001  -0.047960   0.477013  -0.000124   0.000073
    29  H    0.000002   0.000007  -0.053240  -0.000124   0.474969   0.000112
    30  C    0.005733   0.000803  -0.001048   0.000073   0.000112   7.890476
    31  H   -0.001546   0.000110   0.001384  -0.000009  -0.000026  -0.114176
    32  C   -0.015168  -0.004352  -0.000418  -0.000005  -0.000024  -0.684489
    33  H    0.000806  -0.005327   0.000035  -0.000001   0.000012  -0.005584
    34  C    0.446588   0.026044   0.000092   0.000015   0.000004   0.000135
    35  H    0.005836  -0.000453  -0.000008  -0.000005  -0.000001   0.000002
    36  H    0.419106  -0.012021  -0.000003  -0.000000  -0.000000  -0.000027
    37  H   -0.000003   0.000003   0.443765  -0.009106  -0.008523  -0.000038
    38  C   -0.004205  -0.000663   0.000233   0.000007   0.000003   0.329402
    39  H    0.000065   0.000039  -0.000039   0.000000   0.000002   0.434353
    40  H    0.000432   0.000498   0.000001  -0.000000  -0.000000   0.009300
    41  H   -0.070127   0.002013   0.000007  -0.000000  -0.000000   0.000006
    42  H   -0.000129  -0.000027   0.000006   0.000000  -0.000000  -0.072556
              31         32         33         34         35         36
     1  C   -0.079194  -0.252552   0.018652  -0.018340   0.007173  -0.002699
     2  C   -0.049242   0.066523  -0.015347  -0.119872   0.009761  -0.004194
     3  C   -0.031148  -0.147063  -0.011231  -0.025870   0.001690  -0.000107
     4  C    0.016938   0.325083  -0.124007  -0.188928   0.001505  -0.010485
     5  H   -0.000263   0.002936  -0.000148  -0.012936   0.000945   0.000557
     6  C    0.033748  -0.061745   0.009346   0.032277  -0.002318  -0.000596
     7  C    0.022967   0.015982   0.130539  -0.017818   0.000855   0.012490
     8  H   -0.012045   0.004622  -0.002673  -0.000217  -0.000006  -0.000011
     9  C   -0.017750   0.555531  -0.062250  -0.098528   0.002905   0.018482
    10  C    0.011833  -0.134814   0.019417  -0.231728   0.030548   0.023099
    11  C   -0.003687   0.002696   0.001376  -0.003583   0.000215   0.000177
    12  C    0.014117  -0.006990   0.000010   0.004995  -0.000417  -0.000226
    13  C   -0.001954  -1.375736  -0.035674   0.041964  -0.001016  -0.004212
    14  H   -0.000884  -0.008981  -0.001666  -0.000685   0.000149  -0.000752
    15  C    0.004941  -0.006423   0.003355  -0.297967  -0.119431   0.016924
    16  C   -0.004763  -0.008784   0.005892  -0.225818   0.023799  -0.092086
    17  C   -0.003970   0.002702  -0.000072  -0.002471   0.000208   0.000032
    18  H   -0.000271  -0.000187   0.000109   0.000146   0.000039  -0.000006
    19  C   -0.001830  -0.002876  -0.000069   0.000381   0.000010  -0.000017
    20  H    0.000820   0.000100   0.000125   0.000238  -0.000017  -0.000006
    21  C    0.573195   0.862094  -0.079868   0.007144  -0.000259  -0.000821
    22  C   -0.072133  -1.267823   0.505892  -0.020326   0.000495   0.002633
    23  C    0.000392   0.005375   0.000558   0.361361   0.432593   0.011703
    24  H    0.000322  -0.001101   0.000156   0.028133  -0.012170  -0.000294
    25  C   -0.001546  -0.015168   0.000806   0.446588   0.005836   0.419106
    26  H    0.000110  -0.004352  -0.005327   0.026044  -0.000453  -0.012021
    27  C    0.001384  -0.000418   0.000035   0.000092  -0.000008  -0.000003
    28  H   -0.000009  -0.000005  -0.000001   0.000015  -0.000005  -0.000000
    29  H   -0.000026  -0.000024   0.000012   0.000004  -0.000001  -0.000000
    30  C   -0.114176  -0.684489  -0.005584   0.000135   0.000002  -0.000027
    31  H    0.481908   0.000841   0.000123   0.000222  -0.000013  -0.000010
    32  C    0.000841   7.784228  -0.052115  -0.005062   0.000050   0.000704
    33  H    0.000123  -0.052115   0.498050  -0.001210   0.000046   0.000583
    34  C    0.000222  -0.005062  -0.001210   6.397921  -0.068800  -0.065634
    35  H   -0.000013   0.000050   0.000046  -0.068800   0.476063   0.001112
    36  H   -0.000010   0.000704   0.000583  -0.065634   0.001112   0.475329
    37  H    0.000041  -0.000009   0.000002   0.000004  -0.000001  -0.000000
    38  C    0.024522   0.405453   0.019513  -0.000199  -0.000002   0.000094
    39  H   -0.010962   0.007430  -0.000317  -0.000000   0.000000  -0.000001
    40  H   -0.000228   0.418440  -0.011275   0.000092  -0.000001  -0.000046
    41  H    0.000005  -0.000152  -0.000045   0.468309  -0.011366  -0.011983
    42  H    0.001253  -0.067494   0.001528  -0.000000  -0.000000   0.000001
              37         38         39         40         41         42
     1  C   -0.003639  -0.063583   0.007425  -0.002300   0.000975   0.000262
     2  C   -0.004883  -0.034202   0.001676   0.000193  -0.003805  -0.000868
     3  C   -0.006426  -0.199293   0.008976  -0.002076  -0.000771  -0.005055
     4  C    0.000734   0.010075   0.001403   0.011300  -0.007145   0.000931
     5  H    0.000077  -0.000078  -0.000022  -0.000006  -0.000411  -0.000010
     6  C    0.016904   0.032930  -0.001999  -0.000595   0.000918   0.000802
     7  C    0.000267  -0.239824   0.001530  -0.008327   0.000368  -0.007326
     8  H   -0.000173  -0.012882   0.001030   0.000573  -0.000008  -0.000496
     9  C   -0.000827   0.007367   0.002295   0.014774  -0.006444  -0.004158
    10  C    0.001209   0.039936  -0.000866  -0.004422   0.022753   0.001218
    11  C    0.004836   0.000851   0.000253   0.000044  -0.000130  -0.000034
    12  C    0.009247   0.002430  -0.000506  -0.000095   0.000183   0.000137
    13  C    0.000782  -0.221675   0.028352   0.022287   0.001201   0.024171
    14  H   -0.000007  -0.002572   0.000178  -0.000826   0.000117   0.000162
    15  C   -0.000532   0.005853  -0.000254  -0.000776   0.000115   0.000191
    16  C    0.000186  -0.017534   0.000515   0.002640   0.004985  -0.000566
    17  C   -0.062384  -0.001290   0.000233   0.000004  -0.000063  -0.000026
    18  H    0.000804   0.000079  -0.000002  -0.000002   0.000011   0.000003
    19  C   -0.064029   0.000232   0.000010  -0.000003   0.000014   0.000009
    20  H    0.000375   0.000417  -0.000035  -0.000010   0.000005   0.000017
    21  C   -0.000033  -0.238844  -0.114893   0.016372   0.000188   0.002658
    22  C    0.000007  -0.183044   0.020170  -0.093259  -0.000556   0.002388
    23  C   -0.000109  -0.000002  -0.000006  -0.000011  -0.074404   0.000004
    24  H    0.000015   0.000218  -0.000012  -0.000012   0.001391   0.000006
    25  C   -0.000003  -0.004205   0.000065   0.000432  -0.070127  -0.000129
    26  H    0.000003  -0.000663   0.000039   0.000498   0.002013  -0.000027
    27  C    0.443765   0.000233  -0.000039   0.000001   0.000007   0.000006
    28  H   -0.009106   0.000007   0.000000  -0.000000  -0.000000   0.000000
    29  H   -0.008523   0.000003   0.000002  -0.000000  -0.000000  -0.000000
    30  C   -0.000038   0.329402   0.434353   0.009300   0.000006  -0.072556
    31  H    0.000041   0.024522  -0.010962  -0.000228   0.000005   0.001253
    32  C   -0.000009   0.405453   0.007430   0.418440  -0.000152  -0.067494
    33  H    0.000002   0.019513  -0.000317  -0.011275  -0.000045   0.001528
    34  C    0.000004  -0.000199  -0.000000   0.000092   0.468309  -0.000000
    35  H   -0.000001  -0.000002   0.000000  -0.000001  -0.011366  -0.000000
    36  H   -0.000000   0.000094  -0.000001  -0.000046  -0.011983   0.000001
    37  H    0.483280   0.000008  -0.000002  -0.000000   0.000000   0.000000
    38  C    0.000008   6.409549  -0.069875  -0.060975  -0.000000   0.462368
    39  H   -0.000002  -0.069875   0.475082   0.000961  -0.000000  -0.010793
    40  H   -0.000000  -0.060975   0.000961   0.474518   0.000001  -0.011191
    41  H    0.000000  -0.000000  -0.000000   0.000001   0.488084   0.000000
    42  H    0.000000   0.462368  -0.010793  -0.011191   0.000000   0.486262
 Mulliken charges:
               1
     1  C    1.307635
     2  C   -1.511879
     3  C   -1.339652
     4  C    0.899553
     5  H    0.213438
     6  C    0.738785
     7  C    0.947294
     8  H    0.209524
     9  C   -1.546448
    10  C    1.196166
    11  C   -0.495210
    12  C   -0.165343
    13  C    1.183802
    14  H    0.203302
    15  C   -0.199694
    16  C   -0.547616
    17  C   -0.279927
    18  H    0.214508
    19  C   -0.441042
    20  H    0.226006
    21  C   -0.182789
    22  C   -0.573591
    23  C   -0.440072
    24  H    0.208666
    25  C   -0.365629
    26  H    0.197476
    27  C   -0.329018
    28  H    0.221934
    29  H    0.215656
    30  C   -0.484117
    31  H    0.216423
    32  C   -0.356427
    33  H    0.192758
    34  C   -0.410070
    35  H    0.220284
    36  H    0.223212
    37  H    0.198178
    38  C   -0.400800
    39  H    0.218602
    40  H    0.224009
    41  H    0.195761
    42  H    0.196349
 Sum of Mulliken charges =  -0.00000
 Mulliken charges with hydrogens summed into heavy atoms:
               1
     1  C    1.307635
     2  C   -1.298440
     3  C   -1.130129
     4  C    0.899553
     6  C    0.738785
     7  C    0.947294
     9  C   -1.343146
    10  C    1.196166
    11  C   -0.280702
    12  C    0.060663
    13  C    1.183802
    15  C    0.008972
    16  C   -0.350140
    17  C   -0.057993
    19  C   -0.225386
    21  C    0.033634
    22  C   -0.380834
    23  C   -0.219787
    25  C   -0.142417
    27  C   -0.130839
    30  C   -0.265515
    32  C   -0.132418
    34  C   -0.214309
    38  C   -0.204450
 Electronic spatial extent (au):  <R**2>=          10005.9440
 Charge=             -0.0000 electrons
 Dipole moment (field-independent basis, Debye):
    X=             -0.0236    Y=             -0.0010    Z=             -0.0023  Tot=              0.0238
 Quadrupole moment (field-independent basis, Debye-Ang):
   XX=           -126.6130   YY=           -130.5164   ZZ=           -137.2946
   XY=             -0.0128   XZ=              6.3968   YZ=             -1.4311
 Traceless Quadrupole moment (field-independent basis, Debye-Ang):
   XX=              4.8617   YY=              0.9583   ZZ=             -5.8200
   XY=             -0.0128   XZ=              6.3968   YZ=             -1.4311
 Octapole moment (field-independent basis, Debye-Ang**2):
  XXX=            -33.6566  YYY=              3.8771  ZZZ=              2.1479  XYY=             53.9886
  XXY=             -2.2422  XXZ=             31.3080  XZZ=            -19.9266  YZZ=             -1.6001
  YYZ=            -33.6296  XYZ=              8.8695
 Hexadecapole moment (field-independent basis, Debye-Ang**3):
 XXXX=          -6268.5619 YYYY=          -6142.9781 ZZZZ=           -627.7942 XXXY=              0.9556
 XXXZ=            117.3590 YYYX=             -5.3236 YYYZ=              8.3273 ZZZX=              9.6929
 ZZZY=            -11.0447 XXYY=          -2151.6894 XXZZ=          -1167.3740 YYZZ=          -1237.9425
 XXYZ=            -32.7212 YYXZ=             36.6199 ZZXY=              4.2580
 N-N= 1.730611368855D+03 E-N=-5.607729558658D+03  KE= 9.212948066929D+02
 No NMR shielding tensors so no spin-rotation constants.
 Leave Link  601 at Mon Nov 14 15:24:57 2022, MaxMem= 16106127360 cpu:              10.0 elap:               0.4
 (Enter /opt/ap/G16/B01/g16/l9999.exe)
 1\1\GINC-N61\SP\RwB97XD\6-311++G(d,p)\C24H18\ROOT\14-Nov-2022\0\\#P wB
 97XD/6-311++G(d,p) scf=maxcycle=512\\_conf034.gjf nmol_natom 1_42\\0,1
 \C\C,1,1.39412829\C,1,1.39435449,2,118.86443127\C,2,1.39416084,1,121.1
 529487,3,0.03668482,0\H,2,1.08488355,1,119.42236619,3,-179.97409048,0\
 C,1,1.48467131,2,120.55714816,4,179.25839056,0\C,3,1.39437784,1,121.11
 776116,2,-0.05351271,0\H,3,1.08487775,1,119.41869036,2,177.23008049,0\
 C,4,1.39432447,2,118.86473838,1,0.01008406,0\C,4,1.48466627,2,120.5464
 188,1,179.19454736,0\C,6,1.3968498,1,120.7843492,2,80.,0\C,6,1.3968682
 ,1,120.67653841,2,-100.,0\C,7,1.48449863,3,120.56496838,1,-179.9632580
 4,0\H,9,1.0848792,4,119.41824946,2,177.22245984,0\C,10,1.39685361,4,12
 0.76946845,2,-42.52368674,0\C,10,1.39686289,4,120.69448769,2,137.43107
 516,0\C,11,1.38888939,6,120.7380073,1,179.94058542,0\H,11,1.0847641,6,
 119.46912378,1,-1.41050605,0\C,12,1.38882428,6,120.76493111,1,-179.950
 82712,0\H,12,1.08482758,6,119.44182626,1,-1.23602505,0\C,13,1.39682899
 ,7,120.74134419,3,42.89023273,0\C,13,1.39683158,7,120.7379111,3,-137.1
 2494058,0\C,15,1.38888263,10,120.742191,4,179.9460119,0\H,15,1.0847633
 4,10,119.47085903,4,-1.40606944,0\C,16,1.38886088,10,120.76338989,4,-1
 79.95592713,0\H,16,1.08483431,10,119.44215232,4,-1.23439681,0\C,17,1.3
 9007919,11,120.20743432,6,0.00349958,0\H,17,1.0843506,11,119.71318733,
 6,179.5011609,0\H,19,1.08435858,12,119.73823132,6,179.53683762,0\C,21,
 1.38882373,13,120.76699356,7,179.99297883,0\H,21,1.0847938,13,119.4352
 623,7,1.32183327,0\C,22,1.38881869,13,120.76647403,7,-179.97118338,0\H
 ,22,1.08479982,13,119.43203605,7,1.34657928,0\C,23,1.39007007,15,120.2
 0732995,10,0.00573957,0\H,23,1.08434813,15,119.71220819,10,179.5072436
 8,0\H,25,1.08436328,16,119.73539424,10,179.53636455,0\H,27,1.08412515,
 17,120.21790854,11,179.98397203,0\C,30,1.39008059,21,120.18795226,13,-
 0.02169059,0\H,30,1.08435324,21,119.73787119,13,-179.52151214,0\H,32,1
 .0843543,22,119.737043,13,-179.52886928,0\H,34,1.08412314,23,120.22152
 803,15,179.98800213,0\H,38,1.08411439,30,120.21547163,21,-179.98600656
 ,0\\Version=ES64L-G16RevB.01\State=1-A\HF=-925.3092623\RMSD=3.958e-09\
 Dipole=-0.0078711,0.0011613,-0.0049194\Quadrupole=2.6194411,-4.0150944
 ,1.3956533,-4.8861802,1.1732488,-1.4770285\PG=C01 [X(C24H18)]\\@


 ACCORDING TO HEN3RY, LIFE IS MUCH LIKE A SEWER........
 YOU GET OUT OF IT JUST WHAT YOU PUT INTO IT...........
                         TOM LEHRER - (THE 3 IS SILENT)
 Job cpu time:       0 days  1 hours 23 minutes 11.2 seconds.
 Elapsed time:       0 days  0 hours  2 minutes 36.7 seconds.
 File lengths (MBytes):  RWF=    224 Int=      0 D2E=      0 Chk=     26 Scr=      1
 Normal termination of Gaussian 16 at Mon Nov 14 15:24:57 2022.
