 Entering Gaussian System, Link 0=g16
 Input=_conf009.gjf
 Output=_conf009.log
 Initial command:
 /opt/ap/G16/B01/g16/l1.exe "/tmp2/scr/Gau-10735.inp" -scrdir="/tmp2/scr/"
 Entering Link 1 = /opt/ap/G16/B01/g16/l1.exe PID=     10736.
  
 Copyright (c) 1988-2017, Gaussian, Inc.  All Rights Reserved.
  
 This is part of the Gaussian(R) 16 program.  It is based on
 the Gaussian(R) 09 system (copyright 2009, Gaussian, Inc.),
 the Gaussian(R) 03 system (copyright 2003, Gaussian, Inc.),
 the Gaussian(R) 98 system (copyright 1998, Gaussian, Inc.),
 the Gaussian(R) 94 system (copyright 1995, Gaussian, Inc.),
 the Gaussian 92(TM) system (copyright 1992, Gaussian, Inc.),
 the Gaussian 90(TM) system (copyright 1990, Gaussian, Inc.),
 the Gaussian 88(TM) system (copyright 1988, Gaussian, Inc.),
 the Gaussian 86(TM) system (copyright 1986, Carnegie Mellon
 University), and the Gaussian 82(TM) system (copyright 1983,
 Carnegie Mellon University). Gaussian is a federally registered
 trademark of Gaussian, Inc.
  
 This software contains proprietary and confidential information,
 including trade secrets, belonging to Gaussian, Inc.
  
 This software is provided under written license and may be
 used, copied, transmitted, or stored only in accord with that
 written license.
  
 The following legend is applicable only to US Government
 contracts under FAR:
  
                    RESTRICTED RIGHTS LEGEND
  
 Use, reproduction and disclosure by the US Government is
 subject to restrictions as set forth in subparagraphs (a)
 and (c) of the Commercial Computer Software - Restricted
 Rights clause in FAR 52.227-19.
  
 Gaussian, Inc.
 340 Quinnipiac St., Bldg. 40, Wallingford CT 06492
  
  
 ---------------------------------------------------------------
 Warning -- This program may not be used in any manner that
 competes with the business of Gaussian, Inc. or will provide
 assistance to any competitor of Gaussian, Inc.  The licensee
 of this program is prohibited from giving any competitor of
 Gaussian, Inc. access to this program.  By using this program,
 the user acknowledges that Gaussian, Inc. is engaged in the
 business of creating and licensing software in the field of
 computational chemistry and represents and warrants to the
 licensee that it is not a competitor of Gaussian, Inc. and that
 it will not use this program in any manner prohibited above.
 ---------------------------------------------------------------
  

 Cite this work as:
 Gaussian 16, Revision B.01,
 M. J. Frisch, G. W. Trucks, H. B. Schlegel, G. E. Scuseria, 
 M. A. Robb, J. R. Cheeseman, G. Scalmani, V. Barone, 
 G. A. Petersson, H. Nakatsuji, X. Li, M. Caricato, A. V. Marenich, 
 J. Bloino, B. G. Janesko, R. Gomperts, B. Mennucci, H. P. Hratchian, 
 J. V. Ortiz, A. F. Izmaylov, J. L. Sonnenberg, D. Williams-Young, 
 F. Ding, F. Lipparini, F. Egidi, J. Goings, B. Peng, A. Petrone, 
 T. Henderson, D. Ranasinghe, V. G. Zakrzewski, J. Gao, N. Rega, 
 G. Zheng, W. Liang, M. Hada, M. Ehara, K. Toyota, R. Fukuda, 
 J. Hasegawa, M. Ishida, T. Nakajima, Y. Honda, O. Kitao, H. Nakai, 
 T. Vreven, K. Throssell, J. A. Montgomery, Jr., J. E. Peralta, 
 F. Ogliaro, M. J. Bearpark, J. J. Heyd, E. N. Brothers, K. N. Kudin, 
 V. N. Staroverov, T. A. Keith, R. Kobayashi, J. Normand, 
 K. Raghavachari, A. P. Rendell, J. C. Burant, S. S. Iyengar, 
 J. Tomasi, M. Cossi, J. M. Millam, M. Klene, C. Adamo, R. Cammi, 
 J. W. Ochterski, R. L. Martin, K. Morokuma, O. Farkas, 
 J. B. Foresman, and D. J. Fox, Gaussian, Inc., Wallingford CT, 2016.
 
 ******************************************
 Gaussian 16:  ES64L-G16RevB.01 20-Dec-2017
                14-Nov-2022 
 ******************************************
 %nprocshared=32
 Will use up to   32 processors via shared memory.
 %mem=120GB
 %chk=_conf009.chk
 ----------------------------------------
 #P wB97XD/6-311++G(d,p) scf=maxcycle=512
 ----------------------------------------
 1/38=1,172=1/1;
 2/12=2,17=6,18=5,40=1/2;
 3/5=4,6=6,7=1111,11=2,25=1,30=1,74=-58/1,2,3;
 4//1;
 5/5=2,7=512,38=5/2;
 6/7=2,8=2,9=2,10=2,28=1/1;
 99/5=1,9=1/99;
 Leave Link    1 at Mon Nov 14 15:07:02 2022, MaxMem= 16106127360 cpu:               1.4 elap:               0.1
 (Enter /opt/ap/G16/B01/g16/l101.exe)
 ----------------------------
 _conf009.gjf nmol_natom 1_42
 ----------------------------
 Symbolic Z-matrix:
 Charge =  0 Multiplicity = 1
 C
 C                    1     1.39413 
 C                    1     1.39435  2     118.86443 
 C                    2     1.39416  1     121.15295  3     0.03668  0
 H                    2     1.08488  1     119.42237  3    -179.97409  0
 C                    1     1.48467  2     120.55715  4     179.25839  0
 C                    3     1.39438  1     121.11776  2    -0.05351  0
 H                    3     1.08488  1     119.41869  2     177.23008  0
 C                    4     1.39432  2     118.86474  1     0.01008  0
 C                    4     1.48467  2     120.54642  1     179.19455  0
 C                    6     1.39685  1     120.78435  2    -45.      0
 C                    6     1.39687  1     120.67654  2     135.     0
 C                    7     1.4845   3     120.56497  1    -179.96326  0
 H                    9     1.08488  4     119.41825  2     177.22246  0
 C                    10    1.39685  4     120.76947  2    -42.52369  0
 C                    10    1.39686  4     120.69449  2     137.43108  0
 C                    11    1.38889  6     120.73801  1     179.94059  0
 H                    11    1.08476  6     119.46912  1    -1.41051  0
 C                    12    1.38882  6     120.76493  1    -179.95083  0
 H                    12    1.08483  6     119.44183  1    -1.23603  0
 C                    13    1.39683  7     120.74134  3     42.89023  0
 C                    13    1.39683  7     120.73791  3    -137.12494  0
 C                    15    1.38888  10    120.74219  4     179.94601  0
 H                    15    1.08476  10    119.47086  4    -1.40607  0
 C                    16    1.38886  10    120.76339  4    -179.95593  0
 H                    16    1.08483  10    119.44215  4    -1.2344   0
 C                    17    1.39008  11    120.20743  6     0.0035   0
 H                    17    1.08435  11    119.71319  6     179.50116  0
 H                    19    1.08436  12    119.73823  6     179.53684  0
 C                    21    1.38882  13    120.76699  7     179.99298  0
 H                    21    1.08479  13    119.43526  7     1.32183  0
 C                    22    1.38882  13    120.76647  7    -179.97118  0
 H                    22    1.0848   13    119.43204  7     1.34658  0
 C                    23    1.39007  15    120.20733  10    0.00574  0
 H                    23    1.08435  15    119.71221  10    179.50724  0
 H                    25    1.08436  16    119.73539  10    179.53636  0
 H                    27    1.08413  17    120.21791  11    179.98397  0
 C                    30    1.39008  21    120.18795  13   -0.02169  0
 H                    30    1.08435  21    119.73787  13   -179.52151  0
 H                    32    1.08435  22    119.73704  13   -179.52887  0
 H                    34    1.08412  23    120.22153  15    179.988  0
 H                    38    1.08411  30    120.21547  21   -179.98601  0
 
 ITRead=  0  0  0  0  0  0  0  0  0  0  0  0  0  0  0  0  0  0  0  0
 ITRead=  0  0  0  0  0  0  0  0  0  0  0  0  0  0  0  0  0  0  0  0
 ITRead=  0  0
 MicOpt= -1 -1 -1 -1 -1 -1 -1 -1 -1 -1 -1 -1 -1 -1 -1 -1 -1 -1 -1 -1
 MicOpt= -1 -1 -1 -1 -1 -1 -1 -1 -1 -1 -1 -1 -1 -1 -1 -1 -1 -1 -1 -1
 MicOpt= -1 -1
 NAtoms=     42 NQM=       42 NQMF=       0 NMMI=      0 NMMIF=      0
                NMic=       0 NMicF=      0.
                    Isotopes and Nuclear Properties:
 (Nuclear quadrupole moments (NQMom) in fm**2, nuclear magnetic moments (NMagM)
  in nuclear magnetons)

  Atom         1           2           3           4           5           6           7           8           9          10
 IAtWgt=          12          12          12          12           1          12          12           1          12          12
 AtmWgt=  12.0000000  12.0000000  12.0000000  12.0000000   1.0078250  12.0000000  12.0000000   1.0078250  12.0000000  12.0000000
 NucSpn=           0           0           0           0           1           0           0           1           0           0
 AtZEff=  -0.0000000  -0.0000000  -0.0000000  -0.0000000  -0.0000000  -0.0000000  -0.0000000  -0.0000000  -0.0000000  -0.0000000
 NQMom=    0.0000000   0.0000000   0.0000000   0.0000000   0.0000000   0.0000000   0.0000000   0.0000000   0.0000000   0.0000000
 NMagM=    0.0000000   0.0000000   0.0000000   0.0000000   2.7928460   0.0000000   0.0000000   2.7928460   0.0000000   0.0000000
 AtZNuc=   6.0000000   6.0000000   6.0000000   6.0000000   1.0000000   6.0000000   6.0000000   1.0000000   6.0000000   6.0000000

  Atom        11          12          13          14          15          16          17          18          19          20
 IAtWgt=          12          12          12           1          12          12          12           1          12           1
 AtmWgt=  12.0000000  12.0000000  12.0000000   1.0078250  12.0000000  12.0000000  12.0000000   1.0078250  12.0000000   1.0078250
 NucSpn=           0           0           0           1           0           0           0           1           0           1
 AtZEff=  -0.0000000  -0.0000000  -0.0000000  -0.0000000  -0.0000000  -0.0000000  -0.0000000  -0.0000000  -0.0000000  -0.0000000
 NQMom=    0.0000000   0.0000000   0.0000000   0.0000000   0.0000000   0.0000000   0.0000000   0.0000000   0.0000000   0.0000000
 NMagM=    0.0000000   0.0000000   0.0000000   2.7928460   0.0000000   0.0000000   0.0000000   2.7928460   0.0000000   2.7928460
 AtZNuc=   6.0000000   6.0000000   6.0000000   1.0000000   6.0000000   6.0000000   6.0000000   1.0000000   6.0000000   1.0000000

  Atom        21          22          23          24          25          26          27          28          29          30
 IAtWgt=          12          12          12           1          12           1          12           1           1          12
 AtmWgt=  12.0000000  12.0000000  12.0000000   1.0078250  12.0000000   1.0078250  12.0000000   1.0078250   1.0078250  12.0000000
 NucSpn=           0           0           0           1           0           1           0           1           1           0
 AtZEff=  -0.0000000  -0.0000000  -0.0000000  -0.0000000  -0.0000000  -0.0000000  -0.0000000  -0.0000000  -0.0000000  -0.0000000
 NQMom=    0.0000000   0.0000000   0.0000000   0.0000000   0.0000000   0.0000000   0.0000000   0.0000000   0.0000000   0.0000000
 NMagM=    0.0000000   0.0000000   0.0000000   2.7928460   0.0000000   2.7928460   0.0000000   2.7928460   2.7928460   0.0000000
 AtZNuc=   6.0000000   6.0000000   6.0000000   1.0000000   6.0000000   1.0000000   6.0000000   1.0000000   1.0000000   6.0000000

  Atom        31          32          33          34          35          36          37          38          39          40
 IAtWgt=           1          12           1          12           1           1           1          12           1           1
 AtmWgt=   1.0078250  12.0000000   1.0078250  12.0000000   1.0078250   1.0078250   1.0078250  12.0000000   1.0078250   1.0078250
 NucSpn=           1           0           1           0           1           1           1           0           1           1
 AtZEff=  -0.0000000  -0.0000000  -0.0000000  -0.0000000  -0.0000000  -0.0000000  -0.0000000  -0.0000000  -0.0000000  -0.0000000
 NQMom=    0.0000000   0.0000000   0.0000000   0.0000000   0.0000000   0.0000000   0.0000000   0.0000000   0.0000000   0.0000000
 NMagM=    2.7928460   0.0000000   2.7928460   0.0000000   2.7928460   2.7928460   2.7928460   0.0000000   2.7928460   2.7928460
 AtZNuc=   1.0000000   6.0000000   1.0000000   6.0000000   1.0000000   1.0000000   1.0000000   6.0000000   1.0000000   1.0000000

  Atom        41          42
 IAtWgt=           1           1
 AtmWgt=   1.0078250   1.0078250
 NucSpn=           1           1
 AtZEff=  -0.0000000  -0.0000000
 NQMom=    0.0000000   0.0000000
 NMagM=    2.7928460   2.7928460
 AtZNuc=   1.0000000   1.0000000
 Leave Link  101 at Mon Nov 14 15:07:02 2022, MaxMem= 16106127360 cpu:               5.4 elap:               0.2
 (Enter /opt/ap/G16/B01/g16/l202.exe)
                          Input orientation:                          
 ---------------------------------------------------------------------
 Center     Atomic      Atomic             Coordinates (Angstroms)
 Number     Number       Type             X           Y           Z
 ---------------------------------------------------------------------
      1          6           0        0.000000    0.000000    0.000000
      2          6           0        0.000000    0.000000    1.394128
      3          6           0        1.221126    0.000000   -0.673109
      4          6           0        1.193108    0.000764    2.115362
      5          1           0       -0.944957   -0.000427    1.927071
      6          6           0       -1.278366   -0.017366   -0.754803
      7          6           0        2.428476    0.001115    0.024455
      8          1           0        1.232154   -0.045667   -1.756969
      9          6           0        2.400843    0.001752    1.418572
     10          6           0        1.177445    0.018728    3.599837
     11          6           0       -2.313778   -0.880062   -0.387559
     12          6           0       -1.471694    0.829599   -1.848657
     13          6           0        3.721572    0.001921   -0.704680
     14          1           0        3.334061    0.048144    1.969857
     15          6           0        0.290794    0.844275    4.295193
     16          6           0        2.049080   -0.790881    4.331965
     17          6           0       -3.509734   -0.894639   -1.093597
     18          1           0       -2.171427   -1.560496    0.445183
     19          6           0       -2.667158    0.815598   -2.555412
     20          1           0       -0.684973    1.519789   -2.134242
     21          6           0        3.910862    0.818865   -1.821777
     22          6           0        4.776237   -0.814044   -0.288725
     23          6           0        0.275860    0.859807    5.683909
     24          1           0       -0.377402    1.495584    3.742000
     25          6           0        2.035025   -0.775886    5.720674
     26          1           0        2.729408   -1.453102    3.807101
     27          6           0       -3.691060   -0.046324   -2.179784
     28          1           0       -4.299463   -1.576842   -0.799076
     29          1           0       -2.802161    1.485539   -3.397307
     30          6           0        5.120444    0.820149   -2.504230
     31          1           0        3.109266    1.474569   -2.144691
     32          6           0        5.986440   -0.813321   -0.970068
     33          1           0        4.638168   -1.470412    0.563864
     34          6           0        1.147946    0.049642    6.401818
     35          1           0       -0.413890    1.513063    6.206701
     36          1           0        2.713797   -1.416787    6.272362
     37          1           0       -4.624421   -0.057745   -2.731176
     38          6           0        6.162883    0.003944   -2.080611
     39          1           0        5.251831    1.466740   -3.364741
     40          1           0        6.791448   -1.459089   -0.637249
     41          1           0        1.136620    0.061726    7.485815
     42          1           0        7.107346    0.004761   -2.612865
 ---------------------------------------------------------------------
                    Distance matrix (angstroms):
                    1          2          3          4          5
     1  C    0.000000
     2  C    1.394128   0.000000
     3  C    1.394354   2.400962   0.000000
     4  C    2.428634   1.394161   2.788612   0.000000
     5  H    2.146287   1.084884   3.384206   2.146341   0.000000
     6  C    1.484671   2.500485   2.500887   3.787659   2.702572
     7  C    2.428599   2.788100   1.394378   2.428585   3.872983
     8  H    2.146445   3.383741   1.084878   3.872806   4.279487
     9  C    2.788619   2.400968   2.401430   1.394324   3.384222
    10  C    3.787552   2.500376   4.273210   1.484666   2.702426
    11  C    2.505649   3.049998   3.653983   4.397580   2.829300
    12  C    2.504326   3.656470   3.053101   4.847843   3.901604
    13  C    3.787700   4.272598   2.500646   3.787581   5.357482
    14  H    3.872805   3.383747   3.384092   2.146415   4.279508
    15  C    4.387032   3.035381   5.124680   2.505463   2.801537
    16  C    4.856969   3.668120   5.134371   2.504540   3.920790
    17  C    3.783460   4.394018   4.833035   5.763322   4.062281
    18  H    2.710799   2.837383   3.898094   4.067816   2.476698
    19  C    3.782732   4.835059   4.396250   6.114060   4.870782
    20  H    2.708124   3.902351   2.842161   4.888124   4.344296
    21  C    4.391384   5.129076   3.037212   4.853507   6.189029
    22  C    4.853707   5.129045   3.667320   4.391169   6.189006
    23  C    5.755188   4.383786   6.484171   3.783362   4.042800
    24  H    4.047440   2.809218   4.928007   2.710524   2.419532
    25  C    6.121229   4.843792   6.491910   3.782894   4.886007
    26  H    4.904609   3.922195   4.945574   2.708491   4.375585
    27  C    4.286902   5.137988   5.138267   6.504274   4.940591
    28  H    4.648692   5.077594   5.742752   6.414914   4.601051
    29  H    4.647647   5.746023   5.080838   6.968231   5.831492
    30  C    5.758711   6.487587   4.385239   6.118495   7.556379
    31  H    4.054822   4.936104   2.811579   4.898143   5.932249
    32  C    6.118822   6.487555   4.843334   5.758354   7.556353
    33  H    4.898230   4.935996   3.920254   4.054620   5.932156
    34  C    6.504116   5.137821   7.075480   4.286973   4.940255
    35  H    6.401859   5.061770   7.231488   4.648499   4.570330
    36  H    6.979577   5.759266   7.243957   4.647859   5.854410
    37  H    5.371027   6.197317   6.197532   7.572054   5.936413
    38  C    6.504621   7.074953   5.138292   6.504219   8.159837
    39  H    6.407382   7.237395   5.063871   6.975231   8.279857
    40  H    6.975586   7.237348   5.758361   6.406985   8.279819
    41  H    7.571865   6.197125   8.159595   5.371096   5.936031
    42  H    7.572414   8.159067   6.197601   7.571945   9.243951
                    6          7          8          9         10
     6  C    0.000000
     7  C    3.787910   0.000000
     8  H    2.703303   2.146356   0.000000
     9  C    4.273231   1.394392   3.384102   0.000000
    10  C    4.999520   3.787973   5.357472   2.500981   0.000000
    11  C    1.396850   4.840991   3.891674   5.125169   5.375480
    12  C    1.396868   4.405253   2.843464   5.133874   6.112408
    13  C    5.000226   1.484499   2.703105   2.500505   5.000173
    14  H    5.357476   2.146366   4.279725   1.084879   2.703459
    15  C    5.357906   4.849723   6.189251   3.665665   1.396854
    16  C    6.127433   4.396117   6.188524   3.039714   1.396863
    17  C    2.421445   6.108580   4.862748   6.484554   6.695686
    18  H    2.149133   4.875935   4.327648   4.928870   4.864230
    19  C    2.421728   5.769279   4.072336   6.491497   7.300895
    20  H    2.148909   4.081655   2.503669   4.944612   6.213006
    21  C    5.363376   2.504946   2.815510   3.667109   6.124188
    22  C    6.124553   2.504906   3.912375   3.036921   5.363369
    23  C    6.681472   6.115597   7.556523   4.841994   2.421492
    24  H    4.829285   4.891475   5.933362   3.917716   2.149154
    25  C    7.313393   5.762417   7.555989   4.387097   2.421736
    26  H    6.239756   4.063707   5.931401   2.815959   2.148914
    27  C    2.802231   6.504585   4.941336   7.075433   7.557155
    28  H    3.400141   6.959405   5.819007   7.232152   7.203666
    29  H    3.400515   6.424292   4.616383   7.243312   8.182226
    30  C    6.686306   3.783088   4.053003   4.842972   7.310892
    31  H    4.838282   2.709194   2.446425   3.920191   6.233057
    32  C    7.311449   3.783053   4.879728   4.384797   6.686012
    33  H    6.233426   2.709077   4.360860   2.811302   4.838519
    34  C    7.557031   6.504835   8.159779   5.138559   2.802307
    35  H    7.179977   6.970308   8.280044   5.756123   3.400165
    36  H    8.202243   6.413127   8.279214   5.066504   3.400510
    37  H    3.886356   7.572339   5.937061   8.159552   8.587737
    38  C    7.558466   4.286853   4.941589   5.137824   7.557929
    39  H    7.187337   4.648230   4.585860   5.757987   8.197725
    40  H    8.198432   4.648180   5.844424   5.063385   7.187062
    41  H    8.587561   7.572613   9.243902   6.197846   3.886431
    42  H    8.589123   5.370968   5.937422   6.197069   8.588456
                   11         12         13         14         15
    11  C    0.000000
    12  C    2.401427   0.000000
    13  C    6.107692   5.381797   0.000000
    14  H    6.190078   6.187649   2.702860   0.000000
    15  C    5.628970   6.391672   6.121971   3.911840   0.000000
    16  C    6.427783   7.295334   5.365963   2.816859   2.401387
    17  C    1.388889   2.774296   7.297045   7.557190   6.819597
    18  H    1.084764   3.385835   6.204093   5.934876   5.164111
    19  C    2.774838   1.388824   6.700981   7.555241   7.461976
    20  H    3.385733   1.084828   4.874957   5.929756   6.538049
    21  C    6.609801   5.382634   1.396829   3.911930   7.107943
    22  C    7.091011   6.646171   1.396832   2.815037   6.624314
    23  C    6.826133   7.732684   7.309101   4.879095   1.388883
    24  H    5.142616   5.735543   6.229413   4.360107   1.084763
    25  C    7.498897   8.495259   6.688393   4.054029   2.774755
    26  H    6.584624   7.405915   4.843310   2.448430   3.385708
    27  C    2.409169   2.408832   7.558132   8.159704   7.653343
    28  H    2.144247   3.858608   8.175476   8.281199   7.272128
    29  H    3.859166   2.144462   7.211827   8.278029   8.315777
    30  C    7.914459   6.624662   2.421718   4.878996   8.340159
    31  H    6.167755   4.635603   2.148776   4.360587   7.057844
    32  C    8.320900   7.687318   2.421709   4.052208   7.931644
    33  H    7.041539   6.959937   2.148749   2.446125   6.179018
    34  C    7.677469   8.691443   7.558317   4.941800   2.409154
    35  H    7.267798   8.153211   8.194680   5.843284   2.144229
    36  H    8.361766   9.408269   7.190790   4.587189   3.859086
    37  H    3.392317   3.392036   8.588704   9.243828   8.622230
    38  C    8.689170   7.682596   2.802355   4.940696   8.708529
    39  H    8.462241   6.921723   3.400487   5.843645   9.147346
    40  H    9.127034   8.659395   3.400476   4.585006   8.478973
    41  H    8.647672   9.722412   8.588933   5.937569   3.392325
    42  H    9.720723   8.652415   3.886469   5.936405   9.741223
                   16         17         18         19         20
    16  C    0.000000
    17  C    7.768391   0.000000
    18  H    5.788961   2.145291   0.000000
    19  C    8.500567   2.402446   3.859422   0.000000
    20  H    7.390946   3.858974   4.283822   2.145303   0.000000
    21  C    6.627673   7.650594   6.913371   6.618805   4.659467
    22  C    5.365510   8.325361   7.026084   7.949701   6.219126
    23  C    2.774316   7.958856   6.268280   8.749269   7.904572
    24  H    3.385823   6.237601   4.840160   6.735188   5.884336
    25  C    1.388861   8.785941   6.792692   9.650749   8.623701
    26  H    1.084834   7.953340   5.944091   8.645895   7.469648
    27  C    8.712431   1.390079   3.390052   1.390101   3.389888
    28  H    8.200568   1.084351   2.465154   3.387168   4.943312
    29  H    9.405226   3.387180   4.943772   1.084359   2.465561
    30  C    7.665654   8.911249   8.218143   7.787771   5.859117
    31  H    6.942862   7.108383   6.618518   5.828379   3.794523
    32  C    6.604154   9.497326   8.313362   8.947147   7.162852
    33  H    4.622091   8.334687   6.811225   8.265804   6.675097
    34  C    2.408903   8.875072   7.006589   9.765945   8.853545
    35  H    3.858628   8.287076   6.762454   9.074045   8.345349
    36  H    2.144469   9.657242   7.605398  10.576758   9.531322
    37  H    9.744797   2.150485   4.285405   2.150465   4.285346
    38  C    7.660043   9.764281   8.848042   8.879969   7.013829
    39  H    8.636768   9.354102   8.876060   7.986826   6.063216
    40  H    6.901424  10.326723   9.028570   9.915583   8.186060
    41  H    3.392092   9.803548   7.946400  10.763981   9.898972
    42  H    8.628428  10.762875   9.894307   9.808245   7.952649
                   21         22         23         24         25
    21  C    0.000000
    22  C    2.401148   0.000000
    23  C    8.339678   7.663388   0.000000
    24  H    7.057108   6.938381   2.145221   0.000000
    25  C    7.934139   6.605193   2.402396   3.859344   0.000000
    26  H    6.184005   4.623169   3.858996   4.283837   2.145356
    27  C    7.659369   8.709800   8.854106   6.958831   9.784557
    28  H    8.613639   9.121988   8.300598   6.741197   9.125482
    29  H    6.927585   8.507848   9.609070   7.539845  10.566456
    30  C    1.388824   2.774442   9.514051   8.348527   8.928391
    31  H    1.084794   3.385432   8.348239   6.841814   8.251212
    32  C    2.774430   1.388819   8.926672   8.248218   7.770528
    33  H    3.385417   1.084800   7.118603   6.637291   5.818196
    34  C    8.709358   7.659884   1.390070   3.389995   1.390095
    35  H    9.145591   8.633852   1.084348   2.465033   3.387137
    36  H    8.482109   6.903971   3.387136   4.943698   1.084363
    37  H    8.628239   9.742173   9.781018   7.896329  10.784142
    38  C    2.408878   2.408889   9.781478   8.882743   8.860440
    39  H    2.144453   3.858761  10.344405   9.066139   9.895553
    40  H    3.858751   2.144441   9.369482   8.905073   7.969536
    41  H    9.741711   8.628862   2.150513   4.285366   2.150453
    42  H    3.392063   3.392069  10.781315   9.931179   9.787018
                   26         27         28         29         30
    26  H    0.000000
    27  C    8.890682   0.000000
    28  H    8.404595   2.149185   0.000000
    29  H    9.546589   2.149210   4.286129   0.000000
    30  C    7.121630   8.859945   9.868524   8.000500   0.000000
    31  H    6.643746   6.968412   8.124719   6.042693   2.145313
    32  C    5.817122   9.782929  10.315619   9.402965   2.402462
    33  H    3.763276   8.884350   9.041581   8.932358   3.859075
    34  C    3.389959   9.852364   9.174562  10.662457   9.782234
    35  H    4.943333   9.138088   8.586390   9.896543  10.343562
    36  H    2.465578  10.692947   9.960756  11.504424   9.371467
    37  H    9.938556   1.084125   2.479166   2.479130   9.786960
    38  C    6.969712   9.854570  10.658420   9.181548   1.390081
    39  H    8.143918   9.147064  10.347621   8.054080   1.084353
    40  H    6.021000  10.689167  11.092717  10.407982   3.387152
    41  H    4.285396  10.804720  10.043670  11.661200  10.781792
    42  H    7.906179  10.807207  11.657898  10.050193   2.150451
                   31         32         33         34         35
    31  H    0.000000
    32  C    3.859055   0.000000
    33  H    4.283308   2.145356   0.000000
    34  C    8.883693   8.860047   6.969499   0.000000
    35  H    9.064207   9.893547   8.140394   2.149187   0.000000
    36  H    8.908597   7.970392   6.024369   2.149200   4.286112
    37  H    7.905812  10.782521   9.932194  10.804783  10.004081
    38  C    3.389900   1.390094   3.389946   9.854100  10.686951
    39  H    2.465597   3.387150   4.943418  10.688111  11.122726
    40  H    4.943399   1.084354   2.465647   9.147341  10.372571
    41  H    9.931470   9.787155   7.907066   1.084123   2.479233
    42  H    4.285343   2.150458   4.285392  10.806525  11.688828
                   36         37         38         39         40
    36  H    0.000000
    37  H   11.694449   0.000000
    38  C    9.148051  10.807080   0.000000
    39  H   10.374492  10.013282   2.149134   0.000000
    40  H    8.023201  11.690610   2.149152   4.286037   0.000000
    41  H    2.479104  11.729909  10.806626  11.689465  10.013697
    42  H   10.013557  11.732530   1.084114   2.479039   2.479054
                   41         42
    41  H    0.000000
    42  H   11.731844   0.000000
 Stoichiometry    C24H18
 Framework group  C1[X(C24H18)]
 Deg. of freedom   120
 Full point group                 C1      NOp   1
 Largest Abelian subgroup         C1      NOp   1
 Largest concise Abelian subgroup C1      NOp   1
                         Standard orientation:                         
 ---------------------------------------------------------------------
 Center     Atomic      Atomic             Coordinates (Angstroms)
 Number     Number       Type             X           Y           Z
 ---------------------------------------------------------------------
      1          6           0        1.365163   -0.316682    0.041823
      2          6           0        0.403808   -1.325502    0.000925
      3          6           0        0.945824    1.013122    0.041873
      4          6           0       -0.956739   -1.024000   -0.040241
      5          1           0        0.719977   -2.363292    0.000959
      6          6           0        2.810014   -0.652899    0.101942
      7          6           0       -0.408694    1.341583    0.000822
      8          1           0        1.683790    1.804574    0.119133
      9          6           0       -1.350029    0.313708   -0.040267
     10          6           0       -1.968490   -2.108824   -0.101491
     11          6           0        3.278369   -1.641922    0.970081
     12          6           0        3.731215    0.013772   -0.709341
     13          6           0       -0.841444    2.761606    0.000549
     14          1           0       -2.403893    0.559293   -0.117858
     15          6           0       -1.780139   -3.215558   -0.932673
     16          6           0       -3.129825   -2.045250    0.672128
     17          6           0        4.630057   -1.956525    1.024652
     18          1           0        2.579421   -2.153146    1.623408
     19          6           0        5.083060   -0.299966   -0.655333
     20          1           0        3.380975    0.770335   -1.403455
     21          6           0       -0.182002    3.708846   -0.786219
     22          6           0       -1.917382    3.180219    0.786843
     23          6           0       -2.726462   -4.230609   -0.988694
     24          1           0       -0.894436   -3.269815   -1.556611
     25          6           0       -4.076796   -3.059696    0.616629
     26          1           0       -3.281253   -1.202626    1.338401
     27          6           0        5.537330   -1.287105    0.211601
     28          1           0        4.976566   -2.721550    1.710571
     29          1           0        5.782668    0.222846   -1.298023
     30          6           0       -0.586504    5.037458   -0.786992
     31          1           0        0.641563    3.395936   -1.419153
     32          6           0       -2.323117    4.508450    0.786588
     33          1           0       -2.426360    2.461352    1.420059
     34          6           0       -3.878336   -4.156440   -0.214110
     35          1           0       -2.567074   -5.078326   -1.645796
     36          1           0       -4.968780   -2.996946    1.230038
     37          1           0        6.592489   -1.532358    0.254246
     38          6           0       -1.658888    5.442086   -0.000485
     39          1           0       -0.067540    5.757347   -1.410095
     40          1           0       -3.155663    4.816647    1.409247
     41          1           0       -4.617252   -4.948537   -0.257805
     42          1           0       -1.975162    6.479041   -0.000921
 ---------------------------------------------------------------------
 Rotational constants (GHZ):           0.1977492           0.1973100           0.1038093
 Leave Link  202 at Mon Nov 14 15:07:02 2022, MaxMem= 16106127360 cpu:               0.3 elap:               0.0
 (Enter /opt/ap/G16/B01/g16/l301.exe)
 Standard basis: 6-311++G(d,p) (5D, 7F)
 Ernie: Thresh=  0.10000D-02 Tol=  0.10000D-05 Strict=F.
 There are   678 symmetry adapted cartesian basis functions of A   symmetry.
 There are   654 symmetry adapted basis functions of A   symmetry.
   654 basis functions,  1026 primitive gaussians,   678 cartesian basis functions
    81 alpha electrons       81 beta electrons
       nuclear repulsion energy      1732.4151442903 Hartrees.
 IExCor= 4639 DFT=T Ex+Corr=wB97XD ExCW=0 ScaHFX=  1.000000
 ScaDFX=  1.000000  1.000000  1.000000  1.000000 ScalE2=  1.000000  1.000000
 IRadAn=      5 IRanWt=     -1 IRanGd=            0 ICorTp=0 IEmpDi=121
 HFx  wShort=  0.000000 wLong=  0.200000 cFull=  0.222036 cShort=  0.000000 cLong=  0.777964
 DFx  wShort=  0.000000 wLong=  0.200000 cFull=  0.000000 cShort=  0.000000 cLong=  1.000000
 NAtoms=   42 NActive=   42 NUniq=   42 SFac= 1.00D+00 NAtFMM=   60 NAOKFM=F Big=F
 Integral buffers will be    131072 words long.
 Raffenetti 2 integral format.
 Two-electron integral symmetry is turned on.
 R6Disp:  Grimme-D2 Dispersion energy=       -0.0289733582 Hartrees.
 Nuclear repulsion after empirical dispersion term =     1732.3861709321 Hartrees.
 Leave Link  301 at Mon Nov 14 15:07:02 2022, MaxMem= 16106127360 cpu:               1.2 elap:               0.0
 (Enter /opt/ap/G16/B01/g16/l302.exe)
 NPDir=0 NMtPBC=     1 NCelOv=     1 NCel=       1 NClECP=     1 NCelD=      1
         NCelK=      1 NCelE2=     1 NClLst=     1 CellRange=     0.0.
 One-electron integrals computed using PRISM.
 One-electron integral symmetry used in STVInt
 NBasis=   654 RedAO= T EigKep=  1.27D-06  NBF=   654
 NBsUse=   645 1.00D-06 EigRej=  8.26D-07 NBFU=   645
 Precomputing XC quadrature grid using
 IXCGrd= 4 IRadAn=           5 IRanWt=          -1 IRanGd=           0 AccXCQ= 0.00D+00.
 Generated NRdTot=       0 NPtTot=           0 NUsed=           0 NTot=          32
 NSgBfM=   669   669   669   669   669 MxSgAt=    42 MxSgA2=    42.
 Leave Link  302 at Mon Nov 14 15:07:02 2022, MaxMem= 16106127360 cpu:              21.2 elap:               0.7
 (Enter /opt/ap/G16/B01/g16/l303.exe)
 DipDrv:  MaxL=1.
 Leave Link  303 at Mon Nov 14 15:07:03 2022, MaxMem= 16106127360 cpu:               2.8 elap:               0.1
 (Enter /opt/ap/G16/B01/g16/l401.exe)
 ExpMin= 3.60D-02 ExpMax= 4.56D+03 ExpMxC= 6.82D+02 IAcc=3 IRadAn=         5 AccDes= 0.00D+00
 Harris functional with IExCor= 4639 and IRadAn=       5 diagonalized for initial guess.
 HarFok:  IExCor= 4639 AccDes= 0.00D+00 IRadAn=         5 IDoV= 1 UseB2=F ITyADJ=14
 ICtDFT=  3500011 ScaDFX=  1.000000  1.000000  1.000000  1.000000
 FoFCou: FMM=F IPFlag=           0 FMFlag=      100000 FMFlg1=           0
         NFxFlg=           0 DoJE=T BraDBF=F KetDBF=T FulRan=T
         wScrn=  0.000000 ICntrl=       500 IOpCl=  0 I1Cent=   200000004 NGrid=           0
         NMat0=    1 NMatS0=      1 NMatT0=    0 NMatD0=    1 NMtDS0=    0 NMtDT0=    0
 Petite list used in FoFCou.
 Harris En= -882.969947784332    
 JPrj=0 DoOrth=F DoCkMO=F.
 Leave Link  401 at Mon Nov 14 15:07:04 2022, MaxMem= 16106127360 cpu:              55.1 elap:               1.7
 (Enter /opt/ap/G16/B01/g16/l502.exe)
 Integral symmetry usage will be decided dynamically.
 Closed shell SCF:
 Using DIIS extrapolation, IDIIS=  1040.
 NGot= 16106127360 LenX= 16105179956 LenY= 16104719594
 Requested convergence on RMS density matrix=1.00D-08 within 512 cycles.
 Requested convergence on MAX density matrix=1.00D-06.
 Requested convergence on             energy=1.00D-06.
 No special actions if energy rises.
 Fock matrices will be formed incrementally for  20 cycles.

 Cycle   1  Pass 1  IDiag  1:
 FoFJK:  IHMeth= 1 ICntrl=       0 DoSepK=T KAlg= 0 I1Cent=           0 FoldK=F
 IRaf=         1 NMat=       1 IRICut=       1 DoRegI=T DoRafI=F ISym2E= 0 IDoP0=0 IntGTp=1.
 FoFCou: FMM=F IPFlag=           0 FMFlag=      100000 FMFlg1=           0
         NFxFlg=           0 DoJE=T BraDBF=F KetDBF=F FulRan=T
         wScrn=  0.000000 ICntrl=       500 IOpCl=  0 I1Cent=           0 NGrid=           0
         NMat0=    1 NMatS0=      1 NMatT0=    0 NMatD0=    1 NMtDS0=    0 NMtDT0=    0
 Symmetry not used in FoFCou.
 E= -925.116817486910    
 DIIS: error= 5.08D-02 at cycle   1 NSaved=   1.
 NSaved= 1 IEnMin= 1 EnMin= -925.116817486910     IErMin= 1 ErrMin= 5.08D-02
 ErrMax= 5.08D-02  0.00D+00 EMaxC= 1.00D-01 BMatC= 1.90D+00 BMatP= 1.90D+00
 IDIUse=3 WtCom= 4.92D-01 WtEn= 5.08D-01
 Coeff-Com:  0.100D+01
 Coeff-En:   0.100D+01
 Coeff:      0.100D+01
 Gap=     0.319 Goal=   None    Shift=    0.000
 GapD=    0.319 DampG=1.000 DampE=0.500 DampFc=0.5000 IDamp=-1.
 Damping current iteration by 5.00D-01
 RMSDP=3.81D-02 MaxDP=4.68D+00              OVMax= 4.30D-02

 Cycle   2  Pass 1  IDiag  1:
 RMSU=  7.01D-03    CP:  8.12D-01
 E= -925.215313305553     Delta-E=       -0.098495818643 Rises=F Damp=T
 DIIS: error= 2.47D-02 at cycle   2 NSaved=   2.
 NSaved= 2 IEnMin= 2 EnMin= -925.215313305553     IErMin= 2 ErrMin= 2.47D-02
 ErrMax= 2.47D-02  0.00D+00 EMaxC= 1.00D-01 BMatC= 4.32D-01 BMatP= 1.90D+00
 IDIUse=3 WtCom= 7.53D-01 WtEn= 2.47D-01
 Coeff-Com: -0.883D+00 0.188D+01
 Coeff-En:   0.000D+00 0.100D+01
 Coeff:     -0.665D+00 0.167D+01
 Gap=     0.327 Goal=   None    Shift=    0.000
 RMSDP=2.18D-02 MaxDP=2.17D+00 DE=-9.85D-02 OVMax= 3.35D-02

 Cycle   3  Pass 1  IDiag  1:
 RMSU=  3.12D-03    CP:  5.84D-01  1.37D+00
 E= -925.304035630213     Delta-E=       -0.088722324660 Rises=F Damp=F
 DIIS: error= 3.25D-03 at cycle   3 NSaved=   3.
 NSaved= 3 IEnMin= 3 EnMin= -925.304035630213     IErMin= 3 ErrMin= 3.25D-03
 ErrMax= 3.25D-03  0.00D+00 EMaxC= 1.00D-01 BMatC= 8.25D-03 BMatP= 4.32D-01
 IDIUse=3 WtCom= 9.67D-01 WtEn= 3.25D-02
 Coeff-Com: -0.364D+00 0.772D+00 0.591D+00
 Coeff-En:   0.000D+00 0.000D+00 0.100D+01
 Coeff:     -0.352D+00 0.747D+00 0.605D+00
 Gap=     0.325 Goal=   None    Shift=    0.000
 RMSDP=2.25D-03 MaxDP=1.95D-01 DE=-8.87D-02 OVMax= 1.91D-02

 Cycle   4  Pass 1  IDiag  1:
 RMSU=  1.37D-03    CP:  5.87D-01  1.57D+00  6.60D-01
 E= -925.311577843233     Delta-E=       -0.007542213020 Rises=F Damp=F
 DIIS: error= 9.46D-04 at cycle   4 NSaved=   4.
 NSaved= 4 IEnMin= 4 EnMin= -925.311577843233     IErMin= 4 ErrMin= 9.46D-04
 ErrMax= 9.46D-04  0.00D+00 EMaxC= 1.00D-01 BMatC= 2.73D-04 BMatP= 8.25D-03
 IDIUse=3 WtCom= 9.91D-01 WtEn= 9.46D-03
 Coeff-Com: -0.110D+00 0.235D+00 0.238D+00 0.637D+00
 Coeff-En:   0.000D+00 0.000D+00 0.000D+00 0.100D+01
 Coeff:     -0.109D+00 0.233D+00 0.236D+00 0.641D+00
 Gap=     0.324 Goal=   None    Shift=    0.000
 RMSDP=7.13D-04 MaxDP=5.96D-02 DE=-7.54D-03 OVMax= 4.22D-03

 Cycle   5  Pass 1  IDiag  1:
 RMSU=  2.47D-04    CP:  5.81D-01  1.60D+00  6.87D-01  8.48D-01
 E= -925.311864366988     Delta-E=       -0.000286523755 Rises=F Damp=F
 DIIS: error= 2.29D-04 at cycle   5 NSaved=   5.
 NSaved= 5 IEnMin= 5 EnMin= -925.311864366988     IErMin= 5 ErrMin= 2.29D-04
 ErrMax= 2.29D-04  0.00D+00 EMaxC= 1.00D-01 BMatC= 2.04D-05 BMatP= 2.73D-04
 IDIUse=3 WtCom= 9.98D-01 WtEn= 2.29D-03
 Coeff-Com:  0.260D-01-0.553D-01-0.261D-01 0.197D+00 0.859D+00
 Coeff-En:   0.000D+00 0.000D+00 0.000D+00 0.000D+00 0.100D+01
 Coeff:      0.259D-01-0.552D-01-0.260D-01 0.196D+00 0.859D+00
 Gap=     0.324 Goal=   None    Shift=    0.000
 RMSDP=1.56D-04 MaxDP=5.64D-03 DE=-2.87D-04 OVMax= 1.51D-03

 Cycle   6  Pass 1  IDiag  1:
 RMSU=  7.03D-05    CP:  5.81D-01  1.61D+00  7.01D-01  9.24D-01  1.23D+00
 E= -925.311890490256     Delta-E=       -0.000026123268 Rises=F Damp=F
 DIIS: error= 5.75D-05 at cycle   6 NSaved=   6.
 NSaved= 6 IEnMin= 6 EnMin= -925.311890490256     IErMin= 6 ErrMin= 5.75D-05
 ErrMax= 5.75D-05  0.00D+00 EMaxC= 1.00D-01 BMatC= 1.40D-06 BMatP= 2.04D-05
 IDIUse=1 WtCom= 1.00D+00 WtEn= 0.00D+00
 Coeff-Com:  0.132D-01-0.281D-01-0.168D-01 0.542D-01 0.330D+00 0.647D+00
 Coeff:      0.132D-01-0.281D-01-0.168D-01 0.542D-01 0.330D+00 0.647D+00
 Gap=     0.324 Goal=   None    Shift=    0.000
 RMSDP=7.14D-05 MaxDP=5.66D-03 DE=-2.61D-05 OVMax= 3.57D-04

 Cycle   7  Pass 1  IDiag  1:
 RMSU=  4.11D-05    CP:  5.81D-01  1.60D+00  7.02D-01  9.52D-01  1.17D+00
                    CP:  8.37D-01
 E= -925.311892204269     Delta-E=       -0.000001714014 Rises=F Damp=F
 DIIS: error= 1.53D-05 at cycle   7 NSaved=   7.
 NSaved= 7 IEnMin= 7 EnMin= -925.311892204269     IErMin= 7 ErrMin= 1.53D-05
 ErrMax= 1.53D-05  0.00D+00 EMaxC= 1.00D-01 BMatC= 1.00D-07 BMatP= 1.40D-06
 IDIUse=1 WtCom= 1.00D+00 WtEn= 0.00D+00
 Coeff-Com: -0.246D-02 0.527D-02 0.232D-02-0.287D-01-0.104D+00 0.957D-01
 Coeff-Com:  0.103D+01
 Coeff:     -0.246D-02 0.527D-02 0.232D-02-0.287D-01-0.104D+00 0.957D-01
 Coeff:      0.103D+01
 Gap=     0.324 Goal=   None    Shift=    0.000
 RMSDP=1.66D-05 MaxDP=9.89D-04 DE=-1.71D-06 OVMax= 2.58D-04

 Cycle   8  Pass 1  IDiag  1:
 RMSU=  6.13D-06    CP:  5.81D-01  1.60D+00  7.04D-01  9.54D-01  1.21D+00
                    CP:  9.32D-01  1.19D+00
 E= -925.311892438852     Delta-E=       -0.000000234583 Rises=F Damp=F
 DIIS: error= 3.96D-06 at cycle   8 NSaved=   8.
 NSaved= 8 IEnMin= 8 EnMin= -925.311892438852     IErMin= 8 ErrMin= 3.96D-06
 ErrMax= 3.96D-06  0.00D+00 EMaxC= 1.00D-01 BMatC= 4.26D-09 BMatP= 1.00D-07
 IDIUse=1 WtCom= 1.00D+00 WtEn= 0.00D+00
 Coeff-Com: -0.718D-03 0.153D-02 0.903D-03-0.566D-02-0.216D-01-0.156D-02
 Coeff-Com:  0.863D-01 0.941D+00
 Coeff:     -0.718D-03 0.153D-02 0.903D-03-0.566D-02-0.216D-01-0.156D-02
 Coeff:      0.863D-01 0.941D+00
 Gap=     0.324 Goal=   None    Shift=    0.000
 RMSDP=2.80D-06 MaxDP=1.74D-04 DE=-2.35D-07 OVMax= 5.30D-05

 Cycle   9  Pass 1  IDiag  1:
 RMSU=  1.08D-06    CP:  5.81D-01  1.60D+00  7.05D-01  9.53D-01  1.21D+00
                    CP:  9.38D-01  1.23D+00  1.27D+00
 E= -925.311892448822     Delta-E=       -0.000000009969 Rises=F Damp=F
 DIIS: error= 2.08D-06 at cycle   9 NSaved=   9.
 NSaved= 9 IEnMin= 9 EnMin= -925.311892448822     IErMin= 9 ErrMin= 2.08D-06
 ErrMax= 2.08D-06  0.00D+00 EMaxC= 1.00D-01 BMatC= 1.11D-09 BMatP= 4.26D-09
 IDIUse=1 WtCom= 1.00D+00 WtEn= 0.00D+00
 Coeff-Com:  0.174D-03-0.377D-03-0.344D-04 0.313D-02 0.114D-01-0.146D-01
 Coeff-Com: -0.165D+00 0.356D+00 0.809D+00
 Coeff:      0.174D-03-0.377D-03-0.344D-04 0.313D-02 0.114D-01-0.146D-01
 Coeff:     -0.165D+00 0.356D+00 0.809D+00
 Gap=     0.324 Goal=   None    Shift=    0.000
 RMSDP=1.46D-06 MaxDP=8.83D-05 DE=-9.97D-09 OVMax= 3.23D-05

 Cycle  10  Pass 1  IDiag  1:
 RMSU=  5.40D-07    CP:  5.81D-01  1.60D+00  7.05D-01  9.53D-01  1.21D+00
                    CP:  9.38D-01  1.24D+00  1.40D+00  8.59D-01
 E= -925.311892451028     Delta-E=       -0.000000002206 Rises=F Damp=F
 DIIS: error= 7.01D-07 at cycle  10 NSaved=  10.
 NSaved=10 IEnMin=10 EnMin= -925.311892451028     IErMin=10 ErrMin= 7.01D-07
 ErrMax= 7.01D-07  0.00D+00 EMaxC= 1.00D-01 BMatC= 1.33D-10 BMatP= 1.11D-09
 IDIUse=1 WtCom= 1.00D+00 WtEn= 0.00D+00
 Coeff-Com:  0.101D-03-0.216D-03-0.552D-04 0.137D-02 0.481D-02-0.370D-02
 Coeff-Com: -0.581D-01 0.309D-01 0.303D+00 0.722D+00
 Coeff:      0.101D-03-0.216D-03-0.552D-04 0.137D-02 0.481D-02-0.370D-02
 Coeff:     -0.581D-01 0.309D-01 0.303D+00 0.722D+00
 Gap=     0.324 Goal=   None    Shift=    0.000
 RMSDP=3.78D-07 MaxDP=3.47D-05 DE=-2.21D-09 OVMax= 8.07D-06

 Cycle  11  Pass 1  IDiag  1:
 RMSU=  1.59D-07    CP:  5.81D-01  1.60D+00  7.05D-01  9.53D-01  1.21D+00
                    CP:  9.38D-01  1.24D+00  1.42D+00  1.10D+00  8.69D-01
 E= -925.311892451223     Delta-E=       -0.000000000196 Rises=F Damp=F
 DIIS: error= 2.56D-07 at cycle  11 NSaved=  11.
 NSaved=11 IEnMin=11 EnMin= -925.311892451223     IErMin=11 ErrMin= 2.56D-07
 ErrMax= 2.56D-07  0.00D+00 EMaxC= 1.00D-01 BMatC= 3.38D-11 BMatP= 1.33D-10
 IDIUse=1 WtCom= 1.00D+00 WtEn= 0.00D+00
 Coeff-Com:  0.209D-04-0.443D-04-0.190D-04 0.123D-03 0.268D-03 0.117D-02
 Coeff-Com:  0.121D-02-0.638D-01 0.178D-01 0.372D+00 0.671D+00
 Coeff:      0.209D-04-0.443D-04-0.190D-04 0.123D-03 0.268D-03 0.117D-02
 Coeff:      0.121D-02-0.638D-01 0.178D-01 0.372D+00 0.671D+00
 Gap=     0.324 Goal=   None    Shift=    0.000
 RMSDP=1.53D-07 MaxDP=1.21D-05 DE=-1.96D-10 OVMax= 3.13D-06

 Cycle  12  Pass 1  IDiag  1:
 RMSU=  5.90D-08    CP:  5.81D-01  1.60D+00  7.05D-01  9.54D-01  1.21D+00
                    CP:  9.38D-01  1.24D+00  1.42D+00  1.08D+00  1.05D+00
                    CP:  9.64D-01
 E= -925.311892451260     Delta-E=       -0.000000000037 Rises=F Damp=F
 DIIS: error= 9.60D-08 at cycle  12 NSaved=  12.
 NSaved=12 IEnMin=12 EnMin= -925.311892451260     IErMin=12 ErrMin= 9.60D-08
 ErrMax= 9.60D-08  0.00D+00 EMaxC= 1.00D-01 BMatC= 1.51D-12 BMatP= 3.38D-11
 IDIUse=1 WtCom= 1.00D+00 WtEn= 0.00D+00
 Coeff-Com: -0.140D-04 0.304D-04 0.110D-04-0.219D-03-0.796D-03 0.907D-03
 Coeff-Com:  0.960D-02-0.126D-01-0.337D-01-0.934D-01-0.669D-02 0.114D+01
 Coeff:     -0.140D-04 0.304D-04 0.110D-04-0.219D-03-0.796D-03 0.907D-03
 Coeff:      0.960D-02-0.126D-01-0.337D-01-0.934D-01-0.669D-02 0.114D+01
 Gap=     0.324 Goal=   None    Shift=    0.000
 RMSDP=6.88D-08 MaxDP=3.41D-06 DE=-3.68D-11 OVMax= 1.29D-06

 Cycle  13  Pass 1  IDiag  1:
 RMSU=  2.22D-08    CP:  5.81D-01  1.60D+00  7.05D-01  9.54D-01  1.21D+00
                    CP:  9.38D-01  1.24D+00  1.42D+00  1.11D+00  1.08D+00
                    CP:  1.07D+00  1.42D+00
 E= -925.311892451223     Delta-E=        0.000000000037 Rises=F Damp=F
 DIIS: error= 2.30D-08 at cycle  13 NSaved=  13.
 NSaved=13 IEnMin=12 EnMin= -925.311892451260     IErMin=13 ErrMin= 2.30D-08
 ErrMax= 2.30D-08  0.00D+00 EMaxC= 1.00D-01 BMatC= 1.20D-13 BMatP= 1.51D-12
 IDIUse=1 WtCom= 1.00D+00 WtEn= 0.00D+00
 Coeff-Com: -0.358D-05 0.768D-05 0.349D-05-0.453D-04-0.152D-03 0.120D-03
 Coeff-Com:  0.157D-02 0.835D-03-0.482D-02-0.373D-01-0.488D-01 0.214D+00
 Coeff-Com:  0.874D+00
 Coeff:     -0.358D-05 0.768D-05 0.349D-05-0.453D-04-0.152D-03 0.120D-03
 Coeff:      0.157D-02 0.835D-03-0.482D-02-0.373D-01-0.488D-01 0.214D+00
 Coeff:      0.874D+00
 Gap=     0.324 Goal=   None    Shift=    0.000
 RMSDP=1.24D-08 MaxDP=8.43D-07 DE= 3.68D-11 OVMax= 2.78D-07

 Cycle  14  Pass 1  IDiag  1:
 RMSU=  4.69D-09    CP:  5.81D-01  1.60D+00  7.05D-01  9.54D-01  1.21D+00
                    CP:  9.38D-01  1.24D+00  1.42D+00  1.11D+00  1.08D+00
                    CP:  1.06D+00  1.54D+00  1.29D+00
 E= -925.311892451245     Delta-E=       -0.000000000022 Rises=F Damp=F
 DIIS: error= 7.75D-09 at cycle  14 NSaved=  14.
 NSaved=14 IEnMin=12 EnMin= -925.311892451260     IErMin=14 ErrMin= 7.75D-09
 ErrMax= 7.75D-09  0.00D+00 EMaxC= 1.00D-01 BMatC= 4.36D-14 BMatP= 1.20D-13
 IDIUse=1 WtCom= 1.00D+00 WtEn= 0.00D+00
 Coeff-Com:  0.595D-06-0.132D-05-0.198D-06 0.140D-04 0.576D-04-0.876D-04
 Coeff-Com: -0.815D-03 0.230D-02 0.335D-02-0.275D-02-0.249D-01-0.888D-01
 Coeff-Com:  0.417D+00 0.695D+00
 Coeff:      0.595D-06-0.132D-05-0.198D-06 0.140D-04 0.576D-04-0.876D-04
 Coeff:     -0.815D-03 0.230D-02 0.335D-02-0.275D-02-0.249D-01-0.888D-01
 Coeff:      0.417D+00 0.695D+00
 Gap=     0.324 Goal=   None    Shift=    0.000
 RMSDP=8.38D-09 MaxDP=6.37D-07 DE=-2.23D-11 OVMax= 8.57D-08

 SCF Done:  E(RwB97XD) =  -925.311892451     A.U. after   14 cycles
            NFock= 14  Conv=0.84D-08     -V/T= 2.0044
 KE= 9.212954783377D+02 PE=-5.611200713056D+03 EE= 2.032207171334D+03
 Leave Link  502 at Mon Nov 14 15:09:27 2022, MaxMem= 16106127360 cpu:            4552.7 elap:             142.9
 (Enter /opt/ap/G16/B01/g16/l601.exe)
 Copying SCF densities to generalized density rwf, IOpCl= 0 IROHF=0.

 **********************************************************************

            Population analysis using the SCF Density.

 **********************************************************************

 Orbital symmetries:
       Occupied  (A) (A) (A) (A) (A) (A) (A) (A) (A) (A) (A) (A)
                 (A) (A) (A) (A) (A) (A) (A) (A) (A) (A) (A) (A)
                 (A) (A) (A) (A) (A) (A) (A) (A) (A) (A) (A) (A)
                 (A) (A) (A) (A) (A) (A) (A) (A) (A) (A) (A) (A)
                 (A) (A) (A) (A) (A) (A) (A) (A) (A) (A) (A) (A)
                 (A) (A) (A) (A) (A) (A) (A) (A) (A) (A) (A) (A)
                 (A) (A) (A) (A) (A) (A) (A) (A) (A)
       Virtual   (A) (A) (A) (A) (A) (A) (A) (A) (A) (A) (A) (A)
                 (A) (A) (A) (A) (A) (A) (A) (A) (A) (A) (A) (A)
                 (A) (A) (A) (A) (A) (A) (A) (A) (A) (A) (A) (A)
                 (A) (A) (A) (A) (A) (A) (A) (A) (A) (A) (A) (A)
                 (A) (A) (A) (A) (A) (A) (A) (A) (A) (A) (A) (A)
                 (A) (A) (A) (A) (A) (A) (A) (A) (A) (A) (A) (A)
                 (A) (A) (A) (A) (A) (A) (A) (A) (A) (A) (A) (A)
                 (A) (A) (A) (A) (A) (A) (A) (A) (A) (A) (A) (A)
                 (A) (A) (A) (A) (A) (A) (A) (A) (A) (A) (A) (A)
                 (A) (A) (A) (A) (A) (A) (A) (A) (A) (A) (A) (A)
                 (A) (A) (A) (A) (A) (A) (A) (A) (A) (A) (A) (A)
                 (A) (A) (A) (A) (A) (A) (A) (A) (A) (A) (A) (A)
                 (A) (A) (A) (A) (A) (A) (A) (A) (A) (A) (A) (A)
                 (A) (A) (A) (A) (A) (A) (A) (A) (A) (A) (A) (A)
                 (A) (A) (A) (A) (A) (A) (A) (A) (A) (A) (A) (A)
                 (A) (A) (A) (A) (A) (A) (A) (A) (A) (A) (A) (A)
                 (A) (A) (A) (A) (A) (A) (A) (A) (A) (A) (A) (A)
                 (A) (A) (A) (A) (A) (A) (A) (A) (A) (A) (A) (A)
                 (A) (A) (A) (A) (A) (A) (A) (A) (A) (A) (A) (A)
                 (A) (A) (A) (A) (A) (A) (A) (A) (A) (A) (A) (A)
                 (A) (A) (A) (A) (A) (A) (A) (A) (A) (A) (A) (A)
                 (A) (A) (A) (A) (A) (A) (A) (A) (A) (A) (A) (A)
                 (A) (A) (A) (A) (A) (A) (A) (A) (A) (A) (A) (A)
                 (A) (A) (A) (A) (A) (A) (A) (A) (A) (A) (A) (A)
                 (A) (A) (A) (A) (A) (A) (A) (A) (A) (A) (A) (A)
                 (A) (A) (A) (A) (A) (A) (A) (A) (A) (A) (A) (A)
                 (A) (A) (A) (A) (A) (A) (A) (A) (A) (A) (A) (A)
                 (A) (A) (A) (A) (A) (A) (A) (A) (A) (A) (A) (A)
                 (A) (A) (A) (A) (A) (A) (A) (A) (A) (A) (A) (A)
                 (A) (A) (A) (A) (A) (A) (A) (A) (A) (A) (A) (A)
                 (A) (A) (A) (A) (A) (A) (A) (A) (A) (A) (A) (A)
                 (A) (A) (A) (A) (A) (A) (A) (A) (A) (A) (A) (A)
                 (A) (A) (A) (A) (A) (A) (A) (A) (A) (A) (A) (A)
                 (A) (A) (A) (A) (A) (A) (A) (A) (A) (A) (A) (A)
                 (A) (A) (A) (A) (A) (A) (A) (A) (A) (A) (A) (A)
                 (A) (A) (A) (A) (A) (A) (A) (A) (A) (A) (A) (A)
                 (A) (A) (A) (A) (A) (A) (A) (A) (A) (A) (A) (A)
                 (A) (A) (A) (A) (A) (A) (A) (A) (A) (A) (A) (A)
                 (A) (A) (A) (A) (A) (A) (A) (A) (A) (A) (A) (A)
                 (A) (A) (A) (A) (A) (A) (A) (A) (A) (A) (A) (A)
                 (A) (A) (A) (A) (A) (A) (A) (A) (A) (A) (A) (A)
                 (A) (A) (A) (A) (A) (A) (A) (A) (A) (A) (A) (A)
                 (A) (A) (A) (A) (A) (A) (A) (A) (A) (A) (A) (A)
                 (A) (A) (A) (A) (A) (A) (A) (A) (A) (A) (A) (A)
                 (A) (A) (A) (A) (A) (A) (A) (A) (A) (A) (A) (A)
                 (A) (A) (A) (A) (A) (A) (A) (A) (A) (A) (A) (A)
                 (A) (A) (A) (A) (A) (A) (A) (A) (A) (A) (A) (A)
 The electronic state is 1-A.
 Alpha  occ. eigenvalues --  -10.30429 -10.30425 -10.30424 -10.30338 -10.30334
 Alpha  occ. eigenvalues --  -10.30328 -10.29267 -10.29258 -10.29256 -10.29254
 Alpha  occ. eigenvalues --  -10.29233 -10.29232 -10.29185 -10.29180 -10.29178
 Alpha  occ. eigenvalues --  -10.29176 -10.29142 -10.29142 -10.29122 -10.29105
 Alpha  occ. eigenvalues --  -10.29105 -10.29077 -10.29076 -10.29073  -0.98994
 Alpha  occ. eigenvalues --   -0.97069  -0.97057  -0.95276  -0.89437  -0.89430
 Alpha  occ. eigenvalues --   -0.85348  -0.85326  -0.85272  -0.85063  -0.82259
 Alpha  occ. eigenvalues --   -0.82254  -0.73558  -0.73532  -0.71150  -0.70769
 Alpha  occ. eigenvalues --   -0.70148  -0.70111  -0.66716  -0.66704  -0.63570
 Alpha  occ. eigenvalues --   -0.60713  -0.60703  -0.58672  -0.57306  -0.56674
 Alpha  occ. eigenvalues --   -0.54920  -0.54809  -0.54375  -0.54171  -0.52777
 Alpha  occ. eigenvalues --   -0.51870  -0.51479  -0.51431  -0.51171  -0.50883
 Alpha  occ. eigenvalues --   -0.50784  -0.47905  -0.46725  -0.46240  -0.45875
 Alpha  occ. eigenvalues --   -0.45772  -0.44962  -0.44355  -0.43178  -0.43117
 Alpha  occ. eigenvalues --   -0.42934  -0.41714  -0.41601  -0.36628  -0.36424
 Alpha  occ. eigenvalues --   -0.33646  -0.33632  -0.33620  -0.32988  -0.30415
 Alpha  occ. eigenvalues --   -0.30259
 Alpha virt. eigenvalues --    0.02133   0.02245   0.03673   0.04193   0.04283
 Alpha virt. eigenvalues --    0.04642   0.04836   0.04912   0.05120   0.05141
 Alpha virt. eigenvalues --    0.05214   0.05683   0.05819   0.06777   0.07006
 Alpha virt. eigenvalues --    0.07082   0.07878   0.07987   0.08221   0.08578
 Alpha virt. eigenvalues --    0.08730   0.09001   0.09230   0.09887   0.11083
 Alpha virt. eigenvalues --    0.11473   0.12148   0.12485   0.12752   0.13339
 Alpha virt. eigenvalues --    0.13728   0.13771   0.14302   0.14374   0.15459
 Alpha virt. eigenvalues --    0.15606   0.15806   0.15880   0.16130   0.16181
 Alpha virt. eigenvalues --    0.16527   0.16824   0.17000   0.17382   0.17460
 Alpha virt. eigenvalues --    0.17575   0.17765   0.18048   0.18080   0.18287
 Alpha virt. eigenvalues --    0.18345   0.18467   0.18511   0.18782   0.19113
 Alpha virt. eigenvalues --    0.19283   0.19467   0.19564   0.20210   0.20444
 Alpha virt. eigenvalues --    0.20529   0.20905   0.21136   0.21534   0.21593
 Alpha virt. eigenvalues --    0.22267   0.22357   0.22400   0.22726   0.22970
 Alpha virt. eigenvalues --    0.23237   0.23476   0.23638   0.23810   0.23840
 Alpha virt. eigenvalues --    0.24692   0.24791   0.25235   0.25313   0.25552
 Alpha virt. eigenvalues --    0.25644   0.26005   0.26528   0.26928   0.27443
 Alpha virt. eigenvalues --    0.27489   0.27700   0.27798   0.28226   0.28549
 Alpha virt. eigenvalues --    0.28713   0.29047   0.29286   0.29332   0.29513
 Alpha virt. eigenvalues --    0.29700   0.29855   0.30508   0.31123   0.31262
 Alpha virt. eigenvalues --    0.31522   0.32092   0.32350   0.32959   0.33197
 Alpha virt. eigenvalues --    0.33502   0.33882   0.34057   0.34305   0.34430
 Alpha virt. eigenvalues --    0.34897   0.34924   0.34946   0.35300   0.35767
 Alpha virt. eigenvalues --    0.35886   0.36488   0.36656   0.36732   0.37022
 Alpha virt. eigenvalues --    0.37376   0.37430   0.37842   0.37996   0.38475
 Alpha virt. eigenvalues --    0.38536   0.38758   0.39241   0.39470   0.39709
 Alpha virt. eigenvalues --    0.39890   0.40670   0.40741   0.41303   0.41703
 Alpha virt. eigenvalues --    0.42009   0.42031   0.42323   0.43171   0.43470
 Alpha virt. eigenvalues --    0.43831   0.43854   0.44638   0.44763   0.44806
 Alpha virt. eigenvalues --    0.45293   0.45939   0.47720   0.47784   0.48055
 Alpha virt. eigenvalues --    0.48452   0.49462   0.53144   0.53725   0.57161
 Alpha virt. eigenvalues --    0.58249   0.58581   0.59037   0.59203   0.60626
 Alpha virt. eigenvalues --    0.62218   0.62256   0.62510   0.62898   0.62996
 Alpha virt. eigenvalues --    0.63334   0.63828   0.63874   0.64045   0.64200
 Alpha virt. eigenvalues --    0.64333   0.65205   0.65283   0.65429   0.65808
 Alpha virt. eigenvalues --    0.66000   0.66376   0.67268   0.67369   0.67449
 Alpha virt. eigenvalues --    0.68442   0.69238   0.69900   0.70085   0.70804
 Alpha virt. eigenvalues --    0.70876   0.71154   0.71507   0.72084   0.72219
 Alpha virt. eigenvalues --    0.72926   0.73317   0.73769   0.73975   0.74091
 Alpha virt. eigenvalues --    0.75489   0.76137   0.76758   0.76800   0.77845
 Alpha virt. eigenvalues --    0.78664   0.79084   0.79843   0.80338   0.80523
 Alpha virt. eigenvalues --    0.80739   0.81314   0.81352   0.81949   0.82408
 Alpha virt. eigenvalues --    0.82571   0.82696   0.83249   0.83833   0.84139
 Alpha virt. eigenvalues --    0.84649   0.84781   0.84862   0.85111   0.85650
 Alpha virt. eigenvalues --    0.85899   0.86898   0.88100   0.88194   0.88731
 Alpha virt. eigenvalues --    0.89280   0.89826   0.91465   0.91668   0.92066
 Alpha virt. eigenvalues --    0.92150   0.92425   0.93446   0.93701   0.93894
 Alpha virt. eigenvalues --    0.93992   0.94530   0.94736   0.96233   0.96516
 Alpha virt. eigenvalues --    0.96717   0.97000   0.97108   0.98391   0.99291
 Alpha virt. eigenvalues --    0.99769   1.00318   1.00622   1.01256   1.01894
 Alpha virt. eigenvalues --    1.02573   1.02812   1.04039   1.04351   1.04497
 Alpha virt. eigenvalues --    1.05782   1.06015   1.06973   1.07209   1.07281
 Alpha virt. eigenvalues --    1.07540   1.07981   1.08723   1.09154   1.11689
 Alpha virt. eigenvalues --    1.12014   1.12873   1.13063   1.13261   1.13724
 Alpha virt. eigenvalues --    1.14691   1.14791   1.16822   1.16932   1.17231
 Alpha virt. eigenvalues --    1.17843   1.18396   1.19150   1.19343   1.20960
 Alpha virt. eigenvalues --    1.21746   1.22326   1.22689   1.23791   1.24105
 Alpha virt. eigenvalues --    1.24267   1.24732   1.24794   1.29101   1.29276
 Alpha virt. eigenvalues --    1.37641   1.39584   1.41250   1.41399   1.41701
 Alpha virt. eigenvalues --    1.45792   1.47310   1.47772   1.52423   1.55683
 Alpha virt. eigenvalues --    1.56373   1.58067   1.58416   1.59350   1.59390
 Alpha virt. eigenvalues --    1.59595   1.60181   1.61045   1.61271   1.61437
 Alpha virt. eigenvalues --    1.61798   1.62011   1.62372   1.63318   1.63534
 Alpha virt. eigenvalues --    1.64254   1.65575   1.65672   1.66008   1.66402
 Alpha virt. eigenvalues --    1.66882   1.67065   1.67890   1.68650   1.68950
 Alpha virt. eigenvalues --    1.69372   1.72816   1.73618   1.73980   1.74085
 Alpha virt. eigenvalues --    1.74233   1.75249   1.75462   1.75852   1.76362
 Alpha virt. eigenvalues --    1.77656   1.78360   1.81480   1.82233   1.82883
 Alpha virt. eigenvalues --    1.82892   1.82949   1.83947   1.84615   1.84723
 Alpha virt. eigenvalues --    1.85352   1.86316   1.86444   1.86895   1.87675
 Alpha virt. eigenvalues --    1.87837   1.89700   1.92383   1.92557   1.93209
 Alpha virt. eigenvalues --    1.93952   1.94115   1.97216   1.99716   2.00085
 Alpha virt. eigenvalues --    2.00854   2.01902   2.02331   2.02497   2.02998
 Alpha virt. eigenvalues --    2.03014   2.03344   2.03840   2.04487   2.04564
 Alpha virt. eigenvalues --    2.04635   2.04668   2.05577   2.05663   2.06094
 Alpha virt. eigenvalues --    2.07019   2.07498   2.07568   2.08188   2.08721
 Alpha virt. eigenvalues --    2.10717   2.11634   2.12084   2.12753   2.13026
 Alpha virt. eigenvalues --    2.13601   2.14612   2.15258   2.16874   2.17446
 Alpha virt. eigenvalues --    2.18155   2.18833   2.19853   2.20230   2.20547
 Alpha virt. eigenvalues --    2.24027   2.27896   2.30389   2.33805   2.35422
 Alpha virt. eigenvalues --    2.36544   2.36653   2.38211   2.39824   2.43815
 Alpha virt. eigenvalues --    2.44305   2.44923   2.45855   2.48587   2.49342
 Alpha virt. eigenvalues --    2.51786   2.53033   2.53238   2.53448   2.54809
 Alpha virt. eigenvalues --    2.55466   2.56351   2.56616   2.56667   2.57948
 Alpha virt. eigenvalues --    2.58451   2.58742   2.62244   2.62796   2.63240
 Alpha virt. eigenvalues --    2.72763   2.73174   2.73558   2.75643   2.75952
 Alpha virt. eigenvalues --    2.76156   2.76492   2.78666   2.79209   2.79787
 Alpha virt. eigenvalues --    2.80052   2.80260   2.80497   2.80661   2.80741
 Alpha virt. eigenvalues --    2.81432   2.82210   2.82819   2.83101   2.83163
 Alpha virt. eigenvalues --    2.83218   2.84160   2.85358   2.85966   2.87036
 Alpha virt. eigenvalues --    2.87137   2.87579   2.87664   2.90983   2.92402
 Alpha virt. eigenvalues --    2.92443   2.92616   2.93041   2.93094   2.93450
 Alpha virt. eigenvalues --    2.93965   2.94438   2.94729   2.94883   2.97827
 Alpha virt. eigenvalues --    2.99884   3.00338   3.01316   3.01446   3.02090
 Alpha virt. eigenvalues --    3.04388   3.04632   3.04785   3.05342   3.05588
 Alpha virt. eigenvalues --    3.06551   3.06601   3.07666   3.07808   3.11401
 Alpha virt. eigenvalues --    3.11881   3.15804   3.18638   3.19348   3.19757
 Alpha virt. eigenvalues --    3.21271   3.22721   3.25435   3.31731   3.31920
 Alpha virt. eigenvalues --    3.32320   3.33691   3.34791   3.35543   3.37225
 Alpha virt. eigenvalues --    3.47168   3.47324   3.49055   3.49470   3.49689
 Alpha virt. eigenvalues --    3.49938   3.53574   3.53735   3.60677   3.60907
 Alpha virt. eigenvalues --    3.61325   3.63365   3.64898   3.65364   3.66122
 Alpha virt. eigenvalues --    3.73709   3.73754   3.76294   3.76316   3.76638
 Alpha virt. eigenvalues --    3.77380   3.90969   3.92337   3.93044   4.09783
 Alpha virt. eigenvalues --    4.09975   4.10286   4.14519   4.14527   4.14626
 Alpha virt. eigenvalues --    4.24157   4.24282   4.26101   4.26128   4.26606
 Alpha virt. eigenvalues --    4.26927   4.28117   4.28390   4.50273   4.66469
 Alpha virt. eigenvalues --    4.66910   4.93674   4.95278   4.95733   4.98548
 Alpha virt. eigenvalues --   23.68292  23.81522  23.81806  23.88078  24.08426
 Alpha virt. eigenvalues --   24.08475  24.10865  24.10970  24.11213  24.11542
 Alpha virt. eigenvalues --   24.12985  24.13057  24.20441  24.20619  24.20952
 Alpha virt. eigenvalues --   24.24084  24.24352  24.24377  24.24622  24.24681
 Alpha virt. eigenvalues --   24.31230  24.33808  24.33842  24.34877
          Condensed to atoms (all electrons):
               1          2          3          4          5          6
     1  C   19.412043   1.475493   0.270505  -5.561594  -0.049108   0.613417
     2  C    1.475493  11.254470  -0.049905   1.467012   0.368714  -1.939469
     3  C    0.270505  -0.049905  13.444872  -2.642578   0.103132  -2.643832
     4  C   -5.561594   1.467012  -2.642578  19.349317  -0.060687  -0.186628
     5  H   -0.049108   0.368714   0.103132  -0.060687   0.525243  -0.051357
     6  C    0.613417  -1.939469  -2.643832  -0.186628  -0.051357  14.849318
     7  C   -6.843128  -2.224543   1.840424  -6.904791   0.064736  -0.890022
     8  H   -0.070830   0.019861   0.313237   0.114410  -0.001939   0.052581
     9  C   -2.815676  -0.204115  -0.164805   0.250913   0.099620  -1.522896
    10  C   -0.246038  -1.962573  -1.537841   0.683741  -0.054792   0.832534
    11  C   -0.108080   2.173394  -2.819178   1.039331  -0.100961  -0.591457
    12  C   -1.599027  -2.523417   2.972776  -0.973091   0.047105  -1.398951
    13  C   -0.406614  -1.632914  -2.086878  -0.500049  -0.034956   1.175687
    14  H    0.110943   0.027748   0.060796  -0.095171  -0.001519  -0.017237
    15  C    1.129242   2.431797  -0.125287  -0.142030  -0.081233   0.352051
    16  C   -1.037203  -2.774076   0.144450  -1.604189   0.039961  -0.093083
    17  C   -0.210755   0.599045   0.192994   0.381435   0.032428  -2.094363
    18  H    0.029814   0.000015  -0.083453  -0.032155  -0.013562  -0.011872
    19  C    0.137050   0.050203   0.222915  -0.115881   0.008088  -1.542463
    20  H    0.084004  -0.006320  -0.036367   0.005412  -0.002641   0.004768
    21  C    1.937971   0.065802   2.332878  -1.191894  -0.002565  -0.111637
    22  C   -1.229106  -0.010739  -2.448781   1.907266  -0.001144   0.162131
    23  C    0.346746   0.546565   0.081731  -0.220367   0.033946   0.033185
    24  H   -0.028612   0.003138  -0.024127   0.022034  -0.014014   0.034191
    25  C   -0.094822   0.061473   0.060447   0.138643   0.006053  -0.075896
    26  H    0.003247  -0.007205  -0.012433   0.092236  -0.002768   0.012107
    27  C   -0.208249  -0.154843  -0.072865  -0.062319  -0.000334  -0.200637
    28  H    0.002047   0.001310   0.012214   0.006516   0.000293   0.022678
    29  H   -0.000842   0.003177   0.004635   0.000702   0.000257   0.012500
    30  C    0.228386   0.076166   0.367083  -0.144287   0.001954  -0.086062
    31  H   -0.083126  -0.020325  -0.060328   0.007844  -0.000021   0.002542
    32  C   -0.148281   0.073132   0.094601   0.252562   0.001822  -0.045380
    33  H    0.006830  -0.021089  -0.013806  -0.085965   0.000058   0.011872
    34  C   -0.064735  -0.138958  -0.029598  -0.194423   0.000520   0.033301
    35  H    0.006222   0.000522   0.001375   0.001918   0.000395  -0.002082
    36  H    0.001022   0.002718   0.000410  -0.001478   0.000277  -0.000730
    37  H   -0.006054  -0.003900  -0.005529   0.000300  -0.000275   0.025283
    38  C    0.028266  -0.022258  -0.085964   0.024907  -0.000694   0.046276
    39  H    0.004219   0.000510   0.008065   0.000354   0.000007  -0.003816
    40  H    0.000593   0.000410   0.005208   0.004530   0.000001  -0.001028
    41  H    0.000232  -0.003312  -0.000817  -0.005392  -0.000264   0.000820
    42  H    0.001085  -0.000758  -0.005271   0.000983  -0.000015   0.001205
               7          8          9         10         11         12
     1  C   -6.843128  -0.070830  -2.815676  -0.246038  -0.108080  -1.599027
     2  C   -2.224543   0.019861  -0.204115  -1.962573   2.173394  -2.523417
     3  C    1.840424   0.313237  -0.164805  -1.537841  -2.819178   2.972776
     4  C   -6.904791   0.114410   0.250913   0.683741   1.039331  -0.973091
     5  H    0.064736  -0.001939   0.099620  -0.054792  -0.100961   0.047105
     6  C   -0.890022   0.052581  -1.522896   0.832534  -0.591457  -1.398951
     7  C   19.736869  -0.057204   1.881318  -0.863367  -0.988951   1.666489
     8  H   -0.057204   0.495615   0.060300  -0.019406   0.079359  -0.143107
     9  C    1.881318   0.060300  13.618350  -2.516811  -0.209673   0.176163
    10  C   -0.863367  -0.019406  -2.516811  14.721143   0.358476  -0.085713
    11  C   -0.988951   0.079359  -0.209673   0.358476  16.602046  -8.820116
    12  C    1.666489  -0.143107   0.176163  -0.085713  -8.820116  17.713288
    13  C    0.449523   0.008437  -2.144037   1.225553   0.138801  -0.025340
    14  H   -0.026433  -0.002667   0.298702   0.057912  -0.005340   0.003822
    15  C   -0.937970  -0.007781  -3.015281  -0.745988  -0.368057   0.167533
    16  C    1.627316   0.006533   3.260076  -1.346754   0.152333  -0.065316
    17  C   -0.080124   0.017711   0.089631   0.039717  -0.797315   0.163501
    18  H   -0.015994  -0.001741  -0.025613   0.033364   0.574467  -0.072418
    19  C    0.227626  -0.014555   0.060424  -0.081706   0.268171  -0.648431
    20  H   -0.079832  -0.000295  -0.011134   0.013094  -0.019550   0.412999
    21  C   -1.143578  -0.101756  -2.578119   0.194544  -0.125081   0.174404
    22  C   -1.261106   0.055646   2.473960  -0.187387   0.100767  -0.101601
    23  C   -0.059791  -0.002264   0.197157  -2.107362  -0.116265   0.050586
    24  H   -0.014090   0.000078  -0.082547  -0.018339  -0.002439   0.006003
    25  C    0.206084   0.003187   0.182556  -1.526440   0.027963  -0.011707
    26  H   -0.087428   0.000130  -0.035095  -0.001880  -0.005062   0.003992
    27  C   -0.008240  -0.002173  -0.033441   0.034025  -0.147967  -0.380376
    28  H    0.004363   0.000324   0.001611  -0.001995  -0.117407   0.026863
    29  H    0.005669  -0.001007   0.000425  -0.000849   0.002131  -0.076922
    30  C    0.000825  -0.015640   0.118759  -0.047474   0.006836  -0.032211
    31  H    0.079140  -0.001320  -0.015137   0.012419  -0.006443   0.028022
    32  C   -0.012390   0.011820   0.403664  -0.079282  -0.018341   0.033212
    33  H    0.080304  -0.003005  -0.059321   0.001285   0.004929  -0.004452
    34  C   -0.011913   0.000185  -0.064824  -0.168533  -0.005735   0.000231
    35  H    0.004529  -0.000056   0.012212   0.019676  -0.000320   0.000335
    36  H    0.005970  -0.000026   0.004784   0.009732   0.000177  -0.000019
    37  H    0.000284   0.000246  -0.000880   0.000845   0.020727  -0.013951
    38  C   -0.296468  -0.001773  -0.095858   0.045089   0.007747  -0.020363
    39  H    0.001778  -0.000728   0.005428  -0.001070  -0.000607   0.001955
    40  H    0.001758   0.000473   0.007835  -0.003742  -0.000279   0.000466
    41  H    0.000230  -0.000003  -0.005386   0.026246  -0.000099   0.000031
    42  H   -0.007145  -0.000018  -0.005738   0.001194   0.000186  -0.000488
              13         14         15         16         17         18
     1  C   -0.406614   0.110943   1.129242  -1.037203  -0.210755   0.029814
     2  C   -1.632914   0.027748   2.431797  -2.774076   0.599045   0.000015
     3  C   -2.086878   0.060796  -0.125287   0.144450   0.192994  -0.083453
     4  C   -0.500049  -0.095171  -0.142030  -1.604189   0.381435  -0.032155
     5  H   -0.034956  -0.001519  -0.081233   0.039961   0.032428  -0.013562
     6  C    1.175687  -0.017237   0.352051  -0.093083  -2.094363  -0.011872
     7  C    0.449523  -0.026433  -0.937970   1.627316  -0.080124  -0.015994
     8  H    0.008437  -0.002667  -0.007781   0.006533   0.017711  -0.001741
     9  C   -2.144037   0.298702  -3.015281   3.260076   0.089631  -0.025613
    10  C    1.225553   0.057912  -0.745988  -1.346754   0.039717   0.033364
    11  C    0.138801  -0.005340  -0.368057   0.152333  -0.797315   0.574467
    12  C   -0.025340   0.003822   0.167533  -0.065316   0.163501  -0.072418
    13  C   13.539556   0.017389   0.142084  -0.088192  -0.038589   0.016342
    14  H    0.017389   0.500656   0.084244  -0.154425  -0.002451   0.000165
    15  C    0.142084   0.084244  16.229641  -8.680050  -0.122320  -0.001397
    16  C   -0.088192  -0.154425  -8.680050  17.684253   0.053805   0.003410
    17  C   -0.038589  -0.002451  -0.122320   0.053805   8.373412  -0.116417
    18  H    0.016342   0.000165  -0.001397   0.003410  -0.116417   0.484595
    19  C   -0.105308   0.003315   0.031123  -0.012611  -0.625075  -0.000039
    20  H   -0.004696  -0.000000  -0.005778   0.004312  -0.010950   0.000751
    21  C   -0.697118   0.064648   0.121301  -0.145156   0.022977  -0.004005
    22  C   -0.698045  -0.114284  -0.156719   0.262012  -0.008476   0.004102
    23  C   -0.037527   0.017486  -0.511746   0.056906  -0.010161  -0.006755
    24  H    0.016276  -0.001804   0.566244  -0.070655  -0.007158   0.002265
    25  C   -0.103784  -0.015528   0.260219  -0.589320   0.001276  -0.000638
    26  H   -0.011409  -0.001321  -0.023274   0.421778  -0.000440   0.000197
    27  C    0.040832   0.000174  -0.004909  -0.000464   0.276967   0.024401
    28  H   -0.001203  -0.000058  -0.000393   0.000424   0.441577  -0.011515
    29  H   -0.002533  -0.000019   0.000269  -0.000046   0.013048  -0.000170
    30  C   -1.691771   0.007929  -0.018168   0.035565   0.007820  -0.000954
    31  H    0.017536  -0.002707   0.005753  -0.005590   0.001268   0.000004
    32  C   -1.706530  -0.015004   0.009306  -0.034204  -0.001102  -0.000413
    33  H    0.025628  -0.001127  -0.007201   0.028938  -0.000055   0.000304
    34  C    0.037181  -0.002943  -0.251991  -0.363156  -0.000849   0.000286
    35  H   -0.001173   0.000317  -0.109881   0.025627   0.000094  -0.000077
    36  H   -0.002189  -0.000941   0.002077  -0.072107  -0.000002  -0.000005
    37  H    0.001161  -0.000003  -0.000088   0.000022  -0.082679   0.001116
    38  C   -0.207473   0.000271   0.007007  -0.020282  -0.000151   0.000249
    39  H    0.017721   0.000359  -0.000294   0.000537  -0.000033  -0.000005
    40  H    0.015607  -0.000874  -0.000554   0.002006   0.000021  -0.000013
    41  H    0.001101   0.000234   0.018411  -0.016692  -0.000021   0.000039
    42  H    0.022163   0.000058   0.000170  -0.000496  -0.000001   0.000006
              19         20         21         22         23         24
     1  C    0.137050   0.084004   1.937971  -1.229106   0.346746  -0.028612
     2  C    0.050203  -0.006320   0.065802  -0.010739   0.546565   0.003138
     3  C    0.222915  -0.036367   2.332878  -2.448781   0.081731  -0.024127
     4  C   -0.115881   0.005412  -1.191894   1.907266  -0.220367   0.022034
     5  H    0.008088  -0.002641  -0.002565  -0.001144   0.033946  -0.014014
     6  C   -1.542463   0.004768  -0.111637   0.162131   0.033185   0.034191
     7  C    0.227626  -0.079832  -1.143578  -1.261106  -0.059791  -0.014090
     8  H   -0.014555  -0.000295  -0.101756   0.055646  -0.002264   0.000078
     9  C    0.060424  -0.011134  -2.578119   2.473960   0.197157  -0.082547
    10  C   -0.081706   0.013094   0.194544  -0.187387  -2.107362  -0.018339
    11  C    0.268171  -0.019550  -0.125081   0.100767  -0.116265  -0.002439
    12  C   -0.648431   0.412999   0.174404  -0.101601   0.050586   0.006003
    13  C   -0.105308  -0.004696  -0.697118  -0.698045  -0.037527   0.016276
    14  H    0.003315  -0.000000   0.064648  -0.114284   0.017486  -0.001804
    15  C    0.031123  -0.005778   0.121301  -0.156719  -0.511746   0.566244
    16  C   -0.012611   0.004312  -0.145156   0.262012   0.056906  -0.070655
    17  C   -0.625075  -0.010950   0.022977  -0.008476  -0.010161  -0.007158
    18  H   -0.000039   0.000751  -0.004005   0.004102  -0.006755   0.002265
    19  C    7.707015  -0.046718  -0.007535  -0.001950   0.001972  -0.000906
    20  H   -0.046718   0.489503   0.019952  -0.005496  -0.000521   0.000170
    21  C   -0.007535   0.019952  14.424760  -6.411130  -0.007930   0.004352
    22  C   -0.001950  -0.005496  -6.411130  14.350404   0.022053  -0.004243
    23  C    0.001972  -0.000521  -0.007930   0.022053   8.220551  -0.103092
    24  H   -0.000906   0.000170   0.004352  -0.004243  -0.103092   0.487742
    25  C    0.001299  -0.000077  -0.001968  -0.005472  -0.616295  -0.001356
    26  H   -0.000090   0.000194  -0.008951   0.028030  -0.014990   0.000796
    27  C    0.448397   0.008784  -0.016985   0.005808  -0.001078   0.000483
    28  H    0.005185  -0.000387   0.000439  -0.000166   0.000094  -0.000070
    29  H    0.413970  -0.009203   0.001275  -0.000294   0.000012  -0.000007
    30  C   -0.021336   0.001399  -0.197320  -0.173632  -0.001019  -0.000411
    31  H   -0.005136  -0.004298   0.437083  -0.013831  -0.000096   0.000336
    32  C    0.005727   0.000878  -0.257499  -0.104546   0.007180  -0.000842
    33  H   -0.000867  -0.000024  -0.007348   0.425677   0.001546  -0.000001
    34  C   -0.000531  -0.000000   0.005399  -0.015378   0.331593   0.023019
    35  H    0.000058   0.000015  -0.000189   0.000465   0.437028  -0.011432
    36  H    0.000007  -0.000004  -0.000217   0.001018   0.014305  -0.000184
    37  H   -0.060845   0.001188  -0.000529   0.000172  -0.000024   0.000043
    38  C   -0.004417  -0.000680  -0.230068  -0.318216  -0.000115   0.000225
    39  H    0.000629   0.000411  -0.084133   0.001467   0.000019  -0.000013
    40  H    0.000026   0.000046  -0.001513  -0.080897  -0.000043  -0.000004
    41  H   -0.000012   0.000003   0.000168  -0.000514  -0.081715   0.001086
    42  H   -0.000121  -0.000040   0.007903   0.003104  -0.000001   0.000005
              25         26         27         28         29         30
     1  C   -0.094822   0.003247  -0.208249   0.002047  -0.000842   0.228386
     2  C    0.061473  -0.007205  -0.154843   0.001310   0.003177   0.076166
     3  C    0.060447  -0.012433  -0.072865   0.012214   0.004635   0.367083
     4  C    0.138643   0.092236  -0.062319   0.006516   0.000702  -0.144287
     5  H    0.006053  -0.002768  -0.000334   0.000293   0.000257   0.001954
     6  C   -0.075896   0.012107  -0.200637   0.022678   0.012500  -0.086062
     7  C    0.206084  -0.087428  -0.008240   0.004363   0.005669   0.000825
     8  H    0.003187   0.000130  -0.002173   0.000324  -0.001007  -0.015640
     9  C    0.182556  -0.035095  -0.033441   0.001611   0.000425   0.118759
    10  C   -1.526440  -0.001880   0.034025  -0.001995  -0.000849  -0.047474
    11  C    0.027963  -0.005062  -0.147967  -0.117407   0.002131   0.006836
    12  C   -0.011707   0.003992  -0.380376   0.026863  -0.076922  -0.032211
    13  C   -0.103784  -0.011409   0.040832  -0.001203  -0.002533  -1.691771
    14  H   -0.015528  -0.001321   0.000174  -0.000058  -0.000019   0.007929
    15  C    0.260219  -0.023274  -0.004909  -0.000393   0.000269  -0.018168
    16  C   -0.589320   0.421778  -0.000464   0.000424  -0.000046   0.035565
    17  C    0.001276  -0.000440   0.276967   0.441577   0.013048   0.007820
    18  H   -0.000638   0.000197   0.024401  -0.011515  -0.000170  -0.000954
    19  C    0.001299  -0.000090   0.448397   0.005185   0.413970  -0.021336
    20  H   -0.000077   0.000194   0.008784  -0.000387  -0.009203   0.001399
    21  C   -0.001968  -0.008951  -0.016985   0.000439   0.001275  -0.197320
    22  C   -0.005472   0.028030   0.005808  -0.000166  -0.000294  -0.173632
    23  C   -0.616295  -0.014990  -0.001078   0.000094   0.000012  -0.001019
    24  H   -0.001356   0.000796   0.000483  -0.000070  -0.000007  -0.000411
    25  C    7.655608  -0.036529  -0.000490   0.000043   0.000005   0.005442
    26  H   -0.036529   0.495795   0.000016   0.000012  -0.000005   0.001153
    27  C   -0.000490   0.000016   6.534759  -0.075779  -0.055064  -0.005377
    28  H    0.000043   0.000012  -0.075779   0.475479   0.000917   0.000054
    29  H    0.000005  -0.000005  -0.055064   0.000917   0.472211   0.000426
    30  C    0.005442   0.001153  -0.005377   0.000054   0.000426   7.749912
    31  H   -0.000871  -0.000064   0.000243   0.000037   0.000254  -0.065712
    32  C   -0.019672   0.002018   0.000007   0.000017  -0.000021  -0.492363
    33  H   -0.005759  -0.004484   0.000153  -0.000013   0.000003  -0.014972
    34  C    0.451351   0.011704   0.000135   0.000007   0.000001   0.000085
    35  H    0.005919  -0.000459   0.000000  -0.000001  -0.000001   0.000015
    36  H    0.410801  -0.009478   0.000001  -0.000001   0.000000  -0.000030
    37  H   -0.000011   0.000003   0.462383  -0.010538  -0.010399  -0.000129
    38  C   -0.004323  -0.000708  -0.000076  -0.000003   0.000049   0.396721
    39  H    0.000028   0.000055   0.000041  -0.000001  -0.000026   0.422591
    40  H    0.000675   0.000439  -0.000002   0.000000  -0.000001   0.015723
    41  H   -0.059255   0.001183   0.000005  -0.000001  -0.000000   0.000003
    42  H   -0.000121  -0.000049   0.000003  -0.000000   0.000000  -0.075922
              31         32         33         34         35         36
     1  C   -0.083126  -0.148281   0.006830  -0.064735   0.006222   0.001022
     2  C   -0.020325   0.073132  -0.021089  -0.138958   0.000522   0.002718
     3  C   -0.060328   0.094601  -0.013806  -0.029598   0.001375   0.000410
     4  C    0.007844   0.252562  -0.085965  -0.194423   0.001918  -0.001478
     5  H   -0.000021   0.001822   0.000058   0.000520   0.000395   0.000277
     6  C    0.002542  -0.045380   0.011872   0.033301  -0.002082  -0.000730
     7  C    0.079140  -0.012390   0.080304  -0.011913   0.004529   0.005970
     8  H   -0.001320   0.011820  -0.003005   0.000185  -0.000056  -0.000026
     9  C   -0.015137   0.403664  -0.059321  -0.064824   0.012212   0.004784
    10  C    0.012419  -0.079282   0.001285  -0.168533   0.019676   0.009732
    11  C   -0.006443  -0.018341   0.004929  -0.005735  -0.000320   0.000177
    12  C    0.028022   0.033212  -0.004452   0.000231   0.000335  -0.000019
    13  C    0.017536  -1.706530   0.025628   0.037181  -0.001173  -0.002189
    14  H   -0.002707  -0.015004  -0.001127  -0.002943   0.000317  -0.000941
    15  C    0.005753   0.009306  -0.007201  -0.251991  -0.109881   0.002077
    16  C   -0.005590  -0.034204   0.028938  -0.363156   0.025627  -0.072107
    17  C    0.001268  -0.001102  -0.000055  -0.000849   0.000094  -0.000002
    18  H    0.000004  -0.000413   0.000304   0.000286  -0.000077  -0.000005
    19  C   -0.005136   0.005727  -0.000867  -0.000531   0.000058   0.000007
    20  H   -0.004298   0.000878  -0.000024  -0.000000   0.000015  -0.000004
    21  C    0.437083  -0.257499  -0.007348   0.005399  -0.000189  -0.000217
    22  C   -0.013831  -0.104546   0.425677  -0.015378   0.000465   0.001018
    23  C   -0.000096   0.007180   0.001546   0.331593   0.437028   0.014305
    24  H    0.000336  -0.000842  -0.000001   0.023019  -0.011432  -0.000184
    25  C   -0.000871  -0.019672  -0.005759   0.451351   0.005919   0.410801
    26  H   -0.000064   0.002018  -0.004484   0.011704  -0.000459  -0.009478
    27  C    0.000243   0.000007   0.000153   0.000135   0.000000   0.000001
    28  H    0.000037   0.000017  -0.000013   0.000007  -0.000001  -0.000001
    29  H    0.000254  -0.000021   0.000003   0.000001  -0.000001   0.000000
    30  C   -0.065712  -0.492363  -0.014972   0.000085   0.000015  -0.000030
    31  H    0.497774  -0.015978   0.000815   0.000162  -0.000015   0.000003
    32  C   -0.015978   7.725651  -0.066668  -0.005177   0.000048   0.000439
    33  H    0.000815  -0.066668   0.497385   0.000016   0.000042   0.000289
    34  C    0.000162  -0.005177   0.000016   6.502773  -0.074963  -0.055271
    35  H   -0.000015   0.000048   0.000042  -0.074963   0.475685   0.001013
    36  H    0.000003   0.000439   0.000289  -0.055271   0.001013   0.472379
    37  H   -0.000014   0.000002   0.000004   0.000006  -0.000001  -0.000000
    38  C    0.023159   0.409925   0.020798  -0.000105  -0.000002   0.000051
    39  H   -0.012685   0.015877  -0.000637  -0.000002   0.000000  -0.000001
    40  H   -0.000670   0.423020  -0.012491   0.000049  -0.000001  -0.000028
    41  H    0.000004  -0.000126  -0.000017   0.462839  -0.010663  -0.010428
    42  H    0.002101  -0.073384   0.001996   0.000002  -0.000000   0.000001
              37         38         39         40         41         42
     1  C   -0.006054   0.028266   0.004219   0.000593   0.000232   0.001085
     2  C   -0.003900  -0.022258   0.000510   0.000410  -0.003312  -0.000758
     3  C   -0.005529  -0.085964   0.008065   0.005208  -0.000817  -0.005271
     4  C    0.000300   0.024907   0.000354   0.004530  -0.005392   0.000983
     5  H   -0.000275  -0.000694   0.000007   0.000001  -0.000264  -0.000015
     6  C    0.025283   0.046276  -0.003816  -0.001028   0.000820   0.001205
     7  C    0.000284  -0.296468   0.001778   0.001758   0.000230  -0.007145
     8  H    0.000246  -0.001773  -0.000728   0.000473  -0.000003  -0.000018
     9  C   -0.000880  -0.095858   0.005428   0.007835  -0.005386  -0.005738
    10  C    0.000845   0.045089  -0.001070  -0.003742   0.026246   0.001194
    11  C    0.020727   0.007747  -0.000607  -0.000279  -0.000099   0.000186
    12  C   -0.013951  -0.020363   0.001955   0.000466   0.000031  -0.000488
    13  C    0.001161  -0.207473   0.017721   0.015607   0.001101   0.022163
    14  H   -0.000003   0.000271   0.000359  -0.000874   0.000234   0.000058
    15  C   -0.000088   0.007007  -0.000294  -0.000554   0.018411   0.000170
    16  C    0.000022  -0.020282   0.000537   0.002006  -0.016692  -0.000496
    17  C   -0.082679  -0.000151  -0.000033   0.000021  -0.000021  -0.000001
    18  H    0.001116   0.000249  -0.000005  -0.000013   0.000039   0.000006
    19  C   -0.060845  -0.004417   0.000629   0.000026  -0.000012  -0.000121
    20  H    0.001188  -0.000680   0.000411   0.000046   0.000003  -0.000040
    21  C   -0.000529  -0.230068  -0.084133  -0.001513   0.000168   0.007903
    22  C    0.000172  -0.318216   0.001467  -0.080897  -0.000514   0.003104
    23  C   -0.000024  -0.000115   0.000019  -0.000043  -0.081715  -0.000001
    24  H    0.000043   0.000225  -0.000013  -0.000004   0.001086   0.000005
    25  C   -0.000011  -0.004323   0.000028   0.000675  -0.059255  -0.000121
    26  H    0.000003  -0.000708   0.000055   0.000439   0.001183  -0.000049
    27  C    0.462383  -0.000076   0.000041  -0.000002   0.000005   0.000003
    28  H   -0.010538  -0.000003  -0.000001   0.000000  -0.000001  -0.000000
    29  H   -0.010399   0.000049  -0.000026  -0.000001  -0.000000   0.000000
    30  C   -0.000129   0.396721   0.422591   0.015723   0.000003  -0.075922
    31  H   -0.000014   0.023159  -0.012685  -0.000670   0.000004   0.002101
    32  C    0.000002   0.409925   0.015877   0.423020  -0.000126  -0.073384
    33  H    0.000004   0.020798  -0.000637  -0.012491  -0.000017   0.001996
    34  C    0.000006  -0.000105  -0.000002   0.000049   0.462839   0.000002
    35  H   -0.000001  -0.000002   0.000000  -0.000001  -0.010663  -0.000000
    36  H   -0.000000   0.000051  -0.000001  -0.000028  -0.010428   0.000001
    37  H    0.486122   0.000002  -0.000000  -0.000000   0.000000   0.000000
    38  C    0.000002   6.409564  -0.067417  -0.065618   0.000001   0.467731
    39  H   -0.000000  -0.067417   0.476101   0.001259  -0.000000  -0.012193
    40  H   -0.000000  -0.065618   0.001259   0.476132  -0.000000  -0.012031
    41  H    0.000000   0.000001  -0.000000  -0.000000   0.486549   0.000000
    42  H    0.000000   0.467731  -0.012193  -0.012031   0.000000   0.488217
 Mulliken charges:
               1
     1  C    0.982506
     2  C   -1.001958
     3  C   -1.585105
     4  C    0.972603
     5  H    0.140235
     6  C    1.232450
     7  C    0.929274
     8  H    0.209158
     9  C   -1.597501
    10  C    1.294752
    11  C   -0.183119
    12  C   -0.652759
    13  C    1.319747
    14  H    0.204687
    15  C   -0.240082
    16  C   -0.636197
    17  C   -0.499241
    18  H    0.223319
    19  C   -0.296670
    20  H    0.197127
    21  C   -0.481634
    22  C   -0.450930
    23  C   -0.501504
    24  H    0.217860
    25  C   -0.308739
    26  H    0.189034
    27  C   -0.405951
    28  H    0.217028
    29  H    0.225473
    30  C   -0.360058
    31  H    0.197866
    32  C   -0.373706
    33  H    0.200429
    34  C   -0.411761
    35  H    0.217805
    36  H    0.225667
    37  H    0.195937
    38  C   -0.445004
    39  H    0.224246
    40  H    0.223511
    41  H    0.195529
    42  H    0.195678
 Sum of Mulliken charges =  -0.00000
 Mulliken charges with hydrogens summed into heavy atoms:
               1
     1  C    0.982506
     2  C   -0.861723
     3  C   -1.375947
     4  C    0.972603
     6  C    1.232450
     7  C    0.929274
     9  C   -1.392814
    10  C    1.294752
    11  C    0.040200
    12  C   -0.455632
    13  C    1.319747
    15  C   -0.022222
    16  C   -0.447163
    17  C   -0.282214
    19  C   -0.071198
    21  C   -0.283768
    22  C   -0.250502
    23  C   -0.283699
    25  C   -0.083072
    27  C   -0.210014
    30  C   -0.135812
    32  C   -0.150195
    34  C   -0.216231
    38  C   -0.249327
 Electronic spatial extent (au):  <R**2>=          10005.8101
 Charge=             -0.0000 electrons
 Dipole moment (field-independent basis, Debye):
    X=              0.0058    Y=             -0.0122    Z=             -0.0004  Tot=              0.0135
 Quadrupole moment (field-independent basis, Debye-Ang):
   XX=           -126.2688   YY=           -126.9113   ZZ=           -141.0456
   XY=              0.0480   XZ=             -6.9009   YZ=             -2.1111
 Traceless Quadrupole moment (field-independent basis, Debye-Ang):
   XX=              5.1398   YY=              4.4973   ZZ=             -9.6371
   XY=              0.0480   XZ=             -6.9009   YZ=             -2.1111
 Octapole moment (field-independent basis, Debye-Ang**2):
  XXX=             26.8572  YYY=             26.1778  ZZZ=              0.1803  XYY=            -29.4262
  XXY=            -22.5204  XXZ=             21.1176  XZZ=              2.4771  YZZ=             -3.4637
  YYZ=            -21.3558  XYZ=            -31.7063
 Hexadecapole moment (field-independent basis, Debye-Ang**3):
 XXXX=          -6252.2755 YYYY=          -6260.4890 ZZZZ=           -541.0465 XXXY=              5.8401
 XXXZ=           -157.8188 YYYX=              2.1907 YYYZ=             14.7327 ZZZX=            -19.8631
 ZZZY=             -7.8455 XXYY=          -2093.0802 XXZZ=          -1230.7910 YYZZ=          -1219.4932
 XXYZ=            -60.9484 YYXZ=              1.1838 ZZXY=             -6.5879
 N-N= 1.732386170932D+03 E-N=-5.611200713010D+03  KE= 9.212954783377D+02
 No NMR shielding tensors so no spin-rotation constants.
 Leave Link  601 at Mon Nov 14 15:09:28 2022, MaxMem= 16106127360 cpu:               9.0 elap:               0.3
 (Enter /opt/ap/G16/B01/g16/l9999.exe)
 1\1\GINC-N60\SP\RwB97XD\6-311++G(d,p)\C24H18\ROOT\14-Nov-2022\0\\#P wB
 97XD/6-311++G(d,p) scf=maxcycle=512\\_conf009.gjf nmol_natom 1_42\\0,1
 \C\C,1,1.39412829\C,1,1.39435449,2,118.86443127\C,2,1.39416084,1,121.1
 529487,3,0.03668482,0\H,2,1.08488355,1,119.42236619,3,-179.97409048,0\
 C,1,1.48467131,2,120.55714816,4,179.25839056,0\C,3,1.39437784,1,121.11
 776116,2,-0.05351271,0\H,3,1.08487775,1,119.41869036,2,177.23008049,0\
 C,4,1.39432447,2,118.86473838,1,0.01008406,0\C,4,1.48466627,2,120.5464
 188,1,179.19454736,0\C,6,1.3968498,1,120.7843492,2,-45.,0\C,6,1.396868
 2,1,120.67653841,2,135.,0\C,7,1.48449863,3,120.56496838,1,-179.9632580
 4,0\H,9,1.0848792,4,119.41824946,2,177.22245984,0\C,10,1.39685361,4,12
 0.76946845,2,-42.52368674,0\C,10,1.39686289,4,120.69448769,2,137.43107
 516,0\C,11,1.38888939,6,120.7380073,1,179.94058542,0\H,11,1.0847641,6,
 119.46912378,1,-1.41050605,0\C,12,1.38882428,6,120.76493111,1,-179.950
 82712,0\H,12,1.08482758,6,119.44182626,1,-1.23602505,0\C,13,1.39682899
 ,7,120.74134419,3,42.89023273,0\C,13,1.39683158,7,120.7379111,3,-137.1
 2494058,0\C,15,1.38888263,10,120.742191,4,179.9460119,0\H,15,1.0847633
 4,10,119.47085903,4,-1.40606944,0\C,16,1.38886088,10,120.76338989,4,-1
 79.95592713,0\H,16,1.08483431,10,119.44215232,4,-1.23439681,0\C,17,1.3
 9007919,11,120.20743432,6,0.00349958,0\H,17,1.0843506,11,119.71318733,
 6,179.5011609,0\H,19,1.08435858,12,119.73823132,6,179.53683762,0\C,21,
 1.38882373,13,120.76699356,7,179.99297883,0\H,21,1.0847938,13,119.4352
 623,7,1.32183327,0\C,22,1.38881869,13,120.76647403,7,-179.97118338,0\H
 ,22,1.08479982,13,119.43203605,7,1.34657928,0\C,23,1.39007007,15,120.2
 0732995,10,0.00573957,0\H,23,1.08434813,15,119.71220819,10,179.5072436
 8,0\H,25,1.08436328,16,119.73539424,10,179.53636455,0\H,27,1.08412515,
 17,120.21790854,11,179.98397203,0\C,30,1.39008059,21,120.18795226,13,-
 0.02169059,0\H,30,1.08435324,21,119.73787119,13,-179.52151214,0\H,32,1
 .0843543,22,119.737043,13,-179.52886928,0\H,34,1.08412314,23,120.22152
 803,15,179.98800213,0\H,38,1.08411439,30,120.21547163,21,-179.98600656
 ,0\\Version=ES64L-G16RevB.01\State=1-A\HF=-925.3118925\RMSD=8.380e-09\
 Dipole=-0.0049588,0.0001948,0.0019299\Quadrupole=3.4705311,-6.7936077,
 3.3230766,-2.8043971,0.0825656,-4.9855344\PG=C01 [X(C24H18)]\\@


 MEN HAVE BECOME THE TOOLS OF THEIR TOOLS... THOREAU   
 Job cpu time:       0 days  1 hours 17 minutes 31.4 seconds.
 Elapsed time:       0 days  0 hours  2 minutes 26.1 seconds.
 File lengths (MBytes):  RWF=    224 Int=      0 D2E=      0 Chk=     26 Scr=      1
 Normal termination of Gaussian 16 at Mon Nov 14 15:09:28 2022.
