 Entering Gaussian System, Link 0=g16
 Input=_conf007.gjf
 Output=_conf007.log
 Initial command:
 /opt/ap/G16/B01/g16/l1.exe "/tmp2/scr/Gau-22244.inp" -scrdir="/tmp2/scr/"
 Entering Link 1 = /opt/ap/G16/B01/g16/l1.exe PID=     22245.
  
 Copyright (c) 1988-2017, Gaussian, Inc.  All Rights Reserved.
  
 This is part of the Gaussian(R) 16 program.  It is based on
 the Gaussian(R) 09 system (copyright 2009, Gaussian, Inc.),
 the Gaussian(R) 03 system (copyright 2003, Gaussian, Inc.),
 the Gaussian(R) 98 system (copyright 1998, Gaussian, Inc.),
 the Gaussian(R) 94 system (copyright 1995, Gaussian, Inc.),
 the Gaussian 92(TM) system (copyright 1992, Gaussian, Inc.),
 the Gaussian 90(TM) system (copyright 1990, Gaussian, Inc.),
 the Gaussian 88(TM) system (copyright 1988, Gaussian, Inc.),
 the Gaussian 86(TM) system (copyright 1986, Carnegie Mellon
 University), and the Gaussian 82(TM) system (copyright 1983,
 Carnegie Mellon University). Gaussian is a federally registered
 trademark of Gaussian, Inc.
  
 This software contains proprietary and confidential information,
 including trade secrets, belonging to Gaussian, Inc.
  
 This software is provided under written license and may be
 used, copied, transmitted, or stored only in accord with that
 written license.
  
 The following legend is applicable only to US Government
 contracts under FAR:
  
                    RESTRICTED RIGHTS LEGEND
  
 Use, reproduction and disclosure by the US Government is
 subject to restrictions as set forth in subparagraphs (a)
 and (c) of the Commercial Computer Software - Restricted
 Rights clause in FAR 52.227-19.
  
 Gaussian, Inc.
 340 Quinnipiac St., Bldg. 40, Wallingford CT 06492
  
  
 ---------------------------------------------------------------
 Warning -- This program may not be used in any manner that
 competes with the business of Gaussian, Inc. or will provide
 assistance to any competitor of Gaussian, Inc.  The licensee
 of this program is prohibited from giving any competitor of
 Gaussian, Inc. access to this program.  By using this program,
 the user acknowledges that Gaussian, Inc. is engaged in the
 business of creating and licensing software in the field of
 computational chemistry and represents and warrants to the
 licensee that it is not a competitor of Gaussian, Inc. and that
 it will not use this program in any manner prohibited above.
 ---------------------------------------------------------------
  

 Cite this work as:
 Gaussian 16, Revision B.01,
 M. J. Frisch, G. W. Trucks, H. B. Schlegel, G. E. Scuseria, 
 M. A. Robb, J. R. Cheeseman, G. Scalmani, V. Barone, 
 G. A. Petersson, H. Nakatsuji, X. Li, M. Caricato, A. V. Marenich, 
 J. Bloino, B. G. Janesko, R. Gomperts, B. Mennucci, H. P. Hratchian, 
 J. V. Ortiz, A. F. Izmaylov, J. L. Sonnenberg, D. Williams-Young, 
 F. Ding, F. Lipparini, F. Egidi, J. Goings, B. Peng, A. Petrone, 
 T. Henderson, D. Ranasinghe, V. G. Zakrzewski, J. Gao, N. Rega, 
 G. Zheng, W. Liang, M. Hada, M. Ehara, K. Toyota, R. Fukuda, 
 J. Hasegawa, M. Ishida, T. Nakajima, Y. Honda, O. Kitao, H. Nakai, 
 T. Vreven, K. Throssell, J. A. Montgomery, Jr., J. E. Peralta, 
 F. Ogliaro, M. J. Bearpark, J. J. Heyd, E. N. Brothers, K. N. Kudin, 
 V. N. Staroverov, T. A. Keith, R. Kobayashi, J. Normand, 
 K. Raghavachari, A. P. Rendell, J. C. Burant, S. S. Iyengar, 
 J. Tomasi, M. Cossi, J. M. Millam, M. Klene, C. Adamo, R. Cammi, 
 J. W. Ochterski, R. L. Martin, K. Morokuma, O. Farkas, 
 J. B. Foresman, and D. J. Fox, Gaussian, Inc., Wallingford CT, 2016.
 
 ******************************************
 Gaussian 16:  ES64L-G16RevB.01 20-Dec-2017
                14-Nov-2022 
 ******************************************
 %nprocshared=32
 Will use up to   32 processors via shared memory.
 %mem=120GB
 %chk=_conf007.chk
 ----------------------------------------
 #P wB97XD/6-311++G(d,p) scf=maxcycle=512
 ----------------------------------------
 1/38=1,172=1/1;
 2/12=2,17=6,18=5,40=1/2;
 3/5=4,6=6,7=1111,11=2,25=1,30=1,74=-58/1,2,3;
 4//1;
 5/5=2,7=512,38=5/2;
 6/7=2,8=2,9=2,10=2,28=1/1;
 99/5=1,9=1/99;
 Leave Link    1 at Mon Nov 14 15:04:27 2022, MaxMem= 16106127360 cpu:               1.8 elap:               0.1
 (Enter /opt/ap/G16/B01/g16/l101.exe)
 ----------------------------
 _conf007.gjf nmol_natom 1_42
 ----------------------------
 Symbolic Z-matrix:
 Charge =  0 Multiplicity = 1
 C
 C                    1     1.39413 
 C                    1     1.39435  2     118.86443 
 C                    2     1.39416  1     121.15295  3     0.03668  0
 H                    2     1.08488  1     119.42237  3    -179.97409  0
 C                    1     1.48467  2     120.55715  4     179.25839  0
 C                    3     1.39438  1     121.11776  2    -0.05351  0
 H                    3     1.08488  1     119.41869  2     177.23008  0
 C                    4     1.39432  2     118.86474  1     0.01008  0
 C                    4     1.48467  2     120.54642  1     179.19455  0
 C                    6     1.39685  1     120.78435  2    -55.      0
 C                    6     1.39687  1     120.67654  2     125.     0
 C                    7     1.4845   3     120.56497  1    -179.96326  0
 H                    9     1.08488  4     119.41825  2     177.22246  0
 C                    10    1.39685  4     120.76947  2    -42.52369  0
 C                    10    1.39686  4     120.69449  2     137.43108  0
 C                    11    1.38889  6     120.73801  1     179.94059  0
 H                    11    1.08476  6     119.46912  1    -1.41051  0
 C                    12    1.38882  6     120.76493  1    -179.95083  0
 H                    12    1.08483  6     119.44183  1    -1.23603  0
 C                    13    1.39683  7     120.74134  3     42.89023  0
 C                    13    1.39683  7     120.73791  3    -137.12494  0
 C                    15    1.38888  10    120.74219  4     179.94601  0
 H                    15    1.08476  10    119.47086  4    -1.40607  0
 C                    16    1.38886  10    120.76339  4    -179.95593  0
 H                    16    1.08483  10    119.44215  4    -1.2344   0
 C                    17    1.39008  11    120.20743  6     0.0035   0
 H                    17    1.08435  11    119.71319  6     179.50116  0
 H                    19    1.08436  12    119.73823  6     179.53684  0
 C                    21    1.38882  13    120.76699  7     179.99298  0
 H                    21    1.08479  13    119.43526  7     1.32183  0
 C                    22    1.38882  13    120.76647  7    -179.97118  0
 H                    22    1.0848   13    119.43204  7     1.34658  0
 C                    23    1.39007  15    120.20733  10    0.00574  0
 H                    23    1.08435  15    119.71221  10    179.50724  0
 H                    25    1.08436  16    119.73539  10    179.53636  0
 H                    27    1.08413  17    120.21791  11    179.98397  0
 C                    30    1.39008  21    120.18795  13   -0.02169  0
 H                    30    1.08435  21    119.73787  13   -179.52151  0
 H                    32    1.08435  22    119.73704  13   -179.52887  0
 H                    34    1.08412  23    120.22153  15    179.988  0
 H                    38    1.08411  30    120.21547  21   -179.98601  0
 
 ITRead=  0  0  0  0  0  0  0  0  0  0  0  0  0  0  0  0  0  0  0  0
 ITRead=  0  0  0  0  0  0  0  0  0  0  0  0  0  0  0  0  0  0  0  0
 ITRead=  0  0
 MicOpt= -1 -1 -1 -1 -1 -1 -1 -1 -1 -1 -1 -1 -1 -1 -1 -1 -1 -1 -1 -1
 MicOpt= -1 -1 -1 -1 -1 -1 -1 -1 -1 -1 -1 -1 -1 -1 -1 -1 -1 -1 -1 -1
 MicOpt= -1 -1
 NAtoms=     42 NQM=       42 NQMF=       0 NMMI=      0 NMMIF=      0
                NMic=       0 NMicF=      0.
                    Isotopes and Nuclear Properties:
 (Nuclear quadrupole moments (NQMom) in fm**2, nuclear magnetic moments (NMagM)
  in nuclear magnetons)

  Atom         1           2           3           4           5           6           7           8           9          10
 IAtWgt=          12          12          12          12           1          12          12           1          12          12
 AtmWgt=  12.0000000  12.0000000  12.0000000  12.0000000   1.0078250  12.0000000  12.0000000   1.0078250  12.0000000  12.0000000
 NucSpn=           0           0           0           0           1           0           0           1           0           0
 AtZEff=  -0.0000000  -0.0000000  -0.0000000  -0.0000000  -0.0000000  -0.0000000  -0.0000000  -0.0000000  -0.0000000  -0.0000000
 NQMom=    0.0000000   0.0000000   0.0000000   0.0000000   0.0000000   0.0000000   0.0000000   0.0000000   0.0000000   0.0000000
 NMagM=    0.0000000   0.0000000   0.0000000   0.0000000   2.7928460   0.0000000   0.0000000   2.7928460   0.0000000   0.0000000
 AtZNuc=   6.0000000   6.0000000   6.0000000   6.0000000   1.0000000   6.0000000   6.0000000   1.0000000   6.0000000   6.0000000

  Atom        11          12          13          14          15          16          17          18          19          20
 IAtWgt=          12          12          12           1          12          12          12           1          12           1
 AtmWgt=  12.0000000  12.0000000  12.0000000   1.0078250  12.0000000  12.0000000  12.0000000   1.0078250  12.0000000   1.0078250
 NucSpn=           0           0           0           1           0           0           0           1           0           1
 AtZEff=  -0.0000000  -0.0000000  -0.0000000  -0.0000000  -0.0000000  -0.0000000  -0.0000000  -0.0000000  -0.0000000  -0.0000000
 NQMom=    0.0000000   0.0000000   0.0000000   0.0000000   0.0000000   0.0000000   0.0000000   0.0000000   0.0000000   0.0000000
 NMagM=    0.0000000   0.0000000   0.0000000   2.7928460   0.0000000   0.0000000   0.0000000   2.7928460   0.0000000   2.7928460
 AtZNuc=   6.0000000   6.0000000   6.0000000   1.0000000   6.0000000   6.0000000   6.0000000   1.0000000   6.0000000   1.0000000

  Atom        21          22          23          24          25          26          27          28          29          30
 IAtWgt=          12          12          12           1          12           1          12           1           1          12
 AtmWgt=  12.0000000  12.0000000  12.0000000   1.0078250  12.0000000   1.0078250  12.0000000   1.0078250   1.0078250  12.0000000
 NucSpn=           0           0           0           1           0           1           0           1           1           0
 AtZEff=  -0.0000000  -0.0000000  -0.0000000  -0.0000000  -0.0000000  -0.0000000  -0.0000000  -0.0000000  -0.0000000  -0.0000000
 NQMom=    0.0000000   0.0000000   0.0000000   0.0000000   0.0000000   0.0000000   0.0000000   0.0000000   0.0000000   0.0000000
 NMagM=    0.0000000   0.0000000   0.0000000   2.7928460   0.0000000   2.7928460   0.0000000   2.7928460   2.7928460   0.0000000
 AtZNuc=   6.0000000   6.0000000   6.0000000   1.0000000   6.0000000   1.0000000   6.0000000   1.0000000   1.0000000   6.0000000

  Atom        31          32          33          34          35          36          37          38          39          40
 IAtWgt=           1          12           1          12           1           1           1          12           1           1
 AtmWgt=   1.0078250  12.0000000   1.0078250  12.0000000   1.0078250   1.0078250   1.0078250  12.0000000   1.0078250   1.0078250
 NucSpn=           1           0           1           0           1           1           1           0           1           1
 AtZEff=  -0.0000000  -0.0000000  -0.0000000  -0.0000000  -0.0000000  -0.0000000  -0.0000000  -0.0000000  -0.0000000  -0.0000000
 NQMom=    0.0000000   0.0000000   0.0000000   0.0000000   0.0000000   0.0000000   0.0000000   0.0000000   0.0000000   0.0000000
 NMagM=    2.7928460   0.0000000   2.7928460   0.0000000   2.7928460   2.7928460   2.7928460   0.0000000   2.7928460   2.7928460
 AtZNuc=   1.0000000   6.0000000   1.0000000   6.0000000   1.0000000   1.0000000   1.0000000   6.0000000   1.0000000   1.0000000

  Atom        41          42
 IAtWgt=           1           1
 AtmWgt=   1.0078250   1.0078250
 NucSpn=           1           1
 AtZEff=  -0.0000000  -0.0000000
 NQMom=    0.0000000   0.0000000
 NMagM=    2.7928460   2.7928460
 AtZNuc=   1.0000000   1.0000000
 Leave Link  101 at Mon Nov 14 15:04:27 2022, MaxMem= 16106127360 cpu:               5.4 elap:               0.2
 (Enter /opt/ap/G16/B01/g16/l202.exe)
                          Input orientation:                          
 ---------------------------------------------------------------------
 Center     Atomic      Atomic             Coordinates (Angstroms)
 Number     Number       Type             X           Y           Z
 ---------------------------------------------------------------------
      1          6           0        0.000000    0.000000    0.000000
      2          6           0        0.000000    0.000000    1.394128
      3          6           0        1.221126    0.000000   -0.673109
      4          6           0        1.193108    0.000764    2.115362
      5          1           0       -0.944957   -0.000427    1.927071
      6          6           0       -1.278366   -0.017366   -0.754803
      7          6           0        2.428476    0.001115    0.024455
      8          1           0        1.232154   -0.045667   -1.756969
      9          6           0        2.400843    0.001752    1.418572
     10          6           0        1.177445    0.018728    3.599837
     11          6           0       -2.230493   -1.013401   -0.525546
     12          6           0       -1.555073    0.963089   -1.710514
     13          6           0        3.721572    0.001921   -0.704680
     14          1           0        3.334061    0.048144    1.969857
     15          6           0        0.290794    0.844275    4.295193
     16          6           0        2.049080   -0.790881    4.331965
     17          6           0       -3.426596   -1.028019   -1.231335
     18          1           0       -2.021506   -1.795345    0.196673
     19          6           0       -2.750742    0.949189   -2.416923
     20          1           0       -0.834748    1.755043   -1.885989
     21          6           0        3.910862    0.818865   -1.821777
     22          6           0        4.776237   -0.814044   -0.288725
     23          6           0        0.275860    0.859807    5.683909
     24          1           0       -0.377402    1.495584    3.742000
     25          6           0        2.035025   -0.775886    5.720674
     26          1           0        2.729408   -1.453102    3.807101
     27          6           0       -3.691400   -0.046319   -2.179208
     28          1           0       -4.150543   -1.813710   -1.045844
     29          1           0       -2.951565    1.722817   -3.149729
     30          6           0        5.120444    0.820149   -2.504230
     31          1           0        3.109266    1.474569   -2.144691
     32          6           0        5.986440   -0.813321   -0.970068
     33          1           0        4.638168   -1.470412    0.563864
     34          6           0        1.147946    0.049642    6.401818
     35          1           0       -0.413890    1.513063    6.206701
     36          1           0        2.713797   -1.416787    6.272362
     37          1           0       -4.624875   -0.057715   -2.730408
     38          6           0        6.162883    0.003944   -2.080611
     39          1           0        5.251831    1.466740   -3.364741
     40          1           0        6.791448   -1.459089   -0.637249
     41          1           0        1.136620    0.061726    7.485815
     42          1           0        7.107346    0.004761   -2.612865
 ---------------------------------------------------------------------
                    Distance matrix (angstroms):
                    1          2          3          4          5
     1  C    0.000000
     2  C    1.394128   0.000000
     3  C    1.394354   2.400962   0.000000
     4  C    2.428634   1.394161   2.788612   0.000000
     5  H    2.146287   1.084884   3.384206   2.146341   0.000000
     6  C    1.484671   2.500485   2.500887   3.787659   2.702572
     7  C    2.428599   2.788100   1.394378   2.428585   3.872983
     8  H    2.146445   3.383741   1.084878   3.872806   4.279487
     9  C    2.788619   2.400968   2.401430   1.394324   3.384222
    10  C    3.787552   2.500376   4.273210   1.484666   2.702426
    11  C    2.505649   3.112432   3.600337   4.441167   2.948567
    12  C    2.504326   3.603414   3.116252   4.807899   3.812168
    13  C    3.787700   4.272598   2.500646   3.787581   5.357482
    14  H    3.872805   3.383747   3.384092   2.146415   4.279508
    15  C    4.387032   3.035381   5.124680   2.505463   2.801537
    16  C    4.856969   3.668120   5.134371   2.504540   3.920790
    17  C    3.783460   4.437504   4.792677   5.796588   4.146083
    18  H    2.710799   2.956966   3.807157   4.152242   2.715688
    19  C    3.782732   4.794962   4.440449   6.082357   4.799262
    20  H    2.708124   3.812630   2.962748   4.816690   4.199196
    21  C    4.391384   5.129076   3.037212   4.853507   6.189029
    22  C    4.853707   5.129045   3.667320   4.391169   6.189006
    23  C    5.755188   4.383786   6.484171   3.783362   4.042800
    24  H    4.047440   2.809218   4.928007   2.710524   2.419532
    25  C    6.121229   4.843792   6.491910   3.782894   4.886007
    26  H    4.904609   3.922195   4.945574   2.708491   4.375585
    27  C    4.286902   5.137831   5.138423   6.504150   4.940301
    28  H    4.648692   5.144902   5.681840   6.468395   4.733074
    29  H    4.647647   5.685637   5.149087   6.918450   5.724503
    30  C    5.758711   6.487587   4.385239   6.118495   7.556379
    31  H    4.054822   4.936104   2.811579   4.898143   5.932249
    32  C    6.118822   6.487555   4.843334   5.758354   7.556353
    33  H    4.898230   4.935996   3.920254   4.054620   5.932156
    34  C    6.504116   5.137821   7.075480   4.286973   4.940255
    35  H    6.401859   5.061770   7.231488   4.648499   4.570330
    36  H    6.979577   5.759266   7.243957   4.647859   5.854410
    37  H    5.371027   6.197145   6.197704   7.571911   5.936092
    38  C    6.504621   7.074953   5.138292   6.504219   8.159837
    39  H    6.407382   7.237395   5.063871   6.975231   8.279857
    40  H    6.975586   7.237348   5.758361   6.406985   8.279819
    41  H    7.571865   6.197125   8.159595   5.371096   5.936031
    42  H    7.572414   8.159067   6.197601   7.571945   9.243951
                    6          7          8          9         10
     6  C    0.000000
     7  C    3.787910   0.000000
     8  H    2.703303   2.146356   0.000000
     9  C    4.273231   1.394392   3.384102   0.000000
    10  C    4.999520   3.787973   5.357472   2.500981   0.000000
    11  C    1.396850   4.799764   3.800372   5.124393   5.449598
    12  C    1.396868   4.450188   2.964520   5.134649   6.046346
    13  C    5.000226   1.484499   2.703105   2.500505   5.000173
    14  H    5.357476   2.146366   4.279725   1.084879   2.703459
    15  C    5.357906   4.849723   6.189251   3.665665   1.396854
    16  C    6.127433   4.396117   6.188524   3.039714   1.396863
    17  C    2.421445   6.076017   4.790120   6.483940   6.755227
    18  H    2.149133   4.802006   4.179042   4.927450   5.010556
    19  C    2.421728   5.803746   4.157973   6.492110   7.245538
    20  H    2.148909   4.168296   2.744319   4.946029   6.095736
    21  C    5.363376   2.504946   2.815510   3.667109   6.124188
    22  C    6.124553   2.504906   3.912375   3.036921   5.363369
    23  C    6.681472   6.115597   7.556523   4.841994   2.421492
    24  H    4.829285   4.891475   5.933362   3.917716   2.149154
    25  C    7.313393   5.762417   7.555989   4.387097   2.421736
    26  H    6.239756   4.063707   5.931401   2.815959   2.148914
    27  C    2.802231   6.504710   4.941626   7.075433   7.556933
    28  H    3.400141   6.908156   5.710087   7.231176   7.302577
    29  H    3.400515   6.479548   4.750875   7.244288   8.093780
    30  C    6.686306   3.783088   4.053003   4.842972   7.310892
    31  H    4.838282   2.709194   2.446425   3.920191   6.233057
    32  C    7.311449   3.783053   4.879728   4.384797   6.686012
    33  H    6.233426   2.709077   4.360860   2.811302   4.838519
    34  C    7.557031   6.504835   8.159779   5.138559   2.802307
    35  H    7.179977   6.970308   8.280044   5.756123   3.400165
    36  H    8.202243   6.413127   8.279214   5.066504   3.400510
    37  H    3.886356   7.572482   5.937383   8.159552   8.587477
    38  C    7.558466   4.286853   4.941589   5.137824   7.557929
    39  H    7.187337   4.648230   4.585860   5.757987   8.197725
    40  H    8.198432   4.648180   5.844424   5.063385   7.187062
    41  H    8.587561   7.572613   9.243902   6.197846   3.886431
    42  H    8.589123   5.370968   5.937422   6.197069   8.588456
                   11         12         13         14         15
    11  C    0.000000
    12  C    2.401427   0.000000
    13  C    6.040699   5.456970   0.000000
    14  H    6.190168   6.187559   2.702860   0.000000
    15  C    5.748685   6.284096   6.121971   3.911840   0.000000
    16  C    6.477629   7.251061   5.365963   2.816859   2.401387
    17  C    1.388889   2.774296   7.241163   7.557264   6.918597
    18  H    1.084764   3.385835   6.084862   5.935043   5.395572
    19  C    2.774838   1.388824   6.761652   7.555167   7.369834
    20  H    3.385733   1.084828   5.022846   5.929589   6.348492
    21  C    6.538627   5.468970   1.396829   3.911930   7.107943
    22  C    7.013565   6.727940   1.396832   2.815037   6.624314
    23  C    6.953276   7.618429   7.309101   4.879095   1.388883
    24  H    5.285915   5.603603   6.229413   4.360107   1.084763
    25  C    7.567452   8.434180   6.688393   4.054029   2.774755
    26  H    6.600439   7.391808   4.843310   2.448430   3.385708
    27  C    2.409169   2.408832   7.558353   8.159704   7.653032
    28  H    2.144247   3.858608   8.085982   8.281319   7.437542
    29  H    3.859166   2.144462   7.312353   8.277909   8.167716
    30  C    7.830285   6.724057   2.421718   4.878996   8.340159
    31  H    6.109390   4.712343   2.148776   4.360587   7.057844
    32  C    8.231380   7.783207   2.421709   4.052208   7.931644
    33  H    6.969518   7.032138   2.148749   2.446125   6.179018
    34  C    7.780250   8.599455   7.558317   4.941800   2.409154
    35  H    7.416617   8.017921   8.194680   5.843284   2.144229
    36  H    8.415478   9.360201   7.190790   4.587189   3.859086
    37  H    3.392317   3.392036   8.588964   9.243828   8.621860
    38  C    8.596626   7.786128   2.802355   4.940696   8.708529
    39  H    8.378382   7.023110   3.400487   5.843645   9.147346
    40  H    9.033633   8.756898   3.400476   4.585006   8.478973
    41  H    8.756441   9.624454   8.588933   5.937569   3.392325
    42  H    9.622306   8.761857   3.886469   5.936405   9.741223
                   16         17         18         19         20
    16  C    0.000000
    17  C    7.809582   0.000000
    18  H    5.888910   2.145291   0.000000
    19  C    8.462484   2.402446   3.859422   0.000000
    20  H    7.311713   3.858974   4.283822   2.145303   0.000000
    21  C    6.627673   7.589327   6.789788   6.689406   4.837497
    22  C    5.365510   8.259587   6.885338   8.018332   6.374529
    23  C    2.774316   8.068003   6.514405   8.648225   7.703133
    24  H    3.385823   6.356117   5.109074   6.622962   5.652499
    25  C    1.388861   8.844394   6.928876   9.596872   8.514842
    26  H    1.084834   7.966362   5.976914   8.633744   7.443566
    27  C    8.712225   1.390079   3.390052   1.390101   3.389888
    28  H    8.270570   1.084351   2.465154   3.387168   4.943312
    29  H    9.343494   3.387180   4.943772   1.084359   2.465561
    30  C    7.665654   8.836734   8.071129   7.872728   6.059749
    31  H    6.942862   7.057949   6.519136   5.889807   3.962429
    32  C    6.604154   9.419108   8.151862   9.029849   7.346020
    33  H    4.622091   8.273988   6.677699   8.326798   6.808683
    34  C    2.408903   8.963973   7.207859   9.683964   8.690640
    35  H    3.858628   8.417712   7.046306   8.952414   8.107238
    36  H    2.144469   9.703661   7.712353  10.533884   9.445177
    37  H    9.744554   2.150485   4.285405   2.150465   4.285346
    38  C    7.660043   9.682165   8.683760   8.969912   7.216029
    39  H    8.636768   9.278488   8.730767   8.075110   6.270269
    40  H    6.901424  10.244373   8.858705  10.001022   8.369520
    41  H    3.392092   9.899454   8.158067  10.675364   9.725447
    42  H    8.628428  10.674230   9.719558   9.905162   8.165090
                   21         22         23         24         25
    21  C    0.000000
    22  C    2.401148   0.000000
    23  C    8.339678   7.663388   0.000000
    24  H    7.057108   6.938381   2.145221   0.000000
    25  C    7.934139   6.605193   2.402396   3.859344   0.000000
    26  H    6.184005   4.623169   3.858996   4.283837   2.145356
    27  C    7.659679   8.710006   8.853746   6.958502   9.784291
    28  H    8.515795   9.014431   8.487067   6.936243   9.226272
    29  H    7.047943   8.622061   9.444269   7.360290  10.478246
    30  C    1.388824   2.774442   9.514051   8.348527   8.928391
    31  H    1.084794   3.385432   8.348239   6.841814   8.251212
    32  C    2.774430   1.388819   8.926672   8.248218   7.770528
    33  H    3.385417   1.084800   7.118603   6.637291   5.818196
    34  C    8.709358   7.659884   1.390070   3.389995   1.390095
    35  H    9.145591   8.633852   1.084348   2.465033   3.387137
    36  H    8.482109   6.903971   3.387136   4.943698   1.084363
    37  H    8.628604   9.742421   9.780582   7.895938  10.783823
    38  C    2.408878   2.408889   9.781478   8.882743   8.860440
    39  H    2.144453   3.858761  10.344405   9.066139   9.895553
    40  H    3.858751   2.144441   9.369482   8.905073   7.969536
    41  H    9.741711   8.628862   2.150513   4.285366   2.150453
    42  H    3.392063   3.392069  10.781315   9.931179   9.787018
                   26         27         28         29         30
    26  H    0.000000
    27  C    8.890541   0.000000
    28  H    8.427030   2.149185   0.000000
    29  H    9.526668   2.149210   4.286129   0.000000
    30  C    7.121630   8.860304   9.747579   8.147933   0.000000
    31  H    6.643746   6.968740   8.045189   6.148610   2.145313
    32  C    5.817122   9.783194  10.186508   9.543105   2.402462
    33  H    3.763276   8.884492   8.941502   9.032804   3.859075
    34  C    3.389959   9.852030   9.328115  10.527942   9.782234
    35  H    4.943333   9.137681   8.810754   9.696729  10.343562
    36  H    2.465578  10.692697  10.041556  11.433688   9.371467
    37  H    9.938391   1.084125   2.479166   2.479130   9.787392
    38  C    6.969712   9.854905  10.523373   9.336526   1.390081
    39  H    8.143918   9.147470  10.224640   8.210208   1.084353
    40  H    6.021000  10.689418  10.955358  10.552885   3.387152
    41  H    4.285396  10.804356  10.210805  11.514654  10.781792
    42  H    7.906179  10.807570  11.510971  10.218690   2.150451
                   31         32         33         34         35
    31  H    0.000000
    32  C    3.859055   0.000000
    33  H    4.283308   2.145356   0.000000
    34  C    8.883693   8.860047   6.969499   0.000000
    35  H    9.064207   9.893547   8.140394   2.149187   0.000000
    36  H    8.908597   7.970392   6.024369   2.149200   4.286112
    37  H    7.906193  10.782844   9.932367  10.804376  10.003582
    38  C    3.389900   1.390094   3.389946   9.854100  10.686951
    39  H    2.465597   3.387150   4.943418  10.688111  11.122726
    40  H    4.943399   1.084354   2.465647   9.147341  10.372571
    41  H    9.931470   9.787155   7.907066   1.084123   2.479233
    42  H    4.285343   2.150458   4.285392  10.806525  11.688828
                   36         37         38         39         40
    36  H    0.000000
    37  H   11.694146   0.000000
    38  C    9.148051  10.807487   0.000000
    39  H   10.374492  10.013774   2.149134   0.000000
    40  H    8.023201  11.690919   2.149152   4.286037   0.000000
    41  H    2.479104  11.729463  10.806626  11.689465  10.013697
    42  H   10.013557  11.732976   1.084114   2.479039   2.479054
                   41         42
    41  H    0.000000
    42  H   11.731844   0.000000
 Stoichiometry    C24H18
 Framework group  C1[X(C24H18)]
 Deg. of freedom   120
 Full point group                 C1      NOp   1
 Largest Abelian subgroup         C1      NOp   1
 Largest concise Abelian subgroup C1      NOp   1
                         Standard orientation:                         
 ---------------------------------------------------------------------
 Center     Atomic      Atomic             Coordinates (Angstroms)
 Number     Number       Type             X           Y           Z
 ---------------------------------------------------------------------
      1          6           0        1.399276   -0.077113    0.042268
      2          6           0        0.625707   -1.236254    0.002575
      3          6           0        0.757532    1.160783    0.040682
      4          6           0       -0.766408   -1.173229   -0.038997
      5          1           0        1.115608   -2.204225    0.003886
      6          6           0        2.880404   -0.159818    0.102837
      7          6           0       -0.633279    1.251404   -0.000809
      8          1           0        1.348406    2.067428    0.116995
      9          6           0       -1.383850    0.076933   -0.040668
     10          6           0       -1.576549   -2.415932   -0.098950
     11          6           0        3.514964   -0.893453    1.107976
     12          6           0        3.670115    0.495076   -0.845166
     13          6           0       -1.303746    2.575868   -0.002828
     14          1           0       -2.464227    0.137563   -0.118588
     15          6           0       -1.200512   -3.474793   -0.928775
     16          6           0       -2.731703   -2.552060    0.674558
     17          6           0        4.900584   -0.971181    1.163006
     18          1           0        2.917057   -1.388999    1.865377
     19          6           0        5.055741    0.418116   -0.790844
     20          1           0        3.192322    1.052339   -1.643929
     21          6           0       -0.816809    3.621444   -0.790734
     22          6           0       -2.435824    2.804190    0.782925
     23          6           0       -1.958197   -4.637507   -0.983582
     24          1           0       -0.318522   -3.376699   -1.552621
     25          6           0       -3.490132   -3.714288    0.620272
     26          1           0       -3.025917   -1.747225    1.339798
     27          6           0        5.676087   -0.316173    0.213332
     28          1           0        5.376019   -1.538695    1.955285
     29          1           0        5.652484    0.926879   -1.539770
     30          6           0       -1.443732    4.860716   -0.793141
     31          1           0        0.048443    3.454042   -1.423262
     32          6           0       -3.063896    4.042875    0.781036
     33          1           0       -2.813769    2.009274    1.417004
     34          6           0       -3.105853   -4.761570   -0.209121
     35          1           0       -1.655268   -5.445980   -1.639643
     36          1           0       -4.379767   -3.805108    1.233579
     37          1           0        6.757679   -0.376518    0.256278
     38          6           0       -2.569904    5.075872   -0.007159
     39          1           0       -1.056128    5.658368   -1.417108
     40          1           0       -3.937183    4.204079    1.403295
     41          1           0       -3.697559   -5.668973   -0.251869
     42          1           0       -3.059764    6.043001   -0.008870
 ---------------------------------------------------------------------
 Rotational constants (GHZ):           0.1977361           0.1961731           0.1041304
 Leave Link  202 at Mon Nov 14 15:04:27 2022, MaxMem= 16106127360 cpu:               0.4 elap:               0.0
 (Enter /opt/ap/G16/B01/g16/l301.exe)
 Standard basis: 6-311++G(d,p) (5D, 7F)
 Ernie: Thresh=  0.10000D-02 Tol=  0.10000D-05 Strict=F.
 There are   678 symmetry adapted cartesian basis functions of A   symmetry.
 There are   654 symmetry adapted basis functions of A   symmetry.
   654 basis functions,  1026 primitive gaussians,   678 cartesian basis functions
    81 alpha electrons       81 beta electrons
       nuclear repulsion energy      1731.7329659603 Hartrees.
 IExCor= 4639 DFT=T Ex+Corr=wB97XD ExCW=0 ScaHFX=  1.000000
 ScaDFX=  1.000000  1.000000  1.000000  1.000000 ScalE2=  1.000000  1.000000
 IRadAn=      5 IRanWt=     -1 IRanGd=            0 ICorTp=0 IEmpDi=121
 HFx  wShort=  0.000000 wLong=  0.200000 cFull=  0.222036 cShort=  0.000000 cLong=  0.777964
 DFx  wShort=  0.000000 wLong=  0.200000 cFull=  0.000000 cShort=  0.000000 cLong=  1.000000
 NAtoms=   42 NActive=   42 NUniq=   42 SFac= 1.00D+00 NAtFMM=   60 NAOKFM=F Big=F
 Integral buffers will be    131072 words long.
 Raffenetti 2 integral format.
 Two-electron integral symmetry is turned on.
 R6Disp:  Grimme-D2 Dispersion energy=       -0.0288868944 Hartrees.
 Nuclear repulsion after empirical dispersion term =     1731.7040790659 Hartrees.
 Leave Link  301 at Mon Nov 14 15:04:27 2022, MaxMem= 16106127360 cpu:               1.2 elap:               0.0
 (Enter /opt/ap/G16/B01/g16/l302.exe)
 NPDir=0 NMtPBC=     1 NCelOv=     1 NCel=       1 NClECP=     1 NCelD=      1
         NCelK=      1 NCelE2=     1 NClLst=     1 CellRange=     0.0.
 One-electron integrals computed using PRISM.
 One-electron integral symmetry used in STVInt
 NBasis=   654 RedAO= T EigKep=  1.34D-06  NBF=   654
 NBsUse=   645 1.00D-06 EigRej=  9.13D-07 NBFU=   645
 Precomputing XC quadrature grid using
 IXCGrd= 4 IRadAn=           5 IRanWt=          -1 IRanGd=           0 AccXCQ= 0.00D+00.
 Generated NRdTot=       0 NPtTot=           0 NUsed=           0 NTot=          32
 NSgBfM=   669   669   669   669   669 MxSgAt=    42 MxSgA2=    42.
 Leave Link  302 at Mon Nov 14 15:04:28 2022, MaxMem= 16106127360 cpu:              20.9 elap:               0.7
 (Enter /opt/ap/G16/B01/g16/l303.exe)
 DipDrv:  MaxL=1.
 Leave Link  303 at Mon Nov 14 15:04:28 2022, MaxMem= 16106127360 cpu:               8.2 elap:               0.3
 (Enter /opt/ap/G16/B01/g16/l401.exe)
 ExpMin= 3.60D-02 ExpMax= 4.56D+03 ExpMxC= 6.82D+02 IAcc=3 IRadAn=         5 AccDes= 0.00D+00
 Harris functional with IExCor= 4639 and IRadAn=       5 diagonalized for initial guess.
 HarFok:  IExCor= 4639 AccDes= 0.00D+00 IRadAn=         5 IDoV= 1 UseB2=F ITyADJ=14
 ICtDFT=  3500011 ScaDFX=  1.000000  1.000000  1.000000  1.000000
 FoFCou: FMM=F IPFlag=           0 FMFlag=      100000 FMFlg1=           0
         NFxFlg=           0 DoJE=T BraDBF=F KetDBF=T FulRan=T
         wScrn=  0.000000 ICntrl=       500 IOpCl=  0 I1Cent=   200000004 NGrid=           0
         NMat0=    1 NMatS0=      1 NMatT0=    0 NMatD0=    1 NMtDS0=    0 NMtDT0=    0
 Petite list used in FoFCou.
 Harris En= -882.969696624831    
 JPrj=0 DoOrth=F DoCkMO=F.
 Leave Link  401 at Mon Nov 14 15:04:30 2022, MaxMem= 16106127360 cpu:              55.3 elap:               1.7
 (Enter /opt/ap/G16/B01/g16/l502.exe)
 Integral symmetry usage will be decided dynamically.
 Closed shell SCF:
 Using DIIS extrapolation, IDIIS=  1040.
 NGot= 16106127360 LenX= 16105179956 LenY= 16104719594
 Requested convergence on RMS density matrix=1.00D-08 within 512 cycles.
 Requested convergence on MAX density matrix=1.00D-06.
 Requested convergence on             energy=1.00D-06.
 No special actions if energy rises.
 Fock matrices will be formed incrementally for  20 cycles.

 Cycle   1  Pass 1  IDiag  1:
 FoFJK:  IHMeth= 1 ICntrl=       0 DoSepK=T KAlg= 0 I1Cent=           0 FoldK=F
 IRaf=         1 NMat=       1 IRICut=       1 DoRegI=T DoRafI=F ISym2E= 0 IDoP0=0 IntGTp=1.
 FoFCou: FMM=F IPFlag=           0 FMFlag=      100000 FMFlg1=           0
         NFxFlg=           0 DoJE=T BraDBF=F KetDBF=F FulRan=T
         wScrn=  0.000000 ICntrl=       500 IOpCl=  0 I1Cent=           0 NGrid=           0
         NMat0=    1 NMatS0=      1 NMatT0=    0 NMatD0=    1 NMtDS0=    0 NMtDT0=    0
 Symmetry not used in FoFCou.
 E= -925.116384277157    
 DIIS: error= 4.80D-02 at cycle   1 NSaved=   1.
 NSaved= 1 IEnMin= 1 EnMin= -925.116384277157     IErMin= 1 ErrMin= 4.80D-02
 ErrMax= 4.80D-02  0.00D+00 EMaxC= 1.00D-01 BMatC= 1.90D+00 BMatP= 1.90D+00
 IDIUse=3 WtCom= 5.20D-01 WtEn= 4.80D-01
 Coeff-Com:  0.100D+01
 Coeff-En:   0.100D+01
 Coeff:      0.100D+01
 Gap=     0.319 Goal=   None    Shift=    0.000
 GapD=    0.319 DampG=1.000 DampE=0.500 DampFc=0.5000 IDamp=-1.
 Damping current iteration by 5.00D-01
 RMSDP=3.67D-02 MaxDP=4.69D+00              OVMax= 4.30D-02

 Cycle   2  Pass 1  IDiag  1:
 RMSU=  6.64D-03    CP:  8.11D-01
 E= -925.214812484028     Delta-E=       -0.098428206871 Rises=F Damp=T
 DIIS: error= 2.33D-02 at cycle   2 NSaved=   2.
 NSaved= 2 IEnMin= 2 EnMin= -925.214812484028     IErMin= 2 ErrMin= 2.33D-02
 ErrMax= 2.33D-02  0.00D+00 EMaxC= 1.00D-01 BMatC= 4.32D-01 BMatP= 1.90D+00
 IDIUse=3 WtCom= 7.67D-01 WtEn= 2.33D-01
 Coeff-Com: -0.883D+00 0.188D+01
 Coeff-En:   0.000D+00 0.100D+01
 Coeff:     -0.677D+00 0.168D+01
 Gap=     0.327 Goal=   None    Shift=    0.000
 RMSDP=2.07D-02 MaxDP=2.11D+00 DE=-9.84D-02 OVMax= 3.38D-02

 Cycle   3  Pass 1  IDiag  1:
 RMSU=  3.64D-03    CP:  5.88D-01  1.36D+00
 E= -925.303152988942     Delta-E=       -0.088340504914 Rises=F Damp=F
 DIIS: error= 3.34D-03 at cycle   3 NSaved=   3.
 NSaved= 3 IEnMin= 3 EnMin= -925.303152988942     IErMin= 3 ErrMin= 3.34D-03
 ErrMax= 3.34D-03  0.00D+00 EMaxC= 1.00D-01 BMatC= 8.58D-03 BMatP= 4.32D-01
 IDIUse=3 WtCom= 9.67D-01 WtEn= 3.34D-02
 Coeff-Com: -0.368D+00 0.782D+00 0.587D+00
 Coeff-En:   0.000D+00 0.000D+00 0.100D+01
 Coeff:     -0.356D+00 0.756D+00 0.601D+00
 Gap=     0.325 Goal=   None    Shift=    0.000
 RMSDP=2.08D-03 MaxDP=2.05D-01 DE=-8.83D-02 OVMax= 1.94D-02

 Cycle   4  Pass 1  IDiag  1:
 RMSU=  1.39D-03    CP:  5.89D-01  1.54D+00  7.48D-01
 E= -925.311006512016     Delta-E=       -0.007853523074 Rises=F Damp=F
 DIIS: error= 8.84D-04 at cycle   4 NSaved=   4.
 NSaved= 4 IEnMin= 4 EnMin= -925.311006512016     IErMin= 4 ErrMin= 8.84D-04
 ErrMax= 8.84D-04  0.00D+00 EMaxC= 1.00D-01 BMatC= 2.76D-04 BMatP= 8.58D-03
 IDIUse=3 WtCom= 9.91D-01 WtEn= 8.84D-03
 Coeff-Com: -0.112D+00 0.239D+00 0.237D+00 0.637D+00
 Coeff-En:   0.000D+00 0.000D+00 0.000D+00 0.100D+01
 Coeff:     -0.111D+00 0.236D+00 0.235D+00 0.640D+00
 Gap=     0.324 Goal=   None    Shift=    0.000
 RMSDP=6.61D-04 MaxDP=5.91D-02 DE=-7.85D-03 OVMax= 4.24D-03

 Cycle   5  Pass 1  IDiag  1:
 RMSU=  2.27D-04    CP:  5.83D-01  1.58D+00  7.61D-01  8.52D-01
 E= -925.311295429814     Delta-E=       -0.000288917798 Rises=F Damp=F
 DIIS: error= 2.15D-04 at cycle   5 NSaved=   5.
 NSaved= 5 IEnMin= 5 EnMin= -925.311295429814     IErMin= 5 ErrMin= 2.15D-04
 ErrMax= 2.15D-04  0.00D+00 EMaxC= 1.00D-01 BMatC= 2.03D-05 BMatP= 2.76D-04
 IDIUse=3 WtCom= 9.98D-01 WtEn= 2.15D-03
 Coeff-Com:  0.260D-01-0.554D-01-0.252D-01 0.196D+00 0.858D+00
 Coeff-En:   0.000D+00 0.000D+00 0.000D+00 0.000D+00 0.100D+01
 Coeff:      0.260D-01-0.553D-01-0.251D-01 0.196D+00 0.858D+00
 Gap=     0.324 Goal=   None    Shift=    0.000
 RMSDP=1.64D-04 MaxDP=1.00D-02 DE=-2.89D-04 OVMax= 1.48D-03

 Cycle   6  Pass 1  IDiag  1:
 RMSU=  6.85D-05    CP:  5.83D-01  1.58D+00  7.83D-01  9.27D-01  1.23D+00
 E= -925.311321265101     Delta-E=       -0.000025835287 Rises=F Damp=F
 DIIS: error= 4.91D-05 at cycle   6 NSaved=   6.
 NSaved= 6 IEnMin= 6 EnMin= -925.311321265101     IErMin= 6 ErrMin= 4.91D-05
 ErrMax= 4.91D-05  0.00D+00 EMaxC= 1.00D-01 BMatC= 1.43D-06 BMatP= 2.03D-05
 IDIUse=1 WtCom= 1.00D+00 WtEn= 0.00D+00
 Coeff-Com:  0.133D-01-0.284D-01-0.165D-01 0.542D-01 0.332D+00 0.646D+00
 Coeff:      0.133D-01-0.284D-01-0.165D-01 0.542D-01 0.332D+00 0.646D+00
 Gap=     0.324 Goal=   None    Shift=    0.000
 RMSDP=7.58D-05 MaxDP=5.69D-03 DE=-2.58D-05 OVMax= 3.81D-04

 Cycle   7  Pass 1  IDiag  1:
 RMSU=  4.15D-05    CP:  5.83D-01  1.58D+00  7.87D-01  9.58D-01  1.19D+00
                    CP:  8.39D-01
 E= -925.311322996062     Delta-E=       -0.000001730961 Rises=F Damp=F
 DIIS: error= 1.21D-05 at cycle   7 NSaved=   7.
 NSaved= 7 IEnMin= 7 EnMin= -925.311322996062     IErMin= 7 ErrMin= 1.21D-05
 ErrMax= 1.21D-05  0.00D+00 EMaxC= 1.00D-01 BMatC= 1.01D-07 BMatP= 1.43D-06
 IDIUse=1 WtCom= 1.00D+00 WtEn= 0.00D+00
 Coeff-Com: -0.239D-02 0.512D-02 0.218D-02-0.282D-01-0.101D+00 0.957D-01
 Coeff-Com:  0.103D+01
 Coeff:     -0.239D-02 0.512D-02 0.218D-02-0.282D-01-0.101D+00 0.957D-01
 Coeff:      0.103D+01
 Gap=     0.324 Goal=   None    Shift=    0.000
 RMSDP=1.72D-05 MaxDP=1.51D-03 DE=-1.73D-06 OVMax= 2.64D-04

 Cycle   8  Pass 1  IDiag  1:
 RMSU=  7.14D-06    CP:  5.83D-01  1.58D+00  7.89D-01  9.61D-01  1.23D+00
                    CP:  9.34D-01  1.20D+00
 E= -925.311323227912     Delta-E=       -0.000000231850 Rises=F Damp=F
 DIIS: error= 4.46D-06 at cycle   8 NSaved=   8.
 NSaved= 8 IEnMin= 8 EnMin= -925.311323227912     IErMin= 8 ErrMin= 4.46D-06
 ErrMax= 4.46D-06  0.00D+00 EMaxC= 1.00D-01 BMatC= 6.98D-09 BMatP= 1.01D-07
 IDIUse=1 WtCom= 1.00D+00 WtEn= 0.00D+00
 Coeff-Com: -0.113D-02 0.242D-02 0.125D-02-0.105D-01-0.394D-01 0.137D-01
 Coeff-Com:  0.271D+00 0.762D+00
 Coeff:     -0.113D-02 0.242D-02 0.125D-02-0.105D-01-0.394D-01 0.137D-01
 Coeff:      0.271D+00 0.762D+00
 Gap=     0.324 Goal=   None    Shift=    0.000
 RMSDP=2.67D-06 MaxDP=1.21D-04 DE=-2.32D-07 OVMax= 6.02D-05

 Cycle   9  Pass 1  IDiag  1:
 RMSU=  1.92D-06    CP:  5.83D-01  1.58D+00  7.89D-01  9.61D-01  1.23D+00
                    CP:  9.40D-01  1.23D+00  1.16D+00
 E= -925.311323239012     Delta-E=       -0.000000011099 Rises=F Damp=F
 DIIS: error= 2.83D-06 at cycle   9 NSaved=   9.
 NSaved= 9 IEnMin= 9 EnMin= -925.311323239012     IErMin= 9 ErrMin= 2.83D-06
 ErrMax= 2.83D-06  0.00D+00 EMaxC= 1.00D-01 BMatC= 2.27D-09 BMatP= 6.98D-09
 IDIUse=1 WtCom= 1.00D+00 WtEn= 0.00D+00
 Coeff-Com:  0.127D-03-0.276D-03 0.454D-04 0.291D-02 0.105D-01-0.166D-01
 Coeff-Com: -0.175D+00 0.360D+00 0.819D+00
 Coeff:      0.127D-03-0.276D-03 0.454D-04 0.291D-02 0.105D-01-0.166D-01
 Coeff:     -0.175D+00 0.360D+00 0.819D+00
 Gap=     0.324 Goal=   None    Shift=    0.000
 RMSDP=2.17D-06 MaxDP=1.21D-04 DE=-1.11D-08 OVMax= 4.37D-05

 Cycle  10  Pass 1  IDiag  1:
 RMSU=  5.85D-07    CP:  5.83D-01  1.58D+00  7.89D-01  9.61D-01  1.23D+00
                    CP:  9.42D-01  1.25D+00  1.36D+00  7.60D-01
 E= -925.311323243253     Delta-E=       -0.000000004241 Rises=F Damp=F
 DIIS: error= 8.96D-07 at cycle  10 NSaved=  10.
 NSaved=10 IEnMin=10 EnMin= -925.311323243253     IErMin=10 ErrMin= 8.96D-07
 ErrMax= 8.96D-07  0.00D+00 EMaxC= 1.00D-01 BMatC= 2.27D-10 BMatP= 2.27D-09
 IDIUse=1 WtCom= 1.00D+00 WtEn= 0.00D+00
 Coeff-Com:  0.128D-03-0.276D-03-0.605D-04 0.182D-02 0.651D-02-0.552D-02
 Coeff-Com: -0.817D-01 0.525D-01 0.323D+00 0.704D+00
 Coeff:      0.128D-03-0.276D-03-0.605D-04 0.182D-02 0.651D-02-0.552D-02
 Coeff:     -0.817D-01 0.525D-01 0.323D+00 0.704D+00
 Gap=     0.324 Goal=   None    Shift=    0.000
 RMSDP=3.74D-07 MaxDP=4.13D-05 DE=-4.24D-09 OVMax= 1.03D-05

 Cycle  11  Pass 1  IDiag  1:
 RMSU=  1.32D-07    CP:  5.83D-01  1.58D+00  7.89D-01  9.61D-01  1.23D+00
                    CP:  9.42D-01  1.25D+00  1.37D+00  8.87D-01  1.05D+00
 E= -925.311323243645     Delta-E=       -0.000000000392 Rises=F Damp=F
 DIIS: error= 2.07D-07 at cycle  11 NSaved=  11.
 NSaved=11 IEnMin=11 EnMin= -925.311323243645     IErMin=11 ErrMin= 2.07D-07
 ErrMax= 2.07D-07  0.00D+00 EMaxC= 1.00D-01 BMatC= 3.20D-11 BMatP= 2.27D-10
 IDIUse=1 WtCom= 1.00D+00 WtEn= 0.00D+00
 Coeff-Com:  0.220D-04-0.465D-04-0.197D-04 0.128D-03 0.277D-03 0.122D-02
 Coeff-Com:  0.139D-02-0.536D-01-0.221D-01 0.250D+00 0.822D+00
 Coeff:      0.220D-04-0.465D-04-0.197D-04 0.128D-03 0.277D-03 0.122D-02
 Coeff:      0.139D-02-0.536D-01-0.221D-01 0.250D+00 0.822D+00
 Gap=     0.324 Goal=   None    Shift=    0.000
 RMSDP=1.81D-07 MaxDP=1.89D-05 DE=-3.92D-10 OVMax= 3.25D-06

 Cycle  12  Pass 1  IDiag  1:
 RMSU=  5.79D-08    CP:  5.83D-01  1.58D+00  7.89D-01  9.61D-01  1.23D+00
                    CP:  9.42D-01  1.25D+00  1.38D+00  8.89D-01  1.19D+00
                    CP:  1.26D+00
 E= -925.311323243673     Delta-E=       -0.000000000028 Rises=F Damp=F
 DIIS: error= 8.37D-08 at cycle  12 NSaved=  12.
 NSaved=12 IEnMin=12 EnMin= -925.311323243673     IErMin=12 ErrMin= 8.37D-08
 ErrMax= 8.37D-08  0.00D+00 EMaxC= 1.00D-01 BMatC= 1.34D-12 BMatP= 3.20D-11
 IDIUse=1 WtCom= 1.00D+00 WtEn= 0.00D+00
 Coeff-Com: -0.143D-04 0.309D-04 0.106D-04-0.222D-03-0.807D-03 0.883D-03
 Coeff-Com:  0.981D-02-0.904D-02-0.311D-01-0.623D-01-0.724D-01 0.117D+01
 Coeff:     -0.143D-04 0.309D-04 0.106D-04-0.222D-03-0.807D-03 0.883D-03
 Coeff:      0.981D-02-0.904D-02-0.311D-01-0.623D-01-0.724D-01 0.117D+01
 Gap=     0.324 Goal=   None    Shift=    0.000
 RMSDP=6.18D-08 MaxDP=2.99D-06 DE=-2.82D-11 OVMax= 1.24D-06

 Cycle  13  Pass 1  IDiag  1:
 RMSU=  2.17D-08    CP:  5.83D-01  1.58D+00  7.89D-01  9.61D-01  1.23D+00
                    CP:  9.42D-01  1.25D+00  1.38D+00  8.92D-01  1.24D+00
                    CP:  1.38D+00  1.43D+00
 E= -925.311323243677     Delta-E=       -0.000000000005 Rises=F Damp=F
 DIIS: error= 2.90D-08 at cycle  13 NSaved=  13.
 NSaved=13 IEnMin=13 EnMin= -925.311323243677     IErMin=13 ErrMin= 2.90D-08
 ErrMax= 2.90D-08  0.00D+00 EMaxC= 1.00D-01 BMatC= 1.41D-13 BMatP= 1.34D-12
 IDIUse=1 WtCom= 1.00D+00 WtEn= 0.00D+00
 Coeff-Com: -0.436D-05 0.936D-05 0.397D-05-0.565D-04-0.193D-03 0.156D-03
 Coeff-Com:  0.207D-02 0.609D-03-0.464D-02-0.243D-01-0.711D-01 0.274D+00
 Coeff-Com:  0.823D+00
 Coeff:     -0.436D-05 0.936D-05 0.397D-05-0.565D-04-0.193D-03 0.156D-03
 Coeff:      0.207D-02 0.609D-03-0.464D-02-0.243D-01-0.711D-01 0.274D+00
 Coeff:      0.823D+00
 Gap=     0.324 Goal=   None    Shift=    0.000
 RMSDP=1.14D-08 MaxDP=7.62D-07 DE=-4.55D-12 OVMax= 2.93D-07

 Cycle  14  Pass 1  IDiag  1:
 RMSU=  5.83D-09    CP:  5.83D-01  1.58D+00  7.89D-01  9.61D-01  1.23D+00
                    CP:  9.42D-01  1.25D+00  1.38D+00  8.93D-01  1.24D+00
                    CP:  1.38D+00  1.54D+00  1.25D+00
 E= -925.311323243698     Delta-E=       -0.000000000021 Rises=F Damp=F
 DIIS: error= 6.94D-09 at cycle  14 NSaved=  14.
 NSaved=14 IEnMin=14 EnMin= -925.311323243698     IErMin=14 ErrMin= 6.94D-09
 ErrMax= 6.94D-09  0.00D+00 EMaxC= 1.00D-01 BMatC= 4.82D-14 BMatP= 1.41D-13
 IDIUse=1 WtCom= 1.00D+00 WtEn= 0.00D+00
 Coeff-Com:  0.583D-06-0.130D-05-0.161D-06 0.137D-04 0.569D-04-0.838D-04
 Coeff-Com: -0.811D-03 0.174D-02 0.341D-02 0.222D-03-0.229D-01-0.907D-01
 Coeff-Com:  0.384D+00 0.725D+00
 Coeff:      0.583D-06-0.130D-05-0.161D-06 0.137D-04 0.569D-04-0.838D-04
 Coeff:     -0.811D-03 0.174D-02 0.341D-02 0.222D-03-0.229D-01-0.907D-01
 Coeff:      0.384D+00 0.725D+00
 Gap=     0.324 Goal=   None    Shift=    0.000
 RMSDP=8.49D-09 MaxDP=6.21D-07 DE=-2.09D-11 OVMax= 9.09D-08

 SCF Done:  E(RwB97XD) =  -925.311323244     A.U. after   14 cycles
            NFock= 14  Conv=0.85D-08     -V/T= 2.0044
 KE= 9.212941658485D+02 PE=-5.609867912151D+03 EE= 2.031558343993D+03
 Leave Link  502 at Mon Nov 14 15:06:56 2022, MaxMem= 16106127360 cpu:            4622.7 elap:             145.9
 (Enter /opt/ap/G16/B01/g16/l601.exe)
 Copying SCF densities to generalized density rwf, IOpCl= 0 IROHF=0.

 **********************************************************************

            Population analysis using the SCF Density.

 **********************************************************************

 Orbital symmetries:
       Occupied  (A) (A) (A) (A) (A) (A) (A) (A) (A) (A) (A) (A)
                 (A) (A) (A) (A) (A) (A) (A) (A) (A) (A) (A) (A)
                 (A) (A) (A) (A) (A) (A) (A) (A) (A) (A) (A) (A)
                 (A) (A) (A) (A) (A) (A) (A) (A) (A) (A) (A) (A)
                 (A) (A) (A) (A) (A) (A) (A) (A) (A) (A) (A) (A)
                 (A) (A) (A) (A) (A) (A) (A) (A) (A) (A) (A) (A)
                 (A) (A) (A) (A) (A) (A) (A) (A) (A)
       Virtual   (A) (A) (A) (A) (A) (A) (A) (A) (A) (A) (A) (A)
                 (A) (A) (A) (A) (A) (A) (A) (A) (A) (A) (A) (A)
                 (A) (A) (A) (A) (A) (A) (A) (A) (A) (A) (A) (A)
                 (A) (A) (A) (A) (A) (A) (A) (A) (A) (A) (A) (A)
                 (A) (A) (A) (A) (A) (A) (A) (A) (A) (A) (A) (A)
                 (A) (A) (A) (A) (A) (A) (A) (A) (A) (A) (A) (A)
                 (A) (A) (A) (A) (A) (A) (A) (A) (A) (A) (A) (A)
                 (A) (A) (A) (A) (A) (A) (A) (A) (A) (A) (A) (A)
                 (A) (A) (A) (A) (A) (A) (A) (A) (A) (A) (A) (A)
                 (A) (A) (A) (A) (A) (A) (A) (A) (A) (A) (A) (A)
                 (A) (A) (A) (A) (A) (A) (A) (A) (A) (A) (A) (A)
                 (A) (A) (A) (A) (A) (A) (A) (A) (A) (A) (A) (A)
                 (A) (A) (A) (A) (A) (A) (A) (A) (A) (A) (A) (A)
                 (A) (A) (A) (A) (A) (A) (A) (A) (A) (A) (A) (A)
                 (A) (A) (A) (A) (A) (A) (A) (A) (A) (A) (A) (A)
                 (A) (A) (A) (A) (A) (A) (A) (A) (A) (A) (A) (A)
                 (A) (A) (A) (A) (A) (A) (A) (A) (A) (A) (A) (A)
                 (A) (A) (A) (A) (A) (A) (A) (A) (A) (A) (A) (A)
                 (A) (A) (A) (A) (A) (A) (A) (A) (A) (A) (A) (A)
                 (A) (A) (A) (A) (A) (A) (A) (A) (A) (A) (A) (A)
                 (A) (A) (A) (A) (A) (A) (A) (A) (A) (A) (A) (A)
                 (A) (A) (A) (A) (A) (A) (A) (A) (A) (A) (A) (A)
                 (A) (A) (A) (A) (A) (A) (A) (A) (A) (A) (A) (A)
                 (A) (A) (A) (A) (A) (A) (A) (A) (A) (A) (A) (A)
                 (A) (A) (A) (A) (A) (A) (A) (A) (A) (A) (A) (A)
                 (A) (A) (A) (A) (A) (A) (A) (A) (A) (A) (A) (A)
                 (A) (A) (A) (A) (A) (A) (A) (A) (A) (A) (A) (A)
                 (A) (A) (A) (A) (A) (A) (A) (A) (A) (A) (A) (A)
                 (A) (A) (A) (A) (A) (A) (A) (A) (A) (A) (A) (A)
                 (A) (A) (A) (A) (A) (A) (A) (A) (A) (A) (A) (A)
                 (A) (A) (A) (A) (A) (A) (A) (A) (A) (A) (A) (A)
                 (A) (A) (A) (A) (A) (A) (A) (A) (A) (A) (A) (A)
                 (A) (A) (A) (A) (A) (A) (A) (A) (A) (A) (A) (A)
                 (A) (A) (A) (A) (A) (A) (A) (A) (A) (A) (A) (A)
                 (A) (A) (A) (A) (A) (A) (A) (A) (A) (A) (A) (A)
                 (A) (A) (A) (A) (A) (A) (A) (A) (A) (A) (A) (A)
                 (A) (A) (A) (A) (A) (A) (A) (A) (A) (A) (A) (A)
                 (A) (A) (A) (A) (A) (A) (A) (A) (A) (A) (A) (A)
                 (A) (A) (A) (A) (A) (A) (A) (A) (A) (A) (A) (A)
                 (A) (A) (A) (A) (A) (A) (A) (A) (A) (A) (A) (A)
                 (A) (A) (A) (A) (A) (A) (A) (A) (A) (A) (A) (A)
                 (A) (A) (A) (A) (A) (A) (A) (A) (A) (A) (A) (A)
                 (A) (A) (A) (A) (A) (A) (A) (A) (A) (A) (A) (A)
                 (A) (A) (A) (A) (A) (A) (A) (A) (A) (A) (A) (A)
                 (A) (A) (A) (A) (A) (A) (A) (A) (A) (A) (A) (A)
                 (A) (A) (A) (A) (A) (A) (A) (A) (A) (A) (A) (A)
                 (A) (A) (A) (A) (A) (A) (A) (A) (A) (A) (A) (A)
 The electronic state is 1-A.
 Alpha  occ. eigenvalues --  -10.30407 -10.30402 -10.30387 -10.30321 -10.30321
 Alpha  occ. eigenvalues --  -10.30290 -10.29252 -10.29245 -10.29241 -10.29231
 Alpha  occ. eigenvalues --  -10.29221 -10.29208 -10.29170 -10.29167 -10.29159
 Alpha  occ. eigenvalues --  -10.29157 -10.29130 -10.29124 -10.29107 -10.29093
 Alpha  occ. eigenvalues --  -10.29090 -10.29068 -10.29062 -10.29060  -0.98967
 Alpha  occ. eigenvalues --   -0.97053  -0.97032  -0.95263  -0.89415  -0.89401
 Alpha  occ. eigenvalues --   -0.85331  -0.85295  -0.85241  -0.85048  -0.82257
 Alpha  occ. eigenvalues --   -0.82235  -0.73534  -0.73404  -0.71135  -0.70714
 Alpha  occ. eigenvalues --   -0.70202  -0.70108  -0.66753  -0.66690  -0.63506
 Alpha  occ. eigenvalues --   -0.60700  -0.60664  -0.58695  -0.57233  -0.56584
 Alpha  occ. eigenvalues --   -0.54917  -0.54781  -0.54420  -0.54223  -0.52921
 Alpha  occ. eigenvalues --   -0.51894  -0.51441  -0.51333  -0.51148  -0.50862
 Alpha  occ. eigenvalues --   -0.50783  -0.47784  -0.46670  -0.46157  -0.45943
 Alpha  occ. eigenvalues --   -0.45674  -0.45002  -0.44322  -0.43164  -0.43081
 Alpha  occ. eigenvalues --   -0.42910  -0.41775  -0.41507  -0.36538  -0.36035
 Alpha  occ. eigenvalues --   -0.33629  -0.33618  -0.33606  -0.33000  -0.30695
 Alpha  occ. eigenvalues --   -0.30245
 Alpha virt. eigenvalues --    0.02146   0.02524   0.03675   0.04202   0.04307
 Alpha virt. eigenvalues --    0.04717   0.04873   0.04903   0.05143   0.05192
 Alpha virt. eigenvalues --    0.05247   0.05679   0.05766   0.06776   0.06948
 Alpha virt. eigenvalues --    0.07047   0.07721   0.07960   0.08053   0.08521
 Alpha virt. eigenvalues --    0.08693   0.08920   0.09191   0.09668   0.11119
 Alpha virt. eigenvalues --    0.11476   0.12119   0.12434   0.12716   0.13291
 Alpha virt. eigenvalues --    0.13663   0.13886   0.14225   0.14456   0.15405
 Alpha virt. eigenvalues --    0.15560   0.15829   0.15869   0.16130   0.16205
 Alpha virt. eigenvalues --    0.16547   0.16855   0.17023   0.17415   0.17498
 Alpha virt. eigenvalues --    0.17604   0.17783   0.17998   0.18057   0.18146
 Alpha virt. eigenvalues --    0.18292   0.18433   0.18448   0.18718   0.19008
 Alpha virt. eigenvalues --    0.19247   0.19393   0.19454   0.20109   0.20380
 Alpha virt. eigenvalues --    0.20503   0.20777   0.21103   0.21285   0.21505
 Alpha virt. eigenvalues --    0.22097   0.22392   0.22556   0.22611   0.22838
 Alpha virt. eigenvalues --    0.23113   0.23313   0.23520   0.23796   0.23822
 Alpha virt. eigenvalues --    0.24553   0.24848   0.25211   0.25265   0.25468
 Alpha virt. eigenvalues --    0.25565   0.26091   0.26619   0.26940   0.27280
 Alpha virt. eigenvalues --    0.27481   0.27714   0.27933   0.28196   0.28526
 Alpha virt. eigenvalues --    0.28724   0.28958   0.29103   0.29359   0.29598
 Alpha virt. eigenvalues --    0.29615   0.29950   0.30379   0.31066   0.31208
 Alpha virt. eigenvalues --    0.31667   0.32019   0.32206   0.32804   0.33391
 Alpha virt. eigenvalues --    0.33513   0.33919   0.34078   0.34247   0.34354
 Alpha virt. eigenvalues --    0.34906   0.34971   0.35225   0.35451   0.35792
 Alpha virt. eigenvalues --    0.35934   0.36258   0.36597   0.36770   0.37153
 Alpha virt. eigenvalues --    0.37379   0.37533   0.37713   0.37952   0.38288
 Alpha virt. eigenvalues --    0.38444   0.38530   0.38835   0.39346   0.39631
 Alpha virt. eigenvalues --    0.39863   0.40480   0.40693   0.41371   0.41710
 Alpha virt. eigenvalues --    0.41933   0.42178   0.42316   0.42810   0.43387
 Alpha virt. eigenvalues --    0.43673   0.43747   0.44431   0.44687   0.44990
 Alpha virt. eigenvalues --    0.45302   0.46205   0.47630   0.47863   0.47961
 Alpha virt. eigenvalues --    0.48341   0.49037   0.52987   0.53453   0.57108
 Alpha virt. eigenvalues --    0.58284   0.58590   0.59008   0.59375   0.60760
 Alpha virt. eigenvalues --    0.62124   0.62431   0.62608   0.62863   0.63018
 Alpha virt. eigenvalues --    0.63514   0.63770   0.63909   0.64056   0.64163
 Alpha virt. eigenvalues --    0.64550   0.64962   0.65363   0.65447   0.65829
 Alpha virt. eigenvalues --    0.66047   0.66351   0.67064   0.67331   0.67522
 Alpha virt. eigenvalues --    0.68166   0.69024   0.69622   0.70270   0.70611
 Alpha virt. eigenvalues --    0.70878   0.70964   0.71776   0.72228   0.72568
 Alpha virt. eigenvalues --    0.72926   0.73421   0.73631   0.74090   0.74332
 Alpha virt. eigenvalues --    0.75369   0.76121   0.76682   0.77130   0.77752
 Alpha virt. eigenvalues --    0.78795   0.79337   0.79922   0.80380   0.80670
 Alpha virt. eigenvalues --    0.80997   0.81265   0.81471   0.81999   0.82269
 Alpha virt. eigenvalues --    0.82612   0.82895   0.83479   0.83865   0.84084
 Alpha virt. eigenvalues --    0.84547   0.84637   0.84868   0.85368   0.85641
 Alpha virt. eigenvalues --    0.86162   0.86965   0.87690   0.88003   0.88455
 Alpha virt. eigenvalues --    0.89313   0.89931   0.91414   0.91679   0.91962
 Alpha virt. eigenvalues --    0.92153   0.92277   0.93249   0.93740   0.93799
 Alpha virt. eigenvalues --    0.94159   0.94442   0.94989   0.95790   0.96475
 Alpha virt. eigenvalues --    0.96759   0.96941   0.97273   0.98120   0.99391
 Alpha virt. eigenvalues --    0.99934   1.00248   1.00687   1.01338   1.01896
 Alpha virt. eigenvalues --    1.02207   1.03122   1.03663   1.04179   1.04822
 Alpha virt. eigenvalues --    1.05236   1.05997   1.06868   1.07358   1.07536
 Alpha virt. eigenvalues --    1.07821   1.08482   1.08626   1.09727   1.11780
 Alpha virt. eigenvalues --    1.12051   1.12795   1.12864   1.13717   1.13763
 Alpha virt. eigenvalues --    1.14690   1.14814   1.16306   1.16897   1.16932
 Alpha virt. eigenvalues --    1.17681   1.18389   1.18956   1.19560   1.21280
 Alpha virt. eigenvalues --    1.21809   1.22167   1.22852   1.23707   1.24122
 Alpha virt. eigenvalues --    1.24230   1.24887   1.25311   1.29245   1.29421
 Alpha virt. eigenvalues --    1.38183   1.39000   1.40756   1.41539   1.41784
 Alpha virt. eigenvalues --    1.45632   1.47364   1.48078   1.52305   1.55214
 Alpha virt. eigenvalues --    1.56441   1.57862   1.58407   1.59408   1.59542
 Alpha virt. eigenvalues --    1.59920   1.60195   1.60992   1.61322   1.61713
 Alpha virt. eigenvalues --    1.62057   1.62416   1.62544   1.63218   1.63787
 Alpha virt. eigenvalues --    1.64338   1.65574   1.65697   1.65951   1.66396
 Alpha virt. eigenvalues --    1.66939   1.67293   1.68028   1.68651   1.69207
 Alpha virt. eigenvalues --    1.70072   1.73090   1.73488   1.74079   1.74208
 Alpha virt. eigenvalues --    1.74251   1.75018   1.75435   1.75582   1.76584
 Alpha virt. eigenvalues --    1.77162   1.78434   1.81795   1.82082   1.82903
 Alpha virt. eigenvalues --    1.82913   1.83324   1.84120   1.84578   1.84967
 Alpha virt. eigenvalues --    1.85404   1.86348   1.86622   1.86841   1.87792
 Alpha virt. eigenvalues --    1.88652   1.89441   1.92400   1.92597   1.93046
 Alpha virt. eigenvalues --    1.93648   1.94294   1.97160   1.99584   2.00075
 Alpha virt. eigenvalues --    2.01115   2.01519   2.02322   2.02649   2.02935
 Alpha virt. eigenvalues --    2.03046   2.03394   2.04091   2.04415   2.04638
 Alpha virt. eigenvalues --    2.04674   2.05241   2.05586   2.05970   2.06185
 Alpha virt. eigenvalues --    2.06531   2.07394   2.07794   2.08181   2.08885
 Alpha virt. eigenvalues --    2.10782   2.11352   2.11971   2.12094   2.13153
 Alpha virt. eigenvalues --    2.13364   2.14336   2.15008   2.16874   2.17320
 Alpha virt. eigenvalues --    2.18233   2.18697   2.19802   2.20596   2.21825
 Alpha virt. eigenvalues --    2.23394   2.27864   2.29927   2.33655   2.35154
 Alpha virt. eigenvalues --    2.36072   2.36747   2.38008   2.39724   2.42928
 Alpha virt. eigenvalues --    2.44366   2.44767   2.46847   2.48919   2.49973
 Alpha virt. eigenvalues --    2.52061   2.53139   2.53355   2.53961   2.55187
 Alpha virt. eigenvalues --    2.55436   2.56407   2.56462   2.56795   2.57408
 Alpha virt. eigenvalues --    2.58485   2.58782   2.62316   2.62870   2.64150
 Alpha virt. eigenvalues --    2.72843   2.73172   2.73592   2.75573   2.75866
 Alpha virt. eigenvalues --    2.76104   2.76510   2.78136   2.79207   2.79732
 Alpha virt. eigenvalues --    2.80083   2.80382   2.80469   2.80735   2.80938
 Alpha virt. eigenvalues --    2.81713   2.82282   2.82879   2.83069   2.83277
 Alpha virt. eigenvalues --    2.83676   2.84084   2.85371   2.86060   2.86945
 Alpha virt. eigenvalues --    2.87341   2.87692   2.87769   2.90292   2.92095
 Alpha virt. eigenvalues --    2.92294   2.92582   2.92672   2.92761   2.93148
 Alpha virt. eigenvalues --    2.93740   2.94246   2.94599   2.95042   2.97949
 Alpha virt. eigenvalues --    2.99251   2.99707   3.00850   3.01454   3.01657
 Alpha virt. eigenvalues --    3.04330   3.04693   3.04932   3.05273   3.05567
 Alpha virt. eigenvalues --    3.06390   3.06760   3.07620   3.08067   3.11528
 Alpha virt. eigenvalues --    3.11970   3.16003   3.18931   3.19578   3.19902
 Alpha virt. eigenvalues --    3.21540   3.22856   3.25637   3.31256   3.31883
 Alpha virt. eigenvalues --    3.32294   3.33573   3.34736   3.36084   3.37044
 Alpha virt. eigenvalues --    3.46844   3.47355   3.49105   3.49617   3.49693
 Alpha virt. eigenvalues --    3.50031   3.53579   3.53708   3.60560   3.60875
 Alpha virt. eigenvalues --    3.61194   3.63560   3.64833   3.65371   3.66163
 Alpha virt. eigenvalues --    3.73743   3.73908   3.76335   3.76342   3.76712
 Alpha virt. eigenvalues --    3.77383   3.91000   3.92573   3.94188   4.09752
 Alpha virt. eigenvalues --    4.09946   4.10275   4.14514   4.14570   4.14644
 Alpha virt. eigenvalues --    4.24217   4.24302   4.25893   4.26106   4.26523
 Alpha virt. eigenvalues --    4.26904   4.27801   4.28088   4.49170   4.64799
 Alpha virt. eigenvalues --    4.66891   4.93939   4.95433   4.95752   4.98701
 Alpha virt. eigenvalues --   23.68330  23.81566  23.81988  23.88094  24.08386
 Alpha virt. eigenvalues --   24.08442  24.10900  24.10996  24.11288  24.11452
 Alpha virt. eigenvalues --   24.12960  24.13274  24.20284  24.20562  24.20950
 Alpha virt. eigenvalues --   24.24077  24.24335  24.24387  24.24630  24.25147
 Alpha virt. eigenvalues --   24.31372  24.33820  24.33932  24.34945
          Condensed to atoms (all electrons):
               1          2          3          4          5          6
     1  C   19.080608   1.554111   0.621664  -5.290221  -0.014341   0.390581
     2  C    1.554111  11.837566   0.064133   1.640285   0.357678  -1.864383
     3  C    0.621664   0.064133  12.903287  -2.413575   0.115659  -2.679785
     4  C   -5.290221   1.640285  -2.413575  19.390294  -0.110102   0.008333
     5  H   -0.014341   0.357678   0.115659  -0.110102   0.501009  -0.063597
     6  C    0.390581  -1.864383  -2.679785   0.008333  -0.063597  14.046052
     7  C   -6.581577  -2.443053   1.642766  -7.477761   0.100418  -0.767710
     8  H    0.020159   0.020168   0.343081   0.128111  -0.002854   0.020370
     9  C   -3.161081  -0.585096  -0.315228   0.243606   0.087702  -1.414039
    10  C   -0.391218  -2.105476  -1.484670   0.753818  -0.068482   0.845268
    11  C   -0.411768   1.239366  -1.691127   0.828029  -0.116420  -0.264417
    12  C   -1.267247  -1.816777   1.907409  -0.826734   0.054231  -0.977835
    13  C   -0.331017  -1.583672  -1.905677  -0.603969  -0.035533   0.994329
    14  H    0.104677   0.054729   0.056536  -0.067431  -0.001957  -0.013565
    15  C    1.459580   2.645857   0.001923  -0.452339  -0.051998   0.305875
    16  C   -1.307647  -3.208859   0.028515  -1.567145   0.024547  -0.117976
    17  C   -0.270314   0.784951   0.078293   0.467696   0.029751  -1.846241
    18  H    0.045596  -0.021082  -0.060655  -0.040577  -0.007525   0.039271
    19  C    0.158816   0.100144   0.163842  -0.133640   0.012728  -1.483928
    20  H    0.032719  -0.015585  -0.012086   0.009867  -0.001599   0.020501
    21  C    1.970949   0.174383   2.198694  -0.986125  -0.010425   0.049752
    22  C   -1.380147  -0.097483  -2.396380   1.717638   0.007840   0.090170
    23  C    0.337268   0.596295   0.065594  -0.237867   0.032769   0.009057
    24  H   -0.023717  -0.005139  -0.026760   0.014000  -0.010086   0.032119
    25  C   -0.051985   0.118889   0.068177   0.119947   0.012590  -0.063886
    26  H    0.000201  -0.022842  -0.010431   0.086796  -0.003376   0.009238
    27  C   -0.228203  -0.253657   0.021933  -0.066667  -0.005998  -0.324581
    28  H    0.000742   0.006724   0.005350   0.007532   0.000353   0.028404
    29  H    0.003984   0.007223  -0.002588   0.000406   0.000283   0.027480
    30  C    0.194236   0.083292   0.300752  -0.141847   0.001758  -0.092184
    31  H   -0.059415  -0.017639  -0.049140   0.009840  -0.000405   0.010258
    32  C   -0.113835   0.060483   0.098108   0.268026   0.001647  -0.029553
    33  H   -0.002933  -0.018506  -0.023646  -0.094128   0.000380   0.010140
    34  C   -0.079272  -0.185004  -0.026116  -0.195165  -0.005931   0.029471
    35  H    0.006371   0.002725   0.001184   0.000091   0.000773  -0.001959
    36  H    0.001991   0.005605   0.000081   0.000269   0.000599  -0.000480
    37  H   -0.007067  -0.007393  -0.002540   0.000056  -0.000342   0.018512
    38  C    0.005501  -0.020232  -0.102187   0.021025  -0.000510   0.039246
    39  H    0.003505   0.000720   0.006991   0.000334   0.000014  -0.003082
    40  H    0.002153  -0.000081   0.007200   0.005410  -0.000026  -0.000769
    41  H   -0.000248  -0.004705  -0.000774  -0.004954  -0.000384   0.000710
    42  H    0.000744  -0.000719  -0.005039   0.000849  -0.000012   0.001034
               7          8          9         10         11         12
     1  C   -6.581577   0.020159  -3.161081  -0.391218  -0.411768  -1.267247
     2  C   -2.443053   0.020168  -0.585096  -2.105476   1.239366  -1.816777
     3  C    1.642766   0.343081  -0.315228  -1.484670  -1.691127   1.907409
     4  C   -7.477761   0.128111   0.243606   0.753818   0.828029  -0.826734
     5  H    0.100418  -0.002854   0.087702  -0.068482  -0.116420   0.054231
     6  C   -0.767710   0.020370  -1.414039   0.845268  -0.264417  -0.977835
     7  C   19.776275  -0.160198   1.927303  -0.691148  -0.862328   1.514162
     8  H   -0.160198   0.488567   0.051688  -0.023969   0.034672  -0.083674
     9  C    1.927303   0.051688  13.644615  -2.163116  -0.337542   0.189847
    10  C   -0.691148  -0.023969  -2.163116  14.263164   0.343781  -0.111499
    11  C   -0.862328   0.034672  -0.337542   0.343781  16.031753  -7.824454
    12  C    1.514162  -0.083674   0.189847  -0.111499  -7.824454  16.231946
    13  C    0.677275  -0.022627  -2.141705   1.237926   0.129566   0.093380
    14  H   -0.039727  -0.002060   0.273865   0.060423   0.000416  -0.002143
    15  C   -0.817953  -0.011161  -2.898015  -1.083930  -0.294552   0.200485
    16  C    1.636224   0.010218   3.495397  -0.898576   0.150704  -0.090025
    17  C   -0.112454   0.013731   0.091405   0.050407  -1.561812   0.393101
    18  H   -0.017455  -0.001891  -0.028189   0.025918   0.530584  -0.039313
    19  C    0.195614  -0.003614   0.056982  -0.083893   0.310413  -0.853122
    20  H   -0.032768   0.002788  -0.002873   0.012492  -0.000640   0.380401
    21  C   -1.094709  -0.051774  -2.736031   0.254384  -0.036713  -0.029235
    22  C   -1.187479   0.019450   2.795221  -0.313140   0.043941   0.001797
    23  C   -0.064066  -0.001266   0.117106  -1.987416  -0.087119   0.044041
    24  H   -0.010229  -0.000076  -0.062635  -0.004168   0.004006   0.003713
    25  C    0.189943   0.002285   0.135558  -1.567740   0.008063  -0.004002
    26  H   -0.080318   0.000462  -0.022399  -0.003786  -0.001242   0.002004
    27  C    0.024516   0.000076  -0.037686   0.027597   0.021069  -0.390970
    28  H    0.002803   0.000315   0.001966  -0.001246  -0.122293   0.020954
    29  H    0.001590  -0.001047   0.000053  -0.000828   0.004822  -0.093135
    30  C    0.025459  -0.021914   0.126508  -0.041216   0.003336  -0.033796
    31  H    0.050767  -0.001316  -0.030004   0.013611  -0.001467   0.019684
    32  C   -0.088030   0.023492   0.357834  -0.072000  -0.017453   0.025652
    33  H    0.093679  -0.004352  -0.043640  -0.001233   0.002018  -0.001120
    34  C    0.005863   0.000188   0.017784  -0.148803  -0.001317   0.000240
    35  H    0.004070  -0.000049   0.008643   0.016939  -0.000444   0.000262
    36  H    0.005154  -0.000047   0.001584   0.010431  -0.000167   0.000094
    37  H    0.001151   0.000221  -0.000936   0.000751   0.023641  -0.003152
    38  C   -0.261372  -0.007891  -0.064031   0.037917   0.007627  -0.015474
    39  H    0.002385  -0.000331   0.006195  -0.001047  -0.000555   0.001224
    40  H    0.000368   0.000882   0.004487  -0.003173  -0.000181   0.000213
    41  H    0.000674  -0.000003  -0.003499   0.025842   0.000013   0.000009
    42  H   -0.006275  -0.000251  -0.005395   0.001065   0.000198  -0.000377
              13         14         15         16         17         18
     1  C   -0.331017   0.104677   1.459580  -1.307647  -0.270314   0.045596
     2  C   -1.583672   0.054729   2.645857  -3.208859   0.784951  -0.021082
     3  C   -1.905677   0.056536   0.001923   0.028515   0.078293  -0.060655
     4  C   -0.603969  -0.067431  -0.452339  -1.567145   0.467696  -0.040577
     5  H   -0.035533  -0.001957  -0.051998   0.024547   0.029751  -0.007525
     6  C    0.994329  -0.013565   0.305875  -0.117976  -1.846241   0.039271
     7  C    0.677275  -0.039727  -0.817953   1.636224  -0.112454  -0.017455
     8  H   -0.022627  -0.002060  -0.011161   0.010218   0.013731  -0.001891
     9  C   -2.141705   0.273865  -2.898015   3.495397   0.091405  -0.028189
    10  C    1.237926   0.060423  -1.083930  -0.898576   0.050407   0.025918
    11  C    0.129566   0.000416  -0.294552   0.150704  -1.561812   0.530584
    12  C    0.093380  -0.002143   0.200485  -0.090025   0.393101  -0.039313
    13  C   12.891500   0.019714   0.154470  -0.156344  -0.032974   0.015005
    14  H    0.019714   0.501618   0.096003  -0.176470  -0.002666   0.000451
    15  C    0.154470   0.096003  15.307493  -8.151018  -0.119548   0.007526
    16  C   -0.156344  -0.176470  -8.151018  17.277905   0.062423  -0.004765
    17  C   -0.032974  -0.002666  -0.119548   0.062423   8.684954  -0.166240
    18  H    0.015005   0.000451   0.007526  -0.004765  -0.166240   0.476540
    19  C   -0.095892   0.003191   0.025081  -0.010628  -0.652128   0.008184
    20  H    0.012131  -0.000313  -0.005444   0.003955   0.003903  -0.000252
    21  C   -0.660700   0.063756   0.153614  -0.191061   0.026222  -0.002315
    22  C   -0.533148  -0.116314  -0.200972   0.349324  -0.009887   0.002326
    23  C   -0.038975   0.012386  -0.249043  -0.122642  -0.005046  -0.004550
    24  H    0.015595  -0.001338   0.521757  -0.048127  -0.005506   0.001693
    25  C   -0.090015  -0.011038   0.254366  -0.544900  -0.001139  -0.000817
    26  H   -0.011472  -0.002134  -0.034395   0.436864  -0.000183   0.000276
    27  C    0.043426   0.000140   0.002250  -0.002341   0.194530   0.020964
    28  H   -0.001045  -0.000062  -0.000872   0.000661   0.446645  -0.011629
    29  H   -0.002965  -0.000002   0.000249  -0.000047   0.007691  -0.000005
    30  C   -1.605863   0.005139  -0.015845   0.034365   0.009425  -0.001311
    31  H   -0.002810  -0.002497   0.005756  -0.005706   0.000582   0.000143
    32  C   -1.648707  -0.014791   0.008372  -0.033139  -0.001717  -0.000282
    33  H    0.029536  -0.001377  -0.006306   0.027688   0.000058   0.000142
    34  C    0.033916  -0.003097  -0.359850  -0.272804  -0.000160   0.000502
    35  H   -0.001105   0.000219  -0.097162   0.018088   0.000074  -0.000090
    36  H   -0.002056  -0.000800   0.003795  -0.075388  -0.000031  -0.000018
    37  H    0.001215  -0.000004   0.000027  -0.000011  -0.081354   0.001109
    38  C   -0.169932   0.001860   0.006144  -0.018845  -0.000008   0.000260
    39  H    0.021359   0.000315  -0.000277   0.000520  -0.000026  -0.000007
    40  H    0.012464  -0.001031  -0.000516   0.001987   0.000020  -0.000011
    41  H    0.001050   0.000219   0.015958  -0.014969  -0.000007   0.000038
    42  H    0.021403   0.000099   0.000154  -0.000472   0.000004   0.000005
              19         20         21         22         23         24
     1  C    0.158816   0.032719   1.970949  -1.380147   0.337268  -0.023717
     2  C    0.100144  -0.015585   0.174383  -0.097483   0.596295  -0.005139
     3  C    0.163842  -0.012086   2.198694  -2.396380   0.065594  -0.026760
     4  C   -0.133640   0.009867  -0.986125   1.717638  -0.237867   0.014000
     5  H    0.012728  -0.001599  -0.010425   0.007840   0.032769  -0.010086
     6  C   -1.483928   0.020501   0.049752   0.090170   0.009057   0.032119
     7  C    0.195614  -0.032768  -1.094709  -1.187479  -0.064066  -0.010229
     8  H   -0.003614   0.002788  -0.051774   0.019450  -0.001266  -0.000076
     9  C    0.056982  -0.002873  -2.736031   2.795221   0.117106  -0.062635
    10  C   -0.083893   0.012492   0.254384  -0.313140  -1.987416  -0.004168
    11  C    0.310413  -0.000640  -0.036713   0.043941  -0.087119   0.004006
    12  C   -0.853122   0.380401  -0.029235   0.001797   0.044041   0.003713
    13  C   -0.095892   0.012131  -0.660700  -0.533148  -0.038975   0.015595
    14  H    0.003191  -0.000313   0.063756  -0.116314   0.012386  -0.001338
    15  C    0.025081  -0.005444   0.153614  -0.200972  -0.249043   0.521757
    16  C   -0.010628   0.003955  -0.191061   0.349324  -0.122642  -0.048127
    17  C   -0.652128   0.003903   0.026222  -0.009887  -0.005046  -0.005506
    18  H    0.008184  -0.000252  -0.002315   0.002326  -0.004550   0.001693
    19  C    7.847000  -0.084768  -0.013437  -0.001780   0.001418  -0.002052
    20  H   -0.084768   0.476053  -0.003579   0.004291  -0.000832   0.000097
    21  C   -0.013437  -0.003579  13.896468  -6.003395  -0.011068   0.006069
    22  C   -0.001780   0.004291  -6.003395  13.771986   0.028952  -0.006115
    23  C    0.001418  -0.000832  -0.011068   0.028952   7.952218  -0.099728
    24  H   -0.002052   0.000097   0.006069  -0.006115  -0.099728   0.484486
    25  C    0.001620  -0.000084   0.000605  -0.013697  -0.520697  -0.005800
    26  H   -0.000169   0.000154  -0.008274   0.027669  -0.018816   0.000575
    27  C    0.481029  -0.000770  -0.020368   0.006692  -0.001032   0.001396
    28  H    0.003731  -0.000037   0.000419  -0.000133   0.000098  -0.000094
    29  H    0.420502  -0.009285   0.001845  -0.000461   0.000038  -0.000027
    30  C   -0.023814   0.000611  -0.366783  -0.013127  -0.000992  -0.000203
    31  H   -0.003702  -0.003252   0.468507  -0.028292  -0.000221   0.000342
    32  C    0.006059  -0.000048  -0.204046  -0.085926   0.006462  -0.000934
    33  H   -0.000649   0.000078  -0.013890   0.424911   0.002132   0.000013
    34  C   -0.000639  -0.000008   0.005772  -0.015782   0.358146   0.022291
    35  H    0.000100   0.000016  -0.000292   0.000612   0.430472  -0.010983
    36  H    0.000009  -0.000002  -0.000233   0.001024   0.016315  -0.000298
    37  H   -0.063866   0.001018  -0.000561   0.000185  -0.000023   0.000054
    38  C   -0.004251  -0.000346  -0.214706  -0.458520   0.000079   0.000197
    39  H    0.000451   0.000266  -0.090675   0.008204   0.000015  -0.000013
    40  H    0.000023   0.000013   0.000940  -0.078983  -0.000074  -0.000002
    41  H   -0.000013   0.000002   0.000178  -0.000531  -0.081593   0.001169
    42  H   -0.000111  -0.000008   0.009609  -0.003704   0.000003   0.000005
              25         26         27         28         29         30
     1  C   -0.051985   0.000201  -0.228203   0.000742   0.003984   0.194236
     2  C    0.118889  -0.022842  -0.253657   0.006724   0.007223   0.083292
     3  C    0.068177  -0.010431   0.021933   0.005350  -0.002588   0.300752
     4  C    0.119947   0.086796  -0.066667   0.007532   0.000406  -0.141847
     5  H    0.012590  -0.003376  -0.005998   0.000353   0.000283   0.001758
     6  C   -0.063886   0.009238  -0.324581   0.028404   0.027480  -0.092184
     7  C    0.189943  -0.080318   0.024516   0.002803   0.001590   0.025459
     8  H    0.002285   0.000462   0.000076   0.000315  -0.001047  -0.021914
     9  C    0.135558  -0.022399  -0.037686   0.001966   0.000053   0.126508
    10  C   -1.567740  -0.003786   0.027597  -0.001246  -0.000828  -0.041216
    11  C    0.008063  -0.001242   0.021069  -0.122293   0.004822   0.003336
    12  C   -0.004002   0.002004  -0.390970   0.020954  -0.093135  -0.033796
    13  C   -0.090015  -0.011472   0.043426  -0.001045  -0.002965  -1.605863
    14  H   -0.011038  -0.002134   0.000140  -0.000062  -0.000002   0.005139
    15  C    0.254366  -0.034395   0.002250  -0.000872   0.000249  -0.015845
    16  C   -0.544900   0.436864  -0.002341   0.000661  -0.000047   0.034365
    17  C   -0.001139  -0.000183   0.194530   0.446645   0.007691   0.009425
    18  H   -0.000817   0.000276   0.020964  -0.011629  -0.000005  -0.001311
    19  C    0.001620  -0.000169   0.481029   0.003731   0.420502  -0.023814
    20  H   -0.000084   0.000154  -0.000770  -0.000037  -0.009285   0.000611
    21  C    0.000605  -0.008274  -0.020368   0.000419   0.001845  -0.366783
    22  C   -0.013697   0.027669   0.006692  -0.000133  -0.000461  -0.013127
    23  C   -0.520697  -0.018816  -0.001032   0.000098   0.000038  -0.000992
    24  H   -0.005800   0.000575   0.001396  -0.000094  -0.000027  -0.000203
    25  C    7.573586  -0.034513  -0.000426   0.000008  -0.000000   0.005283
    26  H   -0.034513   0.496619   0.000070   0.000006  -0.000005   0.000942
    27  C   -0.000426   0.000070   6.540074  -0.070598  -0.054540  -0.005443
    28  H    0.000008   0.000006  -0.070598   0.474690   0.000566   0.000069
    29  H   -0.000000  -0.000005  -0.054540   0.000566   0.473209   0.000283
    30  C    0.005283   0.000942  -0.005443   0.000069   0.000283   7.785733
    31  H   -0.000745  -0.000025   0.000741   0.000021   0.000145  -0.067784
    32  C   -0.017933   0.002421  -0.000090   0.000016   0.000008  -0.573970
    33  H   -0.005837  -0.004806   0.000092  -0.000004   0.000003  -0.009797
    34  C    0.438376   0.014386   0.000159   0.000006   0.000003   0.000108
    35  H    0.009255  -0.000491  -0.000030   0.000003  -0.000000   0.000008
    36  H    0.410493  -0.009981  -0.000001  -0.000001  -0.000000  -0.000016
    37  H   -0.000009   0.000003   0.457898  -0.009828  -0.009963  -0.000132
    38  C   -0.004436  -0.000752  -0.000053  -0.000002   0.000036   0.432934
    39  H    0.000036   0.000047   0.000024  -0.000001  -0.000018   0.422059
    40  H    0.000695   0.000514  -0.000002   0.000000  -0.000001   0.012380
    41  H   -0.058314   0.001181   0.000006  -0.000001  -0.000000   0.000004
    42  H   -0.000126  -0.000048   0.000004  -0.000000  -0.000000  -0.076339
              31         32         33         34         35         36
     1  C   -0.059415  -0.113835  -0.002933  -0.079272   0.006371   0.001991
     2  C   -0.017639   0.060483  -0.018506  -0.185004   0.002725   0.005605
     3  C   -0.049140   0.098108  -0.023646  -0.026116   0.001184   0.000081
     4  C    0.009840   0.268026  -0.094128  -0.195165   0.000091   0.000269
     5  H   -0.000405   0.001647   0.000380  -0.005931   0.000773   0.000599
     6  C    0.010258  -0.029553   0.010140   0.029471  -0.001959  -0.000480
     7  C    0.050767  -0.088030   0.093679   0.005863   0.004070   0.005154
     8  H   -0.001316   0.023492  -0.004352   0.000188  -0.000049  -0.000047
     9  C   -0.030004   0.357834  -0.043640   0.017784   0.008643   0.001584
    10  C    0.013611  -0.072000  -0.001233  -0.148803   0.016939   0.010431
    11  C   -0.001467  -0.017453   0.002018  -0.001317  -0.000444  -0.000167
    12  C    0.019684   0.025652  -0.001120   0.000240   0.000262   0.000094
    13  C   -0.002810  -1.648707   0.029536   0.033916  -0.001105  -0.002056
    14  H   -0.002497  -0.014791  -0.001377  -0.003097   0.000219  -0.000800
    15  C    0.005756   0.008372  -0.006306  -0.359850  -0.097162   0.003795
    16  C   -0.005706  -0.033139   0.027688  -0.272804   0.018088  -0.075388
    17  C    0.000582  -0.001717   0.000058  -0.000160   0.000074  -0.000031
    18  H    0.000143  -0.000282   0.000142   0.000502  -0.000090  -0.000018
    19  C   -0.003702   0.006059  -0.000649  -0.000639   0.000100   0.000009
    20  H   -0.003252  -0.000048   0.000078  -0.000008   0.000016  -0.000002
    21  C    0.468507  -0.204046  -0.013890   0.005772  -0.000292  -0.000233
    22  C   -0.028292  -0.085926   0.424911  -0.015782   0.000612   0.001024
    23  C   -0.000221   0.006462   0.002132   0.358146   0.430472   0.016315
    24  H    0.000342  -0.000934   0.000013   0.022291  -0.010983  -0.000298
    25  C   -0.000745  -0.017933  -0.005837   0.438376   0.009255   0.410493
    26  H   -0.000025   0.002421  -0.004806   0.014386  -0.000491  -0.009981
    27  C    0.000741  -0.000090   0.000092   0.000159  -0.000030  -0.000001
    28  H    0.000021   0.000016  -0.000004   0.000006   0.000003  -0.000001
    29  H    0.000145   0.000008   0.000003   0.000003  -0.000000  -0.000000
    30  C   -0.067784  -0.573970  -0.009797   0.000108   0.000008  -0.000016
    31  H    0.496856  -0.012953   0.000504   0.000185  -0.000016  -0.000000
    32  C   -0.012953   7.702118  -0.067887  -0.004752   0.000050   0.000390
    33  H    0.000504  -0.067887   0.498843  -0.000412   0.000050   0.000389
    34  C    0.000185  -0.004752  -0.000412   6.438696  -0.071637  -0.056855
    35  H   -0.000016   0.000050   0.000050  -0.071637   0.475320   0.001105
    36  H   -0.000000   0.000390   0.000389  -0.056855   0.001105   0.473217
    37  H    0.000000   0.000001   0.000003   0.000006  -0.000001  -0.000000
    38  C    0.027132   0.468324   0.018361  -0.000162   0.000000   0.000054
    39  H   -0.013093   0.012759  -0.000493  -0.000002   0.000000  -0.000001
    40  H   -0.000541   0.423463  -0.012844   0.000072  -0.000002  -0.000038
    41  H    0.000004  -0.000123  -0.000022   0.462171  -0.010707  -0.010444
    42  H    0.002101  -0.067407   0.001863   0.000001  -0.000000   0.000001
              37         38         39         40         41         42
     1  C   -0.007067   0.005501   0.003505   0.002153  -0.000248   0.000744
     2  C   -0.007393  -0.020232   0.000720  -0.000081  -0.004705  -0.000719
     3  C   -0.002540  -0.102187   0.006991   0.007200  -0.000774  -0.005039
     4  C    0.000056   0.021025   0.000334   0.005410  -0.004954   0.000849
     5  H   -0.000342  -0.000510   0.000014  -0.000026  -0.000384  -0.000012
     6  C    0.018512   0.039246  -0.003082  -0.000769   0.000710   0.001034
     7  C    0.001151  -0.261372   0.002385   0.000368   0.000674  -0.006275
     8  H    0.000221  -0.007891  -0.000331   0.000882  -0.000003  -0.000251
     9  C   -0.000936  -0.064031   0.006195   0.004487  -0.003499  -0.005395
    10  C    0.000751   0.037917  -0.001047  -0.003173   0.025842   0.001065
    11  C    0.023641   0.007627  -0.000555  -0.000181   0.000013   0.000198
    12  C   -0.003152  -0.015474   0.001224   0.000213   0.000009  -0.000377
    13  C    0.001215  -0.169932   0.021359   0.012464   0.001050   0.021403
    14  H   -0.000004   0.001860   0.000315  -0.001031   0.000219   0.000099
    15  C    0.000027   0.006144  -0.000277  -0.000516   0.015958   0.000154
    16  C   -0.000011  -0.018845   0.000520   0.001987  -0.014969  -0.000472
    17  C   -0.081354  -0.000008  -0.000026   0.000020  -0.000007   0.000004
    18  H    0.001109   0.000260  -0.000007  -0.000011   0.000038   0.000005
    19  C   -0.063866  -0.004251   0.000451   0.000023  -0.000013  -0.000111
    20  H    0.001018  -0.000346   0.000266   0.000013   0.000002  -0.000008
    21  C   -0.000561  -0.214706  -0.090675   0.000940   0.000178   0.009609
    22  C    0.000185  -0.458520   0.008204  -0.078983  -0.000531  -0.003704
    23  C   -0.000023   0.000079   0.000015  -0.000074  -0.081593   0.000003
    24  H    0.000054   0.000197  -0.000013  -0.000002   0.001169   0.000005
    25  C   -0.000009  -0.004436   0.000036   0.000695  -0.058314  -0.000126
    26  H    0.000003  -0.000752   0.000047   0.000514   0.001181  -0.000048
    27  C    0.457898  -0.000053   0.000024  -0.000002   0.000006   0.000004
    28  H   -0.009828  -0.000002  -0.000001   0.000000  -0.000001  -0.000000
    29  H   -0.009963   0.000036  -0.000018  -0.000001  -0.000000  -0.000000
    30  C   -0.000132   0.432934   0.422059   0.012380   0.000004  -0.076339
    31  H    0.000000   0.027132  -0.013093  -0.000541   0.000004   0.002101
    32  C    0.000001   0.468324   0.012759   0.423463  -0.000123  -0.067407
    33  H    0.000003   0.018361  -0.000493  -0.012844  -0.000022   0.001863
    34  C    0.000006  -0.000162  -0.000002   0.000072   0.462171   0.000001
    35  H   -0.000001   0.000000   0.000000  -0.000002  -0.010707  -0.000000
    36  H   -0.000000   0.000054  -0.000001  -0.000038  -0.010444   0.000001
    37  H    0.484524   0.000002  -0.000000  -0.000000   0.000000   0.000000
    38  C    0.000002   6.367805  -0.067478  -0.062906  -0.000000   0.466761
    39  H   -0.000000  -0.067478   0.476216   0.001132  -0.000000  -0.012100
    40  H   -0.000000  -0.062906   0.001132   0.476947   0.000000  -0.011743
    41  H    0.000000  -0.000000  -0.000000   0.000000   0.486832   0.000000
    42  H    0.000000   0.466761  -0.012100  -0.011743   0.000000   0.488613
 Mulliken charges:
               1
     1  C    0.977096
     2  C   -1.077944
     3  C   -1.492769
     4  C    0.987989
     5  H    0.169174
     6  C    0.983799
     7  C    0.918150
     8  H    0.221439
     9  C   -1.582206
    10  C    1.270040
    11  C   -0.084003
    12  C   -0.620765
    13  C    1.272940
    14  H    0.205062
    15  C   -0.325537
    16  C   -0.539476
    17  C   -0.476422
    18  H    0.232448
    19  C   -0.280836
    20  H    0.213224
    21  C   -0.531772
    22  C   -0.356835
    23  C   -0.477797
    24  H    0.214456
    25  C   -0.351636
    26  H    0.190030
    27  C   -0.381228
    28  H    0.215764
    29  H    0.224500
    30  C   -0.352308
    31  H    0.193844
    32  C   -0.410106
    33  H    0.202999
    34  C   -0.400571
    35  H    0.218537
    36  H    0.224257
    37  H    0.196807
    38  C   -0.427170
    39  H    0.224427
    40  H    0.221557
    41  H    0.195232
    42  H    0.195611
 Sum of Mulliken charges =  -0.00000
 Mulliken charges with hydrogens summed into heavy atoms:
               1
     1  C    0.977096
     2  C   -0.908770
     3  C   -1.271330
     4  C    0.987989
     6  C    0.983799
     7  C    0.918150
     9  C   -1.377144
    10  C    1.270040
    11  C    0.148444
    12  C   -0.407542
    13  C    1.272940
    15  C   -0.111081
    16  C   -0.349447
    17  C   -0.260658
    19  C   -0.056336
    21  C   -0.337927
    22  C   -0.153836
    23  C   -0.259259
    25  C   -0.127378
    27  C   -0.184421
    30  C   -0.127881
    32  C   -0.188549
    34  C   -0.205339
    38  C   -0.231559
 Electronic spatial extent (au):  <R**2>=          10005.8676
 Charge=             -0.0000 electrons
 Dipole moment (field-independent basis, Debye):
    X=              0.0144    Y=             -0.0101    Z=             -0.0009  Tot=              0.0176
 Quadrupole moment (field-independent basis, Debye-Ang):
   XX=           -126.4194   YY=           -128.2659   ZZ=           -139.6175
   XY=              0.0832   XZ=             -6.4681   YZ=             -3.0229
 Traceless Quadrupole moment (field-independent basis, Debye-Ang):
   XX=              5.0149   YY=              3.1684   ZZ=             -8.1832
   XY=              0.0832   XZ=             -6.4681   YZ=             -3.0229
 Octapole moment (field-independent basis, Debye-Ang**2):
  XXX=             33.8333  YYY=              9.3346  ZZZ=              0.9114  XYY=            -43.4229
  XXY=             -6.0294  XXZ=             30.2415  XZZ=              9.3780  YZZ=             -3.1670
  YYZ=            -31.2673  XYZ=            -21.4040
 Hexadecapole moment (field-independent basis, Debye-Ang**3):
 XXXX=          -6261.4402 YYYY=          -6220.7715 ZZZZ=           -576.3281 XXXY=              5.4862
 XXXZ=           -122.8529 YYYX=              5.7080 YYYZ=             14.2006 ZZZX=            -15.3653
 ZZZY=            -16.0614 XXYY=          -2113.5569 XXZZ=          -1205.5826 YYZZ=          -1224.2911
 XXYZ=            -75.7395 YYXZ=            -27.3466 ZZXY=             -8.7298
 N-N= 1.731704079066D+03 E-N=-5.609867912109D+03  KE= 9.212941658485D+02
 No NMR shielding tensors so no spin-rotation constants.
 Leave Link  601 at Mon Nov 14 15:06:57 2022, MaxMem= 16106127360 cpu:              10.2 elap:               0.4
 (Enter /opt/ap/G16/B01/g16/l9999.exe)
 1\1\GINC-N62\SP\RwB97XD\6-311++G(d,p)\C24H18\ROOT\14-Nov-2022\0\\#P wB
 97XD/6-311++G(d,p) scf=maxcycle=512\\_conf007.gjf nmol_natom 1_42\\0,1
 \C\C,1,1.39412829\C,1,1.39435449,2,118.86443127\C,2,1.39416084,1,121.1
 529487,3,0.03668482,0\H,2,1.08488355,1,119.42236619,3,-179.97409048,0\
 C,1,1.48467131,2,120.55714816,4,179.25839056,0\C,3,1.39437784,1,121.11
 776116,2,-0.05351271,0\H,3,1.08487775,1,119.41869036,2,177.23008049,0\
 C,4,1.39432447,2,118.86473838,1,0.01008406,0\C,4,1.48466627,2,120.5464
 188,1,179.19454736,0\C,6,1.3968498,1,120.7843492,2,-55.,0\C,6,1.396868
 2,1,120.67653841,2,125.,0\C,7,1.48449863,3,120.56496838,1,-179.9632580
 4,0\H,9,1.0848792,4,119.41824946,2,177.22245984,0\C,10,1.39685361,4,12
 0.76946845,2,-42.52368674,0\C,10,1.39686289,4,120.69448769,2,137.43107
 516,0\C,11,1.38888939,6,120.7380073,1,179.94058542,0\H,11,1.0847641,6,
 119.46912378,1,-1.41050605,0\C,12,1.38882428,6,120.76493111,1,-179.950
 82712,0\H,12,1.08482758,6,119.44182626,1,-1.23602505,0\C,13,1.39682899
 ,7,120.74134419,3,42.89023273,0\C,13,1.39683158,7,120.7379111,3,-137.1
 2494058,0\C,15,1.38888263,10,120.742191,4,179.9460119,0\H,15,1.0847633
 4,10,119.47085903,4,-1.40606944,0\C,16,1.38886088,10,120.76338989,4,-1
 79.95592713,0\H,16,1.08483431,10,119.44215232,4,-1.23439681,0\C,17,1.3
 9007919,11,120.20743432,6,0.00349958,0\H,17,1.0843506,11,119.71318733,
 6,179.5011609,0\H,19,1.08435858,12,119.73823132,6,179.53683762,0\C,21,
 1.38882373,13,120.76699356,7,179.99297883,0\H,21,1.0847938,13,119.4352
 623,7,1.32183327,0\C,22,1.38881869,13,120.76647403,7,-179.97118338,0\H
 ,22,1.08479982,13,119.43203605,7,1.34657928,0\C,23,1.39007007,15,120.2
 0732995,10,0.00573957,0\H,23,1.08434813,15,119.71220819,10,179.5072436
 8,0\H,25,1.08436328,16,119.73539424,10,179.53636455,0\H,27,1.08412515,
 17,120.21790854,11,179.98397203,0\C,30,1.39008059,21,120.18795226,13,-
 0.02169059,0\H,30,1.08435324,21,119.73787119,13,-179.52151214,0\H,32,1
 .0843543,22,119.737043,13,-179.52886928,0\H,34,1.08412314,23,120.22152
 803,15,179.98800213,0\H,38,1.08411439,30,120.21547163,21,-179.98600656
 ,0\\Version=ES64L-G16RevB.01\State=1-A\HF=-925.3113232\RMSD=8.491e-09\
 Dipole=-0.0069022,0.0004584,0.0001824\Quadrupole=3.1514978,-5.7216653,
 2.5701674,-2.9225188,0.4975508,-4.7944378\PG=C01 [X(C24H18)]\\@


 We're simply so accustomed to the marvels of everyday thought
 that we never wonder about it.
 -- Marvin Minsky in "Why people think computers are smart"
 Job cpu time:       0 days  1 hours 18 minutes 53.8 seconds.
 Elapsed time:       0 days  0 hours  2 minutes 29.5 seconds.
 File lengths (MBytes):  RWF=    224 Int=      0 D2E=      0 Chk=     26 Scr=      1
 Normal termination of Gaussian 16 at Mon Nov 14 15:06:57 2022.
