 Entering Gaussian System, Link 0=g16
 Input=_conf025.gjf
 Output=_conf025.log
 Initial command:
 /opt/ap/G16/B01/g16/l1.exe "/tmp2/scr/Gau-12137.inp" -scrdir="/tmp2/scr/"
 Entering Link 1 = /opt/ap/G16/B01/g16/l1.exe PID=     12138.
  
 Copyright (c) 1988-2017, Gaussian, Inc.  All Rights Reserved.
  
 This is part of the Gaussian(R) 16 program.  It is based on
 the Gaussian(R) 09 system (copyright 2009, Gaussian, Inc.),
 the Gaussian(R) 03 system (copyright 2003, Gaussian, Inc.),
 the Gaussian(R) 98 system (copyright 1998, Gaussian, Inc.),
 the Gaussian(R) 94 system (copyright 1995, Gaussian, Inc.),
 the Gaussian 92(TM) system (copyright 1992, Gaussian, Inc.),
 the Gaussian 90(TM) system (copyright 1990, Gaussian, Inc.),
 the Gaussian 88(TM) system (copyright 1988, Gaussian, Inc.),
 the Gaussian 86(TM) system (copyright 1986, Carnegie Mellon
 University), and the Gaussian 82(TM) system (copyright 1983,
 Carnegie Mellon University). Gaussian is a federally registered
 trademark of Gaussian, Inc.
  
 This software contains proprietary and confidential information,
 including trade secrets, belonging to Gaussian, Inc.
  
 This software is provided under written license and may be
 used, copied, transmitted, or stored only in accord with that
 written license.
  
 The following legend is applicable only to US Government
 contracts under FAR:
  
                    RESTRICTED RIGHTS LEGEND
  
 Use, reproduction and disclosure by the US Government is
 subject to restrictions as set forth in subparagraphs (a)
 and (c) of the Commercial Computer Software - Restricted
 Rights clause in FAR 52.227-19.
  
 Gaussian, Inc.
 340 Quinnipiac St., Bldg. 40, Wallingford CT 06492
  
  
 ---------------------------------------------------------------
 Warning -- This program may not be used in any manner that
 competes with the business of Gaussian, Inc. or will provide
 assistance to any competitor of Gaussian, Inc.  The licensee
 of this program is prohibited from giving any competitor of
 Gaussian, Inc. access to this program.  By using this program,
 the user acknowledges that Gaussian, Inc. is engaged in the
 business of creating and licensing software in the field of
 computational chemistry and represents and warrants to the
 licensee that it is not a competitor of Gaussian, Inc. and that
 it will not use this program in any manner prohibited above.
 ---------------------------------------------------------------
  

 Cite this work as:
 Gaussian 16, Revision B.01,
 M. J. Frisch, G. W. Trucks, H. B. Schlegel, G. E. Scuseria, 
 M. A. Robb, J. R. Cheeseman, G. Scalmani, V. Barone, 
 G. A. Petersson, H. Nakatsuji, X. Li, M. Caricato, A. V. Marenich, 
 J. Bloino, B. G. Janesko, R. Gomperts, B. Mennucci, H. P. Hratchian, 
 J. V. Ortiz, A. F. Izmaylov, J. L. Sonnenberg, D. Williams-Young, 
 F. Ding, F. Lipparini, F. Egidi, J. Goings, B. Peng, A. Petrone, 
 T. Henderson, D. Ranasinghe, V. G. Zakrzewski, J. Gao, N. Rega, 
 G. Zheng, W. Liang, M. Hada, M. Ehara, K. Toyota, R. Fukuda, 
 J. Hasegawa, M. Ishida, T. Nakajima, Y. Honda, O. Kitao, H. Nakai, 
 T. Vreven, K. Throssell, J. A. Montgomery, Jr., J. E. Peralta, 
 F. Ogliaro, M. J. Bearpark, J. J. Heyd, E. N. Brothers, K. N. Kudin, 
 V. N. Staroverov, T. A. Keith, R. Kobayashi, J. Normand, 
 K. Raghavachari, A. P. Rendell, J. C. Burant, S. S. Iyengar, 
 J. Tomasi, M. Cossi, J. M. Millam, M. Klene, C. Adamo, R. Cammi, 
 J. W. Ochterski, R. L. Martin, K. Morokuma, O. Farkas, 
 J. B. Foresman, and D. J. Fox, Gaussian, Inc., Wallingford CT, 2016.
 
 ******************************************
 Gaussian 16:  ES64L-G16RevB.01 20-Dec-2017
                14-Nov-2022 
 ******************************************
 %nprocshared=32
 Will use up to   32 processors via shared memory.
 %mem=120GB
 %chk=_conf025.chk
 ----------------------------------------
 #P wB97XD/6-311++G(d,p) scf=maxcycle=512
 ----------------------------------------
 1/38=1,172=1/1;
 2/12=2,17=6,18=5,40=1/2;
 3/5=4,6=6,7=1111,11=2,25=1,30=1,74=-58/1,2,3;
 4//1;
 5/5=2,7=512,38=5/2;
 6/7=2,8=2,9=2,10=2,28=1/1;
 99/5=1,9=1/99;
 Leave Link    1 at Mon Nov 14 15:16:58 2022, MaxMem= 16106127360 cpu:               2.6 elap:               0.1
 (Enter /opt/ap/G16/B01/g16/l101.exe)
 ----------------------------
 _conf025.gjf nmol_natom 1_42
 ----------------------------
 Symbolic Z-matrix:
 Charge =  0 Multiplicity = 1
 C
 C                    1     1.39413 
 C                    1     1.39435  2     118.86443 
 C                    2     1.39416  1     121.15295  3     0.03668  0
 H                    2     1.08488  1     119.42237  3    -179.97409  0
 C                    1     1.48467  2     120.55715  4     179.25839  0
 C                    3     1.39438  1     121.11776  2    -0.05351  0
 H                    3     1.08488  1     119.41869  2     177.23008  0
 C                    4     1.39432  2     118.86474  1     0.01008  0
 C                    4     1.48467  2     120.54642  1     179.19455  0
 C                    6     1.39685  1     120.78435  2     35.      0
 C                    6     1.39687  1     120.67654  2    -145.     0
 C                    7     1.4845   3     120.56497  1    -179.96326  0
 H                    9     1.08488  4     119.41825  2     177.22246  0
 C                    10    1.39685  4     120.76947  2    -42.52369  0
 C                    10    1.39686  4     120.69449  2     137.43108  0
 C                    11    1.38889  6     120.73801  1     179.94059  0
 H                    11    1.08476  6     119.46912  1    -1.41051  0
 C                    12    1.38882  6     120.76493  1    -179.95083  0
 H                    12    1.08483  6     119.44183  1    -1.23603  0
 C                    13    1.39683  7     120.74134  3     42.89023  0
 C                    13    1.39683  7     120.73791  3    -137.12494  0
 C                    15    1.38888  10    120.74219  4     179.94601  0
 H                    15    1.08476  10    119.47086  4    -1.40607  0
 C                    16    1.38886  10    120.76339  4    -179.95593  0
 H                    16    1.08483  10    119.44215  4    -1.2344   0
 C                    17    1.39008  11    120.20743  6     0.0035   0
 H                    17    1.08435  11    119.71319  6     179.50116  0
 H                    19    1.08436  12    119.73823  6     179.53684  0
 C                    21    1.38882  13    120.76699  7     179.99298  0
 H                    21    1.08479  13    119.43526  7     1.32183  0
 C                    22    1.38882  13    120.76647  7    -179.97118  0
 H                    22    1.0848   13    119.43204  7     1.34658  0
 C                    23    1.39007  15    120.20733  10    0.00574  0
 H                    23    1.08435  15    119.71221  10    179.50724  0
 H                    25    1.08436  16    119.73539  10    179.53636  0
 H                    27    1.08413  17    120.21791  11    179.98397  0
 C                    30    1.39008  21    120.18795  13   -0.02169  0
 H                    30    1.08435  21    119.73787  13   -179.52151  0
 H                    32    1.08435  22    119.73704  13   -179.52887  0
 H                    34    1.08412  23    120.22153  15    179.988  0
 H                    38    1.08411  30    120.21547  21   -179.98601  0
 
 ITRead=  0  0  0  0  0  0  0  0  0  0  0  0  0  0  0  0  0  0  0  0
 ITRead=  0  0  0  0  0  0  0  0  0  0  0  0  0  0  0  0  0  0  0  0
 ITRead=  0  0
 MicOpt= -1 -1 -1 -1 -1 -1 -1 -1 -1 -1 -1 -1 -1 -1 -1 -1 -1 -1 -1 -1
 MicOpt= -1 -1 -1 -1 -1 -1 -1 -1 -1 -1 -1 -1 -1 -1 -1 -1 -1 -1 -1 -1
 MicOpt= -1 -1
 NAtoms=     42 NQM=       42 NQMF=       0 NMMI=      0 NMMIF=      0
                NMic=       0 NMicF=      0.
                    Isotopes and Nuclear Properties:
 (Nuclear quadrupole moments (NQMom) in fm**2, nuclear magnetic moments (NMagM)
  in nuclear magnetons)

  Atom         1           2           3           4           5           6           7           8           9          10
 IAtWgt=          12          12          12          12           1          12          12           1          12          12
 AtmWgt=  12.0000000  12.0000000  12.0000000  12.0000000   1.0078250  12.0000000  12.0000000   1.0078250  12.0000000  12.0000000
 NucSpn=           0           0           0           0           1           0           0           1           0           0
 AtZEff=  -0.0000000  -0.0000000  -0.0000000  -0.0000000  -0.0000000  -0.0000000  -0.0000000  -0.0000000  -0.0000000  -0.0000000
 NQMom=    0.0000000   0.0000000   0.0000000   0.0000000   0.0000000   0.0000000   0.0000000   0.0000000   0.0000000   0.0000000
 NMagM=    0.0000000   0.0000000   0.0000000   0.0000000   2.7928460   0.0000000   0.0000000   2.7928460   0.0000000   0.0000000
 AtZNuc=   6.0000000   6.0000000   6.0000000   6.0000000   1.0000000   6.0000000   6.0000000   1.0000000   6.0000000   6.0000000

  Atom        11          12          13          14          15          16          17          18          19          20
 IAtWgt=          12          12          12           1          12          12          12           1          12           1
 AtmWgt=  12.0000000  12.0000000  12.0000000   1.0078250  12.0000000  12.0000000  12.0000000   1.0078250  12.0000000   1.0078250
 NucSpn=           0           0           0           1           0           0           0           1           0           1
 AtZEff=  -0.0000000  -0.0000000  -0.0000000  -0.0000000  -0.0000000  -0.0000000  -0.0000000  -0.0000000  -0.0000000  -0.0000000
 NQMom=    0.0000000   0.0000000   0.0000000   0.0000000   0.0000000   0.0000000   0.0000000   0.0000000   0.0000000   0.0000000
 NMagM=    0.0000000   0.0000000   0.0000000   2.7928460   0.0000000   0.0000000   0.0000000   2.7928460   0.0000000   2.7928460
 AtZNuc=   6.0000000   6.0000000   6.0000000   1.0000000   6.0000000   6.0000000   6.0000000   1.0000000   6.0000000   1.0000000

  Atom        21          22          23          24          25          26          27          28          29          30
 IAtWgt=          12          12          12           1          12           1          12           1           1          12
 AtmWgt=  12.0000000  12.0000000  12.0000000   1.0078250  12.0000000   1.0078250  12.0000000   1.0078250   1.0078250  12.0000000
 NucSpn=           0           0           0           1           0           1           0           1           1           0
 AtZEff=  -0.0000000  -0.0000000  -0.0000000  -0.0000000  -0.0000000  -0.0000000  -0.0000000  -0.0000000  -0.0000000  -0.0000000
 NQMom=    0.0000000   0.0000000   0.0000000   0.0000000   0.0000000   0.0000000   0.0000000   0.0000000   0.0000000   0.0000000
 NMagM=    0.0000000   0.0000000   0.0000000   2.7928460   0.0000000   2.7928460   0.0000000   2.7928460   2.7928460   0.0000000
 AtZNuc=   6.0000000   6.0000000   6.0000000   1.0000000   6.0000000   1.0000000   6.0000000   1.0000000   1.0000000   6.0000000

  Atom        31          32          33          34          35          36          37          38          39          40
 IAtWgt=           1          12           1          12           1           1           1          12           1           1
 AtmWgt=   1.0078250  12.0000000   1.0078250  12.0000000   1.0078250   1.0078250   1.0078250  12.0000000   1.0078250   1.0078250
 NucSpn=           1           0           1           0           1           1           1           0           1           1
 AtZEff=  -0.0000000  -0.0000000  -0.0000000  -0.0000000  -0.0000000  -0.0000000  -0.0000000  -0.0000000  -0.0000000  -0.0000000
 NQMom=    0.0000000   0.0000000   0.0000000   0.0000000   0.0000000   0.0000000   0.0000000   0.0000000   0.0000000   0.0000000
 NMagM=    2.7928460   0.0000000   2.7928460   0.0000000   2.7928460   2.7928460   2.7928460   0.0000000   2.7928460   2.7928460
 AtZNuc=   1.0000000   6.0000000   1.0000000   6.0000000   1.0000000   1.0000000   1.0000000   6.0000000   1.0000000   1.0000000

  Atom        41          42
 IAtWgt=           1           1
 AtmWgt=   1.0078250   1.0078250
 NucSpn=           1           1
 AtZEff=  -0.0000000  -0.0000000
 NQMom=    0.0000000   0.0000000
 NMagM=    2.7928460   2.7928460
 AtZNuc=   1.0000000   1.0000000
 Leave Link  101 at Mon Nov 14 15:16:58 2022, MaxMem= 16106127360 cpu:               5.5 elap:               0.2
 (Enter /opt/ap/G16/B01/g16/l202.exe)
                          Input orientation:                          
 ---------------------------------------------------------------------
 Center     Atomic      Atomic             Coordinates (Angstroms)
 Number     Number       Type             X           Y           Z
 ---------------------------------------------------------------------
      1          6           0        0.000000    0.000000    0.000000
      2          6           0        0.000000    0.000000    1.394128
      3          6           0        1.221126    0.000000   -0.673109
      4          6           0        1.193108    0.000764    2.115362
      5          1           0       -0.944957   -0.000427    1.927071
      6          6           0       -1.278366   -0.017366   -0.754803
      7          6           0        2.428476    0.001115    0.024455
      8          1           0        1.232154   -0.045667   -1.756969
      9          6           0        2.400843    0.001752    1.418572
     10          6           0        1.177445    0.018728    3.599837
     11          6           0       -2.403005    0.655730   -0.271775
     12          6           0       -1.382365   -0.707933   -1.964573
     13          6           0        3.721572    0.001921   -0.704680
     14          1           0        3.334061    0.048144    1.969857
     15          6           0        0.290794    0.844275    4.295193
     16          6           0        2.049080   -0.790881    4.331965
     17          6           0       -3.598074    0.639866   -0.979286
     18          1           0       -2.345772    1.177637    0.677463
     19          6           0       -2.577005   -0.724552   -2.672664
     20          1           0       -0.512478   -1.218916   -2.363376
     21          6           0        3.910862    0.818865   -1.821777
     22          6           0        4.776237   -0.814044   -0.288725
     23          6           0        0.275860    0.859807    5.683909
     24          1           0       -0.377402    1.495584    3.742000
     25          6           0        2.035025   -0.775886    5.720674
     26          1           0        2.729408   -1.453102    3.807101
     27          6           0       -3.689264   -0.049837   -2.182745
     28          1           0       -4.463132    1.161339   -0.584878
     29          1           0       -2.637007   -1.259705   -3.613857
     30          6           0        5.120444    0.820149   -2.504230
     31          1           0        3.109266    1.474569   -2.144691
     32          6           0        5.986440   -0.813321   -0.970068
     33          1           0        4.638168   -1.470412    0.563864
     34          6           0        1.147946    0.049642    6.401818
     35          1           0       -0.413890    1.513063    6.206701
     36          1           0        2.713797   -1.416787    6.272362
     37          1           0       -4.622088   -0.062549   -2.735017
     38          6           0        6.162883    0.003944   -2.080611
     39          1           0        5.251831    1.466740   -3.364741
     40          1           0        6.791448   -1.459089   -0.637249
     41          1           0        1.136620    0.061726    7.485815
     42          1           0        7.107346    0.004761   -2.612865
 ---------------------------------------------------------------------
                    Distance matrix (angstroms):
                    1          2          3          4          5
     1  C    0.000000
     2  C    1.394128   0.000000
     3  C    1.394354   2.400962   0.000000
     4  C    2.428634   1.394161   2.788612   0.000000
     5  H    2.146287   1.084884   3.384206   2.146341   0.000000
     6  C    1.484671   2.500485   2.500887   3.787659   2.702572
     7  C    2.428599   2.788100   1.394378   2.428585   3.872983
     8  H    2.146445   3.383741   1.084878   3.872806   4.279487
     9  C    2.788619   2.400968   2.401430   1.394324   3.384222
    10  C    3.787552   2.500376   4.273210   1.484666   2.702426
    11  C    2.505649   2.996606   3.704778   4.365711   2.718707
    12  C    2.504326   3.700402   2.991189   4.876595   3.979545
    13  C    3.787700   4.272598   2.500646   3.787581   5.357482
    14  H    3.872805   3.383747   3.384092   2.146415   4.279508
    15  C    4.387032   3.035381   5.124680   2.505463   2.801537
    16  C    4.856969   3.668120   5.134371   2.504540   3.920790
    17  C    3.783460   4.357598   4.871126   5.739401   3.986968
    18  H    2.710799   2.720861   3.991696   3.997031   2.216221
    19  C    3.782732   4.868750   4.353044   6.137184   4.934115
    20  H    2.708124   3.983369   2.710746   4.945274   4.481036
    21  C    4.391384   5.129076   3.037212   4.853507   6.189029
    22  C    4.853707   5.129045   3.667320   4.391169   6.189006
    23  C    5.755188   4.383786   6.484171   3.783362   4.042800
    24  H    4.047440   2.809218   4.928007   2.710524   2.419532
    25  C    6.121229   4.843792   6.491910   3.782894   4.886007
    26  H    4.904609   3.922195   4.945574   2.708491   4.375585
    27  C    4.286902   5.138791   5.137452   6.504908   4.942089
    28  H    4.648692   5.018438   5.802351   6.374267   4.476287
    29  H    4.647647   5.798326   5.011990   7.005891   5.928802
    30  C    5.758711   6.487587   4.385239   6.118495   7.556379
    31  H    4.054822   4.936104   2.811579   4.898143   5.932249
    32  C    6.118822   6.487555   4.843334   5.758354   7.556353
    33  H    4.898230   4.935996   3.920254   4.054620   5.932156
    34  C    6.504116   5.137821   7.075480   4.286973   4.940255
    35  H    6.401859   5.061770   7.231488   4.648499   4.570330
    36  H    6.979577   5.759266   7.243957   4.647859   5.854410
    37  H    5.371027   6.198181   6.196655   7.572759   5.938031
    38  C    6.504621   7.074953   5.138292   6.504219   8.159837
    39  H    6.407382   7.237395   5.063871   6.975231   8.279857
    40  H    6.975586   7.237348   5.758361   6.406985   8.279819
    41  H    7.571865   6.197125   8.159595   5.371096   5.936031
    42  H    7.572414   8.159067   6.197601   7.571945   9.243951
                    6          7          8          9         10
     6  C    0.000000
     7  C    3.787910   0.000000
     8  H    2.703303   2.146356   0.000000
     9  C    4.273231   1.394392   3.384102   0.000000
    10  C    4.999520   3.787973   5.357472   2.500981   0.000000
    11  C    1.396850   4.884617   3.989002   5.134386   5.311758
    12  C    1.396868   4.356775   2.705070   5.124645   6.167927
    13  C    5.000226   1.484499   2.703105   2.500505   5.000173
    14  H    5.357476   2.146366   4.279725   1.084879   2.703459
    15  C    5.357906   4.849723   6.189251   3.665665   1.396854
    16  C    6.127433   4.396117   6.188524   3.039714   1.396863
    17  C    2.421445   6.142866   4.940228   6.491835   6.645281
    18  H    2.149133   4.960248   4.497164   4.945938   4.721906
    19  C    2.421728   5.732004   3.976062   6.484188   7.347967
    20  H    2.148909   3.979877   2.188146   4.927535   6.320404
    21  C    5.363376   2.504946   2.815510   3.667109   6.124188
    22  C    6.124553   2.504906   3.912375   3.036921   5.363369
    23  C    6.681472   6.115597   7.556523   4.841994   2.421492
    24  H    4.829285   4.891475   5.933362   3.917716   2.149154
    25  C    7.313393   5.762417   7.555989   4.387097   2.421736
    26  H    6.239756   4.063707   5.931401   2.815959   2.148914
    27  C    2.802231   6.503927   4.939803   7.075418   7.558294
    28  H    3.400141   7.015102   5.938597   7.243798   7.115723
    29  H    3.400515   6.362868   4.460081   7.231635   8.259650
    30  C    6.686306   3.783088   4.053003   4.842972   7.310892
    31  H    4.838282   2.709194   2.446425   3.920191   6.233057
    32  C    7.311449   3.783053   4.879728   4.384797   6.686012
    33  H    6.233426   2.709077   4.360860   2.811302   4.838519
    34  C    7.557031   6.504835   8.159779   5.138559   2.802307
    35  H    7.179977   6.970308   8.280044   5.756123   3.400165
    36  H    8.202243   6.413127   8.279214   5.066504   3.400510
    37  H    3.886356   7.571604   5.935403   8.159534   8.589038
    38  C    7.558466   4.286853   4.941589   5.137824   7.557929
    39  H    7.187337   4.648230   4.585860   5.757987   8.197725
    40  H    8.198432   4.648180   5.844424   5.063385   7.187062
    41  H    8.587561   7.572613   9.243902   6.197846   3.886431
    42  H    8.589123   5.370968   5.937422   6.197069   8.588456
                   11         12         13         14         15
    11  C    0.000000
    12  C    2.401427   0.000000
    13  C    6.174570   5.304846   0.000000
    14  H    6.189346   6.188382   2.702860   0.000000
    15  C    5.305591   6.662843   6.121971   3.911840   0.000000
    16  C    6.565681   7.171338   5.365963   2.816859   2.401387
    17  C    1.388889   2.774296   7.352523   7.556592   6.556310
    18  H    1.084764   3.385835   6.332873   5.933510   4.488940
    19  C    2.774838   1.388824   6.638734   7.555843   7.696527
    20  H    3.385733   1.084828   4.708385   5.931122   7.017018
    21  C    6.503387   5.510876   1.396829   3.911930   7.107943
    22  C    7.328168   6.383425   1.396832   2.815037   6.624314
    23  C    6.533616   7.981653   7.309101   4.879095   1.388883
    24  H    4.573708   6.199227   6.229413   4.360107   1.084763
    25  C    7.593094   8.411076   6.688393   4.054029   2.774755
    26  H    6.886659   7.125600   4.843310   2.448430   3.385708
    27  C    2.409169   2.408832   7.556973   8.159705   7.655324
    28  H    2.144247   3.858608   8.267284   8.280223   6.820223
    29  H    3.859166   2.144462   7.105388   8.279009   8.692055
    30  C    7.849406   6.701700   2.421718   4.878996   8.340159
    31  H    5.879068   4.997050   2.148776   4.360587   7.057844
    32  C    8.545672   7.436359   2.421709   4.052208   7.931644
    33  H    7.402493   6.574283   2.148749   2.446125   6.179018
    34  C    7.583762   8.773420   7.558317   4.941800   2.409154
    35  H    6.830976   8.522938   8.194680   5.843284   2.144229
    36  H    8.561700   9.226490   7.190790   4.587189   3.859086
    37  H    3.392317   3.392036   8.587379   9.243830   8.624535
    38  C    8.779018   7.579644   2.802355   4.940696   8.708529
    39  H    8.295824   7.120550   3.400487   5.843645   9.147346
    40  H    9.441610   8.314881   3.400476   4.585006   8.478973
    41  H    8.547630   9.810580   8.588933   5.937569   3.392325
    42  H    9.815867   8.544203   3.886469   5.936405   9.741223
                   16         17         18         19         20
    16  C    0.000000
    17  C    7.883323   0.000000
    18  H    6.045261   2.145291   0.000000
    19  C    8.394635   2.402446   3.859422   0.000000
    20  H    7.181392   3.858974   4.283822   2.145303   0.000000
    21  C    6.627673   7.558172   6.746880   6.722987   4.900186
    22  C    5.365510   8.527592   7.458105   7.730546   5.695490
    23  C    2.774316   7.710636   5.660254   8.971139   8.348734
    24  H    3.385823   5.778886   3.656085   7.135487   6.682991
    25  C    1.388861   8.867109   6.960001   9.577138   8.487515
    26  H    1.084834   8.205306   6.517122   8.406911   6.974199
    27  C    8.713161   1.390079   3.390052   1.390101   3.389888
    28  H    8.390198   1.084351   2.465154   3.387168   4.943312
    29  H    9.236628   3.387180   4.943772   1.084359   2.465561
    30  C    7.665654   8.852712   8.123752   7.852718   5.992281
    31  H    6.942862   6.858813   6.148996   6.119523   4.518818
    32  C    6.604154   9.694057   8.723762   8.731512   6.658960
    33  H    4.622091   8.641197   7.469973   7.942930   5.929683
    34  C    2.408903   8.795099   6.800492   9.839759   9.010820
    35  H    3.858628   7.908217   5.866613   9.408990   8.995534
    36  H    2.144469   9.831375   7.977040  10.415626   9.220844
    37  H    9.745624   2.150485   4.285405   2.150465   4.285346
    38  C    7.660043   9.843455   9.021183   8.790158   6.792334
    39  H    8.636768   9.202986   8.610840   8.159130   6.437604
    40  H    6.901424  10.604941   9.600499   9.615111   7.508964
    41  H    3.392092   9.716455   7.728258  10.844535  10.068074
    42  H    8.628428  10.847947  10.077863   9.711957   7.721486
                   21         22         23         24         25
    21  C    0.000000
    22  C    2.401148   0.000000
    23  C    8.339678   7.663388   0.000000
    24  H    7.057108   6.938381   2.145221   0.000000
    25  C    7.934139   6.605193   2.402396   3.859344   0.000000
    26  H    6.184005   4.623169   3.858996   4.283837   2.145356
    27  C    7.658123   8.708389   8.856292   6.961276   9.785636
    28  H    8.471776   9.452819   7.864265   5.960435   9.259529
    29  H    7.099760   8.137033   9.971237   8.173498  10.449662
    30  C    1.388824   2.774442   9.514051   8.348527   8.928391
    31  H    1.084794   3.385432   8.348239   6.841814   8.251212
    32  C    2.774430   1.388819   8.926672   8.248218   7.770528
    33  H    3.385417   1.084800   7.118603   6.637291   5.818196
    34  C    8.709358   7.659884   1.390070   3.389995   1.390095
    35  H    9.145591   8.633852   1.084348   2.465033   3.387137
    36  H    8.482109   6.903971   3.387136   4.943698   1.084363
    37  H    8.626826   9.740514   9.783606   7.899170  10.785394
    38  C    2.408878   2.408889   9.781478   8.882743   8.860440
    39  H    2.144453   3.858761  10.344405   9.066139   9.895553
    40  H    3.858751   2.144441   9.369482   8.905073   7.969536
    41  H    9.741711   8.628862   2.150513   4.285366   2.150453
    42  H    3.392063   3.392069  10.781315   9.931179   9.787018
                   26         27         28         29         30
    26  H    0.000000
    27  C    8.890824   0.000000
    28  H    8.823685   2.149185   0.000000
    29  H    9.160045   2.149210   4.286129   0.000000
    30  C    7.121630   8.858396   9.779839   8.107719   0.000000
    31  H    6.643746   6.967443   7.737722   6.531030   2.145313
    32  C    5.817122   9.781244  10.641485   9.030654   2.402462
    33  H    3.763276   8.883019   9.543552   8.392016   3.859075
    34  C    3.389959   9.854097   9.029618  10.786752   9.782234
    35  H    4.943333   9.140762   7.914898  10.443842  10.343562
    36  H    2.465578  10.693763  10.255573  11.242468   9.371467
    37  H    9.938684   1.084125   2.479166   2.479130   9.785159
    38  C    6.969712   9.852823  10.793006   9.021404   1.390081
    39  H    8.143918   9.145507  10.109471   8.350409   1.084353
    40  H    6.021000  10.687370  11.555733   9.889172   3.387152
    41  H    4.285396  10.806602   9.884455  11.797845  10.781792
    42  H    7.906179  10.805312  11.803659   9.876906   2.150451
                   31         32         33         34         35
    31  H    0.000000
    32  C    3.859055   0.000000
    33  H    4.283308   2.145356   0.000000
    34  C    8.883693   8.860047   6.969499   0.000000
    35  H    9.064207   9.893547   8.140394   2.149187   0.000000
    36  H    8.908597   7.970392   6.024369   2.149200   4.286112
    37  H    7.904748  10.780518   9.930611  10.806833  10.007287
    38  C    3.389900   1.390094   3.389946   9.854100  10.686951
    39  H    2.465597   3.387150   4.943418  10.688111  11.122726
    40  H    4.943399   1.084354   2.465647   9.147341  10.372571
    41  H    9.931470   9.787155   7.907066   1.084123   2.479233
    42  H    4.285343   2.150458   4.285392  10.806525  11.688828
                   36         37         38         39         40
    36  H    0.000000
    37  H   11.695386   0.000000
    38  C    9.148051  10.805012   0.000000
    39  H   10.374492  10.011471   2.149134   0.000000
    40  H    8.023201  11.688446   2.149152   4.286037   0.000000
    41  H    2.479104  11.732160  10.806626  11.689465  10.013697
    42  H   10.013557  11.730263   1.084114   2.479039   2.479054
                   41         42
    41  H    0.000000
    42  H   11.731844   0.000000
 Stoichiometry    C24H18
 Framework group  C1[X(C24H18)]
 Deg. of freedom   120
 Full point group                 C1      NOp   1
 Largest Abelian subgroup         C1      NOp   1
 Largest concise Abelian subgroup C1      NOp   1
                         Standard orientation:                         
 ---------------------------------------------------------------------
 Center     Atomic      Atomic             Coordinates (Angstroms)
 Number     Number       Type             X           Y           Z
 ---------------------------------------------------------------------
      1          6           0       -0.189467    1.388591   -0.040483
      2          6           0       -1.282426    0.523165   -0.048858
      3          6           0        1.095571    0.849551    0.007892
      4          6           0       -1.107915   -0.859460   -0.009113
      5          1           0       -2.286286    0.932797   -0.086791
      6          6           0       -0.390085    2.858453   -0.099712
      7          6           0        1.297462   -0.529531    0.048646
      8          1           0        1.953372    1.512603   -0.030833
      9          6           0        0.187355   -1.373282    0.039906
     10          6           0       -2.281907   -1.768252   -0.000647
     11          6           0       -1.484601    3.456529    0.529198
     12          6           0        0.512656    3.673848   -0.786320
     13          6           0        2.671036   -1.090168    0.100776
     14          1           0        0.332677   -2.445628    0.116834
     15          6           0       -3.399437   -1.484699    0.787976
     16          6           0       -2.293236   -2.925776   -0.782462
     17          6           0       -1.670676    4.831799    0.474209
     18          1           0       -2.207500    2.835337    1.047127
     19          6           0        0.327323    5.049122   -0.842043
     20          1           0        1.378728    3.227123   -1.262982
     21          6           0        3.641951   -0.524836    0.930749
     22          6           0        3.021267   -2.195005   -0.678847
     23          6           0       -4.497838   -2.334679    0.794613
     24          1           0       -3.397904   -0.601583    1.417909
     25          6           0       -3.391073   -3.776454   -0.776330
     26          1           0       -1.441778   -3.149449   -1.416383
     27          6           0       -0.764961    5.633261   -0.211108
     28          1           0       -2.530592    5.277728    0.961556
     29          1           0        1.042559    5.667163   -1.373359
     30          6           0        4.927119   -1.048997    0.980044
     31          1           0        3.380097    0.319973    1.558847
     32          6           0        4.305964   -2.720356   -0.630097
     33          1           0        2.285111   -2.632306   -1.344905
     34          6           0       -4.497725   -3.483743    0.012343
     35          1           0       -5.353270   -2.102558    1.419246
     36          1           0       -3.385150   -4.666665   -1.395468
     37          1           0       -0.910181    6.706744   -0.254358
     38          6           0        5.263766   -2.149016    0.199691
     39          1           0        5.665608   -0.601784    1.636135
     40          1           0        4.561899   -3.573741   -1.248203
     41          1           0       -5.354903   -4.147476    0.017496
     42          1           0        6.266768   -2.558678    0.237992
 ---------------------------------------------------------------------
 Rotational constants (GHZ):           0.1986612           0.1977122           0.1034495
 Leave Link  202 at Mon Nov 14 15:16:58 2022, MaxMem= 16106127360 cpu:               0.3 elap:               0.0
 (Enter /opt/ap/G16/B01/g16/l301.exe)
 Standard basis: 6-311++G(d,p) (5D, 7F)
 Ernie: Thresh=  0.10000D-02 Tol=  0.10000D-05 Strict=F.
 There are   678 symmetry adapted cartesian basis functions of A   symmetry.
 There are   654 symmetry adapted basis functions of A   symmetry.
   654 basis functions,  1026 primitive gaussians,   678 cartesian basis functions
    81 alpha electrons       81 beta electrons
       nuclear repulsion energy      1733.2341829637 Hartrees.
 IExCor= 4639 DFT=T Ex+Corr=wB97XD ExCW=0 ScaHFX=  1.000000
 ScaDFX=  1.000000  1.000000  1.000000  1.000000 ScalE2=  1.000000  1.000000
 IRadAn=      5 IRanWt=     -1 IRanGd=            0 ICorTp=0 IEmpDi=121
 HFx  wShort=  0.000000 wLong=  0.200000 cFull=  0.222036 cShort=  0.000000 cLong=  0.777964
 DFx  wShort=  0.000000 wLong=  0.200000 cFull=  0.000000 cShort=  0.000000 cLong=  1.000000
 NAtoms=   42 NActive=   42 NUniq=   42 SFac= 1.00D+00 NAtFMM=   60 NAOKFM=F Big=F
 Integral buffers will be    131072 words long.
 Raffenetti 2 integral format.
 Two-electron integral symmetry is turned on.
 R6Disp:  Grimme-D2 Dispersion energy=       -0.0289560280 Hartrees.
 Nuclear repulsion after empirical dispersion term =     1733.2052269357 Hartrees.
 Leave Link  301 at Mon Nov 14 15:16:58 2022, MaxMem= 16106127360 cpu:               1.3 elap:               0.0
 (Enter /opt/ap/G16/B01/g16/l302.exe)
 NPDir=0 NMtPBC=     1 NCelOv=     1 NCel=       1 NClECP=     1 NCelD=      1
         NCelK=      1 NCelE2=     1 NClLst=     1 CellRange=     0.0.
 One-electron integrals computed using PRISM.
 One-electron integral symmetry used in STVInt
 NBasis=   654 RedAO= T EigKep=  1.19D-06  NBF=   654
 NBsUse=   645 1.00D-06 EigRej=  7.14D-07 NBFU=   645
 Precomputing XC quadrature grid using
 IXCGrd= 4 IRadAn=           5 IRanWt=          -1 IRanGd=           0 AccXCQ= 0.00D+00.
 Generated NRdTot=       0 NPtTot=           0 NUsed=           0 NTot=          32
 NSgBfM=   669   669   669   669   669 MxSgAt=    42 MxSgA2=    42.
 Leave Link  302 at Mon Nov 14 15:16:59 2022, MaxMem= 16106127360 cpu:              20.8 elap:               0.7
 (Enter /opt/ap/G16/B01/g16/l303.exe)
 DipDrv:  MaxL=1.
 Leave Link  303 at Mon Nov 14 15:16:59 2022, MaxMem= 16106127360 cpu:               2.9 elap:               0.1
 (Enter /opt/ap/G16/B01/g16/l401.exe)
 ExpMin= 3.60D-02 ExpMax= 4.56D+03 ExpMxC= 6.82D+02 IAcc=3 IRadAn=         5 AccDes= 0.00D+00
 Harris functional with IExCor= 4639 and IRadAn=       5 diagonalized for initial guess.
 HarFok:  IExCor= 4639 AccDes= 0.00D+00 IRadAn=         5 IDoV= 1 UseB2=F ITyADJ=14
 ICtDFT=  3500011 ScaDFX=  1.000000  1.000000  1.000000  1.000000
 FoFCou: FMM=F IPFlag=           0 FMFlag=      100000 FMFlg1=           0
         NFxFlg=           0 DoJE=T BraDBF=F KetDBF=T FulRan=T
         wScrn=  0.000000 ICntrl=       500 IOpCl=  0 I1Cent=   200000004 NGrid=           0
         NMat0=    1 NMatS0=      1 NMatT0=    0 NMatD0=    1 NMtDS0=    0 NMtDT0=    0
 Petite list used in FoFCou.
 Harris En= -882.968609816064    
 JPrj=0 DoOrth=F DoCkMO=F.
 Leave Link  401 at Mon Nov 14 15:17:01 2022, MaxMem= 16106127360 cpu:              58.3 elap:               1.9
 (Enter /opt/ap/G16/B01/g16/l502.exe)
 Integral symmetry usage will be decided dynamically.
 Closed shell SCF:
 Using DIIS extrapolation, IDIIS=  1040.
 NGot= 16106127360 LenX= 16105179956 LenY= 16104719594
 Requested convergence on RMS density matrix=1.00D-08 within 512 cycles.
 Requested convergence on MAX density matrix=1.00D-06.
 Requested convergence on             energy=1.00D-06.
 No special actions if energy rises.
 Fock matrices will be formed incrementally for  20 cycles.

 Cycle   1  Pass 1  IDiag  1:
 FoFJK:  IHMeth= 1 ICntrl=       0 DoSepK=T KAlg= 0 I1Cent=           0 FoldK=F
 IRaf=         1 NMat=       1 IRICut=       1 DoRegI=T DoRafI=F ISym2E= 0 IDoP0=0 IntGTp=1.
 FoFCou: FMM=F IPFlag=           0 FMFlag=      100000 FMFlg1=           0
         NFxFlg=           0 DoJE=T BraDBF=F KetDBF=F FulRan=T
         wScrn=  0.000000 ICntrl=       500 IOpCl=  0 I1Cent=           0 NGrid=           0
         NMat0=    1 NMatS0=      1 NMatT0=    0 NMatD0=    1 NMtDS0=    0 NMtDT0=    0
 Symmetry not used in FoFCou.
 E= -925.115642175730    
 DIIS: error= 4.64D-02 at cycle   1 NSaved=   1.
 NSaved= 1 IEnMin= 1 EnMin= -925.115642175730     IErMin= 1 ErrMin= 4.64D-02
 ErrMax= 4.64D-02  0.00D+00 EMaxC= 1.00D-01 BMatC= 1.90D+00 BMatP= 1.90D+00
 IDIUse=3 WtCom= 5.36D-01 WtEn= 4.64D-01
 Coeff-Com:  0.100D+01
 Coeff-En:   0.100D+01
 Coeff:      0.100D+01
 Gap=     0.314 Goal=   None    Shift=    0.000
 GapD=    0.314 DampG=1.000 DampE=0.500 DampFc=0.5000 IDamp=-1.
 Damping current iteration by 5.00D-01
 RMSDP=3.87D-02 MaxDP=4.68D+00              OVMax= 4.35D-02

 Cycle   2  Pass 1  IDiag  1:
 RMSU=  7.06D-03    CP:  8.13D-01
 E= -925.214302340357     Delta-E=       -0.098660164627 Rises=F Damp=T
 DIIS: error= 2.16D-02 at cycle   2 NSaved=   2.
 NSaved= 2 IEnMin= 2 EnMin= -925.214302340357     IErMin= 2 ErrMin= 2.16D-02
 ErrMax= 2.16D-02  0.00D+00 EMaxC= 1.00D-01 BMatC= 4.32D-01 BMatP= 1.90D+00
 IDIUse=3 WtCom= 7.84D-01 WtEn= 2.16D-01
 Coeff-Com: -0.883D+00 0.188D+01
 Coeff-En:   0.000D+00 0.100D+01
 Coeff:     -0.692D+00 0.169D+01
 Gap=     0.322 Goal=   None    Shift=    0.000
 RMSDP=2.30D-02 MaxDP=2.17D+00 DE=-9.87D-02 OVMax= 3.40D-02

 Cycle   3  Pass 1  IDiag  1:
 RMSU=  3.57D-03    CP:  5.79D-01  1.33D+00
 E= -925.302561289715     Delta-E=       -0.088258949358 Rises=F Damp=F
 DIIS: error= 3.10D-03 at cycle   3 NSaved=   3.
 NSaved= 3 IEnMin= 3 EnMin= -925.302561289715     IErMin= 3 ErrMin= 3.10D-03
 ErrMax= 3.10D-03  0.00D+00 EMaxC= 1.00D-01 BMatC= 8.89D-03 BMatP= 4.32D-01
 IDIUse=3 WtCom= 9.69D-01 WtEn= 3.10D-02
 Coeff-Com: -0.373D+00 0.790D+00 0.582D+00
 Coeff-En:   0.000D+00 0.000D+00 0.100D+01
 Coeff:     -0.361D+00 0.766D+00 0.595D+00
 Gap=     0.320 Goal=   None    Shift=    0.000
 RMSDP=2.42D-03 MaxDP=2.06D-01 DE=-8.83D-02 OVMax= 1.96D-02

 Cycle   4  Pass 1  IDiag  1:
 RMSU=  1.38D-03    CP:  5.84D-01  1.54D+00  6.55D-01
 E= -925.310728558630     Delta-E=       -0.008167268915 Rises=F Damp=F
 DIIS: error= 7.42D-04 at cycle   4 NSaved=   4.
 NSaved= 4 IEnMin= 4 EnMin= -925.310728558630     IErMin= 4 ErrMin= 7.42D-04
 ErrMax= 7.42D-04  0.00D+00 EMaxC= 1.00D-01 BMatC= 2.75D-04 BMatP= 8.89D-03
 IDIUse=3 WtCom= 9.93D-01 WtEn= 7.42D-03
 Coeff-Com: -0.115D+00 0.243D+00 0.235D+00 0.636D+00
 Coeff-En:   0.000D+00 0.000D+00 0.000D+00 0.100D+01
 Coeff:     -0.114D+00 0.242D+00 0.233D+00 0.639D+00
 Gap=     0.319 Goal=   None    Shift=    0.000
 RMSDP=7.33D-04 MaxDP=5.38D-02 DE=-8.17D-03 OVMax= 4.24D-03

 Cycle   5  Pass 1  IDiag  1:
 RMSU=  2.88D-04    CP:  5.78D-01  1.58D+00  6.80D-01  8.47D-01
 E= -925.311018022022     Delta-E=       -0.000289463392 Rises=F Damp=F
 DIIS: error= 2.08D-04 at cycle   5 NSaved=   5.
 NSaved= 5 IEnMin= 5 EnMin= -925.311018022022     IErMin= 5 ErrMin= 2.08D-04
 ErrMax= 2.08D-04  0.00D+00 EMaxC= 1.00D-01 BMatC= 2.03D-05 BMatP= 2.75D-04
 IDIUse=3 WtCom= 9.98D-01 WtEn= 2.08D-03
 Coeff-Com:  0.266D-01-0.566D-01-0.263D-01 0.195D+00 0.862D+00
 Coeff-En:   0.000D+00 0.000D+00 0.000D+00 0.000D+00 0.100D+01
 Coeff:      0.265D-01-0.565D-01-0.263D-01 0.194D+00 0.862D+00
 Gap=     0.319 Goal=   None    Shift=    0.000
 RMSDP=1.76D-04 MaxDP=9.02D-03 DE=-2.89D-04 OVMax= 1.53D-03

 Cycle   6  Pass 1  IDiag  1:
 RMSU=  7.41D-05    CP:  5.77D-01  1.58D+00  6.94D-01  9.27D-01  1.22D+00
 E= -925.311044226150     Delta-E=       -0.000026204128 Rises=F Damp=F
 DIIS: error= 4.55D-05 at cycle   6 NSaved=   6.
 NSaved= 6 IEnMin= 6 EnMin= -925.311044226150     IErMin= 6 ErrMin= 4.55D-05
 ErrMax= 4.55D-05  0.00D+00 EMaxC= 1.00D-01 BMatC= 1.39D-06 BMatP= 2.03D-05
 IDIUse=1 WtCom= 1.00D+00 WtEn= 0.00D+00
 Coeff-Com:  0.135D-01-0.286D-01-0.167D-01 0.536D-01 0.330D+00 0.648D+00
 Coeff:      0.135D-01-0.286D-01-0.167D-01 0.536D-01 0.330D+00 0.648D+00
 Gap=     0.319 Goal=   None    Shift=    0.000
 RMSDP=6.99D-05 MaxDP=6.29D-03 DE=-2.62D-05 OVMax= 3.62D-04

 Cycle   7  Pass 1  IDiag  1:
 RMSU=  4.19D-05    CP:  5.77D-01  1.58D+00  6.96D-01  9.54D-01  1.16D+00
                    CP:  8.91D-01
 E= -925.311045930620     Delta-E=       -0.000001704469 Rises=F Damp=F
 DIIS: error= 1.49D-05 at cycle   7 NSaved=   7.
 NSaved= 7 IEnMin= 7 EnMin= -925.311045930620     IErMin= 7 ErrMin= 1.49D-05
 ErrMax= 1.49D-05  0.00D+00 EMaxC= 1.00D-01 BMatC= 1.02D-07 BMatP= 1.39D-06
 IDIUse=1 WtCom= 1.00D+00 WtEn= 0.00D+00
 Coeff-Com: -0.252D-02 0.539D-02 0.230D-02-0.286D-01-0.105D+00 0.991D-01
 Coeff-Com:  0.103D+01
 Coeff:     -0.252D-02 0.539D-02 0.230D-02-0.286D-01-0.105D+00 0.991D-01
 Coeff:      0.103D+01
 Gap=     0.319 Goal=   None    Shift=    0.000
 RMSDP=1.81D-05 MaxDP=1.26D-03 DE=-1.70D-06 OVMax= 2.54D-04

 Cycle   8  Pass 1  IDiag  1:
 RMSU=  5.74D-06    CP:  5.77D-01  1.58D+00  6.98D-01  9.56D-01  1.19D+00
                    CP:  1.00D+00  1.19D+00
 E= -925.311046168412     Delta-E=       -0.000000237793 Rises=F Damp=F
 DIIS: error= 3.46D-06 at cycle   8 NSaved=   8.
 NSaved= 8 IEnMin= 8 EnMin= -925.311046168412     IErMin= 8 ErrMin= 3.46D-06
 ErrMax= 3.46D-06  0.00D+00 EMaxC= 1.00D-01 BMatC= 4.06D-09 BMatP= 1.02D-07
 IDIUse=1 WtCom= 1.00D+00 WtEn= 0.00D+00
 Coeff-Com: -0.706D-03 0.151D-02 0.859D-03-0.531D-02-0.206D-01-0.199D-02
 Coeff-Com:  0.769D-01 0.949D+00
 Coeff:     -0.706D-03 0.151D-02 0.859D-03-0.531D-02-0.206D-01-0.199D-02
 Coeff:      0.769D-01 0.949D+00
 Gap=     0.319 Goal=   None    Shift=    0.000
 RMSDP=2.85D-06 MaxDP=1.79D-04 DE=-2.38D-07 OVMax= 5.04D-05

 Cycle   9  Pass 1  IDiag  1:
 RMSU=  8.74D-07    CP:  5.77D-01  1.58D+00  6.98D-01  9.55D-01  1.19D+00
                    CP:  1.01D+00  1.23D+00  1.29D+00
 E= -925.311046178118     Delta-E=       -0.000000009706 Rises=F Damp=F
 DIIS: error= 1.67D-06 at cycle   9 NSaved=   9.
 NSaved= 9 IEnMin= 9 EnMin= -925.311046178118     IErMin= 9 ErrMin= 1.67D-06
 ErrMax= 1.67D-06  0.00D+00 EMaxC= 1.00D-01 BMatC= 9.42D-10 BMatP= 4.06D-09
 IDIUse=1 WtCom= 1.00D+00 WtEn= 0.00D+00
 Coeff-Com:  0.183D-03-0.396D-03-0.512D-04 0.312D-02 0.115D-01-0.145D-01
 Coeff-Com: -0.160D+00 0.336D+00 0.824D+00
 Coeff:      0.183D-03-0.396D-03-0.512D-04 0.312D-02 0.115D-01-0.145D-01
 Coeff:     -0.160D+00 0.336D+00 0.824D+00
 Gap=     0.319 Goal=   None    Shift=    0.000
 RMSDP=1.31D-06 MaxDP=8.12D-05 DE=-9.71D-09 OVMax= 2.91D-05

 Cycle  10  Pass 1  IDiag  1:
 RMSU=  4.84D-07    CP:  5.77D-01  1.58D+00  6.98D-01  9.55D-01  1.19D+00
                    CP:  1.01D+00  1.24D+00  1.41D+00  1.09D+00
 E= -925.311046180184     Delta-E=       -0.000000002065 Rises=F Damp=F
 DIIS: error= 4.00D-07 at cycle  10 NSaved=  10.
 NSaved=10 IEnMin=10 EnMin= -925.311046180184     IErMin=10 ErrMin= 4.00D-07
 ErrMax= 4.00D-07  0.00D+00 EMaxC= 1.00D-01 BMatC= 8.09D-11 BMatP= 9.42D-10
 IDIUse=1 WtCom= 1.00D+00 WtEn= 0.00D+00
 Coeff-Com:  0.772D-04-0.166D-03-0.480D-04 0.938D-03 0.323D-02-0.181D-02
 Coeff-Com: -0.356D-01-0.207D-01 0.209D+00 0.845D+00
 Coeff:      0.772D-04-0.166D-03-0.480D-04 0.938D-03 0.323D-02-0.181D-02
 Coeff:     -0.356D-01-0.207D-01 0.209D+00 0.845D+00
 Gap=     0.319 Goal=   None    Shift=    0.000
 RMSDP=3.50D-07 MaxDP=2.92D-05 DE=-2.07D-09 OVMax= 7.29D-06

 Cycle  11  Pass 1  IDiag  1:
 RMSU=  1.73D-07    CP:  5.77D-01  1.58D+00  6.98D-01  9.55D-01  1.19D+00
                    CP:  1.01D+00  1.24D+00  1.43D+00  1.30D+00  8.99D-01
 E= -925.311046180323     Delta-E=       -0.000000000139 Rises=F Damp=F
 DIIS: error= 1.81D-07 at cycle  11 NSaved=  11.
 NSaved=11 IEnMin=11 EnMin= -925.311046180323     IErMin=11 ErrMin= 1.81D-07
 ErrMax= 1.81D-07  0.00D+00 EMaxC= 1.00D-01 BMatC= 2.36D-11 BMatP= 8.09D-11
 IDIUse=1 WtCom= 1.00D+00 WtEn= 0.00D+00
 Coeff-Com:  0.176D-04-0.370D-04-0.158D-04 0.834D-04 0.135D-03 0.121D-02
 Coeff-Com:  0.246D-02-0.624D-01 0.156D-01 0.430D+00 0.613D+00
 Coeff:      0.176D-04-0.370D-04-0.158D-04 0.834D-04 0.135D-03 0.121D-02
 Coeff:      0.246D-02-0.624D-01 0.156D-01 0.430D+00 0.613D+00
 Gap=     0.319 Goal=   None    Shift=    0.000
 RMSDP=1.56D-07 MaxDP=1.09D-05 DE=-1.39D-10 OVMax= 2.46D-06

 Cycle  12  Pass 1  IDiag  1:
 RMSU=  6.66D-08    CP:  5.77D-01  1.58D+00  6.98D-01  9.55D-01  1.19D+00
                    CP:  1.01D+00  1.24D+00  1.43D+00  1.30D+00  1.14D+00
                    CP:  7.71D-01
 E= -925.311046180359     Delta-E=       -0.000000000036 Rises=F Damp=F
 DIIS: error= 7.48D-08 at cycle  12 NSaved=  12.
 NSaved=12 IEnMin=12 EnMin= -925.311046180359     IErMin=12 ErrMin= 7.48D-08
 ErrMax= 7.48D-08  0.00D+00 EMaxC= 1.00D-01 BMatC= 2.01D-12 BMatP= 2.36D-11
 IDIUse=1 WtCom= 1.00D+00 WtEn= 0.00D+00
 Coeff-Com: -0.142D-04 0.306D-04 0.110D-04-0.215D-03-0.788D-03 0.926D-03
 Coeff-Com:  0.936D-02-0.124D-01-0.334D-01-0.121D+00 0.115D+00 0.104D+01
 Coeff:     -0.142D-04 0.306D-04 0.110D-04-0.215D-03-0.788D-03 0.926D-03
 Coeff:      0.936D-02-0.124D-01-0.334D-01-0.121D+00 0.115D+00 0.104D+01
 Gap=     0.319 Goal=   None    Shift=    0.000
 RMSDP=6.64D-08 MaxDP=2.66D-06 DE=-3.59D-11 OVMax= 1.35D-06

 Cycle  13  Pass 1  IDiag  1:
 RMSU=  2.45D-08    CP:  5.77D-01  1.58D+00  6.98D-01  9.55D-01  1.19D+00
                    CP:  1.01D+00  1.24D+00  1.43D+00  1.33D+00  1.15D+00
                    CP:  9.01D-01  1.27D+00
 E= -925.311046180345     Delta-E=        0.000000000014 Rises=F Damp=F
 DIIS: error= 2.07D-08 at cycle  13 NSaved=  13.
 NSaved=13 IEnMin=12 EnMin= -925.311046180359     IErMin=13 ErrMin= 2.07D-08
 ErrMax= 2.07D-08  0.00D+00 EMaxC= 1.00D-01 BMatC= 1.04D-13 BMatP= 2.01D-12
 IDIUse=1 WtCom= 1.00D+00 WtEn= 0.00D+00
 Coeff-Com: -0.274D-05 0.585D-05 0.273D-05-0.312D-04-0.103D-03 0.671D-04
 Coeff-Com:  0.955D-03 0.156D-02-0.273D-02-0.435D-01-0.324D-01 0.142D+00
 Coeff-Com:  0.934D+00
 Coeff:     -0.274D-05 0.585D-05 0.273D-05-0.312D-04-0.103D-03 0.671D-04
 Coeff:      0.955D-03 0.156D-02-0.273D-02-0.435D-01-0.324D-01 0.142D+00
 Coeff:      0.934D+00
 Gap=     0.319 Goal=   None    Shift=    0.000
 RMSDP=1.69D-08 MaxDP=1.43D-06 DE= 1.41D-11 OVMax= 3.04D-07

 Cycle  14  Pass 1  IDiag  1:
 RMSU=  4.46D-09    CP:  5.77D-01  1.58D+00  6.98D-01  9.55D-01  1.19D+00
                    CP:  1.01D+00  1.24D+00  1.43D+00  1.33D+00  1.16D+00
                    CP:  8.98D-01  1.38D+00  1.27D+00
 E= -925.311046180328     Delta-E=        0.000000000017 Rises=F Damp=F
 DIIS: error= 5.88D-09 at cycle  14 NSaved=  14.
 NSaved=14 IEnMin=12 EnMin= -925.311046180359     IErMin=14 ErrMin= 5.88D-09
 ErrMax= 5.88D-09  0.00D+00 EMaxC= 1.00D-01 BMatC= 3.45D-14 BMatP= 1.04D-13
 IDIUse=1 WtCom= 1.00D+00 WtEn= 0.00D+00
 Coeff-Com:  0.685D-06-0.151D-05-0.298D-06 0.150D-04 0.615D-04-0.946D-04
 Coeff-Com: -0.844D-03 0.232D-02 0.357D-02-0.376D-02-0.334D-01-0.817D-01
 Coeff-Com:  0.429D+00 0.685D+00
 Coeff:      0.685D-06-0.151D-05-0.298D-06 0.150D-04 0.615D-04-0.946D-04
 Coeff:     -0.844D-03 0.232D-02 0.357D-02-0.376D-02-0.334D-01-0.817D-01
 Coeff:      0.429D+00 0.685D+00
 Gap=     0.319 Goal=   None    Shift=    0.000
 RMSDP=8.11D-09 MaxDP=7.92D-07 DE= 1.73D-11 OVMax= 7.94D-08

 SCF Done:  E(RwB97XD) =  -925.311046180     A.U. after   14 cycles
            NFock= 14  Conv=0.81D-08     -V/T= 2.0044
 KE= 9.213000405904D+02 PE=-5.612792023163D+03 EE= 2.032975709456D+03
 Leave Link  502 at Mon Nov 14 15:19:24 2022, MaxMem= 16106127360 cpu:            4570.0 elap:             143.3
 (Enter /opt/ap/G16/B01/g16/l601.exe)
 Copying SCF densities to generalized density rwf, IOpCl= 0 IROHF=0.

 **********************************************************************

            Population analysis using the SCF Density.

 **********************************************************************

 Orbital symmetries:
       Occupied  (A) (A) (A) (A) (A) (A) (A) (A) (A) (A) (A) (A)
                 (A) (A) (A) (A) (A) (A) (A) (A) (A) (A) (A) (A)
                 (A) (A) (A) (A) (A) (A) (A) (A) (A) (A) (A) (A)
                 (A) (A) (A) (A) (A) (A) (A) (A) (A) (A) (A) (A)
                 (A) (A) (A) (A) (A) (A) (A) (A) (A) (A) (A) (A)
                 (A) (A) (A) (A) (A) (A) (A) (A) (A) (A) (A) (A)
                 (A) (A) (A) (A) (A) (A) (A) (A) (A)
       Virtual   (A) (A) (A) (A) (A) (A) (A) (A) (A) (A) (A) (A)
                 (A) (A) (A) (A) (A) (A) (A) (A) (A) (A) (A) (A)
                 (A) (A) (A) (A) (A) (A) (A) (A) (A) (A) (A) (A)
                 (A) (A) (A) (A) (A) (A) (A) (A) (A) (A) (A) (A)
                 (A) (A) (A) (A) (A) (A) (A) (A) (A) (A) (A) (A)
                 (A) (A) (A) (A) (A) (A) (A) (A) (A) (A) (A) (A)
                 (A) (A) (A) (A) (A) (A) (A) (A) (A) (A) (A) (A)
                 (A) (A) (A) (A) (A) (A) (A) (A) (A) (A) (A) (A)
                 (A) (A) (A) (A) (A) (A) (A) (A) (A) (A) (A) (A)
                 (A) (A) (A) (A) (A) (A) (A) (A) (A) (A) (A) (A)
                 (A) (A) (A) (A) (A) (A) (A) (A) (A) (A) (A) (A)
                 (A) (A) (A) (A) (A) (A) (A) (A) (A) (A) (A) (A)
                 (A) (A) (A) (A) (A) (A) (A) (A) (A) (A) (A) (A)
                 (A) (A) (A) (A) (A) (A) (A) (A) (A) (A) (A) (A)
                 (A) (A) (A) (A) (A) (A) (A) (A) (A) (A) (A) (A)
                 (A) (A) (A) (A) (A) (A) (A) (A) (A) (A) (A) (A)
                 (A) (A) (A) (A) (A) (A) (A) (A) (A) (A) (A) (A)
                 (A) (A) (A) (A) (A) (A) (A) (A) (A) (A) (A) (A)
                 (A) (A) (A) (A) (A) (A) (A) (A) (A) (A) (A) (A)
                 (A) (A) (A) (A) (A) (A) (A) (A) (A) (A) (A) (A)
                 (A) (A) (A) (A) (A) (A) (A) (A) (A) (A) (A) (A)
                 (A) (A) (A) (A) (A) (A) (A) (A) (A) (A) (A) (A)
                 (A) (A) (A) (A) (A) (A) (A) (A) (A) (A) (A) (A)
                 (A) (A) (A) (A) (A) (A) (A) (A) (A) (A) (A) (A)
                 (A) (A) (A) (A) (A) (A) (A) (A) (A) (A) (A) (A)
                 (A) (A) (A) (A) (A) (A) (A) (A) (A) (A) (A) (A)
                 (A) (A) (A) (A) (A) (A) (A) (A) (A) (A) (A) (A)
                 (A) (A) (A) (A) (A) (A) (A) (A) (A) (A) (A) (A)
                 (A) (A) (A) (A) (A) (A) (A) (A) (A) (A) (A) (A)
                 (A) (A) (A) (A) (A) (A) (A) (A) (A) (A) (A) (A)
                 (A) (A) (A) (A) (A) (A) (A) (A) (A) (A) (A) (A)
                 (A) (A) (A) (A) (A) (A) (A) (A) (A) (A) (A) (A)
                 (A) (A) (A) (A) (A) (A) (A) (A) (A) (A) (A) (A)
                 (A) (A) (A) (A) (A) (A) (A) (A) (A) (A) (A) (A)
                 (A) (A) (A) (A) (A) (A) (A) (A) (A) (A) (A) (A)
                 (A) (A) (A) (A) (A) (A) (A) (A) (A) (A) (A) (A)
                 (A) (A) (A) (A) (A) (A) (A) (A) (A) (A) (A) (A)
                 (A) (A) (A) (A) (A) (A) (A) (A) (A) (A) (A) (A)
                 (A) (A) (A) (A) (A) (A) (A) (A) (A) (A) (A) (A)
                 (A) (A) (A) (A) (A) (A) (A) (A) (A) (A) (A) (A)
                 (A) (A) (A) (A) (A) (A) (A) (A) (A) (A) (A) (A)
                 (A) (A) (A) (A) (A) (A) (A) (A) (A) (A) (A) (A)
                 (A) (A) (A) (A) (A) (A) (A) (A) (A) (A) (A) (A)
                 (A) (A) (A) (A) (A) (A) (A) (A) (A) (A) (A) (A)
                 (A) (A) (A) (A) (A) (A) (A) (A) (A) (A) (A) (A)
                 (A) (A) (A) (A) (A) (A) (A) (A) (A) (A) (A) (A)
                 (A) (A) (A) (A) (A) (A) (A) (A) (A) (A) (A) (A)
 The electronic state is 1-A.
 Alpha  occ. eigenvalues --  -10.30480 -10.30458 -10.30458 -10.30383 -10.30369
 Alpha  occ. eigenvalues --  -10.30344 -10.29294 -10.29285 -10.29283 -10.29270
 Alpha  occ. eigenvalues --  -10.29264 -10.29248 -10.29219 -10.29208 -10.29204
 Alpha  occ. eigenvalues --  -10.29192 -10.29169 -10.29154 -10.29145 -10.29121
 Alpha  occ. eigenvalues --  -10.29121 -10.29108 -10.29096 -10.29085  -0.99031
 Alpha  occ. eigenvalues --   -0.97097  -0.97083  -0.95294  -0.89475  -0.89465
 Alpha  occ. eigenvalues --   -0.85395  -0.85365  -0.85299  -0.85084  -0.82285
 Alpha  occ. eigenvalues --   -0.82260  -0.73707  -0.73598  -0.71171  -0.70825
 Alpha  occ. eigenvalues --   -0.70157  -0.70065  -0.66722  -0.66669  -0.63685
 Alpha  occ. eigenvalues --   -0.60797  -0.60733  -0.58652  -0.57385  -0.56803
 Alpha  occ. eigenvalues --   -0.54937  -0.54845  -0.54342  -0.54105  -0.52577
 Alpha  occ. eigenvalues --   -0.51827  -0.51668  -0.51527  -0.51178  -0.50934
 Alpha  occ. eigenvalues --   -0.50674  -0.48176  -0.46830  -0.46342  -0.45929
 Alpha  occ. eigenvalues --   -0.45741  -0.44916  -0.44396  -0.43198  -0.43158
 Alpha  occ. eigenvalues --   -0.42963  -0.41762  -0.41568  -0.36993  -0.36526
 Alpha  occ. eigenvalues --   -0.33671  -0.33654  -0.33641  -0.32981  -0.30305
 Alpha  occ. eigenvalues --   -0.30100
 Alpha virt. eigenvalues --    0.01843   0.02143   0.03671   0.04179   0.04253
 Alpha virt. eigenvalues --    0.04576   0.04825   0.04926   0.05080   0.05131
 Alpha virt. eigenvalues --    0.05185   0.05690   0.05883   0.06793   0.07050
 Alpha virt. eigenvalues --    0.07130   0.07976   0.08033   0.08373   0.08689
 Alpha virt. eigenvalues --    0.08820   0.09124   0.09316   0.10263   0.11013
 Alpha virt. eigenvalues --    0.11505   0.12170   0.12409   0.12889   0.13452
 Alpha virt. eigenvalues --    0.13649   0.13821   0.14345   0.14403   0.15422
 Alpha virt. eigenvalues --    0.15711   0.15780   0.15886   0.16131   0.16237
 Alpha virt. eigenvalues --    0.16514   0.16687   0.16989   0.17367   0.17397
 Alpha virt. eigenvalues --    0.17423   0.17728   0.18055   0.18109   0.18376
 Alpha virt. eigenvalues --    0.18411   0.18517   0.18577   0.18936   0.19175
 Alpha virt. eigenvalues --    0.19361   0.19507   0.19884   0.20273   0.20563
 Alpha virt. eigenvalues --    0.20647   0.21012   0.21137   0.21745   0.21864
 Alpha virt. eigenvalues --    0.22158   0.22341   0.22503   0.23071   0.23129
 Alpha virt. eigenvalues --    0.23410   0.23647   0.23721   0.23834   0.23935
 Alpha virt. eigenvalues --    0.24734   0.24901   0.25303   0.25409   0.25542
 Alpha virt. eigenvalues --    0.25849   0.25984   0.26634   0.26947   0.27372
 Alpha virt. eigenvalues --    0.27598   0.27633   0.27747   0.28362   0.28488
 Alpha virt. eigenvalues --    0.28592   0.29109   0.29351   0.29356   0.29522
 Alpha virt. eigenvalues --    0.29759   0.30025   0.30643   0.30778   0.31045
 Alpha virt. eigenvalues --    0.31482   0.32221   0.32475   0.33008   0.33113
 Alpha virt. eigenvalues --    0.33498   0.33757   0.33891   0.34490   0.34640
 Alpha virt. eigenvalues --    0.34728   0.34893   0.34931   0.35337   0.35637
 Alpha virt. eigenvalues --    0.35903   0.36260   0.36529   0.36682   0.36895
 Alpha virt. eigenvalues --    0.37154   0.37419   0.37930   0.38173   0.38271
 Alpha virt. eigenvalues --    0.38490   0.38930   0.39444   0.39608   0.39929
 Alpha virt. eigenvalues --    0.40508   0.40663   0.40998   0.41202   0.41634
 Alpha virt. eigenvalues --    0.42026   0.42235   0.42378   0.42936   0.43903
 Alpha virt. eigenvalues --    0.44042   0.44136   0.44568   0.44812   0.44881
 Alpha virt. eigenvalues --    0.45282   0.46115   0.47603   0.47805   0.48128
 Alpha virt. eigenvalues --    0.48598   0.49992   0.53280   0.53959   0.57227
 Alpha virt. eigenvalues --    0.58310   0.58577   0.59042   0.59101   0.60613
 Alpha virt. eigenvalues --    0.61755   0.62247   0.62479   0.62939   0.62992
 Alpha virt. eigenvalues --    0.63267   0.63626   0.63826   0.64012   0.64147
 Alpha virt. eigenvalues --    0.64317   0.65187   0.65329   0.65337   0.65591
 Alpha virt. eigenvalues --    0.65813   0.66398   0.67198   0.67418   0.67853
 Alpha virt. eigenvalues --    0.68672   0.69223   0.70089   0.70245   0.70580
 Alpha virt. eigenvalues --    0.70657   0.71244   0.71537   0.72017   0.72637
 Alpha virt. eigenvalues --    0.72926   0.73201   0.73773   0.74163   0.74525
 Alpha virt. eigenvalues --    0.75367   0.76136   0.76691   0.77057   0.78213
 Alpha virt. eigenvalues --    0.78421   0.78566   0.79850   0.79965   0.80047
 Alpha virt. eigenvalues --    0.80298   0.80995   0.81449   0.81795   0.82029
 Alpha virt. eigenvalues --    0.82430   0.82597   0.83167   0.83651   0.83956
 Alpha virt. eigenvalues --    0.84419   0.84979   0.85260   0.85524   0.85627
 Alpha virt. eigenvalues --    0.85994   0.86556   0.88021   0.88417   0.88682
 Alpha virt. eigenvalues --    0.89662   0.90116   0.91465   0.91584   0.92286
 Alpha virt. eigenvalues --    0.92468   0.92887   0.93017   0.93492   0.93877
 Alpha virt. eigenvalues --    0.94110   0.94417   0.94727   0.95688   0.96546
 Alpha virt. eigenvalues --    0.96730   0.97411   0.97527   0.98582   0.99185
 Alpha virt. eigenvalues --    0.99566   1.00290   1.00712   1.00837   1.01756
 Alpha virt. eigenvalues --    1.02366   1.02824   1.03998   1.04270   1.04566
 Alpha virt. eigenvalues --    1.05952   1.06220   1.06531   1.06957   1.07212
 Alpha virt. eigenvalues --    1.07914   1.08228   1.08765   1.09131   1.11532
 Alpha virt. eigenvalues --    1.11930   1.12645   1.12866   1.13383   1.13873
 Alpha virt. eigenvalues --    1.14742   1.15036   1.15899   1.17021   1.17205
 Alpha virt. eigenvalues --    1.18009   1.18805   1.19283   1.19571   1.21329
 Alpha virt. eigenvalues --    1.21439   1.22359   1.22656   1.23441   1.24039
 Alpha virt. eigenvalues --    1.24308   1.25150   1.25607   1.28748   1.29123
 Alpha virt. eigenvalues --    1.36807   1.39628   1.40725   1.41452   1.41927
 Alpha virt. eigenvalues --    1.45666   1.47219   1.47417   1.52528   1.55804
 Alpha virt. eigenvalues --    1.56601   1.58153   1.58383   1.58799   1.59145
 Alpha virt. eigenvalues --    1.59269   1.59953   1.60700   1.60863   1.61271
 Alpha virt. eigenvalues --    1.61801   1.62123   1.62629   1.63431   1.63566
 Alpha virt. eigenvalues --    1.64454   1.65581   1.65684   1.66006   1.66483
 Alpha virt. eigenvalues --    1.66652   1.67131   1.67674   1.68452   1.68708
 Alpha virt. eigenvalues --    1.69397   1.72463   1.73225   1.73989   1.74242
 Alpha virt. eigenvalues --    1.74314   1.75092   1.75571   1.76153   1.76370
 Alpha virt. eigenvalues --    1.77591   1.77941   1.80734   1.81639   1.82451
 Alpha virt. eigenvalues --    1.82763   1.82874   1.83823   1.84710   1.84927
 Alpha virt. eigenvalues --    1.86229   1.86381   1.86451   1.86725   1.87080
 Alpha virt. eigenvalues --    1.87699   1.90001   1.92181   1.92704   1.93249
 Alpha virt. eigenvalues --    1.93879   1.94178   1.96995   1.99347   1.99894
 Alpha virt. eigenvalues --    2.00500   2.00931   2.02135   2.02487   2.02765
 Alpha virt. eigenvalues --    2.03029   2.03176   2.04103   2.04401   2.04629
 Alpha virt. eigenvalues --    2.04757   2.04851   2.05611   2.05824   2.06101
 Alpha virt. eigenvalues --    2.07034   2.07173   2.07723   2.08703   2.09153
 Alpha virt. eigenvalues --    2.10704   2.11855   2.12580   2.12970   2.13181
 Alpha virt. eigenvalues --    2.14040   2.15694   2.15957   2.16812   2.17726
 Alpha virt. eigenvalues --    2.18155   2.18734   2.19743   2.20255   2.20488
 Alpha virt. eigenvalues --    2.23986   2.28355   2.30683   2.33965   2.35508
 Alpha virt. eigenvalues --    2.36682   2.36731   2.38575   2.39926   2.43690
 Alpha virt. eigenvalues --    2.44238   2.44440   2.46266   2.47597   2.49133
 Alpha virt. eigenvalues --    2.51588   2.52888   2.53055   2.53300   2.54551
 Alpha virt. eigenvalues --    2.55369   2.56135   2.56490   2.56674   2.58342
 Alpha virt. eigenvalues --    2.58459   2.58670   2.62165   2.62837   2.63552
 Alpha virt. eigenvalues --    2.72734   2.73137   2.73368   2.75690   2.75999
 Alpha virt. eigenvalues --    2.76195   2.77012   2.78646   2.79109   2.79588
 Alpha virt. eigenvalues --    2.80066   2.80264   2.80439   2.80566   2.80903
 Alpha virt. eigenvalues --    2.81482   2.82237   2.82666   2.83052   2.83514
 Alpha virt. eigenvalues --    2.83735   2.84079   2.85663   2.86482   2.87098
 Alpha virt. eigenvalues --    2.87557   2.88591   2.88936   2.90085   2.91361
 Alpha virt. eigenvalues --    2.92098   2.92400   2.92700   2.93000   2.93168
 Alpha virt. eigenvalues --    2.93364   2.94152   2.94755   2.95266   2.97725
 Alpha virt. eigenvalues --    2.99559   3.00156   3.00969   3.01757   3.02580
 Alpha virt. eigenvalues --    3.04244   3.04533   3.04711   3.05064   3.05525
 Alpha virt. eigenvalues --    3.05917   3.06440   3.07222   3.07853   3.11363
 Alpha virt. eigenvalues --    3.11866   3.15596   3.18013   3.19543   3.19822
 Alpha virt. eigenvalues --    3.21142   3.22803   3.25352   3.31985   3.32029
 Alpha virt. eigenvalues --    3.32460   3.33469   3.34883   3.35302   3.37385
 Alpha virt. eigenvalues --    3.47236   3.47643   3.48967   3.49396   3.49627
 Alpha virt. eigenvalues --    3.49742   3.53575   3.53814   3.60753   3.61045
 Alpha virt. eigenvalues --    3.61847   3.63157   3.64999   3.65467   3.66148
 Alpha virt. eigenvalues --    3.73666   3.73737   3.76112   3.76394   3.76758
 Alpha virt. eigenvalues --    3.77320   3.90515   3.91859   3.92764   4.09821
 Alpha virt. eigenvalues --    4.10115   4.10461   4.14452   4.14529   4.14602
 Alpha virt. eigenvalues --    4.24138   4.24325   4.26183   4.26245   4.26724
 Alpha virt. eigenvalues --    4.26968   4.28404   4.29139   4.51305   4.66953
 Alpha virt. eigenvalues --    4.68707   4.93559   4.95236   4.95690   4.98576
 Alpha virt. eigenvalues --   23.68043  23.81087  23.81768  23.88070  24.08474
 Alpha virt. eigenvalues --   24.08502  24.10745  24.10923  24.11060  24.11569
 Alpha virt. eigenvalues --   24.12633  24.13019  24.20565  24.20641  24.21103
 Alpha virt. eigenvalues --   24.23896  24.24275  24.24372  24.24488  24.24556
 Alpha virt. eigenvalues --   24.31180  24.33791  24.33801  24.34680
          Condensed to atoms (all electrons):
               1          2          3          4          5          6
     1  C   18.338665   0.222027   0.986789  -5.924668  -0.177099   0.959643
     2  C    0.222027  13.714465  -0.064932   1.726720   0.296103  -2.506195
     3  C    0.986789  -0.064932  10.898120  -1.637103   0.036442  -2.032748
     4  C   -5.924668   1.726720  -1.637103  19.200163   0.058992  -0.777008
     5  H   -0.177099   0.296103   0.036442   0.058992   0.550007   0.043723
     6  C    0.959643  -2.506195  -2.032748  -0.777008   0.043723  14.225786
     7  C   -5.776421  -2.560789   1.157198  -6.702465   0.096195  -0.464368
     8  H   -0.065348   0.113651   0.381784   0.033296   0.000824  -0.064833
     9  C   -1.997872   0.410230   0.473337   1.328241   0.072503  -1.757641
    10  C   -0.620161  -2.563589  -1.657111  -0.008384   0.058481   1.366648
    11  C   -1.289916   3.528012  -3.063377   1.272655  -0.147336  -1.344137
    12  C   -0.113848  -3.439227   2.879597  -0.790628   0.066855  -0.773288
    13  C   -0.253078  -1.690483  -2.031674  -0.925034  -0.016457   0.927646
    14  H    0.096249   0.066152  -0.004937  -0.042944  -0.003620  -0.020975
    15  C    1.781241   2.452228  -0.179356  -1.364135  -0.191724  -0.178395
    16  C   -1.194199  -2.852055   0.165628  -0.887990   0.122019   0.176882
    17  C    0.153881   0.018085   0.076307   0.122033  -0.027989  -1.387133
    18  H    0.100395  -0.026043  -0.014764  -0.107272   0.001833  -0.033763
    19  C   -0.243654   0.296202   0.285274   0.031698   0.025272  -2.106104
    20  H   -0.000275  -0.095911   0.015353  -0.006201  -0.002439  -0.033336
    21  C    0.670953  -0.239215   1.990094  -0.942274  -0.006374   0.300374
    22  C   -0.721494   0.183170  -2.105842   1.415050   0.005134   0.001656
    23  C    0.335098   0.562208   0.080549   0.001618  -0.016466  -0.051401
    24  H   -0.068040  -0.059654  -0.022849   0.059120   0.000213   0.005626
    25  C   -0.124240   0.248136   0.066740   0.041506  -0.005086  -0.066722
    26  H    0.007522  -0.023781  -0.018008   0.091506  -0.001340   0.014132
    27  C   -0.153777  -0.108546  -0.061906  -0.048665  -0.007333  -0.076972
    28  H   -0.002713   0.004738   0.000580   0.006585  -0.001103   0.008327
    29  H    0.005085   0.013090  -0.002872   0.004670   0.000433   0.013060
    30  C    0.366582   0.099845   0.500714  -0.071974  -0.003517   0.047086
    31  H   -0.035272  -0.025393   0.000640  -0.013188  -0.000057   0.033610
    32  C   -0.115396   0.065869  -0.019424   0.306753   0.003716  -0.093983
    33  H    0.005827  -0.012324  -0.001620  -0.112953  -0.000145   0.016758
    34  C   -0.003001  -0.172913  -0.024548  -0.302074   0.004780   0.048354
    35  H    0.004409   0.008052   0.000401   0.002264  -0.001093  -0.003780
    36  H    0.000444   0.007024   0.000491   0.001834  -0.000055  -0.001288
    37  H   -0.004193  -0.005360  -0.000572  -0.000256   0.000148   0.028587
    38  C   -0.065650  -0.035068  -0.101569  -0.042807   0.000342   0.038422
    39  H    0.006350   0.001304   0.000386   0.004314  -0.000059  -0.002053
    40  H    0.000759   0.000609   0.000644   0.009409  -0.000013  -0.001182
    41  H    0.000482  -0.007691  -0.000776  -0.008128   0.000287   0.001269
    42  H    0.000472  -0.000919  -0.002138  -0.000460  -0.000001   0.000968
               7          8          9         10         11         12
     1  C   -5.776421  -0.065348  -1.997872  -0.620161  -1.289916  -0.113848
     2  C   -2.560789   0.113651   0.410230  -2.563589   3.528012  -3.439227
     3  C    1.157198   0.381784   0.473337  -1.657111  -3.063377   2.879597
     4  C   -6.702465   0.033296   1.328241  -0.008384   1.272655  -0.790628
     5  H    0.096195   0.000824   0.072503   0.058481  -0.147336   0.066855
     6  C   -0.464368  -0.064833  -1.757641   1.366648  -1.344137  -0.773288
     7  C   19.420500  -0.028407   0.150040   0.012101  -0.937985   0.896782
     8  H   -0.028407   0.629634   0.109771  -0.038027   0.028346  -0.055544
     9  C    0.150040   0.109771  13.324781  -2.324543   0.158738   0.055298
    10  C    0.012101  -0.038027  -2.324543  15.067008  -0.269978   0.148370
    11  C   -0.937985   0.028346   0.158738  -0.269978  17.063016  -8.008003
    12  C    0.896782  -0.055544   0.055298   0.148370  -8.008003  15.438226
    13  C    0.577884  -0.049631  -3.032826   1.330016  -0.048145   0.262968
    14  H   -0.066792  -0.002215   0.324489   0.023110   0.011699  -0.010725
    15  C   -0.949661  -0.007844  -2.038405  -1.245188   0.410326  -0.160526
    16  C    1.678359   0.001227   2.010803  -0.870672  -0.230402   0.126715
    17  C   -0.031242  -0.009057   0.036542  -0.131863  -0.564300   0.319146
    18  H   -0.004219  -0.002346  -0.010954  -0.036068   0.477386  -0.028676
    19  C    0.225073   0.040924   0.064536  -0.015198   0.046705  -0.156484
    20  H   -0.026893  -0.030413  -0.015837   0.016256  -0.069213   0.582980
    21  C   -0.057964  -0.120308  -2.963689   0.156592   0.086201  -0.402664
    22  C   -1.352442   0.034936   2.597452  -0.043148  -0.034494   0.141103
    23  C   -0.192778   0.001338   0.090526  -1.856451  -0.046887   0.021512
    24  H    0.012747   0.000049  -0.019745   0.026178   0.024547  -0.007967
    25  C    0.177408   0.002590   0.313711  -1.671367   0.050078  -0.021590
    26  H   -0.080720   0.000059  -0.071470  -0.004406  -0.010104   0.008546
    27  C   -0.077953   0.011043  -0.013673   0.022962  -0.367117  -0.468828
    28  H    0.001871   0.000158   0.000018  -0.001200  -0.063784   0.006686
    29  H    0.004964   0.000953   0.000481  -0.001015   0.026200  -0.095410
    30  C   -0.127855   0.025666   0.291777  -0.038704   0.046896  -0.121979
    31  H    0.023743  -0.025069  -0.095271   0.017269   0.002807  -0.007161
    32  C    0.113917   0.005185   0.427380  -0.127814  -0.015996   0.046757
    33  H    0.109763  -0.003572  -0.055456  -0.001031   0.006124  -0.009864
    34  C    0.045301  -0.000723  -0.076233  -0.222283  -0.021191   0.005150
    35  H    0.000323  -0.000007   0.005668   0.016208   0.001973  -0.000333
    36  H    0.004110   0.000005   0.009473   0.024681   0.000795  -0.000332
    37  H    0.000128  -0.000352  -0.000558   0.000872  -0.023273   0.010519
    38  C   -0.232966   0.009781  -0.201840   0.043827  -0.000426  -0.012994
    39  H    0.006174  -0.000416   0.015044  -0.001359   0.000337   0.000319
    40  H   -0.004382   0.000080   0.010663  -0.003127  -0.000139   0.000677
    41  H    0.001483  -0.000012  -0.005225   0.024525  -0.000548   0.000131
    42  H   -0.006982  -0.000230  -0.008038   0.001224   0.000031  -0.000224
              13         14         15         16         17         18
     1  C   -0.253078   0.096249   1.781241  -1.194199   0.153881   0.100395
     2  C   -1.690483   0.066152   2.452228  -2.852055   0.018085  -0.026043
     3  C   -2.031674  -0.004937  -0.179356   0.165628   0.076307  -0.014764
     4  C   -0.925034  -0.042944  -1.364135  -0.887990   0.122033  -0.107272
     5  H   -0.016457  -0.003620  -0.191724   0.122019  -0.027989   0.001833
     6  C    0.927646  -0.020975  -0.178395   0.176882  -1.387133  -0.033763
     7  C    0.577884  -0.066792  -0.949661   1.678359  -0.031242  -0.004219
     8  H   -0.049631  -0.002215  -0.007844   0.001227  -0.009057  -0.002346
     9  C   -3.032826   0.324489  -2.038405   2.010803   0.036542  -0.010954
    10  C    1.330016   0.023110  -1.245188  -0.870672  -0.131863  -0.036068
    11  C   -0.048145   0.011699   0.410326  -0.230402  -0.564300   0.477386
    12  C    0.262968  -0.010725  -0.160526   0.126715   0.319146  -0.028676
    13  C   15.361412   0.053840   0.143304  -0.063199  -0.062800   0.011720
    14  H    0.053840   0.496364   0.086650  -0.149164   0.003676   0.000044
    15  C    0.143304   0.086650  16.137765  -8.290545   0.030644   0.053021
    16  C   -0.063199  -0.149164  -8.290545  17.312733  -0.012062  -0.021779
    17  C   -0.062800   0.003676   0.030644  -0.012062   7.766947  -0.026267
    18  H    0.011720   0.000044   0.053021  -0.021779  -0.026267   0.539591
    19  C    0.037477  -0.003046   0.002680   0.002246  -0.745860  -0.016693
    20  H    0.036868  -0.000095  -0.001587   0.002242   0.003675   0.000179
    21  C   -0.296194   0.070224   0.104679  -0.113910   0.037750  -0.008132
    22  C   -1.580339  -0.126629  -0.129015   0.199493  -0.015115   0.005442
    23  C   -0.063487   0.012654  -0.134103  -0.300492  -0.017357   0.006749
    24  H    0.013886  -0.001941   0.442264  -0.008145  -0.005607  -0.005439
    25  C   -0.102257  -0.011701   0.173528  -0.772153   0.005342   0.002321
    26  H    0.003793  -0.002369  -0.050127   0.494726  -0.001151  -0.000294
    27  C    0.028161   0.000335  -0.008182   0.002730   0.428223   0.026264
    28  H   -0.000587  -0.000024   0.000520  -0.000006   0.402989  -0.013294
    29  H   -0.002132  -0.000048   0.000334  -0.000119   0.005825  -0.000573
    30  C   -2.180136   0.022053  -0.001483   0.011101   0.001301  -0.000613
    31  H   -0.020771  -0.001589   0.004463  -0.003996   0.000946   0.000184
    32  C   -1.669277  -0.013033  -0.004989  -0.001390   0.000981   0.000112
    33  H    0.009784   0.000872  -0.005384   0.020439   0.000088   0.000222
    34  C    0.056361  -0.003788  -0.363734   0.054461  -0.003514  -0.000601
    35  H   -0.001265   0.000312  -0.086849  -0.003285   0.000631   0.000456
    36  H   -0.004498  -0.000453   0.009348  -0.102325   0.000032   0.000096
    37  H    0.000767  -0.000001  -0.000415   0.000133  -0.059965   0.001188
    38  C   -0.111752  -0.004046   0.003795  -0.012500  -0.000368  -0.000038
    39  H    0.021148   0.000412  -0.000090   0.000313   0.000019   0.000009
    40  H    0.006581  -0.001066  -0.000348   0.001478   0.000003  -0.000003
    41  H    0.001404  -0.000038   0.002392   0.018744  -0.000113  -0.000093
    42  H    0.029173   0.000219   0.000150  -0.000480  -0.000008   0.000002
              19         20         21         22         23         24
     1  C   -0.243654  -0.000275   0.670953  -0.721494   0.335098  -0.068040
     2  C    0.296202  -0.095911  -0.239215   0.183170   0.562208  -0.059654
     3  C    0.285274   0.015353   1.990094  -2.105842   0.080549  -0.022849
     4  C    0.031698  -0.006201  -0.942274   1.415050   0.001618   0.059120
     5  H    0.025272  -0.002439  -0.006374   0.005134  -0.016466   0.000213
     6  C   -2.106104  -0.033336   0.300374   0.001656  -0.051401   0.005626
     7  C    0.225073  -0.026893  -0.057964  -1.352442  -0.192778   0.012747
     8  H    0.040924  -0.030413  -0.120308   0.034936   0.001338   0.000049
     9  C    0.064536  -0.015837  -2.963689   2.597452   0.090526  -0.019745
    10  C   -0.015198   0.016256   0.156592  -0.043148  -1.856451   0.026178
    11  C    0.046705  -0.069213   0.086201  -0.034494  -0.046887   0.024547
    12  C   -0.156484   0.582980  -0.402664   0.141103   0.021512  -0.007967
    13  C    0.037477   0.036868  -0.296194  -1.580339  -0.063487   0.013886
    14  H   -0.003046  -0.000095   0.070224  -0.126629   0.012654  -0.001941
    15  C    0.002680  -0.001587   0.104679  -0.129015  -0.134103   0.442264
    16  C    0.002246   0.002242  -0.113910   0.199493  -0.300492  -0.008145
    17  C   -0.745860   0.003675   0.037750  -0.015115  -0.017357  -0.005607
    18  H   -0.016693   0.000179  -0.008132   0.005442   0.006749  -0.005439
    19  C    8.170199  -0.088669  -0.112040   0.038751   0.005895   0.001166
    20  H   -0.088669   0.523907  -0.014011   0.015931  -0.000361  -0.000035
    21  C   -0.112040  -0.014011  17.477126  -9.038349  -0.021366   0.006608
    22  C    0.038751   0.015931  -9.038349  17.667102   0.035673  -0.006092
    23  C    0.005895  -0.000361  -0.021366   0.035673   7.760433  -0.083524
    24  H    0.001166  -0.000035   0.006608  -0.006092  -0.083524   0.497579
    25  C   -0.001249  -0.000599   0.004500  -0.018728  -0.395053  -0.015125
    26  H    0.000119   0.000363  -0.006535   0.026961  -0.018389   0.000783
    27  C    0.433377   0.015873  -0.014002   0.001909  -0.004576  -0.000587
    28  H    0.011365  -0.000123   0.000387  -0.000080   0.000380   0.000409
    29  H    0.425156  -0.013457   0.000438   0.000046   0.000027   0.000041
    30  C   -0.016680  -0.010493  -0.963433   0.198356  -0.000912   0.000107
    31  H   -0.006796   0.003912   0.611484  -0.078936  -0.000486   0.000336
    32  C    0.003933   0.000444   0.150186  -0.630788   0.006649  -0.001208
    33  H   -0.000678   0.000199  -0.015635   0.430156   0.000747  -0.000012
    34  C   -0.000098   0.000166   0.009488  -0.023513   0.302326   0.018465
    35  H   -0.000028   0.000001  -0.000366   0.000616   0.427563  -0.012126
    36  H    0.000011  -0.000010  -0.000696   0.002225   0.018565  -0.000610
    37  H   -0.076774   0.001113  -0.000258   0.000070  -0.000109  -0.000027
    38  C   -0.001321  -0.001094  -0.079325  -0.354447  -0.000217   0.000195
    39  H    0.000004   0.000062  -0.123816   0.024637   0.000023  -0.000013
    40  H    0.000042   0.000029   0.003014  -0.078526  -0.000014  -0.000002
    41  H   -0.000001   0.000004   0.000211  -0.000557  -0.078294   0.001754
    42  H   -0.000026   0.000032   0.017421  -0.009287  -0.000002   0.000004
              25         26         27         28         29         30
     1  C   -0.124240   0.007522  -0.153777  -0.002713   0.005085   0.366582
     2  C    0.248136  -0.023781  -0.108546   0.004738   0.013090   0.099845
     3  C    0.066740  -0.018008  -0.061906   0.000580  -0.002872   0.500714
     4  C    0.041506   0.091506  -0.048665   0.006585   0.004670  -0.071974
     5  H   -0.005086  -0.001340  -0.007333  -0.001103   0.000433  -0.003517
     6  C   -0.066722   0.014132  -0.076972   0.008327   0.013060   0.047086
     7  C    0.177408  -0.080720  -0.077953   0.001871   0.004964  -0.127855
     8  H    0.002590   0.000059   0.011043   0.000158   0.000953   0.025666
     9  C    0.313711  -0.071470  -0.013673   0.000018   0.000481   0.291777
    10  C   -1.671367  -0.004406   0.022962  -0.001200  -0.001015  -0.038704
    11  C    0.050078  -0.010104  -0.367117  -0.063784   0.026200   0.046896
    12  C   -0.021590   0.008546  -0.468828   0.006686  -0.095410  -0.121979
    13  C   -0.102257   0.003793   0.028161  -0.000587  -0.002132  -2.180136
    14  H   -0.011701  -0.002369   0.000335  -0.000024  -0.000048   0.022053
    15  C    0.173528  -0.050127  -0.008182   0.000520   0.000334  -0.001483
    16  C   -0.772153   0.494726   0.002730  -0.000006  -0.000119   0.011101
    17  C    0.005342  -0.001151   0.428223   0.402989   0.005825   0.001301
    18  H    0.002321  -0.000294   0.026264  -0.013294  -0.000573  -0.000613
    19  C   -0.001249   0.000119   0.433377   0.011365   0.425156  -0.016680
    20  H   -0.000599   0.000363   0.015873  -0.000123  -0.013457  -0.010493
    21  C    0.004500  -0.006535  -0.014002   0.000387   0.000438  -0.963433
    22  C   -0.018728   0.026961   0.001909  -0.000080   0.000046   0.198356
    23  C   -0.395053  -0.018389  -0.004576   0.000380   0.000027  -0.000912
    24  H   -0.015125   0.000783  -0.000587   0.000409   0.000041   0.000107
    25  C    7.916962  -0.068217   0.000460  -0.000083   0.000010   0.008458
    26  H   -0.068217   0.497896   0.000144   0.000007  -0.000017   0.000444
    27  C    0.000460   0.000144   6.524586  -0.056860  -0.073204  -0.000164
    28  H   -0.000083   0.000007  -0.056860   0.473898   0.001217  -0.000001
    29  H    0.000010  -0.000017  -0.073204   0.001217   0.477048   0.000059
    30  C    0.008458   0.000444  -0.000164  -0.000001   0.000059   8.587395
    31  H   -0.000950  -0.000053  -0.001071   0.000015  -0.000078  -0.109975
    32  C   -0.023820  -0.003789  -0.000458   0.000003   0.000034  -0.604063
    33  H    0.001567  -0.004971  -0.000100  -0.000002   0.000024  -0.011897
    34  C    0.266876   0.029870  -0.000216   0.000074   0.000001  -0.000394
    35  H    0.017209  -0.000746   0.000054  -0.000031  -0.000001   0.000020
    36  H    0.427849  -0.012985   0.000002  -0.000002   0.000000   0.000012
    37  H    0.000007   0.000004   0.467477  -0.010462  -0.010929  -0.000015
    38  C   -0.005205   0.000303  -0.000067   0.000003   0.000060   0.210145
    39  H    0.000056   0.000028   0.000063  -0.000001  -0.000012   0.447751
    40  H    0.000417   0.000312   0.000004  -0.000000  -0.000002   0.011895
    41  H   -0.085591   0.002312  -0.000001   0.000002  -0.000000  -0.000005
    42  H   -0.000123  -0.000018   0.000001  -0.000000   0.000000  -0.081795
              31         32         33         34         35         36
     1  C   -0.035272  -0.115396   0.005827  -0.003001   0.004409   0.000444
     2  C   -0.025393   0.065869  -0.012324  -0.172913   0.008052   0.007024
     3  C    0.000640  -0.019424  -0.001620  -0.024548   0.000401   0.000491
     4  C   -0.013188   0.306753  -0.112953  -0.302074   0.002264   0.001834
     5  H   -0.000057   0.003716  -0.000145   0.004780  -0.001093  -0.000055
     6  C    0.033610  -0.093983   0.016758   0.048354  -0.003780  -0.001288
     7  C    0.023743   0.113917   0.109763   0.045301   0.000323   0.004110
     8  H   -0.025069   0.005185  -0.003572  -0.000723  -0.000007   0.000005
     9  C   -0.095271   0.427380  -0.055456  -0.076233   0.005668   0.009473
    10  C    0.017269  -0.127814  -0.001031  -0.222283   0.016208   0.024681
    11  C    0.002807  -0.015996   0.006124  -0.021191   0.001973   0.000795
    12  C   -0.007161   0.046757  -0.009864   0.005150  -0.000333  -0.000332
    13  C   -0.020771  -1.669277   0.009784   0.056361  -0.001265  -0.004498
    14  H   -0.001589  -0.013033   0.000872  -0.003788   0.000312  -0.000453
    15  C    0.004463  -0.004989  -0.005384  -0.363734  -0.086849   0.009348
    16  C   -0.003996  -0.001390   0.020439   0.054461  -0.003285  -0.102325
    17  C    0.000946   0.000981   0.000088  -0.003514   0.000631   0.000032
    18  H    0.000184   0.000112   0.000222  -0.000601   0.000456   0.000096
    19  C   -0.006796   0.003933  -0.000678  -0.000098  -0.000028   0.000011
    20  H    0.003912   0.000444   0.000199   0.000166   0.000001  -0.000010
    21  C    0.611484   0.150186  -0.015635   0.009488  -0.000366  -0.000696
    22  C   -0.078936  -0.630788   0.430156  -0.023513   0.000616   0.002225
    23  C   -0.000486   0.006649   0.000747   0.302326   0.427563   0.018565
    24  H    0.000336  -0.001208  -0.000012   0.018465  -0.012126  -0.000610
    25  C   -0.000950  -0.023820   0.001567   0.266876   0.017209   0.427849
    26  H   -0.000053  -0.003789  -0.004971   0.029870  -0.000746  -0.012985
    27  C   -0.001071  -0.000458  -0.000100  -0.000216   0.000054   0.000002
    28  H    0.000015   0.000003  -0.000002   0.000074  -0.000031  -0.000002
    29  H   -0.000078   0.000034   0.000024   0.000001  -0.000001   0.000000
    30  C   -0.109975  -0.604063  -0.011897  -0.000394   0.000020   0.000012
    31  H    0.489906  -0.004071   0.001241   0.000269  -0.000013  -0.000004
    32  C   -0.004071   7.875453  -0.060918  -0.004858   0.000036   0.000621
    33  H    0.001241  -0.060918   0.497218  -0.000622   0.000056   0.000448
    34  C    0.000269  -0.004858  -0.000622   6.499550  -0.064763  -0.075066
    35  H   -0.000013   0.000036   0.000056  -0.064763   0.475805   0.001315
    36  H   -0.000004   0.000621   0.000448  -0.075066   0.001315   0.476140
    37  H    0.000025  -0.000010   0.000001  -0.000001   0.000000  -0.000000
    38  C    0.025654   0.326865   0.014292   0.000057  -0.000003   0.000027
    39  H   -0.011698   0.008261  -0.000501  -0.000006   0.000000  -0.000001
    40  H   -0.000144   0.420741  -0.010257   0.000046  -0.000002  -0.000027
    41  H    0.000006  -0.000127  -0.000046   0.472750  -0.011799  -0.012638
    42  H    0.001025  -0.068322   0.001364   0.000004  -0.000000  -0.000000
              37         38         39         40         41         42
     1  C   -0.004193  -0.065650   0.006350   0.000759   0.000482   0.000472
     2  C   -0.005360  -0.035068   0.001304   0.000609  -0.007691  -0.000919
     3  C   -0.000572  -0.101569   0.000386   0.000644  -0.000776  -0.002138
     4  C   -0.000256  -0.042807   0.004314   0.009409  -0.008128  -0.000460
     5  H    0.000148   0.000342  -0.000059  -0.000013   0.000287  -0.000001
     6  C    0.028587   0.038422  -0.002053  -0.001182   0.001269   0.000968
     7  C    0.000128  -0.232966   0.006174  -0.004382   0.001483  -0.006982
     8  H   -0.000352   0.009781  -0.000416   0.000080  -0.000012  -0.000230
     9  C   -0.000558  -0.201840   0.015044   0.010663  -0.005225  -0.008038
    10  C    0.000872   0.043827  -0.001359  -0.003127   0.024525   0.001224
    11  C   -0.023273  -0.000426   0.000337  -0.000139  -0.000548   0.000031
    12  C    0.010519  -0.012994   0.000319   0.000677   0.000131  -0.000224
    13  C    0.000767  -0.111752   0.021148   0.006581   0.001404   0.029173
    14  H   -0.000001  -0.004046   0.000412  -0.001066  -0.000038   0.000219
    15  C   -0.000415   0.003795  -0.000090  -0.000348   0.002392   0.000150
    16  C    0.000133  -0.012500   0.000313   0.001478   0.018744  -0.000480
    17  C   -0.059965  -0.000368   0.000019   0.000003  -0.000113  -0.000008
    18  H    0.001188  -0.000038   0.000009  -0.000003  -0.000093   0.000002
    19  C   -0.076774  -0.001321   0.000004   0.000042  -0.000001  -0.000026
    20  H    0.001113  -0.001094   0.000062   0.000029   0.000004   0.000032
    21  C   -0.000258  -0.079325  -0.123816   0.003014   0.000211   0.017421
    22  C    0.000070  -0.354447   0.024637  -0.078526  -0.000557  -0.009287
    23  C   -0.000109  -0.000217   0.000023  -0.000014  -0.078294  -0.000002
    24  H   -0.000027   0.000195  -0.000013  -0.000002   0.001754   0.000004
    25  C    0.000007  -0.005205   0.000056   0.000417  -0.085591  -0.000123
    26  H    0.000004   0.000303   0.000028   0.000312   0.002312  -0.000018
    27  C    0.467477  -0.000067   0.000063   0.000004  -0.000001   0.000001
    28  H   -0.010462   0.000003  -0.000001  -0.000000   0.000002  -0.000000
    29  H   -0.010929   0.000060  -0.000012  -0.000002  -0.000000   0.000000
    30  C   -0.000015   0.210145   0.447751   0.011895  -0.000005  -0.081795
    31  H    0.000025   0.025654  -0.011698  -0.000144   0.000006   0.001025
    32  C   -0.000010   0.326865   0.008261   0.420741  -0.000127  -0.068322
    33  H    0.000001   0.014292  -0.000501  -0.010257  -0.000046   0.001364
    34  C   -0.000001   0.000057  -0.000006   0.000046   0.472750   0.000004
    35  H    0.000000  -0.000003   0.000000  -0.000002  -0.011799  -0.000000
    36  H   -0.000000   0.000027  -0.000001  -0.000027  -0.012638  -0.000000
    37  H    0.487522   0.000001   0.000000  -0.000000   0.000000   0.000000
    38  C    0.000001   6.658135  -0.079611  -0.056982   0.000005   0.465011
    39  H    0.000000  -0.079611   0.475714   0.000956  -0.000000  -0.010534
    40  H   -0.000000  -0.056982   0.000956   0.472499   0.000000  -0.010594
    41  H    0.000000   0.000005  -0.000000   0.000000   0.488398   0.000000
    42  H    0.000000   0.465011  -0.010534  -0.010594   0.000000   0.485918
 Mulliken charges:
               1
     1  C    0.907440
     2  C   -1.547835
     3  C   -0.948939
     4  C    0.998182
     5  H    0.165002
     6  C    1.518750
     7  C    0.967218
     8  H    0.073054
     9  C   -1.592226
    10  C    1.396357
    11  C   -0.686123
    12  C   -0.332043
    13  C    1.291829
    14  H    0.201884
    15  C   -0.447250
    16  C   -0.511604
    17  C   -0.313294
    18  H    0.130708
    19  C   -0.556707
    20  H    0.191465
    21  C   -0.157172
    22  C   -0.678046
    23  C   -0.387807
    24  H    0.206672
    25  C   -0.335874
    26  H    0.199659
    27  C   -0.419410
    28  H    0.230123
    29  H    0.220613
    30  C   -0.531574
    31  H    0.224505
    32  C   -0.300162
    33  H    0.190795
    34  C   -0.450210
    35  H    0.223120
    36  H    0.225443
    37  H    0.194965
    38  C   -0.396625
    39  H    0.216484
    40  H    0.225950
    41  H    0.195525
    42  H    0.197160
 Sum of Mulliken charges =  -0.00000
 Mulliken charges with hydrogens summed into heavy atoms:
               1
     1  C    0.907440
     2  C   -1.382832
     3  C   -0.875886
     4  C    0.998182
     6  C    1.518750
     7  C    0.967218
     9  C   -1.390342
    10  C    1.396357
    11  C   -0.555415
    12  C   -0.140578
    13  C    1.291829
    15  C   -0.240578
    16  C   -0.311946
    17  C   -0.083171
    19  C   -0.336094
    21  C    0.067333
    22  C   -0.487250
    23  C   -0.164687
    25  C   -0.110431
    27  C   -0.224445
    30  C   -0.315090
    32  C   -0.074211
    34  C   -0.254685
    38  C   -0.199465
 Electronic spatial extent (au):  <R**2>=          10005.7430
 Charge=             -0.0000 electrons
 Dipole moment (field-independent basis, Debye):
    X=              0.0092    Y=             -0.0024    Z=              0.0007  Tot=              0.0095
 Quadrupole moment (field-independent basis, Debye-Ang):
   XX=           -125.0976   YY=           -126.2139   ZZ=           -142.8352
   XY=             -0.0008   XZ=             -4.2111   YZ=              5.6730
 Traceless Quadrupole moment (field-independent basis, Debye-Ang):
   XX=              6.2847   YY=              5.1683   ZZ=            -11.4530
   XY=             -0.0008   XZ=             -4.2111   YZ=              5.6730
 Octapole moment (field-independent basis, Debye-Ang**2):
  XXX=             10.1036  YYY=             32.0138  ZZZ=              0.7027  XYY=            -13.5673
  XXY=            -28.0118  XXZ=             36.2870  XZZ=              3.3362  YZZ=             -4.1927
  YYZ=            -37.0183  XYZ=             -7.9521
 Hexadecapole moment (field-independent basis, Debye-Ang**3):
 XXXX=          -6295.2946 YYYY=          -6256.9774 ZZZZ=           -496.9082 XXXY=            -14.5893
 XXXZ=            -22.4138 YYYX=              3.1206 YYYZ=             70.8810 ZZZX=             -7.4432
 ZZZY=             20.6233 XXYY=          -2061.6841 XXZZ=          -1228.4044 YYZZ=          -1252.5348
 XXYZ=             53.3911 YYXZ=            -76.7594 ZZXY=             11.3391
 N-N= 1.733205226936D+03 E-N=-5.612792023121D+03  KE= 9.213000405904D+02
 No NMR shielding tensors so no spin-rotation constants.
 Leave Link  601 at Mon Nov 14 15:19:25 2022, MaxMem= 16106127360 cpu:              10.3 elap:               0.4
 (Enter /opt/ap/G16/B01/g16/l9999.exe)
 1\1\GINC-N60\SP\RwB97XD\6-311++G(d,p)\C24H18\ROOT\14-Nov-2022\0\\#P wB
 97XD/6-311++G(d,p) scf=maxcycle=512\\_conf025.gjf nmol_natom 1_42\\0,1
 \C\C,1,1.39412829\C,1,1.39435449,2,118.86443127\C,2,1.39416084,1,121.1
 529487,3,0.03668482,0\H,2,1.08488355,1,119.42236619,3,-179.97409048,0\
 C,1,1.48467131,2,120.55714816,4,179.25839056,0\C,3,1.39437784,1,121.11
 776116,2,-0.05351271,0\H,3,1.08487775,1,119.41869036,2,177.23008049,0\
 C,4,1.39432447,2,118.86473838,1,0.01008406,0\C,4,1.48466627,2,120.5464
 188,1,179.19454736,0\C,6,1.3968498,1,120.7843492,2,35.,0\C,6,1.3968682
 ,1,120.67653841,2,-145.,0\C,7,1.48449863,3,120.56496838,1,-179.9632580
 4,0\H,9,1.0848792,4,119.41824946,2,177.22245984,0\C,10,1.39685361,4,12
 0.76946845,2,-42.52368674,0\C,10,1.39686289,4,120.69448769,2,137.43107
 516,0\C,11,1.38888939,6,120.7380073,1,179.94058542,0\H,11,1.0847641,6,
 119.46912378,1,-1.41050605,0\C,12,1.38882428,6,120.76493111,1,-179.950
 82712,0\H,12,1.08482758,6,119.44182626,1,-1.23602505,0\C,13,1.39682899
 ,7,120.74134419,3,42.89023273,0\C,13,1.39683158,7,120.7379111,3,-137.1
 2494058,0\C,15,1.38888263,10,120.742191,4,179.9460119,0\H,15,1.0847633
 4,10,119.47085903,4,-1.40606944,0\C,16,1.38886088,10,120.76338989,4,-1
 79.95592713,0\H,16,1.08483431,10,119.44215232,4,-1.23439681,0\C,17,1.3
 9007919,11,120.20743432,6,0.00349958,0\H,17,1.0843506,11,119.71318733,
 6,179.5011609,0\H,19,1.08435858,12,119.73823132,6,179.53683762,0\C,21,
 1.38882373,13,120.76699356,7,179.99297883,0\H,21,1.0847938,13,119.4352
 623,7,1.32183327,0\C,22,1.38881869,13,120.76647403,7,-179.97118338,0\H
 ,22,1.08479982,13,119.43203605,7,1.34657928,0\C,23,1.39007007,15,120.2
 0732995,10,0.00573957,0\H,23,1.08434813,15,119.71220819,10,179.5072436
 8,0\H,25,1.08436328,16,119.73539424,10,179.53636455,0\H,27,1.08412515,
 17,120.21790854,11,179.98397203,0\C,30,1.39008059,21,120.18795226,13,-
 0.02169059,0\H,30,1.08435324,21,119.73787119,13,-179.52151214,0\H,32,1
 .0843543,22,119.737043,13,-179.52886928,0\H,34,1.08412314,23,120.22152
 803,15,179.98800213,0\H,38,1.08411439,30,120.21547163,21,-179.98600656
 ,0\\Version=ES64L-G16RevB.01\State=1-A\HF=-925.3110462\RMSD=8.111e-09\
 Dipole=0.0029862,0.0001671,-0.0022682\Quadrupole=3.7650706,-8.118683,4
 .3536125,-5.6987355,-0.3753995,-0.0728524\PG=C01 [X(C24H18)]\\@


 Until you make peace with who you are,
 you'll never be content with what you have.
                           -- Doris Mortman
 Job cpu time:       0 days  1 hours 17 minutes 54.2 seconds.
 Elapsed time:       0 days  0 hours  2 minutes 26.7 seconds.
 File lengths (MBytes):  RWF=    224 Int=      0 D2E=      0 Chk=     26 Scr=      1
 Normal termination of Gaussian 16 at Mon Nov 14 15:19:25 2022.
