 Entering Gaussian System, Link 0=g16
 Input=_conf002.gjf
 Output=_conf002.log
 Initial command:
 /opt/ap/G16/B01/g16/l1.exe "/tmp2/scr/Gau-11374.inp" -scrdir="/tmp2/scr/"
 Entering Link 1 = /opt/ap/G16/B01/g16/l1.exe PID=     11375.
  
 Copyright (c) 1988-2017, Gaussian, Inc.  All Rights Reserved.
  
 This is part of the Gaussian(R) 16 program.  It is based on
 the Gaussian(R) 09 system (copyright 2009, Gaussian, Inc.),
 the Gaussian(R) 03 system (copyright 2003, Gaussian, Inc.),
 the Gaussian(R) 98 system (copyright 1998, Gaussian, Inc.),
 the Gaussian(R) 94 system (copyright 1995, Gaussian, Inc.),
 the Gaussian 92(TM) system (copyright 1992, Gaussian, Inc.),
 the Gaussian 90(TM) system (copyright 1990, Gaussian, Inc.),
 the Gaussian 88(TM) system (copyright 1988, Gaussian, Inc.),
 the Gaussian 86(TM) system (copyright 1986, Carnegie Mellon
 University), and the Gaussian 82(TM) system (copyright 1983,
 Carnegie Mellon University). Gaussian is a federally registered
 trademark of Gaussian, Inc.
  
 This software contains proprietary and confidential information,
 including trade secrets, belonging to Gaussian, Inc.
  
 This software is provided under written license and may be
 used, copied, transmitted, or stored only in accord with that
 written license.
  
 The following legend is applicable only to US Government
 contracts under FAR:
  
                    RESTRICTED RIGHTS LEGEND
  
 Use, reproduction and disclosure by the US Government is
 subject to restrictions as set forth in subparagraphs (a)
 and (c) of the Commercial Computer Software - Restricted
 Rights clause in FAR 52.227-19.
  
 Gaussian, Inc.
 340 Quinnipiac St., Bldg. 40, Wallingford CT 06492
  
  
 ---------------------------------------------------------------
 Warning -- This program may not be used in any manner that
 competes with the business of Gaussian, Inc. or will provide
 assistance to any competitor of Gaussian, Inc.  The licensee
 of this program is prohibited from giving any competitor of
 Gaussian, Inc. access to this program.  By using this program,
 the user acknowledges that Gaussian, Inc. is engaged in the
 business of creating and licensing software in the field of
 computational chemistry and represents and warrants to the
 licensee that it is not a competitor of Gaussian, Inc. and that
 it will not use this program in any manner prohibited above.
 ---------------------------------------------------------------
  

 Cite this work as:
 Gaussian 16, Revision B.01,
 M. J. Frisch, G. W. Trucks, H. B. Schlegel, G. E. Scuseria, 
 M. A. Robb, J. R. Cheeseman, G. Scalmani, V. Barone, 
 G. A. Petersson, H. Nakatsuji, X. Li, M. Caricato, A. V. Marenich, 
 J. Bloino, B. G. Janesko, R. Gomperts, B. Mennucci, H. P. Hratchian, 
 J. V. Ortiz, A. F. Izmaylov, J. L. Sonnenberg, D. Williams-Young, 
 F. Ding, F. Lipparini, F. Egidi, J. Goings, B. Peng, A. Petrone, 
 T. Henderson, D. Ranasinghe, V. G. Zakrzewski, J. Gao, N. Rega, 
 G. Zheng, W. Liang, M. Hada, M. Ehara, K. Toyota, R. Fukuda, 
 J. Hasegawa, M. Ishida, T. Nakajima, Y. Honda, O. Kitao, H. Nakai, 
 T. Vreven, K. Throssell, J. A. Montgomery, Jr., J. E. Peralta, 
 F. Ogliaro, M. J. Bearpark, J. J. Heyd, E. N. Brothers, K. N. Kudin, 
 V. N. Staroverov, T. A. Keith, R. Kobayashi, J. Normand, 
 K. Raghavachari, A. P. Rendell, J. C. Burant, S. S. Iyengar, 
 J. Tomasi, M. Cossi, J. M. Millam, M. Klene, C. Adamo, R. Cammi, 
 J. W. Ochterski, R. L. Martin, K. Morokuma, O. Farkas, 
 J. B. Foresman, and D. J. Fox, Gaussian, Inc., Wallingford CT, 2016.
 
 ******************************************
 Gaussian 16:  ES64L-G16RevB.01 20-Dec-2017
                14-Nov-2022 
 ******************************************
 %nprocshared=32
 Will use up to   32 processors via shared memory.
 %mem=120GB
 %chk=_conf002.chk
 ----------------------------------------
 #P wB97XD/6-311++G(d,p) scf=maxcycle=512
 ----------------------------------------
 1/38=1,172=1/1;
 2/12=2,17=6,18=5,40=1/2;
 3/5=4,6=6,7=1111,11=2,25=1,30=1,74=-58/1,2,3;
 4//1;
 5/5=2,7=512,38=5/2;
 6/7=2,8=2,9=2,10=2,28=1/1;
 99/5=1,9=1/99;
 Leave Link    1 at Mon Nov 14 15:01:51 2022, MaxMem= 16106127360 cpu:               2.1 elap:               0.1
 (Enter /opt/ap/G16/B01/g16/l101.exe)
 ----------------------------
 _conf002.gjf nmol_natom 1_42
 ----------------------------
 Symbolic Z-matrix:
 Charge =  0 Multiplicity = 1
 C
 C                    1     1.39413 
 C                    1     1.39435  2     118.86443 
 C                    2     1.39416  1     121.15295  3     0.03668  0
 H                    2     1.08488  1     119.42237  3    -179.97409  0
 C                    1     1.48467  2     120.55715  4     179.25839  0
 C                    3     1.39438  1     121.11776  2    -0.05351  0
 H                    3     1.08488  1     119.41869  2     177.23008  0
 C                    4     1.39432  2     118.86474  1     0.01008  0
 C                    4     1.48467  2     120.54642  1     179.19455  0
 C                    6     1.39685  1     120.78435  2    -80.      0
 C                    6     1.39687  1     120.67654  2     100.     0
 C                    7     1.4845   3     120.56497  1    -179.96326  0
 H                    9     1.08488  4     119.41825  2     177.22246  0
 C                    10    1.39685  4     120.76947  2    -42.52369  0
 C                    10    1.39686  4     120.69449  2     137.43108  0
 C                    11    1.38889  6     120.73801  1     179.94059  0
 H                    11    1.08476  6     119.46912  1    -1.41051  0
 C                    12    1.38882  6     120.76493  1    -179.95083  0
 H                    12    1.08483  6     119.44183  1    -1.23603  0
 C                    13    1.39683  7     120.74134  3     42.89023  0
 C                    13    1.39683  7     120.73791  3    -137.12494  0
 C                    15    1.38888  10    120.74219  4     179.94601  0
 H                    15    1.08476  10    119.47086  4    -1.40607  0
 C                    16    1.38886  10    120.76339  4    -179.95593  0
 H                    16    1.08483  10    119.44215  4    -1.2344   0
 C                    17    1.39008  11    120.20743  6     0.0035   0
 H                    17    1.08435  11    119.71319  6     179.50116  0
 H                    19    1.08436  12    119.73823  6     179.53684  0
 C                    21    1.38882  13    120.76699  7     179.99298  0
 H                    21    1.08479  13    119.43526  7     1.32183  0
 C                    22    1.38882  13    120.76647  7    -179.97118  0
 H                    22    1.0848   13    119.43204  7     1.34658  0
 C                    23    1.39007  15    120.20733  10    0.00574  0
 H                    23    1.08435  15    119.71221  10    179.50724  0
 H                    25    1.08436  16    119.73539  10    179.53636  0
 H                    27    1.08413  17    120.21791  11    179.98397  0
 C                    30    1.39008  21    120.18795  13   -0.02169  0
 H                    30    1.08435  21    119.73787  13   -179.52151  0
 H                    32    1.08435  22    119.73704  13   -179.52887  0
 H                    34    1.08412  23    120.22153  15    179.988  0
 H                    38    1.08411  30    120.21547  21   -179.98601  0
 
 ITRead=  0  0  0  0  0  0  0  0  0  0  0  0  0  0  0  0  0  0  0  0
 ITRead=  0  0  0  0  0  0  0  0  0  0  0  0  0  0  0  0  0  0  0  0
 ITRead=  0  0
 MicOpt= -1 -1 -1 -1 -1 -1 -1 -1 -1 -1 -1 -1 -1 -1 -1 -1 -1 -1 -1 -1
 MicOpt= -1 -1 -1 -1 -1 -1 -1 -1 -1 -1 -1 -1 -1 -1 -1 -1 -1 -1 -1 -1
 MicOpt= -1 -1
 NAtoms=     42 NQM=       42 NQMF=       0 NMMI=      0 NMMIF=      0
                NMic=       0 NMicF=      0.
                    Isotopes and Nuclear Properties:
 (Nuclear quadrupole moments (NQMom) in fm**2, nuclear magnetic moments (NMagM)
  in nuclear magnetons)

  Atom         1           2           3           4           5           6           7           8           9          10
 IAtWgt=          12          12          12          12           1          12          12           1          12          12
 AtmWgt=  12.0000000  12.0000000  12.0000000  12.0000000   1.0078250  12.0000000  12.0000000   1.0078250  12.0000000  12.0000000
 NucSpn=           0           0           0           0           1           0           0           1           0           0
 AtZEff=  -0.0000000  -0.0000000  -0.0000000  -0.0000000  -0.0000000  -0.0000000  -0.0000000  -0.0000000  -0.0000000  -0.0000000
 NQMom=    0.0000000   0.0000000   0.0000000   0.0000000   0.0000000   0.0000000   0.0000000   0.0000000   0.0000000   0.0000000
 NMagM=    0.0000000   0.0000000   0.0000000   0.0000000   2.7928460   0.0000000   0.0000000   2.7928460   0.0000000   0.0000000
 AtZNuc=   6.0000000   6.0000000   6.0000000   6.0000000   1.0000000   6.0000000   6.0000000   1.0000000   6.0000000   6.0000000

  Atom        11          12          13          14          15          16          17          18          19          20
 IAtWgt=          12          12          12           1          12          12          12           1          12           1
 AtmWgt=  12.0000000  12.0000000  12.0000000   1.0078250  12.0000000  12.0000000  12.0000000   1.0078250  12.0000000   1.0078250
 NucSpn=           0           0           0           1           0           0           0           1           0           1
 AtZEff=  -0.0000000  -0.0000000  -0.0000000  -0.0000000  -0.0000000  -0.0000000  -0.0000000  -0.0000000  -0.0000000  -0.0000000
 NQMom=    0.0000000   0.0000000   0.0000000   0.0000000   0.0000000   0.0000000   0.0000000   0.0000000   0.0000000   0.0000000
 NMagM=    0.0000000   0.0000000   0.0000000   2.7928460   0.0000000   0.0000000   0.0000000   2.7928460   0.0000000   2.7928460
 AtZNuc=   6.0000000   6.0000000   6.0000000   1.0000000   6.0000000   6.0000000   6.0000000   1.0000000   6.0000000   1.0000000

  Atom        21          22          23          24          25          26          27          28          29          30
 IAtWgt=          12          12          12           1          12           1          12           1           1          12
 AtmWgt=  12.0000000  12.0000000  12.0000000   1.0078250  12.0000000   1.0078250  12.0000000   1.0078250   1.0078250  12.0000000
 NucSpn=           0           0           0           1           0           1           0           1           1           0
 AtZEff=  -0.0000000  -0.0000000  -0.0000000  -0.0000000  -0.0000000  -0.0000000  -0.0000000  -0.0000000  -0.0000000  -0.0000000
 NQMom=    0.0000000   0.0000000   0.0000000   0.0000000   0.0000000   0.0000000   0.0000000   0.0000000   0.0000000   0.0000000
 NMagM=    0.0000000   0.0000000   0.0000000   2.7928460   0.0000000   2.7928460   0.0000000   2.7928460   2.7928460   0.0000000
 AtZNuc=   6.0000000   6.0000000   6.0000000   1.0000000   6.0000000   1.0000000   6.0000000   1.0000000   1.0000000   6.0000000

  Atom        31          32          33          34          35          36          37          38          39          40
 IAtWgt=           1          12           1          12           1           1           1          12           1           1
 AtmWgt=   1.0078250  12.0000000   1.0078250  12.0000000   1.0078250   1.0078250   1.0078250  12.0000000   1.0078250   1.0078250
 NucSpn=           1           0           1           0           1           1           1           0           1           1
 AtZEff=  -0.0000000  -0.0000000  -0.0000000  -0.0000000  -0.0000000  -0.0000000  -0.0000000  -0.0000000  -0.0000000  -0.0000000
 NQMom=    0.0000000   0.0000000   0.0000000   0.0000000   0.0000000   0.0000000   0.0000000   0.0000000   0.0000000   0.0000000
 NMagM=    2.7928460   0.0000000   2.7928460   0.0000000   2.7928460   2.7928460   2.7928460   0.0000000   2.7928460   2.7928460
 AtZNuc=   1.0000000   6.0000000   1.0000000   6.0000000   1.0000000   1.0000000   1.0000000   6.0000000   1.0000000   1.0000000

  Atom        41          42
 IAtWgt=           1           1
 AtmWgt=   1.0078250   1.0078250
 NucSpn=           1           1
 AtZEff=  -0.0000000  -0.0000000
 NQMom=    0.0000000   0.0000000
 NMagM=    2.7928460   2.7928460
 AtZNuc=   1.0000000   1.0000000
 Leave Link  101 at Mon Nov 14 15:01:52 2022, MaxMem= 16106127360 cpu:               6.0 elap:               0.2
 (Enter /opt/ap/G16/B01/g16/l202.exe)
                          Input orientation:                          
 ---------------------------------------------------------------------
 Center     Atomic      Atomic             Coordinates (Angstroms)
 Number     Number       Type             X           Y           Z
 ---------------------------------------------------------------------
      1          6           0        0.000000    0.000000    0.000000
      2          6           0        0.000000    0.000000    1.394128
      3          6           0        1.221126    0.000000   -0.673109
      4          6           0        1.193108    0.000764    2.115362
      5          1           0       -0.944957   -0.000427    1.927071
      6          6           0       -1.278366   -0.017366   -0.754803
      7          6           0        2.428476    0.001115    0.024455
      8          1           0        1.232154   -0.045667   -1.756969
      9          6           0        2.400843    0.001752    1.418572
     10          6           0        1.177445    0.018728    3.599837
     11          6           0       -1.983821   -1.208861   -0.938823
     12          6           0       -1.802024    1.158770   -1.296770
     13          6           0        3.721572    0.001921   -0.704680
     14          1           0        3.334061    0.048144    1.969857
     15          6           0        0.290794    0.844275    4.295193
     16          6           0        2.049080   -0.790881    4.331965
     17          6           0       -3.180252   -1.223793   -1.644048
     18          1           0       -1.579437   -2.134861   -0.544221
     19          6           0       -2.998214    1.144808   -2.002295
     20          1           0       -1.276627    2.095738   -1.145443
     21          6           0        3.910862    0.818865   -1.821777
     22          6           0        4.776237   -0.814044   -0.288725
     23          6           0        0.275860    0.859807    5.683909
     24          1           0       -0.377402    1.495584    3.742000
     25          6           0        2.035025   -0.775886    5.720674
     26          1           0        2.729408   -1.453102    3.807101
     27          6           0       -3.692202   -0.046807   -2.177838
     28          1           0       -3.710064   -2.159505   -1.783901
     29          1           0       -3.393340    2.068879   -2.409484
     30          6           0        5.120444    0.820149   -2.504230
     31          1           0        3.109266    1.474569   -2.144691
     32          6           0        5.986440   -0.813321   -0.970068
     33          1           0        4.638168   -1.470412    0.563864
     34          6           0        1.147946    0.049642    6.401818
     35          1           0       -0.413890    1.513063    6.206701
     36          1           0        2.713797   -1.416787    6.272362
     37          1           0       -4.625954   -0.058310   -2.728568
     38          6           0        6.162883    0.003944   -2.080611
     39          1           0        5.251831    1.466740   -3.364741
     40          1           0        6.791448   -1.459089   -0.637249
     41          1           0        1.136620    0.061726    7.485815
     42          1           0        7.107346    0.004761   -2.612865
 ---------------------------------------------------------------------
                    Distance matrix (angstroms):
                    1          2          3          4          5
     1  C    0.000000
     2  C    1.394128   0.000000
     3  C    1.394354   2.400962   0.000000
     4  C    2.428634   1.394161   2.788612   0.000000
     5  H    2.146287   1.084884   3.384206   2.146341   0.000000
     6  C    1.484671   2.500485   2.500887   3.787659   2.702572
     7  C    2.428599   2.788100   1.394378   2.428585   3.872983
     8  H    2.146445   3.383741   1.084878   3.872806   4.279487
     9  C    2.788619   2.400968   2.401430   1.394324   3.384222
    10  C    3.787552   2.500376   4.273210   1.484666   2.702426
    11  C    2.505649   3.292347   3.435642   4.569914   3.279160
    12  C    2.504326   3.439618   3.297141   4.685556   3.531493
    13  C    3.787700   4.272598   2.500646   3.787581   5.357482
    14  H    3.872805   3.383747   3.384092   2.146415   4.279508
    15  C    4.387032   3.035381   5.124680   2.505463   2.801537
    16  C    4.856969   3.668120   5.134371   2.504540   3.920790
    17  C    3.783460   4.565325   4.670388   5.895675   4.387033
    18  H    2.710799   3.287773   3.523833   4.395598   3.326508
    19  C    3.782732   4.672854   4.569481   5.985910   4.579011
    20  H    2.708124   3.531476   3.294539   4.595798   3.734201
    21  C    4.391384   5.129076   3.037212   4.853507   6.189029
    22  C    4.853707   5.129045   3.667320   4.391169   6.189006
    23  C    5.755188   4.383786   6.484171   3.783362   4.042800
    24  H    4.047440   2.809218   4.928007   2.710524   2.419532
    25  C    6.121229   4.843792   6.491910   3.782894   4.886007
    26  H    4.904609   3.922195   4.945574   2.708491   4.375585
    27  C    4.286902   5.137460   5.138793   6.503851   4.939613
    28  H    4.648692   5.341152   5.496722   6.626621   5.106735
    29  H    4.647647   5.501134   5.346826   6.766596   5.392801
    30  C    5.758711   6.487587   4.385239   6.118495   7.556379
    31  H    4.054822   4.936104   2.811579   4.898143   5.932249
    32  C    6.118822   6.487555   4.843334   5.758354   7.556353
    33  H    4.898230   4.935996   3.920254   4.054620   5.932156
    34  C    6.504116   5.137821   7.075480   4.286973   4.940255
    35  H    6.401859   5.061770   7.231488   4.648499   4.570330
    36  H    6.979577   5.759266   7.243957   4.647859   5.854410
    37  H    5.371027   6.196730   6.198117   7.571566   5.935322
    38  C    6.504621   7.074953   5.138292   6.504219   8.159837
    39  H    6.407382   7.237395   5.063871   6.975231   8.279857
    40  H    6.975586   7.237348   5.758361   6.406985   8.279819
    41  H    7.571865   6.197125   8.159595   5.371096   5.936031
    42  H    7.572414   8.159067   6.197601   7.571945   9.243951
                    6          7          8          9         10
     6  C    0.000000
     7  C    3.787910   0.000000
     8  H    2.703303   2.146356   0.000000
     9  C    4.273231   1.394392   3.384102   0.000000
    10  C    4.999520   3.787973   5.357472   2.500981   0.000000
    11  C    1.396850   4.675501   3.516373   5.123297   5.665687
    12  C    1.396868   4.580712   3.296769   5.135744   5.844115
    13  C    5.000226   1.484499   2.703105   2.500505   5.000173
    14  H    5.357476   2.146366   4.279725   1.084879   2.703459
    15  C    5.357906   4.849723   6.189251   3.665665   1.396854
    16  C    6.127433   4.396117   6.188524   3.039714   1.396863
    17  C    2.421445   5.978472   4.568376   6.483073   6.930492
    18  H    2.149133   4.577024   3.706823   4.925475   5.423243
    19  C    2.421728   5.904635   4.401526   6.492976   7.077293
    20  H    2.148909   4.414056   3.354632   4.948004   5.731852
    21  C    5.363376   2.504946   2.815510   3.667109   6.124188
    22  C    6.124553   2.504906   3.912375   3.036921   5.363369
    23  C    6.681472   6.115597   7.556523   4.841994   2.421492
    24  H    4.829285   4.891475   5.933362   3.917716   2.149154
    25  C    7.313393   5.762417   7.555989   4.387097   2.421736
    26  H    6.239756   4.063707   5.931401   2.815959   2.148914
    27  C    2.802231   6.505005   4.942308   7.075431   7.556407
    28  H    3.400141   6.754265   5.375365   7.229803   7.590592
    29  H    3.400515   6.640274   5.127599   7.245659   7.823498
    30  C    6.686306   3.783088   4.053003   4.842972   7.310892
    31  H    4.838282   2.709194   2.446425   3.920191   6.233057
    32  C    7.311449   3.783053   4.879728   4.384797   6.686012
    33  H    6.233426   2.709077   4.360860   2.811302   4.838519
    34  C    7.557031   6.504835   8.159779   5.138559   2.802307
    35  H    7.179977   6.970308   8.280044   5.756123   3.400165
    36  H    8.202243   6.413127   8.279214   5.066504   3.400510
    37  H    3.886356   7.572822   5.938147   8.159549   8.586855
    38  C    7.558466   4.286853   4.941589   5.137824   7.557929
    39  H    7.187337   4.648230   4.585860   5.757987   8.197725
    40  H    8.198432   4.648180   5.844424   5.063385   7.187062
    41  H    8.587561   7.572613   9.243902   6.197846   3.886431
    42  H    8.589123   5.370968   5.937422   6.197069   8.588456
                   11         12         13         14         15
    11  C    0.000000
    12  C    2.401427   0.000000
    13  C    5.837150   5.674414   0.000000
    14  H    6.190343   6.187383   2.702860   0.000000
    15  C    6.064995   5.979033   6.121971   3.911840   0.000000
    16  C    6.649827   7.093292   5.365963   2.816859   2.401387
    17  C    1.388889   2.774296   7.072479   7.557408   7.183290
    18  H    1.084764   3.385835   5.717717   5.935366   5.982721
    19  C    2.774838   1.388824   6.938697   7.555023   7.110995
    20  H    3.385733   1.084828   5.436941   5.929265   5.798577
    21  C    6.295917   5.747020   1.396829   3.911930   7.107943
    22  C    6.802713   6.941302   1.396832   2.815037   6.624314
    23  C    7.296994   7.289503   7.309101   4.879095   1.388883
    24  H    5.639566   5.247113   6.229413   4.360107   1.084763
    25  C    7.790218   8.228630   6.688393   4.054029   2.774755
    26  H    6.693129   7.307889   4.843310   2.448430   3.385708
    27  C    2.409169   2.408832   7.558876   8.159704   7.652347
    28  H    2.144247   3.858608   7.814454   8.281552   7.873052
    29  H    3.859166   2.144462   7.602673   8.277675   7.747592
    30  C    7.552348   7.035139   2.421718   4.878996   8.340159
    31  H    5.881704   4.993943   2.148776   4.360587   7.057844
    32  C    7.980131   8.040898   2.421709   4.052208   7.931644
    33  H    6.795382   7.200738   2.148749   2.446125   6.179018
    34  C    8.079406   8.318698   7.558317   4.941800   2.409154
    35  H    7.805899   7.639012   8.194680   5.843284   2.144229
    36  H    8.608834   9.182477   7.190790   4.587189   3.859086
    37  H    3.392317   3.392036   8.589583   9.243828   8.621037
    38  C    8.315249   8.086271   2.802355   4.940696   8.708529
    39  H    8.086939   7.357189   3.400487   5.843645   9.147346
    40  H    8.784015   9.007548   3.400476   4.585006   8.478973
    41  H    9.073371   9.325927   8.588933   5.937569   3.392325
    42  H    9.323337   9.079687   3.886469   5.936405   9.741223
                   16         17         18         19         20
    16  C    0.000000
    17  C    7.952739   0.000000
    18  H    6.224919   2.145291   0.000000
    19  C    8.327360   2.402446   3.859422   0.000000
    20  H    7.028151   3.858974   4.283822   2.145303   0.000000
    21  C    6.627673   7.381595   6.363964   6.919116   5.384968
    22  C    5.365510   8.081493   6.496494   8.198508   6.770374
    23  C    2.774316   8.365707   7.155401   8.359337   7.111807
    24  H    3.385823   6.652856   5.744276   6.323656   5.005586
    25  C    1.388861   9.035423   7.359352   9.416306   8.145971
    26  H    1.084834   8.043115   6.161570   8.561769   7.291795
    27  C    8.711688   1.390079   3.390052   1.390101   3.389888
    28  H    8.511445   1.084351   2.465154   3.387168   4.943312
    29  H    9.123886   3.387180   4.943772   1.084359   2.465561
    30  C    7.665654   8.591808   7.580378   8.140636   6.663028
    31  H    6.942862   6.862203   6.129716   6.118033   4.540970
    32  C    6.604154   9.200597   7.692224   9.253311   7.825952
    33  H    4.622091   8.127939   6.350430   8.469882   7.115052
    34  C    2.408903   9.224473   7.775483   9.434996   8.186955
    35  H    3.858628   8.762271   7.761494   8.614056   7.425486
    36  H    2.144469   9.871505   8.087848  10.375875   9.126070
    37  H    9.743914   2.150485   4.285405   2.150465   4.285346
    38  C    7.660043   9.433563   8.177928   9.232195   7.784373
    39  H    8.636768   9.016639   8.221502   8.367984   6.923994
    40  H    6.901424  10.025159   8.398634  10.221601   8.831132
    41  H    3.392092  10.180488   8.756908  10.406448   9.190190
    42  H    8.628428  10.405894   9.182454  10.187976   8.764503
                   21         22         23         24         25
    21  C    0.000000
    22  C    2.401148   0.000000
    23  C    8.339678   7.663388   0.000000
    24  H    7.057108   6.938381   2.145221   0.000000
    25  C    7.934139   6.605193   2.402396   3.859344   0.000000
    26  H    6.184005   4.623169   3.858996   4.283837   2.145356
    27  C    7.660467   8.710446   8.852939   6.957826   9.783618
    28  H    8.182337   8.721418   8.987326   7.416326   9.551916
    29  H    7.433660   8.919129   8.968159   6.874976  10.181321
    30  C    1.388824   2.774442   9.514051   8.348527   8.928391
    31  H    1.084794   3.385432   8.348239   6.841814   8.251212
    32  C    2.774430   1.388819   8.926672   8.248218   7.770528
    33  H    3.385417   1.084800   7.118603   6.637291   5.818196
    34  C    8.709358   7.659884   1.390070   3.389995   1.390095
    35  H    9.145591   8.633852   1.084348   2.465033   3.387137
    36  H    8.482109   6.903971   3.387136   4.943698   1.084363
    37  H    8.629538   9.742955   9.779595   7.895126  10.783007
    38  C    2.408878   2.408889   9.781478   8.882743   8.860440
    39  H    2.144453   3.858761  10.344405   9.066139   9.895553
    40  H    3.858751   2.144441   9.369482   8.905073   7.969536
    41  H    9.741711   8.628862   2.150513   4.285366   2.150453
    42  H    3.392063   3.392069  10.781315   9.931179   9.787018
                   26         27         28         29         30
    26  H    0.000000
    27  C    8.890120   0.000000
    28  H    8.557167   2.149185   0.000000
    29  H    9.409480   2.149210   4.286129   0.000000
    30  C    7.121630   8.861200   9.347463   8.605394   0.000000
    31  H    6.643746   6.969623   7.735626   6.535074   2.145313
    32  C    5.817122   9.783780   9.823274   9.917623   2.402462
    33  H    3.763276   8.884743   8.699416   9.266742   3.859075
    34  C    3.389959   9.851235   9.771724  10.116305   9.782234
    35  H    4.943333   9.136794   9.391605   9.133711  10.343562
    36  H    2.465578  10.692032  10.330585  11.172351   9.371467
    37  H    9.937895   1.084125   2.479166   2.479130   9.788477
    38  C    6.969712   9.855696  10.111559   9.782306   1.390081
    39  H    8.143918   9.148513   9.796135   8.718605   1.084353
    40  H    6.021000  10.689943  10.587122  10.923245   3.387152
    41  H    4.285396  10.803494  10.693542  11.066441  10.781792
    42  H    7.906179  10.808429  11.062892  10.703567   2.150451
                   31         32         33         34         35
    31  H    0.000000
    32  C    3.859055   0.000000
    33  H    4.283308   2.145356   0.000000
    34  C    8.883693   8.860047   6.969499   0.000000
    35  H    9.064207   9.893547   8.140394   2.149187   0.000000
    36  H    8.908597   7.970392   6.024369   2.149200   4.286112
    37  H    7.907228  10.783564   9.932678  10.803403  10.002485
    38  C    3.389900   1.390094   3.389946   9.854100  10.686951
    39  H    2.465597   3.387150   4.943418  10.688111  11.122726
    40  H    4.943399   1.084354   2.465647   9.147341  10.372571
    41  H    9.931470   9.787155   7.907066   1.084123   2.479233
    42  H    4.285343   2.150458   4.285392  10.806525  11.688828
                   36         37         38         39         40
    36  H    0.000000
    37  H   11.693337   0.000000
    38  C    9.148051  10.808456   0.000000
    39  H   10.374492  10.015045   2.149134   0.000000
    40  H    8.023201  11.691572   2.149152   4.286037   0.000000
    41  H    2.479104  11.728396  10.806626  11.689465  10.013697
    42  H   10.013557  11.734039   1.084114   2.479039   2.479054
                   41         42
    41  H    0.000000
    42  H   11.731844   0.000000
 Stoichiometry    C24H18
 Framework group  C1[X(C24H18)]
 Deg. of freedom   120
 Full point group                 C1      NOp   1
 Largest Abelian subgroup         C1      NOp   1
 Largest concise Abelian subgroup C1      NOp   1
                         Standard orientation:                         
 ---------------------------------------------------------------------
 Center     Atomic      Atomic             Coordinates (Angstroms)
 Number     Number       Type             X           Y           Z
 ---------------------------------------------------------------------
      1          6           0       -1.401364   -0.006266    0.042964
      2          6           0       -0.697501    1.196886    0.018571
      3          6           0       -0.687756   -1.204046    0.025354
      4          6           0        0.695885    1.216595   -0.023524
      5          1           0       -1.243617    2.134190    0.032414
      6          6           0       -2.884758   -0.011826    0.104293
      7          6           0        0.705955   -1.211961   -0.017020
      8          1           0       -1.224107   -2.144869    0.089699
      9          6           0        1.385956    0.005140   -0.041385
     10          6           0        1.431318    2.505577   -0.067077
     11          6           0       -3.550973    0.189246    1.315456
     12          6           0       -3.644958   -0.218477   -1.049238
     13          6           0        1.453340   -2.494452   -0.036187
     14          1           0        2.467985    0.009334   -0.119860
     15          6           0        0.993046    3.551160   -0.883088
     16          6           0        2.576868    2.699473    0.708388
     17          6           0       -4.938724    0.185074    1.371513
     18          1           0       -2.975476    0.328236    2.224411
     19          6           0       -5.032682   -0.223033   -0.994152
     20          1           0       -3.143047   -0.356054   -2.001083
     21          6           0        1.028454   -3.556551   -0.837779
     22          6           0        2.597348   -2.665862    0.746758
     23          6           0        1.680834    4.757139   -0.922551
     24          1           0        0.118026    3.409382   -1.508349
     25          6           0        3.265427    3.905004    0.669440
     26          1           0        2.918391    1.904774    1.363126
     27          6           0       -5.684720   -0.020437    0.216708
     28          1           0       -5.438688    0.334779    2.322008
     29          1           0       -5.606489   -0.377557   -1.901180
     30          6           0        1.727347   -4.756567   -0.856231
     31          1           0        0.154485   -3.432218   -1.468252
     32          6           0        3.297353   -3.865231    0.728832
     33          1           0        2.928124   -1.858384    1.391241
     34          6           0        2.819610    4.938537   -0.146292
     35          1           0        1.330402    5.554834   -1.568066
     36          1           0        4.148501    4.040109    1.284069
     37          1           0       -6.767962   -0.023986    0.260313
     38          6           0        2.864684   -4.915187   -0.072886
     39          1           0        1.387097   -5.567478   -1.490641
     40          1           0        4.178973   -3.982770    1.349120
     41          1           0        3.356766    5.879728   -0.177065
     42          1           0        3.410709   -5.851647   -0.087118
 ---------------------------------------------------------------------
 Rotational constants (GHZ):           0.1977356           0.1942011           0.1046949
 Leave Link  202 at Mon Nov 14 15:01:52 2022, MaxMem= 16106127360 cpu:               2.2 elap:               0.1
 (Enter /opt/ap/G16/B01/g16/l301.exe)
 Standard basis: 6-311++G(d,p) (5D, 7F)
 Ernie: Thresh=  0.10000D-02 Tol=  0.10000D-05 Strict=F.
 There are   678 symmetry adapted cartesian basis functions of A   symmetry.
 There are   654 symmetry adapted basis functions of A   symmetry.
   654 basis functions,  1026 primitive gaussians,   678 cartesian basis functions
    81 alpha electrons       81 beta electrons
       nuclear repulsion energy      1730.6054439921 Hartrees.
 IExCor= 4639 DFT=T Ex+Corr=wB97XD ExCW=0 ScaHFX=  1.000000
 ScaDFX=  1.000000  1.000000  1.000000  1.000000 ScalE2=  1.000000  1.000000
 IRadAn=      5 IRanWt=     -1 IRanGd=            0 ICorTp=0 IEmpDi=121
 HFx  wShort=  0.000000 wLong=  0.200000 cFull=  0.222036 cShort=  0.000000 cLong=  0.777964
 DFx  wShort=  0.000000 wLong=  0.200000 cFull=  0.000000 cShort=  0.000000 cLong=  1.000000
 NAtoms=   42 NActive=   42 NUniq=   42 SFac= 1.00D+00 NAtFMM=   60 NAOKFM=F Big=F
 Integral buffers will be    131072 words long.
 Raffenetti 2 integral format.
 Two-electron integral symmetry is turned on.
 R6Disp:  Grimme-D2 Dispersion energy=       -0.0286852540 Hartrees.
 Nuclear repulsion after empirical dispersion term =     1730.5767587381 Hartrees.
 Leave Link  301 at Mon Nov 14 15:01:52 2022, MaxMem= 16106127360 cpu:               1.4 elap:               0.1
 (Enter /opt/ap/G16/B01/g16/l302.exe)
 NPDir=0 NMtPBC=     1 NCelOv=     1 NCel=       1 NClECP=     1 NCelD=      1
         NCelK=      1 NCelE2=     1 NClLst=     1 CellRange=     0.0.
 One-electron integrals computed using PRISM.
 One-electron integral symmetry used in STVInt
 NBasis=   654 RedAO= T EigKep=  1.08D-06  NBF=   654
 NBsUse=   646 1.00D-06 EigRej=  7.40D-07 NBFU=   646
 Precomputing XC quadrature grid using
 IXCGrd= 4 IRadAn=           5 IRanWt=          -1 IRanGd=           0 AccXCQ= 0.00D+00.
 Generated NRdTot=       0 NPtTot=           0 NUsed=           0 NTot=          32
 NSgBfM=   669   669   669   669   669 MxSgAt=    42 MxSgA2=    42.
 Leave Link  302 at Mon Nov 14 15:01:53 2022, MaxMem= 16106127360 cpu:              23.0 elap:               0.7
 (Enter /opt/ap/G16/B01/g16/l303.exe)
 DipDrv:  MaxL=1.
 Leave Link  303 at Mon Nov 14 15:01:53 2022, MaxMem= 16106127360 cpu:               3.0 elap:               0.1
 (Enter /opt/ap/G16/B01/g16/l401.exe)
 ExpMin= 3.60D-02 ExpMax= 4.56D+03 ExpMxC= 6.82D+02 IAcc=3 IRadAn=         5 AccDes= 0.00D+00
 Harris functional with IExCor= 4639 and IRadAn=       5 diagonalized for initial guess.
 HarFok:  IExCor= 4639 AccDes= 0.00D+00 IRadAn=         5 IDoV= 1 UseB2=F ITyADJ=14
 ICtDFT=  3500011 ScaDFX=  1.000000  1.000000  1.000000  1.000000
 FoFCou: FMM=F IPFlag=           0 FMFlag=      100000 FMFlg1=           0
         NFxFlg=           0 DoJE=T BraDBF=F KetDBF=T FulRan=T
         wScrn=  0.000000 ICntrl=       500 IOpCl=  0 I1Cent=   200000004 NGrid=           0
         NMat0=    1 NMatS0=      1 NMatT0=    0 NMatD0=    1 NMtDS0=    0 NMtDT0=    0
 Petite list used in FoFCou.
 Harris En= -882.967939572516    
 JPrj=0 DoOrth=F DoCkMO=F.
 Leave Link  401 at Mon Nov 14 15:01:55 2022, MaxMem= 16106127360 cpu:              55.7 elap:               1.8
 (Enter /opt/ap/G16/B01/g16/l502.exe)
 Integral symmetry usage will be decided dynamically.
 Closed shell SCF:
 Using DIIS extrapolation, IDIIS=  1040.
 NGot= 16106127360 LenX= 16105179956 LenY= 16104719594
 Requested convergence on RMS density matrix=1.00D-08 within 512 cycles.
 Requested convergence on MAX density matrix=1.00D-06.
 Requested convergence on             energy=1.00D-06.
 No special actions if energy rises.
 Fock matrices will be formed incrementally for  20 cycles.

 Cycle   1  Pass 1  IDiag  1:
 FoFJK:  IHMeth= 1 ICntrl=       0 DoSepK=T KAlg= 0 I1Cent=           0 FoldK=F
 IRaf=         1 NMat=       1 IRICut=       1 DoRegI=T DoRafI=F ISym2E= 0 IDoP0=0 IntGTp=1.
 FoFCou: FMM=F IPFlag=           0 FMFlag=      100000 FMFlg1=           0
         NFxFlg=           0 DoJE=T BraDBF=F KetDBF=F FulRan=T
         wScrn=  0.000000 ICntrl=       500 IOpCl=  0 I1Cent=           0 NGrid=           0
         NMat0=    1 NMatS0=      1 NMatT0=    0 NMatD0=    1 NMtDS0=    0 NMtDT0=    0
 Symmetry not used in FoFCou.
 E= -925.114422276955    
 DIIS: error= 4.70D-02 at cycle   1 NSaved=   1.
 NSaved= 1 IEnMin= 1 EnMin= -925.114422276955     IErMin= 1 ErrMin= 4.70D-02
 ErrMax= 4.70D-02  0.00D+00 EMaxC= 1.00D-01 BMatC= 1.90D+00 BMatP= 1.90D+00
 IDIUse=3 WtCom= 5.30D-01 WtEn= 4.70D-01
 Coeff-Com:  0.100D+01
 Coeff-En:   0.100D+01
 Coeff:      0.100D+01
 Gap=     0.317 Goal=   None    Shift=    0.000
 GapD=    0.317 DampG=1.000 DampE=0.500 DampFc=0.5000 IDamp=-1.
 Damping current iteration by 5.00D-01
 RMSDP=4.32D-02 MaxDP=4.29D+00              OVMax= 4.33D-02

 Cycle   2  Pass 1  IDiag  1:
 RMSU=  6.98D-03    CP:  8.20D-01
 E= -925.212807516516     Delta-E=       -0.098385239561 Rises=F Damp=T
 DIIS: error= 2.29D-02 at cycle   2 NSaved=   2.
 NSaved= 2 IEnMin= 2 EnMin= -925.212807516516     IErMin= 2 ErrMin= 2.29D-02
 ErrMax= 2.29D-02  0.00D+00 EMaxC= 1.00D-01 BMatC= 4.32D-01 BMatP= 1.90D+00
 IDIUse=3 WtCom= 7.71D-01 WtEn= 2.29D-01
 Coeff-Com: -0.883D+00 0.188D+01
 Coeff-En:   0.000D+00 0.100D+01
 Coeff:     -0.680D+00 0.168D+01
 Gap=     0.325 Goal=   None    Shift=    0.000
 RMSDP=2.50D-02 MaxDP=2.16D+00 DE=-9.84D-02 OVMax= 3.44D-02

 Cycle   3  Pass 1  IDiag  1:
 RMSU=  4.07D-03    CP:  6.04D-01  1.43D+00
 E= -925.300940281848     Delta-E=       -0.088132765331 Rises=F Damp=F
 DIIS: error= 3.18D-03 at cycle   3 NSaved=   3.
 NSaved= 3 IEnMin= 3 EnMin= -925.300940281848     IErMin= 3 ErrMin= 3.18D-03
 ErrMax= 3.18D-03  0.00D+00 EMaxC= 1.00D-01 BMatC= 8.75D-03 BMatP= 4.32D-01
 IDIUse=3 WtCom= 9.68D-01 WtEn= 3.18D-02
 Coeff-Com: -0.370D+00 0.785D+00 0.585D+00
 Coeff-En:   0.000D+00 0.000D+00 0.100D+01
 Coeff:     -0.358D+00 0.760D+00 0.598D+00
 Gap=     0.323 Goal=   None    Shift=    0.000
 RMSDP=2.14D-03 MaxDP=1.84D-01 DE=-8.81D-02 OVMax= 2.00D-02

 Cycle   4  Pass 1  IDiag  1:
 RMSU=  1.45D-03    CP:  6.00D-01  1.56D+00  7.11D-01
 E= -925.308958278364     Delta-E=       -0.008017996517 Rises=F Damp=F
 DIIS: error= 8.38D-04 at cycle   4 NSaved=   4.
 NSaved= 4 IEnMin= 4 EnMin= -925.308958278364     IErMin= 4 ErrMin= 8.38D-04
 ErrMax= 8.38D-04  0.00D+00 EMaxC= 1.00D-01 BMatC= 2.76D-04 BMatP= 8.75D-03
 IDIUse=3 WtCom= 9.92D-01 WtEn= 8.38D-03
 Coeff-Com: -0.113D+00 0.241D+00 0.236D+00 0.636D+00
 Coeff-En:   0.000D+00 0.000D+00 0.000D+00 0.100D+01
 Coeff:     -0.112D+00 0.239D+00 0.234D+00 0.639D+00
 Gap=     0.322 Goal=   None    Shift=    0.000
 RMSDP=6.48D-04 MaxDP=5.64D-02 DE=-8.02D-03 OVMax= 4.39D-03

 Cycle   5  Pass 1  IDiag  1:
 RMSU=  2.97D-04    CP:  5.97D-01  1.61D+00  7.57D-01  8.18D-01
 E= -925.309245427775     Delta-E=       -0.000287149411 Rises=F Damp=F
 DIIS: error= 2.10D-04 at cycle   5 NSaved=   5.
 NSaved= 5 IEnMin= 5 EnMin= -925.309245427775     IErMin= 5 ErrMin= 2.10D-04
 ErrMax= 2.10D-04  0.00D+00 EMaxC= 1.00D-01 BMatC= 2.02D-05 BMatP= 2.76D-04
 IDIUse=3 WtCom= 9.98D-01 WtEn= 2.10D-03
 Coeff-Com:  0.257D-01-0.547D-01-0.242D-01 0.196D+00 0.857D+00
 Coeff-En:   0.000D+00 0.000D+00 0.000D+00 0.000D+00 0.100D+01
 Coeff:      0.256D-01-0.546D-01-0.242D-01 0.196D+00 0.857D+00
 Gap=     0.322 Goal=   None    Shift=    0.000
 RMSDP=1.87D-04 MaxDP=1.15D-02 DE=-2.87D-04 OVMax= 1.42D-03

 Cycle   6  Pass 1  IDiag  1:
 RMSU=  8.86D-05    CP:  5.96D-01  1.60D+00  7.82D-01  8.78D-01  1.28D+00
 E= -925.309270820874     Delta-E=       -0.000025393099 Rises=F Damp=F
 DIIS: error= 6.29D-05 at cycle   6 NSaved=   6.
 NSaved= 6 IEnMin= 6 EnMin= -925.309270820874     IErMin= 6 ErrMin= 6.29D-05
 ErrMax= 6.29D-05  0.00D+00 EMaxC= 1.00D-01 BMatC= 1.51D-06 BMatP= 2.02D-05
 IDIUse=1 WtCom= 1.00D+00 WtEn= 0.00D+00
 Coeff-Com:  0.135D-01-0.287D-01-0.164D-01 0.546D-01 0.337D+00 0.640D+00
 Coeff:      0.135D-01-0.287D-01-0.164D-01 0.546D-01 0.337D+00 0.640D+00
 Gap=     0.322 Goal=   None    Shift=    0.000
 RMSDP=8.30D-05 MaxDP=7.85D-03 DE=-2.54D-05 OVMax= 4.31D-04

 Cycle   7  Pass 1  IDiag  1:
 RMSU=  4.79D-05    CP:  5.97D-01  1.60D+00  7.88D-01  9.10D-01  1.31D+00
                    CP:  7.63D-01
 E= -925.309272620283     Delta-E=       -0.000001799409 Rises=F Damp=F
 DIIS: error= 1.42D-05 at cycle   7 NSaved=   7.
 NSaved= 7 IEnMin= 7 EnMin= -925.309272620283     IErMin= 7 ErrMin= 1.42D-05
 ErrMax= 1.42D-05  0.00D+00 EMaxC= 1.00D-01 BMatC= 1.08D-07 BMatP= 1.51D-06
 IDIUse=1 WtCom= 1.00D+00 WtEn= 0.00D+00
 Coeff-Com: -0.192D-02 0.412D-02 0.168D-02-0.259D-01-0.887D-01 0.106D+00
 Coeff-Com:  0.100D+01
 Coeff:     -0.192D-02 0.412D-02 0.168D-02-0.259D-01-0.887D-01 0.106D+00
 Coeff:      0.100D+01
 Gap=     0.322 Goal=   None    Shift=    0.000
 RMSDP=3.02D-05 MaxDP=1.90D-03 DE=-1.80D-06 OVMax= 2.54D-04

 Cycle   8  Pass 1  IDiag  1:
 RMSU=  9.21D-06    CP:  5.97D-01  1.60D+00  7.92D-01  9.10D-01  1.36D+00
                    CP:  8.63D-01  1.23D+00
 E= -925.309272845889     Delta-E=       -0.000000225606 Rises=F Damp=F
 DIIS: error= 9.09D-06 at cycle   8 NSaved=   8.
 NSaved= 8 IEnMin= 8 EnMin= -925.309272845889     IErMin= 8 ErrMin= 9.09D-06
 ErrMax= 9.09D-06  0.00D+00 EMaxC= 1.00D-01 BMatC= 2.06D-08 BMatP= 1.08D-07
 IDIUse=1 WtCom= 1.00D+00 WtEn= 0.00D+00
 Coeff-Com: -0.163D-02 0.349D-02 0.172D-02-0.164D-01-0.612D-01 0.290D-01
 Coeff-Com:  0.494D+00 0.551D+00
 Coeff:     -0.163D-02 0.349D-02 0.172D-02-0.164D-01-0.612D-01 0.290D-01
 Coeff:      0.494D+00 0.551D+00
 Gap=     0.322 Goal=   None    Shift=    0.000
 RMSDP=4.41D-06 MaxDP=2.69D-04 DE=-2.26D-07 OVMax= 7.14D-05

 Cycle   9  Pass 1  IDiag  1:
 RMSU=  2.77D-06    CP:  5.97D-01  1.60D+00  7.92D-01  9.10D-01  1.37D+00
                    CP:  8.67D-01  1.25D+00  9.58D-01
 E= -925.309272871629     Delta-E=       -0.000000025740 Rises=F Damp=F
 DIIS: error= 2.74D-06 at cycle   9 NSaved=   9.
 NSaved= 9 IEnMin= 9 EnMin= -925.309272871629     IErMin= 9 ErrMin= 2.74D-06
 ErrMax= 2.74D-06  0.00D+00 EMaxC= 1.00D-01 BMatC= 1.95D-09 BMatP= 2.06D-08
 IDIUse=1 WtCom= 1.00D+00 WtEn= 0.00D+00
 Coeff-Com:  0.120D-03-0.261D-03 0.716D-04 0.298D-02 0.108D-01-0.168D-01
 Coeff-Com: -0.184D+00 0.987D-01 0.109D+01
 Coeff:      0.120D-03-0.261D-03 0.716D-04 0.298D-02 0.108D-01-0.168D-01
 Coeff:     -0.184D+00 0.987D-01 0.109D+01
 Gap=     0.322 Goal=   None    Shift=    0.000
 RMSDP=3.19D-06 MaxDP=2.04D-04 DE=-2.57D-08 OVMax= 4.78D-05

 Cycle  10  Pass 1  IDiag  1:
 RMSU=  7.73D-07    CP:  5.97D-01  1.60D+00  7.92D-01  9.10D-01  1.37D+00
                    CP:  8.71D-01  1.29D+00  1.19D+00  1.20D+00
 E= -925.309272877251     Delta-E=       -0.000000005622 Rises=F Damp=F
 DIIS: error= 8.29D-07 at cycle  10 NSaved=  10.
 NSaved=10 IEnMin=10 EnMin= -925.309272877251     IErMin=10 ErrMin= 8.29D-07
 ErrMax= 8.29D-07  0.00D+00 EMaxC= 1.00D-01 BMatC= 1.96D-10 BMatP= 1.95D-09
 IDIUse=1 WtCom= 1.00D+00 WtEn= 0.00D+00
 Coeff-Com:  0.140D-03-0.301D-03-0.676D-04 0.195D-02 0.705D-02-0.533D-02
 Coeff-Com: -0.866D-01-0.176D-01 0.350D+00 0.751D+00
 Coeff:      0.140D-03-0.301D-03-0.676D-04 0.195D-02 0.705D-02-0.533D-02
 Coeff:     -0.866D-01-0.176D-01 0.350D+00 0.751D+00
 Gap=     0.322 Goal=   None    Shift=    0.000
 RMSDP=5.52D-07 MaxDP=4.32D-05 DE=-5.62D-09 OVMax= 1.03D-05

 Cycle  11  Pass 1  IDiag  1:
 RMSU=  1.65D-07    CP:  5.97D-01  1.60D+00  7.92D-01  9.10D-01  1.37D+00
                    CP:  8.70D-01  1.29D+00  1.20D+00  1.28D+00  1.17D+00
 E= -925.309272877653     Delta-E=       -0.000000000402 Rises=F Damp=F
 DIIS: error= 2.22D-07 at cycle  11 NSaved=  11.
 NSaved=11 IEnMin=11 EnMin= -925.309272877653     IErMin=11 ErrMin= 2.22D-07
 ErrMax= 2.22D-07  0.00D+00 EMaxC= 1.00D-01 BMatC= 3.38D-11 BMatP= 1.96D-10
 IDIUse=1 WtCom= 1.00D+00 WtEn= 0.00D+00
 Coeff-Com:  0.218D-04-0.461D-04-0.207D-04 0.112D-03 0.214D-03 0.131D-02
 Coeff-Com:  0.271D-02-0.272D-01-0.687D-01 0.241D+00 0.851D+00
 Coeff:      0.218D-04-0.461D-04-0.207D-04 0.112D-03 0.214D-03 0.131D-02
 Coeff:      0.271D-02-0.272D-01-0.687D-01 0.241D+00 0.851D+00
 Gap=     0.322 Goal=   None    Shift=    0.000
 RMSDP=3.77D-07 MaxDP=3.41D-05 DE=-4.02D-10 OVMax= 3.43D-06

 Cycle  12  Pass 1  IDiag  1:
 RMSU=  7.02D-08    CP:  5.97D-01  1.60D+00  7.92D-01  9.10D-01  1.37D+00
                    CP:  8.70D-01  1.29D+00  1.21D+00  1.31D+00  1.34D+00
                    CP:  1.25D+00
 E= -925.309272877676     Delta-E=       -0.000000000024 Rises=F Damp=F
 DIIS: error= 7.56D-08 at cycle  12 NSaved=  12.
 NSaved=12 IEnMin=12 EnMin= -925.309272877676     IErMin=12 ErrMin= 7.56D-08
 ErrMax= 7.56D-08  0.00D+00 EMaxC= 1.00D-01 BMatC= 1.41D-12 BMatP= 3.38D-11
 IDIUse=1 WtCom= 1.00D+00 WtEn= 0.00D+00
 Coeff-Com: -0.146D-04 0.316D-04 0.106D-04-0.227D-03-0.835D-03 0.822D-03
 Coeff-Com:  0.101D-01-0.779D-04-0.386D-01-0.608D-01-0.495D-01 0.114D+01
 Coeff:     -0.146D-04 0.316D-04 0.106D-04-0.227D-03-0.835D-03 0.822D-03
 Coeff:      0.101D-01-0.779D-04-0.386D-01-0.608D-01-0.495D-01 0.114D+01
 Gap=     0.322 Goal=   None    Shift=    0.000
 RMSDP=1.63D-07 MaxDP=1.56D-05 DE=-2.36D-11 OVMax= 1.23D-06

 Cycle  13  Pass 1  IDiag  1:
 RMSU=  3.67D-08    CP:  5.97D-01  1.60D+00  7.92D-01  9.10D-01  1.37D+00
                    CP:  8.70D-01  1.29D+00  1.21D+00  1.32D+00  1.41D+00
                    CP:  1.37D+00  1.56D+00
 E= -925.309272877680     Delta-E=       -0.000000000004 Rises=F Damp=F
 DIIS: error= 3.62D-08 at cycle  13 NSaved=  13.
 NSaved=13 IEnMin=13 EnMin= -925.309272877680     IErMin=13 ErrMin= 3.62D-08
 ErrMax= 3.62D-08  0.00D+00 EMaxC= 1.00D-01 BMatC= 1.99D-13 BMatP= 1.41D-12
 IDIUse=1 WtCom= 1.00D+00 WtEn= 0.00D+00
 Coeff-Com: -0.554D-05 0.119D-04 0.485D-05-0.734D-04-0.256D-03 0.191D-03
 Coeff-Com:  0.279D-02 0.141D-02-0.657D-02-0.281D-01-0.692D-01 0.349D+00
 Coeff-Com:  0.751D+00
 Coeff:     -0.554D-05 0.119D-04 0.485D-05-0.734D-04-0.256D-03 0.191D-03
 Coeff:      0.279D-02 0.141D-02-0.657D-02-0.281D-01-0.692D-01 0.349D+00
 Coeff:      0.751D+00
 Gap=     0.322 Goal=   None    Shift=    0.000
 RMSDP=2.03D-08 MaxDP=1.60D-06 DE=-3.64D-12 OVMax= 3.07D-07

 Cycle  14  Pass 1  IDiag  1:
 RMSU=  7.92D-09    CP:  5.97D-01  1.60D+00  7.92D-01  9.10D-01  1.37D+00
                    CP:  8.70D-01  1.29D+00  1.21D+00  1.32D+00  1.41D+00
                    CP:  1.37D+00  1.67D+00  1.13D+00
 E= -925.309272877724     Delta-E=       -0.000000000044 Rises=F Damp=F
 DIIS: error= 9.11D-09 at cycle  14 NSaved=  14.
 NSaved=14 IEnMin=14 EnMin= -925.309272877724     IErMin=14 ErrMin= 9.11D-09
 ErrMax= 9.11D-09  0.00D+00 EMaxC= 1.00D-01 BMatC= 5.00D-14 BMatP= 1.99D-13
 IDIUse=1 WtCom= 1.00D+00 WtEn= 0.00D+00
 Coeff-Com:  0.594D-06-0.132D-05-0.189D-06 0.138D-04 0.578D-04-0.785D-04
 Coeff-Com: -0.814D-03 0.487D-03 0.446D-02 0.469D-03-0.216D-01-0.868D-01
 Coeff-Com:  0.316D+00 0.788D+00
 Coeff:      0.594D-06-0.132D-05-0.189D-06 0.138D-04 0.578D-04-0.785D-04
 Coeff:     -0.814D-03 0.487D-03 0.446D-02 0.469D-03-0.216D-01-0.868D-01
 Coeff:      0.316D+00 0.788D+00
 Gap=     0.322 Goal=   None    Shift=    0.000
 RMSDP=1.54D-08 MaxDP=1.71D-06 DE=-4.37D-11 OVMax= 1.11D-07

 Cycle  15  Pass 1  IDiag  1:
 RMSU=  2.74D-09    CP:  5.97D-01  1.60D+00  7.92D-01  9.10D-01  1.37D+00
                    CP:  8.70D-01  1.29D+00  1.21D+00  1.32D+00  1.42D+00
                    CP:  1.37D+00  1.75D+00  1.31D+00  8.86D-01
 E= -925.309272877663     Delta-E=        0.000000000061 Rises=F Damp=F
 DIIS: error= 2.17D-09 at cycle  15 NSaved=  15.
 NSaved=15 IEnMin=14 EnMin= -925.309272877724     IErMin=15 ErrMin= 2.17D-09
 ErrMax= 2.17D-09  0.00D+00 EMaxC= 1.00D-01 BMatC= 2.34D-15 BMatP= 5.00D-14
 IDIUse=1 WtCom= 1.00D+00 WtEn= 0.00D+00
 Coeff-Com:  0.563D-06-0.122D-05-0.464D-06 0.916D-05 0.352D-04-0.388D-04
 Coeff-Com: -0.436D-03 0.469D-04 0.177D-02 0.206D-02-0.162D-02-0.517D-01
 Coeff-Com:  0.445D-01 0.200D+00 0.806D+00
 Coeff:      0.563D-06-0.122D-05-0.464D-06 0.916D-05 0.352D-04-0.388D-04
 Coeff:     -0.436D-03 0.469D-04 0.177D-02 0.206D-02-0.162D-02-0.517D-01
 Coeff:      0.445D-01 0.200D+00 0.806D+00
 Gap=     0.322 Goal=   None    Shift=    0.000
 RMSDP=3.79D-09 MaxDP=3.83D-07 DE= 6.09D-11 OVMax= 2.61D-08

 SCF Done:  E(RwB97XD) =  -925.309272878     A.U. after   15 cycles
            NFock= 15  Conv=0.38D-08     -V/T= 2.0044
 KE= 9.212948393544D+02 PE=-5.607664078184D+03 EE= 2.030483207214D+03
 Leave Link  502 at Mon Nov 14 15:04:31 2022, MaxMem= 16106127360 cpu:            4947.0 elap:             156.1
 (Enter /opt/ap/G16/B01/g16/l601.exe)
 Copying SCF densities to generalized density rwf, IOpCl= 0 IROHF=0.

 **********************************************************************

            Population analysis using the SCF Density.

 **********************************************************************

 Orbital symmetries:
       Occupied  (A) (A) (A) (A) (A) (A) (A) (A) (A) (A) (A) (A)
                 (A) (A) (A) (A) (A) (A) (A) (A) (A) (A) (A) (A)
                 (A) (A) (A) (A) (A) (A) (A) (A) (A) (A) (A) (A)
                 (A) (A) (A) (A) (A) (A) (A) (A) (A) (A) (A) (A)
                 (A) (A) (A) (A) (A) (A) (A) (A) (A) (A) (A) (A)
                 (A) (A) (A) (A) (A) (A) (A) (A) (A) (A) (A) (A)
                 (A) (A) (A) (A) (A) (A) (A) (A) (A)
       Virtual   (A) (A) (A) (A) (A) (A) (A) (A) (A) (A) (A) (A)
                 (A) (A) (A) (A) (A) (A) (A) (A) (A) (A) (A) (A)
                 (A) (A) (A) (A) (A) (A) (A) (A) (A) (A) (A) (A)
                 (A) (A) (A) (A) (A) (A) (A) (A) (A) (A) (A) (A)
                 (A) (A) (A) (A) (A) (A) (A) (A) (A) (A) (A) (A)
                 (A) (A) (A) (A) (A) (A) (A) (A) (A) (A) (A) (A)
                 (A) (A) (A) (A) (A) (A) (A) (A) (A) (A) (A) (A)
                 (A) (A) (A) (A) (A) (A) (A) (A) (A) (A) (A) (A)
                 (A) (A) (A) (A) (A) (A) (A) (A) (A) (A) (A) (A)
                 (A) (A) (A) (A) (A) (A) (A) (A) (A) (A) (A) (A)
                 (A) (A) (A) (A) (A) (A) (A) (A) (A) (A) (A) (A)
                 (A) (A) (A) (A) (A) (A) (A) (A) (A) (A) (A) (A)
                 (A) (A) (A) (A) (A) (A) (A) (A) (A) (A) (A) (A)
                 (A) (A) (A) (A) (A) (A) (A) (A) (A) (A) (A) (A)
                 (A) (A) (A) (A) (A) (A) (A) (A) (A) (A) (A) (A)
                 (A) (A) (A) (A) (A) (A) (A) (A) (A) (A) (A) (A)
                 (A) (A) (A) (A) (A) (A) (A) (A) (A) (A) (A) (A)
                 (A) (A) (A) (A) (A) (A) (A) (A) (A) (A) (A) (A)
                 (A) (A) (A) (A) (A) (A) (A) (A) (A) (A) (A) (A)
                 (A) (A) (A) (A) (A) (A) (A) (A) (A) (A) (A) (A)
                 (A) (A) (A) (A) (A) (A) (A) (A) (A) (A) (A) (A)
                 (A) (A) (A) (A) (A) (A) (A) (A) (A) (A) (A) (A)
                 (A) (A) (A) (A) (A) (A) (A) (A) (A) (A) (A) (A)
                 (A) (A) (A) (A) (A) (A) (A) (A) (A) (A) (A) (A)
                 (A) (A) (A) (A) (A) (A) (A) (A) (A) (A) (A) (A)
                 (A) (A) (A) (A) (A) (A) (A) (A) (A) (A) (A) (A)
                 (A) (A) (A) (A) (A) (A) (A) (A) (A) (A) (A) (A)
                 (A) (A) (A) (A) (A) (A) (A) (A) (A) (A) (A) (A)
                 (A) (A) (A) (A) (A) (A) (A) (A) (A) (A) (A) (A)
                 (A) (A) (A) (A) (A) (A) (A) (A) (A) (A) (A) (A)
                 (A) (A) (A) (A) (A) (A) (A) (A) (A) (A) (A) (A)
                 (A) (A) (A) (A) (A) (A) (A) (A) (A) (A) (A) (A)
                 (A) (A) (A) (A) (A) (A) (A) (A) (A) (A) (A) (A)
                 (A) (A) (A) (A) (A) (A) (A) (A) (A) (A) (A) (A)
                 (A) (A) (A) (A) (A) (A) (A) (A) (A) (A) (A) (A)
                 (A) (A) (A) (A) (A) (A) (A) (A) (A) (A) (A) (A)
                 (A) (A) (A) (A) (A) (A) (A) (A) (A) (A) (A) (A)
                 (A) (A) (A) (A) (A) (A) (A) (A) (A) (A) (A) (A)
                 (A) (A) (A) (A) (A) (A) (A) (A) (A) (A) (A) (A)
                 (A) (A) (A) (A) (A) (A) (A) (A) (A) (A) (A) (A)
                 (A) (A) (A) (A) (A) (A) (A) (A) (A) (A) (A) (A)
                 (A) (A) (A) (A) (A) (A) (A) (A) (A) (A) (A) (A)
                 (A) (A) (A) (A) (A) (A) (A) (A) (A) (A) (A) (A)
                 (A) (A) (A) (A) (A) (A) (A) (A) (A) (A) (A) (A)
                 (A) (A) (A) (A) (A) (A) (A) (A) (A) (A) (A) (A)
                 (A) (A) (A) (A) (A) (A) (A) (A) (A) (A) (A) (A)
                 (A) (A) (A) (A) (A) (A) (A) (A) (A) (A) (A) (A)
                 (A)
 The electronic state is 1-A.
 Alpha  occ. eigenvalues --  -10.30374 -10.30370 -10.30318 -10.30300 -10.30293
 Alpha  occ. eigenvalues --  -10.30218 -10.29228 -10.29226 -10.29207 -10.29207
 Alpha  occ. eigenvalues --  -10.29194 -10.29170 -10.29149 -10.29147 -10.29124
 Alpha  occ. eigenvalues --  -10.29117 -10.29117 -10.29094 -10.29079 -10.29077
 Alpha  occ. eigenvalues --  -10.29062 -10.29052 -10.29040 -10.29037  -0.98923
 Alpha  occ. eigenvalues --   -0.97028  -0.96988  -0.95239  -0.89382  -0.89354
 Alpha  occ. eigenvalues --   -0.85307  -0.85263  -0.85173  -0.85024  -0.82251
 Alpha  occ. eigenvalues --   -0.82205  -0.73499  -0.73205  -0.71111  -0.70543
 Alpha  occ. eigenvalues --   -0.70394  -0.70084  -0.66807  -0.66663  -0.63424
 Alpha  occ. eigenvalues --   -0.60678  -0.60634  -0.58727  -0.57090  -0.56456
 Alpha  occ. eigenvalues --   -0.54951  -0.54715  -0.54567  -0.54255  -0.53094
 Alpha  occ. eigenvalues --   -0.51916  -0.51392  -0.51263  -0.51083  -0.50842
 Alpha  occ. eigenvalues --   -0.50724  -0.47644  -0.46613  -0.46036  -0.46034
 Alpha  occ. eigenvalues --   -0.45469  -0.45108  -0.44270  -0.43143  -0.43024
 Alpha  occ. eigenvalues --   -0.42862  -0.41839  -0.41346  -0.36513  -0.35048
 Alpha  occ. eigenvalues --   -0.33604  -0.33596  -0.33592  -0.33067  -0.31305
 Alpha  occ. eigenvalues --   -0.30206
 Alpha virt. eigenvalues --    0.02020   0.03078   0.03674   0.04209   0.04345
 Alpha virt. eigenvalues --    0.04812   0.04931   0.05038   0.05170   0.05306
 Alpha virt. eigenvalues --    0.05400   0.05651   0.05675   0.06756   0.06805
 Alpha virt. eigenvalues --    0.06851   0.07122   0.07910   0.07999   0.08293
 Alpha virt. eigenvalues --    0.08608   0.09002   0.09112   0.09419   0.11110
 Alpha virt. eigenvalues --    0.11479   0.11905   0.12100   0.12744   0.13394
 Alpha virt. eigenvalues --    0.13576   0.14067   0.14184   0.14753   0.15045
 Alpha virt. eigenvalues --    0.15580   0.15719   0.15788   0.16078   0.16355
 Alpha virt. eigenvalues --    0.16436   0.16568   0.17032   0.17358   0.17429
 Alpha virt. eigenvalues --    0.17558   0.17658   0.17803   0.17938   0.18054
 Alpha virt. eigenvalues --    0.18118   0.18192   0.18464   0.18713   0.18837
 Alpha virt. eigenvalues --    0.18947   0.19182   0.19453   0.20152   0.20306
 Alpha virt. eigenvalues --    0.20367   0.20636   0.20825   0.21294   0.21387
 Alpha virt. eigenvalues --    0.21900   0.22213   0.22276   0.22574   0.22889
 Alpha virt. eigenvalues --    0.23023   0.23149   0.23320   0.23635   0.23815
 Alpha virt. eigenvalues --    0.24395   0.25048   0.25117   0.25163   0.25593
 Alpha virt. eigenvalues --    0.25722   0.26061   0.26291   0.26805   0.27129
 Alpha virt. eigenvalues --    0.27463   0.27623   0.27937   0.28139   0.28457
 Alpha virt. eigenvalues --    0.28681   0.28930   0.29212   0.29261   0.29549
 Alpha virt. eigenvalues --    0.29694   0.30083   0.30278   0.30479   0.30571
 Alpha virt. eigenvalues --    0.31513   0.31906   0.32183   0.32739   0.33396
 Alpha virt. eigenvalues --    0.33645   0.33758   0.33968   0.34091   0.34363
 Alpha virt. eigenvalues --    0.34723   0.35060   0.35139   0.35315   0.35851
 Alpha virt. eigenvalues --    0.35888   0.35970   0.36568   0.36717   0.36876
 Alpha virt. eigenvalues --    0.37003   0.37145   0.37389   0.37875   0.37944
 Alpha virt. eigenvalues --    0.38178   0.38367   0.38702   0.39324   0.39612
 Alpha virt. eigenvalues --    0.39720   0.40166   0.40375   0.40795   0.41717
 Alpha virt. eigenvalues --    0.41867   0.42379   0.42591   0.42722   0.43070
 Alpha virt. eigenvalues --    0.43145   0.43480   0.43909   0.44616   0.44658
 Alpha virt. eigenvalues --    0.44862   0.45409   0.47463   0.47754   0.48126
 Alpha virt. eigenvalues --    0.48659   0.48901   0.49220   0.52882   0.53074
 Alpha virt. eigenvalues --    0.57160   0.58241   0.58775   0.59851   0.60166
 Alpha virt. eigenvalues --    0.61639   0.62157   0.62384   0.62651   0.62769
 Alpha virt. eigenvalues --    0.63090   0.63209   0.63498   0.63904   0.64020
 Alpha virt. eigenvalues --    0.64342   0.64652   0.64742   0.64771   0.65712
 Alpha virt. eigenvalues --    0.66054   0.66257   0.66784   0.67013   0.67390
 Alpha virt. eigenvalues --    0.67950   0.68614   0.69195   0.69633   0.70095
 Alpha virt. eigenvalues --    0.70658   0.71147   0.71581   0.71956   0.72558
 Alpha virt. eigenvalues --    0.73315   0.73693   0.73780   0.74547   0.74667
 Alpha virt. eigenvalues --    0.74956   0.75518   0.76071   0.77535   0.78298
 Alpha virt. eigenvalues --    0.78906   0.79286   0.80071   0.80342   0.80822
 Alpha virt. eigenvalues --    0.81184   0.81279   0.81388   0.81639   0.81923
 Alpha virt. eigenvalues --    0.82567   0.82783   0.82902   0.83712   0.83883
 Alpha virt. eigenvalues --    0.83958   0.84416   0.84788   0.85159   0.85758
 Alpha virt. eigenvalues --    0.85992   0.86588   0.87094   0.87243   0.88096
 Alpha virt. eigenvalues --    0.88543   0.89990   0.90548   0.91498   0.91645
 Alpha virt. eigenvalues --    0.91979   0.92225   0.92662   0.93114   0.93617
 Alpha virt. eigenvalues --    0.93760   0.94063   0.94529   0.95098   0.95403
 Alpha virt. eigenvalues --    0.95981   0.96279   0.96675   0.97082   0.97866
 Alpha virt. eigenvalues --    0.99275   1.00061   1.00492   1.00638   1.01250
 Alpha virt. eigenvalues --    1.01633   1.01978   1.03265   1.04013   1.05090
 Alpha virt. eigenvalues --    1.05600   1.06127   1.06801   1.07478   1.08108
 Alpha virt. eigenvalues --    1.08214   1.08378   1.08884   1.09667   1.09934
 Alpha virt. eigenvalues --    1.11908   1.12265   1.12720   1.12914   1.13511
 Alpha virt. eigenvalues --    1.13842   1.14433   1.14608   1.15979   1.16491
 Alpha virt. eigenvalues --    1.17034   1.17821   1.18276   1.19273   1.20056
 Alpha virt. eigenvalues --    1.21677   1.22133   1.22438   1.23283   1.23835
 Alpha virt. eigenvalues --    1.24370   1.25382   1.27138   1.27558   1.30154
 Alpha virt. eigenvalues --    1.30678   1.38609   1.38940   1.40314   1.41464
 Alpha virt. eigenvalues --    1.41545   1.45809   1.46630   1.48200   1.51140
 Alpha virt. eigenvalues --    1.54253   1.56729   1.57389   1.58400   1.59337
 Alpha virt. eigenvalues --    1.59833   1.59883   1.60233   1.60983   1.61575
 Alpha virt. eigenvalues --    1.61726   1.62204   1.62883   1.63115   1.64020
 Alpha virt. eigenvalues --    1.64103   1.64967   1.65662   1.65755   1.65874
 Alpha virt. eigenvalues --    1.66300   1.66739   1.66993   1.68183   1.68742
 Alpha virt. eigenvalues --    1.70042   1.71188   1.72636   1.73057   1.73723
 Alpha virt. eigenvalues --    1.73857   1.74542   1.75181   1.75286   1.75737
 Alpha virt. eigenvalues --    1.76246   1.76988   1.79640   1.81630   1.81984
 Alpha virt. eigenvalues --    1.82861   1.82944   1.84089   1.84423   1.84924
 Alpha virt. eigenvalues --    1.85018   1.85950   1.86363   1.86457   1.87530
 Alpha virt. eigenvalues --    1.88413   1.88545   1.89780   1.92489   1.92633
 Alpha virt. eigenvalues --    1.93021   1.93422   1.95066   1.96754   1.97292
 Alpha virt. eigenvalues --    1.99131   2.00030   2.00172   2.01716   2.02339
 Alpha virt. eigenvalues --    2.02747   2.02877   2.03298   2.04088   2.04330
 Alpha virt. eigenvalues --    2.04688   2.05087   2.05320   2.05522   2.05998
 Alpha virt. eigenvalues --    2.06151   2.06612   2.07208   2.08025   2.09399
 Alpha virt. eigenvalues --    2.11139   2.11542   2.11781   2.12480   2.12943
 Alpha virt. eigenvalues --    2.13485   2.14086   2.15317   2.16134   2.16917
 Alpha virt. eigenvalues --    2.17532   2.18236   2.19175   2.19833   2.21162
 Alpha virt. eigenvalues --    2.21845   2.23073   2.28330   2.29424   2.33050
 Alpha virt. eigenvalues --    2.35069   2.35771   2.37357   2.37936   2.39524
 Alpha virt. eigenvalues --    2.40983   2.44438   2.44655   2.48727   2.49021
 Alpha virt. eigenvalues --    2.50375   2.52055   2.53164   2.53557   2.54200
 Alpha virt. eigenvalues --    2.55039   2.55225   2.56317   2.56514   2.56934
 Alpha virt. eigenvalues --    2.57441   2.58626   2.58749   2.61907   2.62739
 Alpha virt. eigenvalues --    2.68930   2.72960   2.73031   2.73139   2.74559
 Alpha virt. eigenvalues --    2.74667   2.75972   2.76279   2.76563   2.79473
 Alpha virt. eigenvalues --    2.79654   2.80097   2.80408   2.80581   2.81007
 Alpha virt. eigenvalues --    2.81605   2.81855   2.82457   2.83018   2.83203
 Alpha virt. eigenvalues --    2.83849   2.83899   2.84235   2.85502   2.85730
 Alpha virt. eigenvalues --    2.86509   2.87267   2.87795   2.88693   2.89389
 Alpha virt. eigenvalues --    2.91131   2.91437   2.92390   2.92511   2.92852
 Alpha virt. eigenvalues --    2.93581   2.93668   2.94554   2.94921   2.95550
 Alpha virt. eigenvalues --    2.98425   2.99236   2.99526   3.00364   3.01276
 Alpha virt. eigenvalues --    3.02167   3.03508   3.04650   3.05003   3.05256
 Alpha virt. eigenvalues --    3.05586   3.07010   3.07744   3.08061   3.09317
 Alpha virt. eigenvalues --    3.11618   3.12502   3.16217   3.19010   3.20046
 Alpha virt. eigenvalues --    3.21100   3.22211   3.24427   3.27045   3.30388
 Alpha virt. eigenvalues --    3.32456   3.32640   3.33928   3.34766   3.35710
 Alpha virt. eigenvalues --    3.41165   3.46147   3.47638   3.48911   3.49331
 Alpha virt. eigenvalues --    3.49537   3.50711   3.52757   3.53926   3.60392
 Alpha virt. eigenvalues --    3.61031   3.61174   3.63771   3.64932   3.65700
 Alpha virt. eigenvalues --    3.66872   3.73755   3.74061   3.76269   3.76472
 Alpha virt. eigenvalues --    3.77419   3.78307   3.90875   3.92750   3.96652
 Alpha virt. eigenvalues --    4.09722   4.09979   4.10262   4.14514   4.14579
 Alpha virt. eigenvalues --    4.14721   4.24262   4.24618   4.25467   4.26219
 Alpha virt. eigenvalues --    4.26486   4.27010   4.27623   4.27787   4.47055
 Alpha virt. eigenvalues --    4.62927   4.66940   4.94050   4.95602   4.95765
 Alpha virt. eigenvalues --    4.98408  23.68376  23.81524  23.82504  23.88248
 Alpha virt. eigenvalues --   24.08382  24.08476  24.10756  24.11035  24.11264
 Alpha virt. eigenvalues --   24.11431  24.12867  24.13536  24.20261  24.20449
 Alpha virt. eigenvalues --   24.21010  24.24103  24.24335  24.24366  24.24543
 Alpha virt. eigenvalues --   24.26431  24.31631  24.33838  24.34163  24.35427
          Condensed to atoms (all electrons):
               1          2          3          4          5          6
     1  C   26.368837   0.725600   1.062627  -7.894618   0.335234   0.111248
     2  C    0.725600  19.147478  -4.760925   4.273488   0.192949  -2.450957
     3  C    1.062627  -4.760925  18.629123  -4.244008   0.215030  -2.370859
     4  C   -7.894618   4.273488  -4.244008  23.132735  -0.336686  -0.292080
     5  H    0.335234   0.192949   0.215030  -0.336686   0.514299  -0.043998
     6  C    0.111248  -2.450957  -2.370859  -0.292080  -0.043998  12.180977
     7  C   -8.115003  -4.626492   3.963123  -9.232500   0.099303  -0.423350
     8  H    0.324254   0.199279   0.204458   0.100235  -0.004196  -0.032284
     9  C   -5.596544  -1.020248  -1.099967   1.323088   0.010266  -1.555921
    10  C    0.173308  -2.765838  -1.326121  -1.843293  -0.037620   1.083044
    11  C   -1.049738  -0.266545  -0.331352   0.004674  -0.079868   0.392611
    12  C   -0.775797   0.276899  -0.133468   0.193242   0.013166  -0.224829
    13  C    0.426018  -1.475729  -2.629167   0.559609  -0.018333   1.169016
    14  H    0.093164   0.060834   0.061723  -0.046226  -0.002301  -0.009806
    15  C   -0.573848   1.185566  -0.502641  -0.430879  -0.210885   0.243245
    16  C   -0.111318  -1.749430   0.100799  -0.486026   0.107484  -0.070720
    17  C   -0.393623   0.461470   0.325656   0.247879   0.018205  -1.286552
    18  H    0.050669  -0.001652  -0.059418  -0.022641  -0.002286   0.061523
    19  C    0.017449  -0.094464   0.409876  -0.085555   0.012944  -1.131898
    20  H    0.014289  -0.002267  -0.006857   0.013061   0.002154   0.004642
    21  C   -0.696480  -0.534702   0.918771   0.150995  -0.007644   0.127502
    22  C    0.188187   0.182648  -1.006316   0.049019   0.005093   0.031714
    23  C    0.522777   0.823708   0.103303  -0.137174   0.041256  -0.047604
    24  H   -0.079830  -0.030246  -0.046018   0.030099  -0.011612   0.031380
    25  C   -0.268182  -0.164457   0.062942   0.021139   0.003567  -0.061655
    26  H    0.019032  -0.012238  -0.015052   0.129555  -0.002690   0.009073
    27  C   -0.128275  -0.105283  -0.193346  -0.015681  -0.004714  -0.220591
    28  H   -0.001087   0.001575   0.006378   0.002960   0.000032   0.026286
    29  H   -0.000684  -0.001154   0.003999  -0.001373  -0.000165   0.036455
    30  C    0.361475   0.138455   0.633286  -0.161014  -0.001455  -0.115789
    31  H   -0.088231  -0.047046  -0.042378   0.023894  -0.000537   0.031022
    32  C   -0.274520   0.029313  -0.299462   0.427205   0.003837  -0.024999
    33  H    0.017740  -0.014618   0.003834  -0.137400   0.000095   0.008896
    34  C   -0.059820  -0.197459  -0.031990  -0.228960  -0.012008   0.031975
    35  H    0.007336   0.008849   0.001502  -0.000136   0.000932  -0.001917
    36  H   -0.002365  -0.001956   0.000167  -0.007776   0.000570  -0.000573
    37  H   -0.003996  -0.004993  -0.006680   0.000623  -0.000201   0.016942
    38  C   -0.017641  -0.026153  -0.109236  -0.021128  -0.000216   0.031580
    39  H    0.006469   0.001687   0.009104   0.000819  -0.000002  -0.002336
    40  H   -0.002643  -0.000131  -0.004655   0.012974  -0.000013  -0.000554
    41  H    0.000374  -0.005044  -0.000825  -0.007093  -0.000478   0.000784
    42  H    0.001039  -0.000775  -0.003281   0.000261  -0.000008   0.000906
               7          8          9         10         11         12
     1  C   -8.115003   0.324254  -5.596544   0.173308  -1.049738  -0.775797
     2  C   -4.626492   0.199279  -1.020248  -2.765838  -0.266545   0.276899
     3  C    3.963123   0.204458  -1.099967  -1.326121  -0.331352  -0.133468
     4  C   -9.232500   0.100235   1.323088  -1.843293   0.004674   0.193242
     5  H    0.099303  -0.004196   0.010266  -0.037620  -0.079868   0.013166
     6  C   -0.423350  -0.032284  -1.555921   1.083044   0.392611  -0.224829
     7  C   23.395032  -0.356247   1.907048   0.659698  -0.045607   0.194045
     8  H   -0.356247   0.508655   0.003414  -0.018992  -0.077379   0.040901
     9  C    1.907048   0.003414  15.810471  -1.935680  -0.353815   0.097386
    10  C    0.659698  -0.018992  -1.935680  15.434720   0.257103  -0.062745
    11  C   -0.045607  -0.077379  -0.353815   0.257103  14.420590  -5.685223
    12  C    0.194045   0.040901   0.097386  -0.062745  -5.685223  13.151488
    13  C   -2.166911  -0.017087  -2.007756   0.907378   0.232857   0.007994
    14  H   -0.050437  -0.002238   0.256839   0.057538   0.003821  -0.004041
    15  C    0.101610  -0.000801  -0.629847  -0.795945  -0.052980   0.136030
    16  C    0.300606  -0.000368   1.346497  -1.938279   0.055284  -0.064743
    17  C    0.127307   0.003556   0.073221   0.036427  -2.309312   1.070686
    18  H   -0.028194  -0.000847  -0.020140   0.013459   0.492352  -0.013455
    19  C    0.130185  -0.001021   0.024558  -0.083915   0.774360  -1.566572
    20  H   -0.001409   0.005716   0.006246   0.016623  -0.006918   0.395028
    21  C   -0.625009  -0.235483  -0.704458   0.009618  -0.045013   0.034218
    22  C    0.068155   0.134439   0.900326   0.133629   0.052410  -0.018617
    23  C   -0.168791  -0.001371  -0.211762  -1.583035  -0.031296   0.015664
    24  H    0.016347  -0.000323  -0.016418  -0.009893   0.013773  -0.002636
    25  C    0.326519   0.003181   0.577411  -1.319629  -0.007050   0.003768
    26  H   -0.122339  -0.000157  -0.066180  -0.040164   0.000716   0.000886
    27  C   -0.036269   0.005193  -0.034652   0.023705  -0.123684  -0.519046
    28  H    0.003303  -0.000108   0.000649  -0.000256  -0.085401   0.008749
    29  H    0.001262  -0.001018  -0.000383  -0.001166   0.014610  -0.094656
    30  C    0.171043   0.012439  -0.084758  -0.022758  -0.014495  -0.005141
    31  H    0.031741  -0.010745  -0.016729   0.013413   0.010834   0.000431
    32  C   -0.363004   0.008101   0.699881  -0.123859  -0.012957   0.013028
    33  H    0.145480  -0.002047  -0.073447   0.014026   0.001476  -0.000085
    34  C    0.008537  -0.000092   0.002401  -0.220974   0.002590   0.000693
    35  H    0.001552  -0.000020   0.002410   0.027412  -0.000477   0.000221
    36  H    0.011125  -0.000005   0.015164   0.023510  -0.000123   0.000066
    37  H    0.000266   0.000104  -0.000850   0.000807   0.010001   0.007152
    38  C   -0.184086  -0.013436  -0.100237   0.040735   0.004793  -0.003276
    39  H    0.003213   0.000934   0.003151  -0.001020  -0.000438   0.000304
    40  H   -0.012057   0.000566   0.018509  -0.004102  -0.000209   0.000156
    41  H    0.000900  -0.000010  -0.004337   0.023465   0.000145  -0.000041
    42  H   -0.006826  -0.000404  -0.006599   0.001178   0.000180  -0.000121
              13         14         15         16         17         18
     1  C    0.426018   0.093164  -0.573848  -0.111318  -0.393623   0.050669
     2  C   -1.475729   0.060834   1.185566  -1.749430   0.461470  -0.001652
     3  C   -2.629167   0.061723  -0.502641   0.100799   0.325656  -0.059418
     4  C    0.559609  -0.046226  -0.430879  -0.486026   0.247879  -0.022641
     5  H   -0.018333  -0.002301  -0.210885   0.107484   0.018205  -0.002286
     6  C    1.169016  -0.009806   0.243245  -0.070720  -1.286552   0.061523
     7  C   -2.166911  -0.050437   0.101610   0.300606   0.127307  -0.028194
     8  H   -0.017087  -0.002238  -0.000801  -0.000368   0.003556  -0.000847
     9  C   -2.007756   0.256839  -0.629847   1.346497   0.073221  -0.020140
    10  C    0.907378   0.057538  -0.795945  -1.938279   0.036427   0.013459
    11  C    0.232857   0.003821  -0.052980   0.055284  -2.309312   0.492352
    12  C    0.007994  -0.004041   0.136030  -0.064743   1.070686  -0.013455
    13  C   15.610503   0.050480  -0.060672   0.224291   0.003881   0.010341
    14  H    0.050480   0.501468   0.100808  -0.186326  -0.003632   0.000656
    15  C   -0.060672   0.100808  18.140311 -10.292765  -0.066314   0.013423
    16  C    0.224291  -0.186326 -10.292765  19.821856   0.043070  -0.011145
    17  C    0.003881  -0.003632  -0.066314   0.043070   8.314200  -0.196373
    18  H    0.010341   0.000656   0.013423  -0.011145  -0.196373   0.471871
    19  C   -0.122821   0.003695   0.004400  -0.004036  -0.860876   0.031285
    20  H    0.024614  -0.000884  -0.010180   0.005537   0.029388  -0.002661
    21  C   -0.451856   0.092013   0.074901  -0.062660  -0.015430   0.004434
    22  C   -2.435979  -0.166594  -0.061990   0.088082   0.016262  -0.003797
    23  C   -0.008554   0.008213  -1.136580   0.606875   0.005521  -0.002565
    24  H    0.012015  -0.000826   0.563827  -0.072088  -0.001873   0.000714
    25  C   -0.142696  -0.009759   0.885099  -1.368068  -0.003016  -0.000098
    26  H    0.019634  -0.002024  -0.083429   0.514687   0.000094   0.000086
    27  C    0.039009   0.000102   0.005470  -0.002598   0.450132  -0.000431
    28  H   -0.000473  -0.000057  -0.000549   0.000509   0.420571  -0.011128
    29  H   -0.002742   0.000030   0.000597  -0.000144  -0.009076   0.000720
    30  C   -1.577933   0.001768   0.000086   0.012161   0.009646  -0.001642
    31  H   -0.021919  -0.000765   0.003799  -0.003363  -0.000935   0.000445
    32  C   -1.192876  -0.003923  -0.010925   0.001653  -0.003307  -0.000227
    33  H   -0.036509  -0.002758   0.001279   0.013676   0.000577  -0.000023
    34  C    0.040362  -0.002711  -0.277228  -0.154231   0.000330   0.000341
    35  H   -0.000873   0.000160  -0.109349   0.020219   0.000008  -0.000031
    36  H   -0.004443  -0.000820   0.016038  -0.094402  -0.000010  -0.000007
    37  H    0.001241  -0.000008  -0.000029   0.000007  -0.065458   0.000418
    38  C   -0.228266  -0.000255   0.006711  -0.019674   0.000329   0.000270
    39  H    0.030787   0.000160  -0.000249   0.000478   0.000007  -0.000017
    40  H    0.021911  -0.000778  -0.000802   0.002621  -0.000013  -0.000007
    41  H    0.001243   0.000159   0.002885   0.001603   0.000012   0.000014
    42  H    0.023203   0.000136   0.000181  -0.000545   0.000013   0.000006
              19         20         21         22         23         24
     1  C    0.017449   0.014289  -0.696480   0.188187   0.522777  -0.079830
     2  C   -0.094464  -0.002267  -0.534702   0.182648   0.823708  -0.030246
     3  C    0.409876  -0.006857   0.918771  -1.006316   0.103303  -0.046018
     4  C   -0.085555   0.013061   0.150995   0.049019  -0.137174   0.030099
     5  H    0.012944   0.002154  -0.007644   0.005093   0.041256  -0.011612
     6  C   -1.131898   0.004642   0.127502   0.031714  -0.047604   0.031380
     7  C    0.130185  -0.001409  -0.625009   0.068155  -0.168791   0.016347
     8  H   -0.001021   0.005716  -0.235483   0.134439  -0.001371  -0.000323
     9  C    0.024558   0.006246  -0.704458   0.900326  -0.211762  -0.016418
    10  C   -0.083915   0.016623   0.009618   0.133629  -1.583035  -0.009893
    11  C    0.774360  -0.006918  -0.045013   0.052410  -0.031296   0.013773
    12  C   -1.566572   0.395028   0.034218  -0.018617   0.015664  -0.002636
    13  C   -0.122821   0.024614  -0.451856  -2.435979  -0.008554   0.012015
    14  H    0.003695  -0.000884   0.092013  -0.166594   0.008213  -0.000826
    15  C    0.004400  -0.010180   0.074901  -0.061990  -1.136580   0.563827
    16  C   -0.004036   0.005537  -0.062660   0.088082   0.606875  -0.072088
    17  C   -0.860876   0.029388  -0.015430   0.016262   0.005521  -0.001873
    18  H    0.031285  -0.002661   0.004434  -0.003797  -0.002565   0.000714
    19  C    8.016232  -0.142014   0.050026  -0.022552  -0.004533  -0.004336
    20  H   -0.142014   0.473157  -0.022442   0.011722  -0.001883  -0.000370
    21  C    0.050026  -0.022442  19.079618 -10.688377   0.001489   0.005519
    22  C   -0.022552   0.011722 -10.688377  19.556117   0.008778  -0.005258
    23  C   -0.004533  -0.001883   0.001489   0.008778   7.761574  -0.105220
    24  H   -0.004336  -0.000370   0.005519  -0.005258  -0.105220   0.484288
    25  C    0.002727  -0.000203  -0.008125  -0.001596  -0.673368   0.000056
    26  H   -0.000110   0.000106   0.003435   0.006109  -0.006618   0.000153
    27  C    0.587868  -0.004984  -0.019135   0.007220  -0.001559   0.001529
    28  H   -0.001575   0.000435   0.000452  -0.000090   0.000116  -0.000023
    29  H    0.423939  -0.011391   0.002270  -0.000619   0.000110  -0.000013
    30  C   -0.014030  -0.001498  -1.402668   0.764209  -0.000514   0.000381
    31  H   -0.001186  -0.001125   0.586386  -0.097885   0.000162   0.000343
    32  C    0.005406  -0.000596   1.027685  -1.318738   0.005065  -0.001465
    33  H   -0.000600   0.000132  -0.084763   0.516419   0.000975   0.000085
    34  C   -0.001429   0.000087   0.006272  -0.018147   0.329029   0.023617
    35  H    0.000249   0.000000  -0.000276   0.000544   0.430728  -0.010954
    36  H    0.000006  -0.000001  -0.000792   0.002650   0.009867  -0.000273
    37  H   -0.064686   0.000867  -0.000577   0.000198  -0.000049   0.000043
    38  C   -0.002296   0.000100  -0.255448  -0.276346   0.000123   0.000216
    39  H    0.000207   0.000028  -0.120301   0.022308   0.000003  -0.000014
    40  H    0.000032  -0.000007   0.016798  -0.088737  -0.000035  -0.000009
    41  H   -0.000029   0.000003   0.000200  -0.000588  -0.073170   0.001258
    42  H   -0.000061   0.000011  -0.001212   0.005477   0.000006   0.000005
              25         26         27         28         29         30
     1  C   -0.268182   0.019032  -0.128275  -0.001087  -0.000684   0.361475
     2  C   -0.164457  -0.012238  -0.105283   0.001575  -0.001154   0.138455
     3  C    0.062942  -0.015052  -0.193346   0.006378   0.003999   0.633286
     4  C    0.021139   0.129555  -0.015681   0.002960  -0.001373  -0.161014
     5  H    0.003567  -0.002690  -0.004714   0.000032  -0.000165  -0.001455
     6  C   -0.061655   0.009073  -0.220591   0.026286   0.036455  -0.115789
     7  C    0.326519  -0.122339  -0.036269   0.003303   0.001262   0.171043
     8  H    0.003181  -0.000157   0.005193  -0.000108  -0.001018   0.012439
     9  C    0.577411  -0.066180  -0.034652   0.000649  -0.000383  -0.084758
    10  C   -1.319629  -0.040164   0.023705  -0.000256  -0.001166  -0.022758
    11  C   -0.007050   0.000716  -0.123684  -0.085401   0.014610  -0.014495
    12  C    0.003768   0.000886  -0.519046   0.008749  -0.094656  -0.005141
    13  C   -0.142696   0.019634   0.039009  -0.000473  -0.002742  -1.577933
    14  H   -0.009759  -0.002024   0.000102  -0.000057   0.000030   0.001768
    15  C    0.885099  -0.083429   0.005470  -0.000549   0.000597   0.000086
    16  C   -1.368068   0.514687  -0.002598   0.000509  -0.000144   0.012161
    17  C   -0.003016   0.000094   0.450132   0.420571  -0.009076   0.009646
    18  H   -0.000098   0.000086  -0.000431  -0.011128   0.000720  -0.001642
    19  C    0.002727  -0.000110   0.587868  -0.001575   0.423939  -0.014030
    20  H   -0.000203   0.000106  -0.004984   0.000435  -0.011391  -0.001498
    21  C   -0.008125   0.003435  -0.019135   0.000452   0.002270  -1.402668
    22  C   -0.001596   0.006109   0.007220  -0.000090  -0.000619   0.764209
    23  C   -0.673368  -0.006618  -0.001559   0.000116   0.000110  -0.000514
    24  H    0.000056   0.000153   0.001529  -0.000023  -0.000013   0.000381
    25  C    7.795811  -0.050518  -0.000314  -0.000029  -0.000008   0.005325
    26  H   -0.050518   0.497915   0.000044   0.000011  -0.000001   0.000573
    27  C   -0.000314   0.000044   6.274896  -0.053470  -0.049451  -0.003458
    28  H   -0.000029   0.000011  -0.053470   0.474952  -0.000100   0.000083
    29  H   -0.000008  -0.000001  -0.049451  -0.000100   0.477210   0.000123
    30  C    0.005325   0.000573  -0.003458   0.000083   0.000123   7.846407
    31  H   -0.001129   0.000163   0.000610   0.000012   0.000087  -0.087145
    32  C   -0.014105   0.000412  -0.000318   0.000005   0.000020  -0.749347
    33  H   -0.004398  -0.005366   0.000106   0.000007  -0.000002  -0.006346
    34  C    0.410371   0.021706   0.000242   0.000004   0.000006   0.000021
    35  H    0.007437  -0.000335  -0.000042   0.000001   0.000001  -0.000005
    36  H    0.418700  -0.011336   0.000000  -0.000000  -0.000000  -0.000012
    37  H   -0.000008   0.000002   0.445022  -0.008558  -0.009175  -0.000104
    38  C   -0.004840  -0.001170   0.000094   0.000003   0.000016   0.364499
    39  H    0.000048   0.000044  -0.000006  -0.000001  -0.000004   0.433760
    40  H    0.000693   0.000582  -0.000003  -0.000000  -0.000000   0.011090
    41  H   -0.066758   0.001589   0.000007  -0.000000   0.000000   0.000004
    42  H   -0.000149  -0.000043   0.000007  -0.000000  -0.000000  -0.072942
              31         32         33         34         35         36
     1  C   -0.088231  -0.274520   0.017740  -0.059820   0.007336  -0.002365
     2  C   -0.047046   0.029313  -0.014618  -0.197459   0.008849  -0.001956
     3  C   -0.042378  -0.299462   0.003834  -0.031990   0.001502   0.000167
     4  C    0.023894   0.427205  -0.137400  -0.228960  -0.000136  -0.007776
     5  H   -0.000537   0.003837   0.000095  -0.012008   0.000932   0.000570
     6  C    0.031022  -0.024999   0.008896   0.031975  -0.001917  -0.000573
     7  C    0.031741  -0.363004   0.145480   0.008537   0.001552   0.011125
     8  H   -0.010745   0.008101  -0.002047  -0.000092  -0.000020  -0.000005
     9  C   -0.016729   0.699881  -0.073447   0.002401   0.002410   0.015164
    10  C    0.013413  -0.123859   0.014026  -0.220974   0.027412   0.023510
    11  C    0.010834  -0.012957   0.001476   0.002590  -0.000477  -0.000123
    12  C    0.000431   0.013028  -0.000085   0.000693   0.000221   0.000066
    13  C   -0.021919  -1.192876  -0.036509   0.040362  -0.000873  -0.004443
    14  H   -0.000765  -0.003923  -0.002758  -0.002711   0.000160  -0.000820
    15  C    0.003799  -0.010925   0.001279  -0.277228  -0.109349   0.016038
    16  C   -0.003363   0.001653   0.013676  -0.154231   0.020219  -0.094402
    17  C   -0.000935  -0.003307   0.000577   0.000330   0.000008  -0.000010
    18  H    0.000445  -0.000227  -0.000023   0.000341  -0.000031  -0.000007
    19  C   -0.001186   0.005406  -0.000600  -0.001429   0.000249   0.000006
    20  H   -0.001125  -0.000596   0.000132   0.000087   0.000000  -0.000001
    21  C    0.586386   1.027685  -0.084763   0.006272  -0.000276  -0.000792
    22  C   -0.097885  -1.318738   0.516419  -0.018147   0.000544   0.002650
    23  C    0.000162   0.005065   0.000975   0.329029   0.430728   0.009867
    24  H    0.000343  -0.001465   0.000085   0.023617  -0.010954  -0.000273
    25  C   -0.001129  -0.014105  -0.004398   0.410371   0.007437   0.418700
    26  H    0.000163   0.000412  -0.005366   0.021706  -0.000335  -0.011336
    27  C    0.000610  -0.000318   0.000106   0.000242  -0.000042   0.000000
    28  H    0.000012   0.000005   0.000007   0.000004   0.000001  -0.000000
    29  H    0.000087   0.000020  -0.000002   0.000006   0.000001  -0.000000
    30  C   -0.087145  -0.749347  -0.006346   0.000021  -0.000005  -0.000012
    31  H    0.484952   0.003379  -0.000049   0.000227  -0.000013  -0.000013
    32  C    0.003379   7.801464  -0.065533  -0.004291   0.000062   0.000480
    33  H   -0.000049  -0.065533   0.499082  -0.000825   0.000044   0.000509
    34  C    0.000227  -0.004291  -0.000825   6.402386  -0.069422  -0.062129
    35  H   -0.000013   0.000062   0.000044  -0.069422   0.475176   0.001002
    36  H   -0.000013   0.000480   0.000509  -0.062129   0.001002   0.474653
    37  H    0.000015  -0.000005   0.000003   0.000008  -0.000002  -0.000000
    38  C    0.028471   0.454641   0.023480  -0.000207  -0.000000   0.000092
    39  H   -0.011800   0.006310  -0.000443  -0.000002   0.000000  -0.000001
    40  H   -0.000252   0.417323  -0.011919   0.000099  -0.000001  -0.000046
    41  H    0.000006  -0.000131  -0.000032   0.463242  -0.010884  -0.011261
    42  H    0.001326  -0.070168   0.001934  -0.000000  -0.000000   0.000001
              37         38         39         40         41         42
     1  C   -0.003996  -0.017641   0.006469  -0.002643   0.000374   0.001039
     2  C   -0.004993  -0.026153   0.001687  -0.000131  -0.005044  -0.000775
     3  C   -0.006680  -0.109236   0.009104  -0.004655  -0.000825  -0.003281
     4  C    0.000623  -0.021128   0.000819   0.012974  -0.007093   0.000261
     5  H   -0.000201  -0.000216  -0.000002  -0.000013  -0.000478  -0.000008
     6  C    0.016942   0.031580  -0.002336  -0.000554   0.000784   0.000906
     7  C    0.000266  -0.184086   0.003213  -0.012057   0.000900  -0.006826
     8  H    0.000104  -0.013436   0.000934   0.000566  -0.000010  -0.000404
     9  C   -0.000850  -0.100237   0.003151   0.018509  -0.004337  -0.006599
    10  C    0.000807   0.040735  -0.001020  -0.004102   0.023465   0.001178
    11  C    0.010001   0.004793  -0.000438  -0.000209   0.000145   0.000180
    12  C    0.007152  -0.003276   0.000304   0.000156  -0.000041  -0.000121
    13  C    0.001241  -0.228266   0.030787   0.021911   0.001243   0.023203
    14  H   -0.000008  -0.000255   0.000160  -0.000778   0.000159   0.000136
    15  C   -0.000029   0.006711  -0.000249  -0.000802   0.002885   0.000181
    16  C    0.000007  -0.019674   0.000478   0.002621   0.001603  -0.000545
    17  C   -0.065458   0.000329   0.000007  -0.000013   0.000012   0.000013
    18  H    0.000418   0.000270  -0.000017  -0.000007   0.000014   0.000006
    19  C   -0.064686  -0.002296   0.000207   0.000032  -0.000029  -0.000061
    20  H    0.000867   0.000100   0.000028  -0.000007   0.000003   0.000011
    21  C   -0.000577  -0.255448  -0.120301   0.016798   0.000200  -0.001212
    22  C    0.000198  -0.276346   0.022308  -0.088737  -0.000588   0.005477
    23  C   -0.000049   0.000123   0.000003  -0.000035  -0.073170   0.000006
    24  H    0.000043   0.000216  -0.000014  -0.000009   0.001258   0.000005
    25  C   -0.000008  -0.004840   0.000048   0.000693  -0.066758  -0.000149
    26  H    0.000002  -0.001170   0.000044   0.000582   0.001589  -0.000043
    27  C    0.445022   0.000094  -0.000006  -0.000003   0.000007   0.000007
    28  H   -0.008558   0.000003  -0.000001  -0.000000  -0.000000  -0.000000
    29  H   -0.009175   0.000016  -0.000004  -0.000000   0.000000  -0.000000
    30  C   -0.000104   0.364499   0.433760   0.011090   0.000004  -0.072942
    31  H    0.000015   0.028471  -0.011800  -0.000252   0.000006   0.001326
    32  C   -0.000005   0.454641   0.006310   0.417323  -0.000131  -0.070168
    33  H    0.000003   0.023480  -0.000443  -0.011919  -0.000032   0.001934
    34  C    0.000008  -0.000207  -0.000002   0.000099   0.463242  -0.000000
    35  H   -0.000002  -0.000000   0.000000  -0.000001  -0.010884  -0.000000
    36  H   -0.000000   0.000092  -0.000001  -0.000046  -0.011261   0.000001
    37  H    0.483243   0.000004  -0.000001  -0.000000   0.000000   0.000000
    38  C    0.000004   6.382297  -0.068787  -0.063991  -0.000001   0.466829
    39  H   -0.000001  -0.068787   0.475754   0.001073  -0.000000  -0.011228
    40  H   -0.000000  -0.063991   0.001073   0.475200   0.000001  -0.011882
    41  H    0.000000  -0.000001  -0.000000   0.000001   0.486554   0.000000
    42  H    0.000000   0.466829  -0.011228  -0.011882   0.000000   0.487706
 Mulliken charges:
               1
     1  C    1.307116
     2  C   -1.348997
     3  C   -1.491678
     4  C    0.934695
     5  H    0.201501
     6  C    0.738452
     7  C    0.897132
     8  H    0.221252
     9  C   -1.538207
    10  C    1.184487
    11  C   -0.165300
    12  C   -0.487708
    13  C    1.187208
    14  H    0.203402
    15  C   -0.177378
    16  C   -0.575063
    17  C   -0.442649
    18  H    0.225758
    19  C   -0.284848
    20  H    0.213744
    21  C   -0.209750
    22  C   -0.539489
    23  C   -0.479662
    24  H    0.214048
    25  C   -0.354635
    26  H    0.193162
    27  C   -0.323949
    28  H    0.215812
    29  H    0.221871
    30  C   -0.443779
    31  H    0.211527
    32  C   -0.370515
    33  H    0.197308
    34  C   -0.402617
    35  H    0.218892
    36  H    0.223744
    37  H    0.198410
    38  C   -0.408592
    39  H    0.220001
    40  H    0.223219
    41  H    0.196234
    42  H    0.195840
 Sum of Mulliken charges =  -0.00000
 Mulliken charges with hydrogens summed into heavy atoms:
               1
     1  C    1.307116
     2  C   -1.147496
     3  C   -1.270426
     4  C    0.934695
     6  C    0.738452
     7  C    0.897132
     9  C   -1.334805
    10  C    1.184487
    11  C    0.060458
    12  C   -0.273964
    13  C    1.187208
    15  C    0.036670
    16  C   -0.381900
    17  C   -0.226837
    19  C   -0.062978
    21  C    0.001776
    22  C   -0.342181
    23  C   -0.260769
    25  C   -0.130891
    27  C   -0.125539
    30  C   -0.223778
    32  C   -0.147296
    34  C   -0.206384
    38  C   -0.212752
 Electronic spatial extent (au):  <R**2>=          10005.9581
 Charge=             -0.0000 electrons
 Dipole moment (field-independent basis, Debye):
    X=             -0.0250    Y=              0.0032    Z=             -0.0033  Tot=              0.0254
 Quadrupole moment (field-independent basis, Debye-Ang):
   XX=           -126.6152   YY=           -130.6590   ZZ=           -137.1507
   XY=              0.0858   XZ=              6.3683   YZ=              1.0789
 Traceless Quadrupole moment (field-independent basis, Debye-Ang):
   XX=              4.8598   YY=              0.8160   ZZ=             -5.6757
   XY=              0.0858   XZ=              6.3683   YZ=              1.0789
 Octapole moment (field-independent basis, Debye-Ang**2):
  XXX=            -33.6669  YYY=             -0.0428  ZZZ=              2.2177  XYY=             54.6165
  XXY=             -0.7041  XXZ=             31.5850  XZZ=            -20.5688  YZZ=              0.7470
  YYZ=            -34.0279  XYZ=             -5.6405
 Hexadecapole moment (field-independent basis, Debye-Ang**3):
 XXXX=          -6268.8333 YYYY=          -6140.2578 ZZZZ=           -628.2147 XXXY=              5.2031
 XXXZ=            115.6399 YYYX=             -0.8624 YYYZ=             -6.5847 ZZZX=              9.2231
 ZZZY=              8.8003 XXYY=          -2153.9743 XXZZ=          -1165.1000 YYZZ=          -1239.1027
 XXYZ=             26.3103 YYXZ=             38.2482 ZZXY=             -1.9833
 N-N= 1.730576758738D+03 E-N=-5.607664078036D+03  KE= 9.212948393544D+02
 No NMR shielding tensors so no spin-rotation constants.
 Leave Link  601 at Mon Nov 14 15:04:31 2022, MaxMem= 16106127360 cpu:              10.3 elap:               0.4
 (Enter /opt/ap/G16/B01/g16/l9999.exe)
 1\1\GINC-N61\SP\RwB97XD\6-311++G(d,p)\C24H18\ROOT\14-Nov-2022\0\\#P wB
 97XD/6-311++G(d,p) scf=maxcycle=512\\_conf002.gjf nmol_natom 1_42\\0,1
 \C\C,1,1.39412829\C,1,1.39435449,2,118.86443127\C,2,1.39416084,1,121.1
 529487,3,0.03668482,0\H,2,1.08488355,1,119.42236619,3,-179.97409048,0\
 C,1,1.48467131,2,120.55714816,4,179.25839056,0\C,3,1.39437784,1,121.11
 776116,2,-0.05351271,0\H,3,1.08487775,1,119.41869036,2,177.23008049,0\
 C,4,1.39432447,2,118.86473838,1,0.01008406,0\C,4,1.48466627,2,120.5464
 188,1,179.19454736,0\C,6,1.3968498,1,120.7843492,2,-80.,0\C,6,1.396868
 2,1,120.67653841,2,100.,0\C,7,1.48449863,3,120.56496838,1,-179.9632580
 4,0\H,9,1.0848792,4,119.41824946,2,177.22245984,0\C,10,1.39685361,4,12
 0.76946845,2,-42.52368674,0\C,10,1.39686289,4,120.69448769,2,137.43107
 516,0\C,11,1.38888939,6,120.7380073,1,179.94058542,0\H,11,1.0847641,6,
 119.46912378,1,-1.41050605,0\C,12,1.38882428,6,120.76493111,1,-179.950
 82712,0\H,12,1.08482758,6,119.44182626,1,-1.23602505,0\C,13,1.39682899
 ,7,120.74134419,3,42.89023273,0\C,13,1.39683158,7,120.7379111,3,-137.1
 2494058,0\C,15,1.38888263,10,120.742191,4,179.9460119,0\H,15,1.0847633
 4,10,119.47085903,4,-1.40606944,0\C,16,1.38886088,10,120.76338989,4,-1
 79.95592713,0\H,16,1.08483431,10,119.44215232,4,-1.23439681,0\C,17,1.3
 9007919,11,120.20743432,6,0.00349958,0\H,17,1.0843506,11,119.71318733,
 6,179.5011609,0\H,19,1.08435858,12,119.73823132,6,179.53683762,0\C,21,
 1.38882373,13,120.76699356,7,179.99297883,0\H,21,1.0847938,13,119.4352
 623,7,1.32183327,0\C,22,1.38881869,13,120.76647403,7,-179.97118338,0\H
 ,22,1.08479982,13,119.43203605,7,1.34657928,0\C,23,1.39007007,15,120.2
 0732995,10,0.00573957,0\H,23,1.08434813,15,119.71220819,10,179.5072436
 8,0\H,25,1.08436328,16,119.73539424,10,179.53636455,0\H,27,1.08412515,
 17,120.21790854,11,179.98397203,0\C,30,1.39008059,21,120.18795226,13,-
 0.02169059,0\H,30,1.08435324,21,119.73787119,13,-179.52151214,0\H,32,1
 .0843543,22,119.737043,13,-179.52886928,0\H,34,1.08412314,23,120.22152
 803,15,179.98800213,0\H,38,1.08411439,30,120.21547163,21,-179.98600656
 ,0\\Version=ES64L-G16RevB.01\State=1-A\HF=-925.3092729\RMSD=3.788e-09\
 Dipole=-0.0090943,0.0015827,-0.0038743\Quadrupole=2.6086399,-3.9278949
 ,1.319255,-3.8663134,1.2000945,-3.2099011\PG=C01 [X(C24H18)]\\@


 I DO NOT DEFINE TIME, SPACE, PLACE, AND MOTION, AS BEING WELL KNOWN TO ALL.
                                            -- NEWTON (1642-1726), PRINCIPIA
 Job cpu time:       0 days  1 hours 24 minutes 13.0 seconds.
 Elapsed time:       0 days  0 hours  2 minutes 39.6 seconds.
 File lengths (MBytes):  RWF=    224 Int=      0 D2E=      0 Chk=     26 Scr=      1
 Normal termination of Gaussian 16 at Mon Nov 14 15:04:31 2022.
