 Entering Gaussian System, Link 0=g16
 Input=_conf024.gjf
 Output=_conf024.log
 Initial command:
 /opt/ap/G16/B01/g16/l1.exe "/tmp2/scr/Gau-21981.inp" -scrdir="/tmp2/scr/"
 Entering Link 1 = /opt/ap/G16/B01/g16/l1.exe PID=     21982.
  
 Copyright (c) 1988-2017, Gaussian, Inc.  All Rights Reserved.
  
 This is part of the Gaussian(R) 16 program.  It is based on
 the Gaussian(R) 09 system (copyright 2009, Gaussian, Inc.),
 the Gaussian(R) 03 system (copyright 2003, Gaussian, Inc.),
 the Gaussian(R) 98 system (copyright 1998, Gaussian, Inc.),
 the Gaussian(R) 94 system (copyright 1995, Gaussian, Inc.),
 the Gaussian 92(TM) system (copyright 1992, Gaussian, Inc.),
 the Gaussian 90(TM) system (copyright 1990, Gaussian, Inc.),
 the Gaussian 88(TM) system (copyright 1988, Gaussian, Inc.),
 the Gaussian 86(TM) system (copyright 1986, Carnegie Mellon
 University), and the Gaussian 82(TM) system (copyright 1983,
 Carnegie Mellon University). Gaussian is a federally registered
 trademark of Gaussian, Inc.
  
 This software contains proprietary and confidential information,
 including trade secrets, belonging to Gaussian, Inc.
  
 This software is provided under written license and may be
 used, copied, transmitted, or stored only in accord with that
 written license.
  
 The following legend is applicable only to US Government
 contracts under FAR:
  
                    RESTRICTED RIGHTS LEGEND
  
 Use, reproduction and disclosure by the US Government is
 subject to restrictions as set forth in subparagraphs (a)
 and (c) of the Commercial Computer Software - Restricted
 Rights clause in FAR 52.227-19.
  
 Gaussian, Inc.
 340 Quinnipiac St., Bldg. 40, Wallingford CT 06492
  
  
 ---------------------------------------------------------------
 Warning -- This program may not be used in any manner that
 competes with the business of Gaussian, Inc. or will provide
 assistance to any competitor of Gaussian, Inc.  The licensee
 of this program is prohibited from giving any competitor of
 Gaussian, Inc. access to this program.  By using this program,
 the user acknowledges that Gaussian, Inc. is engaged in the
 business of creating and licensing software in the field of
 computational chemistry and represents and warrants to the
 licensee that it is not a competitor of Gaussian, Inc. and that
 it will not use this program in any manner prohibited above.
 ---------------------------------------------------------------
  

 Cite this work as:
 Gaussian 16, Revision B.01,
 M. J. Frisch, G. W. Trucks, H. B. Schlegel, G. E. Scuseria, 
 M. A. Robb, J. R. Cheeseman, G. Scalmani, V. Barone, 
 G. A. Petersson, H. Nakatsuji, X. Li, M. Caricato, A. V. Marenich, 
 J. Bloino, B. G. Janesko, R. Gomperts, B. Mennucci, H. P. Hratchian, 
 J. V. Ortiz, A. F. Izmaylov, J. L. Sonnenberg, D. Williams-Young, 
 F. Ding, F. Lipparini, F. Egidi, J. Goings, B. Peng, A. Petrone, 
 T. Henderson, D. Ranasinghe, V. G. Zakrzewski, J. Gao, N. Rega, 
 G. Zheng, W. Liang, M. Hada, M. Ehara, K. Toyota, R. Fukuda, 
 J. Hasegawa, M. Ishida, T. Nakajima, Y. Honda, O. Kitao, H. Nakai, 
 T. Vreven, K. Throssell, J. A. Montgomery, Jr., J. E. Peralta, 
 F. Ogliaro, M. J. Bearpark, J. J. Heyd, E. N. Brothers, K. N. Kudin, 
 V. N. Staroverov, T. A. Keith, R. Kobayashi, J. Normand, 
 K. Raghavachari, A. P. Rendell, J. C. Burant, S. S. Iyengar, 
 J. Tomasi, M. Cossi, J. M. Millam, M. Klene, C. Adamo, R. Cammi, 
 J. W. Ochterski, R. L. Martin, K. Morokuma, O. Farkas, 
 J. B. Foresman, and D. J. Fox, Gaussian, Inc., Wallingford CT, 2016.
 
 ******************************************
 Gaussian 16:  ES64L-G16RevB.01 20-Dec-2017
                14-Nov-2022 
 ******************************************
 %nprocshared=32
 Will use up to   32 processors via shared memory.
 %mem=120GB
 %chk=_conf024.chk
 ----------------------------------------
 #P wB97XD/6-311++G(d,p) scf=maxcycle=512
 ----------------------------------------
 1/38=1,172=1/1;
 2/12=2,17=6,18=5,40=1/2;
 3/5=4,6=6,7=1111,11=2,25=1,30=1,74=-58/1,2,3;
 4//1;
 5/5=2,7=512,38=5/2;
 6/7=2,8=2,9=2,10=2,28=1/1;
 99/5=1,9=1/99;
 Leave Link    1 at Mon Nov 14 15:17:02 2022, MaxMem= 16106127360 cpu:               2.4 elap:               0.1
 (Enter /opt/ap/G16/B01/g16/l101.exe)
 ----------------------------
 _conf024.gjf nmol_natom 1_42
 ----------------------------
 Symbolic Z-matrix:
 Charge =  0 Multiplicity = 1
 C
 C                    1     1.39413 
 C                    1     1.39435  2     118.86443 
 C                    2     1.39416  1     121.15295  3     0.03668  0
 H                    2     1.08488  1     119.42237  3    -179.97409  0
 C                    1     1.48467  2     120.55715  4     179.25839  0
 C                    3     1.39438  1     121.11776  2    -0.05351  0
 H                    3     1.08488  1     119.41869  2     177.23008  0
 C                    4     1.39432  2     118.86474  1     0.01008  0
 C                    4     1.48467  2     120.54642  1     179.19455  0
 C                    6     1.39685  1     120.78435  2     30.      0
 C                    6     1.39687  1     120.67654  2    -150.     0
 C                    7     1.4845   3     120.56497  1    -179.96326  0
 H                    9     1.08488  4     119.41825  2     177.22246  0
 C                    10    1.39685  4     120.76947  2    -42.52369  0
 C                    10    1.39686  4     120.69449  2     137.43108  0
 C                    11    1.38889  6     120.73801  1     179.94059  0
 H                    11    1.08476  6     119.46912  1    -1.41051  0
 C                    12    1.38882  6     120.76493  1    -179.95083  0
 H                    12    1.08483  6     119.44183  1    -1.23603  0
 C                    13    1.39683  7     120.74134  3     42.89023  0
 C                    13    1.39683  7     120.73791  3    -137.12494  0
 C                    15    1.38888  10    120.74219  4     179.94601  0
 H                    15    1.08476  10    119.47086  4    -1.40607  0
 C                    16    1.38886  10    120.76339  4    -179.95593  0
 H                    16    1.08483  10    119.44215  4    -1.2344   0
 C                    17    1.39008  11    120.20743  6     0.0035   0
 H                    17    1.08435  11    119.71319  6     179.50116  0
 H                    19    1.08436  12    119.73823  6     179.53684  0
 C                    21    1.38882  13    120.76699  7     179.99298  0
 H                    21    1.08479  13    119.43526  7     1.32183  0
 C                    22    1.38882  13    120.76647  7    -179.97118  0
 H                    22    1.0848   13    119.43204  7     1.34658  0
 C                    23    1.39007  15    120.20733  10    0.00574  0
 H                    23    1.08435  15    119.71221  10    179.50724  0
 H                    25    1.08436  16    119.73539  10    179.53636  0
 H                    27    1.08413  17    120.21791  11    179.98397  0
 C                    30    1.39008  21    120.18795  13   -0.02169  0
 H                    30    1.08435  21    119.73787  13   -179.52151  0
 H                    32    1.08435  22    119.73704  13   -179.52887  0
 H                    34    1.08412  23    120.22153  15    179.988  0
 H                    38    1.08411  30    120.21547  21   -179.98601  0
 
 ITRead=  0  0  0  0  0  0  0  0  0  0  0  0  0  0  0  0  0  0  0  0
 ITRead=  0  0  0  0  0  0  0  0  0  0  0  0  0  0  0  0  0  0  0  0
 ITRead=  0  0
 MicOpt= -1 -1 -1 -1 -1 -1 -1 -1 -1 -1 -1 -1 -1 -1 -1 -1 -1 -1 -1 -1
 MicOpt= -1 -1 -1 -1 -1 -1 -1 -1 -1 -1 -1 -1 -1 -1 -1 -1 -1 -1 -1 -1
 MicOpt= -1 -1
 NAtoms=     42 NQM=       42 NQMF=       0 NMMI=      0 NMMIF=      0
                NMic=       0 NMicF=      0.
                    Isotopes and Nuclear Properties:
 (Nuclear quadrupole moments (NQMom) in fm**2, nuclear magnetic moments (NMagM)
  in nuclear magnetons)

  Atom         1           2           3           4           5           6           7           8           9          10
 IAtWgt=          12          12          12          12           1          12          12           1          12          12
 AtmWgt=  12.0000000  12.0000000  12.0000000  12.0000000   1.0078250  12.0000000  12.0000000   1.0078250  12.0000000  12.0000000
 NucSpn=           0           0           0           0           1           0           0           1           0           0
 AtZEff=  -0.0000000  -0.0000000  -0.0000000  -0.0000000  -0.0000000  -0.0000000  -0.0000000  -0.0000000  -0.0000000  -0.0000000
 NQMom=    0.0000000   0.0000000   0.0000000   0.0000000   0.0000000   0.0000000   0.0000000   0.0000000   0.0000000   0.0000000
 NMagM=    0.0000000   0.0000000   0.0000000   0.0000000   2.7928460   0.0000000   0.0000000   2.7928460   0.0000000   0.0000000
 AtZNuc=   6.0000000   6.0000000   6.0000000   6.0000000   1.0000000   6.0000000   6.0000000   1.0000000   6.0000000   6.0000000

  Atom        11          12          13          14          15          16          17          18          19          20
 IAtWgt=          12          12          12           1          12          12          12           1          12           1
 AtmWgt=  12.0000000  12.0000000  12.0000000   1.0078250  12.0000000  12.0000000  12.0000000   1.0078250  12.0000000   1.0078250
 NucSpn=           0           0           0           1           0           0           0           1           0           1
 AtZEff=  -0.0000000  -0.0000000  -0.0000000  -0.0000000  -0.0000000  -0.0000000  -0.0000000  -0.0000000  -0.0000000  -0.0000000
 NQMom=    0.0000000   0.0000000   0.0000000   0.0000000   0.0000000   0.0000000   0.0000000   0.0000000   0.0000000   0.0000000
 NMagM=    0.0000000   0.0000000   0.0000000   2.7928460   0.0000000   0.0000000   0.0000000   2.7928460   0.0000000   2.7928460
 AtZNuc=   6.0000000   6.0000000   6.0000000   1.0000000   6.0000000   6.0000000   6.0000000   1.0000000   6.0000000   1.0000000

  Atom        21          22          23          24          25          26          27          28          29          30
 IAtWgt=          12          12          12           1          12           1          12           1           1          12
 AtmWgt=  12.0000000  12.0000000  12.0000000   1.0078250  12.0000000   1.0078250  12.0000000   1.0078250   1.0078250  12.0000000
 NucSpn=           0           0           0           1           0           1           0           1           1           0
 AtZEff=  -0.0000000  -0.0000000  -0.0000000  -0.0000000  -0.0000000  -0.0000000  -0.0000000  -0.0000000  -0.0000000  -0.0000000
 NQMom=    0.0000000   0.0000000   0.0000000   0.0000000   0.0000000   0.0000000   0.0000000   0.0000000   0.0000000   0.0000000
 NMagM=    0.0000000   0.0000000   0.0000000   2.7928460   0.0000000   2.7928460   0.0000000   2.7928460   2.7928460   0.0000000
 AtZNuc=   6.0000000   6.0000000   6.0000000   1.0000000   6.0000000   1.0000000   6.0000000   1.0000000   1.0000000   6.0000000

  Atom        31          32          33          34          35          36          37          38          39          40
 IAtWgt=           1          12           1          12           1           1           1          12           1           1
 AtmWgt=   1.0078250  12.0000000   1.0078250  12.0000000   1.0078250   1.0078250   1.0078250  12.0000000   1.0078250   1.0078250
 NucSpn=           1           0           1           0           1           1           1           0           1           1
 AtZEff=  -0.0000000  -0.0000000  -0.0000000  -0.0000000  -0.0000000  -0.0000000  -0.0000000  -0.0000000  -0.0000000  -0.0000000
 NQMom=    0.0000000   0.0000000   0.0000000   0.0000000   0.0000000   0.0000000   0.0000000   0.0000000   0.0000000   0.0000000
 NMagM=    2.7928460   0.0000000   2.7928460   0.0000000   2.7928460   2.7928460   2.7928460   0.0000000   2.7928460   2.7928460
 AtZNuc=   1.0000000   6.0000000   1.0000000   6.0000000   1.0000000   1.0000000   1.0000000   6.0000000   1.0000000   1.0000000

  Atom        41          42
 IAtWgt=           1           1
 AtmWgt=   1.0078250   1.0078250
 NucSpn=           1           1
 AtZEff=  -0.0000000  -0.0000000
 NQMom=    0.0000000   0.0000000
 NMagM=    2.7928460   2.7928460
 AtZNuc=   1.0000000   1.0000000
 Leave Link  101 at Mon Nov 14 15:17:02 2022, MaxMem= 16106127360 cpu:               5.6 elap:               0.2
 (Enter /opt/ap/G16/B01/g16/l202.exe)
                          Input orientation:                          
 ---------------------------------------------------------------------
 Center     Atomic      Atomic             Coordinates (Angstroms)
 Number     Number       Type             X           Y           Z
 ---------------------------------------------------------------------
      1          6           0        0.000000    0.000000    0.000000
      2          6           0        0.000000    0.000000    1.394128
      3          6           0        1.221126    0.000000   -0.673109
      4          6           0        1.193108    0.000764    2.115362
      5          1           0       -0.944957   -0.000427    1.927071
      6          6           0       -1.278366   -0.017366   -0.754803
      7          6           0        2.428476    0.001115    0.024455
      8          1           0        1.232154   -0.045667   -1.756969
      9          6           0        2.400843    0.001752    1.418572
     10          6           0        1.177445    0.018728    3.599837
     11          6           0       -2.430401    0.567056   -0.223337
     12          6           0       -1.354939   -0.619158   -2.013066
     13          6           0        3.721572    0.001921   -0.704680
     14          1           0        3.334061    0.048144    1.969857
     15          6           0        0.290794    0.844275    4.295193
     16          6           0        2.049080   -0.790881    4.331965
     17          6           0       -3.625491    0.551332   -0.930815
     18          1           0       -2.393780    1.018301    0.762437
     19          6           0       -2.549569   -0.635571   -2.721178
     20          1           0       -0.464357   -1.059700   -2.448539
     21          6           0        3.910862    0.818865   -1.821777
     22          6           0        4.776237   -0.814044   -0.288725
     23          6           0        0.275860    0.859807    5.683909
     24          1           0       -0.377402    1.495584    3.742000
     25          6           0        2.035025   -0.775886    5.720674
     26          1           0        2.729408   -1.453102    3.807101
     27          6           0       -3.689288   -0.049505   -2.182711
     28          1           0       -4.511725    1.002868   -0.498934
     29          1           0       -2.588347   -1.100739   -3.699927
     30          6           0        5.120444    0.820149   -2.504230
     31          1           0        3.109266    1.474569   -2.144691
     32          6           0        5.986440   -0.813321   -0.970068
     33          1           0        4.638168   -1.470412    0.563864
     34          6           0        1.147946    0.049642    6.401818
     35          1           0       -0.413890    1.513063    6.206701
     36          1           0        2.713797   -1.416787    6.272362
     37          1           0       -4.622115   -0.062105   -2.734982
     38          6           0        6.162883    0.003944   -2.080611
     39          1           0        5.251831    1.466740   -3.364741
     40          1           0        6.791448   -1.459089   -0.637249
     41          1           0        1.136620    0.061726    7.485815
     42          1           0        7.107346    0.004761   -2.612865
 ---------------------------------------------------------------------
                    Distance matrix (angstroms):
                    1          2          3          4          5
     1  C    0.000000
     2  C    1.394128   0.000000
     3  C    1.394354   2.400962   0.000000
     4  C    2.428634   1.394161   2.788612   0.000000
     5  H    2.146287   1.084884   3.384206   2.146341   0.000000
     6  C    1.484671   2.500485   2.500887   3.787659   2.702572
     7  C    2.428599   2.788100   1.394378   2.428585   3.872983
     8  H    2.146445   3.383741   1.084878   3.872806   4.279487
     9  C    2.788619   2.400968   2.401430   1.394324   3.384222
    10  C    3.787552   2.500376   4.273210   1.484666   2.702426
    11  C    2.505649   2.973986   3.722565   4.349714   2.674478
    12  C    2.504326   3.718627   2.968998   4.890885   4.009437
    13  C    3.787700   4.272598   2.500646   3.787581   5.357482
    14  H    3.872805   3.383747   3.384092   2.146415   4.279508
    15  C    4.387032   3.035381   5.124680   2.505463   2.801537
    16  C    4.856969   3.668120   5.134371   2.504540   3.920790
    17  C    3.783460   4.342063   4.884678   5.727234   3.956919
    18  H    2.710799   2.676967   4.020606   3.966302   2.119732
    19  C    3.782732   4.882622   4.337819   6.148550   4.958266
    20  H    2.708124   4.013064   2.667577   4.970006   4.527582
    21  C    4.391384   5.129076   3.037212   4.853507   6.189029
    22  C    4.853707   5.129045   3.667320   4.391169   6.189006
    23  C    5.755188   4.383786   6.484171   3.783362   4.042800
    24  H    4.047440   2.809218   4.928007   2.710524   2.419532
    25  C    6.121229   4.843792   6.491910   3.782894   4.886007
    26  H    4.904609   3.922195   4.945574   2.708491   4.375585
    27  C    4.286902   5.138782   5.137462   6.504902   4.942071
    28  H    4.648692   4.994506   5.822513   6.354830   4.428761
    29  H    4.647647   5.818983   4.988521   7.023553   5.964438
    30  C    5.758711   6.487587   4.385239   6.118495   7.556379
    31  H    4.054822   4.936104   2.811579   4.898143   5.932249
    32  C    6.118822   6.487555   4.843334   5.758354   7.556353
    33  H    4.898230   4.935996   3.920254   4.054620   5.932156
    34  C    6.504116   5.137821   7.075480   4.286973   4.940255
    35  H    6.401859   5.061770   7.231488   4.648499   4.570330
    36  H    6.979577   5.759266   7.243957   4.647859   5.854410
    37  H    5.371027   6.198174   6.196664   7.572754   5.938015
    38  C    6.504621   7.074953   5.138292   6.504219   8.159837
    39  H    6.407382   7.237395   5.063871   6.975231   8.279857
    40  H    6.975586   7.237348   5.758361   6.406985   8.279819
    41  H    7.571865   6.197125   8.159595   5.371096   5.936031
    42  H    7.572414   8.159067   6.197601   7.571945   9.243951
                    6          7          8          9         10
     6  C    0.000000
     7  C    3.787910   0.000000
     8  H    2.703303   2.146356   0.000000
     9  C    4.273231   1.394392   3.384102   0.000000
    10  C    4.999520   3.787973   5.357472   2.500981   0.000000
    11  C    1.396850   4.897996   4.017681   5.133843   5.285250
    12  C    1.396868   4.341711   2.662241   5.125189   6.190682
    13  C    5.000226   1.484499   2.703105   2.500505   5.000173
    14  H    5.357476   2.146366   4.279725   1.084879   2.703459
    15  C    5.357906   4.849723   6.189251   3.665665   1.396854
    16  C    6.127433   4.396117   6.188524   3.039714   1.396863
    17  C    2.421445   6.153519   4.963431   6.491407   6.624097
    18  H    2.149133   4.983316   4.541677   4.944926   4.669436
    19  C    2.421728   5.720559   3.947038   6.484619   7.367087
    20  H    2.148909   3.950887   2.093963   4.928550   6.359353
    21  C    5.363376   2.504946   2.815510   3.667109   6.124188
    22  C    6.124553   2.504906   3.912375   3.036921   5.363369
    23  C    6.681472   6.115597   7.556523   4.841994   2.421492
    24  H    4.829285   4.891475   5.933362   3.917716   2.149154
    25  C    7.313393   5.762417   7.555989   4.387097   2.421736
    26  H    6.239756   4.063707   5.931401   2.815959   2.148914
    27  C    2.802231   6.503935   4.939824   7.075420   7.558281
    28  H    3.400141   7.031630   5.972790   7.243111   7.080615
    29  H    3.400515   6.344573   4.414124   7.232326   8.289810
    30  C    6.686306   3.783088   4.053003   4.842972   7.310892
    31  H    4.838282   2.709194   2.446425   3.920191   6.233057
    32  C    7.311449   3.783053   4.879728   4.384797   6.686012
    33  H    6.233426   2.709077   4.360860   2.811302   4.838519
    34  C    7.557031   6.504835   8.159779   5.138559   2.802307
    35  H    7.179977   6.970308   8.280044   5.756123   3.400165
    36  H    8.202243   6.413127   8.279214   5.066504   3.400510
    37  H    3.886356   7.571612   5.935422   8.159536   8.589026
    38  C    7.558466   4.286853   4.941589   5.137824   7.557929
    39  H    7.187337   4.648230   4.585860   5.757987   8.197725
    40  H    8.198432   4.648180   5.844424   5.063385   7.187062
    41  H    8.587561   7.572613   9.243902   6.197846   3.886431
    42  H    8.589123   5.370968   5.937422   6.197069   8.588456
                   11         12         13         14         15
    11  C    0.000000
    12  C    2.401427   0.000000
    13  C    6.196598   5.279069   0.000000
    14  H    6.189377   6.188351   2.702860   0.000000
    15  C    5.281937   6.681632   6.121971   3.911840   0.000000
    16  C    6.531502   7.202517   5.365963   2.816859   2.401387
    17  C    1.388889   2.774296   7.371046   7.556617   6.537145
    18  H    1.084764   3.385835   6.370478   5.933568   4.440449
    19  C    2.774838   1.388824   6.618146   7.555817   7.712786
    20  H    3.385733   1.084828   4.657261   5.931064   7.047929
    21  C    6.544465   5.461974   1.396829   3.911930   7.107943
    22  C    7.338075   6.372021   1.396832   2.815037   6.624314
    23  C    6.504237   8.005639   7.309101   4.879095   1.388883
    24  H    4.560796   6.208743   6.229413   4.360107   1.084763
    25  C    7.554786   8.445540   6.688393   4.054029   2.774755
    26  H    6.851941   7.159029   4.843310   2.448430   3.385708
    27  C    2.409169   2.408832   7.556988   8.159705   7.655269
    28  H    2.144247   3.858608   8.296469   8.280264   6.787709
    29  H    3.859166   2.144462   7.071240   8.278967   8.717481
    30  C    7.891880   6.651573   2.421718   4.878996   8.340159
    31  H    5.933219   4.932559   2.148776   4.360587   7.057844
    32  C    8.561907   7.417640   2.421709   4.052208   7.931644
    33  H    7.398353   6.578946   2.148749   2.446125   6.179018
    34  C    7.547514   8.804658   7.558317   4.941800   2.409154
    35  H    6.804897   8.543799   8.194680   5.843284   2.144229
    36  H    8.520123   9.264941   7.190790   4.587189   3.859086
    37  H    3.392317   3.392036   8.587393   9.243830   8.624475
    38  C    8.809716   7.543903   2.802355   4.940696   8.708529
    39  H    8.348325   7.058853   3.400487   5.843645   9.147346
    40  H    9.450877   8.304335   3.400476   4.585006   8.478973
    41  H    8.509407   9.843790   8.588933   5.937569   3.392325
    42  H    9.848585   8.506427   3.886469   5.936405   9.741223
                   16         17         18         19         20
    16  C    0.000000
    17  C    7.854880   0.000000
    18  H    5.979438   2.145291   0.000000
    19  C    8.421314   2.402446   3.859422   0.000000
    20  H    7.236357   3.858974   4.283822   2.145303   0.000000
    21  C    6.627673   7.593550   6.816630   6.682924   4.802539
    22  C    5.365510   8.536133   7.474730   7.721147   5.673533
    23  C    2.774316   7.685718   5.601159   8.992480   8.388631
    24  H    3.385823   5.768613   3.629239   7.143725   6.697747
    25  C    1.388861   8.834323   6.886039   9.607448   8.547719
    26  H    1.084834   8.176206   6.451734   8.435306   7.034766
    27  C    8.713181   1.390079   3.390052   1.390101   3.389888
    28  H    8.342618   1.084351   2.465154   3.387168   4.943312
    29  H    9.279711   3.387180   4.943772   1.084359   2.465561
    30  C    7.665654   8.890403   8.195971   7.809947   5.892956
    31  H    6.942862   6.905274   6.240440   6.066913   4.391540
    32  C    6.604154   9.708400   8.751257   8.715585   6.622640
    33  H    4.622091   8.637684   7.461999   7.946825   5.939615
    34  C    2.408903   8.763841   6.729394   9.867634   9.064159
    35  H    3.858628   7.885647   5.814186   9.427872   9.029664
    36  H    2.144469   9.795193   7.897865  10.449741   9.288826
    37  H    9.745650   2.150485   4.285405   2.150465   4.285346
    38  C    7.660043   9.870863   9.073496   8.759345   6.722130
    39  H    8.636768   9.250342   8.700004   8.105290   6.316418
    40  H    6.901424  10.613227   9.615872   9.606016   7.489125
    41  H    3.392092   9.682823   7.653925  10.874600  10.124826
    42  H    8.628428  10.877583  10.133673   9.678727   7.647925
                   21         22         23         24         25
    21  C    0.000000
    22  C    2.401148   0.000000
    23  C    8.339678   7.663388   0.000000
    24  H    7.057108   6.938381   2.145221   0.000000
    25  C    7.934139   6.605193   2.402396   3.859344   0.000000
    26  H    6.184005   4.623169   3.858996   4.283837   2.145356
    27  C    7.658108   8.708434   8.856239   6.961185   9.785647
    28  H    8.527821   9.466340   7.821060   5.943140   9.203664
    29  H    7.032215   8.121305  10.005188   8.186052  10.498991
    30  C    1.388824   2.774442   9.514051   8.348527   8.928391
    31  H    1.084794   3.385432   8.348239   6.841814   8.251212
    32  C    2.774430   1.388819   8.926672   8.248218   7.770528
    33  H    3.385417   1.084800   7.118603   6.637291   5.818196
    34  C    8.709358   7.659884   1.390070   3.389995   1.390095
    35  H    9.145591   8.633852   1.084348   2.465033   3.387137
    36  H    8.482109   6.903971   3.387136   4.943698   1.084363
    37  H    8.626804   9.740565   9.783548   7.899068  10.785412
    38  C    2.408878   2.408889   9.781478   8.882743   8.860440
    39  H    2.144453   3.858761  10.344405   9.066139   9.895553
    40  H    3.858751   2.144441   9.369482   8.905073   7.969536
    41  H    9.741711   8.628862   2.150513   4.285366   2.150453
    42  H    3.392063   3.392069  10.781315   9.931179   9.787018
                   26         27         28         29         30
    26  H    0.000000
    27  C    8.890872   0.000000
    28  H    8.775405   2.149185   0.000000
    29  H    9.206419   2.149210   4.286129   0.000000
    30  C    7.121630   8.858388   9.840389   8.033988   0.000000
    31  H    6.643746   6.967394   7.810923   6.443117   2.145313
    32  C    5.817122   9.781290  10.664519   9.003428   2.402462
    33  H    3.763276   8.883084   9.537672   8.398756   3.859075
    34  C    3.389959   9.854076   8.975572  10.831829   9.782234
    35  H    4.943333   9.140683   7.875156  10.473848  10.343562
    36  H    2.465578  10.693793  10.193789  11.298635   9.371467
    37  H    9.938743   1.084125   2.479166   2.479130   9.785145
    38  C    6.969712   9.852845  10.837288   8.968085   1.390081
    39  H    8.143918   9.145480  10.186022   8.256676   1.084353
    40  H    6.021000  10.687432  11.569014   9.873650   3.387152
    41  H    4.285396  10.806579   9.825770  11.846836  10.781792
    42  H    7.906179  10.805336  11.851908   9.818874   2.150451
                   31         32         33         34         35
    31  H    0.000000
    32  C    3.859055   0.000000
    33  H    4.283308   2.145356   0.000000
    34  C    8.883693   8.860047   6.969499   0.000000
    35  H    9.064207   9.893547   8.140394   2.149187   0.000000
    36  H    8.908597   7.970392   6.024369   2.149200   4.286112
    37  H    7.904685  10.780569   9.930688  10.806813  10.007197
    38  C    3.389900   1.390094   3.389946   9.854100  10.686951
    39  H    2.465597   3.387150   4.943418  10.688111  11.122726
    40  H    4.943399   1.084354   2.465647   9.147341  10.372571
    41  H    9.931470   9.787155   7.907066   1.084123   2.479233
    42  H    4.285343   2.150458   4.285392  10.806525  11.688828
                   36         37         38         39         40
    36  H    0.000000
    37  H   11.695427   0.000000
    38  C    9.148051  10.805033   0.000000
    39  H   10.374492  10.011432   2.149134   0.000000
    40  H    8.023201  11.688518   2.149152   4.286037   0.000000
    41  H    2.479104  11.732138  10.806626  11.689465  10.013697
    42  H   10.013557  11.730286   1.084114   2.479039   2.479054
                   41         42
    41  H    0.000000
    42  H   11.731844   0.000000
 Stoichiometry    C24H18
 Framework group  C1[X(C24H18)]
 Deg. of freedom   120
 Full point group                 C1      NOp   1
 Largest Abelian subgroup         C1      NOp   1
 Largest concise Abelian subgroup C1      NOp   1
                         Standard orientation:                         
 ---------------------------------------------------------------------
 Center     Atomic      Atomic             Coordinates (Angstroms)
 Number     Number       Type             X           Y           Z
 ---------------------------------------------------------------------
      1          6           0       -0.111994    1.396978   -0.040375
      2          6           0       -1.251421    0.593698   -0.046733
      3          6           0        1.141147    0.787283    0.005835
      4          6           0       -1.154032   -0.796492   -0.007108
      5          1           0       -2.231001    1.058544   -0.082974
      6          6           0       -0.230630    2.875722   -0.099450
      7          6           0        1.266072   -0.600895    0.046421
      8          1           0        2.034439    1.401582   -0.034471
      9          6           0        0.110730   -1.381578    0.039724
     10          6           0       -2.376750   -1.638563    0.003521
     11          6           0       -1.342302    3.525930    0.441478
     12          6           0        0.768162    3.647474   -0.697827
     13          6           0        2.606416   -1.237079    0.096234
     14          1           0        0.196301   -2.460346    0.116541
     15          6           0       -3.475395   -1.293247    0.794050
     16          6           0       -2.453823   -2.793691   -0.778120
     17          6           0       -1.451715    4.909422    0.386770
     18          1           0       -2.137764    2.939868    0.889235
     19          6           0        0.659550    5.030937   -0.753204
     20          1           0        1.647396    3.159312   -1.104641
     21          6           0        3.608726   -0.726609    0.924441
     22          6           0        2.893277   -2.359718   -0.683851
     23          6           0       -4.619370   -2.080802    0.802711
     24          1           0       -3.423634   -0.411562    1.423862
     25          6           0       -3.597274   -3.581974   -0.769964
     26          1           0       -1.617236   -3.064411   -1.413492
     27          6           0       -0.450793    5.667094   -0.210230
     28          1           0       -2.325774    5.396390    0.804742
     29          1           0        1.448363    5.614348   -1.214983
     30          6           0        4.862826   -1.321457    0.971569
     31          1           0        3.395375    0.131481    1.552883
     32          6           0        4.146840   -2.955726   -0.637267
     33          1           0        2.132771   -2.755409   -1.348568
     34          6           0       -4.684549   -3.228121    0.020595
     35          1           0       -5.459472   -1.801427    1.428801
     36          1           0       -3.641967   -4.471158   -1.388994
     37          1           0       -0.536147    6.746997   -0.253258
     38          6           0        5.136391   -2.438529    0.190777
     39          1           0        5.626196   -0.915998    1.626315
     40          1           0        4.353822   -3.822051   -1.255704
     41          1           0       -5.577317   -3.843137    0.027328
     42          1           0        6.115114   -2.903357    0.227387
 ---------------------------------------------------------------------
 Rotational constants (GHZ):           0.1991815           0.1977183           0.1033072
 Leave Link  202 at Mon Nov 14 15:17:02 2022, MaxMem= 16106127360 cpu:               0.3 elap:               0.0
 (Enter /opt/ap/G16/B01/g16/l301.exe)
 Standard basis: 6-311++G(d,p) (5D, 7F)
 Ernie: Thresh=  0.10000D-02 Tol=  0.10000D-05 Strict=F.
 There are   678 symmetry adapted cartesian basis functions of A   symmetry.
 There are   654 symmetry adapted basis functions of A   symmetry.
   654 basis functions,  1026 primitive gaussians,   678 cartesian basis functions
    81 alpha electrons       81 beta electrons
       nuclear repulsion energy      1733.5647755247 Hartrees.
 IExCor= 4639 DFT=T Ex+Corr=wB97XD ExCW=0 ScaHFX=  1.000000
 ScaDFX=  1.000000  1.000000  1.000000  1.000000 ScalE2=  1.000000  1.000000
 IRadAn=      5 IRanWt=     -1 IRanGd=            0 ICorTp=0 IEmpDi=121
 HFx  wShort=  0.000000 wLong=  0.200000 cFull=  0.222036 cShort=  0.000000 cLong=  0.777964
 DFx  wShort=  0.000000 wLong=  0.200000 cFull=  0.000000 cShort=  0.000000 cLong=  1.000000
 NAtoms=   42 NActive=   42 NUniq=   42 SFac= 1.00D+00 NAtFMM=   60 NAOKFM=F Big=F
 Integral buffers will be    131072 words long.
 Raffenetti 2 integral format.
 Two-electron integral symmetry is turned on.
 R6Disp:  Grimme-D2 Dispersion energy=       -0.0289038848 Hartrees.
 Nuclear repulsion after empirical dispersion term =     1733.5358716399 Hartrees.
 Leave Link  301 at Mon Nov 14 15:17:02 2022, MaxMem= 16106127360 cpu:               1.3 elap:               0.0
 (Enter /opt/ap/G16/B01/g16/l302.exe)
 NPDir=0 NMtPBC=     1 NCelOv=     1 NCel=       1 NClECP=     1 NCelD=      1
         NCelK=      1 NCelE2=     1 NClLst=     1 CellRange=     0.0.
 One-electron integrals computed using PRISM.
 One-electron integral symmetry used in STVInt
 NBasis=   654 RedAO= T EigKep=  1.16D-06  NBF=   654
 NBsUse=   645 1.00D-06 EigRej=  6.94D-07 NBFU=   645
 Precomputing XC quadrature grid using
 IXCGrd= 4 IRadAn=           5 IRanWt=          -1 IRanGd=           0 AccXCQ= 0.00D+00.
 Generated NRdTot=       0 NPtTot=           0 NUsed=           0 NTot=          32
 NSgBfM=   669   669   669   669   669 MxSgAt=    42 MxSgA2=    42.
 Leave Link  302 at Mon Nov 14 15:17:03 2022, MaxMem= 16106127360 cpu:              21.1 elap:               0.7
 (Enter /opt/ap/G16/B01/g16/l303.exe)
 DipDrv:  MaxL=1.
 Leave Link  303 at Mon Nov 14 15:17:03 2022, MaxMem= 16106127360 cpu:               2.9 elap:               0.1
 (Enter /opt/ap/G16/B01/g16/l401.exe)
 ExpMin= 3.60D-02 ExpMax= 4.56D+03 ExpMxC= 6.82D+02 IAcc=3 IRadAn=         5 AccDes= 0.00D+00
 Harris functional with IExCor= 4639 and IRadAn=       5 diagonalized for initial guess.
 HarFok:  IExCor= 4639 AccDes= 0.00D+00 IRadAn=         5 IDoV= 1 UseB2=F ITyADJ=14
 ICtDFT=  3500011 ScaDFX=  1.000000  1.000000  1.000000  1.000000
 FoFCou: FMM=F IPFlag=           0 FMFlag=      100000 FMFlg1=           0
         NFxFlg=           0 DoJE=T BraDBF=F KetDBF=T FulRan=T
         wScrn=  0.000000 ICntrl=       500 IOpCl=  0 I1Cent=   200000004 NGrid=           0
         NMat0=    1 NMatS0=      1 NMatT0=    0 NMatD0=    1 NMtDS0=    0 NMtDT0=    0
 Petite list used in FoFCou.
 Harris En= -882.967709803451    
 JPrj=0 DoOrth=F DoCkMO=F.
 Leave Link  401 at Mon Nov 14 15:17:05 2022, MaxMem= 16106127360 cpu:              58.6 elap:               1.9
 (Enter /opt/ap/G16/B01/g16/l502.exe)
 Integral symmetry usage will be decided dynamically.
 Closed shell SCF:
 Using DIIS extrapolation, IDIIS=  1040.
 NGot= 16106127360 LenX= 16105179956 LenY= 16104719594
 Requested convergence on RMS density matrix=1.00D-08 within 512 cycles.
 Requested convergence on MAX density matrix=1.00D-06.
 Requested convergence on             energy=1.00D-06.
 No special actions if energy rises.
 Fock matrices will be formed incrementally for  20 cycles.

 Cycle   1  Pass 1  IDiag  1:
 FoFJK:  IHMeth= 1 ICntrl=       0 DoSepK=T KAlg= 0 I1Cent=           0 FoldK=F
 IRaf=         1 NMat=       1 IRICut=       1 DoRegI=T DoRafI=F ISym2E= 0 IDoP0=0 IntGTp=1.
 FoFCou: FMM=F IPFlag=           0 FMFlag=      100000 FMFlg1=           0
         NFxFlg=           0 DoJE=T BraDBF=F KetDBF=F FulRan=T
         wScrn=  0.000000 ICntrl=       500 IOpCl=  0 I1Cent=           0 NGrid=           0
         NMat0=    1 NMatS0=      1 NMatT0=    0 NMatD0=    1 NMtDS0=    0 NMtDT0=    0
 Symmetry not used in FoFCou.
 E= -925.114838470383    
 DIIS: error= 4.34D-02 at cycle   1 NSaved=   1.
 NSaved= 1 IEnMin= 1 EnMin= -925.114838470383     IErMin= 1 ErrMin= 4.34D-02
 ErrMax= 4.34D-02  0.00D+00 EMaxC= 1.00D-01 BMatC= 1.90D+00 BMatP= 1.90D+00
 IDIUse=3 WtCom= 5.66D-01 WtEn= 4.34D-01
 Coeff-Com:  0.100D+01
 Coeff-En:   0.100D+01
 Coeff:      0.100D+01
 Gap=     0.311 Goal=   None    Shift=    0.000
 GapD=    0.311 DampG=1.000 DampE=0.500 DampFc=0.5000 IDamp=-1.
 Damping current iteration by 5.00D-01
 RMSDP=3.91D-02 MaxDP=4.70D+00              OVMax= 4.38D-02

 Cycle   2  Pass 1  IDiag  1:
 RMSU=  6.96D-03    CP:  8.12D-01
 E= -925.213571495203     Delta-E=       -0.098733024820 Rises=F Damp=T
 DIIS: error= 2.12D-02 at cycle   2 NSaved=   2.
 NSaved= 2 IEnMin= 2 EnMin= -925.213571495203     IErMin= 2 ErrMin= 2.12D-02
 ErrMax= 2.12D-02  0.00D+00 EMaxC= 1.00D-01 BMatC= 4.32D-01 BMatP= 1.90D+00
 IDIUse=3 WtCom= 7.88D-01 WtEn= 2.12D-01
 Coeff-Com: -0.883D+00 0.188D+01
 Coeff-En:   0.000D+00 0.100D+01
 Coeff:     -0.696D+00 0.170D+01
 Gap=     0.320 Goal=   None    Shift=    0.000
 RMSDP=2.35D-02 MaxDP=2.20D+00 DE=-9.87D-02 OVMax= 3.41D-02

 Cycle   3  Pass 1  IDiag  1:
 RMSU=  3.94D-03    CP:  5.75D-01  1.34D+00
 E= -925.301806692658     Delta-E=       -0.088235197455 Rises=F Damp=F
 DIIS: error= 2.98D-03 at cycle   3 NSaved=   3.
 NSaved= 3 IEnMin= 3 EnMin= -925.301806692658     IErMin= 3 ErrMin= 2.98D-03
 ErrMax= 2.98D-03  0.00D+00 EMaxC= 1.00D-01 BMatC= 8.98D-03 BMatP= 4.32D-01
 IDIUse=3 WtCom= 9.70D-01 WtEn= 2.98D-02
 Coeff-Com: -0.374D+00 0.793D+00 0.581D+00
 Coeff-En:   0.000D+00 0.000D+00 0.100D+01
 Coeff:     -0.363D+00 0.769D+00 0.594D+00
 Gap=     0.318 Goal=   None    Shift=    0.000
 RMSDP=2.39D-03 MaxDP=2.20D-01 DE=-8.82D-02 OVMax= 1.97D-02

 Cycle   4  Pass 1  IDiag  1:
 RMSU=  1.48D-03    CP:  5.79D-01  1.54D+00  6.86D-01
 E= -925.310068844790     Delta-E=       -0.008262152132 Rises=F Damp=F
 DIIS: error= 7.00D-04 at cycle   4 NSaved=   4.
 NSaved= 4 IEnMin= 4 EnMin= -925.310068844790     IErMin= 4 ErrMin= 7.00D-04
 ErrMax= 7.00D-04  0.00D+00 EMaxC= 1.00D-01 BMatC= 2.74D-04 BMatP= 8.98D-03
 IDIUse=3 WtCom= 9.93D-01 WtEn= 7.00D-03
 Coeff-Com: -0.115D+00 0.245D+00 0.234D+00 0.636D+00
 Coeff-En:   0.000D+00 0.000D+00 0.000D+00 0.100D+01
 Coeff:     -0.114D+00 0.243D+00 0.232D+00 0.639D+00
 Gap=     0.316 Goal=   None    Shift=    0.000
 RMSDP=7.39D-04 MaxDP=5.31D-02 DE=-8.26D-03 OVMax= 4.23D-03

 Cycle   5  Pass 1  IDiag  1:
 RMSU=  3.19D-04    CP:  5.74D-01  1.58D+00  6.97D-01  8.33D-01
 E= -925.310357557949     Delta-E=       -0.000288713159 Rises=F Damp=F
 DIIS: error= 2.31D-04 at cycle   5 NSaved=   5.
 NSaved= 5 IEnMin= 5 EnMin= -925.310357557949     IErMin= 5 ErrMin= 2.31D-04
 ErrMax= 2.31D-04  0.00D+00 EMaxC= 1.00D-01 BMatC= 2.03D-05 BMatP= 2.74D-04
 IDIUse=3 WtCom= 9.98D-01 WtEn= 2.31D-03
 Coeff-Com:  0.267D-01-0.569D-01-0.267D-01 0.194D+00 0.863D+00
 Coeff-En:   0.000D+00 0.000D+00 0.000D+00 0.000D+00 0.100D+01
 Coeff:      0.267D-01-0.568D-01-0.266D-01 0.194D+00 0.863D+00
 Gap=     0.317 Goal=   None    Shift=    0.000
 RMSDP=1.91D-04 MaxDP=1.01D-02 DE=-2.89D-04 OVMax= 1.55D-03

 Cycle   6  Pass 1  IDiag  1:
 RMSU=  7.61D-05    CP:  5.73D-01  1.58D+00  7.13D-01  9.13D-01  1.21D+00
 E= -925.310383841728     Delta-E=       -0.000026283778 Rises=F Damp=F
 DIIS: error= 5.15D-05 at cycle   6 NSaved=   6.
 NSaved= 6 IEnMin= 6 EnMin= -925.310383841728     IErMin= 6 ErrMin= 5.15D-05
 ErrMax= 5.15D-05  0.00D+00 EMaxC= 1.00D-01 BMatC= 1.39D-06 BMatP= 2.03D-05
 IDIUse=1 WtCom= 1.00D+00 WtEn= 0.00D+00
 Coeff-Com:  0.135D-01-0.287D-01-0.167D-01 0.534D-01 0.330D+00 0.648D+00
 Coeff:      0.135D-01-0.287D-01-0.167D-01 0.534D-01 0.330D+00 0.648D+00
 Gap=     0.317 Goal=   None    Shift=    0.000
 RMSDP=7.24D-05 MaxDP=7.14D-03 DE=-2.63D-05 OVMax= 3.72D-04

 Cycle   7  Pass 1  IDiag  1:
 RMSU=  4.24D-05    CP:  5.73D-01  1.58D+00  7.14D-01  9.41D-01  1.16D+00
                    CP:  9.39D-01
 E= -925.310385545496     Delta-E=       -0.000001703768 Rises=F Damp=F
 DIIS: error= 1.63D-05 at cycle   7 NSaved=   7.
 NSaved= 7 IEnMin= 7 EnMin= -925.310385545496     IErMin= 7 ErrMin= 1.63D-05
 ErrMax= 1.63D-05  0.00D+00 EMaxC= 1.00D-01 BMatC= 1.02D-07 BMatP= 1.39D-06
 IDIUse=1 WtCom= 1.00D+00 WtEn= 0.00D+00
 Coeff-Com: -0.252D-02 0.539D-02 0.231D-02-0.285D-01-0.105D+00 0.101D+00
 Coeff-Com:  0.103D+01
 Coeff:     -0.252D-02 0.539D-02 0.231D-02-0.285D-01-0.105D+00 0.101D+00
 Coeff:      0.103D+01
 Gap=     0.317 Goal=   None    Shift=    0.000
 RMSDP=1.88D-05 MaxDP=1.30D-03 DE=-1.70D-06 OVMax= 2.60D-04

 Cycle   8  Pass 1  IDiag  1:
 RMSU=  5.74D-06    CP:  5.73D-01  1.58D+00  7.16D-01  9.43D-01  1.19D+00
                    CP:  1.06D+00  1.18D+00
 E= -925.310385784875     Delta-E=       -0.000000239379 Rises=F Damp=F
 DIIS: error= 4.35D-06 at cycle   8 NSaved=   8.
 NSaved= 8 IEnMin= 8 EnMin= -925.310385784875     IErMin= 8 ErrMin= 4.35D-06
 ErrMax= 4.35D-06  0.00D+00 EMaxC= 1.00D-01 BMatC= 4.43D-09 BMatP= 1.02D-07
 IDIUse=1 WtCom= 1.00D+00 WtEn= 0.00D+00
 Coeff-Com: -0.802D-03 0.171D-02 0.940D-03-0.638D-02-0.248D-01 0.200D-02
 Coeff-Com:  0.119D+00 0.908D+00
 Coeff:     -0.802D-03 0.171D-02 0.940D-03-0.638D-02-0.248D-01 0.200D-02
 Coeff:      0.119D+00 0.908D+00
 Gap=     0.317 Goal=   None    Shift=    0.000
 RMSDP=2.96D-06 MaxDP=1.64D-04 DE=-2.39D-07 OVMax= 5.45D-05

 Cycle   9  Pass 1  IDiag  1:
 RMSU=  1.42D-06    CP:  5.73D-01  1.58D+00  7.16D-01  9.43D-01  1.19D+00
                    CP:  1.07D+00  1.23D+00  1.26D+00
 E= -925.310385794394     Delta-E=       -0.000000009519 Rises=F Damp=F
 DIIS: error= 2.30D-06 at cycle   9 NSaved=   9.
 NSaved= 9 IEnMin= 9 EnMin= -925.310385794394     IErMin= 9 ErrMin= 2.30D-06
 ErrMax= 2.30D-06  0.00D+00 EMaxC= 1.00D-01 BMatC= 1.30D-09 BMatP= 4.43D-09
 IDIUse=1 WtCom= 1.00D+00 WtEn= 0.00D+00
 Coeff-Com:  0.156D-03-0.339D-03-0.210D-04 0.296D-02 0.109D-01-0.155D-01
 Coeff-Com: -0.160D+00 0.369D+00 0.792D+00
 Coeff:      0.156D-03-0.339D-03-0.210D-04 0.296D-02 0.109D-01-0.155D-01
 Coeff:     -0.160D+00 0.369D+00 0.792D+00
 Gap=     0.317 Goal=   None    Shift=    0.000
 RMSDP=1.55D-06 MaxDP=9.63D-05 DE=-9.52D-09 OVMax= 3.40D-05

 Cycle  10  Pass 1  IDiag  1:
 RMSU=  7.08D-07    CP:  5.73D-01  1.58D+00  7.16D-01  9.43D-01  1.19D+00
                    CP:  1.07D+00  1.24D+00  1.41D+00  6.54D-01
 E= -925.310385796821     Delta-E=       -0.000000002427 Rises=F Damp=F
 DIIS: error= 7.87D-07 at cycle  10 NSaved=  10.
 NSaved=10 IEnMin=10 EnMin= -925.310385796821     IErMin=10 ErrMin= 7.87D-07
 ErrMax= 7.87D-07  0.00D+00 EMaxC= 1.00D-01 BMatC= 1.82D-10 BMatP= 1.30D-09
 IDIUse=1 WtCom= 1.00D+00 WtEn= 0.00D+00
 Coeff-Com:  0.112D-03-0.241D-03-0.593D-04 0.155D-02 0.557D-02-0.505D-02
 Coeff-Com: -0.678D-01 0.552D-01 0.339D+00 0.672D+00
 Coeff:      0.112D-03-0.241D-03-0.593D-04 0.155D-02 0.557D-02-0.505D-02
 Coeff:     -0.678D-01 0.552D-01 0.339D+00 0.672D+00
 Gap=     0.317 Goal=   None    Shift=    0.000
 RMSDP=4.62D-07 MaxDP=4.76D-05 DE=-2.43D-09 OVMax= 8.96D-06

 Cycle  11  Pass 1  IDiag  1:
 RMSU=  1.51D-07    CP:  5.73D-01  1.58D+00  7.16D-01  9.43D-01  1.19D+00
                    CP:  1.07D+00  1.24D+00  1.42D+00  8.97D-01  8.91D-01
 E= -925.310385797076     Delta-E=       -0.000000000254 Rises=F Damp=F
 DIIS: error= 2.03D-07 at cycle  11 NSaved=  11.
 NSaved=11 IEnMin=11 EnMin= -925.310385797076     IErMin=11 ErrMin= 2.03D-07
 ErrMax= 2.03D-07  0.00D+00 EMaxC= 1.00D-01 BMatC= 3.33D-11 BMatP= 1.82D-10
 IDIUse=1 WtCom= 1.00D+00 WtEn= 0.00D+00
 Coeff-Com:  0.209D-04-0.443D-04-0.186D-04 0.120D-03 0.258D-03 0.117D-02
 Coeff-Com:  0.131D-02-0.635D-01 0.982D-02 0.310D+00 0.741D+00
 Coeff:      0.209D-04-0.443D-04-0.186D-04 0.120D-03 0.258D-03 0.117D-02
 Coeff:      0.131D-02-0.635D-01 0.982D-02 0.310D+00 0.741D+00
 Gap=     0.317 Goal=   None    Shift=    0.000
 RMSDP=1.99D-07 MaxDP=1.51D-05 DE=-2.54D-10 OVMax= 3.30D-06

 Cycle  12  Pass 1  IDiag  1:
 RMSU=  6.15D-08    CP:  5.73D-01  1.58D+00  7.16D-01  9.43D-01  1.19D+00
                    CP:  1.07D+00  1.24D+00  1.43D+00  8.66D-01  1.08D+00
                    CP:  1.06D+00
 E= -925.310385797128     Delta-E=       -0.000000000052 Rises=F Damp=F
 DIIS: error= 7.89D-08 at cycle  12 NSaved=  12.
 NSaved=12 IEnMin=12 EnMin= -925.310385797128     IErMin=12 ErrMin= 7.89D-08
 ErrMax= 7.89D-08  0.00D+00 EMaxC= 1.00D-01 BMatC= 1.40D-12 BMatP= 3.33D-11
 IDIUse=1 WtCom= 1.00D+00 WtEn= 0.00D+00
 Coeff-Com: -0.143D-04 0.309D-04 0.112D-04-0.216D-03-0.794D-03 0.945D-03
 Coeff-Com:  0.937D-02-0.118D-01-0.317D-01-0.799D-01-0.608D-01 0.117D+01
 Coeff:     -0.143D-04 0.309D-04 0.112D-04-0.216D-03-0.794D-03 0.945D-03
 Coeff:      0.937D-02-0.118D-01-0.317D-01-0.799D-01-0.608D-01 0.117D+01
 Gap=     0.317 Goal=   None    Shift=    0.000
 RMSDP=7.13D-08 MaxDP=3.76D-06 DE=-5.23D-11 OVMax= 1.41D-06

 Cycle  13  Pass 1  IDiag  1:
 RMSU=  2.58D-08    CP:  5.73D-01  1.58D+00  7.16D-01  9.43D-01  1.19D+00
                    CP:  1.07D+00  1.24D+00  1.43D+00  8.74D-01  1.13D+00
                    CP:  1.14D+00  1.42D+00
 E= -925.310385797130     Delta-E=       -0.000000000002 Rises=F Damp=F
 DIIS: error= 1.74D-08 at cycle  13 NSaved=  13.
 NSaved=13 IEnMin=13 EnMin= -925.310385797130     IErMin=13 ErrMin= 1.74D-08
 ErrMax= 1.74D-08  0.00D+00 EMaxC= 1.00D-01 BMatC= 1.00D-13 BMatP= 1.40D-12
 IDIUse=1 WtCom= 1.00D+00 WtEn= 0.00D+00
 Coeff-Com: -0.255D-05 0.545D-05 0.259D-05-0.283D-04-0.919D-04 0.542D-04
 Coeff-Com:  0.822D-03 0.172D-02-0.178D-02-0.247D-01-0.620D-01 0.131D+00
 Coeff-Com:  0.955D+00
 Coeff:     -0.255D-05 0.545D-05 0.259D-05-0.283D-04-0.919D-04 0.542D-04
 Coeff:      0.822D-03 0.172D-02-0.178D-02-0.247D-01-0.620D-01 0.131D+00
 Coeff:      0.955D+00
 Gap=     0.317 Goal=   None    Shift=    0.000
 RMSDP=1.98D-08 MaxDP=1.80D-06 DE=-1.82D-12 OVMax= 3.40D-07

 Cycle  14  Pass 1  IDiag  1:
 RMSU=  5.03D-09    CP:  5.73D-01  1.58D+00  7.16D-01  9.43D-01  1.19D+00
                    CP:  1.07D+00  1.24D+00  1.43D+00  8.73D-01  1.13D+00
                    CP:  1.14D+00  1.53D+00  1.28D+00
 E= -925.310385797093     Delta-E=        0.000000000037 Rises=F Damp=F
 DIIS: error= 5.85D-09 at cycle  14 NSaved=  14.
 NSaved=14 IEnMin=13 EnMin= -925.310385797130     IErMin=14 ErrMin= 5.85D-09
 ErrMax= 5.85D-09  0.00D+00 EMaxC= 1.00D-01 BMatC= 3.23D-14 BMatP= 1.00D-13
 IDIUse=1 WtCom= 1.00D+00 WtEn= 0.00D+00
 Coeff-Com:  0.719D-06-0.159D-05-0.349D-06 0.155D-04 0.634D-04-0.982D-04
 Coeff-Com: -0.859D-03 0.223D-02 0.358D-02-0.442D-03-0.220D-01-0.999D-01
 Coeff-Com:  0.428D+00 0.689D+00
 Coeff:      0.719D-06-0.159D-05-0.349D-06 0.155D-04 0.634D-04-0.982D-04
 Coeff:     -0.859D-03 0.223D-02 0.358D-02-0.442D-03-0.220D-01-0.999D-01
 Coeff:      0.428D+00 0.689D+00
 Gap=     0.317 Goal=   None    Shift=    0.000
 RMSDP=8.08D-09 MaxDP=9.24D-07 DE= 3.68D-11 OVMax= 7.98D-08

 SCF Done:  E(RwB97XD) =  -925.310385797     A.U. after   14 cycles
            NFock= 14  Conv=0.81D-08     -V/T= 2.0043
 KE= 9.213033874027D+02 PE=-5.613438744225D+03 EE= 2.033289099385D+03
 Leave Link  502 at Mon Nov 14 15:19:29 2022, MaxMem= 16106127360 cpu:            4582.3 elap:             143.7
 (Enter /opt/ap/G16/B01/g16/l601.exe)
 Copying SCF densities to generalized density rwf, IOpCl= 0 IROHF=0.

 **********************************************************************

            Population analysis using the SCF Density.

 **********************************************************************

 Orbital symmetries:
       Occupied  (A) (A) (A) (A) (A) (A) (A) (A) (A) (A) (A) (A)
                 (A) (A) (A) (A) (A) (A) (A) (A) (A) (A) (A) (A)
                 (A) (A) (A) (A) (A) (A) (A) (A) (A) (A) (A) (A)
                 (A) (A) (A) (A) (A) (A) (A) (A) (A) (A) (A) (A)
                 (A) (A) (A) (A) (A) (A) (A) (A) (A) (A) (A) (A)
                 (A) (A) (A) (A) (A) (A) (A) (A) (A) (A) (A) (A)
                 (A) (A) (A) (A) (A) (A) (A) (A) (A)
       Virtual   (A) (A) (A) (A) (A) (A) (A) (A) (A) (A) (A) (A)
                 (A) (A) (A) (A) (A) (A) (A) (A) (A) (A) (A) (A)
                 (A) (A) (A) (A) (A) (A) (A) (A) (A) (A) (A) (A)
                 (A) (A) (A) (A) (A) (A) (A) (A) (A) (A) (A) (A)
                 (A) (A) (A) (A) (A) (A) (A) (A) (A) (A) (A) (A)
                 (A) (A) (A) (A) (A) (A) (A) (A) (A) (A) (A) (A)
                 (A) (A) (A) (A) (A) (A) (A) (A) (A) (A) (A) (A)
                 (A) (A) (A) (A) (A) (A) (A) (A) (A) (A) (A) (A)
                 (A) (A) (A) (A) (A) (A) (A) (A) (A) (A) (A) (A)
                 (A) (A) (A) (A) (A) (A) (A) (A) (A) (A) (A) (A)
                 (A) (A) (A) (A) (A) (A) (A) (A) (A) (A) (A) (A)
                 (A) (A) (A) (A) (A) (A) (A) (A) (A) (A) (A) (A)
                 (A) (A) (A) (A) (A) (A) (A) (A) (A) (A) (A) (A)
                 (A) (A) (A) (A) (A) (A) (A) (A) (A) (A) (A) (A)
                 (A) (A) (A) (A) (A) (A) (A) (A) (A) (A) (A) (A)
                 (A) (A) (A) (A) (A) (A) (A) (A) (A) (A) (A) (A)
                 (A) (A) (A) (A) (A) (A) (A) (A) (A) (A) (A) (A)
                 (A) (A) (A) (A) (A) (A) (A) (A) (A) (A) (A) (A)
                 (A) (A) (A) (A) (A) (A) (A) (A) (A) (A) (A) (A)
                 (A) (A) (A) (A) (A) (A) (A) (A) (A) (A) (A) (A)
                 (A) (A) (A) (A) (A) (A) (A) (A) (A) (A) (A) (A)
                 (A) (A) (A) (A) (A) (A) (A) (A) (A) (A) (A) (A)
                 (A) (A) (A) (A) (A) (A) (A) (A) (A) (A) (A) (A)
                 (A) (A) (A) (A) (A) (A) (A) (A) (A) (A) (A) (A)
                 (A) (A) (A) (A) (A) (A) (A) (A) (A) (A) (A) (A)
                 (A) (A) (A) (A) (A) (A) (A) (A) (A) (A) (A) (A)
                 (A) (A) (A) (A) (A) (A) (A) (A) (A) (A) (A) (A)
                 (A) (A) (A) (A) (A) (A) (A) (A) (A) (A) (A) (A)
                 (A) (A) (A) (A) (A) (A) (A) (A) (A) (A) (A) (A)
                 (A) (A) (A) (A) (A) (A) (A) (A) (A) (A) (A) (A)
                 (A) (A) (A) (A) (A) (A) (A) (A) (A) (A) (A) (A)
                 (A) (A) (A) (A) (A) (A) (A) (A) (A) (A) (A) (A)
                 (A) (A) (A) (A) (A) (A) (A) (A) (A) (A) (A) (A)
                 (A) (A) (A) (A) (A) (A) (A) (A) (A) (A) (A) (A)
                 (A) (A) (A) (A) (A) (A) (A) (A) (A) (A) (A) (A)
                 (A) (A) (A) (A) (A) (A) (A) (A) (A) (A) (A) (A)
                 (A) (A) (A) (A) (A) (A) (A) (A) (A) (A) (A) (A)
                 (A) (A) (A) (A) (A) (A) (A) (A) (A) (A) (A) (A)
                 (A) (A) (A) (A) (A) (A) (A) (A) (A) (A) (A) (A)
                 (A) (A) (A) (A) (A) (A) (A) (A) (A) (A) (A) (A)
                 (A) (A) (A) (A) (A) (A) (A) (A) (A) (A) (A) (A)
                 (A) (A) (A) (A) (A) (A) (A) (A) (A) (A) (A) (A)
                 (A) (A) (A) (A) (A) (A) (A) (A) (A) (A) (A) (A)
                 (A) (A) (A) (A) (A) (A) (A) (A) (A) (A) (A) (A)
                 (A) (A) (A) (A) (A) (A) (A) (A) (A) (A) (A) (A)
                 (A) (A) (A) (A) (A) (A) (A) (A) (A) (A) (A) (A)
                 (A) (A) (A) (A) (A) (A) (A) (A) (A) (A) (A) (A)
 The electronic state is 1-A.
 Alpha  occ. eigenvalues --  -10.30496 -10.30470 -10.30470 -10.30399 -10.30376
 Alpha  occ. eigenvalues --  -10.30351 -10.29301 -10.29295 -10.29289 -10.29276
 Alpha  occ. eigenvalues --  -10.29275 -10.29256 -10.29226 -10.29212 -10.29210
 Alpha  occ. eigenvalues --  -10.29198 -10.29176 -10.29162 -10.29151 -10.29127
 Alpha  occ. eigenvalues --  -10.29125 -10.29111 -10.29100 -10.29087  -0.99045
 Alpha  occ. eigenvalues --   -0.97108  -0.97091  -0.95299  -0.89490  -0.89477
 Alpha  occ. eigenvalues --   -0.85420  -0.85373  -0.85307  -0.85090  -0.82294
 Alpha  occ. eigenvalues --   -0.82258  -0.73779  -0.73613  -0.71178  -0.70843
 Alpha  occ. eigenvalues --   -0.70165  -0.70042  -0.66725  -0.66646  -0.63738
 Alpha  occ. eigenvalues --   -0.60844  -0.60740  -0.58643  -0.57415  -0.56849
 Alpha  occ. eigenvalues --   -0.54940  -0.54855  -0.54333  -0.54080  -0.52473
 Alpha  occ. eigenvalues --   -0.51816  -0.51759  -0.51550  -0.51181  -0.50962
 Alpha  occ. eigenvalues --   -0.50610  -0.48287  -0.46869  -0.46374  -0.45996
 Alpha  occ. eigenvalues --   -0.45687  -0.44901  -0.44407  -0.43204  -0.43167
 Alpha  occ. eigenvalues --   -0.42971  -0.41805  -0.41499  -0.37170  -0.36542
 Alpha  occ. eigenvalues --   -0.33678  -0.33666  -0.33649  -0.32979  -0.30308
 Alpha  occ. eigenvalues --   -0.29987
 Alpha virt. eigenvalues --    0.01696   0.02097   0.03673   0.04175   0.04242
 Alpha virt. eigenvalues --    0.04553   0.04834   0.04934   0.05066   0.05135
 Alpha virt. eigenvalues --    0.05184   0.05692   0.05908   0.06802   0.07060
 Alpha virt. eigenvalues --    0.07149   0.08002   0.08071   0.08401   0.08741
 Alpha virt. eigenvalues --    0.08905   0.09159   0.09381   0.10441   0.11006
 Alpha virt. eigenvalues --    0.11489   0.12164   0.12387   0.12942   0.13490
 Alpha virt. eigenvalues --    0.13623   0.13860   0.14344   0.14459   0.15423
 Alpha virt. eigenvalues --    0.15743   0.15785   0.15882   0.16154   0.16269
 Alpha virt. eigenvalues --    0.16496   0.16616   0.16989   0.17301   0.17357
 Alpha virt. eigenvalues --    0.17404   0.17715   0.18036   0.18127   0.18390
 Alpha virt. eigenvalues --    0.18429   0.18540   0.18630   0.19030   0.19178
 Alpha virt. eigenvalues --    0.19422   0.19537   0.19973   0.20283   0.20583
 Alpha virt. eigenvalues --    0.20721   0.21051   0.21159   0.21814   0.21994
 Alpha virt. eigenvalues --    0.22086   0.22362   0.22586   0.23169   0.23194
 Alpha virt. eigenvalues --    0.23457   0.23655   0.23711   0.23926   0.24075
 Alpha virt. eigenvalues --    0.24720   0.24981   0.25356   0.25446   0.25514
 Alpha virt. eigenvalues --    0.25911   0.26093   0.26684   0.27004   0.27311
 Alpha virt. eigenvalues --    0.27555   0.27651   0.27763   0.28363   0.28556
 Alpha virt. eigenvalues --    0.28576   0.29130   0.29284   0.29363   0.29520
 Alpha virt. eigenvalues --    0.29711   0.30259   0.30516   0.30718   0.31007
 Alpha virt. eigenvalues --    0.31469   0.32171   0.32455   0.32913   0.33220
 Alpha virt. eigenvalues --    0.33492   0.33703   0.33729   0.34519   0.34639
 Alpha virt. eigenvalues --    0.34739   0.34869   0.35049   0.35411   0.35640
 Alpha virt. eigenvalues --    0.35745   0.36110   0.36490   0.36646   0.36956
 Alpha virt. eigenvalues --    0.37150   0.37490   0.38006   0.38173   0.38365
 Alpha virt. eigenvalues --    0.38485   0.38997   0.39463   0.39591   0.40102
 Alpha virt. eigenvalues --    0.40617   0.40773   0.41045   0.41243   0.41670
 Alpha virt. eigenvalues --    0.42057   0.42253   0.42524   0.42949   0.43867
 Alpha virt. eigenvalues --    0.43962   0.44458   0.44612   0.44848   0.44968
 Alpha virt. eigenvalues --    0.45316   0.46363   0.47603   0.47852   0.48163
 Alpha virt. eigenvalues --    0.48820   0.50135   0.53315   0.54087   0.57283
 Alpha virt. eigenvalues --    0.58413   0.58654   0.59082   0.59133   0.60737
 Alpha virt. eigenvalues --    0.61673   0.62259   0.62503   0.62928   0.63037
 Alpha virt. eigenvalues --    0.63258   0.63518   0.63786   0.63884   0.64175
 Alpha virt. eigenvalues --    0.64373   0.65120   0.65263   0.65420   0.65606
 Alpha virt. eigenvalues --    0.65733   0.66315   0.67186   0.67407   0.68026
 Alpha virt. eigenvalues --    0.68701   0.69160   0.70005   0.70278   0.70482
 Alpha virt. eigenvalues --    0.70658   0.71270   0.71691   0.71987   0.72727
 Alpha virt. eigenvalues --    0.72883   0.73113   0.73948   0.74183   0.74821
 Alpha virt. eigenvalues --    0.75294   0.76096   0.76775   0.77209   0.77968
 Alpha virt. eigenvalues --    0.78434   0.78694   0.79499   0.79789   0.79950
 Alpha virt. eigenvalues --    0.80307   0.80812   0.81419   0.81612   0.82023
 Alpha virt. eigenvalues --    0.82423   0.82527   0.83270   0.83476   0.84001
 Alpha virt. eigenvalues --    0.84486   0.84933   0.85352   0.85553   0.85866
 Alpha virt. eigenvalues --    0.86300   0.86701   0.87780   0.88508   0.88726
 Alpha virt. eigenvalues --    0.89956   0.90304   0.91361   0.91798   0.92378
 Alpha virt. eigenvalues --    0.92596   0.92853   0.93225   0.93534   0.93924
 Alpha virt. eigenvalues --    0.94121   0.94311   0.94803   0.95630   0.96677
 Alpha virt. eigenvalues --    0.96769   0.97638   0.97869   0.98735   0.99360
 Alpha virt. eigenvalues --    0.99813   1.00299   1.00565   1.01033   1.01794
 Alpha virt. eigenvalues --    1.02276   1.02870   1.03793   1.04475   1.04689
 Alpha virt. eigenvalues --    1.05897   1.06291   1.06446   1.06895   1.07185
 Alpha virt. eigenvalues --    1.08053   1.08233   1.08386   1.09070   1.11471
 Alpha virt. eigenvalues --    1.11929   1.12649   1.12834   1.13457   1.13860
 Alpha virt. eigenvalues --    1.14770   1.15115   1.15688   1.17020   1.17253
 Alpha virt. eigenvalues --    1.17939   1.18743   1.19384   1.19614   1.21326
 Alpha virt. eigenvalues --    1.21353   1.22343   1.22577   1.23369   1.23974
 Alpha virt. eigenvalues --    1.24471   1.25305   1.26006   1.28625   1.29098
 Alpha virt. eigenvalues --    1.36255   1.39518   1.40707   1.41449   1.41970
 Alpha virt. eigenvalues --    1.45414   1.46978   1.47401   1.52644   1.55815
 Alpha virt. eigenvalues --    1.56678   1.58146   1.58333   1.58653   1.59048
 Alpha virt. eigenvalues --    1.59185   1.59823   1.60492   1.60868   1.61228
 Alpha virt. eigenvalues --    1.61869   1.62152   1.62739   1.63491   1.63616
 Alpha virt. eigenvalues --    1.64528   1.65569   1.65699   1.65970   1.66464
 Alpha virt. eigenvalues --    1.66584   1.67091   1.67699   1.68455   1.68735
 Alpha virt. eigenvalues --    1.69523   1.72430   1.73066   1.73988   1.74254
 Alpha virt. eigenvalues --    1.74315   1.75115   1.75610   1.76109   1.76504
 Alpha virt. eigenvalues --    1.77362   1.77584   1.80378   1.81223   1.82324
 Alpha virt. eigenvalues --    1.82735   1.82878   1.83756   1.84763   1.84977
 Alpha virt. eigenvalues --    1.86181   1.86347   1.86525   1.86980   1.87341
 Alpha virt. eigenvalues --    1.88080   1.90061   1.92120   1.92719   1.93271
 Alpha virt. eigenvalues --    1.93788   1.94195   1.96855   1.99183   1.99821
 Alpha virt. eigenvalues --    2.00482   2.00798   2.02068   2.02519   2.02711
 Alpha virt. eigenvalues --    2.03056   2.03247   2.04188   2.04393   2.04643
 Alpha virt. eigenvalues --    2.04824   2.04921   2.05643   2.05843   2.06063
 Alpha virt. eigenvalues --    2.07057   2.07209   2.07869   2.08901   2.09264
 Alpha virt. eigenvalues --    2.10662   2.11987   2.12359   2.12992   2.13332
 Alpha virt. eigenvalues --    2.14330   2.15824   2.16254   2.16840   2.17713
 Alpha virt. eigenvalues --    2.17990   2.18820   2.19945   2.20553   2.20818
 Alpha virt. eigenvalues --    2.23722   2.28443   2.30662   2.33945   2.35509
 Alpha virt. eigenvalues --    2.36541   2.36756   2.38840   2.39795   2.43167
 Alpha virt. eigenvalues --    2.44093   2.44356   2.46659   2.47254   2.49099
 Alpha virt. eigenvalues --    2.51513   2.52733   2.53022   2.53580   2.54516
 Alpha virt. eigenvalues --    2.55312   2.56002   2.56460   2.56677   2.58332
 Alpha virt. eigenvalues --    2.58438   2.58626   2.61979   2.62782   2.63210
 Alpha virt. eigenvalues --    2.72697   2.73033   2.73278   2.75754   2.76050
 Alpha virt. eigenvalues --    2.76282   2.77072   2.78440   2.79109   2.79569
 Alpha virt. eigenvalues --    2.80050   2.80294   2.80347   2.80400   2.80726
 Alpha virt. eigenvalues --    2.81685   2.82075   2.82630   2.83061   2.83541
 Alpha virt. eigenvalues --    2.83941   2.84109   2.85267   2.86585   2.87005
 Alpha virt. eigenvalues --    2.87549   2.88502   2.89056   2.89786   2.89974
 Alpha virt. eigenvalues --    2.91712   2.92430   2.92606   2.92920   2.93107
 Alpha virt. eigenvalues --    2.93442   2.94146   2.94934   2.95684   2.97659
 Alpha virt. eigenvalues --    2.99446   3.00060   3.00803   3.01588   3.03348
 Alpha virt. eigenvalues --    3.04333   3.04541   3.04712   3.04789   3.05440
 Alpha virt. eigenvalues --    3.06046   3.06330   3.07076   3.08078   3.11491
 Alpha virt. eigenvalues --    3.11964   3.15547   3.17890   3.19664   3.19869
 Alpha virt. eigenvalues --    3.21058   3.22896   3.25315   3.32012   3.32190
 Alpha virt. eigenvalues --    3.32515   3.33355   3.34914   3.35263   3.37474
 Alpha virt. eigenvalues --    3.47266   3.47799   3.48928   3.49387   3.49545
 Alpha virt. eigenvalues --    3.49635   3.53598   3.53934   3.60761   3.61077
 Alpha virt. eigenvalues --    3.62115   3.63075   3.65016   3.65541   3.66165
 Alpha virt. eigenvalues --    3.73641   3.73730   3.75918   3.76465   3.76772
 Alpha virt. eigenvalues --    3.77397   3.90135   3.91879   3.92800   4.09818
 Alpha virt. eigenvalues --    4.10131   4.10623   4.14463   4.14534   4.14598
 Alpha virt. eigenvalues --    4.24082   4.24325   4.26216   4.26298   4.26772
 Alpha virt. eigenvalues --    4.26963   4.28419   4.29629   4.51670   4.66943
 Alpha virt. eigenvalues --    4.69847   4.93499   4.95254   4.95670   4.98749
 Alpha virt. eigenvalues --   23.67923  23.80820  23.81779  23.88055  24.08510
 Alpha virt. eigenvalues --   24.08514  24.10644  24.10905  24.11002  24.11569
 Alpha virt. eigenvalues --   24.12432  24.13038  24.20565  24.20652  24.21207
 Alpha virt. eigenvalues --   24.23742  24.24240  24.24348  24.24463  24.24630
 Alpha virt. eigenvalues --   24.31202  24.33772  24.33798  24.34605
          Condensed to atoms (all electrons):
               1          2          3          4          5          6
     1  C   17.351327   0.115984   0.621929  -5.298279  -0.180034   1.377423
     2  C    0.115984  13.400713  -0.144692   1.587618   0.310848  -2.388046
     3  C    0.621929  -0.144692  10.912668  -1.331812   0.050977  -1.987326
     4  C   -5.298279   1.587618  -1.331812  19.091789   0.075211  -0.841742
     5  H   -0.180034   0.310848   0.050977   0.075211   0.567004   0.023662
     6  C    1.377423  -2.388046  -1.987326  -0.841742   0.023662  13.792848
     7  C   -5.592485  -2.189855   1.106278  -7.005667   0.081786  -0.659588
     8  H   -0.087031   0.127186   0.376681   0.031785   0.002630  -0.077961
     9  C   -1.668033   0.806771   0.761367   1.217825   0.066440  -1.804903
    10  C   -0.601659  -2.614920  -1.626536  -0.207951   0.070766   1.327408
    11  C   -1.079557   3.659492  -3.279466   1.119708  -0.136572  -1.308748
    12  C   -0.162171  -3.636694   3.147846  -0.762529   0.050353  -0.848225
    13  C   -0.294352  -1.677722  -2.151659  -0.895241  -0.017106   0.949418
    14  H    0.079249   0.057328  -0.016312  -0.067410  -0.003295  -0.019507
    15  C    1.721389   2.205129  -0.291355  -1.615811  -0.215456  -0.088941
    16  C   -1.225237  -2.755052   0.235524  -0.490039   0.145136   0.116316
    17  C    0.129580  -0.129173   0.071148   0.065951  -0.034154  -1.273836
    18  H    0.081585  -0.018242  -0.021958  -0.103803   0.001371  -0.041558
    19  C   -0.287644   0.319535   0.119106   0.090202   0.026354  -2.059767
    20  H   -0.009928  -0.098288   0.019189  -0.006653  -0.003205  -0.029853
    21  C    0.516017  -0.219622   1.788846  -0.912756  -0.005185   0.209584
    22  C   -0.632432   0.117652  -1.806287   1.283316   0.004390   0.074051
    23  C    0.376645   0.640143   0.084563   0.060727  -0.025758  -0.036255
    24  H   -0.054649  -0.058410  -0.023274   0.038262   0.001531   0.007933
    25  C   -0.124615   0.274537   0.058929   0.040349  -0.006926  -0.071174
    26  H    0.005169  -0.026930  -0.016099   0.110520  -0.001045   0.014185
    27  C   -0.150066  -0.094084  -0.025590  -0.062089  -0.009181  -0.092496
    28  H   -0.001629   0.002831  -0.000362   0.005836  -0.001025   0.008489
    29  H    0.006431   0.011221  -0.004253   0.004430   0.000451   0.008205
    30  C    0.370770   0.104473   0.474295  -0.073462  -0.003516   0.045556
    31  H   -0.032748  -0.026723   0.000087  -0.013421  -0.000260   0.030133
    32  C   -0.102455   0.073507  -0.056746   0.365042   0.003227  -0.098785
    33  H    0.007597  -0.011195  -0.000808  -0.128070  -0.000163   0.017727
    34  C   -0.016371  -0.195958  -0.025935  -0.315411   0.005307   0.046054
    35  H    0.004050   0.007206   0.000383   0.003533  -0.001101  -0.003459
    36  H    0.000709   0.007293   0.000457   0.000654  -0.000168  -0.001226
    37  H   -0.003241  -0.003970   0.000720  -0.000336   0.000139   0.029542
    38  C   -0.074308  -0.037309  -0.088838  -0.058003   0.000458   0.037546
    39  H    0.006487   0.001188   0.000955   0.004157  -0.000055  -0.001714
    40  H    0.000928   0.000741  -0.000133   0.011511  -0.000016  -0.001247
    41  H    0.000313  -0.007869  -0.000769  -0.008736   0.000346   0.001204
    42  H    0.000519  -0.000952  -0.001555  -0.000755  -0.000000   0.000977
               7          8          9         10         11         12
     1  C   -5.592485  -0.087031  -1.668033  -0.601659  -1.079557  -0.162171
     2  C   -2.189855   0.127186   0.806771  -2.614920   3.659492  -3.636694
     3  C    1.106278   0.376681   0.761367  -1.626536  -3.279466   3.147846
     4  C   -7.005667   0.031785   1.217825  -0.207951   1.119708  -0.762529
     5  H    0.081786   0.002630   0.066440   0.070766  -0.136572   0.050353
     6  C   -0.659588  -0.077961  -1.804903   1.327408  -1.308748  -0.848225
     7  C   19.582944  -0.010194  -0.021471   0.168606  -0.987682   0.840057
     8  H   -0.010194   0.708867   0.113853  -0.036554   0.019682  -0.043275
     9  C   -0.021471   0.113853  13.092996  -2.567286   0.187539   0.176594
    10  C    0.168606  -0.036554  -2.567286  15.688668  -0.365095   0.118504
    11  C   -0.987682   0.019682   0.187539  -0.365095  16.704635  -7.598232
    12  C    0.840057  -0.043275   0.176594   0.118504  -7.598232  15.163352
    13  C    0.488355  -0.031481  -3.172236   1.408415  -0.026330   0.163887
    14  H   -0.024448  -0.002645   0.326474   0.031209   0.012959  -0.011073
    15  C   -0.640859  -0.016248  -1.658772  -1.450655   0.452135  -0.129457
    16  C    1.322277   0.007497   1.595778  -0.922194  -0.263385   0.108749
    17  C    0.024714  -0.022138   0.018540  -0.139127  -0.658855   0.431368
    18  H   -0.011630  -0.003086  -0.007203  -0.050070   0.499607  -0.014073
    19  C    0.151183   0.048426   0.046509   0.006738   0.176711  -0.197821
    20  H   -0.026952  -0.050119  -0.009661   0.013902  -0.054852   0.579474
    21  C   -0.081360  -0.150023  -2.824079   0.164597   0.045485  -0.401846
    22  C   -1.302849   0.039320   2.133062  -0.036185  -0.022962   0.123586
    23  C   -0.248627   0.000812   0.098460  -1.939406  -0.040696   0.027539
    24  H    0.019489   0.000108  -0.024406   0.031628   0.019395  -0.008412
    25  C    0.195435   0.002919   0.344191  -1.632544   0.055626  -0.022183
    26  H   -0.090754   0.000268  -0.078968  -0.010670  -0.011730   0.008764
    27  C   -0.088258   0.016530  -0.000251   0.008527  -0.355208  -0.559757
    28  H    0.002586   0.000211  -0.000327  -0.000397  -0.061462   0.008462
    29  H    0.004185   0.002120   0.000003  -0.000734   0.024823  -0.086979
    30  C   -0.028287   0.013260   0.352753  -0.043672   0.041847  -0.111286
    31  H    0.021745  -0.032168  -0.094496   0.017527   0.000589  -0.007532
    32  C    0.132749   0.005524   0.590227  -0.137107  -0.015706   0.055017
    33  H    0.121319  -0.004524  -0.067193   0.002078   0.006462  -0.011159
    34  C    0.050091  -0.000705  -0.089887  -0.235063  -0.021457   0.003922
    35  H    0.000040  -0.000014   0.006083   0.016894   0.001901  -0.000181
    36  H    0.005076  -0.000005   0.011379   0.027621   0.000873  -0.000299
    37  H   -0.000029  -0.000507  -0.000335   0.000605  -0.025509   0.005323
    38  C   -0.276590   0.014186  -0.276171   0.047153  -0.001264  -0.017033
    39  H    0.007710  -0.000769   0.015189  -0.001473   0.000387   0.000555
    40  H   -0.005708   0.000084   0.014378  -0.003430  -0.000136   0.000809
    41  H    0.001514  -0.000010  -0.005919   0.024773  -0.000573   0.000102
    42  H   -0.007969  -0.000288  -0.009242   0.001270   0.000024  -0.000280
              13         14         15         16         17         18
     1  C   -0.294352   0.079249   1.721389  -1.225237   0.129580   0.081585
     2  C   -1.677722   0.057328   2.205129  -2.755052  -0.129173  -0.018242
     3  C   -2.151659  -0.016312  -0.291355   0.235524   0.071148  -0.021958
     4  C   -0.895241  -0.067410  -1.615811  -0.490039   0.065951  -0.103803
     5  H   -0.017106  -0.003295  -0.215456   0.145136  -0.034154   0.001371
     6  C    0.949418  -0.019507  -0.088941   0.116316  -1.273836  -0.041558
     7  C    0.488355  -0.024448  -0.640859   1.322277   0.024714  -0.011630
     8  H   -0.031481  -0.002645  -0.016248   0.007497  -0.022138  -0.003086
     9  C   -3.172236   0.326474  -1.658772   1.595778   0.018540  -0.007203
    10  C    1.408415   0.031209  -1.450655  -0.922194  -0.139127  -0.050070
    11  C   -0.026330   0.012959   0.452135  -0.263385  -0.658855   0.499607
    12  C    0.163887  -0.011073  -0.129457   0.108749   0.431368  -0.014073
    13  C   15.425634   0.059867   0.129145  -0.023769  -0.048748   0.010281
    14  H    0.059867   0.493342   0.094435  -0.159867   0.003715  -0.000089
    15  C    0.129145   0.094435  16.863392  -9.023124   0.049304   0.063655
    16  C   -0.023769  -0.159867  -9.023124  18.629165  -0.017454  -0.028645
    17  C   -0.048748   0.003715   0.049304  -0.017454   8.027103  -0.029031
    18  H    0.010281  -0.000089   0.063655  -0.028645  -0.029031   0.560848
    19  C    0.043180  -0.003530  -0.008942   0.008619  -0.902054  -0.009186
    20  H    0.030690  -0.000076   0.001246   0.000030   0.012567   0.000593
    21  C   -0.231499   0.068008   0.106012  -0.102742   0.042450  -0.009795
    22  C   -1.366162  -0.120476  -0.143792   0.212449  -0.016976   0.006121
    23  C   -0.076235   0.014091  -0.216146  -0.385481  -0.015215   0.011985
    24  H    0.015159  -0.001519   0.451188  -0.004835  -0.004161  -0.005910
    25  C   -0.108749  -0.011413   0.355118  -1.157363   0.005044   0.002609
    26  H    0.004114  -0.002597  -0.069364   0.524295  -0.001273  -0.000404
    27  C    0.020315   0.000417  -0.002046   0.000097   0.399181   0.030098
    28  H   -0.000400  -0.000019   0.000215   0.000150   0.402157  -0.014989
    29  H   -0.001701  -0.000046   0.000185  -0.000038   0.004650  -0.000603
    30  C   -2.159894   0.022901   0.002429   0.003402   0.000889  -0.000727
    31  H   -0.022823  -0.001195   0.004807  -0.003975   0.002001   0.000215
    32  C   -1.792655  -0.010478  -0.002667  -0.008858   0.000770   0.000288
    33  H    0.016003   0.002111  -0.004505   0.018999   0.000221   0.000204
    34  C    0.061695  -0.004463  -0.375061   0.230922  -0.002847  -0.000272
    35  H   -0.001366   0.000252  -0.092776  -0.003991   0.000540   0.000425
    36  H   -0.004709  -0.000369   0.012945  -0.111891   0.000032   0.000112
    37  H    0.000640   0.000000  -0.000304   0.000094  -0.062096   0.001065
    38  C   -0.059618  -0.004383   0.002064  -0.008165  -0.000247  -0.000098
    39  H    0.020156   0.000377  -0.000061   0.000255  -0.000002   0.000008
    40  H    0.004038  -0.001130  -0.000334   0.001415   0.000001  -0.000001
    41  H    0.001489  -0.000031   0.003980   0.023945  -0.000105  -0.000110
    42  H    0.030595   0.000233   0.000128  -0.000419  -0.000006   0.000001
              19         20         21         22         23         24
     1  C   -0.287644  -0.009928   0.516017  -0.632432   0.376645  -0.054649
     2  C    0.319535  -0.098288  -0.219622   0.117652   0.640143  -0.058410
     3  C    0.119106   0.019189   1.788846  -1.806287   0.084563  -0.023274
     4  C    0.090202  -0.006653  -0.912756   1.283316   0.060727   0.038262
     5  H    0.026354  -0.003205  -0.005185   0.004390  -0.025758   0.001531
     6  C   -2.059767  -0.029853   0.209584   0.074051  -0.036255   0.007933
     7  C    0.151183  -0.026952  -0.081360  -1.302849  -0.248627   0.019489
     8  H    0.048426  -0.050119  -0.150023   0.039320   0.000812   0.000108
     9  C    0.046509  -0.009661  -2.824079   2.133062   0.098460  -0.024406
    10  C    0.006738   0.013902   0.164597  -0.036185  -1.939406   0.031628
    11  C    0.176711  -0.054852   0.045485  -0.022962  -0.040696   0.019395
    12  C   -0.197821   0.579474  -0.401846   0.123586   0.027539  -0.008412
    13  C    0.043180   0.030690  -0.231499  -1.366162  -0.076235   0.015159
    14  H   -0.003530  -0.000076   0.068008  -0.120476   0.014091  -0.001519
    15  C   -0.008942   0.001246   0.106012  -0.143792  -0.216146   0.451188
    16  C    0.008619   0.000030  -0.102742   0.212449  -0.385481  -0.004835
    17  C   -0.902054   0.012567   0.042450  -0.016976  -0.015215  -0.004161
    18  H   -0.009186   0.000593  -0.009795   0.006121   0.011985  -0.005910
    19  C    8.376955  -0.087832  -0.104992   0.032425   0.004890   0.000820
    20  H   -0.087832   0.548279  -0.015377   0.018222  -0.000032  -0.000100
    21  C   -0.104992  -0.015377  17.711718  -8.807740  -0.022767   0.007213
    22  C    0.032425   0.018222  -8.807740  17.379262   0.035153  -0.006441
    23  C    0.004890  -0.000032  -0.022767   0.035153   7.900452  -0.099483
    24  H    0.000820  -0.000100   0.007213  -0.006441  -0.099483   0.496253
    25  C   -0.001543  -0.000651   0.002409  -0.012758  -0.338947  -0.013477
    26  H    0.000291   0.000298  -0.005994   0.026611  -0.018463   0.000670
    27  C    0.482589   0.008689  -0.017858   0.002704  -0.003325  -0.000930
    28  H    0.007665  -0.000229   0.000462  -0.000104   0.000185   0.000466
    29  H    0.419637  -0.014893   0.000586  -0.000011   0.000008   0.000041
    30  C   -0.020174  -0.010333  -1.158867   0.138655  -0.000465   0.000108
    31  H   -0.006067   0.005235   0.621039  -0.076259  -0.000535   0.000339
    32  C    0.004535   0.001165  -0.027845  -0.693164   0.007685  -0.001364
    33  H   -0.000694   0.000294  -0.012881   0.439790   0.000272   0.000031
    34  C    0.000033   0.000119   0.010490  -0.024065   0.228107   0.017438
    35  H   -0.000024   0.000005  -0.000394   0.000642   0.432518  -0.011931
    36  H    0.000005  -0.000006  -0.000750   0.002227   0.019826  -0.000543
    37  H   -0.072474   0.001259  -0.000333   0.000089  -0.000085  -0.000034
    38  C   -0.001075  -0.002208   0.057984  -0.270013  -0.000530   0.000239
    39  H   -0.000113   0.000152  -0.126354   0.019293   0.000030  -0.000014
    40  H    0.000050   0.000038   0.002267  -0.082786   0.000012  -0.000006
    41  H    0.000002   0.000003   0.000225  -0.000573  -0.081543   0.001565
    42  H   -0.000019   0.000028   0.016920  -0.004628  -0.000006   0.000005
              25         26         27         28         29         30
     1  C   -0.124615   0.005169  -0.150066  -0.001629   0.006431   0.370770
     2  C    0.274537  -0.026930  -0.094084   0.002831   0.011221   0.104473
     3  C    0.058929  -0.016099  -0.025590  -0.000362  -0.004253   0.474295
     4  C    0.040349   0.110520  -0.062089   0.005836   0.004430  -0.073462
     5  H   -0.006926  -0.001045  -0.009181  -0.001025   0.000451  -0.003516
     6  C   -0.071174   0.014185  -0.092496   0.008489   0.008205   0.045556
     7  C    0.195435  -0.090754  -0.088258   0.002586   0.004185  -0.028287
     8  H    0.002919   0.000268   0.016530   0.000211   0.002120   0.013260
     9  C    0.344191  -0.078968  -0.000251  -0.000327   0.000003   0.352753
    10  C   -1.632544  -0.010670   0.008527  -0.000397  -0.000734  -0.043672
    11  C    0.055626  -0.011730  -0.355208  -0.061462   0.024823   0.041847
    12  C   -0.022183   0.008764  -0.559757   0.008462  -0.086979  -0.111286
    13  C   -0.108749   0.004114   0.020315  -0.000400  -0.001701  -2.159894
    14  H   -0.011413  -0.002597   0.000417  -0.000019  -0.000046   0.022901
    15  C    0.355118  -0.069364  -0.002046   0.000215   0.000185   0.002429
    16  C   -1.157363   0.524295   0.000097   0.000150  -0.000038   0.003402
    17  C    0.005044  -0.001273   0.399181   0.402157   0.004650   0.000889
    18  H    0.002609  -0.000404   0.030098  -0.014989  -0.000603  -0.000727
    19  C   -0.001543   0.000291   0.482589   0.007665   0.419637  -0.020174
    20  H   -0.000651   0.000298   0.008689  -0.000229  -0.014893  -0.010333
    21  C    0.002409  -0.005994  -0.017858   0.000462   0.000586  -1.158867
    22  C   -0.012758   0.026611   0.002704  -0.000104  -0.000011   0.138655
    23  C   -0.338947  -0.018463  -0.003325   0.000185   0.000008  -0.000465
    24  H   -0.013477   0.000670  -0.000930   0.000466   0.000041   0.000108
    25  C    8.056279  -0.074175   0.000686  -0.000109   0.000008   0.008646
    26  H   -0.074175   0.498121   0.000090   0.000009  -0.000014  -0.000034
    27  C    0.000686   0.000090   6.573100  -0.056912  -0.067734   0.000379
    28  H   -0.000109   0.000009  -0.056912   0.475004   0.001340  -0.000002
    29  H    0.000008  -0.000014  -0.067734   0.001340   0.477323   0.000003
    30  C    0.008646  -0.000034   0.000379  -0.000002   0.000003   8.712138
    31  H   -0.000984  -0.000071  -0.001572   0.000015  -0.000144  -0.109848
    32  C   -0.025509  -0.003137  -0.000252  -0.000002  -0.000003  -0.472203
    33  H    0.002004  -0.005349  -0.000157  -0.000001   0.000026  -0.013109
    34  C    0.181436   0.032553  -0.000324   0.000079   0.000002  -0.000618
    35  H    0.016887  -0.000725   0.000060  -0.000030  -0.000001   0.000022
    36  H    0.431344  -0.013238   0.000005  -0.000002   0.000000   0.000036
    37  H    0.000010   0.000003   0.469360  -0.010536  -0.010975  -0.000012
    38  C   -0.005057   0.000436  -0.000241   0.000006   0.000102   0.068614
    39  H    0.000056   0.000024   0.000086  -0.000001  -0.000017   0.452929
    40  H    0.000370   0.000346   0.000007  -0.000000  -0.000002   0.012886
    41  H   -0.089632   0.002388  -0.000005   0.000003  -0.000000  -0.000009
    42  H   -0.000118  -0.000018  -0.000001   0.000000   0.000001  -0.081011
              31         32         33         34         35         36
     1  C   -0.032748  -0.102455   0.007597  -0.016371   0.004050   0.000709
     2  C   -0.026723   0.073507  -0.011195  -0.195958   0.007206   0.007293
     3  C    0.000087  -0.056746  -0.000808  -0.025935   0.000383   0.000457
     4  C   -0.013421   0.365042  -0.128070  -0.315411   0.003533   0.000654
     5  H   -0.000260   0.003227  -0.000163   0.005307  -0.001101  -0.000168
     6  C    0.030133  -0.098785   0.017727   0.046054  -0.003459  -0.001226
     7  C    0.021745   0.132749   0.121319   0.050091   0.000040   0.005076
     8  H   -0.032168   0.005524  -0.004524  -0.000705  -0.000014  -0.000005
     9  C   -0.094496   0.590227  -0.067193  -0.089887   0.006083   0.011379
    10  C    0.017527  -0.137107   0.002078  -0.235063   0.016894   0.027621
    11  C    0.000589  -0.015706   0.006462  -0.021457   0.001901   0.000873
    12  C   -0.007532   0.055017  -0.011159   0.003922  -0.000181  -0.000299
    13  C   -0.022823  -1.792655   0.016003   0.061695  -0.001366  -0.004709
    14  H   -0.001195  -0.010478   0.002111  -0.004463   0.000252  -0.000369
    15  C    0.004807  -0.002667  -0.004505  -0.375061  -0.092776   0.012945
    16  C   -0.003975  -0.008858   0.018999   0.230922  -0.003991  -0.111891
    17  C    0.002001   0.000770   0.000221  -0.002847   0.000540   0.000032
    18  H    0.000215   0.000288   0.000204  -0.000272   0.000425   0.000112
    19  C   -0.006067   0.004535  -0.000694   0.000033  -0.000024   0.000005
    20  H    0.005235   0.001165   0.000294   0.000119   0.000005  -0.000006
    21  C    0.621039  -0.027845  -0.012881   0.010490  -0.000394  -0.000750
    22  C   -0.076259  -0.693164   0.439790  -0.024065   0.000642   0.002227
    23  C   -0.000535   0.007685   0.000272   0.228107   0.432518   0.019826
    24  H    0.000339  -0.001364   0.000031   0.017438  -0.011931  -0.000543
    25  C   -0.000984  -0.025509   0.002004   0.181436   0.016887   0.431344
    26  H   -0.000071  -0.003137  -0.005349   0.032553  -0.000725  -0.013238
    27  C   -0.001572  -0.000252  -0.000157  -0.000324   0.000060   0.000005
    28  H    0.000015  -0.000002  -0.000001   0.000079  -0.000030  -0.000002
    29  H   -0.000144  -0.000003   0.000026   0.000002  -0.000001   0.000000
    30  C   -0.109848  -0.472203  -0.013109  -0.000618   0.000022   0.000036
    31  H    0.490868  -0.008802   0.001429   0.000294  -0.000013  -0.000004
    32  C   -0.008802   8.056678  -0.075149  -0.005502   0.000045   0.000650
    33  H    0.001429  -0.075149   0.497747  -0.000387   0.000053   0.000454
    34  C    0.000294  -0.005502  -0.000387   6.560809  -0.063554  -0.078622
    35  H   -0.000013   0.000045   0.000053  -0.063554   0.475470   0.001278
    36  H   -0.000004   0.000650   0.000454  -0.078622   0.001278   0.476187
    37  H    0.000024  -0.000007   0.000000  -0.000002   0.000000   0.000000
    38  C    0.027016   0.196862   0.017333   0.000223  -0.000005   0.000013
    39  H   -0.011459   0.012530  -0.000546  -0.000009   0.000000  -0.000001
    40  H   -0.000169   0.426651  -0.010680   0.000026  -0.000001  -0.000027
    41  H    0.000006  -0.000136  -0.000041   0.474598  -0.011519  -0.012732
    42  H    0.001001  -0.072883   0.001447   0.000007  -0.000000  -0.000000
              37         38         39         40         41         42
     1  C   -0.003241  -0.074308   0.006487   0.000928   0.000313   0.000519
     2  C   -0.003970  -0.037309   0.001188   0.000741  -0.007869  -0.000952
     3  C    0.000720  -0.088838   0.000955  -0.000133  -0.000769  -0.001555
     4  C   -0.000336  -0.058003   0.004157   0.011511  -0.008736  -0.000755
     5  H    0.000139   0.000458  -0.000055  -0.000016   0.000346  -0.000000
     6  C    0.029542   0.037546  -0.001714  -0.001247   0.001204   0.000977
     7  C   -0.000029  -0.276590   0.007710  -0.005708   0.001514  -0.007969
     8  H   -0.000507   0.014186  -0.000769   0.000084  -0.000010  -0.000288
     9  C   -0.000335  -0.276171   0.015189   0.014378  -0.005919  -0.009242
    10  C    0.000605   0.047153  -0.001473  -0.003430   0.024773   0.001270
    11  C   -0.025509  -0.001264   0.000387  -0.000136  -0.000573   0.000024
    12  C    0.005323  -0.017033   0.000555   0.000809   0.000102  -0.000280
    13  C    0.000640  -0.059618   0.020156   0.004038   0.001489   0.030595
    14  H    0.000000  -0.004383   0.000377  -0.001130  -0.000031   0.000233
    15  C   -0.000304   0.002064  -0.000061  -0.000334   0.003980   0.000128
    16  C    0.000094  -0.008165   0.000255   0.001415   0.023945  -0.000419
    17  C   -0.062096  -0.000247  -0.000002   0.000001  -0.000105  -0.000006
    18  H    0.001065  -0.000098   0.000008  -0.000001  -0.000110   0.000001
    19  C   -0.072474  -0.001075  -0.000113   0.000050   0.000002  -0.000019
    20  H    0.001259  -0.002208   0.000152   0.000038   0.000003   0.000028
    21  C   -0.000333   0.057984  -0.126354   0.002267   0.000225   0.016920
    22  C    0.000089  -0.270013   0.019293  -0.082786  -0.000573  -0.004628
    23  C   -0.000085  -0.000530   0.000030   0.000012  -0.081543  -0.000006
    24  H   -0.000034   0.000239  -0.000014  -0.000006   0.001565   0.000005
    25  C    0.000010  -0.005057   0.000056   0.000370  -0.089632  -0.000118
    26  H    0.000003   0.000436   0.000024   0.000346   0.002388  -0.000018
    27  C    0.469360  -0.000241   0.000086   0.000007  -0.000005  -0.000001
    28  H   -0.010536   0.000006  -0.000001  -0.000000   0.000003   0.000000
    29  H   -0.010975   0.000102  -0.000017  -0.000002  -0.000000   0.000001
    30  C   -0.000012   0.068614   0.452929   0.012886  -0.000009  -0.081011
    31  H    0.000024   0.027016  -0.011459  -0.000169   0.000006   0.001001
    32  C   -0.000007   0.196862   0.012530   0.426651  -0.000136  -0.072883
    33  H    0.000000   0.017333  -0.000546  -0.010680  -0.000041   0.001447
    34  C   -0.000002   0.000223  -0.000009   0.000026   0.474598   0.000007
    35  H    0.000000  -0.000005   0.000000  -0.000001  -0.011519  -0.000000
    36  H    0.000000   0.000013  -0.000001  -0.000027  -0.012732  -0.000000
    37  H    0.487639  -0.000002   0.000001   0.000000   0.000000   0.000000
    38  C   -0.000002   6.763365  -0.081777  -0.058757   0.000008   0.464334
    39  H    0.000001  -0.081777   0.475515   0.000982  -0.000000  -0.010351
    40  H    0.000000  -0.058757   0.000982   0.472683  -0.000000  -0.010568
    41  H    0.000000   0.000008  -0.000000  -0.000000   0.488219   0.000000
    42  H    0.000000   0.464334  -0.010351  -0.010568   0.000000   0.485128
 Mulliken charges:
               1
     1  C    0.904823
     2  C   -1.495686
     3  C   -0.930185
     4  C    0.991551
     5  H    0.155839
     6  C    1.618099
     7  C    0.973122
     8  H    0.037798
     9  C   -1.595570
    10  C    1.445840
    11  C   -0.714407
    12  C   -0.383768
    13  C    1.281377
    14  H    0.199403
    15  C   -0.472225
    16  C   -0.488589
    17  C   -0.334430
    18  H    0.100413
    19  C   -0.602510
    20  H    0.179771
    21  C   -0.131251
    22  C   -0.662356
    23  C   -0.394105
    24  H    0.210017
    25  C   -0.336966
    26  H    0.201897
    27  C   -0.424578
    28  H    0.232366
    29  H    0.222368
    30  C   -0.539464
    31  H    0.226897
    32  C   -0.321738
    33  H    0.193007
    34  C   -0.447687
    35  H    0.222802
    36  H    0.225418
    37  H    0.194277
    38  C   -0.376251
    39  H    0.215694
    40  H    0.224910
    41  H    0.195626
    42  H    0.198451
 Sum of Mulliken charges =  -0.00000
 Mulliken charges with hydrogens summed into heavy atoms:
               1
     1  C    0.904823
     2  C   -1.339847
     3  C   -0.892387
     4  C    0.991551
     6  C    1.618099
     7  C    0.973122
     9  C   -1.396167
    10  C    1.445840
    11  C   -0.613993
    12  C   -0.203997
    13  C    1.281377
    15  C   -0.262208
    16  C   -0.286692
    17  C   -0.102064
    19  C   -0.380142
    21  C    0.095646
    22  C   -0.469349
    23  C   -0.171303
    25  C   -0.111548
    27  C   -0.230302
    30  C   -0.323770
    32  C   -0.096828
    34  C   -0.252061
    38  C   -0.177800
 Electronic spatial extent (au):  <R**2>=          10005.7208
 Charge=             -0.0000 electrons
 Dipole moment (field-independent basis, Debye):
    X=              0.0091    Y=             -0.0064    Z=              0.0017  Tot=              0.0113
 Quadrupole moment (field-independent basis, Debye-Ang):
   XX=           -124.5114   YY=           -126.1586   ZZ=           -143.4459
   XY=              0.0004   XZ=             -3.5723   YZ=              5.9066
 Traceless Quadrupole moment (field-independent basis, Debye-Ang):
   XX=              6.8606   YY=              5.2134   ZZ=            -12.0739
   XY=              0.0004   XZ=             -3.5723   YZ=              5.9066
 Octapole moment (field-independent basis, Debye-Ang**2):
  XXX=              4.8421  YYY=             34.0463  ZZZ=              1.0046  XYY=             -8.0405
  XXY=            -27.1100  XXZ=             34.8173  XZZ=              3.0710  YZZ=             -7.1150
  YYZ=            -35.8559  XYZ=            -10.3618
 Hexadecapole moment (field-independent basis, Debye-Ang**3):
 XXXX=          -6311.7540 YYYY=          -6255.2482 ZZZZ=           -477.5913 XXXY=            -11.8651
 XXXZ=            -15.4957 YYYX=              2.0164 YYYZ=             84.0891 ZZZX=             -3.8740
 ZZZY=             22.6485 XXYY=          -2050.7694 XXZZ=          -1229.5984 YYZZ=          -1263.4850
 XXYZ=             43.9678 YYXZ=            -71.0026 ZZXY=              9.8579
 N-N= 1.733535871640D+03 E-N=-5.613438744201D+03  KE= 9.213033874027D+02
 No NMR shielding tensors so no spin-rotation constants.
 Leave Link  601 at Mon Nov 14 15:19:29 2022, MaxMem= 16106127360 cpu:               9.0 elap:               0.4
 (Enter /opt/ap/G16/B01/g16/l9999.exe)
 1\1\GINC-N59\SP\RwB97XD\6-311++G(d,p)\C24H18\ROOT\14-Nov-2022\0\\#P wB
 97XD/6-311++G(d,p) scf=maxcycle=512\\_conf024.gjf nmol_natom 1_42\\0,1
 \C\C,1,1.39412829\C,1,1.39435449,2,118.86443127\C,2,1.39416084,1,121.1
 529487,3,0.03668482,0\H,2,1.08488355,1,119.42236619,3,-179.97409048,0\
 C,1,1.48467131,2,120.55714816,4,179.25839056,0\C,3,1.39437784,1,121.11
 776116,2,-0.05351271,0\H,3,1.08487775,1,119.41869036,2,177.23008049,0\
 C,4,1.39432447,2,118.86473838,1,0.01008406,0\C,4,1.48466627,2,120.5464
 188,1,179.19454736,0\C,6,1.3968498,1,120.7843492,2,30.,0\C,6,1.3968682
 ,1,120.67653841,2,-150.,0\C,7,1.48449863,3,120.56496838,1,-179.9632580
 4,0\H,9,1.0848792,4,119.41824946,2,177.22245984,0\C,10,1.39685361,4,12
 0.76946845,2,-42.52368674,0\C,10,1.39686289,4,120.69448769,2,137.43107
 516,0\C,11,1.38888939,6,120.7380073,1,179.94058542,0\H,11,1.0847641,6,
 119.46912378,1,-1.41050605,0\C,12,1.38882428,6,120.76493111,1,-179.950
 82712,0\H,12,1.08482758,6,119.44182626,1,-1.23602505,0\C,13,1.39682899
 ,7,120.74134419,3,42.89023273,0\C,13,1.39683158,7,120.7379111,3,-137.1
 2494058,0\C,15,1.38888263,10,120.742191,4,179.9460119,0\H,15,1.0847633
 4,10,119.47085903,4,-1.40606944,0\C,16,1.38886088,10,120.76338989,4,-1
 79.95592713,0\H,16,1.08483431,10,119.44215232,4,-1.23439681,0\C,17,1.3
 9007919,11,120.20743432,6,0.00349958,0\H,17,1.0843506,11,119.71318733,
 6,179.5011609,0\H,19,1.08435858,12,119.73823132,6,179.53683762,0\C,21,
 1.38882373,13,120.76699356,7,179.99297883,0\H,21,1.0847938,13,119.4352
 623,7,1.32183327,0\C,22,1.38881869,13,120.76647403,7,-179.97118338,0\H
 ,22,1.08479982,13,119.43203605,7,1.34657928,0\C,23,1.39007007,15,120.2
 0732995,10,0.00573957,0\H,23,1.08434813,15,119.71220819,10,179.5072436
 8,0\H,25,1.08436328,16,119.73539424,10,179.53636455,0\H,27,1.08412515,
 17,120.21790854,11,179.98397203,0\C,30,1.39008059,21,120.18795226,13,-
 0.02169059,0\H,30,1.08435324,21,119.73787119,13,-179.52151214,0\H,32,1
 .0843543,22,119.737043,13,-179.52886928,0\H,34,1.08412314,23,120.22152
 803,15,179.98800213,0\H,38,1.08411439,30,120.21547163,21,-179.98600656
 ,0\\Version=ES64L-G16RevB.01\State=1-A\HF=-925.3103858\RMSD=8.083e-09\
 Dipole=0.0041589,0.000519,-0.0014696\Quadrupole=3.904093,-8.6014148,4.
 6973219,-5.5775161,-0.5634417,-0.2775437\PG=C01 [X(C24H18)]\\@


 ALL OUR THINKING ABOUT NATURE MUST NECESSARILY MOVE IN CIRCLES OR SPIRALS;
 FOR WE CAN ONLY UNDERSTAND NATURE IF WE THINK ABOUT HER, AND WE CAN ONLY
 THINK BECAUSE OUR BRAIN IS BUILT IN ACCORDANCE WITH NATURE'S LAWS.

                                             -- TIMOTHY FERRIS, "GALAXIES"
 Job cpu time:       0 days  1 hours 18 minutes  5.6 seconds.
 Elapsed time:       0 days  0 hours  2 minutes 27.0 seconds.
 File lengths (MBytes):  RWF=    224 Int=      0 D2E=      0 Chk=     26 Scr=      1
 Normal termination of Gaussian 16 at Mon Nov 14 15:19:29 2022.
