 Entering Gaussian System, Link 0=g16
 Input=_conf027.gjf
 Output=_conf027.log
 Initial command:
 /opt/ap/G16/B01/g16/l1.exe "/tmp2/scr/Gau-23997.inp" -scrdir="/tmp2/scr/"
 Entering Link 1 = /opt/ap/G16/B01/g16/l1.exe PID=     23998.
  
 Copyright (c) 1988-2017, Gaussian, Inc.  All Rights Reserved.
  
 This is part of the Gaussian(R) 16 program.  It is based on
 the Gaussian(R) 09 system (copyright 2009, Gaussian, Inc.),
 the Gaussian(R) 03 system (copyright 2003, Gaussian, Inc.),
 the Gaussian(R) 98 system (copyright 1998, Gaussian, Inc.),
 the Gaussian(R) 94 system (copyright 1995, Gaussian, Inc.),
 the Gaussian 92(TM) system (copyright 1992, Gaussian, Inc.),
 the Gaussian 90(TM) system (copyright 1990, Gaussian, Inc.),
 the Gaussian 88(TM) system (copyright 1988, Gaussian, Inc.),
 the Gaussian 86(TM) system (copyright 1986, Carnegie Mellon
 University), and the Gaussian 82(TM) system (copyright 1983,
 Carnegie Mellon University). Gaussian is a federally registered
 trademark of Gaussian, Inc.
  
 This software contains proprietary and confidential information,
 including trade secrets, belonging to Gaussian, Inc.
  
 This software is provided under written license and may be
 used, copied, transmitted, or stored only in accord with that
 written license.
  
 The following legend is applicable only to US Government
 contracts under FAR:
  
                    RESTRICTED RIGHTS LEGEND
  
 Use, reproduction and disclosure by the US Government is
 subject to restrictions as set forth in subparagraphs (a)
 and (c) of the Commercial Computer Software - Restricted
 Rights clause in FAR 52.227-19.
  
 Gaussian, Inc.
 340 Quinnipiac St., Bldg. 40, Wallingford CT 06492
  
  
 ---------------------------------------------------------------
 Warning -- This program may not be used in any manner that
 competes with the business of Gaussian, Inc. or will provide
 assistance to any competitor of Gaussian, Inc.  The licensee
 of this program is prohibited from giving any competitor of
 Gaussian, Inc. access to this program.  By using this program,
 the user acknowledges that Gaussian, Inc. is engaged in the
 business of creating and licensing software in the field of
 computational chemistry and represents and warrants to the
 licensee that it is not a competitor of Gaussian, Inc. and that
 it will not use this program in any manner prohibited above.
 ---------------------------------------------------------------
  

 Cite this work as:
 Gaussian 16, Revision B.01,
 M. J. Frisch, G. W. Trucks, H. B. Schlegel, G. E. Scuseria, 
 M. A. Robb, J. R. Cheeseman, G. Scalmani, V. Barone, 
 G. A. Petersson, H. Nakatsuji, X. Li, M. Caricato, A. V. Marenich, 
 J. Bloino, B. G. Janesko, R. Gomperts, B. Mennucci, H. P. Hratchian, 
 J. V. Ortiz, A. F. Izmaylov, J. L. Sonnenberg, D. Williams-Young, 
 F. Ding, F. Lipparini, F. Egidi, J. Goings, B. Peng, A. Petrone, 
 T. Henderson, D. Ranasinghe, V. G. Zakrzewski, J. Gao, N. Rega, 
 G. Zheng, W. Liang, M. Hada, M. Ehara, K. Toyota, R. Fukuda, 
 J. Hasegawa, M. Ishida, T. Nakajima, Y. Honda, O. Kitao, H. Nakai, 
 T. Vreven, K. Throssell, J. A. Montgomery, Jr., J. E. Peralta, 
 F. Ogliaro, M. J. Bearpark, J. J. Heyd, E. N. Brothers, K. N. Kudin, 
 V. N. Staroverov, T. A. Keith, R. Kobayashi, J. Normand, 
 K. Raghavachari, A. P. Rendell, J. C. Burant, S. S. Iyengar, 
 J. Tomasi, M. Cossi, J. M. Millam, M. Klene, C. Adamo, R. Cammi, 
 J. W. Ochterski, R. L. Martin, K. Morokuma, O. Farkas, 
 J. B. Foresman, and D. J. Fox, Gaussian, Inc., Wallingford CT, 2016.
 
 ******************************************
 Gaussian 16:  ES64L-G16RevB.01 20-Dec-2017
                14-Nov-2022 
 ******************************************
 %nprocshared=32
 Will use up to   32 processors via shared memory.
 %mem=120GB
 %chk=_conf027.chk
 ----------------------------------------
 #P wB97XD/6-311++G(d,p) scf=maxcycle=512
 ----------------------------------------
 1/38=1,172=1/1;
 2/12=2,17=6,18=5,40=1/2;
 3/5=4,6=6,7=1111,11=2,25=1,30=1,74=-58/1,2,3;
 4//1;
 5/5=2,7=512,38=5/2;
 6/7=2,8=2,9=2,10=2,28=1/1;
 99/5=1,9=1/99;
 Leave Link    1 at Mon Nov 14 15:17:09 2022, MaxMem= 16106127360 cpu:               3.0 elap:               0.1
 (Enter /opt/ap/G16/B01/g16/l101.exe)
 ----------------------------
 _conf027.gjf nmol_natom 1_42
 ----------------------------
 Symbolic Z-matrix:
 Charge =  0 Multiplicity = 1
 C
 C                    1     1.39413 
 C                    1     1.39435  2     118.86443 
 C                    2     1.39416  1     121.15295  3     0.03668  0
 H                    2     1.08488  1     119.42237  3    -179.97409  0
 C                    1     1.48467  2     120.55715  4     179.25839  0
 C                    3     1.39438  1     121.11776  2    -0.05351  0
 H                    3     1.08488  1     119.41869  2     177.23008  0
 C                    4     1.39432  2     118.86474  1     0.01008  0
 C                    4     1.48467  2     120.54642  1     179.19455  0
 C                    6     1.39685  1     120.78435  2     45.      0
 C                    6     1.39687  1     120.67654  2    -135.     0
 C                    7     1.4845   3     120.56497  1    -179.96326  0
 H                    9     1.08488  4     119.41825  2     177.22246  0
 C                    10    1.39685  4     120.76947  2    -42.52369  0
 C                    10    1.39686  4     120.69449  2     137.43108  0
 C                    11    1.38889  6     120.73801  1     179.94059  0
 H                    11    1.08476  6     119.46912  1    -1.41051  0
 C                    12    1.38882  6     120.76493  1    -179.95083  0
 H                    12    1.08483  6     119.44183  1    -1.23603  0
 C                    13    1.39683  7     120.74134  3     42.89023  0
 C                    13    1.39683  7     120.73791  3    -137.12494  0
 C                    15    1.38888  10    120.74219  4     179.94601  0
 H                    15    1.08476  10    119.47086  4    -1.40607  0
 C                    16    1.38886  10    120.76339  4    -179.95593  0
 H                    16    1.08483  10    119.44215  4    -1.2344   0
 C                    17    1.39008  11    120.20743  6     0.0035   0
 H                    17    1.08435  11    119.71319  6     179.50116  0
 H                    19    1.08436  12    119.73823  6     179.53684  0
 C                    21    1.38882  13    120.76699  7     179.99298  0
 H                    21    1.08479  13    119.43526  7     1.32183  0
 C                    22    1.38882  13    120.76647  7    -179.97118  0
 H                    22    1.0848   13    119.43204  7     1.34658  0
 C                    23    1.39007  15    120.20733  10    0.00574  0
 H                    23    1.08435  15    119.71221  10    179.50724  0
 H                    25    1.08436  16    119.73539  10    179.53636  0
 H                    27    1.08413  17    120.21791  11    179.98397  0
 C                    30    1.39008  21    120.18795  13   -0.02169  0
 H                    30    1.08435  21    119.73787  13   -179.52151  0
 H                    32    1.08435  22    119.73704  13   -179.52887  0
 H                    34    1.08412  23    120.22153  15    179.988  0
 H                    38    1.08411  30    120.21547  21   -179.98601  0
 
 ITRead=  0  0  0  0  0  0  0  0  0  0  0  0  0  0  0  0  0  0  0  0
 ITRead=  0  0  0  0  0  0  0  0  0  0  0  0  0  0  0  0  0  0  0  0
 ITRead=  0  0
 MicOpt= -1 -1 -1 -1 -1 -1 -1 -1 -1 -1 -1 -1 -1 -1 -1 -1 -1 -1 -1 -1
 MicOpt= -1 -1 -1 -1 -1 -1 -1 -1 -1 -1 -1 -1 -1 -1 -1 -1 -1 -1 -1 -1
 MicOpt= -1 -1
 NAtoms=     42 NQM=       42 NQMF=       0 NMMI=      0 NMMIF=      0
                NMic=       0 NMicF=      0.
                    Isotopes and Nuclear Properties:
 (Nuclear quadrupole moments (NQMom) in fm**2, nuclear magnetic moments (NMagM)
  in nuclear magnetons)

  Atom         1           2           3           4           5           6           7           8           9          10
 IAtWgt=          12          12          12          12           1          12          12           1          12          12
 AtmWgt=  12.0000000  12.0000000  12.0000000  12.0000000   1.0078250  12.0000000  12.0000000   1.0078250  12.0000000  12.0000000
 NucSpn=           0           0           0           0           1           0           0           1           0           0
 AtZEff=  -0.0000000  -0.0000000  -0.0000000  -0.0000000  -0.0000000  -0.0000000  -0.0000000  -0.0000000  -0.0000000  -0.0000000
 NQMom=    0.0000000   0.0000000   0.0000000   0.0000000   0.0000000   0.0000000   0.0000000   0.0000000   0.0000000   0.0000000
 NMagM=    0.0000000   0.0000000   0.0000000   0.0000000   2.7928460   0.0000000   0.0000000   2.7928460   0.0000000   0.0000000
 AtZNuc=   6.0000000   6.0000000   6.0000000   6.0000000   1.0000000   6.0000000   6.0000000   1.0000000   6.0000000   6.0000000

  Atom        11          12          13          14          15          16          17          18          19          20
 IAtWgt=          12          12          12           1          12          12          12           1          12           1
 AtmWgt=  12.0000000  12.0000000  12.0000000   1.0078250  12.0000000  12.0000000  12.0000000   1.0078250  12.0000000   1.0078250
 NucSpn=           0           0           0           1           0           0           0           1           0           1
 AtZEff=  -0.0000000  -0.0000000  -0.0000000  -0.0000000  -0.0000000  -0.0000000  -0.0000000  -0.0000000  -0.0000000  -0.0000000
 NQMom=    0.0000000   0.0000000   0.0000000   0.0000000   0.0000000   0.0000000   0.0000000   0.0000000   0.0000000   0.0000000
 NMagM=    0.0000000   0.0000000   0.0000000   2.7928460   0.0000000   0.0000000   0.0000000   2.7928460   0.0000000   2.7928460
 AtZNuc=   6.0000000   6.0000000   6.0000000   1.0000000   6.0000000   6.0000000   6.0000000   1.0000000   6.0000000   1.0000000

  Atom        21          22          23          24          25          26          27          28          29          30
 IAtWgt=          12          12          12           1          12           1          12           1           1          12
 AtmWgt=  12.0000000  12.0000000  12.0000000   1.0078250  12.0000000   1.0078250  12.0000000   1.0078250   1.0078250  12.0000000
 NucSpn=           0           0           0           1           0           1           0           1           1           0
 AtZEff=  -0.0000000  -0.0000000  -0.0000000  -0.0000000  -0.0000000  -0.0000000  -0.0000000  -0.0000000  -0.0000000  -0.0000000
 NQMom=    0.0000000   0.0000000   0.0000000   0.0000000   0.0000000   0.0000000   0.0000000   0.0000000   0.0000000   0.0000000
 NMagM=    0.0000000   0.0000000   0.0000000   2.7928460   0.0000000   2.7928460   0.0000000   2.7928460   2.7928460   0.0000000
 AtZNuc=   6.0000000   6.0000000   6.0000000   1.0000000   6.0000000   1.0000000   6.0000000   1.0000000   1.0000000   6.0000000

  Atom        31          32          33          34          35          36          37          38          39          40
 IAtWgt=           1          12           1          12           1           1           1          12           1           1
 AtmWgt=   1.0078250  12.0000000   1.0078250  12.0000000   1.0078250   1.0078250   1.0078250  12.0000000   1.0078250   1.0078250
 NucSpn=           1           0           1           0           1           1           1           0           1           1
 AtZEff=  -0.0000000  -0.0000000  -0.0000000  -0.0000000  -0.0000000  -0.0000000  -0.0000000  -0.0000000  -0.0000000  -0.0000000
 NQMom=    0.0000000   0.0000000   0.0000000   0.0000000   0.0000000   0.0000000   0.0000000   0.0000000   0.0000000   0.0000000
 NMagM=    2.7928460   0.0000000   2.7928460   0.0000000   2.7928460   2.7928460   2.7928460   0.0000000   2.7928460   2.7928460
 AtZNuc=   1.0000000   6.0000000   1.0000000   6.0000000   1.0000000   1.0000000   1.0000000   6.0000000   1.0000000   1.0000000

  Atom        41          42
 IAtWgt=           1           1
 AtmWgt=   1.0078250   1.0078250
 NucSpn=           1           1
 AtZEff=  -0.0000000  -0.0000000
 NQMom=    0.0000000   0.0000000
 NMagM=    2.7928460   2.7928460
 AtZNuc=   1.0000000   1.0000000
 Leave Link  101 at Mon Nov 14 15:17:09 2022, MaxMem= 16106127360 cpu:               5.6 elap:               0.2
 (Enter /opt/ap/G16/B01/g16/l202.exe)
                          Input orientation:                          
 ---------------------------------------------------------------------
 Center     Atomic      Atomic             Coordinates (Angstroms)
 Number     Number       Type             X           Y           Z
 ---------------------------------------------------------------------
      1          6           0        0.000000    0.000000    0.000000
      2          6           0        0.000000    0.000000    1.394128
      3          6           0        1.221126    0.000000   -0.673109
      4          6           0        1.193108    0.000764    2.115362
      5          1           0       -0.944957   -0.000427    1.927071
      6          6           0       -1.278366   -0.017366   -0.754803
      7          6           0        2.428476    0.001115    0.024455
      8          1           0        1.232154   -0.045667   -1.756969
      9          6           0        2.400843    0.001752    1.418572
     10          6           0        1.177445    0.018728    3.599837
     11          6           0       -2.336830    0.816885   -0.387559
     12          6           0       -1.448615   -0.869270   -1.848657
     13          6           0        3.721572    0.001921   -0.704680
     14          1           0        3.334061    0.048144    1.969857
     15          6           0        0.290794    0.844275    4.295193
     16          6           0        2.049080   -0.790881    4.331965
     17          6           0       -3.531875    0.800732   -1.095104
     18          1           0       -2.229282    1.467834    0.473494
     19          6           0       -2.643302   -0.886290   -2.556659
     20          1           0       -0.629177   -1.508818   -2.159060
     21          6           0        3.910862    0.818865   -1.821777
     22          6           0        4.776237   -0.814044   -0.288725
     23          6           0        0.275860    0.859807    5.683909
     24          1           0       -0.377402    1.495584    3.742000
     25          6           0        2.035025   -0.775886    5.720674
     26          1           0        2.729408   -1.453102    3.807101
     27          6           0       -3.689259   -0.050506   -2.182737
     28          1           0       -4.345596    1.449528   -0.790573
     29          1           0       -2.754743   -1.548838   -3.407803
     30          6           0        5.120444    0.820149   -2.504230
     31          1           0        3.109266    1.474569   -2.144691
     32          6           0        5.986440   -0.813321   -0.970068
     33          1           0        4.638168   -1.470412    0.563864
     34          6           0        1.147946    0.049642    6.401818
     35          1           0       -0.413890    1.513063    6.206701
     36          1           0        2.713797   -1.416787    6.272362
     37          1           0       -4.622094   -0.063440   -2.734986
     38          6           0        6.162883    0.003944   -2.080611
     39          1           0        5.251831    1.466740   -3.364741
     40          1           0        6.791448   -1.459089   -0.637249
     41          1           0        1.136620    0.061726    7.485815
     42          1           0        7.107346    0.004761   -2.612865
 ---------------------------------------------------------------------
                    Distance matrix (angstroms):
                    1          2          3          4          5
     1  C    0.000000
     2  C    1.394128   0.000000
     3  C    1.394354   2.400962   0.000000
     4  C    2.428634   1.394161   2.788612   0.000000
     5  H    2.146287   1.084884   3.384206   2.146341   0.000000
     6  C    1.484671   2.500485   2.500887   3.787659   2.702572
     7  C    2.428599   2.788100   1.394378   2.428585   3.872983
     8  H    2.146445   3.383741   1.084878   3.872806   4.279487
     9  C    2.788619   2.400968   2.401430   1.394324   3.384222
    10  C    3.787552   2.500376   4.273210   1.484666   2.702426
    11  C    2.505649   3.049998   3.661679   4.403536   2.821847
    12  C    2.504326   3.656470   3.043856   4.842427   3.907004
    13  C    3.787700   4.272598   2.500646   3.787581   5.357482
    14  H    3.872805   3.383747   3.384092   2.146415   4.279508
    15  C    4.387032   3.035381   5.124680   2.505463   2.801537
    16  C    4.856969   3.668120   5.134371   2.504540   3.920790
    17  C    3.783460   4.394496   4.838416   5.768233   4.058022
    18  H    2.710799   2.823438   3.921039   4.069493   2.432728
    19  C    3.782732   4.835419   4.389428   6.110048   4.875752
    20  H    2.708124   3.911207   2.812153   4.885718   4.367084
    21  C    4.391384   5.129076   3.037212   4.853507   6.189029
    22  C    4.853707   5.129045   3.667320   4.391169   6.189006
    23  C    5.755188   4.383786   6.484171   3.783362   4.042800
    24  H    4.047440   2.809218   4.928007   2.710524   2.419532
    25  C    6.121229   4.843792   6.491910   3.782894   4.886007
    26  H    4.904609   3.922195   4.945574   2.708491   4.375585
    27  C    4.286902   5.138789   5.137452   6.504905   4.942086
    28  H    4.648692   5.075259   5.753548   6.420328   4.588278
    29  H    4.647647   5.748569   5.068035   6.963629   5.842411
    30  C    5.758711   6.487587   4.385239   6.118495   7.556379
    31  H    4.054822   4.936104   2.811579   4.898143   5.932249
    32  C    6.118822   6.487555   4.843334   5.758354   7.556353
    33  H    4.898230   4.935996   3.920254   4.054620   5.932156
    34  C    6.504116   5.137821   7.075480   4.286973   4.940255
    35  H    6.401859   5.061770   7.231488   4.648499   4.570330
    36  H    6.979577   5.759266   7.243957   4.647859   5.854410
    37  H    5.371027   6.198174   6.196659   7.572752   5.938020
    38  C    6.504621   7.074953   5.138292   6.504219   8.159837
    39  H    6.407382   7.237395   5.063871   6.975231   8.279857
    40  H    6.975586   7.237348   5.758361   6.406985   8.279819
    41  H    7.571865   6.197125   8.159595   5.371096   5.936031
    42  H    7.572414   8.159067   6.197601   7.571945   9.243951
                    6          7          8          9         10
     6  C    0.000000
     7  C    3.787910   0.000000
     8  H    2.703303   2.146356   0.000000
     9  C    4.273231   1.394392   3.384102   0.000000
    10  C    4.999520   3.787973   5.357472   2.500981   0.000000
    11  C    1.396850   4.852152   3.918791   5.135377   5.374618
    12  C    1.396868   4.392943   2.805931   5.123651   6.113168
    13  C    5.000226   1.484499   2.703105   2.500505   5.000173
    14  H    5.357476   2.146366   4.279725   1.084879   2.703459
    15  C    5.357906   4.849723   6.189251   3.665665   1.396854
    16  C    6.127433   4.396117   6.188524   3.039714   1.396863
    17  C    2.421445   6.117073   4.883690   6.492618   6.695648
    18  H    2.149133   4.903836   4.387161   4.947790   4.845588
    19  C    2.421728   5.759563   4.045406   6.483400   7.302028
    20  H    2.148909   4.049305   2.401466   4.925677   6.225927
    21  C    5.363376   2.504946   2.815510   3.667109   6.124188
    22  C    6.124553   2.504906   3.912375   3.036921   5.363369
    23  C    6.681472   6.115597   7.556523   4.841994   2.421492
    24  H    4.829285   4.891475   5.933362   3.917716   2.149154
    25  C    7.313393   5.762417   7.555989   4.387097   2.421736
    26  H    6.239756   4.063707   5.931401   2.815959   2.148914
    27  C    2.802231   6.503925   4.939798   7.075416   7.558291
    28  H    3.400141   6.974970   5.854982   7.245054   7.199088
    29  H    3.400515   6.406910   4.569477   7.230373   8.186964
    30  C    6.686306   3.783088   4.053003   4.842972   7.310892
    31  H    4.838282   2.709194   2.446425   3.920191   6.233057
    32  C    7.311449   3.783053   4.879728   4.384797   6.686012
    33  H    6.233426   2.709077   4.360860   2.811302   4.838519
    34  C    7.557031   6.504835   8.159779   5.138559   2.802307
    35  H    7.179977   6.970308   8.280044   5.756123   3.400165
    36  H    8.202243   6.413127   8.279214   5.066504   3.400510
    37  H    3.886356   7.571606   5.935406   8.159531   8.589027
    38  C    7.558466   4.286853   4.941589   5.137824   7.557929
    39  H    7.187337   4.648230   4.585860   5.757987   8.197725
    40  H    8.198432   4.648180   5.844424   5.063385   7.187062
    41  H    8.587561   7.572613   9.243902   6.197846   3.886431
    42  H    8.589123   5.370968   5.937422   6.197069   8.588456
                   11         12         13         14         15
    11  C    0.000000
    12  C    2.401427   0.000000
    13  C    6.121190   5.366422   0.000000
    14  H    6.189296   6.188432   2.702860   0.000000
    15  C    5.369668   6.611254   6.121971   3.911840   0.000000
    16  C    6.640409   7.102120   5.365963   2.816859   2.401387
    17  C    1.388889   2.774296   7.307737   7.556551   6.608328
    18  H    1.084764   3.385835   6.240966   5.933414   4.620064
    19  C    2.774838   1.388824   6.688076   7.555884   7.651905
    20  H    3.385733   1.084828   4.829759   5.931218   6.931145
    21  C    6.410198   5.619121   1.396829   3.911930   7.107943
    22  C    7.298317   6.417572   1.396832   2.815037   6.624314
    23  C    6.609896   7.918527   7.309101   4.879095   1.388883
    24  H    4.620958   6.164047   6.229413   4.360107   1.084763
    25  C    7.678578   8.333021   6.688393   4.054029   2.774755
    26  H    6.958073   7.055802   4.843310   2.448430   3.385708
    27  C    2.409169   2.408832   7.556971   8.159706   7.655393
    28  H    2.144247   3.858608   8.196471   8.280156   6.908506
    29  H    3.859166   2.144462   7.187098   8.279076   8.621974
    30  C    7.751854   6.814429   2.421718   4.878996   8.340159
    31  H    5.760210   5.133760   2.148776   4.360587   7.057844
    32  C    8.501394   7.486995   2.421709   4.052208   7.931644
    33  H    7.401860   6.574995   2.148749   2.446125   6.179018
    34  C    7.669940   8.698096   7.558317   4.941800   2.409154
    35  H    6.904102   8.463743   8.194680   5.843284   2.144229
    36  H    8.651744   9.142013   7.190790   4.587189   3.859086
    37  H    3.392317   3.392036   8.587385   9.243831   8.624607
    38  C    8.704736   7.664934   2.802355   4.940696   8.708529
    39  H    8.177634   7.256131   3.400487   5.843645   9.147346
    40  H    9.411050   8.349493   3.400476   4.585006   8.478973
    41  H    8.638584   9.730496   8.588933   5.937569   3.392325
    42  H    9.736734   8.634374   3.886469   5.936405   9.741223
                   16         17         18         19         20
    16  C    0.000000
    17  C    7.945652   0.000000
    18  H    6.188213   2.145291   0.000000
    19  C    8.335508   2.402446   3.859422   0.000000
    20  H    7.058463   3.858974   4.283822   2.145303   0.000000
    21  C    6.627673   7.478150   6.587169   6.812098   5.113103
    22  C    5.365510   8.501911   7.407108   7.758757   5.761890
    23  C    2.774316   7.775433   5.813249   8.915005   8.242671
    24  H    3.385823   5.816451   3.756776   7.104980   6.626638
    25  C    1.388861   8.940411   7.124009   9.508585   8.350172
    26  H    1.084834   8.265292   6.650820   8.347738   6.846771
    27  C    8.713096   1.390079   3.390052   1.390101   3.389888
    28  H    8.494216   1.084351   2.465154   3.387168   4.943312
    29  H    9.140854   3.387180   4.943772   1.084359   2.465561
    30  C    7.665654   8.766335   7.956431   7.949241   6.213000
    31  H    6.942862   6.757251   5.946009   6.231806   4.782966
    32  C    6.604154   9.655005   8.647868   8.774682   6.757500
    33  H    4.622091   8.640595   7.470163   7.943467   5.929647
    34  C    2.408903   8.869539   6.968642   9.772607   8.881193
    35  H    3.858628   7.971550   6.013930   9.355407   8.897419
    36  H    2.144469   9.909862   8.147511  10.340771   9.070436
    37  H    9.745539   2.150485   4.285405   2.150465   4.285346
    38  C    7.660043   9.777241   8.893529   8.863861   6.958929
    39  H    8.636768   9.096610   8.408276   8.277854   6.700289
    40  H    6.901424  10.577685   9.548518   9.645037   7.575227
    41  H    3.392092   9.796589   7.904371  10.772085   9.930169
    42  H    8.628428  10.776372   9.941771   9.791438   7.896243
                   21         22         23         24         25
    21  C    0.000000
    22  C    2.401148   0.000000
    23  C    8.339678   7.663388   0.000000
    24  H    7.057108   6.938381   2.145221   0.000000
    25  C    7.934139   6.605193   2.402396   3.859344   0.000000
    26  H    6.184005   4.623169   3.858996   4.283837   2.145356
    27  C    7.658195   8.708324   8.856351   6.961415   9.785577
    28  H    8.344472   9.411878   7.976500   6.024359   9.384090
    29  H    7.249261   8.184389   9.881566   8.126496  10.337718
    30  C    1.388824   2.774442   9.514051   8.348527   8.928391
    31  H    1.084794   3.385432   8.348239   6.841814   8.251212
    32  C    2.774430   1.388819   8.926672   8.248218   7.770528
    33  H    3.385417   1.084800   7.118603   6.637291   5.818196
    34  C    8.709358   7.659884   1.390070   3.389995   1.390095
    35  H    9.145591   8.633852   1.084348   2.465033   3.387137
    36  H    8.482109   6.903971   3.387136   4.943698   1.084363
    37  H    8.626920   9.740443   9.783667   7.899324  10.785315
    38  C    2.408878   2.408889   9.781478   8.882743   8.860440
    39  H    2.144453   3.858761  10.344405   9.066139   9.895553
    40  H    3.858751   2.144441   9.369482   8.905073   7.969536
    41  H    9.741711   8.628862   2.150513   4.285366   2.150453
    42  H    3.392063   3.392069  10.781315   9.931179   9.787018
                   26         27         28         29         30
    26  H    0.000000
    27  C    8.890710   0.000000
    28  H    8.922979   2.149185   0.000000
    29  H    9.063107   2.149210   4.286129   0.000000
    30  C    7.121630   8.858457   9.640469   8.273276   0.000000
    31  H    6.643746   6.967585   7.576887   6.717368   2.145313
    32  C    5.817122   9.781186  10.578452   9.104494   2.402462
    33  H    3.763276   8.882905   9.542985   8.392581   3.859075
    34  C    3.389959   9.854094   9.158012  10.677770   9.782234
    35  H    4.943333   9.140867   8.026468  10.358258  10.343562
    36  H    2.465578  10.693668  10.389217  11.118811   9.371467
    37  H    9.938544   1.084125   2.479166   2.479130   9.785245
    38  C    6.969712   9.852823  10.685600   9.148586   1.390081
    39  H    8.143918   9.145615   9.936661   8.555746   1.084353
    40  H    6.021000  10.687276  11.511616   9.940512   3.387152
    41  H    4.285396  10.806600  10.023935  11.679363  10.781792
    42  H    7.906179  10.805311  11.686657  10.015307   2.150451
                   31         32         33         34         35
    31  H    0.000000
    32  C    3.859055   0.000000
    33  H    4.283308   2.145356   0.000000
    34  C    8.883693   8.860047   6.969499   0.000000
    35  H    9.064207   9.893547   8.140394   2.149187   0.000000
    36  H    8.908597   7.970392   6.024369   2.149200   4.286112
    37  H    7.904925  10.780457   9.930481  10.806820  10.007403
    38  C    3.389900   1.390094   3.389946   9.854100  10.686951
    39  H    2.465597   3.387150   4.943418  10.688111  11.122726
    40  H    4.943399   1.084354   2.465647   9.147341  10.372571
    41  H    9.931470   9.787155   7.907066   1.084123   2.479233
    42  H    4.285343   2.150458   4.285392  10.806525  11.688828
                   36         37         38         39         40
    36  H    0.000000
    37  H   11.695262   0.000000
    38  C    9.148051  10.805021   0.000000
    39  H   10.374492  10.011615   2.149134   0.000000
    40  H    8.023201  11.688340   2.149152   4.286037   0.000000
    41  H    2.479104  11.732145  10.806626  11.689465  10.013697
    42  H   10.013557  11.730274   1.084114   2.479039   2.479054
                   41         42
    41  H    0.000000
    42  H   11.731844   0.000000
 Stoichiometry    C24H18
 Framework group  C1[X(C24H18)]
 Deg. of freedom   120
 Full point group                 C1      NOp   1
 Largest Abelian subgroup         C1      NOp   1
 Largest concise Abelian subgroup C1      NOp   1
                         Standard orientation:                         
 ---------------------------------------------------------------------
 Center     Atomic      Atomic             Coordinates (Angstroms)
 Number     Number       Type             X           Y           Z
 ---------------------------------------------------------------------
      1          6           0       -1.271421   -0.589536    0.040743
      2          6           0       -1.132216    0.797586    0.051051
      3          6           0       -0.124425   -1.380776   -0.009903
      4          6           0        0.126120    1.396479    0.010999
      5          1           0       -2.018588    1.421877    0.090760
      6          6           0       -2.617277   -1.213531    0.100326
      7          6           0        1.145695   -0.806847   -0.051014
      8          1           0       -0.220018   -2.460793    0.027304
      9          6           0        1.257400    0.583022   -0.040309
     10          6           0        0.258117    2.875252    0.004610
     11          6           0       -3.663504   -0.733557   -0.691017
     12          6           0       -2.864710   -2.294391    0.949890
     13          6           0        2.358630   -1.660983   -0.105572
     14          1           0        2.238684    1.039188   -0.117493
     15          6           0       -0.584191    3.664497   -0.782036
     16          6           0        1.227447    3.507991    0.786445
     17          6           0       -4.921837   -1.318808   -0.635414
     18          1           0       -3.494332    0.119684   -1.339149
     19          6           0       -4.122701   -2.880143    1.006343
     20          1           0       -2.057581   -2.691865    1.556031
     21          6           0        2.405506   -2.782245   -0.937261
     22          6           0        3.478616   -1.361112    0.673432
     23          6           0       -0.460942    5.047892   -0.786729
     24          1           0       -1.327595    3.187795   -1.411971
     25          6           0        1.351589    4.891286    0.782255
     26          1           0        1.875668    2.910724    1.418859
     27          6           0       -5.155881   -2.394752    0.213050
     28          1           0       -5.724205   -0.927643   -1.251054
     29          1           0       -4.294331   -3.723265    1.666284
     30          6           0        3.540043   -3.581618   -0.988828
     31          1           0        1.552291   -3.016501   -1.564896
     32          6           0        4.613902   -2.159449    0.622410
     33          1           0        3.450403   -0.506345    1.340791
     34          6           0        0.507438    5.666432   -0.004460
     35          1           0       -1.118411    5.643935   -1.409849
     36          1           0        2.104979    5.365553    1.401383
     37          1           0       -6.138101   -2.851544    0.256779
     38          6           0        4.648647   -3.272909   -0.209071
     39          1           0        3.561178   -4.443711   -1.646225
     40          1           0        5.471136   -1.915567    1.240063
     41          1           0        0.603973    6.746243   -0.008097
     42          1           0        5.534581   -3.896461   -0.249145
 ---------------------------------------------------------------------
 Rotational constants (GHZ):           0.1977821           0.1974424           0.1037638
 Leave Link  202 at Mon Nov 14 15:17:09 2022, MaxMem= 16106127360 cpu:               0.6 elap:               0.0
 (Enter /opt/ap/G16/B01/g16/l301.exe)
 Standard basis: 6-311++G(d,p) (5D, 7F)
 Ernie: Thresh=  0.10000D-02 Tol=  0.10000D-05 Strict=F.
 There are   678 symmetry adapted cartesian basis functions of A   symmetry.
 There are   654 symmetry adapted basis functions of A   symmetry.
   654 basis functions,  1026 primitive gaussians,   678 cartesian basis functions
    81 alpha electrons       81 beta electrons
       nuclear repulsion energy      1732.5284193202 Hartrees.
 IExCor= 4639 DFT=T Ex+Corr=wB97XD ExCW=0 ScaHFX=  1.000000
 ScaDFX=  1.000000  1.000000  1.000000  1.000000 ScalE2=  1.000000  1.000000
 IRadAn=      5 IRanWt=     -1 IRanGd=            0 ICorTp=0 IEmpDi=121
 HFx  wShort=  0.000000 wLong=  0.200000 cFull=  0.222036 cShort=  0.000000 cLong=  0.777964
 DFx  wShort=  0.000000 wLong=  0.200000 cFull=  0.000000 cShort=  0.000000 cLong=  1.000000
 NAtoms=   42 NActive=   42 NUniq=   42 SFac= 1.00D+00 NAtFMM=   60 NAOKFM=F Big=F
 Integral buffers will be    131072 words long.
 Raffenetti 2 integral format.
 Two-electron integral symmetry is turned on.
 R6Disp:  Grimme-D2 Dispersion energy=       -0.0289911789 Hartrees.
 Nuclear repulsion after empirical dispersion term =     1732.4994281412 Hartrees.
 Leave Link  301 at Mon Nov 14 15:17:09 2022, MaxMem= 16106127360 cpu:               1.2 elap:               0.0
 (Enter /opt/ap/G16/B01/g16/l302.exe)
 NPDir=0 NMtPBC=     1 NCelOv=     1 NCel=       1 NClECP=     1 NCelD=      1
         NCelK=      1 NCelE2=     1 NClLst=     1 CellRange=     0.0.
 One-electron integrals computed using PRISM.
 One-electron integral symmetry used in STVInt
 NBasis=   654 RedAO= T EigKep=  1.25D-06  NBF=   654
 NBsUse=   645 1.00D-06 EigRej=  8.16D-07 NBFU=   645
 Precomputing XC quadrature grid using
 IXCGrd= 4 IRadAn=           5 IRanWt=          -1 IRanGd=           0 AccXCQ= 0.00D+00.
 Generated NRdTot=       0 NPtTot=           0 NUsed=           0 NTot=          32
 NSgBfM=   669   669   669   669   669 MxSgAt=    42 MxSgA2=    42.
 Leave Link  302 at Mon Nov 14 15:17:10 2022, MaxMem= 16106127360 cpu:              21.0 elap:               0.7
 (Enter /opt/ap/G16/B01/g16/l303.exe)
 DipDrv:  MaxL=1.
 Leave Link  303 at Mon Nov 14 15:17:10 2022, MaxMem= 16106127360 cpu:               2.8 elap:               0.1
 (Enter /opt/ap/G16/B01/g16/l401.exe)
 ExpMin= 3.60D-02 ExpMax= 4.56D+03 ExpMxC= 6.82D+02 IAcc=3 IRadAn=         5 AccDes= 0.00D+00
 Harris functional with IExCor= 4639 and IRadAn=       5 diagonalized for initial guess.
 HarFok:  IExCor= 4639 AccDes= 0.00D+00 IRadAn=         5 IDoV= 1 UseB2=F ITyADJ=14
 ICtDFT=  3500011 ScaDFX=  1.000000  1.000000  1.000000  1.000000
 FoFCou: FMM=F IPFlag=           0 FMFlag=      100000 FMFlg1=           0
         NFxFlg=           0 DoJE=T BraDBF=F KetDBF=T FulRan=T
         wScrn=  0.000000 ICntrl=       500 IOpCl=  0 I1Cent=   200000004 NGrid=           0
         NMat0=    1 NMatS0=      1 NMatT0=    0 NMatD0=    1 NMtDS0=    0 NMtDT0=    0
 Petite list used in FoFCou.
 Harris En= -882.969582220682    
 JPrj=0 DoOrth=F DoCkMO=F.
 Leave Link  401 at Mon Nov 14 15:17:12 2022, MaxMem= 16106127360 cpu:              55.6 elap:               1.8
 (Enter /opt/ap/G16/B01/g16/l502.exe)
 Integral symmetry usage will be decided dynamically.
 Closed shell SCF:
 Using DIIS extrapolation, IDIIS=  1040.
 NGot= 16106127360 LenX= 16105179956 LenY= 16104719594
 Requested convergence on RMS density matrix=1.00D-08 within 512 cycles.
 Requested convergence on MAX density matrix=1.00D-06.
 Requested convergence on             energy=1.00D-06.
 No special actions if energy rises.
 Fock matrices will be formed incrementally for  20 cycles.

 Cycle   1  Pass 1  IDiag  1:
 FoFJK:  IHMeth= 1 ICntrl=       0 DoSepK=T KAlg= 0 I1Cent=           0 FoldK=F
 IRaf=         1 NMat=       1 IRICut=       1 DoRegI=T DoRafI=F ISym2E= 0 IDoP0=0 IntGTp=1.
 FoFCou: FMM=F IPFlag=           0 FMFlag=      100000 FMFlg1=           0
         NFxFlg=           0 DoJE=T BraDBF=F KetDBF=F FulRan=T
         wScrn=  0.000000 ICntrl=       500 IOpCl=  0 I1Cent=           0 NGrid=           0
         NMat0=    1 NMatS0=      1 NMatT0=    0 NMatD0=    1 NMtDS0=    0 NMtDT0=    0
 Symmetry not used in FoFCou.
 E= -925.116374684364    
 DIIS: error= 5.08D-02 at cycle   1 NSaved=   1.
 NSaved= 1 IEnMin= 1 EnMin= -925.116374684364     IErMin= 1 ErrMin= 5.08D-02
 ErrMax= 5.08D-02  0.00D+00 EMaxC= 1.00D-01 BMatC= 1.90D+00 BMatP= 1.90D+00
 IDIUse=3 WtCom= 4.92D-01 WtEn= 5.08D-01
 Coeff-Com:  0.100D+01
 Coeff-En:   0.100D+01
 Coeff:      0.100D+01
 Gap=     0.319 Goal=   None    Shift=    0.000
 GapD=    0.319 DampG=1.000 DampE=0.500 DampFc=0.5000 IDamp=-1.
 Damping current iteration by 5.00D-01
 RMSDP=3.80D-02 MaxDP=4.68D+00              OVMax= 4.30D-02

 Cycle   2  Pass 1  IDiag  1:
 RMSU=  7.08D-03    CP:  8.13D-01
 E= -925.214919303418     Delta-E=       -0.098544619054 Rises=F Damp=T
 DIIS: error= 2.46D-02 at cycle   2 NSaved=   2.
 NSaved= 2 IEnMin= 2 EnMin= -925.214919303418     IErMin= 2 ErrMin= 2.46D-02
 ErrMax= 2.46D-02  0.00D+00 EMaxC= 1.00D-01 BMatC= 4.32D-01 BMatP= 1.90D+00
 IDIUse=3 WtCom= 7.54D-01 WtEn= 2.46D-01
 Coeff-Com: -0.883D+00 0.188D+01
 Coeff-En:   0.000D+00 0.100D+01
 Coeff:     -0.665D+00 0.167D+01
 Gap=     0.327 Goal=   None    Shift=    0.000
 RMSDP=2.19D-02 MaxDP=2.19D+00 DE=-9.85D-02 OVMax= 3.36D-02

 Cycle   3  Pass 1  IDiag  1:
 RMSU=  3.08D-03    CP:  5.85D-01  1.36D+00
 E= -925.303660886928     Delta-E=       -0.088741583510 Rises=F Damp=F
 DIIS: error= 3.24D-03 at cycle   3 NSaved=   3.
 NSaved= 3 IEnMin= 3 EnMin= -925.303660886928     IErMin= 3 ErrMin= 3.24D-03
 ErrMax= 3.24D-03  0.00D+00 EMaxC= 1.00D-01 BMatC= 8.28D-03 BMatP= 4.32D-01
 IDIUse=3 WtCom= 9.68D-01 WtEn= 3.24D-02
 Coeff-Com: -0.364D+00 0.773D+00 0.591D+00
 Coeff-En:   0.000D+00 0.000D+00 0.100D+01
 Coeff:     -0.352D+00 0.748D+00 0.605D+00
 Gap=     0.325 Goal=   None    Shift=    0.000
 RMSDP=2.27D-03 MaxDP=1.91D-01 DE=-8.87D-02 OVMax= 1.91D-02

 Cycle   4  Pass 1  IDiag  1:
 RMSU=  1.34D-03    CP:  5.89D-01  1.57D+00  6.48D-01
 E= -925.311232477910     Delta-E=       -0.007571590982 Rises=F Damp=F
 DIIS: error= 7.58D-04 at cycle   4 NSaved=   4.
 NSaved= 4 IEnMin= 4 EnMin= -925.311232477910     IErMin= 4 ErrMin= 7.58D-04
 ErrMax= 7.58D-04  0.00D+00 EMaxC= 1.00D-01 BMatC= 2.74D-04 BMatP= 8.28D-03
 IDIUse=3 WtCom= 9.92D-01 WtEn= 7.58D-03
 Coeff-Com: -0.111D+00 0.236D+00 0.238D+00 0.637D+00
 Coeff-En:   0.000D+00 0.000D+00 0.000D+00 0.100D+01
 Coeff:     -0.110D+00 0.234D+00 0.236D+00 0.640D+00
 Gap=     0.324 Goal=   None    Shift=    0.000
 RMSDP=7.13D-04 MaxDP=6.01D-02 DE=-7.57D-03 OVMax= 4.21D-03

 Cycle   5  Pass 1  IDiag  1:
 RMSU=  2.50D-04    CP:  5.83D-01  1.60D+00  6.77D-01  8.50D-01
 E= -925.311520287366     Delta-E=       -0.000287809457 Rises=F Damp=F
 DIIS: error= 2.14D-04 at cycle   5 NSaved=   5.
 NSaved= 5 IEnMin= 5 EnMin= -925.311520287366     IErMin= 5 ErrMin= 2.14D-04
 ErrMax= 2.14D-04  0.00D+00 EMaxC= 1.00D-01 BMatC= 2.02D-05 BMatP= 2.74D-04
 IDIUse=3 WtCom= 9.98D-01 WtEn= 2.14D-03
 Coeff-Com:  0.260D-01-0.554D-01-0.261D-01 0.195D+00 0.860D+00
 Coeff-En:   0.000D+00 0.000D+00 0.000D+00 0.000D+00 0.100D+01
 Coeff:      0.260D-01-0.553D-01-0.261D-01 0.195D+00 0.861D+00
 Gap=     0.324 Goal=   None    Shift=    0.000
 RMSDP=1.57D-04 MaxDP=6.10D-03 DE=-2.88D-04 OVMax= 1.51D-03

 Cycle   6  Pass 1  IDiag  1:
 RMSU=  7.11D-05    CP:  5.82D-01  1.60D+00  6.90D-01  9.26D-01  1.23D+00
 E= -925.311546208677     Delta-E=       -0.000025921310 Rises=F Damp=F
 DIIS: error= 5.79D-05 at cycle   6 NSaved=   6.
 NSaved= 6 IEnMin= 6 EnMin= -925.311546208677     IErMin= 6 ErrMin= 5.79D-05
 ErrMax= 5.79D-05  0.00D+00 EMaxC= 1.00D-01 BMatC= 1.40D-06 BMatP= 2.02D-05
 IDIUse=1 WtCom= 1.00D+00 WtEn= 0.00D+00
 Coeff-Com:  0.132D-01-0.281D-01-0.168D-01 0.537D-01 0.331D+00 0.647D+00
 Coeff:      0.132D-01-0.281D-01-0.168D-01 0.537D-01 0.331D+00 0.647D+00
 Gap=     0.324 Goal=   None    Shift=    0.000
 RMSDP=7.02D-05 MaxDP=5.59D-03 DE=-2.59D-05 OVMax= 3.61D-04

 Cycle   7  Pass 1  IDiag  1:
 RMSU=  4.10D-05    CP:  5.83D-01  1.60D+00  6.92D-01  9.54D-01  1.17D+00
                    CP:  8.31D-01
 E= -925.311547922990     Delta-E=       -0.000001714313 Rises=F Damp=F
 DIIS: error= 1.53D-05 at cycle   7 NSaved=   7.
 NSaved= 7 IEnMin= 7 EnMin= -925.311547922990     IErMin= 7 ErrMin= 1.53D-05
 ErrMax= 1.53D-05  0.00D+00 EMaxC= 1.00D-01 BMatC= 1.01D-07 BMatP= 1.40D-06
 IDIUse=1 WtCom= 1.00D+00 WtEn= 0.00D+00
 Coeff-Com: -0.244D-02 0.524D-02 0.230D-02-0.285D-01-0.104D+00 0.966D-01
 Coeff-Com:  0.103D+01
 Coeff:     -0.244D-02 0.524D-02 0.230D-02-0.285D-01-0.104D+00 0.966D-01
 Coeff:      0.103D+01
 Gap=     0.324 Goal=   None    Shift=    0.000
 RMSDP=1.67D-05 MaxDP=1.02D-03 DE=-1.71D-06 OVMax= 2.61D-04

 Cycle   8  Pass 1  IDiag  1:
 RMSU=  6.06D-06    CP:  5.83D-01  1.60D+00  6.94D-01  9.56D-01  1.21D+00
                    CP:  9.25D-01  1.19D+00
 E= -925.311548157400     Delta-E=       -0.000000234410 Rises=F Damp=F
 DIIS: error= 4.06D-06 at cycle   8 NSaved=   8.
 NSaved= 8 IEnMin= 8 EnMin= -925.311548157400     IErMin= 8 ErrMin= 4.06D-06
 ErrMax= 4.06D-06  0.00D+00 EMaxC= 1.00D-01 BMatC= 4.86D-09 BMatP= 1.01D-07
 IDIUse=1 WtCom= 1.00D+00 WtEn= 0.00D+00
 Coeff-Com: -0.845D-03 0.181D-02 0.101D-02-0.713D-02-0.272D-01 0.375D-02
 Coeff-Com:  0.145D+00 0.883D+00
 Coeff:     -0.845D-03 0.181D-02 0.101D-02-0.713D-02-0.272D-01 0.375D-02
 Coeff:      0.145D+00 0.883D+00
 Gap=     0.324 Goal=   None    Shift=    0.000
 RMSDP=2.81D-06 MaxDP=1.47D-04 DE=-2.34D-07 OVMax= 5.35D-05

 Cycle   9  Pass 1  IDiag  1:
 RMSU=  1.62D-06    CP:  5.83D-01  1.60D+00  6.94D-01  9.56D-01  1.21D+00
                    CP:  9.30D-01  1.23D+00  1.22D+00
 E= -925.311548167224     Delta-E=       -0.000000009824 Rises=F Damp=F
 DIIS: error= 2.12D-06 at cycle   9 NSaved=   9.
 NSaved= 9 IEnMin= 9 EnMin= -925.311548167224     IErMin= 9 ErrMin= 2.12D-06
 ErrMax= 2.12D-06  0.00D+00 EMaxC= 1.00D-01 BMatC= 1.60D-09 BMatP= 4.86D-09
 IDIUse=1 WtCom= 1.00D+00 WtEn= 0.00D+00
 Coeff-Com:  0.152D-03-0.330D-03-0.148D-05 0.300D-02 0.110D-01-0.157D-01
 Coeff-Com: -0.168D+00 0.386D+00 0.784D+00
 Coeff:      0.152D-03-0.330D-03-0.148D-05 0.300D-02 0.110D-01-0.157D-01
 Coeff:     -0.168D+00 0.386D+00 0.784D+00
 Gap=     0.324 Goal=   None    Shift=    0.000
 RMSDP=1.70D-06 MaxDP=8.86D-05 DE=-9.82D-09 OVMax= 3.56D-05

 Cycle  10  Pass 1  IDiag  1:
 RMSU=  6.14D-07    CP:  5.83D-01  1.60D+00  6.94D-01  9.55D-01  1.21D+00
                    CP:  9.30D-01  1.24D+00  1.38D+00  6.98D-01
 E= -925.311548170109     Delta-E=       -0.000000002885 Rises=F Damp=F
 DIIS: error= 7.05D-07 at cycle  10 NSaved=  10.
 NSaved=10 IEnMin=10 EnMin= -925.311548170109     IErMin=10 ErrMin= 7.05D-07
 ErrMax= 7.05D-07  0.00D+00 EMaxC= 1.00D-01 BMatC= 2.16D-10 BMatP= 1.60D-09
 IDIUse=1 WtCom= 1.00D+00 WtEn= 0.00D+00
 Coeff-Com:  0.119D-03-0.256D-03-0.603D-04 0.168D-02 0.603D-02-0.524D-02
 Coeff-Com: -0.748D-01 0.636D-01 0.342D+00 0.667D+00
 Coeff:      0.119D-03-0.256D-03-0.603D-04 0.168D-02 0.603D-02-0.524D-02
 Coeff:     -0.748D-01 0.636D-01 0.342D+00 0.667D+00
 Gap=     0.324 Goal=   None    Shift=    0.000
 RMSDP=4.08D-07 MaxDP=4.47D-05 DE=-2.88D-09 OVMax= 8.74D-06

 Cycle  11  Pass 1  IDiag  1:
 RMSU=  1.44D-07    CP:  5.83D-01  1.60D+00  6.94D-01  9.55D-01  1.21D+00
                    CP:  9.30D-01  1.24D+00  1.39D+00  9.07D-01  9.34D-01
 E= -925.311548170452     Delta-E=       -0.000000000343 Rises=F Damp=F
 DIIS: error= 1.87D-07 at cycle  11 NSaved=  11.
 NSaved=11 IEnMin=11 EnMin= -925.311548170452     IErMin=11 ErrMin= 1.87D-07
 ErrMax= 1.87D-07  0.00D+00 EMaxC= 1.00D-01 BMatC= 3.30D-11 BMatP= 2.16D-10
 IDIUse=1 WtCom= 1.00D+00 WtEn= 0.00D+00
 Coeff-Com:  0.208D-04-0.440D-04-0.190D-04 0.120D-03 0.251D-03 0.120D-02
 Coeff-Com:  0.149D-02-0.622D-01 0.195D-02 0.279D+00 0.778D+00
 Coeff:      0.208D-04-0.440D-04-0.190D-04 0.120D-03 0.251D-03 0.120D-02
 Coeff:      0.149D-02-0.622D-01 0.195D-02 0.279D+00 0.778D+00
 Gap=     0.324 Goal=   None    Shift=    0.000
 RMSDP=1.71D-07 MaxDP=1.45D-05 DE=-3.43D-10 OVMax= 3.23D-06

 Cycle  12  Pass 1  IDiag  1:
 RMSU=  5.94D-08    CP:  5.83D-01  1.60D+00  6.94D-01  9.56D-01  1.21D+00
                    CP:  9.30D-01  1.24D+00  1.39D+00  9.01D-01  1.09D+00
                    CP:  1.14D+00
 E= -925.311548170482     Delta-E=       -0.000000000030 Rises=F Damp=F
 DIIS: error= 8.45D-08 at cycle  12 NSaved=  12.
 NSaved=12 IEnMin=12 EnMin= -925.311548170482     IErMin=12 ErrMin= 8.45D-08
 ErrMax= 8.45D-08  0.00D+00 EMaxC= 1.00D-01 BMatC= 1.33D-12 BMatP= 3.30D-11
 IDIUse=1 WtCom= 1.00D+00 WtEn= 0.00D+00
 Coeff-Com: -0.140D-04 0.304D-04 0.110D-04-0.218D-03-0.795D-03 0.905D-03
 Coeff-Com:  0.956D-02-0.115D-01-0.315D-01-0.687D-01-0.677D-01 0.117D+01
 Coeff:     -0.140D-04 0.304D-04 0.110D-04-0.218D-03-0.795D-03 0.905D-03
 Coeff:      0.956D-02-0.115D-01-0.315D-01-0.687D-01-0.677D-01 0.117D+01
 Gap=     0.324 Goal=   None    Shift=    0.000
 RMSDP=6.77D-08 MaxDP=3.39D-06 DE=-3.00D-11 OVMax= 1.24D-06

 Cycle  13  Pass 1  IDiag  1:
 RMSU=  2.24D-08    CP:  5.83D-01  1.60D+00  6.94D-01  9.56D-01  1.21D+00
                    CP:  9.30D-01  1.24D+00  1.39D+00  9.12D-01  1.13D+00
                    CP:  1.23D+00  1.44D+00
 E= -925.311548170477     Delta-E=        0.000000000005 Rises=F Damp=F
 DIIS: error= 2.27D-08 at cycle  13 NSaved=  13.
 NSaved=13 IEnMin=12 EnMin= -925.311548170482     IErMin=13 ErrMin= 2.27D-08
 ErrMax= 2.27D-08  0.00D+00 EMaxC= 1.00D-01 BMatC= 1.12D-13 BMatP= 1.33D-12
 IDIUse=1 WtCom= 1.00D+00 WtEn= 0.00D+00
 Coeff-Com: -0.335D-05 0.719D-05 0.330D-05-0.415D-04-0.140D-03 0.107D-03
 Coeff-Com:  0.141D-02 0.104D-02-0.354D-02-0.241D-01-0.652D-01 0.202D+00
 Coeff-Com:  0.888D+00
 Coeff:     -0.335D-05 0.719D-05 0.330D-05-0.415D-04-0.140D-03 0.107D-03
 Coeff:      0.141D-02 0.104D-02-0.354D-02-0.241D-01-0.652D-01 0.202D+00
 Coeff:      0.888D+00
 Gap=     0.324 Goal=   None    Shift=    0.000
 RMSDP=1.22D-08 MaxDP=8.85D-07 DE= 5.46D-12 OVMax= 2.77D-07

 Cycle  14  Pass 1  IDiag  1:
 RMSU=  4.46D-09    CP:  5.83D-01  1.60D+00  6.94D-01  9.56D-01  1.21D+00
                    CP:  9.30D-01  1.24D+00  1.39D+00  9.12D-01  1.13D+00
                    CP:  1.23D+00  1.56D+00  1.28D+00
 E= -925.311548170438     Delta-E=        0.000000000039 Rises=F Damp=F
 DIIS: error= 7.51D-09 at cycle  14 NSaved=  14.
 NSaved=14 IEnMin=12 EnMin= -925.311548170482     IErMin=14 ErrMin= 7.51D-09
 ErrMax= 7.51D-09  0.00D+00 EMaxC= 1.00D-01 BMatC= 4.07D-14 BMatP= 1.12D-13
 IDIUse=1 WtCom= 1.00D+00 WtEn= 0.00D+00
 Coeff-Com:  0.625D-06-0.139D-05-0.231D-06 0.143D-04 0.588D-04-0.886D-04
 Coeff-Com: -0.826D-03 0.214D-02 0.333D-02-0.526D-03-0.228D-01-0.935D-01
 Coeff-Com:  0.417D+00 0.695D+00
 Coeff:      0.625D-06-0.139D-05-0.231D-06 0.143D-04 0.588D-04-0.886D-04
 Coeff:     -0.826D-03 0.214D-02 0.333D-02-0.526D-03-0.228D-01-0.935D-01
 Coeff:      0.417D+00 0.695D+00
 Gap=     0.324 Goal=   None    Shift=    0.000
 RMSDP=8.58D-09 MaxDP=6.52D-07 DE= 3.91D-11 OVMax= 8.01D-08

 SCF Done:  E(RwB97XD) =  -925.311548170     A.U. after   14 cycles
            NFock= 14  Conv=0.86D-08     -V/T= 2.0044
 KE= 9.212956415019D+02 PE=-5.611413135730D+03 EE= 2.032306517917D+03
 Leave Link  502 at Mon Nov 14 15:19:35 2022, MaxMem= 16106127360 cpu:            4559.2 elap:             142.7
 (Enter /opt/ap/G16/B01/g16/l601.exe)
 Copying SCF densities to generalized density rwf, IOpCl= 0 IROHF=0.

 **********************************************************************

            Population analysis using the SCF Density.

 **********************************************************************

 Orbital symmetries:
       Occupied  (A) (A) (A) (A) (A) (A) (A) (A) (A) (A) (A) (A)
                 (A) (A) (A) (A) (A) (A) (A) (A) (A) (A) (A) (A)
                 (A) (A) (A) (A) (A) (A) (A) (A) (A) (A) (A) (A)
                 (A) (A) (A) (A) (A) (A) (A) (A) (A) (A) (A) (A)
                 (A) (A) (A) (A) (A) (A) (A) (A) (A) (A) (A) (A)
                 (A) (A) (A) (A) (A) (A) (A) (A) (A) (A) (A) (A)
                 (A) (A) (A) (A) (A) (A) (A) (A) (A)
       Virtual   (A) (A) (A) (A) (A) (A) (A) (A) (A) (A) (A) (A)
                 (A) (A) (A) (A) (A) (A) (A) (A) (A) (A) (A) (A)
                 (A) (A) (A) (A) (A) (A) (A) (A) (A) (A) (A) (A)
                 (A) (A) (A) (A) (A) (A) (A) (A) (A) (A) (A) (A)
                 (A) (A) (A) (A) (A) (A) (A) (A) (A) (A) (A) (A)
                 (A) (A) (A) (A) (A) (A) (A) (A) (A) (A) (A) (A)
                 (A) (A) (A) (A) (A) (A) (A) (A) (A) (A) (A) (A)
                 (A) (A) (A) (A) (A) (A) (A) (A) (A) (A) (A) (A)
                 (A) (A) (A) (A) (A) (A) (A) (A) (A) (A) (A) (A)
                 (A) (A) (A) (A) (A) (A) (A) (A) (A) (A) (A) (A)
                 (A) (A) (A) (A) (A) (A) (A) (A) (A) (A) (A) (A)
                 (A) (A) (A) (A) (A) (A) (A) (A) (A) (A) (A) (A)
                 (A) (A) (A) (A) (A) (A) (A) (A) (A) (A) (A) (A)
                 (A) (A) (A) (A) (A) (A) (A) (A) (A) (A) (A) (A)
                 (A) (A) (A) (A) (A) (A) (A) (A) (A) (A) (A) (A)
                 (A) (A) (A) (A) (A) (A) (A) (A) (A) (A) (A) (A)
                 (A) (A) (A) (A) (A) (A) (A) (A) (A) (A) (A) (A)
                 (A) (A) (A) (A) (A) (A) (A) (A) (A) (A) (A) (A)
                 (A) (A) (A) (A) (A) (A) (A) (A) (A) (A) (A) (A)
                 (A) (A) (A) (A) (A) (A) (A) (A) (A) (A) (A) (A)
                 (A) (A) (A) (A) (A) (A) (A) (A) (A) (A) (A) (A)
                 (A) (A) (A) (A) (A) (A) (A) (A) (A) (A) (A) (A)
                 (A) (A) (A) (A) (A) (A) (A) (A) (A) (A) (A) (A)
                 (A) (A) (A) (A) (A) (A) (A) (A) (A) (A) (A) (A)
                 (A) (A) (A) (A) (A) (A) (A) (A) (A) (A) (A) (A)
                 (A) (A) (A) (A) (A) (A) (A) (A) (A) (A) (A) (A)
                 (A) (A) (A) (A) (A) (A) (A) (A) (A) (A) (A) (A)
                 (A) (A) (A) (A) (A) (A) (A) (A) (A) (A) (A) (A)
                 (A) (A) (A) (A) (A) (A) (A) (A) (A) (A) (A) (A)
                 (A) (A) (A) (A) (A) (A) (A) (A) (A) (A) (A) (A)
                 (A) (A) (A) (A) (A) (A) (A) (A) (A) (A) (A) (A)
                 (A) (A) (A) (A) (A) (A) (A) (A) (A) (A) (A) (A)
                 (A) (A) (A) (A) (A) (A) (A) (A) (A) (A) (A) (A)
                 (A) (A) (A) (A) (A) (A) (A) (A) (A) (A) (A) (A)
                 (A) (A) (A) (A) (A) (A) (A) (A) (A) (A) (A) (A)
                 (A) (A) (A) (A) (A) (A) (A) (A) (A) (A) (A) (A)
                 (A) (A) (A) (A) (A) (A) (A) (A) (A) (A) (A) (A)
                 (A) (A) (A) (A) (A) (A) (A) (A) (A) (A) (A) (A)
                 (A) (A) (A) (A) (A) (A) (A) (A) (A) (A) (A) (A)
                 (A) (A) (A) (A) (A) (A) (A) (A) (A) (A) (A) (A)
                 (A) (A) (A) (A) (A) (A) (A) (A) (A) (A) (A) (A)
                 (A) (A) (A) (A) (A) (A) (A) (A) (A) (A) (A) (A)
                 (A) (A) (A) (A) (A) (A) (A) (A) (A) (A) (A) (A)
                 (A) (A) (A) (A) (A) (A) (A) (A) (A) (A) (A) (A)
                 (A) (A) (A) (A) (A) (A) (A) (A) (A) (A) (A) (A)
                 (A) (A) (A) (A) (A) (A) (A) (A) (A) (A) (A) (A)
                 (A) (A) (A) (A) (A) (A) (A) (A) (A) (A) (A) (A)
 The electronic state is 1-A.
 Alpha  occ. eigenvalues --  -10.30442 -10.30434 -10.30434 -10.30353 -10.30345
 Alpha  occ. eigenvalues --  -10.30330 -10.29278 -10.29269 -10.29263 -10.29257
 Alpha  occ. eigenvalues --  -10.29239 -10.29232 -10.29200 -10.29192 -10.29191
 Alpha  occ. eigenvalues --  -10.29180 -10.29151 -10.29137 -10.29131 -10.29108
 Alpha  occ. eigenvalues --  -10.29107 -10.29095 -10.29083 -10.29078  -0.99003
 Alpha  occ. eigenvalues --   -0.97076  -0.97063  -0.95282  -0.89446  -0.89439
 Alpha  occ. eigenvalues --   -0.85358  -0.85335  -0.85279  -0.85069  -0.82266
 Alpha  occ. eigenvalues --   -0.82260  -0.73569  -0.73562  -0.71156  -0.70781
 Alpha  occ. eigenvalues --   -0.70148  -0.70114  -0.66715  -0.66708  -0.63593
 Alpha  occ. eigenvalues --   -0.60725  -0.60716  -0.58674  -0.57318  -0.56704
 Alpha  occ. eigenvalues --   -0.54928  -0.54821  -0.54363  -0.54167  -0.52768
 Alpha  occ. eigenvalues --   -0.51865  -0.51514  -0.51461  -0.51165  -0.50877
 Alpha  occ. eigenvalues --   -0.50766  -0.47988  -0.46755  -0.46271  -0.45843
 Alpha  occ. eigenvalues --   -0.45793  -0.44952  -0.44367  -0.43182  -0.43131
 Alpha  occ. eigenvalues --   -0.42941  -0.41718  -0.41626  -0.36638  -0.36441
 Alpha  occ. eigenvalues --   -0.33655  -0.33633  -0.33623  -0.32986  -0.30392
 Alpha  occ. eigenvalues --   -0.30261
 Alpha virt. eigenvalues --    0.02123   0.02231   0.03670   0.04189   0.04276
 Alpha virt. eigenvalues --    0.04636   0.04829   0.04912   0.05111   0.05137
 Alpha virt. eigenvalues --    0.05203   0.05686   0.05828   0.06786   0.07011
 Alpha virt. eigenvalues --    0.07097   0.07902   0.07995   0.08239   0.08586
 Alpha virt. eigenvalues --    0.08720   0.09022   0.09235   0.09941   0.11066
 Alpha virt. eigenvalues --    0.11510   0.12148   0.12482   0.12753   0.13361
 Alpha virt. eigenvalues --    0.13737   0.13763   0.14293   0.14381   0.15445
 Alpha virt. eigenvalues --    0.15593   0.15796   0.15869   0.16139   0.16184
 Alpha virt. eigenvalues --    0.16531   0.16816   0.16986   0.17378   0.17463
 Alpha virt. eigenvalues --    0.17555   0.17750   0.18037   0.18068   0.18318
 Alpha virt. eigenvalues --    0.18350   0.18485   0.18510   0.18791   0.19136
 Alpha virt. eigenvalues --    0.19292   0.19467   0.19623   0.20220   0.20468
 Alpha virt. eigenvalues --    0.20571   0.20912   0.21135   0.21582   0.21621
 Alpha virt. eigenvalues --    0.22304   0.22351   0.22372   0.22771   0.22986
 Alpha virt. eigenvalues --    0.23261   0.23520   0.23656   0.23788   0.23838
 Alpha virt. eigenvalues --    0.24741   0.24787   0.25231   0.25324   0.25549
 Alpha virt. eigenvalues --    0.25667   0.25984   0.26525   0.26923   0.27463
 Alpha virt. eigenvalues --    0.27480   0.27681   0.27765   0.28239   0.28563
 Alpha virt. eigenvalues --    0.28683   0.29040   0.29313   0.29336   0.29529
 Alpha virt. eigenvalues --    0.29709   0.29854   0.30523   0.31129   0.31217
 Alpha virt. eigenvalues --    0.31531   0.32146   0.32376   0.32972   0.33185
 Alpha virt. eigenvalues --    0.33478   0.33876   0.34037   0.34301   0.34460
 Alpha virt. eigenvalues --    0.34901   0.34916   0.34937   0.35274   0.35762
 Alpha virt. eigenvalues --    0.35935   0.36487   0.36644   0.36737   0.36986
 Alpha virt. eigenvalues --    0.37334   0.37404   0.37861   0.37962   0.38408
 Alpha virt. eigenvalues --    0.38528   0.38805   0.39297   0.39551   0.39692
 Alpha virt. eigenvalues --    0.39882   0.40677   0.40783   0.41305   0.41699
 Alpha virt. eigenvalues --    0.41935   0.42101   0.42332   0.43109   0.43535
 Alpha virt. eigenvalues --    0.43887   0.43939   0.44620   0.44740   0.44819
 Alpha virt. eigenvalues --    0.45281   0.45883   0.47707   0.47791   0.48042
 Alpha virt. eigenvalues --    0.48417   0.49556   0.53161   0.53709   0.57157
 Alpha virt. eigenvalues --    0.58208   0.58553   0.58968   0.59193   0.60611
 Alpha virt. eigenvalues --    0.62156   0.62237   0.62498   0.62918   0.63000
 Alpha virt. eigenvalues --    0.63326   0.63793   0.63892   0.64041   0.64220
 Alpha virt. eigenvalues --    0.64261   0.65225   0.65321   0.65391   0.65861
 Alpha virt. eigenvalues --    0.65989   0.66446   0.67178   0.67381   0.67549
 Alpha virt. eigenvalues --    0.68543   0.69286   0.69972   0.70096   0.70707
 Alpha virt. eigenvalues --    0.70817   0.71232   0.71437   0.72060   0.72347
 Alpha virt. eigenvalues --    0.72967   0.73294   0.73759   0.74021   0.74047
 Alpha virt. eigenvalues --    0.75454   0.76052   0.76656   0.76841   0.77845
 Alpha virt. eigenvalues --    0.78620   0.78953   0.79880   0.80295   0.80542
 Alpha virt. eigenvalues --    0.80637   0.81268   0.81352   0.81935   0.82314
 Alpha virt. eigenvalues --    0.82605   0.82679   0.83140   0.83779   0.84094
 Alpha virt. eigenvalues --    0.84702   0.84802   0.84914   0.85022   0.85692
 Alpha virt. eigenvalues --    0.85898   0.86816   0.88128   0.88214   0.88690
 Alpha virt. eigenvalues --    0.89261   0.89824   0.91503   0.91669   0.92070
 Alpha virt. eigenvalues --    0.92177   0.92465   0.93432   0.93679   0.93829
 Alpha virt. eigenvalues --    0.94038   0.94522   0.94759   0.96099   0.96569
 Alpha virt. eigenvalues --    0.96662   0.97066   0.97171   0.98422   0.99212
 Alpha virt. eigenvalues --    0.99379   1.00281   1.00673   1.01137   1.01846
 Alpha virt. eigenvalues --    1.02504   1.02729   1.03790   1.04364   1.04472
 Alpha virt. eigenvalues --    1.05907   1.05993   1.06925   1.07150   1.07352
 Alpha virt. eigenvalues --    1.07671   1.08179   1.08850   1.09228   1.11640
 Alpha virt. eigenvalues --    1.12020   1.12653   1.12992   1.13258   1.13820
 Alpha virt. eigenvalues --    1.14710   1.14885   1.16164   1.16984   1.17187
 Alpha virt. eigenvalues --    1.18142   1.18578   1.19219   1.19300   1.21278
 Alpha virt. eigenvalues --    1.21704   1.22280   1.22833   1.23571   1.23923
 Alpha virt. eigenvalues --    1.24257   1.24929   1.25063   1.28970   1.29253
 Alpha virt. eigenvalues --    1.37597   1.39680   1.41157   1.41443   1.41703
 Alpha virt. eigenvalues --    1.45923   1.47385   1.47739   1.52368   1.55613
 Alpha virt. eigenvalues --    1.56395   1.58065   1.58409   1.59235   1.59331
 Alpha virt. eigenvalues --    1.59474   1.60138   1.60967   1.61189   1.61482
 Alpha virt. eigenvalues --    1.61747   1.62045   1.62419   1.63349   1.63508
 Alpha virt. eigenvalues --    1.64354   1.65582   1.65654   1.66031   1.66475
 Alpha virt. eigenvalues --    1.66875   1.67212   1.67721   1.68549   1.68773
 Alpha virt. eigenvalues --    1.69341   1.72727   1.73552   1.73984   1.74101
 Alpha virt. eigenvalues --    1.74232   1.75204   1.75500   1.76070   1.76349
 Alpha virt. eigenvalues --    1.77708   1.78282   1.81414   1.82183   1.82755
 Alpha virt. eigenvalues --    1.82836   1.82883   1.83948   1.84678   1.84900
 Alpha virt. eigenvalues --    1.85492   1.86329   1.86432   1.86884   1.87396
 Alpha virt. eigenvalues --    1.87641   1.89748   1.92345   1.92678   1.93203
 Alpha virt. eigenvalues --    1.94006   1.94057   1.97181   1.99821   2.00170
 Alpha virt. eigenvalues --    2.00482   2.01656   2.02374   2.02413   2.02841
 Alpha virt. eigenvalues --    2.03007   2.03252   2.03772   2.04434   2.04625
 Alpha virt. eigenvalues --    2.04665   2.04735   2.05550   2.05722   2.06141
 Alpha virt. eigenvalues --    2.06807   2.07387   2.07483   2.08241   2.08708
 Alpha virt. eigenvalues --    2.10713   2.11629   2.12253   2.12914   2.13064
 Alpha virt. eigenvalues --    2.13754   2.14974   2.15310   2.16802   2.17470
 Alpha virt. eigenvalues --    2.18167   2.18861   2.19694   2.20101   2.20377
 Alpha virt. eigenvalues --    2.24010   2.27984   2.30400   2.33906   2.35471
 Alpha virt. eigenvalues --    2.36581   2.36655   2.38263   2.39863   2.43959
 Alpha virt. eigenvalues --    2.44311   2.44939   2.45661   2.48526   2.49341
 Alpha virt. eigenvalues --    2.51743   2.53034   2.53236   2.53332   2.54687
 Alpha virt. eigenvalues --    2.55448   2.56278   2.56594   2.56646   2.58041
 Alpha virt. eigenvalues --    2.58449   2.58718   2.62308   2.62820   2.63688
 Alpha virt. eigenvalues --    2.72735   2.73178   2.73587   2.75686   2.75931
 Alpha virt. eigenvalues --    2.76191   2.76451   2.78734   2.79224   2.79753
 Alpha virt. eigenvalues --    2.80074   2.80284   2.80538   2.80695   2.80886
 Alpha virt. eigenvalues --    2.81410   2.82341   2.82725   2.83171   2.83213
 Alpha virt. eigenvalues --    2.83268   2.84159   2.85459   2.86022   2.87076
 Alpha virt. eigenvalues --    2.87372   2.87657   2.87881   2.91033   2.92203
 Alpha virt. eigenvalues --    2.92410   2.92486   2.92938   2.93135   2.93566
 Alpha virt. eigenvalues --    2.93927   2.94501   2.94643   2.94913   2.97783
 Alpha virt. eigenvalues --    2.99832   3.00321   3.01321   3.01544   3.02144
 Alpha virt. eigenvalues --    3.04255   3.04599   3.04737   3.05245   3.05562
 Alpha virt. eigenvalues --    3.06151   3.06649   3.07656   3.07869   3.11339
 Alpha virt. eigenvalues --    3.11846   3.15668   3.18515   3.19394   3.19788
 Alpha virt. eigenvalues --    3.21246   3.22736   3.25416   3.31768   3.31936
 Alpha virt. eigenvalues --    3.32313   3.33653   3.34823   3.35557   3.37268
 Alpha virt. eigenvalues --    3.47171   3.47351   3.49064   3.49463   3.49672
 Alpha virt. eigenvalues --    3.49957   3.53610   3.53697   3.60705   3.60905
 Alpha virt. eigenvalues --    3.61379   3.63357   3.64907   3.65352   3.66123
 Alpha virt. eigenvalues --    3.73707   3.73761   3.76289   3.76317   3.76699
 Alpha virt. eigenvalues --    3.77338   3.90975   3.92281   3.92879   4.09811
 Alpha virt. eigenvalues --    4.09993   4.10284   4.14490   4.14520   4.14612
 Alpha virt. eigenvalues --    4.24152   4.24332   4.26128   4.26136   4.26631
 Alpha virt. eigenvalues --    4.26959   4.28207   4.28451   4.50377   4.66562
 Alpha virt. eigenvalues --    4.66932   4.93713   4.95259   4.95717   4.98456
 Alpha virt. eigenvalues --   23.68247  23.81499  23.81786  23.88067  24.08419
 Alpha virt. eigenvalues --   24.08479  24.10853  24.10962  24.11197  24.11534
 Alpha virt. eigenvalues --   24.12971  24.13041  24.20484  24.20592  24.20952
 Alpha virt. eigenvalues --   24.24076  24.24342  24.24365  24.24602  24.24656
 Alpha virt. eigenvalues --   24.31186  24.33803  24.33842  24.34867
          Condensed to atoms (all electrons):
               1          2          3          4          5          6
     1  C   19.376445   0.212471   1.537554  -6.789125  -0.090620   0.632882
     2  C    0.212471  13.565466  -0.020628   1.949922   0.310075  -2.654713
     3  C    1.537554  -0.020628  11.221184  -2.158368   0.024064  -1.992639
     4  C   -6.789125   1.949922  -2.158368  19.645729  -0.044150  -0.832712
     5  H   -0.090620   0.310075   0.024064  -0.044150   0.518024   0.054932
     6  C    0.632882  -2.654713  -1.992639  -0.832712   0.054932  14.823808
     7  C   -5.638360  -2.720174   1.369472  -6.823496   0.115434  -0.262089
     8  H   -0.045285   0.100188   0.366609   0.058897  -0.001869  -0.042944
     9  C   -2.764037  -0.147424  -0.145117   1.674847   0.069890  -1.557146
    10  C   -0.470977  -2.195665  -1.639039   0.373464   0.012777   1.206445
    11  C   -1.587696   3.121167  -2.680205   1.651300  -0.154177  -1.415364
    12  C   -0.128874  -2.906059   2.267001  -0.946937   0.086725  -0.589571
    13  C   -0.179529  -1.567119  -1.925486  -0.914772  -0.019718   0.848681
    14  H    0.112587   0.063255   0.022699  -0.022018  -0.002866  -0.018017
    15  C    1.899952   2.386487   0.049070  -1.035269  -0.118449  -0.132398
    16  C   -1.196844  -2.547448  -0.004377  -1.363235   0.063320   0.177297
    17  C    0.146873   0.161494   0.089133   0.199173  -0.017183  -1.523153
    18  H    0.091257  -0.034363  -0.011930  -0.084833   0.001526  -0.003429
    19  C   -0.201437   0.189949   0.578653  -0.073078   0.017436  -2.067997
    20  H    0.026355  -0.086303   0.004175  -0.013174  -0.001344  -0.021125
    21  C    1.088596  -0.162635   2.386389  -0.937512  -0.009395   0.363858
    22  C   -1.018088   0.182695  -2.735315   1.636516   0.007389  -0.094112
    23  C    0.249561   0.388364   0.079126  -0.030461  -0.011472  -0.075292
    24  H   -0.083121  -0.058193  -0.020797   0.082174  -0.001078   0.003437
    25  C   -0.150540   0.109106   0.068130   0.019767   0.006937  -0.048984
    26  H    0.008259  -0.014188  -0.020687   0.075370  -0.002778   0.012219
    27  C   -0.205407  -0.061813  -0.166776  -0.005692  -0.002042  -0.193679
    28  H   -0.000548   0.003983   0.004013   0.005382  -0.001094   0.015855
    29  H    0.002736   0.013094   0.000675   0.004544   0.000293   0.024750
    30  C    0.354037   0.082118   0.556101  -0.066340  -0.002790   0.039232
    31  H   -0.029850  -0.023522   0.001168  -0.012916   0.000072   0.033205
    32  C   -0.102446   0.066031   0.066660   0.207480   0.003645  -0.080864
    33  H    0.003851  -0.012936  -0.007429  -0.089787   0.000040   0.013410
    34  C    0.027189  -0.092071  -0.022418  -0.294741  -0.000179   0.048032
    35  H    0.004242   0.007939   0.000483   0.001142  -0.000869  -0.003928
    36  H    0.000270   0.004985   0.000451   0.002776   0.000383  -0.001124
    37  H   -0.006011  -0.005316  -0.003991   0.000360   0.000240   0.024805
    38  C   -0.061323  -0.030522  -0.144380  -0.007725   0.000164   0.035213
    39  H    0.006000   0.001410   0.000577   0.004307  -0.000058  -0.002112
    40  H    0.000844   0.000477   0.002627   0.005969  -0.000022  -0.000861
    41  H    0.001053  -0.005566  -0.000768  -0.007423   0.000029   0.001250
    42  H    0.000308  -0.000841  -0.003391   0.000272  -0.000003   0.000865
               7          8          9         10         11         12
     1  C   -5.638360  -0.045285  -2.764037  -0.470977  -1.587696  -0.128874
     2  C   -2.720174   0.100188  -0.147424  -2.195665   3.121167  -2.906059
     3  C    1.369472   0.366609  -0.145117  -1.639039  -2.680205   2.267001
     4  C   -6.823496   0.058897   1.674847   0.373464   1.651300  -0.946937
     5  H    0.115434  -0.001869   0.069890   0.012777  -0.154177   0.086725
     6  C   -0.262089  -0.042944  -1.557146   1.206445  -1.415364  -0.589571
     7  C   19.431650  -0.061665   0.392154  -0.397515  -0.971621   1.003998
     8  H   -0.061665   0.534239   0.100149  -0.035447   0.052325  -0.102417
     9  C    0.392154   0.100149  13.667526  -2.113793   0.173026  -0.202686
    10  C   -0.397515  -0.035447  -2.113793  13.629135  -0.050550   0.159111
    11  C   -0.971621   0.052325   0.173026  -0.050550  17.747060  -8.845882
    12  C    1.003998  -0.102417  -0.202686   0.159111  -8.845882  16.561065
    13  C    0.679993  -0.057679  -2.613896   1.238019  -0.074256   0.337666
    14  H   -0.101563  -0.001813   0.301152   0.016377   0.004943  -0.006238
    15  C   -1.208082  -0.001581  -2.521148  -0.805365   0.189871  -0.135718
    16  C    1.923153  -0.002335   2.441937  -0.629495  -0.109290   0.108016
    17  C   -0.097257   0.007563   0.055686  -0.111676  -0.616620   0.275887
    18  H    0.003540  -0.001917  -0.011883  -0.008510   0.432311  -0.031723
    19  C    0.373137   0.032192   0.088142  -0.036713   0.143392  -0.719195
    20  H   -0.033206  -0.014041  -0.026945   0.017046  -0.081664   0.591751
    21  C   -0.175263  -0.081595  -3.021795   0.136443   0.161444  -0.355254
    22  C   -1.570702   0.038018   3.257358  -0.068444  -0.059052   0.137044
    23  C   -0.126542   0.001714   0.132132  -1.707743  -0.044195   0.010204
    24  H    0.005840  -0.000015  -0.017006   0.016553   0.027385  -0.006071
    25  C    0.216668   0.002046   0.365853  -1.673543   0.037341  -0.019931
    26  H   -0.080749   0.000001  -0.062369   0.017899  -0.005459   0.005906
    27  C   -0.071535  -0.000470  -0.032222   0.041069  -0.363476  -0.157458
    28  H    0.001097   0.000265   0.000308  -0.002397  -0.077038   0.004634
    29  H    0.006453   0.000453   0.001619  -0.001263   0.028941  -0.116277
    30  C   -0.235791   0.034176   0.172978  -0.037122   0.052103  -0.118825
    31  H    0.020485  -0.014958  -0.082232   0.015812   0.005353  -0.002459
    32  C    0.164079   0.005881   0.200868  -0.108881  -0.013060   0.030317
    33  H    0.091969  -0.002794  -0.035371  -0.008062   0.004724  -0.006392
    34  C    0.025235  -0.000702  -0.100309  -0.196277  -0.020845   0.007707
    35  H    0.000546   0.000004   0.005888   0.017284   0.001981  -0.000602
    36  H    0.004176   0.000007   0.008334   0.017125   0.000508  -0.000307
    37  H    0.000130  -0.000330  -0.000856   0.001167  -0.014174   0.019776
    38  C   -0.215921   0.001928  -0.058399   0.038857   0.000602  -0.006716
    39  H    0.003345   0.000267   0.012068  -0.001171   0.000311  -0.000278
    40  H   -0.000969   0.000233   0.004774  -0.002404  -0.000062   0.000291
    41  H    0.001060  -0.000015  -0.005786   0.022425  -0.000495   0.000188
    42  H   -0.005948  -0.000238  -0.005255   0.001142   0.000038  -0.000121
              13         14         15         16         17         18
     1  C   -0.179529   0.112587   1.899952  -1.196844   0.146873   0.091257
     2  C   -1.567119   0.063255   2.386487  -2.547448   0.161494  -0.034363
     3  C   -1.925486   0.022699   0.049070  -0.004377   0.089133  -0.011930
     4  C   -0.914772  -0.022018  -1.035269  -1.363235   0.199173  -0.084833
     5  H   -0.019718  -0.002866  -0.118449   0.063320  -0.017183   0.001526
     6  C    0.848681  -0.018017  -0.132398   0.177297  -1.523153  -0.003429
     7  C    0.679993  -0.101563  -1.208082   1.923153  -0.097257   0.003540
     8  H   -0.057679  -0.001813  -0.001581  -0.002335   0.007563  -0.001917
     9  C   -2.613896   0.301152  -2.521148   2.441937   0.055686  -0.011883
    10  C    1.238019   0.016377  -0.805365  -0.629495  -0.111676  -0.008510
    11  C   -0.074256   0.004943   0.189871  -0.109290  -0.616620   0.432311
    12  C    0.337666  -0.006238  -0.135718   0.108016   0.275887  -0.031723
    13  C   14.885066   0.058705   0.207324  -0.204610  -0.075075   0.012715
    14  H    0.058705   0.499845   0.068119  -0.120411   0.003310   0.000037
    15  C    0.207324   0.068119  14.378821  -6.501425   0.000981   0.024739
    16  C   -0.204610  -0.120411  -6.501425  14.620985  -0.004699  -0.007451
    17  C   -0.075075   0.003310   0.000981  -0.004699   7.645917  -0.042634
    18  H    0.012715   0.000037   0.024739  -0.007451  -0.042634   0.500205
    19  C    0.038253  -0.002466   0.022743  -0.008325  -0.595216  -0.013996
    20  H    0.035798   0.000096  -0.004209   0.004301  -0.000474   0.000153
    21  C   -0.636770   0.082284   0.122197  -0.157173   0.027187  -0.004993
    22  C   -1.511198  -0.148794  -0.142552   0.255721  -0.010818   0.003950
    23  C   -0.047083   0.009391  -0.165261  -0.157968  -0.021335   0.001580
    24  H    0.012823  -0.002657   0.437284  -0.013851  -0.005712  -0.004619
    25  C   -0.085750  -0.016298  -0.219239  -0.175748   0.005771   0.001112
    26  H    0.000463  -0.001504  -0.012409   0.435650  -0.000872  -0.000059
    27  C    0.031853   0.000194  -0.018279   0.006473   0.443508   0.015334
    28  H   -0.000756  -0.000023   0.001204  -0.000275   0.409225  -0.010559
    29  H   -0.002107  -0.000054   0.000483  -0.000196   0.005574  -0.000462
    30  C   -2.133582   0.016712  -0.008120   0.024046   0.001459  -0.000390
    31  H   -0.015306  -0.001799   0.004555  -0.004545  -0.000834   0.000153
    32  C   -1.535024  -0.013088  -0.003371  -0.006080   0.001286  -0.000120
    33  H    0.000838  -0.000972  -0.007820   0.025489  -0.000077   0.000211
    34  C    0.045303  -0.000340  -0.232626  -0.305930  -0.004319  -0.000690
    35  H   -0.001090   0.000356  -0.083135   0.001510   0.000636   0.000435
    36  H   -0.003792  -0.000815  -0.001018  -0.082810   0.000027   0.000053
    37  H    0.000808  -0.000002  -0.000547   0.000181  -0.060843   0.001323
    38  C   -0.185200  -0.003039   0.005557  -0.016059  -0.000512   0.000033
    39  H    0.020180   0.000352  -0.000175   0.000453   0.000056   0.000012
    40  H    0.010300  -0.000929  -0.000248   0.001117   0.000005  -0.000005
    41  H    0.001208   0.000037   0.008123   0.003469  -0.000120  -0.000048
    42  H    0.026441   0.000229   0.000174  -0.000534  -0.000011   0.000003
              19         20         21         22         23         24
     1  C   -0.201437   0.026355   1.088596  -1.018088   0.249561  -0.083121
     2  C    0.189949  -0.086303  -0.162635   0.182695   0.388364  -0.058193
     3  C    0.578653   0.004175   2.386389  -2.735315   0.079126  -0.020797
     4  C   -0.073078  -0.013174  -0.937512   1.636516  -0.030461   0.082174
     5  H    0.017436  -0.001344  -0.009395   0.007389  -0.011472  -0.001078
     6  C   -2.067997  -0.021125   0.363858  -0.094112  -0.075292   0.003437
     7  C    0.373137  -0.033206  -0.175263  -1.570702  -0.126542   0.005840
     8  H    0.032192  -0.014041  -0.081595   0.038018   0.001714  -0.000015
     9  C    0.088142  -0.026945  -3.021795   3.257358   0.132132  -0.017006
    10  C   -0.036713   0.017046   0.136443  -0.068444  -1.707743   0.016553
    11  C    0.143392  -0.081664   0.161444  -0.059052  -0.044195   0.027385
    12  C   -0.719195   0.591751  -0.355254   0.137044   0.010204  -0.006071
    13  C    0.038253   0.035798  -0.636770  -1.511198  -0.047083   0.012823
    14  H   -0.002466   0.000096   0.082284  -0.148794   0.009391  -0.002657
    15  C    0.022743  -0.004209   0.122197  -0.142552  -0.165261   0.437284
    16  C   -0.008325   0.004301  -0.157173   0.255721  -0.157968  -0.013851
    17  C   -0.595216  -0.000474   0.027187  -0.010818  -0.021335  -0.005712
    18  H   -0.013996   0.000153  -0.004993   0.003950   0.001580  -0.004619
    19  C    8.290578  -0.116771  -0.121919   0.052763   0.007668   0.001401
    20  H   -0.116771   0.493373  -0.003149   0.004931  -0.000880   0.000013
    21  C   -0.121919  -0.003149  16.493911  -8.854305  -0.017661   0.005579
    22  C    0.052763   0.004931  -8.854305  17.899768   0.033739  -0.005355
    23  C    0.007668  -0.000880  -0.017661   0.033739   7.690881  -0.067387
    24  H    0.001401   0.000013   0.005579  -0.005355  -0.067387   0.500524
    25  C   -0.001117  -0.000474   0.008128  -0.028421  -0.479896  -0.016146
    26  H   -0.000005   0.000334  -0.007619   0.029882  -0.016619   0.000825
    27  C    0.268460   0.027015  -0.003569  -0.001235  -0.005708   0.000037
    28  H    0.013514  -0.000182   0.000200  -0.000021   0.000445   0.000298
    29  H    0.437226  -0.012379  -0.000332   0.000418   0.000055   0.000039
    30  C   -0.010609  -0.008103  -0.548289   0.051269  -0.001125  -0.000049
    31  H   -0.006765   0.002497   0.567080  -0.069261  -0.000359   0.000334
    32  C    0.001443  -0.000365   0.287277  -0.657239   0.005550  -0.000915
    33  H   -0.000545   0.000192  -0.022235   0.422075   0.001158  -0.000053
    34  C   -0.000158   0.000255   0.007242  -0.020632   0.375218   0.021552
    35  H   -0.000033  -0.000005  -0.000302   0.000550   0.421854  -0.012763
    36  H    0.000020  -0.000015  -0.000563   0.002035   0.016507  -0.000669
    37  H   -0.082272   0.001200  -0.000063   0.000012  -0.000132  -0.000017
    38  C   -0.000959   0.000195  -0.285479  -0.306914   0.000056   0.000156
    39  H    0.000101  -0.000073  -0.111228   0.024702   0.000014  -0.000014
    40  H    0.000007  -0.000000   0.002961  -0.074754  -0.000031   0.000003
    41  H   -0.000002   0.000006   0.000174  -0.000503  -0.076400   0.002076
    42  H   -0.000023   0.000041   0.016131  -0.012913   0.000003   0.000004
              25         26         27         28         29         30
     1  C   -0.150540   0.008259  -0.205407  -0.000548   0.002736   0.354037
     2  C    0.109106  -0.014188  -0.061813   0.003983   0.013094   0.082118
     3  C    0.068130  -0.020687  -0.166776   0.004013   0.000675   0.556101
     4  C    0.019767   0.075370  -0.005692   0.005382   0.004544  -0.066340
     5  H    0.006937  -0.002778  -0.002042  -0.001094   0.000293  -0.002790
     6  C   -0.048984   0.012219  -0.193679   0.015855   0.024750   0.039232
     7  C    0.216668  -0.080749  -0.071535   0.001097   0.006453  -0.235791
     8  H    0.002046   0.000001  -0.000470   0.000265   0.000453   0.034176
     9  C    0.365853  -0.062369  -0.032222   0.000308   0.001619   0.172978
    10  C   -1.673543   0.017899   0.041069  -0.002397  -0.001263  -0.037122
    11  C    0.037341  -0.005459  -0.363476  -0.077038   0.028941   0.052103
    12  C   -0.019931   0.005906  -0.157458   0.004634  -0.116277  -0.118825
    13  C   -0.085750   0.000463   0.031853  -0.000756  -0.002107  -2.133582
    14  H   -0.016298  -0.001504   0.000194  -0.000023  -0.000054   0.016712
    15  C   -0.219239  -0.012409  -0.018279   0.001204   0.000483  -0.008120
    16  C   -0.175748   0.435650   0.006473  -0.000275  -0.000196   0.024046
    17  C    0.005771  -0.000872   0.443508   0.409225   0.005574   0.001459
    18  H    0.001112  -0.000059   0.015334  -0.010559  -0.000462  -0.000390
    19  C   -0.001117  -0.000005   0.268460   0.013514   0.437226  -0.010609
    20  H   -0.000474   0.000334   0.027015  -0.000182  -0.012379  -0.008103
    21  C    0.008128  -0.007619  -0.003569   0.000200  -0.000332  -0.548289
    22  C   -0.028421   0.029882  -0.001235  -0.000021   0.000418   0.051269
    23  C   -0.479896  -0.016619  -0.005708   0.000445   0.000055  -0.001125
    24  H   -0.016146   0.000825   0.000037   0.000298   0.000039  -0.000049
    25  C    7.741572  -0.062534   0.000095  -0.000028   0.000015   0.007627
    26  H   -0.062534   0.497423   0.000157   0.000003  -0.000015   0.001359
    27  C    0.000095   0.000157   6.529773  -0.057131  -0.078238  -0.000719
    28  H   -0.000028   0.000003  -0.057131   0.472464   0.000992   0.000002
    29  H    0.000015  -0.000015  -0.078238   0.000992   0.476081   0.000097
    30  C    0.007627   0.001359  -0.000719   0.000002   0.000097   8.308742
    31  H   -0.000874  -0.000014   0.000334  -0.000005  -0.000072  -0.103337
    32  C   -0.020311  -0.005643  -0.000516   0.000006   0.000045  -0.635342
    33  H    0.001688  -0.004487  -0.000004  -0.000005   0.000015  -0.012952
    34  C    0.409029   0.023619  -0.000103   0.000056  -0.000003  -0.000075
    35  H    0.016016  -0.000675   0.000046  -0.000029  -0.000001   0.000018
    36  H    0.423360  -0.012585  -0.000002  -0.000001   0.000000  -0.000037
    37  H    0.000003   0.000004   0.463191  -0.010470  -0.010663  -0.000016
    38  C   -0.005175   0.000197   0.000118   0.000001   0.000011   0.355326
    39  H    0.000050   0.000037   0.000005  -0.000001  -0.000001   0.438224
    40  H    0.000447   0.000265   0.000002   0.000000  -0.000001   0.013258
    41  H   -0.074673   0.002086   0.000003   0.000001  -0.000000  -0.000000
    42  H   -0.000126  -0.000014   0.000005  -0.000000  -0.000001  -0.080862
              31         32         33         34         35         36
     1  C   -0.029850  -0.102446   0.003851   0.027189   0.004242   0.000270
     2  C   -0.023522   0.066031  -0.012936  -0.092071   0.007939   0.004985
     3  C    0.001168   0.066660  -0.007429  -0.022418   0.000483   0.000451
     4  C   -0.012916   0.207480  -0.089787  -0.294741   0.001142   0.002776
     5  H    0.000072   0.003645   0.000040  -0.000179  -0.000869   0.000383
     6  C    0.033205  -0.080864   0.013410   0.048032  -0.003928  -0.001124
     7  C    0.020485   0.164079   0.091969   0.025235   0.000546   0.004176
     8  H   -0.014958   0.005881  -0.002794  -0.000702   0.000004   0.000007
     9  C   -0.082232   0.200868  -0.035371  -0.100309   0.005888   0.008334
    10  C    0.015812  -0.108881  -0.008062  -0.196277   0.017284   0.017125
    11  C    0.005353  -0.013060   0.004724  -0.020845   0.001981   0.000508
    12  C   -0.002459   0.030317  -0.006392   0.007707  -0.000602  -0.000307
    13  C   -0.015306  -1.535024   0.000838   0.045303  -0.001090  -0.003792
    14  H   -0.001799  -0.013088  -0.000972  -0.000340   0.000356  -0.000815
    15  C    0.004555  -0.003371  -0.007820  -0.232626  -0.083135  -0.001018
    16  C   -0.004545  -0.006080   0.025489  -0.305930   0.001510  -0.082810
    17  C   -0.000834   0.001286  -0.000077  -0.004319   0.000636   0.000027
    18  H    0.000153  -0.000120   0.000211  -0.000690   0.000435   0.000053
    19  C   -0.006765   0.001443  -0.000545  -0.000158  -0.000033   0.000020
    20  H    0.002497  -0.000365   0.000192   0.000255  -0.000005  -0.000015
    21  C    0.567080   0.287277  -0.022235   0.007242  -0.000302  -0.000563
    22  C   -0.069261  -0.657239   0.422075  -0.020632   0.000550   0.002035
    23  C   -0.000359   0.005550   0.001158   0.375218   0.421854   0.016507
    24  H    0.000334  -0.000915  -0.000053   0.021552  -0.012763  -0.000669
    25  C   -0.000874  -0.020311   0.001688   0.409029   0.016016   0.423360
    26  H   -0.000014  -0.005643  -0.004487   0.023619  -0.000675  -0.012585
    27  C    0.000334  -0.000516  -0.000004  -0.000103   0.000046  -0.000002
    28  H   -0.000005   0.000006  -0.000005   0.000056  -0.000029  -0.000001
    29  H   -0.000072   0.000045   0.000015  -0.000003  -0.000001   0.000000
    30  C   -0.103337  -0.635342  -0.012952  -0.000075   0.000018  -0.000037
    31  H    0.485891  -0.000753   0.000859   0.000216  -0.000013  -0.000003
    32  C   -0.000753   7.714697  -0.041130  -0.004539   0.000031   0.000682
    33  H    0.000859  -0.041130   0.495890  -0.000811   0.000057   0.000445
    34  C    0.000216  -0.004539  -0.000811   6.416845  -0.066972  -0.067720
    35  H   -0.000013   0.000031   0.000057  -0.066972   0.476255   0.001290
    36  H   -0.000003   0.000682   0.000445  -0.067720   0.001290   0.476192
    37  H    0.000041  -0.000011   0.000003   0.000002  -0.000000  -0.000000
    38  C    0.022952   0.415888   0.010601  -0.000104  -0.000002   0.000044
    39  H   -0.011386   0.005934  -0.000437  -0.000002   0.000000  -0.000001
    40  H   -0.000162   0.412752  -0.009513   0.000052  -0.000002  -0.000027
    41  H    0.000005  -0.000125  -0.000050   0.469070  -0.012200  -0.012197
    42  H    0.001050  -0.061115   0.001175   0.000001  -0.000000  -0.000000
              37         38         39         40         41         42
     1  C   -0.006011  -0.061323   0.006000   0.000844   0.001053   0.000308
     2  C   -0.005316  -0.030522   0.001410   0.000477  -0.005566  -0.000841
     3  C   -0.003991  -0.144380   0.000577   0.002627  -0.000768  -0.003391
     4  C    0.000360  -0.007725   0.004307   0.005969  -0.007423   0.000272
     5  H    0.000240   0.000164  -0.000058  -0.000022   0.000029  -0.000003
     6  C    0.024805   0.035213  -0.002112  -0.000861   0.001250   0.000865
     7  C    0.000130  -0.215921   0.003345  -0.000969   0.001060  -0.005948
     8  H   -0.000330   0.001928   0.000267   0.000233  -0.000015  -0.000238
     9  C   -0.000856  -0.058399   0.012068   0.004774  -0.005786  -0.005255
    10  C    0.001167   0.038857  -0.001171  -0.002404   0.022425   0.001142
    11  C   -0.014174   0.000602   0.000311  -0.000062  -0.000495   0.000038
    12  C    0.019776  -0.006716  -0.000278   0.000291   0.000188  -0.000121
    13  C    0.000808  -0.185200   0.020180   0.010300   0.001208   0.026441
    14  H   -0.000002  -0.003039   0.000352  -0.000929   0.000037   0.000229
    15  C   -0.000547   0.005557  -0.000175  -0.000248   0.008123   0.000174
    16  C    0.000181  -0.016059   0.000453   0.001117   0.003469  -0.000534
    17  C   -0.060843  -0.000512   0.000056   0.000005  -0.000120  -0.000011
    18  H    0.001323   0.000033   0.000012  -0.000005  -0.000048   0.000003
    19  C   -0.082272  -0.000959   0.000101   0.000007  -0.000002  -0.000023
    20  H    0.001200   0.000195  -0.000073  -0.000000   0.000006   0.000041
    21  C   -0.000063  -0.285479  -0.111228   0.002961   0.000174   0.016131
    22  C    0.000012  -0.306914   0.024702  -0.074754  -0.000503  -0.012913
    23  C   -0.000132   0.000056   0.000014  -0.000031  -0.076400   0.000003
    24  H   -0.000017   0.000156  -0.000014   0.000003   0.002076   0.000004
    25  C    0.000003  -0.005175   0.000050   0.000447  -0.074673  -0.000126
    26  H    0.000004   0.000197   0.000037   0.000265   0.002086  -0.000014
    27  C    0.463191   0.000118   0.000005   0.000002   0.000003   0.000005
    28  H   -0.010470   0.000001  -0.000001   0.000000   0.000001  -0.000000
    29  H   -0.010663   0.000011  -0.000001  -0.000001  -0.000000  -0.000001
    30  C   -0.000016   0.355326   0.438224   0.013258  -0.000000  -0.080862
    31  H    0.000041   0.022952  -0.011386  -0.000162   0.000005   0.001050
    32  C   -0.000011   0.415888   0.005934   0.412752  -0.000125  -0.061115
    33  H    0.000003   0.010601  -0.000437  -0.009513  -0.000050   0.001175
    34  C    0.000002  -0.000104  -0.000002   0.000052   0.469070   0.000001
    35  H   -0.000000  -0.000002   0.000000  -0.000002  -0.012200  -0.000000
    36  H   -0.000000   0.000044  -0.000001  -0.000027  -0.012197  -0.000000
    37  H    0.486592   0.000005  -0.000001  -0.000000   0.000000   0.000000
    38  C    0.000005   6.525357  -0.075109  -0.055327   0.000003   0.462608
    39  H   -0.000001  -0.075109   0.475577   0.000974  -0.000000  -0.010601
    40  H   -0.000000  -0.055327   0.000974   0.472344   0.000000  -0.010427
    41  H    0.000000   0.000003  -0.000000   0.000000   0.488411   0.000000
    42  H    0.000000   0.462608  -0.010601  -0.010427   0.000000   0.486312
 Mulliken charges:
               1
     1  C    0.966798
     2  C   -1.573177
     3  C   -0.992275
     4  C    0.954373
     5  H    0.188760
     6  C    1.254074
     7  C    0.964835
     8  H    0.132954
     9  C   -1.601013
    10  C    1.323899
    11  C   -0.650944
    12  C   -0.201294
    13  C    1.297361
    14  H    0.205026
    15  C   -0.449245
    16  C   -0.472003
    17  C   -0.291314
    18  H    0.183932
    19  C   -0.497475
    20  H    0.215156
    21  C   -0.237983
    22  C   -0.650208
    23  C   -0.371672
    24  H    0.198153
    25  C   -0.360952
    26  H    0.199324
    27  C   -0.401599
    28  H    0.226615
    29  H    0.217458
    30  C   -0.504412
    31  H    0.219361
    32  C   -0.299610
    33  H    0.189171
    34  C   -0.444057
    35  H    0.224060
    36  H    0.224014
    37  H    0.195874
    38  C   -0.417011
    39  H    0.217689
    40  H    0.226040
    41  H    0.195694
    42  H    0.195622
 Sum of Mulliken charges =  -0.00000
 Mulliken charges with hydrogens summed into heavy atoms:
               1
     1  C    0.966798
     2  C   -1.384417
     3  C   -0.859321
     4  C    0.954373
     6  C    1.254074
     7  C    0.964835
     9  C   -1.395987
    10  C    1.323899
    11  C   -0.467012
    12  C    0.013862
    13  C    1.297361
    15  C   -0.251091
    16  C   -0.272679
    17  C   -0.064699
    19  C   -0.280017
    21  C   -0.018622
    22  C   -0.461037
    23  C   -0.147612
    25  C   -0.136939
    27  C   -0.205725
    30  C   -0.286723
    32  C   -0.073570
    34  C   -0.248362
    38  C   -0.221389
 Electronic spatial extent (au):  <R**2>=          10005.7947
 Charge=             -0.0000 electrons
 Dipole moment (field-independent basis, Debye):
    X=             -0.0003    Y=             -0.0093    Z=              0.0003  Tot=              0.0093
 Quadrupole moment (field-independent basis, Debye-Ang):
   XX=           -126.1924   YY=           -126.5692   ZZ=           -141.4564
   XY=             -0.0542   XZ=              7.2268   YZ=             -0.7727
 Traceless Quadrupole moment (field-independent basis, Debye-Ang):
   XX=              5.2136   YY=              4.8368   ZZ=            -10.0504
   XY=             -0.0542   XZ=              7.2268   YZ=             -0.7727
 Octapole moment (field-independent basis, Debye-Ang**2):
  XXX=             -9.5364  YYY=             37.3464  ZZZ=             -0.0136  XYY=              9.7885
  XXY=            -33.7561  XXZ=              6.7524  XZZ=             -0.1322  YZZ=             -3.3616
  YYZ=             -6.7412  XYZ=             37.6205
 Hexadecapole moment (field-independent basis, Debye-Ang**3):
 XXXX=          -6246.7785 YYYY=          -6260.4323 ZZZZ=           -536.6416 XXXY=             -3.3986
 XXXZ=            183.3875 YYYX=              1.1441 YYYZ=              4.3055 ZZZX=             21.1126
 ZZZY=             -2.0811 XXYY=          -2091.3419 XXZZ=          -1237.7790 YYZZ=          -1218.5903
 XXYZ=            -20.9837 YYXZ=            -20.3152 ZZXY=              1.4427
 N-N= 1.732499428141D+03 E-N=-5.611413135683D+03  KE= 9.212956415019D+02
 No NMR shielding tensors so no spin-rotation constants.
 Leave Link  601 at Mon Nov 14 15:19:35 2022, MaxMem= 16106127360 cpu:               9.0 elap:               0.4
 (Enter /opt/ap/G16/B01/g16/l9999.exe)
 1\1\GINC-N62\SP\RwB97XD\6-311++G(d,p)\C24H18\ROOT\14-Nov-2022\0\\#P wB
 97XD/6-311++G(d,p) scf=maxcycle=512\\_conf027.gjf nmol_natom 1_42\\0,1
 \C\C,1,1.39412829\C,1,1.39435449,2,118.86443127\C,2,1.39416084,1,121.1
 529487,3,0.03668482,0\H,2,1.08488355,1,119.42236619,3,-179.97409048,0\
 C,1,1.48467131,2,120.55714816,4,179.25839056,0\C,3,1.39437784,1,121.11
 776116,2,-0.05351271,0\H,3,1.08487775,1,119.41869036,2,177.23008049,0\
 C,4,1.39432447,2,118.86473838,1,0.01008406,0\C,4,1.48466627,2,120.5464
 188,1,179.19454736,0\C,6,1.3968498,1,120.7843492,2,45.,0\C,6,1.3968682
 ,1,120.67653841,2,-135.,0\C,7,1.48449863,3,120.56496838,1,-179.9632580
 4,0\H,9,1.0848792,4,119.41824946,2,177.22245984,0\C,10,1.39685361,4,12
 0.76946845,2,-42.52368674,0\C,10,1.39686289,4,120.69448769,2,137.43107
 516,0\C,11,1.38888939,6,120.7380073,1,179.94058542,0\H,11,1.0847641,6,
 119.46912378,1,-1.41050605,0\C,12,1.38882428,6,120.76493111,1,-179.950
 82712,0\H,12,1.08482758,6,119.44182626,1,-1.23602505,0\C,13,1.39682899
 ,7,120.74134419,3,42.89023273,0\C,13,1.39683158,7,120.7379111,3,-137.1
 2494058,0\C,15,1.38888263,10,120.742191,4,179.9460119,0\H,15,1.0847633
 4,10,119.47085903,4,-1.40606944,0\C,16,1.38886088,10,120.76338989,4,-1
 79.95592713,0\H,16,1.08483431,10,119.44215232,4,-1.23439681,0\C,17,1.3
 9007919,11,120.20743432,6,0.00349958,0\H,17,1.0843506,11,119.71318733,
 6,179.5011609,0\H,19,1.08435858,12,119.73823132,6,179.53683762,0\C,21,
 1.38882373,13,120.76699356,7,179.99297883,0\H,21,1.0847938,13,119.4352
 623,7,1.32183327,0\C,22,1.38881869,13,120.76647403,7,-179.97118338,0\H
 ,22,1.08479982,13,119.43203605,7,1.34657928,0\C,23,1.39007007,15,120.2
 0732995,10,0.00573957,0\H,23,1.08434813,15,119.71220819,10,179.5072436
 8,0\H,25,1.08436328,16,119.73539424,10,179.53636455,0\H,27,1.08412515,
 17,120.21790854,11,179.98397203,0\C,30,1.39008059,21,120.18795226,13,-
 0.02169059,0\H,30,1.08435324,21,119.73787119,13,-179.52151214,0\H,32,1
 .0843543,22,119.737043,13,-179.52886928,0\H,34,1.08412314,23,120.22152
 803,15,179.98800213,0\H,38,1.08411439,30,120.21547163,21,-179.98600656
 ,0\\Version=ES64L-G16RevB.01\State=1-A\HF=-925.3115482\RMSD=8.584e-09\
 Dipole=0.0002376,-0.000164,-0.0036633\Quadrupole=3.4615943,-7.0513111,
 3.5897167,-5.8125951,0.0326694,0.1157911\PG=C01 [X(C24H18)]\\@


 IN-LAWS ARE LIKE SEEDS. YOU DON'T NEED THEM
 BUT THEY COME WITH THE TOMATO.
 Job cpu time:       0 days  1 hours 17 minutes 40.1 seconds.
 Elapsed time:       0 days  0 hours  2 minutes 26.0 seconds.
 File lengths (MBytes):  RWF=    224 Int=      0 D2E=      0 Chk=     26 Scr=      1
 Normal termination of Gaussian 16 at Mon Nov 14 15:19:35 2022.
