 Entering Gaussian System, Link 0=g16
 Input=_conf011.gjf
 Output=_conf011.log
 Initial command:
 /opt/ap/G16/B01/g16/l1.exe "/tmp2/scr/Gau-22587.inp" -scrdir="/tmp2/scr/"
 Entering Link 1 = /opt/ap/G16/B01/g16/l1.exe PID=     22588.
  
 Copyright (c) 1988-2017, Gaussian, Inc.  All Rights Reserved.
  
 This is part of the Gaussian(R) 16 program.  It is based on
 the Gaussian(R) 09 system (copyright 2009, Gaussian, Inc.),
 the Gaussian(R) 03 system (copyright 2003, Gaussian, Inc.),
 the Gaussian(R) 98 system (copyright 1998, Gaussian, Inc.),
 the Gaussian(R) 94 system (copyright 1995, Gaussian, Inc.),
 the Gaussian 92(TM) system (copyright 1992, Gaussian, Inc.),
 the Gaussian 90(TM) system (copyright 1990, Gaussian, Inc.),
 the Gaussian 88(TM) system (copyright 1988, Gaussian, Inc.),
 the Gaussian 86(TM) system (copyright 1986, Carnegie Mellon
 University), and the Gaussian 82(TM) system (copyright 1983,
 Carnegie Mellon University). Gaussian is a federally registered
 trademark of Gaussian, Inc.
  
 This software contains proprietary and confidential information,
 including trade secrets, belonging to Gaussian, Inc.
  
 This software is provided under written license and may be
 used, copied, transmitted, or stored only in accord with that
 written license.
  
 The following legend is applicable only to US Government
 contracts under FAR:
  
                    RESTRICTED RIGHTS LEGEND
  
 Use, reproduction and disclosure by the US Government is
 subject to restrictions as set forth in subparagraphs (a)
 and (c) of the Commercial Computer Software - Restricted
 Rights clause in FAR 52.227-19.
  
 Gaussian, Inc.
 340 Quinnipiac St., Bldg. 40, Wallingford CT 06492
  
  
 ---------------------------------------------------------------
 Warning -- This program may not be used in any manner that
 competes with the business of Gaussian, Inc. or will provide
 assistance to any competitor of Gaussian, Inc.  The licensee
 of this program is prohibited from giving any competitor of
 Gaussian, Inc. access to this program.  By using this program,
 the user acknowledges that Gaussian, Inc. is engaged in the
 business of creating and licensing software in the field of
 computational chemistry and represents and warrants to the
 licensee that it is not a competitor of Gaussian, Inc. and that
 it will not use this program in any manner prohibited above.
 ---------------------------------------------------------------
  

 Cite this work as:
 Gaussian 16, Revision B.01,
 M. J. Frisch, G. W. Trucks, H. B. Schlegel, G. E. Scuseria, 
 M. A. Robb, J. R. Cheeseman, G. Scalmani, V. Barone, 
 G. A. Petersson, H. Nakatsuji, X. Li, M. Caricato, A. V. Marenich, 
 J. Bloino, B. G. Janesko, R. Gomperts, B. Mennucci, H. P. Hratchian, 
 J. V. Ortiz, A. F. Izmaylov, J. L. Sonnenberg, D. Williams-Young, 
 F. Ding, F. Lipparini, F. Egidi, J. Goings, B. Peng, A. Petrone, 
 T. Henderson, D. Ranasinghe, V. G. Zakrzewski, J. Gao, N. Rega, 
 G. Zheng, W. Liang, M. Hada, M. Ehara, K. Toyota, R. Fukuda, 
 J. Hasegawa, M. Ishida, T. Nakajima, Y. Honda, O. Kitao, H. Nakai, 
 T. Vreven, K. Throssell, J. A. Montgomery, Jr., J. E. Peralta, 
 F. Ogliaro, M. J. Bearpark, J. J. Heyd, E. N. Brothers, K. N. Kudin, 
 V. N. Staroverov, T. A. Keith, R. Kobayashi, J. Normand, 
 K. Raghavachari, A. P. Rendell, J. C. Burant, S. S. Iyengar, 
 J. Tomasi, M. Cossi, J. M. Millam, M. Klene, C. Adamo, R. Cammi, 
 J. W. Ochterski, R. L. Martin, K. Morokuma, O. Farkas, 
 J. B. Foresman, and D. J. Fox, Gaussian, Inc., Wallingford CT, 2016.
 
 ******************************************
 Gaussian 16:  ES64L-G16RevB.01 20-Dec-2017
                14-Nov-2022 
 ******************************************
 %nprocshared=32
 Will use up to   32 processors via shared memory.
 %mem=120GB
 %chk=_conf011.chk
 ----------------------------------------
 #P wB97XD/6-311++G(d,p) scf=maxcycle=512
 ----------------------------------------
 1/38=1,172=1/1;
 2/12=2,17=6,18=5,40=1/2;
 3/5=4,6=6,7=1111,11=2,25=1,30=1,74=-58/1,2,3;
 4//1;
 5/5=2,7=512,38=5/2;
 6/7=2,8=2,9=2,10=2,28=1/1;
 99/5=1,9=1/99;
 Leave Link    1 at Mon Nov 14 15:06:57 2022, MaxMem= 16106127360 cpu:               2.6 elap:               0.1
 (Enter /opt/ap/G16/B01/g16/l101.exe)
 ----------------------------
 _conf011.gjf nmol_natom 1_42
 ----------------------------
 Symbolic Z-matrix:
 Charge =  0 Multiplicity = 1
 C
 C                    1     1.39413 
 C                    1     1.39435  2     118.86443 
 C                    2     1.39416  1     121.15295  3     0.03668  0
 H                    2     1.08488  1     119.42237  3    -179.97409  0
 C                    1     1.48467  2     120.55715  4     179.25839  0
 C                    3     1.39438  1     121.11776  2    -0.05351  0
 H                    3     1.08488  1     119.41869  2     177.23008  0
 C                    4     1.39432  2     118.86474  1     0.01008  0
 C                    4     1.48467  2     120.54642  1     179.19455  0
 C                    6     1.39685  1     120.78435  2    -35.      0
 C                    6     1.39687  1     120.67654  2     145.     0
 C                    7     1.4845   3     120.56497  1    -179.96326  0
 H                    9     1.08488  4     119.41825  2     177.22246  0
 C                    10    1.39685  4     120.76947  2    -42.52369  0
 C                    10    1.39686  4     120.69449  2     137.43108  0
 C                    11    1.38889  6     120.73801  1     179.94059  0
 H                    11    1.08476  6     119.46912  1    -1.41051  0
 C                    12    1.38882  6     120.76493  1    -179.95083  0
 H                    12    1.08483  6     119.44183  1    -1.23603  0
 C                    13    1.39683  7     120.74134  3     42.89023  0
 C                    13    1.39683  7     120.73791  3    -137.12494  0
 C                    15    1.38888  10    120.74219  4     179.94601  0
 H                    15    1.08476  10    119.47086  4    -1.40607  0
 C                    16    1.38886  10    120.76339  4    -179.95593  0
 H                    16    1.08483  10    119.44215  4    -1.2344   0
 C                    17    1.39008  11    120.20743  6     0.0035   0
 H                    17    1.08435  11    119.71319  6     179.50116  0
 H                    19    1.08436  12    119.73823  6     179.53684  0
 C                    21    1.38882  13    120.76699  7     179.99298  0
 H                    21    1.08479  13    119.43526  7     1.32183  0
 C                    22    1.38882  13    120.76647  7    -179.97118  0
 H                    22    1.0848   13    119.43204  7     1.34658  0
 C                    23    1.39007  15    120.20733  10    0.00574  0
 H                    23    1.08435  15    119.71221  10    179.50724  0
 H                    25    1.08436  16    119.73539  10    179.53636  0
 H                    27    1.08413  17    120.21791  11    179.98397  0
 C                    30    1.39008  21    120.18795  13   -0.02169  0
 H                    30    1.08435  21    119.73787  13   -179.52151  0
 H                    32    1.08435  22    119.73704  13   -179.52887  0
 H                    34    1.08412  23    120.22153  15    179.988  0
 H                    38    1.08411  30    120.21547  21   -179.98601  0
 
 ITRead=  0  0  0  0  0  0  0  0  0  0  0  0  0  0  0  0  0  0  0  0
 ITRead=  0  0  0  0  0  0  0  0  0  0  0  0  0  0  0  0  0  0  0  0
 ITRead=  0  0
 MicOpt= -1 -1 -1 -1 -1 -1 -1 -1 -1 -1 -1 -1 -1 -1 -1 -1 -1 -1 -1 -1
 MicOpt= -1 -1 -1 -1 -1 -1 -1 -1 -1 -1 -1 -1 -1 -1 -1 -1 -1 -1 -1 -1
 MicOpt= -1 -1
 NAtoms=     42 NQM=       42 NQMF=       0 NMMI=      0 NMMIF=      0
                NMic=       0 NMicF=      0.
                    Isotopes and Nuclear Properties:
 (Nuclear quadrupole moments (NQMom) in fm**2, nuclear magnetic moments (NMagM)
  in nuclear magnetons)

  Atom         1           2           3           4           5           6           7           8           9          10
 IAtWgt=          12          12          12          12           1          12          12           1          12          12
 AtmWgt=  12.0000000  12.0000000  12.0000000  12.0000000   1.0078250  12.0000000  12.0000000   1.0078250  12.0000000  12.0000000
 NucSpn=           0           0           0           0           1           0           0           1           0           0
 AtZEff=  -0.0000000  -0.0000000  -0.0000000  -0.0000000  -0.0000000  -0.0000000  -0.0000000  -0.0000000  -0.0000000  -0.0000000
 NQMom=    0.0000000   0.0000000   0.0000000   0.0000000   0.0000000   0.0000000   0.0000000   0.0000000   0.0000000   0.0000000
 NMagM=    0.0000000   0.0000000   0.0000000   0.0000000   2.7928460   0.0000000   0.0000000   2.7928460   0.0000000   0.0000000
 AtZNuc=   6.0000000   6.0000000   6.0000000   6.0000000   1.0000000   6.0000000   6.0000000   1.0000000   6.0000000   6.0000000

  Atom        11          12          13          14          15          16          17          18          19          20
 IAtWgt=          12          12          12           1          12          12          12           1          12           1
 AtmWgt=  12.0000000  12.0000000  12.0000000   1.0078250  12.0000000  12.0000000  12.0000000   1.0078250  12.0000000   1.0078250
 NucSpn=           0           0           0           1           0           0           0           1           0           1
 AtZEff=  -0.0000000  -0.0000000  -0.0000000  -0.0000000  -0.0000000  -0.0000000  -0.0000000  -0.0000000  -0.0000000  -0.0000000
 NQMom=    0.0000000   0.0000000   0.0000000   0.0000000   0.0000000   0.0000000   0.0000000   0.0000000   0.0000000   0.0000000
 NMagM=    0.0000000   0.0000000   0.0000000   2.7928460   0.0000000   0.0000000   0.0000000   2.7928460   0.0000000   2.7928460
 AtZNuc=   6.0000000   6.0000000   6.0000000   1.0000000   6.0000000   6.0000000   6.0000000   1.0000000   6.0000000   1.0000000

  Atom        21          22          23          24          25          26          27          28          29          30
 IAtWgt=          12          12          12           1          12           1          12           1           1          12
 AtmWgt=  12.0000000  12.0000000  12.0000000   1.0078250  12.0000000   1.0078250  12.0000000   1.0078250   1.0078250  12.0000000
 NucSpn=           0           0           0           1           0           1           0           1           1           0
 AtZEff=  -0.0000000  -0.0000000  -0.0000000  -0.0000000  -0.0000000  -0.0000000  -0.0000000  -0.0000000  -0.0000000  -0.0000000
 NQMom=    0.0000000   0.0000000   0.0000000   0.0000000   0.0000000   0.0000000   0.0000000   0.0000000   0.0000000   0.0000000
 NMagM=    0.0000000   0.0000000   0.0000000   2.7928460   0.0000000   2.7928460   0.0000000   2.7928460   2.7928460   0.0000000
 AtZNuc=   6.0000000   6.0000000   6.0000000   1.0000000   6.0000000   1.0000000   6.0000000   1.0000000   1.0000000   6.0000000

  Atom        31          32          33          34          35          36          37          38          39          40
 IAtWgt=           1          12           1          12           1           1           1          12           1           1
 AtmWgt=   1.0078250  12.0000000   1.0078250  12.0000000   1.0078250   1.0078250   1.0078250  12.0000000   1.0078250   1.0078250
 NucSpn=           1           0           1           0           1           1           1           0           1           1
 AtZEff=  -0.0000000  -0.0000000  -0.0000000  -0.0000000  -0.0000000  -0.0000000  -0.0000000  -0.0000000  -0.0000000  -0.0000000
 NQMom=    0.0000000   0.0000000   0.0000000   0.0000000   0.0000000   0.0000000   0.0000000   0.0000000   0.0000000   0.0000000
 NMagM=    2.7928460   0.0000000   2.7928460   0.0000000   2.7928460   2.7928460   2.7928460   0.0000000   2.7928460   2.7928460
 AtZNuc=   1.0000000   6.0000000   1.0000000   6.0000000   1.0000000   1.0000000   1.0000000   6.0000000   1.0000000   1.0000000

  Atom        41          42
 IAtWgt=           1           1
 AtmWgt=   1.0078250   1.0078250
 NucSpn=           1           1
 AtZEff=  -0.0000000  -0.0000000
 NQMom=    0.0000000   0.0000000
 NMagM=    2.7928460   2.7928460
 AtZNuc=   1.0000000   1.0000000
 Leave Link  101 at Mon Nov 14 15:06:57 2022, MaxMem= 16106127360 cpu:               6.2 elap:               0.2
 (Enter /opt/ap/G16/B01/g16/l202.exe)
                          Input orientation:                          
 ---------------------------------------------------------------------
 Center     Atomic      Atomic             Coordinates (Angstroms)
 Number     Number       Type             X           Y           Z
 ---------------------------------------------------------------------
      1          6           0        0.000000    0.000000    0.000000
      2          6           0        0.000000    0.000000    1.394128
      3          6           0        1.221126    0.000000   -0.673109
      4          6           0        1.193108    0.000764    2.115362
      5          1           0       -0.944957   -0.000427    1.927071
      6          6           0       -1.278366   -0.017366   -0.754803
      7          6           0        2.428476    0.001115    0.024455
      8          1           0        1.232154   -0.045667   -1.756969
      9          6           0        2.400843    0.001752    1.418572
     10          6           0        1.177445    0.018728    3.599837
     11          6           0       -2.384306   -0.720764   -0.271775
     12          6           0       -1.401086    0.670121   -1.964573
     13          6           0        3.721572    0.001921   -0.704680
     14          1           0        3.334061    0.048144    1.969857
     15          6           0        0.290794    0.844275    4.295193
     16          6           0        2.049080   -0.790881    4.331965
     17          6           0       -3.580115   -0.735351   -0.978063
     18          1           0       -2.298843   -1.278822    0.654498
     19          6           0       -2.596356    0.655952   -2.671652
     20          1           0       -0.557738    1.237767   -2.343245
     21          6           0        3.910862    0.818865   -1.821777
     22          6           0        4.776237   -0.814044   -0.288725
     23          6           0        0.275860    0.859807    5.683909
     24          1           0       -0.377402    1.495584    3.742000
     25          6           0        2.035025   -0.775886    5.720674
     26          1           0        2.729408   -1.453102    3.807101
     27          6           0       -3.690724   -0.046445   -2.180350
     28          1           0       -4.425711   -1.293530   -0.591775
     29          1           0       -2.675471    1.201658   -3.605343
     30          6           0        5.120444    0.820149   -2.504230
     31          1           0        3.109266    1.474569   -2.144691
     32          6           0        5.986440   -0.813321   -0.970068
     33          1           0        4.638168   -1.470412    0.563864
     34          6           0        1.147946    0.049642    6.401818
     35          1           0       -0.413890    1.513063    6.206701
     36          1           0        2.713797   -1.416787    6.272362
     37          1           0       -4.623976   -0.057929   -2.731926
     38          6           0        6.162883    0.003944   -2.080611
     39          1           0        5.251831    1.466740   -3.364741
     40          1           0        6.791448   -1.459089   -0.637249
     41          1           0        1.136620    0.061726    7.485815
     42          1           0        7.107346    0.004761   -2.612865
 ---------------------------------------------------------------------
                    Distance matrix (angstroms):
                    1          2          3          4          5
     1  C    0.000000
     2  C    1.394128   0.000000
     3  C    1.394354   2.400962   0.000000
     4  C    2.428634   1.394161   2.788612   0.000000
     5  H    2.146287   1.084884   3.384206   2.146341   0.000000
     6  C    1.484671   2.500485   2.500887   3.787659   2.702572
     7  C    2.428599   2.788100   1.394378   2.428585   3.872983
     8  H    2.146445   3.383741   1.084878   3.872806   4.279487
     9  C    2.788619   2.400968   2.401430   1.394324   3.384222
    10  C    3.787552   2.500376   4.273210   1.484666   2.702426
    11  C    2.505649   2.996606   3.698609   4.360839   2.724983
    12  C    2.504326   3.700402   2.998822   4.880957   3.975245
    13  C    3.787700   4.272598   2.500646   3.787581   5.357482
    14  H    3.872805   3.383747   3.384092   2.146415   4.279508
    15  C    4.387032   3.035381   5.124680   2.505463   2.801537
    16  C    4.856969   3.668120   5.134371   2.504540   3.920790
    17  C    3.783460   4.357207   4.866790   5.735398   3.990484
    18  H    2.710799   2.732602   3.973425   3.995645   2.255380
    19  C    3.782732   4.868460   4.358625   6.140424   4.930132
    20  H    2.708124   3.976317   2.736015   4.947202   4.463032
    21  C    4.391384   5.129076   3.037212   4.853507   6.189029
    22  C    4.853707   5.129045   3.667320   4.391169   6.189006
    23  C    5.755188   4.383786   6.484171   3.783362   4.042800
    24  H    4.047440   2.809218   4.928007   2.710524   2.419532
    25  C    6.121229   4.843792   6.491910   3.782894   4.886007
    26  H    4.904609   3.922195   4.945574   2.708491   4.375585
    27  C    4.286902   5.138141   5.138113   6.504397   4.940876
    28  H    4.648692   5.020354   5.793670   6.369844   4.486908
    29  H    4.647647   5.796278   5.022494   7.009601   5.920075
    30  C    5.758711   6.487587   4.385239   6.118495   7.556379
    31  H    4.054822   4.936104   2.811579   4.898143   5.932249
    32  C    6.118822   6.487555   4.843334   5.758354   7.556353
    33  H    4.898230   4.935996   3.920254   4.054620   5.932156
    34  C    6.504116   5.137821   7.075480   4.286973   4.940255
    35  H    6.401859   5.061770   7.231488   4.648499   4.570330
    36  H    6.979577   5.759266   7.243957   4.647859   5.854410
    37  H    5.371027   6.197486   6.197362   7.572193   5.936728
    38  C    6.504621   7.074953   5.138292   6.504219   8.159837
    39  H    6.407382   7.237395   5.063871   6.975231   8.279857
    40  H    6.975586   7.237348   5.758361   6.406985   8.279819
    41  H    7.571865   6.197125   8.159595   5.371096   5.936031
    42  H    7.572414   8.159067   6.197601   7.571945   9.243951
                    6          7          8          9         10
     6  C    0.000000
     7  C    3.787910   0.000000
     8  H    2.703303   2.146356   0.000000
     9  C    4.273231   1.394392   3.384102   0.000000
    10  C    4.999520   3.787973   5.357472   2.500981   0.000000
    11  C    1.396850   4.875626   3.967410   5.126105   5.312466
    12  C    1.396868   4.366845   2.736677   5.132938   6.167316
    13  C    5.000226   1.484499   2.703105   2.500505   5.000173
    14  H    5.357476   2.146366   4.279725   1.084879   2.703459
    15  C    5.357906   4.849723   6.189251   3.665665   1.396854
    16  C    6.127433   4.396117   6.188524   3.039714   1.396863
    17  C    2.421445   6.136007   4.923442   6.485294   6.645312
    18  H    2.149133   4.937887   4.450144   4.930591   4.737429
    19  C    2.421728   5.739925   3.998299   6.490756   7.347054
    20  H    2.148909   4.006592   2.279174   4.942894   6.310082
    21  C    5.363376   2.504946   2.815510   3.667109   6.124188
    22  C    6.124553   2.504906   3.912375   3.036921   5.363369
    23  C    6.681472   6.115597   7.556523   4.841994   2.421492
    24  H    4.829285   4.891475   5.933362   3.917716   2.149154
    25  C    7.313393   5.762417   7.555989   4.387097   2.421736
    26  H    6.239756   4.063707   5.931401   2.815959   2.148914
    27  C    2.802231   6.504462   4.941050   7.075433   7.557372
    28  H    3.400141   7.002551   5.909846   7.233332   7.119480
    29  H    3.400515   6.377069   4.499093   7.242131   8.255841
    30  C    6.686306   3.783088   4.053003   4.842972   7.310892
    31  H    4.838282   2.709194   2.446425   3.920191   6.233057
    32  C    7.311449   3.783053   4.879728   4.384797   6.686012
    33  H    6.233426   2.709077   4.360860   2.811302   4.838519
    34  C    7.557031   6.504835   8.159779   5.138559   2.802307
    35  H    7.179977   6.970308   8.280044   5.756123   3.400165
    36  H    8.202243   6.413127   8.279214   5.066504   3.400510
    37  H    3.886356   7.572199   5.936745   8.159551   8.587991
    38  C    7.558466   4.286853   4.941589   5.137824   7.557929
    39  H    7.187337   4.648230   4.585860   5.757987   8.197725
    40  H    8.198432   4.648180   5.844424   5.063385   7.187062
    41  H    8.587561   7.572613   9.243902   6.197846   3.886431
    42  H    8.589123   5.370968   5.937422   6.197069   8.588456
                   11         12         13         14         15
    11  C    0.000000
    12  C    2.401427   0.000000
    13  C    6.163719   5.317465   0.000000
    14  H    6.189980   6.187746   2.702860   0.000000
    15  C    5.519303   6.486714   6.121971   3.911840   0.000000
    16  C    6.391733   7.326975   5.365963   2.816859   2.401387
    17  C    1.388889   2.774296   7.343904   7.557111   6.729516
    18  H    1.084764   3.385835   6.303416   5.934696   4.946556
    19  C    2.774838   1.388824   6.649281   7.555321   7.543741
    20  H    3.385733   1.084828   4.746019   5.929936   6.704006
    21  C    6.663491   5.315948   1.396829   3.911930   7.107943
    22  C    7.161171   6.570429   1.396832   2.815037   6.624314
    23  C    6.711546   7.832458   7.309101   4.879095   1.388883
    24  H    5.005022   5.856133   6.229413   4.360107   1.084763
    25  C    7.446004   8.541710   6.688393   4.054029   2.774755
    26  H    6.582068   7.408189   4.843310   2.448430   3.385708
    27  C    2.409169   2.408832   7.557914   8.159704   7.653661
    28  H    2.144247   3.858608   8.250404   8.281070   7.120259
    29  H    3.859166   2.144462   7.125684   8.278159   8.446592
    30  C    7.979946   6.545539   2.421718   4.878996   8.340159
    31  H    6.205371   4.585068   2.148776   4.360587   7.057844
    32  C    8.400331   7.600340   2.421709   4.052208   7.931644
    33  H    7.111639   6.888212   2.148749   2.446125   6.179018
    34  C    7.589939   8.768070   7.558317   4.941800   2.409154
    35  H    7.130439   8.273743   8.194680   5.843284   2.144229
    36  H    8.324712   9.441109   7.190790   4.587189   3.859086
    37  H    3.392317   3.392036   8.588450   9.243829   8.622606
    38  C    8.766501   7.594135   2.802355   4.940696   8.708529
    39  H    8.524213   6.845171   3.400487   5.843645   9.147346
    40  H    9.212663   8.568135   3.400476   4.585006   8.478973
    41  H    8.555081   9.804077   8.588933   5.937569   3.392325
    42  H    9.802987   8.558995   3.886469   5.936405   9.741223
                   16         17         18         19         20
    16  C    0.000000
    17  C    7.738689   0.000000
    18  H    5.715442   2.145291   0.000000
    19  C    8.527840   2.402446   3.859422   0.000000
    20  H    7.447774   3.858974   4.283822   2.145303   0.000000
    21  C    6.627673   7.696894   7.006615   6.564504   4.518384
    22  C    5.365510   8.385106   7.152793   7.886340   6.073078
    23  C    2.774316   7.860975   6.041341   8.837793   8.079167
    24  H    3.385823   6.124821   4.574049   6.838397   6.093373
    25  C    1.388861   8.740968   6.685918   9.691800   8.706550
    26  H    1.084834   7.951292   5.937389   8.647896   7.474815
    27  C    8.712622   1.390079   3.390052   1.390101   3.389888
    28  H    8.149773   1.084351   2.465154   3.387168   4.943312
    29  H    9.449469   3.387180   4.943772   1.084359   2.465561
    30  C    7.665654   8.969308   8.332409   7.720362   5.695794
    31  H    6.942862   7.140909   6.683132   5.788086   3.680002
    32  C    6.604154   9.566875   8.455874   8.872346   6.994200
    33  H    4.622091   8.393928   6.940248   8.205384   6.540868
    34  C    2.408903   8.799626   6.832046   9.834392   8.988722
    35  H    3.858628   8.167078   6.494199   9.182753   8.555586
    36  H    2.144469   9.625297   7.530337  10.606100   9.590530
    37  H    9.745022   2.150485   4.285405   2.150465   4.285346
    38  C    7.660043   9.833015   8.984827   8.803335   6.837985
    39  H    8.636768   9.410032   8.983600   7.920340   5.903132
    40  H    6.901424  10.402368   9.183381   9.835805   8.012115
    41  H    3.392092   9.722147   7.763141  10.838005  10.043124
    42  H    8.628428  10.837073  10.039902   9.725704   7.768301
                   21         22         23         24         25
    21  C    0.000000
    22  C    2.401148   0.000000
    23  C    8.339678   7.663388   0.000000
    24  H    7.057108   6.938381   2.145221   0.000000
    25  C    7.934139   6.605193   2.402396   3.859344   0.000000
    26  H    6.184005   4.623169   3.858996   4.283837   2.145356
    27  C    7.659076   8.709586   8.854470   6.959180   9.784808
    28  H    8.687553   9.219415   8.131780   6.553592   9.047435
    29  H    6.834283   8.401843   9.752816   7.703958  10.633628
    30  C    1.388824   2.774442   9.514051   8.348527   8.928391
    31  H    1.084794   3.385432   8.348239   6.841814   8.251212
    32  C    2.774430   1.388819   8.926672   8.248218   7.770528
    33  H    3.385417   1.084800   7.118603   6.637291   5.818196
    34  C    8.709358   7.659884   1.390070   3.389995   1.390095
    35  H    9.145591   8.633852   1.084348   2.465033   3.387137
    36  H    8.482109   6.903971   3.387136   4.943698   1.084363
    37  H    8.627896   9.741917   9.781458   7.896741  10.784443
    38  C    2.408878   2.408889   9.781478   8.882743   8.860440
    39  H    2.144453   3.858761  10.344405   9.066139   9.895553
    40  H    3.858751   2.144441   9.369482   8.905073   7.969536
    41  H    9.741711   8.628862   2.150513   4.285366   2.150453
    42  H    3.392063   3.392069  10.781315   9.931179   9.787018
                   26         27         28         29         30
    26  H    0.000000
    27  C    8.890801   0.000000
    28  H    8.400673   2.149185   0.000000
    29  H    9.550120   2.149210   4.286129   0.000000
    30  C    7.121630   8.859603   9.962640   7.882530   0.000000
    31  H    6.643746   6.968114   8.176173   5.972534   2.145313
    32  C    5.817122   9.782657  10.430081   9.275425   2.402462
    33  H    3.763276   8.884190   9.138966   8.832416   3.859075
    34  C    3.389959   9.852694   9.043236  10.774458   9.782234
    35  H    4.943333   9.138507   8.378004  10.074121  10.343562
    36  H    2.465578  10.693178   9.904754  11.552901   9.371467
    37  H    9.938694   1.084125   2.479166   2.479130   9.786551
    38  C    6.969712   9.854241  10.771184   9.048527   1.390081
    39  H    8.143918   9.146682  10.438547   7.935381   1.084353
    40  H    6.021000  10.688903  11.218473  10.271890   3.387152
    41  H    4.285396  10.805077   9.900692  11.783262  10.781792
    42  H    7.906179  10.806850  11.780567   9.905608   2.150451
                   31         32         33         34         35
    31  H    0.000000
    32  C    3.859055   0.000000
    33  H    4.283308   2.145356   0.000000
    34  C    8.883693   8.860047   6.969499   0.000000
    35  H    9.064207   9.893547   8.140394   2.149187   0.000000
    36  H    8.908597   7.970392   6.024369   2.149200   4.286112
    37  H    7.905468  10.782193   9.932002  10.805181  10.004593
    38  C    3.389900   1.390094   3.389946   9.854100  10.686951
    39  H    2.465597   3.387150   4.943418  10.688111  11.122726
    40  H    4.943399   1.084354   2.465647   9.147341  10.372571
    41  H    9.931470   9.787155   7.907066   1.084123   2.479233
    42  H    4.285343   2.150458   4.285392  10.806525  11.688828
                   36         37         38         39         40
    36  H    0.000000
    37  H   11.694726   0.000000
    38  C    9.148051  10.806682   0.000000
    39  H   10.374492  10.012823   2.149134   0.000000
    40  H    8.023201  11.690288   2.149152   4.286037   0.000000
    41  H    2.479104  11.730346  10.806626  11.689465  10.013697
    42  H   10.013557  11.732093   1.084114   2.479039   2.479054
                   41         42
    41  H    0.000000
    42  H   11.731844   0.000000
 Stoichiometry    C24H18
 Framework group  C1[X(C24H18)]
 Deg. of freedom   120
 Full point group                 C1      NOp   1
 Largest Abelian subgroup         C1      NOp   1
 Largest concise Abelian subgroup C1      NOp   1
                         Standard orientation:                         
 ---------------------------------------------------------------------
 Center     Atomic      Atomic             Coordinates (Angstroms)
 Number     Number       Type             X           Y           Z
 ---------------------------------------------------------------------
      1          6           0        0.188925    1.388634   -0.041363
      2          6           0       -1.095663    0.848351   -0.002332
      3          6           0        1.283025    0.524246   -0.039978
      4          6           0       -1.297205   -0.530564    0.038390
      5          1           0       -1.953446    1.512564   -0.003493
      6          6           0        0.387992    2.858689   -0.101030
      7          6           0        1.108827   -0.858610    0.000668
      8          1           0        2.285118    0.932932   -0.115783
      9          6           0       -0.186462   -1.373409    0.039877
     10          6           0       -2.670770   -1.090957    0.097645
     11          6           0       -0.499895    3.672220   -0.808855
     12          6           0        1.468405    3.458572    0.550190
     13          6           0        2.282496   -1.767584    0.002482
     14          1           0       -0.331380   -2.445786    0.117140
     15          6           0       -3.639574   -0.521832    0.927535
     16          6           0       -3.022809   -2.199038   -0.676598
     17          6           0       -0.313439    5.047470   -0.863018
     18          1           0       -1.331036    3.219916   -1.339268
     19          6           0        1.655807    4.833645    0.496431
     20          1           0        2.155600    2.843026    1.120906
     21          6           0        3.401107   -1.487744    0.790854
     22          6           0        2.292693   -2.921960   -0.783934
     23          6           0       -4.924668   -1.045850    0.981690
     24          1           0       -3.376531    0.325302    1.551941
     25          6           0       -4.307566   -2.723877   -0.622964
     26          1           0       -2.288004   -2.639845   -1.341892
     27          6           0        0.764807    5.633332   -0.209969
     28          1           0       -1.008341    5.662385   -1.424095
     29          1           0        2.496007    5.282651    1.014397
     30          6           0        4.499362   -2.337839    0.793070
     31          1           0        3.400282   -0.606812    1.423890
     32          6           0        3.390155   -3.773072   -0.782237
     33          1           0        1.440795   -3.142296   -1.418372
     34          6           0       -5.263441   -2.148850    0.206501
     35          1           0       -5.661394   -0.595792    1.637810
     36          1           0       -4.564916   -3.579901   -1.236835
     37          1           0        0.910657    6.706765   -0.252350
     38          6           0        4.497750   -3.483925    0.006427
     39          1           0        5.355778   -2.108531    1.417403
     40          1           0        3.383371   -4.660727   -1.405010
     41          1           0       -6.266426   -2.558191    0.248739
     42          1           0        5.354714   -4.147938    0.007988
 ---------------------------------------------------------------------
 Rotational constants (GHZ):           0.1984983           0.1977196           0.1034915
 Leave Link  202 at Mon Nov 14 15:06:57 2022, MaxMem= 16106127360 cpu:               1.1 elap:               0.0
 (Enter /opt/ap/G16/B01/g16/l301.exe)
 Standard basis: 6-311++G(d,p) (5D, 7F)
 Ernie: Thresh=  0.10000D-02 Tol=  0.10000D-05 Strict=F.
 There are   678 symmetry adapted cartesian basis functions of A   symmetry.
 There are   654 symmetry adapted basis functions of A   symmetry.
   654 basis functions,  1026 primitive gaussians,   678 cartesian basis functions
    81 alpha electrons       81 beta electrons
       nuclear repulsion energy      1733.1231153920 Hartrees.
 IExCor= 4639 DFT=T Ex+Corr=wB97XD ExCW=0 ScaHFX=  1.000000
 ScaDFX=  1.000000  1.000000  1.000000  1.000000 ScalE2=  1.000000  1.000000
 IRadAn=      5 IRanWt=     -1 IRanGd=            0 ICorTp=0 IEmpDi=121
 HFx  wShort=  0.000000 wLong=  0.200000 cFull=  0.222036 cShort=  0.000000 cLong=  0.777964
 DFx  wShort=  0.000000 wLong=  0.200000 cFull=  0.000000 cShort=  0.000000 cLong=  1.000000
 NAtoms=   42 NActive=   42 NUniq=   42 SFac= 1.00D+00 NAtFMM=   60 NAOKFM=F Big=F
 Integral buffers will be    131072 words long.
 Raffenetti 2 integral format.
 Two-electron integral symmetry is turned on.
 R6Disp:  Grimme-D2 Dispersion energy=       -0.0289731498 Hartrees.
 Nuclear repulsion after empirical dispersion term =     1733.0941422422 Hartrees.
 Leave Link  301 at Mon Nov 14 15:06:57 2022, MaxMem= 16106127360 cpu:               1.3 elap:               0.0
 (Enter /opt/ap/G16/B01/g16/l302.exe)
 NPDir=0 NMtPBC=     1 NCelOv=     1 NCel=       1 NClECP=     1 NCelD=      1
         NCelK=      1 NCelE2=     1 NClLst=     1 CellRange=     0.0.
 One-electron integrals computed using PRISM.
 One-electron integral symmetry used in STVInt
 NBasis=   654 RedAO= T EigKep=  1.21D-06  NBF=   654
 NBsUse=   645 1.00D-06 EigRej=  7.20D-07 NBFU=   645
 Precomputing XC quadrature grid using
 IXCGrd= 4 IRadAn=           5 IRanWt=          -1 IRanGd=           0 AccXCQ= 0.00D+00.
 Generated NRdTot=       0 NPtTot=           0 NUsed=           0 NTot=          32
 NSgBfM=   669   669   669   669   669 MxSgAt=    42 MxSgA2=    42.
 Leave Link  302 at Mon Nov 14 15:06:58 2022, MaxMem= 16106127360 cpu:              22.1 elap:               0.7
 (Enter /opt/ap/G16/B01/g16/l303.exe)
 DipDrv:  MaxL=1.
 Leave Link  303 at Mon Nov 14 15:06:58 2022, MaxMem= 16106127360 cpu:               2.9 elap:               0.1
 (Enter /opt/ap/G16/B01/g16/l401.exe)
 ExpMin= 3.60D-02 ExpMax= 4.56D+03 ExpMxC= 6.82D+02 IAcc=3 IRadAn=         5 AccDes= 0.00D+00
 Harris functional with IExCor= 4639 and IRadAn=       5 diagonalized for initial guess.
 HarFok:  IExCor= 4639 AccDes= 0.00D+00 IRadAn=         5 IDoV= 1 UseB2=F ITyADJ=14
 ICtDFT=  3500011 ScaDFX=  1.000000  1.000000  1.000000  1.000000
 FoFCou: FMM=F IPFlag=           0 FMFlag=      100000 FMFlg1=           0
         NFxFlg=           0 DoJE=T BraDBF=F KetDBF=T FulRan=T
         wScrn=  0.000000 ICntrl=       500 IOpCl=  0 I1Cent=   200000004 NGrid=           0
         NMat0=    1 NMatS0=      1 NMatT0=    0 NMatD0=    1 NMtDS0=    0 NMtDT0=    0
 Petite list used in FoFCou.
 Harris En= -882.969266560577    
 JPrj=0 DoOrth=F DoCkMO=F.
 Leave Link  401 at Mon Nov 14 15:07:00 2022, MaxMem= 16106127360 cpu:              56.9 elap:               1.8
 (Enter /opt/ap/G16/B01/g16/l502.exe)
 Integral symmetry usage will be decided dynamically.
 Closed shell SCF:
 Using DIIS extrapolation, IDIIS=  1040.
 NGot= 16106127360 LenX= 16105179956 LenY= 16104719594
 Requested convergence on RMS density matrix=1.00D-08 within 512 cycles.
 Requested convergence on MAX density matrix=1.00D-06.
 Requested convergence on             energy=1.00D-06.
 No special actions if energy rises.
 Fock matrices will be formed incrementally for  20 cycles.

 Cycle   1  Pass 1  IDiag  1:
 FoFJK:  IHMeth= 1 ICntrl=       0 DoSepK=T KAlg= 0 I1Cent=           0 FoldK=F
 IRaf=         1 NMat=       1 IRICut=       1 DoRegI=T DoRafI=F ISym2E= 0 IDoP0=0 IntGTp=1.
 FoFCou: FMM=F IPFlag=           0 FMFlag=      100000 FMFlg1=           0
         NFxFlg=           0 DoJE=T BraDBF=F KetDBF=F FulRan=T
         wScrn=  0.000000 ICntrl=       500 IOpCl=  0 I1Cent=           0 NGrid=           0
         NMat0=    1 NMatS0=      1 NMatT0=    0 NMatD0=    1 NMtDS0=    0 NMtDT0=    0
 Symmetry not used in FoFCou.
 E= -925.116344831323    
 DIIS: error= 4.86D-02 at cycle   1 NSaved=   1.
 NSaved= 1 IEnMin= 1 EnMin= -925.116344831323     IErMin= 1 ErrMin= 4.86D-02
 ErrMax= 4.86D-02  0.00D+00 EMaxC= 1.00D-01 BMatC= 1.90D+00 BMatP= 1.90D+00
 IDIUse=3 WtCom= 5.14D-01 WtEn= 4.86D-01
 Coeff-Com:  0.100D+01
 Coeff-En:   0.100D+01
 Coeff:      0.100D+01
 Gap=     0.315 Goal=   None    Shift=    0.000
 GapD=    0.315 DampG=1.000 DampE=0.500 DampFc=0.5000 IDamp=-1.
 Damping current iteration by 5.00D-01
 RMSDP=3.90D-02 MaxDP=4.71D+00              OVMax= 4.32D-02

 Cycle   2  Pass 1  IDiag  1:
 RMSU=  7.06D-03    CP:  8.12D-01
 E= -925.214944850801     Delta-E=       -0.098600019478 Rises=F Damp=T
 DIIS: error= 2.26D-02 at cycle   2 NSaved=   2.
 NSaved= 2 IEnMin= 2 EnMin= -925.214944850801     IErMin= 2 ErrMin= 2.26D-02
 ErrMax= 2.26D-02  0.00D+00 EMaxC= 1.00D-01 BMatC= 4.32D-01 BMatP= 1.90D+00
 IDIUse=3 WtCom= 7.74D-01 WtEn= 2.26D-01
 Coeff-Com: -0.883D+00 0.188D+01
 Coeff-En:   0.000D+00 0.100D+01
 Coeff:     -0.683D+00 0.168D+01
 Gap=     0.323 Goal=   None    Shift=    0.000
 RMSDP=2.29D-02 MaxDP=2.16D+00 DE=-9.86D-02 OVMax= 3.38D-02

 Cycle   3  Pass 1  IDiag  1:
 RMSU=  3.46D-03    CP:  5.79D-01  1.34D+00
 E= -925.303377378016     Delta-E=       -0.088432527215 Rises=F Damp=F
 DIIS: error= 3.20D-03 at cycle   3 NSaved=   3.
 NSaved= 3 IEnMin= 3 EnMin= -925.303377378016     IErMin= 3 ErrMin= 3.20D-03
 ErrMax= 3.20D-03  0.00D+00 EMaxC= 1.00D-01 BMatC= 8.65D-03 BMatP= 4.32D-01
 IDIUse=3 WtCom= 9.68D-01 WtEn= 3.20D-02
 Coeff-Com: -0.370D+00 0.784D+00 0.585D+00
 Coeff-En:   0.000D+00 0.000D+00 0.100D+01
 Coeff:     -0.358D+00 0.759D+00 0.599D+00
 Gap=     0.321 Goal=   None    Shift=    0.000
 RMSDP=2.40D-03 MaxDP=2.06D-01 DE=-8.84D-02 OVMax= 1.94D-02

 Cycle   4  Pass 1  IDiag  1:
 RMSU=  1.38D-03    CP:  5.83D-01  1.55D+00  6.47D-01
 E= -925.311311008818     Delta-E=       -0.007933630803 Rises=F Damp=F
 DIIS: error= 7.91D-04 at cycle   4 NSaved=   4.
 NSaved= 4 IEnMin= 4 EnMin= -925.311311008818     IErMin= 4 ErrMin= 7.91D-04
 ErrMax= 7.91D-04  0.00D+00 EMaxC= 1.00D-01 BMatC= 2.75D-04 BMatP= 8.65D-03
 IDIUse=3 WtCom= 9.92D-01 WtEn= 7.91D-03
 Coeff-Com: -0.113D+00 0.241D+00 0.236D+00 0.637D+00
 Coeff-En:   0.000D+00 0.000D+00 0.000D+00 0.100D+01
 Coeff:     -0.112D+00 0.239D+00 0.234D+00 0.639D+00
 Gap=     0.320 Goal=   None    Shift=    0.000
 RMSDP=7.39D-04 MaxDP=5.51D-02 DE=-7.93D-03 OVMax= 4.24D-03

 Cycle   5  Pass 1  IDiag  1:
 RMSU=  2.83D-04    CP:  5.77D-01  1.58D+00  6.74D-01  8.48D-01
 E= -925.311600125902     Delta-E=       -0.000289117083 Rises=F Damp=F
 DIIS: error= 1.91D-04 at cycle   5 NSaved=   5.
 NSaved= 5 IEnMin= 5 EnMin= -925.311600125902     IErMin= 5 ErrMin= 1.91D-04
 ErrMax= 1.91D-04  0.00D+00 EMaxC= 1.00D-01 BMatC= 2.04D-05 BMatP= 2.75D-04
 IDIUse=3 WtCom= 9.98D-01 WtEn= 1.91D-03
 Coeff-Com:  0.264D-01-0.563D-01-0.263D-01 0.195D+00 0.861D+00
 Coeff-En:   0.000D+00 0.000D+00 0.000D+00 0.000D+00 0.100D+01
 Coeff:      0.264D-01-0.562D-01-0.262D-01 0.195D+00 0.861D+00
 Gap=     0.320 Goal=   None    Shift=    0.000
 RMSDP=1.72D-04 MaxDP=7.60D-03 DE=-2.89D-04 OVMax= 1.54D-03

 Cycle   6  Pass 1  IDiag  1:
 RMSU=  7.32D-05    CP:  5.76D-01  1.58D+00  6.89D-01  9.27D-01  1.22D+00
 E= -925.311626368561     Delta-E=       -0.000026242659 Rises=F Damp=F
 DIIS: error= 4.43D-05 at cycle   6 NSaved=   6.
 NSaved= 6 IEnMin= 6 EnMin= -925.311626368561     IErMin= 6 ErrMin= 4.43D-05
 ErrMax= 4.43D-05  0.00D+00 EMaxC= 1.00D-01 BMatC= 1.39D-06 BMatP= 2.04D-05
 IDIUse=1 WtCom= 1.00D+00 WtEn= 0.00D+00
 Coeff-Com:  0.134D-01-0.285D-01-0.167D-01 0.539D-01 0.330D+00 0.648D+00
 Coeff:      0.134D-01-0.285D-01-0.167D-01 0.539D-01 0.330D+00 0.648D+00
 Gap=     0.320 Goal=   None    Shift=    0.000
 RMSDP=7.05D-05 MaxDP=6.36D-03 DE=-2.62D-05 OVMax= 3.70D-04

 Cycle   7  Pass 1  IDiag  1:
 RMSU=  4.19D-05    CP:  5.76D-01  1.58D+00  6.90D-01  9.55D-01  1.16D+00
                    CP:  8.76D-01
 E= -925.311628075515     Delta-E=       -0.000001706954 Rises=F Damp=F
 DIIS: error= 1.24D-05 at cycle   7 NSaved=   7.
 NSaved= 7 IEnMin= 7 EnMin= -925.311628075515     IErMin= 7 ErrMin= 1.24D-05
 ErrMax= 1.24D-05  0.00D+00 EMaxC= 1.00D-01 BMatC= 1.01D-07 BMatP= 1.39D-06
 IDIUse=1 WtCom= 1.00D+00 WtEn= 0.00D+00
 Coeff-Com: -0.249D-02 0.533D-02 0.227D-02-0.286D-01-0.104D+00 0.991D-01
 Coeff-Com:  0.103D+01
 Coeff:     -0.249D-02 0.533D-02 0.227D-02-0.286D-01-0.104D+00 0.991D-01
 Coeff:      0.103D+01
 Gap=     0.320 Goal=   None    Shift=    0.000
 RMSDP=1.78D-05 MaxDP=1.21D-03 DE=-1.71D-06 OVMax= 2.60D-04

 Cycle   8  Pass 1  IDiag  1:
 RMSU=  5.85D-06    CP:  5.76D-01  1.58D+00  6.92D-01  9.56D-01  1.19D+00
                    CP:  9.81D-01  1.18D+00
 E= -925.311628313025     Delta-E=       -0.000000237510 Rises=F Damp=F
 DIIS: error= 3.54D-06 at cycle   8 NSaved=   8.
 NSaved= 8 IEnMin= 8 EnMin= -925.311628313025     IErMin= 8 ErrMin= 3.54D-06
 ErrMax= 3.54D-06  0.00D+00 EMaxC= 1.00D-01 BMatC= 4.49D-09 BMatP= 1.01D-07
 IDIUse=1 WtCom= 1.00D+00 WtEn= 0.00D+00
 Coeff-Com: -0.805D-03 0.172D-02 0.949D-03-0.652D-02-0.250D-01 0.193D-02
 Coeff-Com:  0.123D+00 0.905D+00
 Coeff:     -0.805D-03 0.172D-02 0.949D-03-0.652D-02-0.250D-01 0.193D-02
 Coeff:      0.123D+00 0.905D+00
 Gap=     0.320 Goal=   None    Shift=    0.000
 RMSDP=2.87D-06 MaxDP=1.73D-04 DE=-2.38D-07 OVMax= 5.51D-05

 Cycle   9  Pass 1  IDiag  1:
 RMSU=  1.41D-06    CP:  5.76D-01  1.58D+00  6.92D-01  9.56D-01  1.19D+00
                    CP:  9.87D-01  1.23D+00  1.24D+00
 E= -925.311628322582     Delta-E=       -0.000000009557 Rises=F Damp=F
 DIIS: error= 2.36D-06 at cycle   9 NSaved=   9.
 NSaved= 9 IEnMin= 9 EnMin= -925.311628322582     IErMin= 9 ErrMin= 2.36D-06
 ErrMax= 2.36D-06  0.00D+00 EMaxC= 1.00D-01 BMatC= 1.37D-09 BMatP= 4.49D-09
 IDIUse=1 WtCom= 1.00D+00 WtEn= 0.00D+00
 Coeff-Com:  0.152D-03-0.330D-03-0.936D-05 0.295D-02 0.108D-01-0.155D-01
 Coeff-Com: -0.161D+00 0.375D+00 0.788D+00
 Coeff:      0.152D-03-0.330D-03-0.936D-05 0.295D-02 0.108D-01-0.155D-01
 Coeff:     -0.161D+00 0.375D+00 0.788D+00
 Gap=     0.320 Goal=   None    Shift=    0.000
 RMSDP=1.59D-06 MaxDP=1.05D-04 DE=-9.56D-09 OVMax= 3.46D-05

 Cycle  10  Pass 1  IDiag  1:
 RMSU=  6.74D-07    CP:  5.76D-01  1.58D+00  6.92D-01  9.56D-01  1.19D+00
                    CP:  9.88D-01  1.24D+00  1.39D+00  6.49D-01
 E= -925.311628325050     Delta-E=       -0.000000002468 Rises=F Damp=F
 DIIS: error= 7.52D-07 at cycle  10 NSaved=  10.
 NSaved=10 IEnMin=10 EnMin= -925.311628325050     IErMin=10 ErrMin= 7.52D-07
 ErrMax= 7.52D-07  0.00D+00 EMaxC= 1.00D-01 BMatC= 1.91D-10 BMatP= 1.37D-09
 IDIUse=1 WtCom= 1.00D+00 WtEn= 0.00D+00
 Coeff-Com:  0.113D-03-0.243D-03-0.571D-04 0.158D-02 0.565D-02-0.506D-02
 Coeff-Com: -0.693D-01 0.576D-01 0.340D+00 0.670D+00
 Coeff:      0.113D-03-0.243D-03-0.571D-04 0.158D-02 0.565D-02-0.506D-02
 Coeff:     -0.693D-01 0.576D-01 0.340D+00 0.670D+00
 Gap=     0.320 Goal=   None    Shift=    0.000
 RMSDP=4.25D-07 MaxDP=4.02D-05 DE=-2.47D-09 OVMax= 9.06D-06

 Cycle  11  Pass 1  IDiag  1:
 RMSU=  1.49D-07    CP:  5.76D-01  1.58D+00  6.92D-01  9.56D-01  1.19D+00
                    CP:  9.88D-01  1.24D+00  1.40D+00  8.86D-01  9.02D-01
 E= -925.311628325323     Delta-E=       -0.000000000273 Rises=F Damp=F
 DIIS: error= 2.12D-07 at cycle  11 NSaved=  11.
 NSaved=11 IEnMin=11 EnMin= -925.311628325323     IErMin=11 ErrMin= 2.12D-07
 ErrMax= 2.12D-07  0.00D+00 EMaxC= 1.00D-01 BMatC= 3.31D-11 BMatP= 1.91D-10
 IDIUse=1 WtCom= 1.00D+00 WtEn= 0.00D+00
 Coeff-Com:  0.221D-04-0.468D-04-0.194D-04 0.137D-03 0.320D-03 0.112D-02
 Coeff-Com:  0.573D-03-0.619D-01 0.114D-01 0.303D+00 0.746D+00
 Coeff:      0.221D-04-0.468D-04-0.194D-04 0.137D-03 0.320D-03 0.112D-02
 Coeff:      0.573D-03-0.619D-01 0.114D-01 0.303D+00 0.746D+00
 Gap=     0.320 Goal=   None    Shift=    0.000
 RMSDP=1.84D-07 MaxDP=1.32D-05 DE=-2.73D-10 OVMax= 3.29D-06

 Cycle  12  Pass 1  IDiag  1:
 RMSU=  5.96D-08    CP:  5.76D-01  1.58D+00  6.92D-01  9.56D-01  1.19D+00
                    CP:  9.87D-01  1.24D+00  1.41D+00  8.62D-01  1.07D+00
                    CP:  1.08D+00
 E= -925.311628325330     Delta-E=       -0.000000000006 Rises=F Damp=F
 DIIS: error= 7.75D-08 at cycle  12 NSaved=  12.
 NSaved=12 IEnMin=12 EnMin= -925.311628325330     IErMin=12 ErrMin= 7.75D-08
 ErrMax= 7.75D-08  0.00D+00 EMaxC= 1.00D-01 BMatC= 1.38D-12 BMatP= 3.31D-11
 IDIUse=1 WtCom= 1.00D+00 WtEn= 0.00D+00
 Coeff-Com: -0.142D-04 0.307D-04 0.110D-04-0.217D-03-0.795D-03 0.934D-03
 Coeff-Com:  0.946D-02-0.119D-01-0.320D-01-0.770D-01-0.634D-01 0.117D+01
 Coeff:     -0.142D-04 0.307D-04 0.110D-04-0.217D-03-0.795D-03 0.934D-03
 Coeff:      0.946D-02-0.119D-01-0.320D-01-0.770D-01-0.634D-01 0.117D+01
 Gap=     0.320 Goal=   None    Shift=    0.000
 RMSDP=7.10D-08 MaxDP=3.04D-06 DE=-6.37D-12 OVMax= 1.34D-06

 Cycle  13  Pass 1  IDiag  1:
 RMSU=  2.42D-08    CP:  5.76D-01  1.58D+00  6.92D-01  9.56D-01  1.19D+00
                    CP:  9.87D-01  1.24D+00  1.41D+00  8.73D-01  1.12D+00
                    CP:  1.16D+00  1.45D+00
 E= -925.311628325330     Delta-E=       -0.000000000000 Rises=F Damp=F
 DIIS: error= 2.12D-08 at cycle  13 NSaved=  13.
 NSaved=13 IEnMin=13 EnMin= -925.311628325330     IErMin=13 ErrMin= 2.12D-08
 ErrMax= 2.12D-08  0.00D+00 EMaxC= 1.00D-01 BMatC= 1.08D-13 BMatP= 1.38D-12
 IDIUse=1 WtCom= 1.00D+00 WtEn= 0.00D+00
 Coeff-Com: -0.300D-05 0.642D-05 0.295D-05-0.356D-04-0.118D-03 0.839D-04
 Coeff-Com:  0.114D-02 0.132D-02-0.286D-02-0.257D-01-0.633D-01 0.165D+00
 Coeff-Com:  0.924D+00
 Coeff:     -0.300D-05 0.642D-05 0.295D-05-0.356D-04-0.118D-03 0.839D-04
 Coeff:      0.114D-02 0.132D-02-0.286D-02-0.257D-01-0.633D-01 0.165D+00
 Coeff:      0.924D+00
 Gap=     0.320 Goal=   None    Shift=    0.000
 RMSDP=1.62D-08 MaxDP=1.33D-06 DE=-4.55D-13 OVMax= 3.09D-07

 Cycle  14  Pass 1  IDiag  1:
 RMSU=  4.50D-09    CP:  5.76D-01  1.58D+00  6.92D-01  9.56D-01  1.19D+00
                    CP:  9.87D-01  1.24D+00  1.41D+00  8.73D-01  1.12D+00
                    CP:  1.16D+00  1.58D+00  1.29D+00
 E= -925.311628325349     Delta-E=       -0.000000000019 Rises=F Damp=F
 DIIS: error= 6.33D-09 at cycle  14 NSaved=  14.
 NSaved=14 IEnMin=14 EnMin= -925.311628325349     IErMin=14 ErrMin= 6.33D-09
 ErrMax= 6.33D-09  0.00D+00 EMaxC= 1.00D-01 BMatC= 3.82D-14 BMatP= 1.08D-13
 IDIUse=1 WtCom= 1.00D+00 WtEn= 0.00D+00
 Coeff-Com:  0.638D-06-0.141D-05-0.240D-06 0.145D-04 0.597D-04-0.929D-04
 Coeff-Com: -0.826D-03 0.221D-02 0.346D-02-0.823D-03-0.230D-01-0.965D-01
 Coeff-Com:  0.434D+00 0.681D+00
 Coeff:      0.638D-06-0.141D-05-0.240D-06 0.145D-04 0.597D-04-0.929D-04
 Coeff:     -0.826D-03 0.221D-02 0.346D-02-0.823D-03-0.230D-01-0.965D-01
 Coeff:      0.434D+00 0.681D+00
 Gap=     0.320 Goal=   None    Shift=    0.000
 RMSDP=8.02D-09 MaxDP=8.01D-07 DE=-1.86D-11 OVMax= 8.23D-08

 SCF Done:  E(RwB97XD) =  -925.311628325     A.U. after   14 cycles
            NFock= 14  Conv=0.80D-08     -V/T= 2.0044
 KE= 9.212992796469D+02 PE=-5.612583926162D+03 EE= 2.032878875947D+03
 Leave Link  502 at Mon Nov 14 15:09:23 2022, MaxMem= 16106127360 cpu:            4566.1 elap:             143.2
 (Enter /opt/ap/G16/B01/g16/l601.exe)
 Copying SCF densities to generalized density rwf, IOpCl= 0 IROHF=0.

 **********************************************************************

            Population analysis using the SCF Density.

 **********************************************************************

 Orbital symmetries:
       Occupied  (A) (A) (A) (A) (A) (A) (A) (A) (A) (A) (A) (A)
                 (A) (A) (A) (A) (A) (A) (A) (A) (A) (A) (A) (A)
                 (A) (A) (A) (A) (A) (A) (A) (A) (A) (A) (A) (A)
                 (A) (A) (A) (A) (A) (A) (A) (A) (A) (A) (A) (A)
                 (A) (A) (A) (A) (A) (A) (A) (A) (A) (A) (A) (A)
                 (A) (A) (A) (A) (A) (A) (A) (A) (A) (A) (A) (A)
                 (A) (A) (A) (A) (A) (A) (A) (A) (A)
       Virtual   (A) (A) (A) (A) (A) (A) (A) (A) (A) (A) (A) (A)
                 (A) (A) (A) (A) (A) (A) (A) (A) (A) (A) (A) (A)
                 (A) (A) (A) (A) (A) (A) (A) (A) (A) (A) (A) (A)
                 (A) (A) (A) (A) (A) (A) (A) (A) (A) (A) (A) (A)
                 (A) (A) (A) (A) (A) (A) (A) (A) (A) (A) (A) (A)
                 (A) (A) (A) (A) (A) (A) (A) (A) (A) (A) (A) (A)
                 (A) (A) (A) (A) (A) (A) (A) (A) (A) (A) (A) (A)
                 (A) (A) (A) (A) (A) (A) (A) (A) (A) (A) (A) (A)
                 (A) (A) (A) (A) (A) (A) (A) (A) (A) (A) (A) (A)
                 (A) (A) (A) (A) (A) (A) (A) (A) (A) (A) (A) (A)
                 (A) (A) (A) (A) (A) (A) (A) (A) (A) (A) (A) (A)
                 (A) (A) (A) (A) (A) (A) (A) (A) (A) (A) (A) (A)
                 (A) (A) (A) (A) (A) (A) (A) (A) (A) (A) (A) (A)
                 (A) (A) (A) (A) (A) (A) (A) (A) (A) (A) (A) (A)
                 (A) (A) (A) (A) (A) (A) (A) (A) (A) (A) (A) (A)
                 (A) (A) (A) (A) (A) (A) (A) (A) (A) (A) (A) (A)
                 (A) (A) (A) (A) (A) (A) (A) (A) (A) (A) (A) (A)
                 (A) (A) (A) (A) (A) (A) (A) (A) (A) (A) (A) (A)
                 (A) (A) (A) (A) (A) (A) (A) (A) (A) (A) (A) (A)
                 (A) (A) (A) (A) (A) (A) (A) (A) (A) (A) (A) (A)
                 (A) (A) (A) (A) (A) (A) (A) (A) (A) (A) (A) (A)
                 (A) (A) (A) (A) (A) (A) (A) (A) (A) (A) (A) (A)
                 (A) (A) (A) (A) (A) (A) (A) (A) (A) (A) (A) (A)
                 (A) (A) (A) (A) (A) (A) (A) (A) (A) (A) (A) (A)
                 (A) (A) (A) (A) (A) (A) (A) (A) (A) (A) (A) (A)
                 (A) (A) (A) (A) (A) (A) (A) (A) (A) (A) (A) (A)
                 (A) (A) (A) (A) (A) (A) (A) (A) (A) (A) (A) (A)
                 (A) (A) (A) (A) (A) (A) (A) (A) (A) (A) (A) (A)
                 (A) (A) (A) (A) (A) (A) (A) (A) (A) (A) (A) (A)
                 (A) (A) (A) (A) (A) (A) (A) (A) (A) (A) (A) (A)
                 (A) (A) (A) (A) (A) (A) (A) (A) (A) (A) (A) (A)
                 (A) (A) (A) (A) (A) (A) (A) (A) (A) (A) (A) (A)
                 (A) (A) (A) (A) (A) (A) (A) (A) (A) (A) (A) (A)
                 (A) (A) (A) (A) (A) (A) (A) (A) (A) (A) (A) (A)
                 (A) (A) (A) (A) (A) (A) (A) (A) (A) (A) (A) (A)
                 (A) (A) (A) (A) (A) (A) (A) (A) (A) (A) (A) (A)
                 (A) (A) (A) (A) (A) (A) (A) (A) (A) (A) (A) (A)
                 (A) (A) (A) (A) (A) (A) (A) (A) (A) (A) (A) (A)
                 (A) (A) (A) (A) (A) (A) (A) (A) (A) (A) (A) (A)
                 (A) (A) (A) (A) (A) (A) (A) (A) (A) (A) (A) (A)
                 (A) (A) (A) (A) (A) (A) (A) (A) (A) (A) (A) (A)
                 (A) (A) (A) (A) (A) (A) (A) (A) (A) (A) (A) (A)
                 (A) (A) (A) (A) (A) (A) (A) (A) (A) (A) (A) (A)
                 (A) (A) (A) (A) (A) (A) (A) (A) (A) (A) (A) (A)
                 (A) (A) (A) (A) (A) (A) (A) (A) (A) (A) (A) (A)
                 (A) (A) (A) (A) (A) (A) (A) (A) (A) (A) (A) (A)
                 (A) (A) (A) (A) (A) (A) (A) (A) (A) (A) (A) (A)
 The electronic state is 1-A.
 Alpha  occ. eigenvalues --  -10.30463 -10.30453 -10.30448 -10.30366 -10.30355
 Alpha  occ. eigenvalues --  -10.30348 -10.29283 -10.29276 -10.29274 -10.29269
 Alpha  occ. eigenvalues --  -10.29257 -10.29248 -10.29203 -10.29196 -10.29192
 Alpha  occ. eigenvalues --  -10.29191 -10.29160 -10.29158 -10.29137 -10.29119
 Alpha  occ. eigenvalues --  -10.29118 -10.29090 -10.29087 -10.29082  -0.99021
 Alpha  occ. eigenvalues --   -0.97088  -0.97078  -0.95289  -0.89464  -0.89457
 Alpha  occ. eigenvalues --   -0.85380  -0.85358  -0.85294  -0.85078  -0.82276
 Alpha  occ. eigenvalues --   -0.82256  -0.73674  -0.73586  -0.71165  -0.70815
 Alpha  occ. eigenvalues --   -0.70152  -0.70067  -0.66716  -0.66673  -0.63656
 Alpha  occ. eigenvalues --   -0.60770  -0.60728  -0.58649  -0.57375  -0.56774
 Alpha  occ. eigenvalues --   -0.54929  -0.54834  -0.54350  -0.54109  -0.52588
 Alpha  occ. eigenvalues --   -0.51835  -0.51601  -0.51514  -0.51182  -0.50930
 Alpha  occ. eigenvalues --   -0.50728  -0.48077  -0.46800  -0.46323  -0.45901
 Alpha  occ. eigenvalues --   -0.45765  -0.44927  -0.44386  -0.43193  -0.43148
 Alpha  occ. eigenvalues --   -0.42956  -0.41727  -0.41586  -0.36976  -0.36518
 Alpha  occ. eigenvalues --   -0.33662  -0.33649  -0.33638  -0.32982  -0.30303
 Alpha  occ. eigenvalues --   -0.30123
 Alpha virt. eigenvalues --    0.01864   0.02156   0.03672   0.04183   0.04259
 Alpha virt. eigenvalues --    0.04582   0.04827   0.04925   0.05086   0.05130
 Alpha virt. eigenvalues --    0.05193   0.05687   0.05874   0.06781   0.07050
 Alpha virt. eigenvalues --    0.07114   0.07953   0.08017   0.08368   0.08668
 Alpha virt. eigenvalues --    0.08822   0.09116   0.09293   0.10190   0.11020
 Alpha virt. eigenvalues --    0.11473   0.12169   0.12417   0.12885   0.13422
 Alpha virt. eigenvalues --    0.13652   0.13807   0.14333   0.14418   0.15427
 Alpha virt. eigenvalues --    0.15719   0.15780   0.15905   0.16100   0.16235
 Alpha virt. eigenvalues --    0.16517   0.16703   0.16995   0.17357   0.17419
 Alpha virt. eigenvalues --    0.17440   0.17742   0.18053   0.18129   0.18363
 Alpha virt. eigenvalues --    0.18400   0.18514   0.18564   0.18912   0.19187
 Alpha virt. eigenvalues --    0.19310   0.19501   0.19838   0.20272   0.20547
 Alpha virt. eigenvalues --    0.20579   0.21009   0.21148   0.21695   0.21818
 Alpha virt. eigenvalues --    0.22190   0.22325   0.22474   0.23015   0.23109
 Alpha virt. eigenvalues --    0.23384   0.23633   0.23757   0.23796   0.23913
 Alpha virt. eigenvalues --    0.24736   0.24853   0.25287   0.25402   0.25549
 Alpha virt. eigenvalues --    0.25839   0.25956   0.26616   0.26934   0.27407
 Alpha virt. eigenvalues --    0.27589   0.27650   0.27750   0.28378   0.28455
 Alpha virt. eigenvalues --    0.28642   0.29102   0.29356   0.29361   0.29520
 Alpha virt. eigenvalues --    0.29761   0.29961   0.30656   0.30841   0.31065
 Alpha virt. eigenvalues --    0.31469   0.32227   0.32460   0.32985   0.33115
 Alpha virt. eigenvalues --    0.33519   0.33770   0.33959   0.34476   0.34598
 Alpha virt. eigenvalues --    0.34777   0.34863   0.34899   0.35300   0.35623
 Alpha virt. eigenvalues --    0.35880   0.36431   0.36565   0.36653   0.36896
 Alpha virt. eigenvalues --    0.37226   0.37398   0.37932   0.38199   0.38372
 Alpha virt. eigenvalues --    0.38455   0.38891   0.39404   0.39609   0.39906
 Alpha virt. eigenvalues --    0.40442   0.40716   0.40928   0.41171   0.41666
 Alpha virt. eigenvalues --    0.42047   0.42198   0.42395   0.42901   0.43892
 Alpha virt. eigenvalues --    0.44027   0.44122   0.44568   0.44816   0.44848
 Alpha virt. eigenvalues --    0.45301   0.46101   0.47633   0.47769   0.48154
 Alpha virt. eigenvalues --    0.48526   0.49928   0.53273   0.53985   0.57219
 Alpha virt. eigenvalues --    0.58301   0.58575   0.58993   0.59149   0.60584
 Alpha virt. eigenvalues --    0.61812   0.62297   0.62477   0.62938   0.62969
 Alpha virt. eigenvalues --    0.63241   0.63677   0.63828   0.64042   0.64144
 Alpha virt. eigenvalues --    0.64291   0.65167   0.65261   0.65330   0.65682
 Alpha virt. eigenvalues --    0.65794   0.66477   0.67241   0.67451   0.67811
 Alpha virt. eigenvalues --    0.68638   0.69241   0.70034   0.70220   0.70693
 Alpha virt. eigenvalues --    0.70833   0.71233   0.71468   0.72056   0.72531
 Alpha virt. eigenvalues --    0.72983   0.73329   0.73720   0.74194   0.74369
 Alpha virt. eigenvalues --    0.75407   0.76144   0.76720   0.77025   0.78223
 Alpha virt. eigenvalues --    0.78511   0.78632   0.79892   0.79969   0.80114
 Alpha virt. eigenvalues --    0.80405   0.81060   0.81424   0.81904   0.82051
 Alpha virt. eigenvalues --    0.82369   0.82668   0.83109   0.83575   0.84015
 Alpha virt. eigenvalues --    0.84310   0.84978   0.85155   0.85446   0.85683
 Alpha virt. eigenvalues --    0.85944   0.86635   0.88172   0.88355   0.88771
 Alpha virt. eigenvalues --    0.89652   0.90117   0.91497   0.91538   0.92259
 Alpha virt. eigenvalues --    0.92444   0.92796   0.93207   0.93481   0.93870
 Alpha virt. eigenvalues --    0.94073   0.94450   0.94682   0.95877   0.96590
 Alpha virt. eigenvalues --    0.96695   0.97268   0.97417   0.98530   0.99206
 Alpha virt. eigenvalues --    0.99904   1.00339   1.00653   1.00888   1.01796
 Alpha virt. eigenvalues --    1.02490   1.02803   1.04142   1.04470   1.04615
 Alpha virt. eigenvalues --    1.06010   1.06399   1.06497   1.07048   1.07210
 Alpha virt. eigenvalues --    1.07854   1.08191   1.08476   1.09192   1.11643
 Alpha virt. eigenvalues --    1.11899   1.12908   1.12957   1.13607   1.13721
 Alpha virt. eigenvalues --    1.14622   1.14742   1.16802   1.17055   1.17457
 Alpha virt. eigenvalues --    1.18093   1.18449   1.19170   1.19431   1.20949
 Alpha virt. eigenvalues --    1.21545   1.22469   1.22552   1.23853   1.24075
 Alpha virt. eigenvalues --    1.24434   1.24716   1.25228   1.28892   1.29204
 Alpha virt. eigenvalues --    1.36860   1.39653   1.40755   1.41421   1.41967
 Alpha virt. eigenvalues --    1.46071   1.47193   1.47440   1.52518   1.55895
 Alpha virt. eigenvalues --    1.56487   1.58176   1.58408   1.58920   1.59164
 Alpha virt. eigenvalues --    1.59362   1.60035   1.60778   1.60912   1.61275
 Alpha virt. eigenvalues --    1.61628   1.62108   1.62553   1.63380   1.63537
 Alpha virt. eigenvalues --    1.64302   1.65576   1.65681   1.65992   1.66369
 Alpha virt. eigenvalues --    1.66679   1.66959   1.67799   1.68544   1.68797
 Alpha virt. eigenvalues --    1.69228   1.72516   1.73387   1.73976   1.74203
 Alpha virt. eigenvalues --    1.74302   1.75208   1.75429   1.76079   1.76283
 Alpha virt. eigenvalues --    1.77705   1.78223   1.80918   1.81946   1.82587
 Alpha virt. eigenvalues --    1.82834   1.82873   1.83887   1.84621   1.84829
 Alpha virt. eigenvalues --    1.85702   1.86341   1.86442   1.86943   1.87139
 Alpha virt. eigenvalues --    1.87708   1.89993   1.92238   1.92620   1.93252
 Alpha virt. eigenvalues --    1.93946   1.94216   1.97121   1.99880   1.99963
 Alpha virt. eigenvalues --    2.00411   2.01197   2.01888   2.02429   2.02991
 Alpha virt. eigenvalues --    2.03068   2.03241   2.03839   2.04431   2.04606
 Alpha virt. eigenvalues --    2.04700   2.04803   2.05617   2.05748   2.06070
 Alpha virt. eigenvalues --    2.07117   2.07301   2.07765   2.08649   2.09158
 Alpha virt. eigenvalues --    2.10741   2.11763   2.12593   2.12911   2.13238
 Alpha virt. eigenvalues --    2.13860   2.15553   2.15631   2.16819   2.17716
 Alpha virt. eigenvalues --    2.18111   2.18813   2.19759   2.20207   2.20498
 Alpha virt. eigenvalues --    2.24143   2.28300   2.30764   2.33913   2.35487
 Alpha virt. eigenvalues --    2.36697   2.36798   2.38498   2.39970   2.43908
 Alpha virt. eigenvalues --    2.44280   2.44627   2.45927   2.47551   2.49134
 Alpha virt. eigenvalues --    2.51607   2.52893   2.53029   2.53236   2.54610
 Alpha virt. eigenvalues --    2.55429   2.56250   2.56513   2.56704   2.58335
 Alpha virt. eigenvalues --    2.58517   2.58681   2.62079   2.62916   2.63160
 Alpha virt. eigenvalues --    2.72715   2.73155   2.73380   2.75766   2.76098
 Alpha virt. eigenvalues --    2.76297   2.76719   2.78753   2.79130   2.79610
 Alpha virt. eigenvalues --    2.80064   2.80246   2.80497   2.80554   2.81122
 Alpha virt. eigenvalues --    2.81233   2.82319   2.82639   2.83004   2.83465
 Alpha virt. eigenvalues --    2.83570   2.84120   2.85844   2.86322   2.87098
 Alpha virt. eigenvalues --    2.87528   2.88078   2.88482   2.90979   2.92112
 Alpha virt. eigenvalues --    2.92349   2.92438   2.92932   2.93157   2.93270
 Alpha virt. eigenvalues --    2.93746   2.94222   2.94604   2.94956   2.97741
 Alpha virt. eigenvalues --    2.99746   3.00286   3.01205   3.01699   3.02299
 Alpha virt. eigenvalues --    3.04403   3.04525   3.04842   3.05281   3.05571
 Alpha virt. eigenvalues --    3.06216   3.06360   3.07242   3.07813   3.11380
 Alpha virt. eigenvalues --    3.11889   3.15754   3.18051   3.19481   3.19788
 Alpha virt. eigenvalues --    3.21174   3.22782   3.25365   3.31965   3.32017
 Alpha virt. eigenvalues --    3.32485   3.33683   3.34857   3.35318   3.37365
 Alpha virt. eigenvalues --    3.47239   3.47622   3.48985   3.49371   3.49688
 Alpha virt. eigenvalues --    3.49746   3.53614   3.53800   3.60747   3.61055
 Alpha virt. eigenvalues --    3.61765   3.63178   3.64988   3.65473   3.66118
 Alpha virt. eigenvalues --    3.73650   3.73734   3.76193   3.76332   3.76716
 Alpha virt. eigenvalues --    3.77365   3.90564   3.91862   3.92779   4.09816
 Alpha virt. eigenvalues --    4.10089   4.10405   4.14489   4.14531   4.14614
 Alpha virt. eigenvalues --    4.24139   4.24291   4.26165   4.26221   4.26700
 Alpha virt. eigenvalues --    4.26948   4.28361   4.29024   4.51223   4.66948
 Alpha virt. eigenvalues --    4.68562   4.93489   4.95233   4.95702   4.98633
 Alpha virt. eigenvalues --   23.68122  23.81157  23.81760  23.88086  24.08482
 Alpha virt. eigenvalues --   24.08497  24.10778  24.10931  24.11076  24.11589
 Alpha virt. eigenvalues --   24.12693  24.13020  24.20561  24.20658  24.21076
 Alpha virt. eigenvalues --   24.23923  24.24297  24.24377  24.24504  24.24573
 Alpha virt. eigenvalues --   24.31207  24.33805  24.33808  24.34765
          Condensed to atoms (all electrons):
               1          2          3          4          5          6
     1  C   18.554761   1.008143   0.223349  -5.742056  -0.065413   0.879554
     2  C    1.008143  10.874937  -0.056522   1.254081   0.387395  -1.997150
     3  C    0.223349  -0.056522  13.742189  -2.575868   0.108497  -2.542606
     4  C   -5.742056   1.254081  -2.575868  19.418776  -0.030311  -0.377349
     5  H   -0.065413   0.387395   0.108497  -0.030311   0.602987  -0.070310
     6  C    0.879554  -1.997150  -2.542606  -0.377349  -0.070310  14.440234
     7  C   -6.144983  -1.708144   1.629724  -6.694508   0.038766  -0.834661
     8  H   -0.161018   0.027958   0.294087   0.094223   0.000551   0.050634
     9  C   -2.102406   0.422867   0.335499   0.055645   0.110857  -1.732533
    10  C   -0.273341  -2.062361  -1.685348   0.573320  -0.046713   0.922480
    11  C   -0.096337   2.767245  -3.413104   0.932357  -0.050088  -0.778650
    12  C   -1.332982  -2.927695   3.488748  -0.941050   0.019431  -1.406380
    13  C   -0.512482  -1.679973  -2.445598  -0.126977  -0.037496   1.378513
    14  H    0.095870  -0.000186   0.066112  -0.069190  -0.001751  -0.020802
    15  C    0.700790   2.051559  -0.210346   0.054320  -0.119137   0.311067
    16  C   -0.729275  -2.179331   0.166387  -1.513599   0.040223  -0.007319
    17  C   -0.225483   0.317394   0.280245   0.238067   0.040084  -2.146119
    18  H    0.004647   0.009005  -0.091853  -0.027454  -0.026523  -0.031219
    19  C    0.143777   0.051482   0.080186  -0.045113  -0.008027  -1.420215
    20  H    0.106761  -0.006688  -0.036578  -0.002956  -0.003293  -0.020519
    21  C    1.834103  -0.146563   2.466296  -1.005699  -0.005883  -0.196829
    22  C   -1.191266   0.138866  -2.734477   1.708716   0.000003   0.183805
    23  C    0.354213   0.492273   0.102906  -0.112479   0.026207   0.041611
    24  H   -0.035481   0.002857  -0.025120   0.027617  -0.023179   0.035791
    25  C   -0.113348  -0.011295   0.055664   0.112423   0.005258  -0.090362
    26  H    0.005399  -0.000566  -0.011859   0.106835  -0.003270   0.015734
    27  C   -0.161138  -0.059113  -0.113926  -0.071039   0.011742  -0.083771
    28  H    0.004374  -0.002174   0.012813   0.005101   0.000437   0.012084
    29  H   -0.003818  -0.000292   0.006213   0.001662   0.000081   0.003859
    30  C    0.304050   0.076277   0.518798  -0.189786   0.001701  -0.061839
    31  H   -0.072544  -0.022454  -0.063151   0.013340   0.000060   0.003937
    32  C   -0.129319   0.076040   0.215923   0.210200   0.002258  -0.064685
    33  H    0.008646  -0.019779  -0.020495  -0.084308   0.000061   0.014048
    34  C   -0.065152  -0.099621  -0.034469  -0.220134   0.008161   0.037408
    35  H    0.006401   0.000021   0.001327   0.004889  -0.000244  -0.002072
    36  H    0.000791   0.000759   0.000541  -0.004187   0.000094  -0.001079
    37  H   -0.004096  -0.000581  -0.005701   0.000245  -0.000194   0.029204
    38  C    0.005920  -0.025366  -0.152521   0.039452  -0.000719   0.048101
    39  H    0.004389   0.000404   0.008303   0.000289  -0.000003  -0.003840
    40  H    0.000496   0.000550   0.006840   0.004286   0.000003  -0.001247
    41  H    0.000457  -0.002168  -0.000900  -0.006644  -0.000226   0.000947
    42  H    0.000655  -0.000794  -0.007213   0.001338  -0.000013   0.001265
               7          8          9         10         11         12
     1  C   -6.144983  -0.161018  -2.102406  -0.273341  -0.096337  -1.332982
     2  C   -1.708144   0.027958   0.422867  -2.062361   2.767245  -2.927695
     3  C    1.629724   0.294087   0.335499  -1.685348  -3.413104   3.488748
     4  C   -6.694508   0.094223   0.055645   0.573320   0.932357  -0.941050
     5  H    0.038766   0.000551   0.110857  -0.046713  -0.050088   0.019431
     6  C   -0.834661   0.050634  -1.732533   0.922480  -0.778650  -1.406380
     7  C   19.384345   0.055297   1.576302  -0.887622  -0.790848   1.273469
     8  H    0.055297   0.521646   0.066674  -0.015939   0.067046  -0.144342
     9  C    1.576302   0.066674  13.383680  -2.973125   0.036244   0.148332
    10  C   -0.887622  -0.015939  -2.973125  15.205986   0.291932  -0.055448
    11  C   -0.790848   0.067046   0.036244   0.291932  15.674722  -8.179073
    12  C    1.273469  -0.144342   0.148332  -0.055448  -8.179073  17.267328
    13  C    0.024988   0.048238  -2.355924   1.320923   0.143548  -0.243428
    14  H   -0.042404  -0.003457   0.324385   0.049911  -0.010711   0.011191
    15  C   -0.964256  -0.004459  -2.993421  -0.376695  -0.413005   0.096693
    16  C    1.454188   0.003867   2.678238  -1.486163   0.149815  -0.039078
    17  C    0.012136   0.023473   0.070935   0.038358  -0.184825   0.023987
    18  H   -0.008757  -0.002635  -0.016861   0.036256   0.570300  -0.065239
    19  C    0.150770  -0.023710   0.041545  -0.068427   0.295687  -0.576402
    20  H   -0.112671  -0.001917  -0.012876   0.012390  -0.017120   0.450793
    21  C   -1.528993  -0.169488  -2.178119   0.129075  -0.168413   0.410928
    22  C   -0.781059   0.107644   2.074510  -0.049728   0.131043  -0.227987
    23  C   -0.069541  -0.003024   0.317910  -2.168618  -0.123050   0.046867
    24  H   -0.014505   0.000027  -0.098703  -0.022823  -0.008091   0.004233
    25  C    0.289239   0.003521   0.369949  -1.601714   0.046406  -0.016017
    26  H   -0.107582  -0.000094  -0.054505   0.006123  -0.008949   0.005693
    27  C   -0.045835  -0.006394  -0.016391   0.030705  -0.454169  -0.370168
    28  H    0.004606   0.000414   0.000553  -0.002101  -0.097102   0.024645
    29  H    0.007369  -0.000934   0.000216  -0.000664   0.003891  -0.063476
    30  C    0.022364  -0.013790   0.094334  -0.063498   0.018209  -0.037566
    31  H    0.062866  -0.000669  -0.016628   0.013251  -0.008314   0.026011
    32  C    0.020106  -0.000641   0.357804  -0.091917  -0.020185   0.045042
    33  H    0.091226  -0.001508  -0.069070   0.004359   0.007986  -0.009261
    34  C   -0.041673   0.000308  -0.197771  -0.108783  -0.012153  -0.000499
    35  H    0.004522  -0.000058   0.015460   0.020725   0.000219   0.000368
    36  H    0.008862  -0.000014   0.010076   0.007216   0.000597  -0.000116
    37  H   -0.000285   0.000180  -0.000593   0.000804   0.010882  -0.022301
    38  C   -0.306818   0.003019  -0.081904   0.055559   0.005461  -0.020965
    39  H    0.002796  -0.000906   0.005296  -0.001240  -0.000387   0.002072
    40  H    0.001183   0.000033   0.009096  -0.004411  -0.000329   0.000772
    41  H   -0.000398  -0.000001  -0.007998   0.028435  -0.000213   0.000031
    42  H   -0.008002   0.000213  -0.005279   0.001388   0.000136  -0.000546
              13         14         15         16         17         18
     1  C   -0.512482   0.095870   0.700790  -0.729275  -0.225483   0.004647
     2  C   -1.679973  -0.000186   2.051559  -2.179331   0.317394   0.009005
     3  C   -2.445598   0.066112  -0.210346   0.166387   0.280245  -0.091853
     4  C   -0.126977  -0.069190   0.054320  -1.513599   0.238067  -0.027454
     5  H   -0.037496  -0.001751  -0.119137   0.040223   0.040084  -0.026523
     6  C    1.378513  -0.020802   0.311067  -0.007319  -2.146119  -0.031219
     7  C    0.024988  -0.042404  -0.964256   1.454188   0.012136  -0.008757
     8  H    0.048238  -0.003457  -0.004459   0.003867   0.023473  -0.002635
     9  C   -2.355924   0.324385  -2.993421   2.678238   0.070935  -0.016861
    10  C    1.320923   0.049911  -0.376695  -1.486163   0.038358   0.036256
    11  C    0.143548  -0.010711  -0.413005   0.149815  -0.184825   0.570300
    12  C   -0.243428   0.011191   0.096693  -0.039078   0.023987  -0.065239
    13  C   14.954178   0.024588   0.156583  -0.055267  -0.021708   0.016297
    14  H    0.024588   0.497726   0.070250  -0.129766  -0.002948  -0.000080
    15  C    0.156583   0.070250  17.145306  -8.882533  -0.116098  -0.011814
    16  C   -0.055267  -0.129766  -8.882533  17.617194   0.041322   0.013715
    17  C   -0.021708  -0.002948  -0.116098   0.041322   8.212330  -0.079547
    18  H    0.016297  -0.000080  -0.011814   0.013715  -0.079547   0.508494
    19  C   -0.124365   0.003641   0.039397  -0.015779  -0.742657   0.001317
    20  H   -0.030228   0.000078  -0.008339   0.005593  -0.017125   0.001087
    21  C   -1.082588   0.082979   0.101669  -0.127479   0.005419  -0.002382
    22  C   -0.946553  -0.141794  -0.116092   0.207060   0.000947   0.002857
    23  C   -0.038488   0.023625  -0.931607   0.219911  -0.016154  -0.008998
    24  H    0.017783  -0.001792   0.611896  -0.080976  -0.007473   0.003416
    25  C   -0.125844  -0.016884   0.168266  -0.642360   0.003870   0.000070
    26  H   -0.004840   0.000505  -0.015760   0.426916  -0.000609   0.000159
    27  C    0.025207   0.000301  -0.014215   0.002065   0.438495   0.015676
    28  H   -0.001027  -0.000052   0.000351   0.000087   0.429708  -0.011997
    29  H   -0.001497  -0.000023   0.000408  -0.000087   0.012230  -0.000082
    30  C   -1.825698   0.010786  -0.021629   0.037191   0.006181  -0.000463
    31  H    0.028967  -0.002001   0.006688  -0.006304   0.001193  -0.000033
    32  C   -1.743111  -0.009984   0.007165  -0.028134  -0.001118  -0.000533
    33  H    0.004483  -0.002056  -0.006821   0.027505   0.000061   0.000368
    34  C    0.042412  -0.003984  -0.064695  -0.403547  -0.001291  -0.000733
    35  H   -0.001335   0.000401  -0.123156   0.026814   0.000016   0.000032
    36  H   -0.002900  -0.001088   0.001953  -0.076413   0.000034   0.000022
    37  H    0.000907  -0.000001  -0.000261   0.000070  -0.077430   0.000897
    38  C   -0.230961  -0.003124   0.008893  -0.022428  -0.000137   0.000167
    39  H    0.016536   0.000319  -0.000356   0.000605  -0.000028   0.000000
    40  H    0.022306  -0.000494  -0.000660   0.002120   0.000013  -0.000010
    41  H    0.001198   0.000220   0.020444  -0.013741  -0.000026   0.000031
    42  H    0.024384  -0.000017   0.000202  -0.000539  -0.000001   0.000004
              19         20         21         22         23         24
     1  C    0.143777   0.106761   1.834103  -1.191266   0.354213  -0.035481
     2  C    0.051482  -0.006688  -0.146563   0.138866   0.492273   0.002857
     3  C    0.080186  -0.036578   2.466296  -2.734477   0.102906  -0.025120
     4  C   -0.045113  -0.002956  -1.005699   1.708716  -0.112479   0.027617
     5  H   -0.008027  -0.003293  -0.005883   0.000003   0.026207  -0.023179
     6  C   -1.420215  -0.020519  -0.196829   0.183805   0.041611   0.035791
     7  C    0.150770  -0.112671  -1.528993  -0.781059  -0.069541  -0.014505
     8  H   -0.023710  -0.001917  -0.169488   0.107644  -0.003024   0.000027
     9  C    0.041545  -0.012876  -2.178119   2.074510   0.317910  -0.098703
    10  C   -0.068427   0.012390   0.129075  -0.049728  -2.168618  -0.022823
    11  C    0.295687  -0.017120  -0.168413   0.131043  -0.123050  -0.008091
    12  C   -0.576402   0.450793   0.410928  -0.227987   0.046867   0.004233
    13  C   -0.124365  -0.030228  -1.082588  -0.946553  -0.038488   0.017783
    14  H    0.003641   0.000078   0.082979  -0.141794   0.023625  -0.001792
    15  C    0.039397  -0.008339   0.101669  -0.116092  -0.931607   0.611896
    16  C   -0.015779   0.005593  -0.127479   0.207060   0.219911  -0.080976
    17  C   -0.742657  -0.017125   0.005419   0.000947  -0.016154  -0.007473
    18  H    0.001317   0.001087  -0.002382   0.002857  -0.008998   0.003416
    19  C    7.786610  -0.023395   0.020513  -0.008761   0.001622   0.000890
    20  H   -0.023395   0.524165   0.049237  -0.019136  -0.000619   0.000202
    21  C    0.020513   0.049237  16.196265  -8.078194  -0.001826   0.003983
    22  C   -0.008761  -0.019136  -8.078194  16.690946   0.010098  -0.003525
    23  C    0.001622  -0.000619  -0.001826   0.010098   8.523382  -0.111961
    24  H    0.000890   0.000202   0.003983  -0.003525  -0.111961   0.492184
    25  C    0.001000   0.000122  -0.004782   0.002474  -0.620494  -0.003415
    26  H    0.000076   0.000212  -0.006726   0.023185  -0.012945   0.001167
    27  C    0.422659   0.020408  -0.008072   0.002606  -0.000428  -0.001041
    28  H    0.005831  -0.000549   0.000333  -0.000114   0.000034  -0.000046
    29  H    0.408592  -0.011398   0.000625  -0.000054  -0.000001   0.000020
    30  C   -0.017699   0.005765  -0.164901  -0.302986  -0.000913  -0.000558
    31  H   -0.005693  -0.005235   0.436692  -0.007229   0.000078   0.000335
    32  C    0.005197   0.001993   0.059513  -0.551957   0.008093  -0.000903
    33  H   -0.001141  -0.000226  -0.039261   0.476768   0.000593  -0.000039
    34  C   -0.000389  -0.000057   0.003955  -0.012538   0.203435   0.025070
    35  H    0.000020   0.000013  -0.000098   0.000323   0.446753  -0.011819
    36  H    0.000003  -0.000003  -0.000321   0.001385   0.012519  -0.000148
    37  H   -0.060415   0.001112  -0.000423   0.000134  -0.000020   0.000022
    38  C   -0.003660  -0.000633  -0.338373  -0.009668  -0.000415   0.000279
    39  H    0.000659   0.000468  -0.086541  -0.003865   0.000021  -0.000014
    40  H    0.000031   0.000090   0.007340  -0.097267   0.000007  -0.000005
    41  H   -0.000009   0.000002   0.000150  -0.000474  -0.082891   0.001057
    42  H   -0.000115  -0.000084   0.001651   0.017755  -0.000005   0.000006
              25         26         27         28         29         30
     1  C   -0.113348   0.005399  -0.161138   0.004374  -0.003818   0.304050
     2  C   -0.011295  -0.000566  -0.059113  -0.002174  -0.000292   0.076277
     3  C    0.055664  -0.011859  -0.113926   0.012813   0.006213   0.518798
     4  C    0.112423   0.106835  -0.071039   0.005101   0.001662  -0.189786
     5  H    0.005258  -0.003270   0.011742   0.000437   0.000081   0.001701
     6  C   -0.090362   0.015734  -0.083771   0.012084   0.003859  -0.061839
     7  C    0.289239  -0.107582  -0.045835   0.004606   0.007369   0.022364
     8  H    0.003521  -0.000094  -0.006394   0.000414  -0.000934  -0.013790
     9  C    0.369949  -0.054505  -0.016391   0.000553   0.000216   0.094334
    10  C   -1.601714   0.006123   0.030705  -0.002101  -0.000664  -0.063498
    11  C    0.046406  -0.008949  -0.454169  -0.097102   0.003891   0.018209
    12  C   -0.016017   0.005693  -0.370168   0.024645  -0.063476  -0.037566
    13  C   -0.125844  -0.004840   0.025207  -0.001027  -0.001497  -1.825698
    14  H   -0.016884   0.000505   0.000301  -0.000052  -0.000023   0.010786
    15  C    0.168266  -0.015760  -0.014215   0.000351   0.000408  -0.021629
    16  C   -0.642360   0.426916   0.002065   0.000087  -0.000087   0.037191
    17  C    0.003870  -0.000609   0.438495   0.429708   0.012230   0.006181
    18  H    0.000070   0.000159   0.015676  -0.011997  -0.000082  -0.000463
    19  C    0.001000   0.000076   0.422659   0.005831   0.408592  -0.017699
    20  H    0.000122   0.000212   0.020408  -0.000549  -0.011398   0.005765
    21  C   -0.004782  -0.006726  -0.008072   0.000333   0.000625  -0.164901
    22  C    0.002474   0.023185   0.002606  -0.000114  -0.000054  -0.302986
    23  C   -0.620494  -0.012945  -0.000428   0.000034  -0.000001  -0.000913
    24  H   -0.003415   0.001167  -0.001041  -0.000046   0.000020  -0.000558
    25  C    7.829503  -0.053965  -0.000469   0.000044   0.000004   0.006469
    26  H   -0.053965   0.496659  -0.000079   0.000022  -0.000003   0.000867
    27  C   -0.000469  -0.000079   6.527711  -0.072613  -0.055836  -0.004486
    28  H    0.000044   0.000022  -0.072613   0.476318   0.001162   0.000030
    29  H    0.000004  -0.000003  -0.055836   0.001162   0.473321   0.000404
    30  C    0.006469   0.000867  -0.004486   0.000030   0.000404   7.784101
    31  H   -0.001190  -0.000036  -0.000426   0.000038   0.000370  -0.078138
    32  C   -0.023424   0.001778   0.000332   0.000011  -0.000074  -0.411239
    33  H   -0.003992  -0.004848   0.000149  -0.000016   0.000005  -0.018232
    34  C    0.376668   0.014431  -0.000024   0.000047   0.000003  -0.000141
    35  H    0.007148  -0.000499   0.000056  -0.000011  -0.000001   0.000022
    36  H    0.418538  -0.010064   0.000003  -0.000002  -0.000000  -0.000021
    37  H   -0.000011   0.000001   0.466906  -0.010834  -0.010528  -0.000111
    38  C   -0.004481  -0.000581  -0.000171   0.000000   0.000069   0.337659
    39  H    0.000031   0.000057   0.000051  -0.000001  -0.000030   0.427278
    40  H    0.000586   0.000436   0.000001   0.000000  -0.000002   0.018132
    41  H   -0.065318   0.001340   0.000002  -0.000000  -0.000000  -0.000001
    42  H   -0.000121  -0.000046  -0.000000  -0.000000   0.000001  -0.076409
              31         32         33         34         35         36
     1  C   -0.072544  -0.129319   0.008646  -0.065152   0.006401   0.000791
     2  C   -0.022454   0.076040  -0.019779  -0.099621   0.000021   0.000759
     3  C   -0.063151   0.215923  -0.020495  -0.034469   0.001327   0.000541
     4  C    0.013340   0.210200  -0.084308  -0.220134   0.004889  -0.004187
     5  H    0.000060   0.002258   0.000061   0.008161  -0.000244   0.000094
     6  C    0.003937  -0.064685   0.014048   0.037408  -0.002072  -0.001079
     7  C    0.062866   0.020106   0.091226  -0.041673   0.004522   0.008862
     8  H   -0.000669  -0.000641  -0.001508   0.000308  -0.000058  -0.000014
     9  C   -0.016628   0.357804  -0.069070  -0.197771   0.015460   0.010076
    10  C    0.013251  -0.091917   0.004359  -0.108783   0.020725   0.007216
    11  C   -0.008314  -0.020185   0.007986  -0.012153   0.000219   0.000597
    12  C    0.026011   0.045042  -0.009261  -0.000499   0.000368  -0.000116
    13  C    0.028967  -1.743111   0.004483   0.042412  -0.001335  -0.002900
    14  H   -0.002001  -0.009984  -0.002056  -0.003984   0.000401  -0.001088
    15  C    0.006688   0.007165  -0.006821  -0.064695  -0.123156   0.001953
    16  C   -0.006304  -0.028134   0.027505  -0.403547   0.026814  -0.076413
    17  C    0.001193  -0.001118   0.000061  -0.001291   0.000016   0.000034
    18  H   -0.000033  -0.000533   0.000368  -0.000733   0.000032   0.000022
    19  C   -0.005693   0.005197  -0.001141  -0.000389   0.000020   0.000003
    20  H   -0.005235   0.001993  -0.000226  -0.000057   0.000013  -0.000003
    21  C    0.436692   0.059513  -0.039261   0.003955  -0.000098  -0.000321
    22  C   -0.007229  -0.551957   0.476768  -0.012538   0.000323   0.001385
    23  C    0.000078   0.008093   0.000593   0.203435   0.446753   0.012519
    24  H    0.000335  -0.000903  -0.000039   0.025070  -0.011819  -0.000148
    25  C   -0.001190  -0.023424  -0.003992   0.376668   0.007148   0.418538
    26  H   -0.000036   0.001778  -0.004848   0.014431  -0.000499  -0.010064
    27  C   -0.000426   0.000332   0.000149  -0.000024   0.000056   0.000003
    28  H    0.000038   0.000011  -0.000016   0.000047  -0.000011  -0.000002
    29  H    0.000370  -0.000074   0.000005   0.000003  -0.000001  -0.000000
    30  C   -0.078138  -0.411239  -0.018232  -0.000141   0.000022  -0.000021
    31  H    0.495306  -0.015727   0.000849   0.000193  -0.000014  -0.000001
    32  C   -0.015727   7.853763  -0.069925  -0.005327   0.000054   0.000434
    33  H    0.000849  -0.069925   0.497662   0.000233   0.000031   0.000310
    34  C    0.000193  -0.005327   0.000233   6.630074  -0.079159  -0.056506
    35  H   -0.000014   0.000054   0.000031  -0.079159   0.475853   0.000971
    36  H   -0.000001   0.000434   0.000310  -0.056506   0.000971   0.472418
    37  H   -0.000024   0.000006   0.000004   0.000002   0.000000  -0.000000
    38  C    0.019873   0.290255   0.026963   0.000039  -0.000006   0.000049
    39  H   -0.012022   0.017554  -0.000747  -0.000003   0.000000  -0.000002
    40  H   -0.000649   0.426104  -0.012794   0.000028  -0.000001  -0.000027
    41  H    0.000004  -0.000124  -0.000018   0.465002  -0.010615  -0.010565
    42  H    0.001849  -0.083971   0.002236   0.000005  -0.000000   0.000000
              37         38         39         40         41         42
     1  C   -0.004096   0.005920   0.004389   0.000496   0.000457   0.000655
     2  C   -0.000581  -0.025366   0.000404   0.000550  -0.002168  -0.000794
     3  C   -0.005701  -0.152521   0.008303   0.006840  -0.000900  -0.007213
     4  C    0.000245   0.039452   0.000289   0.004286  -0.006644   0.001338
     5  H   -0.000194  -0.000719  -0.000003   0.000003  -0.000226  -0.000013
     6  C    0.029204   0.048101  -0.003840  -0.001247   0.000947   0.001265
     7  C   -0.000285  -0.306818   0.002796   0.001183  -0.000398  -0.008002
     8  H    0.000180   0.003019  -0.000906   0.000033  -0.000001   0.000213
     9  C   -0.000593  -0.081904   0.005296   0.009096  -0.007998  -0.005279
    10  C    0.000804   0.055559  -0.001240  -0.004411   0.028435   0.001388
    11  C    0.010882   0.005461  -0.000387  -0.000329  -0.000213   0.000136
    12  C   -0.022301  -0.020965   0.002072   0.000772   0.000031  -0.000546
    13  C    0.000907  -0.230961   0.016536   0.022306   0.001198   0.024384
    14  H   -0.000001  -0.003124   0.000319  -0.000494   0.000220  -0.000017
    15  C   -0.000261   0.008893  -0.000356  -0.000660   0.020444   0.000202
    16  C    0.000070  -0.022428   0.000605   0.002120  -0.013741  -0.000539
    17  C   -0.077430  -0.000137  -0.000028   0.000013  -0.000026  -0.000001
    18  H    0.000897   0.000167   0.000000  -0.000010   0.000031   0.000004
    19  C   -0.060415  -0.003660   0.000659   0.000031  -0.000009  -0.000115
    20  H    0.001112  -0.000633   0.000468   0.000090   0.000002  -0.000084
    21  C   -0.000423  -0.338373  -0.086541   0.007340   0.000150   0.001651
    22  C    0.000134  -0.009668  -0.003865  -0.097267  -0.000474   0.017755
    23  C   -0.000020  -0.000415   0.000021   0.000007  -0.082891  -0.000005
    24  H    0.000022   0.000279  -0.000014  -0.000005   0.001057   0.000006
    25  C   -0.000011  -0.004481   0.000031   0.000586  -0.065318  -0.000121
    26  H    0.000001  -0.000581   0.000057   0.000436   0.001340  -0.000046
    27  C    0.466906  -0.000171   0.000051   0.000001   0.000002  -0.000000
    28  H   -0.010834   0.000000  -0.000001   0.000000  -0.000000  -0.000000
    29  H   -0.010528   0.000069  -0.000030  -0.000002  -0.000000   0.000001
    30  C   -0.000111   0.337659   0.427278   0.018132  -0.000001  -0.076409
    31  H   -0.000024   0.019873  -0.012022  -0.000649   0.000004   0.001849
    32  C    0.000006   0.290255   0.017554   0.426104  -0.000124  -0.083971
    33  H    0.000004   0.026963  -0.000747  -0.012794  -0.000018   0.002236
    34  C    0.000002   0.000039  -0.000003   0.000028   0.465002   0.000005
    35  H    0.000000  -0.000006   0.000000  -0.000001  -0.010615  -0.000000
    36  H   -0.000000   0.000049  -0.000002  -0.000027  -0.010565   0.000000
    37  H    0.487372  -0.000000   0.000000  -0.000000   0.000000   0.000000
    38  C   -0.000000   6.479868  -0.065541  -0.072460   0.000004   0.470735
    39  H    0.000000  -0.065541   0.475717   0.001318  -0.000000  -0.011865
    40  H   -0.000000  -0.072460   0.001318   0.475977  -0.000000  -0.012493
    41  H    0.000000   0.000004  -0.000000  -0.000000   0.486113   0.000000
    42  H    0.000000   0.470735  -0.011865  -0.012493   0.000000   0.488089
 Mulliken charges:
               1
     1  C    0.914389
     2  C   -0.951294
     3  C   -1.582993
     4  C    0.983525
     5  H    0.087937
     6  C    1.481282
     7  C    0.978419
     8  H    0.185943
     9  C   -1.592299
    10  C    1.297482
    11  C   -0.318609
    12  C   -0.666615
    13  C    1.386247
    14  H    0.201703
    15  C   -0.158543
    16  C   -0.680768
    17  C   -0.555721
    18  H    0.202398
    19  C   -0.315535
    20  H    0.151152
    21  C   -0.468774
    22  C   -0.496400
    23  C   -0.527681
    24  H    0.222783
    25  C   -0.297766
    26  H    0.190231
    27  C   -0.425273
    28  H    0.219595
    29  H    0.228295
    30  C   -0.380514
    31  H    0.206582
    32  C   -0.347326
    33  H    0.199993
    34  C   -0.398825
    35  H    0.216648
    36  H    0.225880
    37  H    0.195061
    38  C   -0.451435
    39  H    0.223230
    40  H    0.225100
    41  H    0.196892
    42  H    0.195602
 Sum of Mulliken charges =  -0.00000
 Mulliken charges with hydrogens summed into heavy atoms:
               1
     1  C    0.914389
     2  C   -0.863357
     3  C   -1.397050
     4  C    0.983525
     6  C    1.481282
     7  C    0.978419
     9  C   -1.390596
    10  C    1.297482
    11  C   -0.116210
    12  C   -0.515463
    13  C    1.386247
    15  C    0.064240
    16  C   -0.490536
    17  C   -0.336126
    19  C   -0.087240
    21  C   -0.262192
    22  C   -0.296407
    23  C   -0.311034
    25  C   -0.071886
    27  C   -0.230212
    30  C   -0.157284
    32  C   -0.122226
    34  C   -0.201933
    38  C   -0.255832
 Electronic spatial extent (au):  <R**2>=          10005.7556
 Charge=             -0.0000 electrons
 Dipole moment (field-independent basis, Debye):
    X=             -0.0109    Y=              0.0022    Z=              0.0011  Tot=              0.0112
 Quadrupole moment (field-independent basis, Debye-Ang):
   XX=           -125.4468   YY=           -126.2451   ZZ=           -142.4612
   XY=              0.0569   XZ=              4.2122   YZ=              5.6865
 Traceless Quadrupole moment (field-independent basis, Debye-Ang):
   XX=              5.9375   YY=              5.1393   ZZ=            -11.0768
   XY=              0.0569   XZ=              4.2122   YZ=              5.6865
 Octapole moment (field-independent basis, Debye-Ang**2):
  XXX=            -10.5496  YYY=             31.9554  ZZZ=              0.5265  XYY=             13.7366
  XXY=            -29.3779  XXZ=             36.4926  XZZ=             -3.0206  YZZ=             -2.7028
  YYZ=            -37.0042  XYZ=              8.4985
 Hexadecapole moment (field-independent basis, Debye-Ang**3):
 XXXX=          -6292.8685 YYYY=          -6259.5962 ZZZZ=           -501.9127 XXXY=             12.0722
 XXXZ=             20.2880 YYYX=              1.1073 YYYZ=             71.0702 ZZZX=              8.7187
 ZZZY=             19.7726 XXYY=          -2066.1627 XXZZ=          -1227.4581 YYZZ=          -1247.0402
 XXYZ=             54.4089 YYXZ=             78.6027 ZZXY=            -11.1441
 N-N= 1.733094142242D+03 E-N=-5.612583926126D+03  KE= 9.212992796469D+02
 No NMR shielding tensors so no spin-rotation constants.
 Leave Link  601 at Mon Nov 14 15:09:24 2022, MaxMem= 16106127360 cpu:               9.5 elap:               0.4
 (Enter /opt/ap/G16/B01/g16/l9999.exe)
 1\1\GINC-N62\SP\RwB97XD\6-311++G(d,p)\C24H18\ROOT\14-Nov-2022\0\\#P wB
 97XD/6-311++G(d,p) scf=maxcycle=512\\_conf011.gjf nmol_natom 1_42\\0,1
 \C\C,1,1.39412829\C,1,1.39435449,2,118.86443127\C,2,1.39416084,1,121.1
 529487,3,0.03668482,0\H,2,1.08488355,1,119.42236619,3,-179.97409048,0\
 C,1,1.48467131,2,120.55714816,4,179.25839056,0\C,3,1.39437784,1,121.11
 776116,2,-0.05351271,0\H,3,1.08487775,1,119.41869036,2,177.23008049,0\
 C,4,1.39432447,2,118.86473838,1,0.01008406,0\C,4,1.48466627,2,120.5464
 188,1,179.19454736,0\C,6,1.3968498,1,120.7843492,2,-35.,0\C,6,1.396868
 2,1,120.67653841,2,145.,0\C,7,1.48449863,3,120.56496838,1,-179.9632580
 4,0\H,9,1.0848792,4,119.41824946,2,177.22245984,0\C,10,1.39685361,4,12
 0.76946845,2,-42.52368674,0\C,10,1.39686289,4,120.69448769,2,137.43107
 516,0\C,11,1.38888939,6,120.7380073,1,179.94058542,0\H,11,1.0847641,6,
 119.46912378,1,-1.41050605,0\C,12,1.38882428,6,120.76493111,1,-179.950
 82712,0\H,12,1.08482758,6,119.44182626,1,-1.23602505,0\C,13,1.39682899
 ,7,120.74134419,3,42.89023273,0\C,13,1.39683158,7,120.7379111,3,-137.1
 2494058,0\C,15,1.38888263,10,120.742191,4,179.9460119,0\H,15,1.0847633
 4,10,119.47085903,4,-1.40606944,0\C,16,1.38886088,10,120.76338989,4,-1
 79.95592713,0\H,16,1.08483431,10,119.44215232,4,-1.23439681,0\C,17,1.3
 9007919,11,120.20743432,6,0.00349958,0\H,17,1.0843506,11,119.71318733,
 6,179.5011609,0\H,19,1.08435858,12,119.73823132,6,179.53683762,0\C,21,
 1.38882373,13,120.76699356,7,179.99297883,0\H,21,1.0847938,13,119.4352
 623,7,1.32183327,0\C,22,1.38881869,13,120.76647403,7,-179.97118338,0\H
 ,22,1.08479982,13,119.43203605,7,1.34657928,0\C,23,1.39007007,15,120.2
 0732995,10,0.00573957,0\H,23,1.08434813,15,119.71220819,10,179.5072436
 8,0\H,25,1.08436328,16,119.73539424,10,179.53636455,0\H,27,1.08412515,
 17,120.21790854,11,179.98397203,0\C,30,1.39008059,21,120.18795226,13,-
 0.02169059,0\H,30,1.08435324,21,119.73787119,13,-179.52151214,0\H,32,1
 .0843543,22,119.737043,13,-179.52886928,0\H,34,1.08412314,23,120.22152
 803,15,179.98800213,0\H,38,1.08411439,30,120.21547163,21,-179.98600656
 ,0\\Version=ES64L-G16RevB.01\State=1-A\HF=-925.3116283\RMSD=8.024e-09\
 Dipole=-0.0024506,0.0003844,0.0036476\Quadrupole=3.7879447,-7.8801794,
 4.0922347,-2.8717923,-0.3382519,-4.8661297\PG=C01 [X(C24H18)]\\@


 AN AIRPLANE IS A COLLECTION OF SPARE PARTS
 FLYING IN CLOSE FORMATION.
 Job cpu time:       0 days  1 hours 17 minutes 51.2 seconds.
 Elapsed time:       0 days  0 hours  2 minutes 26.6 seconds.
 File lengths (MBytes):  RWF=    224 Int=      0 D2E=      0 Chk=     26 Scr=      1
 Normal termination of Gaussian 16 at Mon Nov 14 15:09:24 2022.
