 Entering Gaussian System, Link 0=g16
 Input=_conf028.gjf
 Output=_conf028.log
 Initial command:
 /opt/ap/G16/B01/g16/l1.exe "/tmp2/scr/Gau-22314.inp" -scrdir="/tmp2/scr/"
 Entering Link 1 = /opt/ap/G16/B01/g16/l1.exe PID=     22315.
  
 Copyright (c) 1988-2017, Gaussian, Inc.  All Rights Reserved.
  
 This is part of the Gaussian(R) 16 program.  It is based on
 the Gaussian(R) 09 system (copyright 2009, Gaussian, Inc.),
 the Gaussian(R) 03 system (copyright 2003, Gaussian, Inc.),
 the Gaussian(R) 98 system (copyright 1998, Gaussian, Inc.),
 the Gaussian(R) 94 system (copyright 1995, Gaussian, Inc.),
 the Gaussian 92(TM) system (copyright 1992, Gaussian, Inc.),
 the Gaussian 90(TM) system (copyright 1990, Gaussian, Inc.),
 the Gaussian 88(TM) system (copyright 1988, Gaussian, Inc.),
 the Gaussian 86(TM) system (copyright 1986, Carnegie Mellon
 University), and the Gaussian 82(TM) system (copyright 1983,
 Carnegie Mellon University). Gaussian is a federally registered
 trademark of Gaussian, Inc.
  
 This software contains proprietary and confidential information,
 including trade secrets, belonging to Gaussian, Inc.
  
 This software is provided under written license and may be
 used, copied, transmitted, or stored only in accord with that
 written license.
  
 The following legend is applicable only to US Government
 contracts under FAR:
  
                    RESTRICTED RIGHTS LEGEND
  
 Use, reproduction and disclosure by the US Government is
 subject to restrictions as set forth in subparagraphs (a)
 and (c) of the Commercial Computer Software - Restricted
 Rights clause in FAR 52.227-19.
  
 Gaussian, Inc.
 340 Quinnipiac St., Bldg. 40, Wallingford CT 06492
  
  
 ---------------------------------------------------------------
 Warning -- This program may not be used in any manner that
 competes with the business of Gaussian, Inc. or will provide
 assistance to any competitor of Gaussian, Inc.  The licensee
 of this program is prohibited from giving any competitor of
 Gaussian, Inc. access to this program.  By using this program,
 the user acknowledges that Gaussian, Inc. is engaged in the
 business of creating and licensing software in the field of
 computational chemistry and represents and warrants to the
 licensee that it is not a competitor of Gaussian, Inc. and that
 it will not use this program in any manner prohibited above.
 ---------------------------------------------------------------
  

 Cite this work as:
 Gaussian 16, Revision B.01,
 M. J. Frisch, G. W. Trucks, H. B. Schlegel, G. E. Scuseria, 
 M. A. Robb, J. R. Cheeseman, G. Scalmani, V. Barone, 
 G. A. Petersson, H. Nakatsuji, X. Li, M. Caricato, A. V. Marenich, 
 J. Bloino, B. G. Janesko, R. Gomperts, B. Mennucci, H. P. Hratchian, 
 J. V. Ortiz, A. F. Izmaylov, J. L. Sonnenberg, D. Williams-Young, 
 F. Ding, F. Lipparini, F. Egidi, J. Goings, B. Peng, A. Petrone, 
 T. Henderson, D. Ranasinghe, V. G. Zakrzewski, J. Gao, N. Rega, 
 G. Zheng, W. Liang, M. Hada, M. Ehara, K. Toyota, R. Fukuda, 
 J. Hasegawa, M. Ishida, T. Nakajima, Y. Honda, O. Kitao, H. Nakai, 
 T. Vreven, K. Throssell, J. A. Montgomery, Jr., J. E. Peralta, 
 F. Ogliaro, M. J. Bearpark, J. J. Heyd, E. N. Brothers, K. N. Kudin, 
 V. N. Staroverov, T. A. Keith, R. Kobayashi, J. Normand, 
 K. Raghavachari, A. P. Rendell, J. C. Burant, S. S. Iyengar, 
 J. Tomasi, M. Cossi, J. M. Millam, M. Klene, C. Adamo, R. Cammi, 
 J. W. Ochterski, R. L. Martin, K. Morokuma, O. Farkas, 
 J. B. Foresman, and D. J. Fox, Gaussian, Inc., Wallingford CT, 2016.
 
 ******************************************
 Gaussian 16:  ES64L-G16RevB.01 20-Dec-2017
                14-Nov-2022 
 ******************************************
 %nprocshared=32
 Will use up to   32 processors via shared memory.
 %mem=120GB
 %chk=_conf028.chk
 ----------------------------------------
 #P wB97XD/6-311++G(d,p) scf=maxcycle=512
 ----------------------------------------
 1/38=1,172=1/1;
 2/12=2,17=6,18=5,40=1/2;
 3/5=4,6=6,7=1111,11=2,25=1,30=1,74=-58/1,2,3;
 4//1;
 5/5=2,7=512,38=5/2;
 6/7=2,8=2,9=2,10=2,28=1/1;
 99/5=1,9=1/99;
 Leave Link    1 at Mon Nov 14 15:19:29 2022, MaxMem= 16106127360 cpu:               1.8 elap:               0.1
 (Enter /opt/ap/G16/B01/g16/l101.exe)
 ----------------------------
 _conf028.gjf nmol_natom 1_42
 ----------------------------
 Symbolic Z-matrix:
 Charge =  0 Multiplicity = 1
 C
 C                    1     1.39413 
 C                    1     1.39435  2     118.86443 
 C                    2     1.39416  1     121.15295  3     0.03668  0
 H                    2     1.08488  1     119.42237  3    -179.97409  0
 C                    1     1.48467  2     120.55715  4     179.25839  0
 C                    3     1.39438  1     121.11776  2    -0.05351  0
 H                    3     1.08488  1     119.41869  2     177.23008  0
 C                    4     1.39432  2     118.86474  1     0.01008  0
 C                    4     1.48467  2     120.54642  1     179.19455  0
 C                    6     1.39685  1     120.78435  2     50.      0
 C                    6     1.39687  1     120.67654  2    -130.     0
 C                    7     1.4845   3     120.56497  1    -179.96326  0
 H                    9     1.08488  4     119.41825  2     177.22246  0
 C                    10    1.39685  4     120.76947  2    -42.52369  0
 C                    10    1.39686  4     120.69449  2     137.43108  0
 C                    11    1.38889  6     120.73801  1     179.94059  0
 H                    11    1.08476  6     119.46912  1    -1.41051  0
 C                    12    1.38882  6     120.76493  1    -179.95083  0
 H                    12    1.08483  6     119.44183  1    -1.23603  0
 C                    13    1.39683  7     120.74134  3     42.89023  0
 C                    13    1.39683  7     120.73791  3    -137.12494  0
 C                    15    1.38888  10    120.74219  4     179.94601  0
 H                    15    1.08476  10    119.47086  4    -1.40607  0
 C                    16    1.38886  10    120.76339  4    -179.95593  0
 H                    16    1.08483  10    119.44215  4    -1.2344   0
 C                    17    1.39008  11    120.20743  6     0.0035   0
 H                    17    1.08435  11    119.71319  6     179.50116  0
 H                    19    1.08436  12    119.73823  6     179.53684  0
 C                    21    1.38882  13    120.76699  7     179.99298  0
 H                    21    1.08479  13    119.43526  7     1.32183  0
 C                    22    1.38882  13    120.76647  7    -179.97118  0
 H                    22    1.0848   13    119.43204  7     1.34658  0
 C                    23    1.39007  15    120.20733  10    0.00574  0
 H                    23    1.08435  15    119.71221  10    179.50724  0
 H                    25    1.08436  16    119.73539  10    179.53636  0
 H                    27    1.08413  17    120.21791  11    179.98397  0
 C                    30    1.39008  21    120.18795  13   -0.02169  0
 H                    30    1.08435  21    119.73787  13   -179.52151  0
 H                    32    1.08435  22    119.73704  13   -179.52887  0
 H                    34    1.08412  23    120.22153  15    179.988  0
 H                    38    1.08411  30    120.21547  21   -179.98601  0
 
 ITRead=  0  0  0  0  0  0  0  0  0  0  0  0  0  0  0  0  0  0  0  0
 ITRead=  0  0  0  0  0  0  0  0  0  0  0  0  0  0  0  0  0  0  0  0
 ITRead=  0  0
 MicOpt= -1 -1 -1 -1 -1 -1 -1 -1 -1 -1 -1 -1 -1 -1 -1 -1 -1 -1 -1 -1
 MicOpt= -1 -1 -1 -1 -1 -1 -1 -1 -1 -1 -1 -1 -1 -1 -1 -1 -1 -1 -1 -1
 MicOpt= -1 -1
 NAtoms=     42 NQM=       42 NQMF=       0 NMMI=      0 NMMIF=      0
                NMic=       0 NMicF=      0.
                    Isotopes and Nuclear Properties:
 (Nuclear quadrupole moments (NQMom) in fm**2, nuclear magnetic moments (NMagM)
  in nuclear magnetons)

  Atom         1           2           3           4           5           6           7           8           9          10
 IAtWgt=          12          12          12          12           1          12          12           1          12          12
 AtmWgt=  12.0000000  12.0000000  12.0000000  12.0000000   1.0078250  12.0000000  12.0000000   1.0078250  12.0000000  12.0000000
 NucSpn=           0           0           0           0           1           0           0           1           0           0
 AtZEff=  -0.0000000  -0.0000000  -0.0000000  -0.0000000  -0.0000000  -0.0000000  -0.0000000  -0.0000000  -0.0000000  -0.0000000
 NQMom=    0.0000000   0.0000000   0.0000000   0.0000000   0.0000000   0.0000000   0.0000000   0.0000000   0.0000000   0.0000000
 NMagM=    0.0000000   0.0000000   0.0000000   0.0000000   2.7928460   0.0000000   0.0000000   2.7928460   0.0000000   0.0000000
 AtZNuc=   6.0000000   6.0000000   6.0000000   6.0000000   1.0000000   6.0000000   6.0000000   1.0000000   6.0000000   6.0000000

  Atom        11          12          13          14          15          16          17          18          19          20
 IAtWgt=          12          12          12           1          12          12          12           1          12           1
 AtmWgt=  12.0000000  12.0000000  12.0000000   1.0078250  12.0000000  12.0000000  12.0000000   1.0078250  12.0000000   1.0078250
 NucSpn=           0           0           0           1           0           0           0           1           0           1
 AtZEff=  -0.0000000  -0.0000000  -0.0000000  -0.0000000  -0.0000000  -0.0000000  -0.0000000  -0.0000000  -0.0000000  -0.0000000
 NQMom=    0.0000000   0.0000000   0.0000000   0.0000000   0.0000000   0.0000000   0.0000000   0.0000000   0.0000000   0.0000000
 NMagM=    0.0000000   0.0000000   0.0000000   2.7928460   0.0000000   0.0000000   0.0000000   2.7928460   0.0000000   2.7928460
 AtZNuc=   6.0000000   6.0000000   6.0000000   1.0000000   6.0000000   6.0000000   6.0000000   1.0000000   6.0000000   1.0000000

  Atom        21          22          23          24          25          26          27          28          29          30
 IAtWgt=          12          12          12           1          12           1          12           1           1          12
 AtmWgt=  12.0000000  12.0000000  12.0000000   1.0078250  12.0000000   1.0078250  12.0000000   1.0078250   1.0078250  12.0000000
 NucSpn=           0           0           0           1           0           1           0           1           1           0
 AtZEff=  -0.0000000  -0.0000000  -0.0000000  -0.0000000  -0.0000000  -0.0000000  -0.0000000  -0.0000000  -0.0000000  -0.0000000
 NQMom=    0.0000000   0.0000000   0.0000000   0.0000000   0.0000000   0.0000000   0.0000000   0.0000000   0.0000000   0.0000000
 NMagM=    0.0000000   0.0000000   0.0000000   2.7928460   0.0000000   2.7928460   0.0000000   2.7928460   2.7928460   0.0000000
 AtZNuc=   6.0000000   6.0000000   6.0000000   1.0000000   6.0000000   1.0000000   6.0000000   1.0000000   1.0000000   6.0000000

  Atom        31          32          33          34          35          36          37          38          39          40
 IAtWgt=           1          12           1          12           1           1           1          12           1           1
 AtmWgt=   1.0078250  12.0000000   1.0078250  12.0000000   1.0078250   1.0078250   1.0078250  12.0000000   1.0078250   1.0078250
 NucSpn=           1           0           1           0           1           1           1           0           1           1
 AtZEff=  -0.0000000  -0.0000000  -0.0000000  -0.0000000  -0.0000000  -0.0000000  -0.0000000  -0.0000000  -0.0000000  -0.0000000
 NQMom=    0.0000000   0.0000000   0.0000000   0.0000000   0.0000000   0.0000000   0.0000000   0.0000000   0.0000000   0.0000000
 NMagM=    2.7928460   0.0000000   2.7928460   0.0000000   2.7928460   2.7928460   2.7928460   0.0000000   2.7928460   2.7928460
 AtZNuc=   1.0000000   6.0000000   1.0000000   6.0000000   1.0000000   1.0000000   1.0000000   6.0000000   1.0000000   1.0000000

  Atom        41          42
 IAtWgt=           1           1
 AtmWgt=   1.0078250   1.0078250
 NucSpn=           1           1
 AtZEff=  -0.0000000  -0.0000000
 NQMom=    0.0000000   0.0000000
 NMagM=    2.7928460   2.7928460
 AtZNuc=   1.0000000   1.0000000
 Leave Link  101 at Mon Nov 14 15:19:30 2022, MaxMem= 16106127360 cpu:               5.5 elap:               0.2
 (Enter /opt/ap/G16/B01/g16/l202.exe)
                          Input orientation:                          
 ---------------------------------------------------------------------
 Center     Atomic      Atomic             Coordinates (Angstroms)
 Number     Number       Type             X           Y           Z
 ---------------------------------------------------------------------
      1          6           0        0.000000    0.000000    0.000000
      2          6           0        0.000000    0.000000    1.394128
      3          6           0        1.221126    0.000000   -0.673109
      4          6           0        1.193108    0.000764    2.115362
      5          1           0       -0.944957   -0.000427    1.927071
      6          6           0       -1.278366   -0.017366   -0.754803
      7          6           0        2.428476    0.001115    0.024455
      8          1           0        1.232154   -0.045667   -1.756969
      9          6           0        2.400843    0.001752    1.418572
     10          6           0        1.177445    0.018728    3.599837
     11          6           0       -2.298554    0.888139   -0.454025
     12          6           0       -1.486935   -0.940604   -1.782116
     13          6           0        3.721572    0.001921   -0.704680
     14          1           0        3.334061    0.048144    1.969857
     15          6           0        0.290794    0.844275    4.295193
     16          6           0        2.049080   -0.790881    4.331965
     17          6           0       -3.493596    0.871840   -1.161571
     18          1           0       -2.161686    1.596487    0.356051
     19          6           0       -2.681658   -0.957817   -2.490051
     20          1           0       -0.696867   -1.637298   -2.041462
     21          6           0        3.910862    0.818865   -1.821777
     22          6           0        4.776237   -0.814044   -0.288725
     23          6           0        0.275860    0.859807    5.683909
     24          1           0       -0.377402    1.495584    3.742000
     25          6           0        2.035025   -0.775886    5.720674
     26          1           0        2.729408   -1.453102    3.807101
     27          6           0       -3.689280   -0.050838   -2.182695
     28          1           0       -4.277546    1.577052   -0.908758
     29          1           0       -2.822922   -1.676803   -3.289387
     30          6           0        5.120444    0.820149   -2.504230
     31          1           0        3.109266    1.474569   -2.144691
     32          6           0        5.986440   -0.813321   -0.970068
     33          1           0        4.638168   -1.470412    0.563864
     34          6           0        1.147946    0.049642    6.401818
     35          1           0       -0.413890    1.513063    6.206701
     36          1           0        2.713797   -1.416787    6.272362
     37          1           0       -4.622127   -0.063881   -2.734921
     38          6           0        6.162883    0.003944   -2.080611
     39          1           0        5.251831    1.466740   -3.364741
     40          1           0        6.791448   -1.459089   -0.637249
     41          1           0        1.136620    0.061726    7.485815
     42          1           0        7.107346    0.004761   -2.612865
 ---------------------------------------------------------------------
                    Distance matrix (angstroms):
                    1          2          3          4          5
     1  C    0.000000
     2  C    1.394128   0.000000
     3  C    1.394354   2.400962   0.000000
     4  C    2.428634   1.394161   2.788612   0.000000
     5  H    2.146287   1.084884   3.384206   2.146341   0.000000
     6  C    1.484671   2.500485   2.500887   3.787659   2.702572
     7  C    2.428599   2.788100   1.394378   2.428585   3.872983
     8  H    2.146445   3.383741   1.084878   3.872806   4.279487
     9  C    2.788619   2.400968   2.401430   1.394324   3.384222
    10  C    3.787552   2.500376   4.273210   1.484666   2.702426
    11  C    2.505649   3.080229   3.636610   4.425029   2.879477
    12  C    2.504326   3.631011   3.073797   4.822773   3.864678
    13  C    3.787700   4.272598   2.500646   3.787581   5.357482
    14  H    3.872805   3.383747   3.384092   2.146415   4.279508
    15  C    4.387032   3.035381   5.124680   2.505463   2.801537
    16  C    4.856969   3.668120   5.134371   2.504540   3.920790
    17  C    3.783460   4.415532   4.819472   5.784657   4.098307
    18  H    2.710799   2.880844   3.879608   4.110493   2.549248
    19  C    3.782732   4.816177   4.410263   6.094466   4.841869
    20  H    2.708124   3.869063   2.869117   4.851230   4.300017
    21  C    4.391384   5.129076   3.037212   4.853507   6.189029
    22  C    4.853707   5.129045   3.667320   4.391169   6.189006
    23  C    5.755188   4.383786   6.484171   3.783362   4.042800
    24  H    4.047440   2.809218   4.928007   2.710524   2.419532
    25  C    6.121229   4.843792   6.491910   3.782894   4.886007
    26  H    4.904609   3.922195   4.945574   2.708491   4.375585
    27  C    4.286902   5.138777   5.137462   6.504895   4.942066
    28  H    4.648692   5.107620   5.725209   6.446553   4.651507
    29  H    4.647647   5.719779   5.100089   6.939311   5.792099
    30  C    5.758711   6.487587   4.385239   6.118495   7.556379
    31  H    4.054822   4.936104   2.811579   4.898143   5.932249
    32  C    6.118822   6.487555   4.843334   5.758354   7.556353
    33  H    4.898230   4.935996   3.920254   4.054620   5.932156
    34  C    6.504116   5.137821   7.075480   4.286973   4.940255
    35  H    6.401859   5.061770   7.231488   4.648499   4.570330
    36  H    6.979577   5.759266   7.243957   4.647859   5.854410
    37  H    5.371027   6.198160   6.196673   7.572739   5.937993
    38  C    6.504621   7.074953   5.138292   6.504219   8.159837
    39  H    6.407382   7.237395   5.063871   6.975231   8.279857
    40  H    6.975586   7.237348   5.758361   6.406985   8.279819
    41  H    7.571865   6.197125   8.159595   5.371096   5.936031
    42  H    7.572414   8.159067   6.197601   7.571945   9.243951
                    6          7          8          9         10
     6  C    0.000000
     7  C    3.787910   0.000000
     8  H    2.703303   2.146356   0.000000
     9  C    4.273231   1.394392   3.384102   0.000000
    10  C    4.999520   3.787973   5.357472   2.500981   0.000000
    11  C    1.396850   4.833276   3.877570   5.135819   5.410383
    12  C    1.396868   4.413726   2.862689   5.123208   6.081501
    13  C    5.000226   1.484499   2.703105   2.500505   5.000173
    14  H    5.357476   2.146366   4.279725   1.084879   2.703459
    15  C    5.357906   4.849723   6.189251   3.665665   1.396854
    16  C    6.127433   4.396117   6.188524   3.039714   1.396863
    17  C    2.421445   6.102111   4.850673   6.492966   6.724391
    18  H    2.149133   4.870806   4.321999   4.948616   4.915411
    19  C    2.421728   5.775445   4.085016   6.483050   7.275511
    20  H    2.148909   4.089031   2.517011   4.924848   6.170877
    21  C    5.363376   2.504946   2.815510   3.667109   6.124188
    22  C    6.124553   2.504906   3.912375   3.036921   5.363369
    23  C    6.681472   6.115597   7.556523   4.841994   2.421492
    24  H    4.829285   4.891475   5.933362   3.917716   2.149154
    25  C    7.313393   5.762417   7.555989   4.387097   2.421736
    26  H    6.239756   4.063707   5.931401   2.815959   2.148914
    27  C    2.802231   6.503932   4.939815   7.075414   7.558275
    28  H    3.400141   6.951633   5.805986   7.245614   7.246567
    29  H    3.400515   6.432273   4.631690   7.229810   8.144886
    30  C    6.686306   3.783088   4.053003   4.842972   7.310892
    31  H    4.838282   2.709194   2.446425   3.920191   6.233057
    32  C    7.311449   3.783053   4.879728   4.384797   6.686012
    33  H    6.233426   2.709077   4.360860   2.811302   4.838519
    34  C    7.557031   6.504835   8.159779   5.138559   2.802307
    35  H    7.179977   6.970308   8.280044   5.756123   3.400165
    36  H    8.202243   6.413127   8.279214   5.066504   3.400510
    37  H    3.886356   7.571616   5.935429   8.159529   8.589005
    38  C    7.558466   4.286853   4.941589   5.137824   7.557929
    39  H    7.187337   4.648230   4.585860   5.757987   8.197725
    40  H    8.198432   4.648180   5.844424   5.063385   7.187062
    41  H    8.587561   7.572613   9.243902   6.197846   3.886431
    42  H    8.589123   5.370968   5.937422   6.197069   8.588456
                   11         12         13         14         15
    11  C    0.000000
    12  C    2.401427   0.000000
    13  C    6.090166   5.401645   0.000000
    14  H    6.189277   6.188451   2.702860   0.000000
    15  C    5.409410   6.578738   6.121971   3.911840   0.000000
    16  C    6.680324   7.064546   5.365963   2.816859   2.401387
    17  C    1.388889   2.774296   7.281769   7.556535   6.640681
    18  H    1.084764   3.385835   6.187125   5.933378   4.700779
    19  C    2.774838   1.388824   6.716398   7.555900   7.623815
    20  H    3.385733   1.084828   4.898635   5.931254   6.876546
    21  C    6.358647   5.677457   1.396829   3.911930   7.107943
    22  C    7.278559   6.439997   1.396832   2.815037   6.624314
    23  C    6.656023   7.879749   7.309101   4.879095   1.388883
    24  H    4.654722   6.138561   6.229413   4.360107   1.084763
    25  C    7.725011   8.289945   6.688393   4.054029   2.774755
    26  H    6.994212   7.019939   4.843310   2.448430   3.385708
    27  C    2.409169   2.408832   7.556985   8.159706   7.655407
    28  H    2.144247   3.858608   8.155279   8.280130   6.963319
    29  H    3.859166   2.144462   7.233894   8.279102   8.577699
    30  C    7.697368   6.875984   2.421718   4.878996   8.340159
    31  H    5.696206   5.204765   2.148776   4.360587   7.057844
    32  C    8.473628   7.518441   2.421709   4.052208   7.931644
    33  H    7.397092   6.580365   2.148749   2.446125   6.179018
    34  C    7.719069   8.654476   7.558317   4.941800   2.409154
    35  H    6.950378   8.425740   8.194680   5.843284   2.144229
    36  H    8.699461   9.096566   7.190790   4.587189   3.859086
    37  H    3.392317   3.392036   8.587404   9.243831   8.624618
    38  C    8.661611   7.713689   2.802355   4.940696   8.708529
    39  H    8.112666   7.328777   3.400487   5.843645   9.147346
    40  H    9.389951   8.373242   3.400476   4.585006   8.478973
    41  H    8.690480   9.684123   8.588933   5.937569   3.392325
    42  H    9.690815   8.685938   3.886469   5.936405   9.741223
                   16         17         18         19         20
    16  C    0.000000
    17  C    7.979025   0.000000
    18  H    6.264022   2.145291   0.000000
    19  C    8.303473   2.402446   3.859422   0.000000
    20  H    6.991224   3.858974   4.283822   2.145303   0.000000
    21  C    6.627673   7.434022   6.497959   6.860358   5.226104
    22  C    5.365510   8.484941   7.373004   7.777321   5.805575
    23  C    2.774316   7.814700   5.905116   8.880557   8.176985
    24  H    3.385823   5.843349   3.828642   7.082883   6.585244
    25  C    1.388861   8.980309   7.212470   9.470809   8.273815
    26  H    1.084834   8.295712   6.718076   8.317396   6.780780
    27  C    8.713050   1.390079   3.390052   1.390101   3.389888
    28  H    8.549766   1.084351   2.465154   3.387168   4.943312
    29  H    9.088799   3.387180   4.943772   1.084359   2.465561
    30  C    7.665654   8.718205   7.862145   8.002135   6.332006
    31  H    6.942862   6.702805   5.835367   6.290515   4.917420
    32  C    6.604154   9.630552   8.599867   8.801543   6.818608
    33  H    4.622091   8.636485   7.462378   7.947894   5.939543
    34  C    2.408903   8.912058   7.063830   9.733765   8.805571
    35  H    3.858628   8.011690   6.106705   9.321025   8.833857
    36  H    2.144469   9.951528   8.237286  10.300557   8.988933
    37  H    9.745481   2.150485   4.285405   2.150465   4.285346
    38  C    7.660043   9.738865   8.818842   8.906096   7.053466
    39  H    8.636768   9.038272   8.295865   8.341691   6.839088
    40  H    6.901424  10.558896   9.512193   9.665604   7.620921
    41  H    3.392092   9.842381   8.004239  10.730173   9.849739
    42  H    8.628428  10.734899   9.862201   9.836983   7.995536
                   21         22         23         24         25
    21  C    0.000000
    22  C    2.401148   0.000000
    23  C    8.339678   7.663388   0.000000
    24  H    7.057108   6.938381   2.145221   0.000000
    25  C    7.934139   6.605193   2.402396   3.859344   0.000000
    26  H    6.184005   4.623169   3.858996   4.283837   2.145356
    27  C    7.658250   8.708306   8.856357   6.961463   9.785530
    28  H    8.273964   9.384710   8.044328   6.070199   9.451680
    29  H    7.329809   8.215568   9.826336   8.092281  10.275821
    30  C    1.388824   2.774442   9.514051   8.348527   8.928391
    31  H    1.084794   3.385432   8.348239   6.841814   8.251212
    32  C    2.774430   1.388819   8.926672   8.248218   7.770528
    33  H    3.385417   1.084800   7.118603   6.637291   5.818196
    34  C    8.709358   7.659884   1.390070   3.389995   1.390095
    35  H    9.145591   8.633852   1.084348   2.465033   3.387137
    36  H    8.482109   6.903971   3.387136   4.943698   1.084363
    37  H    8.626991   9.740425   9.783668   7.899375  10.785254
    38  C    2.408878   2.408889   9.781478   8.882743   8.860440
    39  H    2.144453   3.858761  10.344405   9.066139   9.895553
    40  H    3.858751   2.144441   9.369482   8.905073   7.969536
    41  H    9.741711   8.628862   2.150513   4.285366   2.150453
    42  H    3.392063   3.392069  10.781315   9.931179   9.787018
                   26         27         28         29         30
    26  H    0.000000
    27  C    8.890644   0.000000
    28  H    8.973214   2.149185   0.000000
    29  H    9.013243   2.149210   4.286129   0.000000
    30  C    7.121630   8.858511   9.562460   8.363511   0.000000
    31  H    6.643746   6.967677   7.490195   6.814127   2.145313
    32  C    5.817122   9.781175  10.538835   9.150394   2.402462
    33  H    3.763276   8.882858   9.536542   8.399882   3.859075
    34  C    3.389959   9.854071   9.231115  10.614512   9.782234
    35  H    4.943333   9.140893   8.097017  10.303124  10.343562
    36  H    2.465578  10.693605  10.459945  11.052145   9.371467
    37  H    9.938463   1.084125   2.479166   2.479130   9.785316
    38  C    6.969712   9.852844  10.623111   9.221212   1.390081
    39  H    8.143918   9.145695   9.841395   8.665402   1.084353
    40  H    6.021000  10.687246  11.481050   9.975839   3.387152
    41  H    4.285396  10.806575  10.103379  11.610574  10.781792
    42  H    7.906179  10.805334  11.618599  10.094333   2.150451
                   31         32         33         34         35
    31  H    0.000000
    32  C    3.859055   0.000000
    33  H    4.283308   2.145356   0.000000
    34  C    8.883693   8.860047   6.969499   0.000000
    35  H    9.064207   9.893547   8.140394   2.149187   0.000000
    36  H    8.908597   7.970392   6.024369   2.149200   4.286112
    37  H    7.905038  10.780447   9.930427  10.806786  10.007427
    38  C    3.389900   1.390094   3.389946   9.854100  10.686951
    39  H    2.465597   3.387150   4.943418  10.688111  11.122726
    40  H    4.943399   1.084354   2.465647   9.147341  10.372571
    41  H    9.931470   9.787155   7.907066   1.084123   2.479233
    42  H    4.285343   2.150458   4.285392  10.806525  11.688828
                   36         37         38         39         40
    36  H    0.000000
    37  H   11.695182   0.000000
    38  C    9.148051  10.805053   0.000000
    39  H   10.374492  10.011719   2.149134   0.000000
    40  H    8.023201  11.688307   2.149152   4.286037   0.000000
    41  H    2.479104  11.732109  10.806626  11.689465  10.013697
    42  H   10.013557  11.730308   1.084114   2.479039   2.479054
                   41         42
    41  H    0.000000
    42  H   11.731844   0.000000
 Stoichiometry    C24H18
 Framework group  C1[X(C24H18)]
 Deg. of freedom   120
 Full point group                 C1      NOp   1
 Largest Abelian subgroup         C1      NOp   1
 Largest concise Abelian subgroup C1      NOp   1
                         Standard orientation:                         
 ---------------------------------------------------------------------
 Center     Atomic      Atomic             Coordinates (Angstroms)
 Number     Number       Type             X           Y           Z
 ---------------------------------------------------------------------
      1          6           0       -1.383013   -0.226559    0.040885
      2          6           0       -0.876511    1.072266    0.051023
      3          6           0       -0.490559   -1.296693   -0.009771
      4          6           0        0.496409    1.311338    0.010793
      5          1           0       -1.562732    1.911608    0.090737
      6          6           0       -2.846978   -0.466313    0.100655
      7          6           0        0.887011   -1.084832   -0.051057
      8          1           0       -0.872595   -2.311392    0.027568
      9          6           0        1.367759    0.224022   -0.040520
     10          6           0        1.020572    2.700383    0.004224
     11          6           0       -3.716833    0.202499   -0.763771
     12          6           0       -3.384615   -1.366548    1.023566
     13          6           0        1.826096   -2.233256   -0.105623
     14          1           0        2.435477    0.399985   -0.117841
     15          6           0        0.420989    3.686721   -0.782438
     16          6           0        2.124278    3.049720    0.785903
     17          6           0       -5.086080   -0.023436   -0.707846
     18          1           0       -3.317946    0.921981   -1.470841
     19          6           0       -4.753678   -1.592980    1.080390
     20          1           0       -2.720714   -1.909013    1.688259
     21          6           0        1.570127   -3.326010   -0.937188
     22          6           0        2.985560   -2.245014    0.673250
     23          6           0        0.911118    4.986238   -0.787300
     24          1           0       -0.423176    3.427051   -1.412255
     25          6           0        2.615240    4.348901    0.781545
     26          1           0        2.588422    2.300405    1.418330
     27          6           0       -5.609489   -0.922570    0.214066
     28          1           0       -5.746934    0.510896   -1.381328
     29          1           0       -5.152412   -2.301078    1.798333
     30          6           0        2.448395   -4.400634   -0.988762
     31          1           0        0.685273   -3.322654   -1.564722
     32          6           0        3.864828   -3.318840    0.622221
     33          1           0        3.187941   -1.413996    1.340514
     34          6           0        2.010096    5.322153   -0.005186
     35          1           0        0.437738    5.736858   -1.410431
     36          1           0        3.468369    4.603544    1.400553
     37          1           0       -6.678280   -1.098864    0.258042
     38          6           0        3.599268   -4.400821   -0.209136
     39          1           0        2.237230   -5.236808   -1.646062
     40          1           0        4.756137   -3.314003    1.239772
     41          1           0        2.392988    6.336403   -0.008954
     42          1           0        4.285265   -5.239335   -0.249216
 ---------------------------------------------------------------------
 Rotational constants (GHZ):           0.1977465           0.1968904           0.1039268
 Leave Link  202 at Mon Nov 14 15:19:30 2022, MaxMem= 16106127360 cpu:               0.3 elap:               0.0
 (Enter /opt/ap/G16/B01/g16/l301.exe)
 Standard basis: 6-311++G(d,p) (5D, 7F)
 Ernie: Thresh=  0.10000D-02 Tol=  0.10000D-05 Strict=F.
 There are   678 symmetry adapted cartesian basis functions of A   symmetry.
 There are   654 symmetry adapted basis functions of A   symmetry.
   654 basis functions,  1026 primitive gaussians,   678 cartesian basis functions
    81 alpha electrons       81 beta electrons
       nuclear repulsion energy      1732.1751150080 Hartrees.
 IExCor= 4639 DFT=T Ex+Corr=wB97XD ExCW=0 ScaHFX=  1.000000
 ScaDFX=  1.000000  1.000000  1.000000  1.000000 ScalE2=  1.000000  1.000000
 IRadAn=      5 IRanWt=     -1 IRanGd=            0 ICorTp=0 IEmpDi=121
 HFx  wShort=  0.000000 wLong=  0.200000 cFull=  0.222036 cShort=  0.000000 cLong=  0.777964
 DFx  wShort=  0.000000 wLong=  0.200000 cFull=  0.000000 cShort=  0.000000 cLong=  1.000000
 NAtoms=   42 NActive=   42 NUniq=   42 SFac= 1.00D+00 NAtFMM=   60 NAOKFM=F Big=F
 Integral buffers will be    131072 words long.
 Raffenetti 2 integral format.
 Two-electron integral symmetry is turned on.
 R6Disp:  Grimme-D2 Dispersion energy=       -0.0289654831 Hartrees.
 Nuclear repulsion after empirical dispersion term =     1732.1461495249 Hartrees.
 Leave Link  301 at Mon Nov 14 15:19:30 2022, MaxMem= 16106127360 cpu:               1.3 elap:               0.0
 (Enter /opt/ap/G16/B01/g16/l302.exe)
 NPDir=0 NMtPBC=     1 NCelOv=     1 NCel=       1 NClECP=     1 NCelD=      1
         NCelK=      1 NCelE2=     1 NClLst=     1 CellRange=     0.0.
 One-electron integrals computed using PRISM.
 One-electron integral symmetry used in STVInt
 NBasis=   654 RedAO= T EigKep=  1.28D-06  NBF=   654
 NBsUse=   645 1.00D-06 EigRej=  8.64D-07 NBFU=   645
 Precomputing XC quadrature grid using
 IXCGrd= 4 IRadAn=           5 IRanWt=          -1 IRanGd=           0 AccXCQ= 0.00D+00.
 Generated NRdTot=       0 NPtTot=           0 NUsed=           0 NTot=          32
 NSgBfM=   669   669   669   669   669 MxSgAt=    42 MxSgA2=    42.
 Leave Link  302 at Mon Nov 14 15:19:30 2022, MaxMem= 16106127360 cpu:              21.1 elap:               0.7
 (Enter /opt/ap/G16/B01/g16/l303.exe)
 DipDrv:  MaxL=1.
 Leave Link  303 at Mon Nov 14 15:19:31 2022, MaxMem= 16106127360 cpu:               2.8 elap:               0.1
 (Enter /opt/ap/G16/B01/g16/l401.exe)
 ExpMin= 3.60D-02 ExpMax= 4.56D+03 ExpMxC= 6.82D+02 IAcc=3 IRadAn=         5 AccDes= 0.00D+00
 Harris functional with IExCor= 4639 and IRadAn=       5 diagonalized for initial guess.
 HarFok:  IExCor= 4639 AccDes= 0.00D+00 IRadAn=         5 IDoV= 1 UseB2=F ITyADJ=14
 ICtDFT=  3500011 ScaDFX=  1.000000  1.000000  1.000000  1.000000
 FoFCou: FMM=F IPFlag=           0 FMFlag=      100000 FMFlg1=           0
         NFxFlg=           0 DoJE=T BraDBF=F KetDBF=T FulRan=T
         wScrn=  0.000000 ICntrl=       500 IOpCl=  0 I1Cent=   200000004 NGrid=           0
         NMat0=    1 NMatS0=      1 NMatT0=    0 NMatD0=    1 NMtDS0=    0 NMtDT0=    0
 Petite list used in FoFCou.
 Harris En= -882.969632307243    
 JPrj=0 DoOrth=F DoCkMO=F.
 Leave Link  401 at Mon Nov 14 15:19:32 2022, MaxMem= 16106127360 cpu:              55.9 elap:               1.8
 (Enter /opt/ap/G16/B01/g16/l502.exe)
 Integral symmetry usage will be decided dynamically.
 Closed shell SCF:
 Using DIIS extrapolation, IDIIS=  1040.
 NGot= 16106127360 LenX= 16105179956 LenY= 16104719594
 Requested convergence on RMS density matrix=1.00D-08 within 512 cycles.
 Requested convergence on MAX density matrix=1.00D-06.
 Requested convergence on             energy=1.00D-06.
 No special actions if energy rises.
 Fock matrices will be formed incrementally for  20 cycles.

 Cycle   1  Pass 1  IDiag  1:
 FoFJK:  IHMeth= 1 ICntrl=       0 DoSepK=T KAlg= 0 I1Cent=           0 FoldK=F
 IRaf=         1 NMat=       1 IRICut=       1 DoRegI=T DoRafI=F ISym2E= 0 IDoP0=0 IntGTp=1.
 FoFCou: FMM=F IPFlag=           0 FMFlag=      100000 FMFlg1=           0
         NFxFlg=           0 DoJE=T BraDBF=F KetDBF=F FulRan=T
         wScrn=  0.000000 ICntrl=       500 IOpCl=  0 I1Cent=           0 NGrid=           0
         NMat0=    1 NMatS0=      1 NMatT0=    0 NMatD0=    1 NMtDS0=    0 NMtDT0=    0
 Symmetry not used in FoFCou.
 E= -925.116358533522    
 DIIS: error= 5.04D-02 at cycle   1 NSaved=   1.
 NSaved= 1 IEnMin= 1 EnMin= -925.116358533522     IErMin= 1 ErrMin= 5.04D-02
 ErrMax= 5.04D-02  0.00D+00 EMaxC= 1.00D-01 BMatC= 1.90D+00 BMatP= 1.90D+00
 IDIUse=3 WtCom= 4.96D-01 WtEn= 5.04D-01
 Coeff-Com:  0.100D+01
 Coeff-En:   0.100D+01
 Coeff:      0.100D+01
 Gap=     0.319 Goal=   None    Shift=    0.000
 GapD=    0.319 DampG=1.000 DampE=0.500 DampFc=0.5000 IDamp=-1.
 Damping current iteration by 5.00D-01
 RMSDP=3.75D-02 MaxDP=4.66D+00              OVMax= 4.30D-02

 Cycle   2  Pass 1  IDiag  1:
 RMSU=  6.92D-03    CP:  8.12D-01
 E= -925.214861181912     Delta-E=       -0.098502648390 Rises=F Damp=T
 DIIS: error= 2.44D-02 at cycle   2 NSaved=   2.
 NSaved= 2 IEnMin= 2 EnMin= -925.214861181912     IErMin= 2 ErrMin= 2.44D-02
 ErrMax= 2.44D-02  0.00D+00 EMaxC= 1.00D-01 BMatC= 4.32D-01 BMatP= 1.90D+00
 IDIUse=3 WtCom= 7.56D-01 WtEn= 2.44D-01
 Coeff-Com: -0.883D+00 0.188D+01
 Coeff-En:   0.000D+00 0.100D+01
 Coeff:     -0.667D+00 0.167D+01
 Gap=     0.327 Goal=   None    Shift=    0.000
 RMSDP=2.13D-02 MaxDP=2.18D+00 DE=-9.85D-02 OVMax= 3.37D-02

 Cycle   3  Pass 1  IDiag  1:
 RMSU=  3.28D-03    CP:  5.87D-01  1.37D+00
 E= -925.303503979095     Delta-E=       -0.088642797183 Rises=F Damp=F
 DIIS: error= 3.30D-03 at cycle   3 NSaved=   3.
 NSaved= 3 IEnMin= 3 EnMin= -925.303503979095     IErMin= 3 ErrMin= 3.30D-03
 ErrMax= 3.30D-03  0.00D+00 EMaxC= 1.00D-01 BMatC= 8.34D-03 BMatP= 4.32D-01
 IDIUse=3 WtCom= 9.67D-01 WtEn= 3.30D-02
 Coeff-Com: -0.365D+00 0.774D+00 0.590D+00
 Coeff-En:   0.000D+00 0.000D+00 0.100D+01
 Coeff:     -0.353D+00 0.749D+00 0.604D+00
 Gap=     0.325 Goal=   None    Shift=    0.000
 RMSDP=2.17D-03 MaxDP=1.92D-01 DE=-8.86D-02 OVMax= 1.92D-02

 Cycle   4  Pass 1  IDiag  1:
 RMSU=  1.38D-03    CP:  5.90D-01  1.57D+00  7.02D-01
 E= -925.311131410292     Delta-E=       -0.007627431197 Rises=F Damp=F
 DIIS: error= 9.29D-04 at cycle   4 NSaved=   4.
 NSaved= 4 IEnMin= 4 EnMin= -925.311131410292     IErMin= 4 ErrMin= 9.29D-04
 ErrMax= 9.29D-04  0.00D+00 EMaxC= 1.00D-01 BMatC= 2.75D-04 BMatP= 8.34D-03
 IDIUse=3 WtCom= 9.91D-01 WtEn= 9.29D-03
 Coeff-Com: -0.111D+00 0.236D+00 0.238D+00 0.637D+00
 Coeff-En:   0.000D+00 0.000D+00 0.000D+00 0.100D+01
 Coeff:     -0.110D+00 0.234D+00 0.236D+00 0.640D+00
 Gap=     0.324 Goal=   None    Shift=    0.000
 RMSDP=6.94D-04 MaxDP=6.09D-02 DE=-7.63D-03 OVMax= 4.23D-03

 Cycle   5  Pass 1  IDiag  1:
 RMSU=  2.37D-04    CP:  5.83D-01  1.60D+00  7.22D-01  8.48D-01
 E= -925.311419794752     Delta-E=       -0.000288384460 Rises=F Damp=F
 DIIS: error= 2.23D-04 at cycle   5 NSaved=   5.
 NSaved= 5 IEnMin= 5 EnMin= -925.311419794752     IErMin= 5 ErrMin= 2.23D-04
 ErrMax= 2.23D-04  0.00D+00 EMaxC= 1.00D-01 BMatC= 2.04D-05 BMatP= 2.75D-04
 IDIUse=3 WtCom= 9.98D-01 WtEn= 2.23D-03
 Coeff-Com:  0.260D-01-0.553D-01-0.258D-01 0.196D+00 0.859D+00
 Coeff-En:   0.000D+00 0.000D+00 0.000D+00 0.000D+00 0.100D+01
 Coeff:      0.259D-01-0.552D-01-0.257D-01 0.196D+00 0.859D+00
 Gap=     0.324 Goal=   None    Shift=    0.000
 RMSDP=1.58D-04 MaxDP=7.03D-03 DE=-2.88D-04 OVMax= 1.51D-03

 Cycle   6  Pass 1  IDiag  1:
 RMSU=  6.99D-05    CP:  5.83D-01  1.60D+00  7.39D-01  9.23D-01  1.23D+00
 E= -925.311445776810     Delta-E=       -0.000025982058 Rises=F Damp=F
 DIIS: error= 4.83D-05 at cycle   6 NSaved=   6.
 NSaved= 6 IEnMin= 6 EnMin= -925.311445776810     IErMin= 6 ErrMin= 4.83D-05
 ErrMax= 4.83D-05  0.00D+00 EMaxC= 1.00D-01 BMatC= 1.42D-06 BMatP= 2.04D-05
 IDIUse=1 WtCom= 1.00D+00 WtEn= 0.00D+00
 Coeff-Com:  0.132D-01-0.282D-01-0.167D-01 0.541D-01 0.331D+00 0.646D+00
 Coeff:      0.132D-01-0.282D-01-0.167D-01 0.541D-01 0.331D+00 0.646D+00
 Gap=     0.324 Goal=   None    Shift=    0.000
 RMSDP=7.29D-05 MaxDP=5.82D-03 DE=-2.60D-05 OVMax= 3.75D-04

 Cycle   7  Pass 1  IDiag  1:
 RMSU=  4.10D-05    CP:  5.83D-01  1.60D+00  7.42D-01  9.53D-01  1.18D+00
                    CP:  8.25D-01
 E= -925.311447500467     Delta-E=       -0.000001723657 Rises=F Damp=F
 DIIS: error= 1.38D-05 at cycle   7 NSaved=   7.
 NSaved= 7 IEnMin= 7 EnMin= -925.311447500467     IErMin= 7 ErrMin= 1.38D-05
 ErrMax= 1.38D-05  0.00D+00 EMaxC= 1.00D-01 BMatC= 1.01D-07 BMatP= 1.42D-06
 IDIUse=1 WtCom= 1.00D+00 WtEn= 0.00D+00
 Coeff-Com: -0.239D-02 0.514D-02 0.224D-02-0.283D-01-0.102D+00 0.966D-01
 Coeff-Com:  0.103D+01
 Coeff:     -0.239D-02 0.514D-02 0.224D-02-0.283D-01-0.102D+00 0.966D-01
 Coeff:      0.103D+01
 Gap=     0.324 Goal=   None    Shift=    0.000
 RMSDP=1.67D-05 MaxDP=9.80D-04 DE=-1.72D-06 OVMax= 2.66D-04

 Cycle   8  Pass 1  IDiag  1:
 RMSU=  6.51D-06    CP:  5.83D-01  1.60D+00  7.44D-01  9.55D-01  1.21D+00
                    CP:  9.17D-01  1.19D+00
 E= -925.311447733278     Delta-E=       -0.000000232811 Rises=F Damp=F
 DIIS: error= 4.17D-06 at cycle   8 NSaved=   8.
 NSaved= 8 IEnMin= 8 EnMin= -925.311447733278     IErMin= 8 ErrMin= 4.17D-06
 ErrMax= 4.17D-06  0.00D+00 EMaxC= 1.00D-01 BMatC= 6.35D-09 BMatP= 1.01D-07
 IDIUse=1 WtCom= 1.00D+00 WtEn= 0.00D+00
 Coeff-Com: -0.106D-02 0.227D-02 0.121D-02-0.975D-02-0.367D-01 0.119D-01
 Coeff-Com:  0.244D+00 0.788D+00
 Coeff:     -0.106D-02 0.227D-02 0.121D-02-0.975D-02-0.367D-01 0.119D-01
 Coeff:      0.244D+00 0.788D+00
 Gap=     0.324 Goal=   None    Shift=    0.000
 RMSDP=2.77D-06 MaxDP=1.38D-04 DE=-2.33D-07 OVMax= 5.81D-05

 Cycle   9  Pass 1  IDiag  1:
 RMSU=  1.99D-06    CP:  5.83D-01  1.60D+00  7.44D-01  9.54D-01  1.21D+00
                    CP:  9.22D-01  1.22D+00  1.16D+00
 E= -925.311447743784     Delta-E=       -0.000000010506 Rises=F Damp=F
 DIIS: error= 2.53D-06 at cycle   9 NSaved=   9.
 NSaved= 9 IEnMin= 9 EnMin= -925.311447743784     IErMin= 9 ErrMin= 2.53D-06
 ErrMax= 2.53D-06  0.00D+00 EMaxC= 1.00D-01 BMatC= 2.15D-09 BMatP= 6.35D-09
 IDIUse=1 WtCom= 1.00D+00 WtEn= 0.00D+00
 Coeff-Com:  0.131D-03-0.286D-03 0.330D-04 0.292D-02 0.106D-01-0.165D-01
 Coeff-Com: -0.173D+00 0.372D+00 0.804D+00
 Coeff:      0.131D-03-0.286D-03 0.330D-04 0.292D-02 0.106D-01-0.165D-01
 Coeff:     -0.173D+00 0.372D+00 0.804D+00
 Gap=     0.324 Goal=   None    Shift=    0.000
 RMSDP=2.01D-06 MaxDP=1.18D-04 DE=-1.05D-08 OVMax= 4.21D-05

 Cycle  10  Pass 1  IDiag  1:
 RMSU=  6.01D-07    CP:  5.83D-01  1.60D+00  7.44D-01  9.54D-01  1.21D+00
                    CP:  9.23D-01  1.24D+00  1.35D+00  7.45D-01
 E= -925.311447747726     Delta-E=       -0.000000003943 Rises=F Damp=F
 DIIS: error= 8.15D-07 at cycle  10 NSaved=  10.
 NSaved=10 IEnMin=10 EnMin= -925.311447747726     IErMin=10 ErrMin= 8.15D-07
 ErrMax= 8.15D-07  0.00D+00 EMaxC= 1.00D-01 BMatC= 2.29D-10 BMatP= 2.15D-09
 IDIUse=1 WtCom= 1.00D+00 WtEn= 0.00D+00
 Coeff-Com:  0.126D-03-0.271D-03-0.621D-04 0.179D-02 0.643D-02-0.559D-02
 Coeff-Com: -0.805D-01 0.578D-01 0.327D+00 0.694D+00
 Coeff:      0.126D-03-0.271D-03-0.621D-04 0.179D-02 0.643D-02-0.559D-02
 Coeff:     -0.805D-01 0.578D-01 0.327D+00 0.694D+00
 Gap=     0.324 Goal=   None    Shift=    0.000
 RMSDP=3.86D-07 MaxDP=4.48D-05 DE=-3.94D-09 OVMax= 1.00D-05

 Cycle  11  Pass 1  IDiag  1:
 RMSU=  1.35D-07    CP:  5.83D-01  1.60D+00  7.44D-01  9.54D-01  1.21D+00
                    CP:  9.23D-01  1.24D+00  1.37D+00  8.89D-01  1.03D+00
 E= -925.311447748073     Delta-E=       -0.000000000347 Rises=F Damp=F
 DIIS: error= 1.95D-07 at cycle  11 NSaved=  11.
 NSaved=11 IEnMin=11 EnMin= -925.311447748073     IErMin=11 ErrMin= 1.95D-07
 ErrMax= 1.95D-07  0.00D+00 EMaxC= 1.00D-01 BMatC= 3.17D-11 BMatP= 2.29D-10
 IDIUse=1 WtCom= 1.00D+00 WtEn= 0.00D+00
 Coeff-Com:  0.210D-04-0.445D-04-0.192D-04 0.120D-03 0.249D-03 0.122D-02
 Coeff-Com:  0.162D-02-0.559D-01-0.181D-01 0.251D+00 0.820D+00
 Coeff:      0.210D-04-0.445D-04-0.192D-04 0.120D-03 0.249D-03 0.122D-02
 Coeff:      0.162D-02-0.559D-01-0.181D-01 0.251D+00 0.820D+00
 Gap=     0.324 Goal=   None    Shift=    0.000
 RMSDP=1.75D-07 MaxDP=1.49D-05 DE=-3.47D-10 OVMax= 3.27D-06

 Cycle  12  Pass 1  IDiag  1:
 RMSU=  5.87D-08    CP:  5.83D-01  1.60D+00  7.44D-01  9.54D-01  1.21D+00
                    CP:  9.23D-01  1.24D+00  1.38D+00  8.90D-01  1.17D+00
                    CP:  1.23D+00
 E= -925.311447748177     Delta-E=       -0.000000000104 Rises=F Damp=F
 DIIS: error= 8.37D-08 at cycle  12 NSaved=  12.
 NSaved=12 IEnMin=12 EnMin= -925.311447748177     IErMin=12 ErrMin= 8.37D-08
 ErrMax= 8.37D-08  0.00D+00 EMaxC= 1.00D-01 BMatC= 1.31D-12 BMatP= 3.17D-11
 IDIUse=1 WtCom= 1.00D+00 WtEn= 0.00D+00
 Coeff-Com: -0.141D-04 0.306D-04 0.109D-04-0.220D-03-0.799D-03 0.892D-03
 Coeff-Com:  0.966D-02-0.949D-02-0.306D-01-0.620D-01-0.778D-01 0.117D+01
 Coeff:     -0.141D-04 0.306D-04 0.109D-04-0.220D-03-0.799D-03 0.892D-03
 Coeff:      0.966D-02-0.949D-02-0.306D-01-0.620D-01-0.778D-01 0.117D+01
 Gap=     0.324 Goal=   None    Shift=    0.000
 RMSDP=6.50D-08 MaxDP=3.21D-06 DE=-1.04D-10 OVMax= 1.23D-06

 Cycle  13  Pass 1  IDiag  1:
 RMSU=  2.19D-08    CP:  5.83D-01  1.60D+00  7.44D-01  9.54D-01  1.21D+00
                    CP:  9.23D-01  1.24D+00  1.38D+00  8.95D-01  1.21D+00
                    CP:  1.33D+00  1.44D+00
 E= -925.311447748159     Delta-E=        0.000000000018 Rises=F Damp=F
 DIIS: error= 2.50D-08 at cycle  13 NSaved=  13.
 NSaved=13 IEnMin=12 EnMin= -925.311447748177     IErMin=13 ErrMin= 2.50D-08
 ErrMax= 2.50D-08  0.00D+00 EMaxC= 1.00D-01 BMatC= 1.22D-13 BMatP= 1.31D-12
 IDIUse=1 WtCom= 1.00D+00 WtEn= 0.00D+00
 Coeff-Com: -0.374D-05 0.803D-05 0.359D-05-0.475D-04-0.161D-03 0.127D-03
 Coeff-Com:  0.167D-02 0.864D-03-0.359D-02-0.219D-01-0.702D-01 0.232D+00
 Coeff-Com:  0.861D+00
 Coeff:     -0.374D-05 0.803D-05 0.359D-05-0.475D-04-0.161D-03 0.127D-03
 Coeff:      0.167D-02 0.864D-03-0.359D-02-0.219D-01-0.702D-01 0.232D+00
 Coeff:      0.861D+00
 Gap=     0.324 Goal=   None    Shift=    0.000
 RMSDP=1.10D-08 MaxDP=6.36D-07 DE= 1.77D-11 OVMax= 2.85D-07

 Cycle  14  Pass 1  IDiag  1:
 RMSU=  4.81D-09    CP:  5.83D-01  1.60D+00  7.44D-01  9.54D-01  1.21D+00
                    CP:  9.23D-01  1.24D+00  1.38D+00  8.95D-01  1.21D+00
                    CP:  1.33D+00  1.55D+00  1.27D+00
 E= -925.311447748105     Delta-E=        0.000000000054 Rises=F Damp=F
 DIIS: error= 7.52D-09 at cycle  14 NSaved=  14.
 NSaved=14 IEnMin=12 EnMin= -925.311447748177     IErMin=14 ErrMin= 7.52D-09
 ErrMax= 7.52D-09  0.00D+00 EMaxC= 1.00D-01 BMatC= 4.37D-14 BMatP= 1.22D-13
 IDIUse=1 WtCom= 1.00D+00 WtEn= 0.00D+00
 Coeff-Com:  0.610D-06-0.135D-05-0.210D-06 0.141D-04 0.581D-04-0.863D-04
 Coeff-Com: -0.821D-03 0.183D-02 0.339D-02 0.255D-03-0.228D-01-0.925D-01
 Coeff-Com:  0.404D+00 0.707D+00
 Coeff:      0.610D-06-0.135D-05-0.210D-06 0.141D-04 0.581D-04-0.863D-04
 Coeff:     -0.821D-03 0.183D-02 0.339D-02 0.255D-03-0.228D-01-0.925D-01
 Coeff:      0.404D+00 0.707D+00
 Gap=     0.324 Goal=   None    Shift=    0.000
 RMSDP=8.69D-09 MaxDP=7.09D-07 DE= 5.41D-11 OVMax= 8.47D-08

 SCF Done:  E(RwB97XD) =  -925.311447748     A.U. after   14 cycles
            NFock= 14  Conv=0.87D-08     -V/T= 2.0044
 KE= 9.212945998848D+02 PE=-5.610723591335D+03 EE= 2.031971394177D+03
 Leave Link  502 at Mon Nov 14 15:21:57 2022, MaxMem= 16106127360 cpu:            4610.3 elap:             144.9
 (Enter /opt/ap/G16/B01/g16/l601.exe)
 Copying SCF densities to generalized density rwf, IOpCl= 0 IROHF=0.

 **********************************************************************

            Population analysis using the SCF Density.

 **********************************************************************

 Orbital symmetries:
       Occupied  (A) (A) (A) (A) (A) (A) (A) (A) (A) (A) (A) (A)
                 (A) (A) (A) (A) (A) (A) (A) (A) (A) (A) (A) (A)
                 (A) (A) (A) (A) (A) (A) (A) (A) (A) (A) (A) (A)
                 (A) (A) (A) (A) (A) (A) (A) (A) (A) (A) (A) (A)
                 (A) (A) (A) (A) (A) (A) (A) (A) (A) (A) (A) (A)
                 (A) (A) (A) (A) (A) (A) (A) (A) (A) (A) (A) (A)
                 (A) (A) (A) (A) (A) (A) (A) (A) (A)
       Virtual   (A) (A) (A) (A) (A) (A) (A) (A) (A) (A) (A) (A)
                 (A) (A) (A) (A) (A) (A) (A) (A) (A) (A) (A) (A)
                 (A) (A) (A) (A) (A) (A) (A) (A) (A) (A) (A) (A)
                 (A) (A) (A) (A) (A) (A) (A) (A) (A) (A) (A) (A)
                 (A) (A) (A) (A) (A) (A) (A) (A) (A) (A) (A) (A)
                 (A) (A) (A) (A) (A) (A) (A) (A) (A) (A) (A) (A)
                 (A) (A) (A) (A) (A) (A) (A) (A) (A) (A) (A) (A)
                 (A) (A) (A) (A) (A) (A) (A) (A) (A) (A) (A) (A)
                 (A) (A) (A) (A) (A) (A) (A) (A) (A) (A) (A) (A)
                 (A) (A) (A) (A) (A) (A) (A) (A) (A) (A) (A) (A)
                 (A) (A) (A) (A) (A) (A) (A) (A) (A) (A) (A) (A)
                 (A) (A) (A) (A) (A) (A) (A) (A) (A) (A) (A) (A)
                 (A) (A) (A) (A) (A) (A) (A) (A) (A) (A) (A) (A)
                 (A) (A) (A) (A) (A) (A) (A) (A) (A) (A) (A) (A)
                 (A) (A) (A) (A) (A) (A) (A) (A) (A) (A) (A) (A)
                 (A) (A) (A) (A) (A) (A) (A) (A) (A) (A) (A) (A)
                 (A) (A) (A) (A) (A) (A) (A) (A) (A) (A) (A) (A)
                 (A) (A) (A) (A) (A) (A) (A) (A) (A) (A) (A) (A)
                 (A) (A) (A) (A) (A) (A) (A) (A) (A) (A) (A) (A)
                 (A) (A) (A) (A) (A) (A) (A) (A) (A) (A) (A) (A)
                 (A) (A) (A) (A) (A) (A) (A) (A) (A) (A) (A) (A)
                 (A) (A) (A) (A) (A) (A) (A) (A) (A) (A) (A) (A)
                 (A) (A) (A) (A) (A) (A) (A) (A) (A) (A) (A) (A)
                 (A) (A) (A) (A) (A) (A) (A) (A) (A) (A) (A) (A)
                 (A) (A) (A) (A) (A) (A) (A) (A) (A) (A) (A) (A)
                 (A) (A) (A) (A) (A) (A) (A) (A) (A) (A) (A) (A)
                 (A) (A) (A) (A) (A) (A) (A) (A) (A) (A) (A) (A)
                 (A) (A) (A) (A) (A) (A) (A) (A) (A) (A) (A) (A)
                 (A) (A) (A) (A) (A) (A) (A) (A) (A) (A) (A) (A)
                 (A) (A) (A) (A) (A) (A) (A) (A) (A) (A) (A) (A)
                 (A) (A) (A) (A) (A) (A) (A) (A) (A) (A) (A) (A)
                 (A) (A) (A) (A) (A) (A) (A) (A) (A) (A) (A) (A)
                 (A) (A) (A) (A) (A) (A) (A) (A) (A) (A) (A) (A)
                 (A) (A) (A) (A) (A) (A) (A) (A) (A) (A) (A) (A)
                 (A) (A) (A) (A) (A) (A) (A) (A) (A) (A) (A) (A)
                 (A) (A) (A) (A) (A) (A) (A) (A) (A) (A) (A) (A)
                 (A) (A) (A) (A) (A) (A) (A) (A) (A) (A) (A) (A)
                 (A) (A) (A) (A) (A) (A) (A) (A) (A) (A) (A) (A)
                 (A) (A) (A) (A) (A) (A) (A) (A) (A) (A) (A) (A)
                 (A) (A) (A) (A) (A) (A) (A) (A) (A) (A) (A) (A)
                 (A) (A) (A) (A) (A) (A) (A) (A) (A) (A) (A) (A)
                 (A) (A) (A) (A) (A) (A) (A) (A) (A) (A) (A) (A)
                 (A) (A) (A) (A) (A) (A) (A) (A) (A) (A) (A) (A)
                 (A) (A) (A) (A) (A) (A) (A) (A) (A) (A) (A) (A)
                 (A) (A) (A) (A) (A) (A) (A) (A) (A) (A) (A) (A)
                 (A) (A) (A) (A) (A) (A) (A) (A) (A) (A) (A) (A)
                 (A) (A) (A) (A) (A) (A) (A) (A) (A) (A) (A) (A)
 The electronic state is 1-A.
 Alpha  occ. eigenvalues --  -10.30423 -10.30422 -10.30422 -10.30345 -10.30325
 Alpha  occ. eigenvalues --  -10.30323 -10.29270 -10.29261 -10.29251 -10.29251
 Alpha  occ. eigenvalues --  -10.29226 -10.29225 -10.29190 -10.29183 -10.29182
 Alpha  occ. eigenvalues --  -10.29173 -10.29140 -10.29130 -10.29123 -10.29100
 Alpha  occ. eigenvalues --  -10.29100 -10.29087 -10.29075 -10.29074  -0.98989
 Alpha  occ. eigenvalues --   -0.97067  -0.97051  -0.95275  -0.89434  -0.89424
 Alpha  occ. eigenvalues --   -0.85348  -0.85316  -0.85266  -0.85061  -0.82262
 Alpha  occ. eigenvalues --   -0.82252  -0.73555  -0.73493  -0.71148  -0.70755
 Alpha  occ. eigenvalues --   -0.70165  -0.70120  -0.66733  -0.66703  -0.63555
 Alpha  occ. eigenvalues --   -0.60713  -0.60695  -0.58686  -0.57281  -0.56655
 Alpha  occ. eigenvalues --   -0.54925  -0.54808  -0.54379  -0.54198  -0.52848
 Alpha  occ. eigenvalues --   -0.51879  -0.51480  -0.51407  -0.51156  -0.50851
 Alpha  occ. eigenvalues --   -0.50793  -0.47912  -0.46723  -0.46234  -0.45884
 Alpha  occ. eigenvalues --   -0.45732  -0.44972  -0.44350  -0.43173  -0.43113
 Alpha  occ. eigenvalues --   -0.42930  -0.41746  -0.41587  -0.36562  -0.36278
 Alpha  occ. eigenvalues --   -0.33646  -0.33625  -0.33614  -0.32990  -0.30527
 Alpha  occ. eigenvalues --   -0.30260
 Alpha virt. eigenvalues --    0.02161   0.02356   0.03671   0.04194   0.04288
 Alpha virt. eigenvalues --    0.04673   0.04845   0.04906   0.05127   0.05151
 Alpha virt. eigenvalues --    0.05217   0.05685   0.05801   0.06785   0.06985
 Alpha virt. eigenvalues --    0.07082   0.07840   0.07983   0.08147   0.08549
 Alpha virt. eigenvalues --    0.08703   0.08970   0.09211   0.09815   0.11092
 Alpha virt. eigenvalues --    0.11507   0.12137   0.12496   0.12698   0.13322
 Alpha virt. eigenvalues --    0.13705   0.13818   0.14248   0.14416   0.15447
 Alpha virt. eigenvalues --    0.15541   0.15809   0.15863   0.16150   0.16173
 Alpha virt. eigenvalues --    0.16542   0.16848   0.16994   0.17394   0.17487
 Alpha virt. eigenvalues --    0.17588   0.17757   0.18016   0.18060   0.18236
 Alpha virt. eigenvalues --    0.18334   0.18457   0.18494   0.18753   0.19095
 Alpha virt. eigenvalues --    0.19289   0.19452   0.19501   0.20175   0.20428
 Alpha virt. eigenvalues --    0.20553   0.20853   0.21128   0.21456   0.21553
 Alpha virt. eigenvalues --    0.22220   0.22377   0.22469   0.22653   0.22912
 Alpha virt. eigenvalues --    0.23188   0.23442   0.23592   0.23799   0.23823
 Alpha virt. eigenvalues --    0.24655   0.24816   0.25216   0.25289   0.25543
 Alpha virt. eigenvalues --    0.25579   0.26035   0.26525   0.26941   0.27384
 Alpha virt. eigenvalues --    0.27480   0.27704   0.27812   0.28221   0.28609
 Alpha virt. eigenvalues --    0.28716   0.28994   0.29186   0.29337   0.29578
 Alpha virt. eigenvalues --    0.29638   0.29894   0.30448   0.31127   0.31347
 Alpha virt. eigenvalues --    0.31507   0.32081   0.32332   0.32883   0.33290
 Alpha virt. eigenvalues --    0.33466   0.33906   0.34072   0.34264   0.34396
 Alpha virt. eigenvalues --    0.34907   0.34951   0.35009   0.35314   0.35834
 Alpha virt. eigenvalues --    0.35923   0.36441   0.36669   0.36711   0.37106
 Alpha virt. eigenvalues --    0.37381   0.37465   0.37837   0.37916   0.38425
 Alpha virt. eigenvalues --    0.38543   0.38678   0.39180   0.39260   0.39610
 Alpha virt. eigenvalues --    0.39903   0.40647   0.40662   0.41347   0.41736
 Alpha virt. eigenvalues --    0.41917   0.42129   0.42282   0.43047   0.43456
 Alpha virt. eigenvalues --    0.43762   0.43830   0.44571   0.44754   0.44881
 Alpha virt. eigenvalues --    0.45286   0.45961   0.47682   0.47842   0.47981
 Alpha virt. eigenvalues --    0.48370   0.49307   0.53079   0.53591   0.57136
 Alpha virt. eigenvalues --    0.58229   0.58566   0.58956   0.59285   0.60687
 Alpha virt. eigenvalues --    0.62139   0.62415   0.62565   0.62901   0.63013
 Alpha virt. eigenvalues --    0.63430   0.63826   0.63869   0.64030   0.64199
 Alpha virt. eigenvalues --    0.64436   0.65198   0.65378   0.65569   0.65818
 Alpha virt. eigenvalues --    0.66042   0.66356   0.67165   0.67372   0.67438
 Alpha virt. eigenvalues --    0.68410   0.69225   0.69799   0.70236   0.70735
 Alpha virt. eigenvalues --    0.70748   0.71207   0.71528   0.72085   0.72309
 Alpha virt. eigenvalues --    0.72902   0.73322   0.73704   0.73998   0.74086
 Alpha virt. eigenvalues --    0.75448   0.75984   0.76714   0.76857   0.77730
 Alpha virt. eigenvalues --    0.78681   0.79142   0.79895   0.80419   0.80660
 Alpha virt. eigenvalues --    0.80815   0.81294   0.81370   0.81981   0.82336
 Alpha virt. eigenvalues --    0.82613   0.82708   0.83195   0.83891   0.84030
 Alpha virt. eigenvalues --    0.84530   0.84830   0.84951   0.85122   0.85646
 Alpha virt. eigenvalues --    0.85982   0.86987   0.87905   0.88183   0.88578
 Alpha virt. eigenvalues --    0.89243   0.89840   0.91498   0.91727   0.91954
 Alpha virt. eigenvalues --    0.92164   0.92365   0.93432   0.93749   0.93922
 Alpha virt. eigenvalues --    0.94002   0.94489   0.94879   0.96201   0.96575
 Alpha virt. eigenvalues --    0.96718   0.96976   0.97109   0.98344   0.99233
 Alpha virt. eigenvalues --    0.99588   1.00244   1.00743   1.01357   1.01918
 Alpha virt. eigenvalues --    1.02437   1.02881   1.03648   1.04275   1.04368
 Alpha virt. eigenvalues --    1.05469   1.05990   1.06989   1.07234   1.07348
 Alpha virt. eigenvalues --    1.07650   1.08305   1.08859   1.09376   1.11718
 Alpha virt. eigenvalues --    1.12047   1.12596   1.12994   1.13402   1.13764
 Alpha virt. eigenvalues --    1.14701   1.14813   1.16203   1.16962   1.17168
 Alpha virt. eigenvalues --    1.18205   1.18359   1.19065   1.19281   1.21274
 Alpha virt. eigenvalues --    1.21798   1.22195   1.22853   1.23667   1.23909
 Alpha virt. eigenvalues --    1.24331   1.24955   1.24999   1.29039   1.29348
 Alpha virt. eigenvalues --    1.37894   1.39580   1.41185   1.41500   1.41640
 Alpha virt. eigenvalues --    1.45855   1.47409   1.47934   1.52330   1.55468
 Alpha virt. eigenvalues --    1.56328   1.57984   1.58397   1.59335   1.59447
 Alpha virt. eigenvalues --    1.59662   1.60179   1.61084   1.61339   1.61461
 Alpha virt. eigenvalues --    1.61960   1.62085   1.62347   1.63328   1.63562
 Alpha virt. eigenvalues --    1.64349   1.65583   1.65658   1.66020   1.66455
 Alpha virt. eigenvalues --    1.66996   1.67255   1.67821   1.68649   1.68802
 Alpha virt. eigenvalues --    1.69480   1.72887   1.73633   1.73969   1.74090
 Alpha virt. eigenvalues --    1.74246   1.75209   1.75495   1.75898   1.76473
 Alpha virt. eigenvalues --    1.77572   1.78352   1.81642   1.82164   1.82855
 Alpha virt. eigenvalues --    1.82893   1.82996   1.84014   1.84650   1.84952
 Alpha virt. eigenvalues --    1.85461   1.86318   1.86457   1.86865   1.87663
 Alpha virt. eigenvalues --    1.87841   1.89579   1.92408   1.92662   1.93157
 Alpha virt. eigenvalues --    1.93896   1.94108   1.97198   1.99730   2.00157
 Alpha virt. eigenvalues --    2.01100   2.01834   2.02349   2.02671   2.02700
 Alpha virt. eigenvalues --    2.02982   2.03439   2.03819   2.04423   2.04610
 Alpha virt. eigenvalues --    2.04680   2.04709   2.05568   2.05636   2.06186
 Alpha virt. eigenvalues --    2.06778   2.07225   2.07516   2.07980   2.08677
 Alpha virt. eigenvalues --    2.10730   2.11629   2.12064   2.12626   2.13103
 Alpha virt. eigenvalues --    2.13525   2.14543   2.15138   2.16805   2.17360
 Alpha virt. eigenvalues --    2.18154   2.18862   2.19749   2.20214   2.20837
 Alpha virt. eigenvalues --    2.23778   2.27837   2.30160   2.33844   2.35385
 Alpha virt. eigenvalues --    2.36344   2.36653   2.38150   2.39761   2.43654
 Alpha virt. eigenvalues --    2.44358   2.44880   2.46001   2.48778   2.49639
 Alpha virt. eigenvalues --    2.51858   2.53078   2.53303   2.53583   2.54803
 Alpha virt. eigenvalues --    2.55466   2.56294   2.56572   2.56683   2.57726
 Alpha virt. eigenvalues --    2.58463   2.58732   2.62340   2.62841   2.64012
 Alpha virt. eigenvalues --    2.72751   2.73180   2.73651   2.75718   2.75878
 Alpha virt. eigenvalues --    2.76147   2.76334   2.78526   2.79214   2.79829
 Alpha virt. eigenvalues --    2.80076   2.80341   2.80468   2.80756   2.80810
 Alpha virt. eigenvalues --    2.81555   2.82180   2.82903   2.83057   2.83187
 Alpha virt. eigenvalues --    2.83289   2.84140   2.85062   2.86001   2.86954
 Alpha virt. eigenvalues --    2.87274   2.87639   2.87696   2.90838   2.92288
 Alpha virt. eigenvalues --    2.92362   2.92529   2.92904   2.93098   2.93506
 Alpha virt. eigenvalues --    2.93905   2.94351   2.94759   2.94991   2.97824
 Alpha virt. eigenvalues --    2.99821   3.00134   3.01137   3.01436   3.01975
 Alpha virt. eigenvalues --    3.04260   3.04637   3.04852   3.05247   3.05499
 Alpha virt. eigenvalues --    3.06247   3.06687   3.07624   3.08120   3.11426
 Alpha virt. eigenvalues --    3.11872   3.15735   3.18753   3.19438   3.19786
 Alpha virt. eigenvalues --    3.21301   3.22745   3.25474   3.31618   3.31862
 Alpha virt. eigenvalues --    3.32274   3.33668   3.34794   3.35779   3.37195
 Alpha virt. eigenvalues --    3.47031   3.47324   3.49096   3.49544   3.49667
 Alpha virt. eigenvalues --    3.50008   3.53614   3.53696   3.60605   3.60869
 Alpha virt. eigenvalues --    3.61257   3.63471   3.64847   3.65348   3.66123
 Alpha virt. eigenvalues --    3.73727   3.73814   3.76302   3.76333   3.76676
 Alpha virt. eigenvalues --    3.77356   3.90983   3.92515   3.93318   4.09789
 Alpha virt. eigenvalues --    4.09946   4.10270   4.14515   4.14525   4.14619
 Alpha virt. eigenvalues --    4.24160   4.24333   4.26050   4.26121   4.26582
 Alpha virt. eigenvalues --    4.26944   4.27994   4.28279   4.49837   4.65640
 Alpha virt. eigenvalues --    4.66906   4.93824   4.95316   4.95726   4.98511
 Alpha virt. eigenvalues --   23.68303  23.81579  23.81845  23.88057  24.08398
 Alpha virt. eigenvalues --   24.08462  24.10882  24.10982  24.11254  24.11492
 Alpha virt. eigenvalues --   24.12968  24.13176  24.20385  24.20574  24.20935
 Alpha virt. eigenvalues --   24.24081  24.24329  24.24375  24.24643  24.24862
 Alpha virt. eigenvalues --   24.31229  24.33807  24.33877  24.34939
          Condensed to atoms (all electrons):
               1          2          3          4          5          6
     1  C   19.350933   0.276920   1.645597  -6.795442  -0.037276   0.539118
     2  C    0.276920  13.174628   0.056330   1.936911   0.328259  -2.677132
     3  C    1.645597   0.056330  11.463750  -2.293331   0.023528  -1.955036
     4  C   -6.795442   1.936911  -2.293331  19.736804  -0.104530  -0.823334
     5  H   -0.037276   0.328259   0.023528  -0.104530   0.507562   0.043155
     6  C    0.539118  -2.677132  -1.955036  -0.823334   0.043155  14.693856
     7  C   -5.471660  -2.574553   1.449970  -7.117898   0.123952  -0.176840
     8  H   -0.038073   0.101942   0.357306   0.078293  -0.002596  -0.042313
     9  C   -2.991435  -0.207990  -0.382937   1.759712   0.064000  -1.485029
    10  C   -0.405285  -2.061985  -1.616931   0.499516  -0.009080   1.091274
    11  C   -1.547312   2.695605  -2.385942   1.716364  -0.136628  -1.312335
    12  C   -0.210082  -2.417074   1.833222  -0.978846   0.075501  -0.461700
    13  C   -0.221903  -1.524608  -1.961523  -0.852312  -0.022135   0.841302
    14  H    0.112828   0.059143   0.038449  -0.026744  -0.002354  -0.015701
    15  C    1.938583   2.226537   0.126895  -0.982733  -0.082307  -0.031503
    16  C   -1.264009  -2.403101  -0.072188  -1.393594   0.037644   0.136610
    17  C    0.146162   0.153975   0.105214   0.201817  -0.011780  -1.517409
    18  H    0.067031  -0.027814  -0.014960  -0.061821   0.002003   0.010060
    19  C   -0.216331   0.112243   0.703313  -0.105921   0.014804  -1.959781
    20  H    0.038338  -0.075143  -0.006604  -0.016347  -0.001302  -0.000004
    21  C    1.281179  -0.084368   2.539857  -0.895017  -0.011050   0.352022
    22  C   -1.162176   0.117725  -2.986062   1.674825   0.009163  -0.116049
    23  C    0.225011   0.342131   0.082155  -0.018461  -0.014329  -0.081861
    24  H   -0.077342  -0.054515  -0.019428   0.075589  -0.001141   0.006212
    25  C   -0.147814   0.078035   0.063946  -0.000757   0.013997  -0.039891
    26  H    0.004663  -0.015502  -0.020827   0.079255  -0.003629   0.011303
    27  C   -0.223549  -0.008131  -0.224202   0.014895  -0.000547  -0.282870
    28  H    0.001774   0.000857   0.006063   0.003537  -0.001081   0.023204
    29  H    0.001713   0.010203   0.003450   0.003989   0.000262   0.029065
    30  C    0.345728   0.074051   0.578633  -0.064235  -0.002215   0.027232
    31  H   -0.025908  -0.024335  -0.001364  -0.011887   0.000032   0.032253
    32  C   -0.082925   0.071866   0.090717   0.191896   0.003150  -0.073575
    33  H    0.002618  -0.012616  -0.012969  -0.084262   0.000225   0.011587
    34  C    0.025495  -0.082064  -0.021949  -0.289296  -0.003317   0.045634
    35  H    0.003940   0.007582   0.000584   0.001346  -0.000690  -0.003701
    36  H    0.000805   0.005093   0.000307   0.002525   0.000629  -0.000979
    37  H   -0.006604  -0.003852  -0.005907   0.000820   0.000258   0.021543
    38  C   -0.066057  -0.029220  -0.162978   0.002371   0.000154   0.033071
    39  H    0.006046   0.001369   0.001359   0.004193  -0.000055  -0.002063
    40  H    0.001197   0.000413   0.003673   0.005338  -0.000034  -0.000682
    41  H    0.001063  -0.005016  -0.000761  -0.007221  -0.000108   0.001181
    42  H    0.000135  -0.000825  -0.003946   0.000521  -0.000004   0.000805
               7          8          9         10         11         12
     1  C   -5.471660  -0.038073  -2.991435  -0.405285  -1.547312  -0.210082
     2  C   -2.574553   0.101942  -0.207990  -2.061985   2.695605  -2.417074
     3  C    1.449970   0.357306  -0.382937  -1.616931  -2.385942   1.833222
     4  C   -7.117898   0.078293   1.759712   0.499516   1.716364  -0.978846
     5  H    0.123952  -0.002596   0.064000  -0.009080  -0.136628   0.075501
     6  C   -0.176840  -0.042313  -1.485029   1.091274  -1.312335  -0.461700
     7  C   19.472988  -0.078898   0.408043  -0.493882  -0.963121   0.966968
     8  H   -0.078898   0.510263   0.095961  -0.034946   0.060736  -0.120470
     9  C    0.408043   0.095961  13.690776  -2.112075   0.192411  -0.296054
    10  C   -0.493882  -0.034946  -2.112075  13.157641   0.042841   0.148494
    11  C   -0.963121   0.060736   0.192411   0.042841  17.440255  -8.710709
    12  C    0.966968  -0.120470  -0.296054   0.148494  -8.710709  16.680107
    13  C    0.708023  -0.060670  -2.427620   1.241492  -0.088726   0.338619
    14  H   -0.091994  -0.001945   0.286911   0.016511   0.001124  -0.002825
    15  C   -1.133333  -0.003832  -2.600752  -0.705578   0.050954  -0.083149
    16  C    1.843766   0.000679   2.564245  -0.514331  -0.038826   0.073604
    17  C   -0.112526   0.011315   0.056674  -0.102105  -0.708320   0.296095
    18  H    0.006462  -0.001804  -0.008666   0.001838   0.409368  -0.021633
    19  C    0.436574   0.030910   0.092152  -0.036604   0.260455  -1.144735
    20  H   -0.038569  -0.010637  -0.030010   0.016490  -0.070895   0.577451
    21  C   -0.336189  -0.066528  -2.995262   0.138464   0.192596  -0.329326
    22  C   -1.588691   0.034630   3.418729  -0.101875  -0.075343   0.138969
    23  C   -0.124508   0.001763   0.138563  -1.658123  -0.042352   0.006843
    24  H    0.005850  -0.000132  -0.021531   0.009194   0.024210  -0.003796
    25  C    0.235808   0.001889   0.377292  -1.654908   0.031657  -0.018900
    26  H   -0.086075   0.000112  -0.057145   0.025841  -0.003145   0.003997
    27  C   -0.074999  -0.004556  -0.035979   0.043992  -0.362814  -0.026086
    28  H    0.000948   0.000313   0.000189  -0.002696  -0.085656   0.005193
    29  H    0.007208   0.000498   0.001968  -0.001218   0.027419  -0.122167
    30  C   -0.244773   0.034782   0.136090  -0.038938   0.050612  -0.106559
    31  H    0.015276  -0.012178  -0.072918   0.015484   0.005128   0.000543
    32  C    0.158339   0.008265   0.166928  -0.098608  -0.009301   0.019825
    33  H    0.088325  -0.002860  -0.028492  -0.010121   0.003605  -0.004170
    34  C    0.021653  -0.000648  -0.098549  -0.182976  -0.019356   0.008185
    35  H    0.000438   0.000008   0.006194   0.019014   0.001762  -0.000645
    36  H    0.004726  -0.000002   0.007472   0.014366   0.000341  -0.000246
    37  H   -0.000005  -0.000355  -0.000907   0.001207  -0.008787   0.022214
    38  C   -0.217370  -0.001729  -0.015256   0.036864   0.000600  -0.004054
    39  H    0.002515   0.000538   0.010293  -0.001137   0.000303  -0.000440
    40  H   -0.000108   0.000376   0.003241  -0.002161   0.000011   0.000061
    41  H    0.000955  -0.000014  -0.005967   0.021443  -0.000451   0.000202
    42  H   -0.005742  -0.000290  -0.004309   0.001109   0.000029  -0.000063
              13         14         15         16         17         18
     1  C   -0.221903   0.112828   1.938583  -1.264009   0.146162   0.067031
     2  C   -1.524608   0.059143   2.226537  -2.403101   0.153975  -0.027814
     3  C   -1.961523   0.038449   0.126895  -0.072188   0.105214  -0.014960
     4  C   -0.852312  -0.026744  -0.982733  -1.393594   0.201817  -0.061821
     5  H   -0.022135  -0.002354  -0.082307   0.037644  -0.011780   0.002003
     6  C    0.841302  -0.015701  -0.031503   0.136610  -1.517409   0.010060
     7  C    0.708023  -0.091994  -1.133333   1.843766  -0.112526   0.006462
     8  H   -0.060670  -0.001945  -0.003832   0.000679   0.011315  -0.001804
     9  C   -2.427620   0.286911  -2.600752   2.564245   0.056674  -0.008666
    10  C    1.241492   0.016511  -0.705578  -0.514331  -0.102105   0.001838
    11  C   -0.088726   0.001124   0.050954  -0.038826  -0.708320   0.409368
    12  C    0.338619  -0.002825  -0.083149   0.073604   0.296095  -0.021633
    13  C   14.614066   0.060902   0.237528  -0.269330  -0.075931   0.012358
    14  H    0.060902   0.500872   0.064284  -0.116048   0.003156  -0.000083
    15  C    0.237528   0.064284  13.845327  -6.006310  -0.008586   0.011244
    16  C   -0.269330  -0.116048  -6.006310  13.953876  -0.002708  -0.001610
    17  C   -0.075931   0.003156  -0.008586  -0.002708   7.697890  -0.058710
    18  H    0.012358  -0.000083   0.011244  -0.001610  -0.058710   0.486784
    19  C    0.043790  -0.002481   0.027256  -0.010609  -0.591877  -0.007294
    20  H    0.032435   0.000271  -0.003832   0.003828   0.002382  -0.000028
    21  C   -0.833046   0.088421   0.136846  -0.180126   0.022989  -0.004203
    22  C   -1.274530  -0.161620  -0.165749   0.305793  -0.009235   0.003498
    23  C   -0.043514   0.008036  -0.237123  -0.088948  -0.023130   0.001041
    24  H    0.013236  -0.002743   0.446270  -0.018299  -0.005046  -0.004096
    25  C   -0.080783  -0.017408  -0.289567  -0.079208   0.005936   0.000535
    26  H   -0.000733  -0.001412  -0.006988   0.423801  -0.000738   0.000017
    27  C    0.029076   0.000176  -0.020883   0.007190   0.455994   0.009082
    28  H   -0.000739  -0.000017   0.001514  -0.000370   0.412929  -0.009865
    29  H   -0.001772  -0.000058   0.000479  -0.000185   0.004631  -0.000304
    30  C   -2.079085   0.013817  -0.010377   0.028482   0.001242  -0.000414
    31  H   -0.008384  -0.001655   0.005116  -0.005185  -0.001449   0.000140
    32  C   -1.546368  -0.010675  -0.000884  -0.013237   0.001426  -0.000145
    33  H   -0.000299  -0.001594  -0.008497   0.027431  -0.000124   0.000191
    34  C    0.041478   0.000948  -0.184663  -0.417671  -0.004420  -0.000578
    35  H   -0.001059   0.000346  -0.085685   0.004943   0.000569   0.000378
    36  H   -0.003491  -0.000951  -0.002883  -0.078648   0.000024   0.000033
    37  H    0.000759  -0.000003  -0.000568   0.000189  -0.062255   0.001250
    38  C   -0.181689  -0.003117   0.005683  -0.015948  -0.000558   0.000034
    39  H    0.018577   0.000301  -0.000227   0.000528   0.000073   0.000013
    40  H    0.010468  -0.000843  -0.000207   0.000954   0.000007  -0.000004
    41  H    0.001139   0.000071   0.011200  -0.002186  -0.000118  -0.000029
    42  H    0.025919   0.000223   0.000176  -0.000534  -0.000012   0.000003
              19         20         21         22         23         24
     1  C   -0.216331   0.038338   1.281179  -1.162176   0.225011  -0.077342
     2  C    0.112243  -0.075143  -0.084368   0.117725   0.342131  -0.054515
     3  C    0.703313  -0.006604   2.539857  -2.986062   0.082155  -0.019428
     4  C   -0.105921  -0.016347  -0.895017   1.674825  -0.018461   0.075589
     5  H    0.014804  -0.001302  -0.011050   0.009163  -0.014329  -0.001141
     6  C   -1.959781  -0.000004   0.352022  -0.116049  -0.081861   0.006212
     7  C    0.436574  -0.038569  -0.336189  -1.588691  -0.124508   0.005850
     8  H    0.030910  -0.010637  -0.066528   0.034630   0.001763  -0.000132
     9  C    0.092152  -0.030010  -2.995262   3.418729   0.138563  -0.021531
    10  C   -0.036604   0.016490   0.138464  -0.101875  -1.658123   0.009194
    11  C    0.260455  -0.070895   0.192596  -0.075343  -0.042352   0.024210
    12  C   -1.144735   0.577451  -0.329326   0.138969   0.006843  -0.003796
    13  C    0.043790   0.032435  -0.833046  -1.274530  -0.043514   0.013236
    14  H   -0.002481   0.000271   0.088421  -0.161620   0.008036  -0.002743
    15  C    0.027256  -0.003832   0.136846  -0.165749  -0.237123   0.446270
    16  C   -0.010609   0.003828  -0.180126   0.305793  -0.088948  -0.018299
    17  C   -0.591877   0.002382   0.022989  -0.009235  -0.023130  -0.005046
    18  H   -0.007294  -0.000028  -0.004203   0.003498   0.001041  -0.004096
    19  C    8.482692  -0.140465  -0.123707   0.058810   0.008479   0.001150
    20  H   -0.140465   0.484817   0.002226  -0.000095  -0.001086   0.000059
    21  C   -0.123707   0.002226  15.963069  -8.541808  -0.016425   0.005508
    22  C    0.058810  -0.000095  -8.541808  17.655300   0.033084  -0.005377
    23  C    0.008479  -0.001086  -0.016425   0.033084   7.714961  -0.066868
    24  H    0.001150   0.000059   0.005508  -0.005377  -0.066868   0.501072
    25  C   -0.001316  -0.000408   0.008648  -0.030260  -0.519734  -0.015533
    26  H    0.000029   0.000258  -0.007503   0.030451  -0.014227   0.000747
    27  C    0.197320   0.028022   0.000920  -0.002588  -0.005805   0.000341
    28  H    0.011572  -0.000154   0.000144  -0.000005   0.000375   0.000238
    29  H    0.441721  -0.012183  -0.000660   0.000586   0.000065   0.000032
    30  C   -0.007888  -0.006713  -0.389126  -0.061401  -0.001081  -0.000146
    31  H   -0.006204   0.002130   0.542461  -0.057918  -0.000290   0.000335
    32  C    0.000066  -0.000602   0.269730  -0.605265   0.005352  -0.000821
    33  H   -0.000421   0.000238  -0.025768   0.423670   0.001086  -0.000048
    34  C   -0.000100   0.000275   0.006551  -0.019442   0.392405   0.023916
    35  H   -0.000032  -0.000007  -0.000287   0.000533   0.421286  -0.013112
    36  H    0.000021  -0.000014  -0.000524   0.001956   0.015044  -0.000651
    37  H   -0.082666   0.001218   0.000014  -0.000011  -0.000134  -0.000011
    38  C   -0.000594   0.000454  -0.338501  -0.272047   0.000081   0.000164
    39  H    0.000103  -0.000099  -0.104331   0.020949   0.000012  -0.000014
    40  H   -0.000012  -0.000013   0.002736  -0.073880  -0.000025   0.000003
    41  H    0.000000   0.000006   0.000162  -0.000482  -0.076832   0.002164
    42  H   -0.000016   0.000043   0.015423  -0.012974   0.000003   0.000004
              25         26         27         28         29         30
     1  C   -0.147814   0.004663  -0.223549   0.001774   0.001713   0.345728
     2  C    0.078035  -0.015502  -0.008131   0.000857   0.010203   0.074051
     3  C    0.063946  -0.020827  -0.224202   0.006063   0.003450   0.578633
     4  C   -0.000757   0.079255   0.014895   0.003537   0.003989  -0.064235
     5  H    0.013997  -0.003629  -0.000547  -0.001081   0.000262  -0.002215
     6  C   -0.039891   0.011303  -0.282870   0.023204   0.029065   0.027232
     7  C    0.235808  -0.086075  -0.074999   0.000948   0.007208  -0.244773
     8  H    0.001889   0.000112  -0.004556   0.000313   0.000498   0.034782
     9  C    0.377292  -0.057145  -0.035979   0.000189   0.001968   0.136090
    10  C   -1.654908   0.025841   0.043992  -0.002696  -0.001218  -0.038938
    11  C    0.031657  -0.003145  -0.362814  -0.085656   0.027419   0.050612
    12  C   -0.018900   0.003997  -0.026086   0.005193  -0.122167  -0.106559
    13  C   -0.080783  -0.000733   0.029076  -0.000739  -0.001772  -2.079085
    14  H   -0.017408  -0.001412   0.000176  -0.000017  -0.000058   0.013817
    15  C   -0.289567  -0.006988  -0.020883   0.001514   0.000479  -0.010377
    16  C   -0.079208   0.423801   0.007190  -0.000370  -0.000185   0.028482
    17  C    0.005936  -0.000738   0.455994   0.412929   0.004631   0.001242
    18  H    0.000535   0.000017   0.009082  -0.009865  -0.000304  -0.000414
    19  C   -0.001316   0.000029   0.197320   0.011572   0.441721  -0.007888
    20  H   -0.000408   0.000258   0.028022  -0.000154  -0.012183  -0.006713
    21  C    0.008648  -0.007503   0.000920   0.000144  -0.000660  -0.389126
    22  C   -0.030260   0.030451  -0.002588  -0.000005   0.000586  -0.061401
    23  C   -0.519734  -0.014227  -0.005805   0.000375   0.000065  -0.001081
    24  H   -0.015533   0.000747   0.000341   0.000238   0.000032  -0.000146
    25  C    7.720246  -0.062781   0.000004  -0.000009   0.000016   0.007199
    26  H   -0.062781   0.497649   0.000126   0.000003  -0.000010   0.001745
    27  C    0.000004   0.000126   6.546934  -0.056714  -0.076933  -0.000745
    28  H   -0.000009   0.000003  -0.056714   0.472411   0.000819   0.000008
    29  H    0.000016  -0.000010  -0.076933   0.000819   0.475410   0.000096
    30  C    0.007199   0.001745  -0.000745   0.000008   0.000096   8.161116
    31  H   -0.000891   0.000006   0.000912  -0.000017  -0.000088  -0.101158
    32  C   -0.019032  -0.006138  -0.000482   0.000004   0.000032  -0.584105
    33  H    0.001920  -0.004480   0.000032  -0.000005   0.000010  -0.015428
    34  C    0.450477   0.021366  -0.000090   0.000048  -0.000003   0.000027
    35  H    0.014673  -0.000597   0.000041  -0.000026  -0.000001   0.000016
    36  H    0.423279  -0.012622  -0.000003  -0.000001   0.000000  -0.000057
    37  H    0.000002   0.000003   0.461139  -0.010340  -0.010348  -0.000015
    38  C   -0.005017   0.000065   0.000143   0.000002   0.000005   0.374739
    39  H    0.000049   0.000042  -0.000015  -0.000001   0.000002   0.434905
    40  H    0.000431   0.000288   0.000001   0.000000  -0.000001   0.014937
    41  H   -0.070310   0.001985   0.000004   0.000000  -0.000000   0.000001
    42  H   -0.000126  -0.000014   0.000005  -0.000000  -0.000001  -0.080711
              31         32         33         34         35         36
     1  C   -0.025908  -0.082925   0.002618   0.025495   0.003940   0.000805
     2  C   -0.024335   0.071866  -0.012616  -0.082064   0.007582   0.005093
     3  C   -0.001364   0.090717  -0.012969  -0.021949   0.000584   0.000307
     4  C   -0.011887   0.191896  -0.084262  -0.289296   0.001346   0.002525
     5  H    0.000032   0.003150   0.000225  -0.003317  -0.000690   0.000629
     6  C    0.032253  -0.073575   0.011587   0.045634  -0.003701  -0.000979
     7  C    0.015276   0.158339   0.088325   0.021653   0.000438   0.004726
     8  H   -0.012178   0.008265  -0.002860  -0.000648   0.000008  -0.000002
     9  C   -0.072918   0.166928  -0.028492  -0.098549   0.006194   0.007472
    10  C    0.015484  -0.098608  -0.010121  -0.182976   0.019014   0.014366
    11  C    0.005128  -0.009301   0.003605  -0.019356   0.001762   0.000341
    12  C    0.000543   0.019825  -0.004170   0.008185  -0.000645  -0.000246
    13  C   -0.008384  -1.546368  -0.000299   0.041478  -0.001059  -0.003491
    14  H   -0.001655  -0.010675  -0.001594   0.000948   0.000346  -0.000951
    15  C    0.005116  -0.000884  -0.008497  -0.184663  -0.085685  -0.002883
    16  C   -0.005185  -0.013237   0.027431  -0.417671   0.004943  -0.078648
    17  C   -0.001449   0.001426  -0.000124  -0.004420   0.000569   0.000024
    18  H    0.000140  -0.000145   0.000191  -0.000578   0.000378   0.000033
    19  C   -0.006204   0.000066  -0.000421  -0.000100  -0.000032   0.000021
    20  H    0.002130  -0.000602   0.000238   0.000275  -0.000007  -0.000014
    21  C    0.542461   0.269730  -0.025768   0.006551  -0.000287  -0.000524
    22  C   -0.057918  -0.605265   0.423670  -0.019442   0.000533   0.001956
    23  C   -0.000290   0.005352   0.001086   0.392405   0.421286   0.015044
    24  H    0.000335  -0.000821  -0.000048   0.023916  -0.013112  -0.000651
    25  C   -0.000891  -0.019032   0.001920   0.450477   0.014673   0.423279
    26  H    0.000006  -0.006138  -0.004480   0.021366  -0.000597  -0.012622
    27  C    0.000912  -0.000482   0.000032  -0.000090   0.000041  -0.000003
    28  H   -0.000017   0.000004  -0.000005   0.000048  -0.000026  -0.000001
    29  H   -0.000088   0.000032   0.000010  -0.000003  -0.000001   0.000000
    30  C   -0.101158  -0.584105  -0.015428   0.000027   0.000016  -0.000057
    31  H    0.483923  -0.002614   0.000722   0.000203  -0.000013  -0.000003
    32  C   -0.002614   7.645655  -0.036559  -0.004627   0.000034   0.000720
    33  H    0.000722  -0.036559   0.495795  -0.000772   0.000053   0.000461
    34  C    0.000203  -0.004627  -0.000772   6.394289  -0.067746  -0.065356
    35  H   -0.000013   0.000034   0.000053  -0.067746   0.476418   0.001234
    36  H   -0.000003   0.000720   0.000461  -0.065356   0.001234   0.476505
    37  H    0.000048  -0.000011   0.000003   0.000002  -0.000000  -0.000000
    38  C    0.022727   0.423801   0.010892  -0.000127  -0.000002   0.000053
    39  H   -0.011127   0.007511  -0.000455  -0.000001   0.000000  -0.000002
    40  H   -0.000216   0.410632  -0.009511   0.000048  -0.000001  -0.000029
    41  H    0.000005  -0.000128  -0.000049   0.468089  -0.012269  -0.011985
    42  H    0.001095  -0.059421   0.001137   0.000001  -0.000000   0.000000
              37         38         39         40         41         42
     1  C   -0.006604  -0.066057   0.006046   0.001197   0.001063   0.000135
     2  C   -0.003852  -0.029220   0.001369   0.000413  -0.005016  -0.000825
     3  C   -0.005907  -0.162978   0.001359   0.003673  -0.000761  -0.003946
     4  C    0.000820   0.002371   0.004193   0.005338  -0.007221   0.000521
     5  H    0.000258   0.000154  -0.000055  -0.000034  -0.000108  -0.000004
     6  C    0.021543   0.033071  -0.002063  -0.000682   0.001181   0.000805
     7  C   -0.000005  -0.217370   0.002515  -0.000108   0.000955  -0.005742
     8  H   -0.000355  -0.001729   0.000538   0.000376  -0.000014  -0.000290
     9  C   -0.000907  -0.015256   0.010293   0.003241  -0.005967  -0.004309
    10  C    0.001207   0.036864  -0.001137  -0.002161   0.021443   0.001109
    11  C   -0.008787   0.000600   0.000303   0.000011  -0.000451   0.000029
    12  C    0.022214  -0.004054  -0.000440   0.000061   0.000202  -0.000063
    13  C    0.000759  -0.181689   0.018577   0.010468   0.001139   0.025919
    14  H   -0.000003  -0.003117   0.000301  -0.000843   0.000071   0.000223
    15  C   -0.000568   0.005683  -0.000227  -0.000207   0.011200   0.000176
    16  C    0.000189  -0.015948   0.000528   0.000954  -0.002186  -0.000534
    17  C   -0.062255  -0.000558   0.000073   0.000007  -0.000118  -0.000012
    18  H    0.001250   0.000034   0.000013  -0.000004  -0.000029   0.000003
    19  C   -0.082666  -0.000594   0.000103  -0.000012   0.000000  -0.000016
    20  H    0.001218   0.000454  -0.000099  -0.000013   0.000006   0.000043
    21  C    0.000014  -0.338501  -0.104331   0.002736   0.000162   0.015423
    22  C   -0.000011  -0.272047   0.020949  -0.073880  -0.000482  -0.012974
    23  C   -0.000134   0.000081   0.000012  -0.000025  -0.076832   0.000003
    24  H   -0.000011   0.000164  -0.000014   0.000003   0.002164   0.000004
    25  C    0.000002  -0.005017   0.000049   0.000431  -0.070310  -0.000126
    26  H    0.000003   0.000065   0.000042   0.000288   0.001985  -0.000014
    27  C    0.461139   0.000143  -0.000015   0.000001   0.000004   0.000005
    28  H   -0.010340   0.000002  -0.000001   0.000000   0.000000  -0.000000
    29  H   -0.010348   0.000005   0.000002  -0.000001  -0.000000  -0.000001
    30  C   -0.000015   0.374739   0.434905   0.014937   0.000001  -0.080711
    31  H    0.000048   0.022727  -0.011127  -0.000216   0.000005   0.001095
    32  C   -0.000011   0.423801   0.007511   0.410632  -0.000128  -0.059421
    33  H    0.000003   0.010892  -0.000455  -0.009511  -0.000049   0.001137
    34  C    0.000002  -0.000127  -0.000001   0.000048   0.468089   0.000001
    35  H   -0.000000  -0.000002   0.000000  -0.000001  -0.012269  -0.000000
    36  H   -0.000000   0.000053  -0.000002  -0.000029  -0.011985   0.000000
    37  H    0.485844   0.000006  -0.000001  -0.000000   0.000000   0.000000
    38  C    0.000006   6.484041  -0.073674  -0.055655   0.000002   0.461642
    39  H   -0.000001  -0.073674   0.475432   0.001033  -0.000000  -0.010629
    40  H   -0.000000  -0.055655   0.001033   0.472611   0.000000  -0.010386
    41  H    0.000000   0.000002  -0.000000   0.000000   0.488499   0.000000
    42  H    0.000000   0.461642  -0.010629  -0.010386   0.000000   0.486346
 Mulliken charges:
               1
     1  C    0.974309
     2  C   -1.541977
     3  C   -1.024472
     4  C    0.933470
     5  H    0.199908
     6  C    1.109300
     7  C    0.972948
     8  H    0.154897
     9  C   -1.598960
    10  C    1.302490
    11  C   -0.638365
    12  C   -0.132364
    13  C    1.289083
    14  H    0.205483
    15  C   -0.479675
    16  C   -0.420355
    17  C   -0.283463
    18  H    0.200695
    19  C   -0.484405
    20  H    0.224270
    21  C   -0.286211
    22  C   -0.603787
    23  C   -0.362918
    24  H    0.194356
    25  C   -0.381388
    26  H    0.200816
    27  C   -0.388356
    28  H    0.225551
    29  H    0.216253
    30  C   -0.490286
    31  H    0.217260
    32  C   -0.320428
    33  H    0.189502
    34  C   -0.437337
    35  H    0.224480
    36  H    0.222851
    37  H    0.196261
    38  C   -0.414002
    39  H    0.218125
    40  H    0.225308
    41  H    0.195754
    42  H    0.195381
 Sum of Mulliken charges =  -0.00000
 Mulliken charges with hydrogens summed into heavy atoms:
               1
     1  C    0.974309
     2  C   -1.342070
     3  C   -0.869575
     4  C    0.933470
     6  C    1.109300
     7  C    0.972948
     9  C   -1.393477
    10  C    1.302490
    11  C   -0.437670
    12  C    0.091906
    13  C    1.289083
    15  C   -0.285319
    16  C   -0.219538
    17  C   -0.057912
    19  C   -0.268152
    21  C   -0.068951
    22  C   -0.414286
    23  C   -0.138438
    25  C   -0.158537
    27  C   -0.192094
    30  C   -0.272161
    32  C   -0.095120
    34  C   -0.241583
    38  C   -0.218622
 Electronic spatial extent (au):  <R**2>=          10005.8231
 Charge=             -0.0000 electrons
 Dipole moment (field-independent basis, Debye):
    X=             -0.0063    Y=             -0.0087    Z=              0.0005  Tot=              0.0108
 Quadrupole moment (field-independent basis, Debye-Ang):
   XX=           -126.3214   YY=           -127.2058   ZZ=           -140.7298
   XY=             -0.0465   XZ=              6.7771   YZ=             -2.6841
 Traceless Quadrupole moment (field-independent basis, Debye-Ang):
   XX=              5.0976   YY=              4.2132   ZZ=             -9.3108
   XY=             -0.0465   XZ=              6.7771   YZ=             -2.6841
 Octapole moment (field-independent basis, Debye-Ang**2):
  XXX=            -30.5772  YYY=             20.6698  ZZZ=              0.3548  XYY=             35.0045
  XXY=            -16.7592  XXZ=             24.9985  XZZ=             -4.2101  YZZ=             -3.7215
  YYZ=            -25.3775  XYZ=             28.6699
 Hexadecapole moment (field-independent basis, Debye-Ang**3):
 XXXX=          -6257.1119 YYYY=          -6246.5594 ZZZZ=           -555.5882 XXXY=             -3.2559
 XXXZ=            145.7133 YYYX=             -5.5680 YYYZ=             14.1678 ZZZX=             18.6720
 ZZZY=            -10.9057 XXYY=          -2096.3078 XXZZ=          -1224.4227 YYZZ=          -1220.5596
 XXYZ=            -70.7156 YYXZ=              8.6549 ZZXY=              7.9413
 N-N= 1.732146149525D+03 E-N=-5.610723591289D+03  KE= 9.212945998848D+02
 No NMR shielding tensors so no spin-rotation constants.
 Leave Link  601 at Mon Nov 14 15:21:59 2022, MaxMem= 16106127360 cpu:              36.8 elap:               1.3
 (Enter /opt/ap/G16/B01/g16/l9999.exe)
 1\1\GINC-N59\SP\RwB97XD\6-311++G(d,p)\C24H18\ROOT\14-Nov-2022\0\\#P wB
 97XD/6-311++G(d,p) scf=maxcycle=512\\_conf028.gjf nmol_natom 1_42\\0,1
 \C\C,1,1.39412829\C,1,1.39435449,2,118.86443127\C,2,1.39416084,1,121.1
 529487,3,0.03668482,0\H,2,1.08488355,1,119.42236619,3,-179.97409048,0\
 C,1,1.48467131,2,120.55714816,4,179.25839056,0\C,3,1.39437784,1,121.11
 776116,2,-0.05351271,0\H,3,1.08487775,1,119.41869036,2,177.23008049,0\
 C,4,1.39432447,2,118.86473838,1,0.01008406,0\C,4,1.48466627,2,120.5464
 188,1,179.19454736,0\C,6,1.3968498,1,120.7843492,2,50.,0\C,6,1.3968682
 ,1,120.67653841,2,-130.,0\C,7,1.48449863,3,120.56496838,1,-179.9632580
 4,0\H,9,1.0848792,4,119.41824946,2,177.22245984,0\C,10,1.39685361,4,12
 0.76946845,2,-42.52368674,0\C,10,1.39686289,4,120.69448769,2,137.43107
 516,0\C,11,1.38888939,6,120.7380073,1,179.94058542,0\H,11,1.0847641,6,
 119.46912378,1,-1.41050605,0\C,12,1.38882428,6,120.76493111,1,-179.950
 82712,0\H,12,1.08482758,6,119.44182626,1,-1.23602505,0\C,13,1.39682899
 ,7,120.74134419,3,42.89023273,0\C,13,1.39683158,7,120.7379111,3,-137.1
 2494058,0\C,15,1.38888263,10,120.742191,4,179.9460119,0\H,15,1.0847633
 4,10,119.47085903,4,-1.40606944,0\C,16,1.38886088,10,120.76338989,4,-1
 79.95592713,0\H,16,1.08483431,10,119.44215232,4,-1.23439681,0\C,17,1.3
 9007919,11,120.20743432,6,0.00349958,0\H,17,1.0843506,11,119.71318733,
 6,179.5011609,0\H,19,1.08435858,12,119.73823132,6,179.53683762,0\C,21,
 1.38882373,13,120.76699356,7,179.99297883,0\H,21,1.0847938,13,119.4352
 623,7,1.32183327,0\C,22,1.38881869,13,120.76647403,7,-179.97118338,0\H
 ,22,1.08479982,13,119.43203605,7,1.34657928,0\C,23,1.39007007,15,120.2
 0732995,10,0.00573957,0\H,23,1.08434813,15,119.71220819,10,179.5072436
 8,0\H,25,1.08436328,16,119.73539424,10,179.53636455,0\H,27,1.08412515,
 17,120.21790854,11,179.98397203,0\C,30,1.39008059,21,120.18795226,13,-
 0.02169059,0\H,30,1.08435324,21,119.73787119,13,-179.52151214,0\H,32,1
 .0843543,22,119.737043,13,-179.52886928,0\H,34,1.08412314,23,120.22152
 803,15,179.98800213,0\H,38,1.08411439,30,120.21547163,21,-179.98600656
 ,0\\Version=ES64L-G16RevB.01\State=1-A\HF=-925.3114477\RMSD=8.693e-09\
 Dipole=-0.0010698,-0.0001754,-0.0041072\Quadrupole=3.3058368,-6.500690
 5,3.1948537,-5.8012702,0.2401727,0.0932024\PG=C01 [X(C24H18)]\\@


 LORD, MAN... WERE YE BUT WHYLES WHERE I AM, 
 THE GENTILES YE WAD NE'ER ENVY 'EM.        
 IT'S TRUE, THEY NEEDNA STARVE OR SWEAT,     
 THRO' WINTER'S CAULD OR SIMMER'S HEAT...  
 THEY'VE NAE SAIR WARK TO CRAZE THEIR BANES, 
 AND FILL AULD AGE WITH GRIPS AN' GRANES...  
                                             
 BUT HUMAN BODIES ARE SIC FOOLS              
 FOR A' THEIR COLLEGES AND SCHOOLS,           
 THAT WHEN NAE REAL ILLS PERPLEX THEM,       
 THEY MAK ENOW THEMSELVES TO VEX THEM,       
 AN' AYE THE LESS THEY HAE TO STURT THEM,    
 IN LIKE PROPORTION LESS WILL HURT THEM....  
                                             
                (ROBERT BURNS 'THE TWA DOGS')
 Job cpu time:       0 days  1 hours 18 minutes 57.8 seconds.
 Elapsed time:       0 days  0 hours  2 minutes 29.1 seconds.
 File lengths (MBytes):  RWF=    224 Int=      0 D2E=      0 Chk=     26 Scr=      1
 Normal termination of Gaussian 16 at Mon Nov 14 15:21:59 2022.
