 Entering Gaussian System, Link 0=g16
 Input=_conf001.gjf
 Output=_conf001.log
 Initial command:
 /opt/ap/G16/B01/g16/l1.exe "/tmp2/scr/Gau-10010.inp" -scrdir="/tmp2/scr/"
 Entering Link 1 = /opt/ap/G16/B01/g16/l1.exe PID=     10011.
  
 Copyright (c) 1988-2017, Gaussian, Inc.  All Rights Reserved.
  
 This is part of the Gaussian(R) 16 program.  It is based on
 the Gaussian(R) 09 system (copyright 2009, Gaussian, Inc.),
 the Gaussian(R) 03 system (copyright 2003, Gaussian, Inc.),
 the Gaussian(R) 98 system (copyright 1998, Gaussian, Inc.),
 the Gaussian(R) 94 system (copyright 1995, Gaussian, Inc.),
 the Gaussian 92(TM) system (copyright 1992, Gaussian, Inc.),
 the Gaussian 90(TM) system (copyright 1990, Gaussian, Inc.),
 the Gaussian 88(TM) system (copyright 1988, Gaussian, Inc.),
 the Gaussian 86(TM) system (copyright 1986, Carnegie Mellon
 University), and the Gaussian 82(TM) system (copyright 1983,
 Carnegie Mellon University). Gaussian is a federally registered
 trademark of Gaussian, Inc.
  
 This software contains proprietary and confidential information,
 including trade secrets, belonging to Gaussian, Inc.
  
 This software is provided under written license and may be
 used, copied, transmitted, or stored only in accord with that
 written license.
  
 The following legend is applicable only to US Government
 contracts under FAR:
  
                    RESTRICTED RIGHTS LEGEND
  
 Use, reproduction and disclosure by the US Government is
 subject to restrictions as set forth in subparagraphs (a)
 and (c) of the Commercial Computer Software - Restricted
 Rights clause in FAR 52.227-19.
  
 Gaussian, Inc.
 340 Quinnipiac St., Bldg. 40, Wallingford CT 06492
  
  
 ---------------------------------------------------------------
 Warning -- This program may not be used in any manner that
 competes with the business of Gaussian, Inc. or will provide
 assistance to any competitor of Gaussian, Inc.  The licensee
 of this program is prohibited from giving any competitor of
 Gaussian, Inc. access to this program.  By using this program,
 the user acknowledges that Gaussian, Inc. is engaged in the
 business of creating and licensing software in the field of
 computational chemistry and represents and warrants to the
 licensee that it is not a competitor of Gaussian, Inc. and that
 it will not use this program in any manner prohibited above.
 ---------------------------------------------------------------
  

 Cite this work as:
 Gaussian 16, Revision B.01,
 M. J. Frisch, G. W. Trucks, H. B. Schlegel, G. E. Scuseria, 
 M. A. Robb, J. R. Cheeseman, G. Scalmani, V. Barone, 
 G. A. Petersson, H. Nakatsuji, X. Li, M. Caricato, A. V. Marenich, 
 J. Bloino, B. G. Janesko, R. Gomperts, B. Mennucci, H. P. Hratchian, 
 J. V. Ortiz, A. F. Izmaylov, J. L. Sonnenberg, D. Williams-Young, 
 F. Ding, F. Lipparini, F. Egidi, J. Goings, B. Peng, A. Petrone, 
 T. Henderson, D. Ranasinghe, V. G. Zakrzewski, J. Gao, N. Rega, 
 G. Zheng, W. Liang, M. Hada, M. Ehara, K. Toyota, R. Fukuda, 
 J. Hasegawa, M. Ishida, T. Nakajima, Y. Honda, O. Kitao, H. Nakai, 
 T. Vreven, K. Throssell, J. A. Montgomery, Jr., J. E. Peralta, 
 F. Ogliaro, M. J. Bearpark, J. J. Heyd, E. N. Brothers, K. N. Kudin, 
 V. N. Staroverov, T. A. Keith, R. Kobayashi, J. Normand, 
 K. Raghavachari, A. P. Rendell, J. C. Burant, S. S. Iyengar, 
 J. Tomasi, M. Cossi, J. M. Millam, M. Klene, C. Adamo, R. Cammi, 
 J. W. Ochterski, R. L. Martin, K. Morokuma, O. Farkas, 
 J. B. Foresman, and D. J. Fox, Gaussian, Inc., Wallingford CT, 2016.
 
 ******************************************
 Gaussian 16:  ES64L-G16RevB.01 20-Dec-2017
                14-Nov-2022 
 ******************************************
 %nprocshared=32
 Will use up to   32 processors via shared memory.
 %mem=120GB
 %chk=_conf001.chk
 ----------------------------------------
 #P wB97XD/6-311++G(d,p) scf=maxcycle=512
 ----------------------------------------
 1/38=1,172=1/1;
 2/12=2,17=6,18=5,40=1/2;
 3/5=4,6=6,7=1111,11=2,25=1,30=1,74=-58/1,2,3;
 4//1;
 5/5=2,7=512,38=5/2;
 6/7=2,8=2,9=2,10=2,28=1/1;
 99/5=1,9=1/99;
 Leave Link    1 at Mon Nov 14 15:01:51 2022, MaxMem= 16106127360 cpu:               2.8 elap:               0.1
 (Enter /opt/ap/G16/B01/g16/l101.exe)
 ----------------------------
 _conf001.gjf nmol_natom 1_42
 ----------------------------
 Symbolic Z-matrix:
 Charge =  0 Multiplicity = 1
 C
 C                    1     1.39413 
 C                    1     1.39435  2     118.86443 
 C                    2     1.39416  1     121.15295  3     0.03668  0
 H                    2     1.08488  1     119.42237  3    -179.97409  0
 C                    1     1.48467  2     120.55715  4     179.25839  0
 C                    3     1.39438  1     121.11776  2    -0.05351  0
 H                    3     1.08488  1     119.41869  2     177.23008  0
 C                    4     1.39432  2     118.86474  1     0.01008  0
 C                    4     1.48467  2     120.54642  1     179.19455  0
 C                    6     1.39685  1     120.78435  2    -85.      0
 C                    6     1.39687  1     120.67654  2     95.      0
 C                    7     1.4845   3     120.56497  1    -179.96326  0
 H                    9     1.08488  4     119.41825  2     177.22246  0
 C                    10    1.39685  4     120.76947  2    -42.52369  0
 C                    10    1.39686  4     120.69449  2     137.43108  0
 C                    11    1.38889  6     120.73801  1     179.94059  0
 H                    11    1.08476  6     119.46912  1    -1.41051  0
 C                    12    1.38882  6     120.76493  1    -179.95083  0
 H                    12    1.08483  6     119.44183  1    -1.23603  0
 C                    13    1.39683  7     120.74134  3     42.89023  0
 C                    13    1.39683  7     120.73791  3    -137.12494  0
 C                    15    1.38888  10    120.74219  4     179.94601  0
 H                    15    1.08476  10    119.47086  4    -1.40607  0
 C                    16    1.38886  10    120.76339  4    -179.95593  0
 H                    16    1.08483  10    119.44215  4    -1.2344   0
 C                    17    1.39008  11    120.20743  6     0.0035   0
 H                    17    1.08435  11    119.71319  6     179.50116  0
 H                    19    1.08436  12    119.73823  6     179.53684  0
 C                    21    1.38882  13    120.76699  7     179.99298  0
 H                    21    1.08479  13    119.43526  7     1.32183  0
 C                    22    1.38882  13    120.76647  7    -179.97118  0
 H                    22    1.0848   13    119.43204  7     1.34658  0
 C                    23    1.39007  15    120.20733  10    0.00574  0
 H                    23    1.08435  15    119.71221  10    179.50724  0
 H                    25    1.08436  16    119.73539  10    179.53636  0
 H                    27    1.08413  17    120.21791  11    179.98397  0
 C                    30    1.39008  21    120.18795  13   -0.02169  0
 H                    30    1.08435  21    119.73787  13   -179.52151  0
 H                    32    1.08435  22    119.73704  13   -179.52887  0
 H                    34    1.08412  23    120.22153  15    179.988  0
 H                    38    1.08411  30    120.21547  21   -179.98601  0
 
 ITRead=  0  0  0  0  0  0  0  0  0  0  0  0  0  0  0  0  0  0  0  0
 ITRead=  0  0  0  0  0  0  0  0  0  0  0  0  0  0  0  0  0  0  0  0
 ITRead=  0  0
 MicOpt= -1 -1 -1 -1 -1 -1 -1 -1 -1 -1 -1 -1 -1 -1 -1 -1 -1 -1 -1 -1
 MicOpt= -1 -1 -1 -1 -1 -1 -1 -1 -1 -1 -1 -1 -1 -1 -1 -1 -1 -1 -1 -1
 MicOpt= -1 -1
 NAtoms=     42 NQM=       42 NQMF=       0 NMMI=      0 NMMIF=      0
                NMic=       0 NMicF=      0.
                    Isotopes and Nuclear Properties:
 (Nuclear quadrupole moments (NQMom) in fm**2, nuclear magnetic moments (NMagM)
  in nuclear magnetons)

  Atom         1           2           3           4           5           6           7           8           9          10
 IAtWgt=          12          12          12          12           1          12          12           1          12          12
 AtmWgt=  12.0000000  12.0000000  12.0000000  12.0000000   1.0078250  12.0000000  12.0000000   1.0078250  12.0000000  12.0000000
 NucSpn=           0           0           0           0           1           0           0           1           0           0
 AtZEff=  -0.0000000  -0.0000000  -0.0000000  -0.0000000  -0.0000000  -0.0000000  -0.0000000  -0.0000000  -0.0000000  -0.0000000
 NQMom=    0.0000000   0.0000000   0.0000000   0.0000000   0.0000000   0.0000000   0.0000000   0.0000000   0.0000000   0.0000000
 NMagM=    0.0000000   0.0000000   0.0000000   0.0000000   2.7928460   0.0000000   0.0000000   2.7928460   0.0000000   0.0000000
 AtZNuc=   6.0000000   6.0000000   6.0000000   6.0000000   1.0000000   6.0000000   6.0000000   1.0000000   6.0000000   6.0000000

  Atom        11          12          13          14          15          16          17          18          19          20
 IAtWgt=          12          12          12           1          12          12          12           1          12           1
 AtmWgt=  12.0000000  12.0000000  12.0000000   1.0078250  12.0000000  12.0000000  12.0000000   1.0078250  12.0000000   1.0078250
 NucSpn=           0           0           0           1           0           0           0           1           0           1
 AtZEff=  -0.0000000  -0.0000000  -0.0000000  -0.0000000  -0.0000000  -0.0000000  -0.0000000  -0.0000000  -0.0000000  -0.0000000
 NQMom=    0.0000000   0.0000000   0.0000000   0.0000000   0.0000000   0.0000000   0.0000000   0.0000000   0.0000000   0.0000000
 NMagM=    0.0000000   0.0000000   0.0000000   2.7928460   0.0000000   0.0000000   0.0000000   2.7928460   0.0000000   2.7928460
 AtZNuc=   6.0000000   6.0000000   6.0000000   1.0000000   6.0000000   6.0000000   6.0000000   1.0000000   6.0000000   1.0000000

  Atom        21          22          23          24          25          26          27          28          29          30
 IAtWgt=          12          12          12           1          12           1          12           1           1          12
 AtmWgt=  12.0000000  12.0000000  12.0000000   1.0078250  12.0000000   1.0078250  12.0000000   1.0078250   1.0078250  12.0000000
 NucSpn=           0           0           0           1           0           1           0           1           1           0
 AtZEff=  -0.0000000  -0.0000000  -0.0000000  -0.0000000  -0.0000000  -0.0000000  -0.0000000  -0.0000000  -0.0000000  -0.0000000
 NQMom=    0.0000000   0.0000000   0.0000000   0.0000000   0.0000000   0.0000000   0.0000000   0.0000000   0.0000000   0.0000000
 NMagM=    0.0000000   0.0000000   0.0000000   2.7928460   0.0000000   2.7928460   0.0000000   2.7928460   2.7928460   0.0000000
 AtZNuc=   6.0000000   6.0000000   6.0000000   1.0000000   6.0000000   1.0000000   6.0000000   1.0000000   1.0000000   6.0000000

  Atom        31          32          33          34          35          36          37          38          39          40
 IAtWgt=           1          12           1          12           1           1           1          12           1           1
 AtmWgt=   1.0078250  12.0000000   1.0078250  12.0000000   1.0078250   1.0078250   1.0078250  12.0000000   1.0078250   1.0078250
 NucSpn=           1           0           1           0           1           1           1           0           1           1
 AtZEff=  -0.0000000  -0.0000000  -0.0000000  -0.0000000  -0.0000000  -0.0000000  -0.0000000  -0.0000000  -0.0000000  -0.0000000
 NQMom=    0.0000000   0.0000000   0.0000000   0.0000000   0.0000000   0.0000000   0.0000000   0.0000000   0.0000000   0.0000000
 NMagM=    2.7928460   0.0000000   2.7928460   0.0000000   2.7928460   2.7928460   2.7928460   0.0000000   2.7928460   2.7928460
 AtZNuc=   1.0000000   6.0000000   1.0000000   6.0000000   1.0000000   1.0000000   1.0000000   6.0000000   1.0000000   1.0000000

  Atom        41          42
 IAtWgt=           1           1
 AtmWgt=   1.0078250   1.0078250
 NucSpn=           1           1
 AtZEff=  -0.0000000  -0.0000000
 NQMom=    0.0000000   0.0000000
 NMagM=    2.7928460   2.7928460
 AtZNuc=   1.0000000   1.0000000
 Leave Link  101 at Mon Nov 14 15:01:51 2022, MaxMem= 16106127360 cpu:               5.7 elap:               0.2
 (Enter /opt/ap/G16/B01/g16/l202.exe)
                          Input orientation:                          
 ---------------------------------------------------------------------
 Center     Atomic      Atomic             Coordinates (Angstroms)
 Number     Number       Type             X           Y           Z
 ---------------------------------------------------------------------
      1          6           0        0.000000    0.000000    0.000000
      2          6           0        0.000000    0.000000    1.394128
      3          6           0        1.221126    0.000000   -0.673109
      4          6           0        1.193108    0.000764    2.115362
      5          1           0       -0.944957   -0.000427    1.927071
      6          6           0       -1.278366   -0.017366   -0.754803
      7          6           0        2.428476    0.001115    0.024455
      8          1           0        1.232154   -0.045667   -1.756969
      9          6           0        2.400843    0.001752    1.418572
     10          6           0        1.177445    0.018728    3.599837
     11          6           0       -1.930872   -1.221807   -1.028202
     12          6           0       -1.855033    1.171731   -1.207289
     13          6           0        3.721572    0.001921   -0.704680
     14          1           0        3.334061    0.048144    1.969857
     15          6           0        0.290794    0.844275    4.295193
     16          6           0        2.049080   -0.790881    4.331965
     17          6           0       -3.127358   -1.236834   -1.733331
     18          1           0       -1.484831   -2.155955   -0.703965
     19          6           0       -3.051323    1.157704   -1.912645
     20          1           0       -1.371228    2.117082   -0.985715
     21          6           0        3.910862    0.818865   -1.821777
     22          6           0        4.776237   -0.814044   -0.288725
     23          6           0        0.275860    0.859807    5.683909
     24          1           0       -0.377402    1.495584    3.742000
     25          6           0        2.035025   -0.775886    5.720674
     26          1           0        2.729408   -1.453102    3.807101
     27          6           0       -3.692345   -0.046984   -2.177593
     28          1           0       -3.615599   -2.181990   -1.943374
     29          1           0       -3.488063    2.091284   -2.249572
     30          6           0        5.120444    0.820149   -2.504230
     31          1           0        3.109266    1.474569   -2.144691
     32          6           0        5.986440   -0.813321   -0.970068
     33          1           0        4.638168   -1.470412    0.563864
     34          6           0        1.147946    0.049642    6.401818
     35          1           0       -0.413890    1.513063    6.206701
     36          1           0        2.713797   -1.416787    6.272362
     37          1           0       -4.626147   -0.058537   -2.728235
     38          6           0        6.162883    0.003944   -2.080611
     39          1           0        5.251831    1.466740   -3.364741
     40          1           0        6.791448   -1.459089   -0.637249
     41          1           0        1.136620    0.061726    7.485815
     42          1           0        7.107346    0.004761   -2.612865
 ---------------------------------------------------------------------
                    Distance matrix (angstroms):
                    1          2          3          4          5
     1  C    0.000000
     2  C    1.394128   0.000000
     3  C    1.394354   2.400962   0.000000
     4  C    2.428634   1.394161   2.788612   0.000000
     5  H    2.146287   1.084884   3.384206   2.146341   0.000000
     6  C    1.484671   2.500485   2.500887   3.787659   2.702572
     7  C    2.428599   2.788100   1.394378   2.428585   3.872983
     8  H    2.146445   3.383741   1.084878   3.872806   4.279487
     9  C    2.788619   2.400968   2.401430   1.394324   3.384222
    10  C    3.787552   2.500376   4.273210   1.484666   2.702426
    11  C    2.505649   3.329979   3.399117   4.597382   3.346256
    12  C    2.504326   3.403157   3.334825   4.658577   3.467911
    13  C    3.787700   4.272598   2.500646   3.787581   5.357482
    14  H    3.872805   3.383747   3.384092   2.146415   4.279508
    15  C    4.387032   3.035381   5.124680   2.505463   2.801537
    16  C    4.856969   3.668120   5.134371   2.504540   3.920790
    17  C    3.783460   4.592509   4.643614   5.916969   4.437355
    18  H    2.710799   3.354826   3.459956   4.446503   3.443851
    19  C    3.782732   4.646031   4.596798   5.964775   4.530062
    20  H    2.708124   3.467846   3.361556   4.546570   3.626275
    21  C    4.391384   5.129076   3.037212   4.853507   6.189029
    22  C    4.853707   5.129045   3.667320   4.391169   6.189006
    23  C    5.755188   4.383786   6.484171   3.783362   4.042800
    24  H    4.047440   2.809218   4.928007   2.710524   2.419532
    25  C    6.121229   4.843792   6.491910   3.782894   4.886007
    26  H    4.904609   3.922195   4.945574   2.708491   4.375585
    27  C    4.286902   5.137393   5.138859   6.503798   4.939490
    28  H    4.648692   5.382616   5.456057   6.660436   5.183810
    29  H    4.647647   5.460458   5.388429   6.733222   5.318551
    30  C    5.758711   6.487587   4.385239   6.118495   7.556379
    31  H    4.054822   4.936104   2.811579   4.898143   5.932249
    32  C    6.118822   6.487555   4.843334   5.758354   7.556353
    33  H    4.898230   4.935996   3.920254   4.054620   5.932156
    34  C    6.504116   5.137821   7.075480   4.286973   4.940255
    35  H    6.401859   5.061770   7.231488   4.648499   4.570330
    36  H    6.979577   5.759266   7.243957   4.647859   5.854410
    37  H    5.371027   6.196656   6.198191   7.571504   5.935184
    38  C    6.504621   7.074953   5.138292   6.504219   8.159837
    39  H    6.407382   7.237395   5.063871   6.975231   8.279857
    40  H    6.975586   7.237348   5.758361   6.406985   8.279819
    41  H    7.571865   6.197125   8.159595   5.371096   5.936031
    42  H    7.572414   8.159067   6.197601   7.571945   9.243951
                    6          7          8          9         10
     6  C    0.000000
     7  C    3.787910   0.000000
     8  H    2.703303   2.146356   0.000000
     9  C    4.273231   1.394392   3.384102   0.000000
    10  C    4.999520   3.787973   5.357472   2.500981   0.000000
    11  C    1.396850   4.648391   3.452411   5.123237   5.711331
    12  C    1.396868   4.608252   3.363767   5.135804   5.799466
    13  C    5.000226   1.484499   2.703105   2.500505   5.000173
    14  H    5.357476   2.146366   4.279725   1.084879   2.703459
    15  C    5.357906   4.849723   6.189251   3.665665   1.396854
    16  C    6.127433   4.396117   6.188524   3.039714   1.396863
    17  C    2.421445   5.957317   4.519379   6.483024   6.967816
    18  H    2.149133   4.527418   3.597796   4.925376   5.508145
    19  C    2.421728   5.926065   4.452023   6.493023   7.040398
    20  H    2.148909   4.464920   3.471298   4.948104   5.650319
    21  C    5.363376   2.504946   2.815510   3.667109   6.124188
    22  C    6.124553   2.504906   3.912375   3.036921   5.363369
    23  C    6.681472   6.115597   7.556523   4.841994   2.421492
    24  H    4.829285   4.891475   5.933362   3.917716   2.149154
    25  C    7.313393   5.762417   7.555989   4.387097   2.421736
    26  H    6.239756   4.063707   5.931401   2.815959   2.148914
    27  C    2.802231   6.505057   4.942429   7.075430   7.556313
    28  H    3.400141   6.720799   5.300880   7.229729   7.651380
    29  H    3.400515   6.674236   5.204773   7.245732   7.763893
    30  C    6.686306   3.783088   4.053003   4.842972   7.310892
    31  H    4.838282   2.709194   2.446425   3.920191   6.233057
    32  C    7.311449   3.783053   4.879728   4.384797   6.686012
    33  H    6.233426   2.709077   4.360860   2.811302   4.838519
    34  C    7.557031   6.504835   8.159779   5.138559   2.802307
    35  H    7.179977   6.970308   8.280044   5.756123   3.400165
    36  H    8.202243   6.413127   8.279214   5.066504   3.400510
    37  H    3.886356   7.572883   5.938283   8.159549   8.586742
    38  C    7.558466   4.286853   4.941589   5.137824   7.557929
    39  H    7.187337   4.648230   4.585860   5.757987   8.197725
    40  H    8.198432   4.648180   5.844424   5.063385   7.187062
    41  H    8.587561   7.572613   9.243902   6.197846   3.886431
    42  H    8.589123   5.370968   5.937422   6.197069   8.588456
                   11         12         13         14         15
    11  C    0.000000
    12  C    2.401427   0.000000
    13  C    5.792434   5.720104   0.000000
    14  H    6.190368   6.187358   2.702860   0.000000
    15  C    6.127237   5.915160   6.121971   3.911840   0.000000
    16  C    6.690075   7.055302   5.365963   2.816859   2.401387
    17  C    1.388889   2.774296   7.035658   7.557428   7.235875
    18  H    1.084764   3.385835   5.635873   5.935410   6.094736
    19  C    2.774838   1.388824   6.976182   7.555003   7.057283
    20  H    3.385733   1.084828   5.521729   5.929220   5.680699
    21  C    6.238586   5.809273   1.396829   3.911930   7.107943
    22  C    6.760060   6.982894   1.396832   2.815037   6.624314
    23  C    7.365814   7.219876   7.309101   4.879095   1.388883
    24  H    5.705463   5.175301   6.229413   4.360107   1.084763
    25  C    7.840568   8.180614   6.688393   4.054029   2.774755
    26  H    6.719513   7.283609   4.843310   2.448430   3.385708
    27  C    2.409169   2.408832   7.558969   8.159704   7.652235
    28  H    2.144247   3.858608   7.754863   8.281585   7.958512
    29  H    3.859166   2.144462   7.663612   8.277643   7.659552
    30  C    7.487943   7.103727   2.421718   4.878996   8.340159
    31  H    5.824086   5.061096   2.148776   4.360587   7.057844
    32  C    7.928055   8.092305   2.421709   4.052208   7.931644
    33  H    6.763783   7.230461   2.148749   2.446125   6.179018
    34  C    8.142536   8.256845   7.558317   4.941800   2.409154
    35  H    7.881913   7.560466   8.194680   5.843284   2.144229
    36  H    8.655010   9.138917   7.190790   4.587189   3.859086
    37  H    3.392317   3.392036   8.589693   9.243828   8.620900
    38  C    8.253418   8.149442   2.802355   4.940696   8.708529
    39  H    8.017414   7.432977   3.400487   5.843645   9.147346
    40  H    8.734301   9.055816   3.400476   4.585006   8.478973
    41  H    9.140319   9.260246   8.588933   5.937569   3.392325
    42  H    9.257700   9.146677   3.886469   5.936405   9.741223
                   16         17         18         19         20
    16  C    0.000000
    17  C    7.986377   0.000000
    18  H    6.301789   2.145291   0.000000
    19  C    8.294953   2.402446   3.859422   0.000000
    20  H    6.959344   3.858974   4.283822   2.145303   0.000000
    21  C    6.627673   7.332821   6.261993   6.971018   5.503167
    22  C    5.365510   8.045649   6.416707   8.233809   6.846067
    23  C    2.774316   8.425749   7.280095   8.298586   6.984090
    24  H    3.385823   6.708772   5.858902   6.264106   4.870856
    25  C    1.388861   9.078815   7.454526   9.374288   8.059000
    26  H    1.084834   8.065041   6.213174   8.540998   7.247931
    27  C    8.711583   1.390079   3.390052   1.390101   3.389888
    28  H    8.567593   1.084351   2.465154   3.387168   4.943312
    29  H    9.071023   3.387180   4.943772   1.084359   2.465561
    30  C    7.665654   8.535321   7.465106   8.200103   6.791887
    31  H    6.942862   6.812959   6.030101   6.173095   4.672352
    32  C    6.604154   9.155504   7.595615   9.298093   7.919771
    33  H    4.622091   8.101547   6.290348   8.495197   7.168274
    34  C    2.408903   9.279758   7.892295   9.380403   8.074416
    35  H    3.858628   8.830003   7.897208   8.544361   7.280946
    36  H    2.144469   9.911741   8.175817  10.337260   9.047394
    37  H    9.743788   2.150485   4.285405   2.150465   4.285346
    38  C    7.660043   9.379165   8.065225   9.287679   7.901075
    39  H    8.636768   8.954419   8.098535   8.434836   7.067363
    40  H    6.901424   9.981659   8.305834  10.264228   8.918504
    41  H    3.392092  10.240138   8.880462  10.347516   9.070866
    42  H    8.628428  10.347188   9.063007  10.247836   8.887954
                   21         22         23         24         25
    21  C    0.000000
    22  C    2.401148   0.000000
    23  C    8.339678   7.663388   0.000000
    24  H    7.057108   6.938381   2.145221   0.000000
    25  C    7.934139   6.605193   2.402396   3.859344   0.000000
    26  H    6.184005   4.623169   3.858996   4.283837   2.145356
    27  C    7.660617   8.710516   8.852803   6.957725   9.783490
    28  H    8.103550   8.662105   9.086882   7.505595   9.625192
    29  H    7.519717   8.976888   8.867005   6.777168  10.111874
    30  C    1.388824   2.774442   9.514051   8.348527   8.928391
    31  H    1.084794   3.385432   8.348239   6.841814   8.251212
    32  C    2.774430   1.388819   8.926672   8.248218   7.770528
    33  H    3.385417   1.084800   7.118603   6.637291   5.818196
    34  C    8.709358   7.659884   1.390070   3.389995   1.390095
    35  H    9.145591   8.633852   1.084348   2.465033   3.387137
    36  H    8.482109   6.903971   3.387136   4.943698   1.084363
    37  H    8.629717   9.743040   9.779427   7.895003  10.782851
    38  C    2.408878   2.408889   9.781478   8.882743   8.860440
    39  H    2.144453   3.858761  10.344405   9.066139   9.895553
    40  H    3.858751   2.144441   9.369482   8.905073   7.969536
    41  H    9.741711   8.628862   2.150513   4.285366   2.150453
    42  H    3.392063   3.392069  10.781315   9.931179   9.787018
                   26         27         28         29         30
    26  H    0.000000
    27  C    8.890030   0.000000
    28  H    8.594088   2.149185   0.000000
    29  H    9.375655   2.149210   4.286129   0.000000
    30  C    7.121630   8.861368   9.254504   8.705574   0.000000
    31  H    6.643746   6.969800   7.657333   6.626921   2.145313
    32  C    5.817122   9.783877   9.747806   9.991999   2.402462
    33  H    3.763276   8.884772   8.655475   9.307886   3.859075
    34  C    3.389959   9.851093   9.864775  10.025340   9.782234
    35  H    4.943333   9.136651   9.504108   9.016287  10.343562
    36  H    2.465578  10.691901  10.399284  11.108239   9.371467
    37  H    9.937787   1.084125   2.479166   2.479130   9.788682
    38  C    6.969712   9.855837  10.020771   9.875540   1.390081
    39  H    8.143918   9.148714   9.693545   8.832859   1.084353
    40  H    6.021000  10.690024  10.513571  10.994229   3.387152
    41  H    4.285396  10.803340  10.794788  10.967432  10.781792
    42  H    7.906179  10.808582  10.964107  10.805010   2.150451
                   31         32         33         34         35
    31  H    0.000000
    32  C    3.859055   0.000000
    33  H    4.283308   2.145356   0.000000
    34  C    8.883693   8.860047   6.969499   0.000000
    35  H    9.064207   9.893547   8.140394   2.149187   0.000000
    36  H    8.908597   7.970392   6.024369   2.149200   4.286112
    37  H    7.907436  10.783684   9.932716  10.803228  10.002305
    38  C    3.389900   1.390094   3.389946   9.854100  10.686951
    39  H    2.465597   3.387150   4.943418  10.688111  11.122726
    40  H    4.943399   1.084354   2.465647   9.147341  10.372571
    41  H    9.931470   9.787155   7.907066   1.084123   2.479233
    42  H    4.285343   2.150458   4.285392  10.806525  11.688828
                   36         37         38         39         40
    36  H    0.000000
    37  H   11.693176   0.000000
    38  C    9.148051  10.808631   0.000000
    39  H   10.374492  10.015291   2.149134   0.000000
    40  H    8.023201  11.691674   2.149152   4.286037   0.000000
    41  H    2.479104  11.728204  10.806626  11.689465  10.013697
    42  H   10.013557  11.734230   1.084114   2.479039   2.479054
                   41         42
    41  H    0.000000
    42  H   11.731844   0.000000
 Stoichiometry    C24H18
 Framework group  C1[X(C24H18)]
 Deg. of freedom   120
 Full point group                 C1      NOp   1
 Largest Abelian subgroup         C1      NOp   1
 Largest concise Abelian subgroup C1      NOp   1
                         Standard orientation:                         
 ---------------------------------------------------------------------
 Center     Atomic      Atomic             Coordinates (Angstroms)
 Number     Number       Type             X           Y           Z
 ---------------------------------------------------------------------
      1          6           0       -1.401283   -0.016318    0.042987
      2          6           0       -0.705900    1.191837    0.023070
      3          6           0       -0.679270   -1.208976    0.020863
      4          6           0        0.687309    1.221502   -0.019010
      5          1           0       -1.258594    2.125218    0.040445
      6          6           0       -2.884596   -0.032542    0.104357
      7          6           0        0.714460   -1.206930   -0.021600
      8          1           0       -1.208986   -2.153782    0.081707
      9          6           0        1.385882    0.015006   -0.041435
     10          6           0        1.413657    2.515779   -0.057766
     11          6           0       -3.550459    0.055419    1.329134
     12          6           0       -3.645072   -0.136210   -1.062764
     13          6           0        1.470845   -2.484052   -0.045600
     14          1           0        2.467850    0.027104   -0.119939
     15          6           0        0.967986    3.561301   -0.869838
     16          6           0        2.557867    2.714822    0.718371
     17          6           0       -4.938140    0.041387    1.385328
     18          1           0       -2.974664    0.113279    2.246644
     19          6           0       -5.032725   -0.150536   -1.007572
     20          1           0       -3.143507   -0.185053   -2.023440
     21          6           0        1.053385   -3.546104   -0.851145
     22          6           0        2.616083   -2.650341    0.736650
     23          6           0        1.647272    4.772227   -0.904814
     24          1           0        0.093942    3.415715   -1.495589
     25          6           0        3.237928    3.925304    0.683909
     26          1           0        2.905015    1.920100    1.370115
     27          6           0       -5.684417   -0.060982    0.217034
     28          1           0       -5.437800    0.102436    2.345759
     29          1           0       -5.606777   -0.224035   -1.924576
     30          6           0        1.760699   -4.741098   -0.874120
     31          1           0        0.178519   -3.425561   -1.481112
     32          6           0        3.324506   -3.844683    0.714205
     33          1           0        2.941216   -1.842976    1.384138
     34          6           0        2.784798    4.958723   -0.127929
     35          1           0        1.291195    5.569850   -1.547323
     36          1           0        4.120072    4.064314    1.299003
     37          1           0       -6.767603   -0.072212    0.260720
     38          6           0        2.899176   -4.894646   -0.091421
     39          1           0        1.426117   -5.552001   -1.511547
     40          1           0        4.206972   -3.958340    1.334010
     41          1           0        3.315319    5.903777   -0.155200
     42          1           0        3.451773   -5.827183   -0.109182
 ---------------------------------------------------------------------
 Rotational constants (GHZ):           0.1977361           0.1940617           0.1047353
 Leave Link  202 at Mon Nov 14 15:01:51 2022, MaxMem= 16106127360 cpu:               0.5 elap:               0.0
 (Enter /opt/ap/G16/B01/g16/l301.exe)
 Standard basis: 6-311++G(d,p) (5D, 7F)
 Ernie: Thresh=  0.10000D-02 Tol=  0.10000D-05 Strict=F.
 There are   678 symmetry adapted cartesian basis functions of A   symmetry.
 There are   654 symmetry adapted basis functions of A   symmetry.
   654 basis functions,  1026 primitive gaussians,   678 cartesian basis functions
    81 alpha electrons       81 beta electrons
       nuclear repulsion energy      1730.5284424030 Hartrees.
 IExCor= 4639 DFT=T Ex+Corr=wB97XD ExCW=0 ScaHFX=  1.000000
 ScaDFX=  1.000000  1.000000  1.000000  1.000000 ScalE2=  1.000000  1.000000
 IRadAn=      5 IRanWt=     -1 IRanGd=            0 ICorTp=0 IEmpDi=121
 HFx  wShort=  0.000000 wLong=  0.200000 cFull=  0.222036 cShort=  0.000000 cLong=  0.777964
 DFx  wShort=  0.000000 wLong=  0.200000 cFull=  0.000000 cShort=  0.000000 cLong=  1.000000
 NAtoms=   42 NActive=   42 NUniq=   42 SFac= 1.00D+00 NAtFMM=   60 NAOKFM=F Big=F
 Integral buffers will be    131072 words long.
 Raffenetti 2 integral format.
 Two-electron integral symmetry is turned on.
 R6Disp:  Grimme-D2 Dispersion energy=       -0.0286715134 Hartrees.
 Nuclear repulsion after empirical dispersion term =     1730.4997708897 Hartrees.
 Leave Link  301 at Mon Nov 14 15:01:51 2022, MaxMem= 16106127360 cpu:               1.4 elap:               0.1
 (Enter /opt/ap/G16/B01/g16/l302.exe)
 NPDir=0 NMtPBC=     1 NCelOv=     1 NCel=       1 NClECP=     1 NCelD=      1
         NCelK=      1 NCelE2=     1 NClLst=     1 CellRange=     0.0.
 One-electron integrals computed using PRISM.
 One-electron integral symmetry used in STVInt
 NBasis=   654 RedAO= T EigKep=  1.09D-06  NBF=   654
 NBsUse=   646 1.00D-06 EigRej=  7.26D-07 NBFU=   646
 Precomputing XC quadrature grid using
 IXCGrd= 4 IRadAn=           5 IRanWt=          -1 IRanGd=           0 AccXCQ= 0.00D+00.
 Generated NRdTot=       0 NPtTot=           0 NUsed=           0 NTot=          32
 NSgBfM=   669   669   669   669   669 MxSgAt=    42 MxSgA2=    42.
 Leave Link  302 at Mon Nov 14 15:01:52 2022, MaxMem= 16106127360 cpu:              21.0 elap:               0.7
 (Enter /opt/ap/G16/B01/g16/l303.exe)
 DipDrv:  MaxL=1.
 Leave Link  303 at Mon Nov 14 15:01:52 2022, MaxMem= 16106127360 cpu:               2.8 elap:               0.1
 (Enter /opt/ap/G16/B01/g16/l401.exe)
 ExpMin= 3.60D-02 ExpMax= 4.56D+03 ExpMxC= 6.82D+02 IAcc=3 IRadAn=         5 AccDes= 0.00D+00
 Harris functional with IExCor= 4639 and IRadAn=       5 diagonalized for initial guess.
 HarFok:  IExCor= 4639 AccDes= 0.00D+00 IRadAn=         5 IDoV= 1 UseB2=F ITyADJ=14
 ICtDFT=  3500011 ScaDFX=  1.000000  1.000000  1.000000  1.000000
 FoFCou: FMM=F IPFlag=           0 FMFlag=      100000 FMFlg1=           0
         NFxFlg=           0 DoJE=T BraDBF=F KetDBF=T FulRan=T
         wScrn=  0.000000 ICntrl=       500 IOpCl=  0 I1Cent=   200000004 NGrid=           0
         NMat0=    1 NMatS0=      1 NMatT0=    0 NMatD0=    1 NMtDS0=    0 NMtDT0=    0
 Petite list used in FoFCou.
 Harris En= -882.967765459118    
 JPrj=0 DoOrth=F DoCkMO=F.
 Leave Link  401 at Mon Nov 14 15:01:54 2022, MaxMem= 16106127360 cpu:              55.2 elap:               1.7
 (Enter /opt/ap/G16/B01/g16/l502.exe)
 Integral symmetry usage will be decided dynamically.
 Closed shell SCF:
 Using DIIS extrapolation, IDIIS=  1040.
 NGot= 16106127360 LenX= 16105179956 LenY= 16104719594
 Requested convergence on RMS density matrix=1.00D-08 within 512 cycles.
 Requested convergence on MAX density matrix=1.00D-06.
 Requested convergence on             energy=1.00D-06.
 No special actions if energy rises.
 Fock matrices will be formed incrementally for  20 cycles.

 Cycle   1  Pass 1  IDiag  1:
 FoFJK:  IHMeth= 1 ICntrl=       0 DoSepK=T KAlg= 0 I1Cent=           0 FoldK=F
 IRaf=         1 NMat=       1 IRICut=       1 DoRegI=T DoRafI=F ISym2E= 0 IDoP0=0 IntGTp=1.
 FoFCou: FMM=F IPFlag=           0 FMFlag=      100000 FMFlg1=           0
         NFxFlg=           0 DoJE=T BraDBF=F KetDBF=F FulRan=T
         wScrn=  0.000000 ICntrl=       500 IOpCl=  0 I1Cent=           0 NGrid=           0
         NMat0=    1 NMatS0=      1 NMatT0=    0 NMatD0=    1 NMtDS0=    0 NMtDT0=    0
 Symmetry not used in FoFCou.
 E= -925.114220323145    
 DIIS: error= 4.85D-02 at cycle   1 NSaved=   1.
 NSaved= 1 IEnMin= 1 EnMin= -925.114220323145     IErMin= 1 ErrMin= 4.85D-02
 ErrMax= 4.85D-02  0.00D+00 EMaxC= 1.00D-01 BMatC= 1.90D+00 BMatP= 1.90D+00
 IDIUse=3 WtCom= 5.15D-01 WtEn= 4.85D-01
 Coeff-Com:  0.100D+01
 Coeff-En:   0.100D+01
 Coeff:      0.100D+01
 Gap=     0.317 Goal=   None    Shift=    0.000
 GapD=    0.317 DampG=1.000 DampE=0.500 DampFc=0.5000 IDamp=-1.
 Damping current iteration by 5.00D-01
 RMSDP=4.30D-02 MaxDP=4.36D+00              OVMax= 4.33D-02

 Cycle   2  Pass 1  IDiag  1:
 RMSU=  6.95D-03    CP:  8.20D-01
 E= -925.212607644155     Delta-E=       -0.098387321011 Rises=F Damp=T
 DIIS: error= 2.36D-02 at cycle   2 NSaved=   2.
 NSaved= 2 IEnMin= 2 EnMin= -925.212607644155     IErMin= 2 ErrMin= 2.36D-02
 ErrMax= 2.36D-02  0.00D+00 EMaxC= 1.00D-01 BMatC= 4.32D-01 BMatP= 1.90D+00
 IDIUse=3 WtCom= 7.64D-01 WtEn= 2.36D-01
 Coeff-Com: -0.883D+00 0.188D+01
 Coeff-En:   0.000D+00 0.100D+01
 Coeff:     -0.674D+00 0.167D+01
 Gap=     0.325 Goal=   None    Shift=    0.000
 RMSDP=2.48D-02 MaxDP=2.11D+00 DE=-9.84D-02 OVMax= 3.44D-02

 Cycle   3  Pass 1  IDiag  1:
 RMSU=  3.97D-03    CP:  6.04D-01  1.44D+00
 E= -925.300881942184     Delta-E=       -0.088274298028 Rises=F Damp=F
 DIIS: error= 3.10D-03 at cycle   3 NSaved=   3.
 NSaved= 3 IEnMin= 3 EnMin= -925.300881942184     IErMin= 3 ErrMin= 3.10D-03
 ErrMax= 3.10D-03  0.00D+00 EMaxC= 1.00D-01 BMatC= 8.61D-03 BMatP= 4.32D-01
 IDIUse=3 WtCom= 9.69D-01 WtEn= 3.10D-02
 Coeff-Com: -0.368D+00 0.781D+00 0.587D+00
 Coeff-En:   0.000D+00 0.000D+00 0.100D+01
 Coeff:     -0.357D+00 0.757D+00 0.600D+00
 Gap=     0.323 Goal=   None    Shift=    0.000
 RMSDP=2.11D-03 MaxDP=1.91D-01 DE=-8.83D-02 OVMax= 2.00D-02

 Cycle   4  Pass 1  IDiag  1:
 RMSU=  1.43D-03    CP:  5.99D-01  1.56D+00  7.04D-01
 E= -925.308761663268     Delta-E=       -0.007879721084 Rises=F Damp=F
 DIIS: error= 9.01D-04 at cycle   4 NSaved=   4.
 NSaved= 4 IEnMin= 4 EnMin= -925.308761663268     IErMin= 4 ErrMin= 9.01D-04
 ErrMax= 9.01D-04  0.00D+00 EMaxC= 1.00D-01 BMatC= 2.74D-04 BMatP= 8.61D-03
 IDIUse=3 WtCom= 9.91D-01 WtEn= 9.01D-03
 Coeff-Com: -0.112D+00 0.239D+00 0.237D+00 0.637D+00
 Coeff-En:   0.000D+00 0.000D+00 0.000D+00 0.100D+01
 Coeff:     -0.111D+00 0.237D+00 0.234D+00 0.640D+00
 Gap=     0.322 Goal=   None    Shift=    0.000
 RMSDP=6.54D-04 MaxDP=5.82D-02 DE=-7.88D-03 OVMax= 4.41D-03

 Cycle   5  Pass 1  IDiag  1:
 RMSU=  2.95D-04    CP:  5.96D-01  1.61D+00  7.53D-01  8.21D-01
 E= -925.309046721239     Delta-E=       -0.000285057970 Rises=F Damp=F
 DIIS: error= 2.33D-04 at cycle   5 NSaved=   5.
 NSaved= 5 IEnMin= 5 EnMin= -925.309046721239     IErMin= 5 ErrMin= 2.33D-04
 ErrMax= 2.33D-04  0.00D+00 EMaxC= 1.00D-01 BMatC= 2.02D-05 BMatP= 2.74D-04
 IDIUse=3 WtCom= 9.98D-01 WtEn= 2.33D-03
 Coeff-Com:  0.255D-01-0.544D-01-0.244D-01 0.196D+00 0.857D+00
 Coeff-En:   0.000D+00 0.000D+00 0.000D+00 0.000D+00 0.100D+01
 Coeff:      0.255D-01-0.543D-01-0.244D-01 0.196D+00 0.857D+00
 Gap=     0.322 Goal=   None    Shift=    0.000
 RMSDP=1.87D-04 MaxDP=1.15D-02 DE=-2.85D-04 OVMax= 1.42D-03

 Cycle   6  Pass 1  IDiag  1:
 RMSU=  9.06D-05    CP:  5.96D-01  1.61D+00  7.78D-01  8.82D-01  1.28D+00
 E= -925.309072136742     Delta-E=       -0.000025415504 Rises=F Damp=F
 DIIS: error= 6.53D-05 at cycle   6 NSaved=   6.
 NSaved= 6 IEnMin= 6 EnMin= -925.309072136742     IErMin= 6 ErrMin= 6.53D-05
 ErrMax= 6.53D-05  0.00D+00 EMaxC= 1.00D-01 BMatC= 1.52D-06 BMatP= 2.02D-05
 IDIUse=1 WtCom= 1.00D+00 WtEn= 0.00D+00
 Coeff-Com:  0.134D-01-0.286D-01-0.165D-01 0.548D-01 0.338D+00 0.639D+00
 Coeff:      0.134D-01-0.286D-01-0.165D-01 0.548D-01 0.338D+00 0.639D+00
 Gap=     0.322 Goal=   None    Shift=    0.000
 RMSDP=8.24D-05 MaxDP=8.07D-03 DE=-2.54D-05 OVMax= 4.36D-04

 Cycle   7  Pass 1  IDiag  1:
 RMSU=  4.74D-05    CP:  5.96D-01  1.61D+00  7.84D-01  9.14D-01  1.31D+00
                    CP:  7.52D-01
 E= -925.309073945113     Delta-E=       -0.000001808371 Rises=F Damp=F
 DIIS: error= 1.63D-05 at cycle   7 NSaved=   7.
 NSaved= 7 IEnMin= 7 EnMin= -925.309073945113     IErMin= 7 ErrMin= 1.63D-05
 ErrMax= 1.63D-05  0.00D+00 EMaxC= 1.00D-01 BMatC= 1.09D-07 BMatP= 1.52D-06
 IDIUse=1 WtCom= 1.00D+00 WtEn= 0.00D+00
 Coeff-Com: -0.185D-02 0.397D-02 0.165D-02-0.257D-01-0.871D-01 0.108D+00
 Coeff-Com:  0.100D+01
 Coeff:     -0.185D-02 0.397D-02 0.165D-02-0.257D-01-0.871D-01 0.108D+00
 Coeff:      0.100D+01
 Gap=     0.322 Goal=   None    Shift=    0.000
 RMSDP=3.00D-05 MaxDP=1.89D-03 DE=-1.81D-06 OVMax= 2.51D-04

 Cycle   8  Pass 1  IDiag  1:
 RMSU=  9.10D-06    CP:  5.96D-01  1.61D+00  7.88D-01  9.15D-01  1.36D+00
                    CP:  8.51D-01  1.22D+00
 E= -925.309074169991     Delta-E=       -0.000000224878 Rises=F Damp=F
 DIIS: error= 9.39D-06 at cycle   8 NSaved=   8.
 NSaved= 8 IEnMin= 8 EnMin= -925.309074169991     IErMin= 8 ErrMin= 9.39D-06
 ErrMax= 9.39D-06  0.00D+00 EMaxC= 1.00D-01 BMatC= 2.21D-08 BMatP= 1.09D-07
 IDIUse=1 WtCom= 1.00D+00 WtEn= 0.00D+00
 Coeff-Com: -0.164D-02 0.351D-02 0.176D-02-0.167D-01-0.620D-01 0.293D-01
 Coeff-Com:  0.501D+00 0.545D+00
 Coeff:     -0.164D-02 0.351D-02 0.176D-02-0.167D-01-0.620D-01 0.293D-01
 Coeff:      0.501D+00 0.545D+00
 Gap=     0.322 Goal=   None    Shift=    0.000
 RMSDP=4.52D-06 MaxDP=2.86D-04 DE=-2.25D-07 OVMax= 7.28D-05

 Cycle   9  Pass 1  IDiag  1:
 RMSU=  2.84D-06    CP:  5.96D-01  1.61D+00  7.88D-01  9.15D-01  1.37D+00
                    CP:  8.54D-01  1.25D+00  9.43D-01
 E= -925.309074197531     Delta-E=       -0.000000027540 Rises=F Damp=F
 DIIS: error= 3.06D-06 at cycle   9 NSaved=   9.
 NSaved= 9 IEnMin= 9 EnMin= -925.309074197531     IErMin= 9 ErrMin= 3.06D-06
 ErrMax= 3.06D-06  0.00D+00 EMaxC= 1.00D-01 BMatC= 1.91D-09 BMatP= 2.21D-08
 IDIUse=1 WtCom= 1.00D+00 WtEn= 0.00D+00
 Coeff-Com:  0.120D-03-0.263D-03 0.697D-04 0.300D-02 0.109D-01-0.168D-01
 Coeff-Com: -0.185D+00 0.811D-01 0.111D+01
 Coeff:      0.120D-03-0.263D-03 0.697D-04 0.300D-02 0.109D-01-0.168D-01
 Coeff:     -0.185D+00 0.811D-01 0.111D+01
 Gap=     0.322 Goal=   None    Shift=    0.000
 RMSDP=3.18D-06 MaxDP=1.98D-04 DE=-2.75D-08 OVMax= 4.74D-05

 Cycle  10  Pass 1  IDiag  1:
 RMSU=  7.82D-07    CP:  5.96D-01  1.61D+00  7.88D-01  9.15D-01  1.37D+00
                    CP:  8.58D-01  1.28D+00  1.17D+00  1.23D+00
 E= -925.309074203184     Delta-E=       -0.000000005653 Rises=F Damp=F
 DIIS: error= 8.23D-07 at cycle  10 NSaved=  10.
 NSaved=10 IEnMin=10 EnMin= -925.309074203184     IErMin=10 ErrMin= 8.23D-07
 ErrMax= 8.23D-07  0.00D+00 EMaxC= 1.00D-01 BMatC= 1.96D-10 BMatP= 1.91D-09
 IDIUse=1 WtCom= 1.00D+00 WtEn= 0.00D+00
 Coeff-Com:  0.141D-03-0.302D-03-0.702D-04 0.197D-02 0.709D-02-0.530D-02
 Coeff-Com: -0.868D-01-0.222D-01 0.354D+00 0.752D+00
 Coeff:      0.141D-03-0.302D-03-0.702D-04 0.197D-02 0.709D-02-0.530D-02
 Coeff:     -0.868D-01-0.222D-01 0.354D+00 0.752D+00
 Gap=     0.322 Goal=   None    Shift=    0.000
 RMSDP=5.56D-07 MaxDP=4.37D-05 DE=-5.65D-09 OVMax= 1.03D-05

 Cycle  11  Pass 1  IDiag  1:
 RMSU=  1.66D-07    CP:  5.96D-01  1.61D+00  7.88D-01  9.15D-01  1.37D+00
                    CP:  8.57D-01  1.29D+00  1.18D+00  1.32D+00  1.17D+00
 E= -925.309074203595     Delta-E=       -0.000000000411 Rises=F Damp=F
 DIIS: error= 2.26D-07 at cycle  11 NSaved=  11.
 NSaved=11 IEnMin=11 EnMin= -925.309074203595     IErMin=11 ErrMin= 2.26D-07
 ErrMax= 2.26D-07  0.00D+00 EMaxC= 1.00D-01 BMatC= 3.40D-11 BMatP= 1.96D-10
 IDIUse=1 WtCom= 1.00D+00 WtEn= 0.00D+00
 Coeff-Com:  0.217D-04-0.458D-04-0.209D-04 0.110D-03 0.206D-03 0.132D-02
 Coeff-Com:  0.285D-02-0.256D-01-0.713D-01 0.240D+00 0.852D+00
 Coeff:      0.217D-04-0.458D-04-0.209D-04 0.110D-03 0.206D-03 0.132D-02
 Coeff:      0.285D-02-0.256D-01-0.713D-01 0.240D+00 0.852D+00
 Gap=     0.322 Goal=   None    Shift=    0.000
 RMSDP=3.78D-07 MaxDP=3.46D-05 DE=-4.11D-10 OVMax= 3.47D-06

 Cycle  12  Pass 1  IDiag  1:
 RMSU=  6.98D-08    CP:  5.96D-01  1.61D+00  7.88D-01  9.15D-01  1.37D+00
                    CP:  8.57D-01  1.28D+00  1.19D+00  1.35D+00  1.34D+00
                    CP:  1.25D+00
 E= -925.309074203605     Delta-E=       -0.000000000010 Rises=F Damp=F
 DIIS: error= 7.47D-08 at cycle  12 NSaved=  12.
 NSaved=12 IEnMin=12 EnMin= -925.309074203605     IErMin=12 ErrMin= 7.47D-08
 ErrMax= 7.47D-08  0.00D+00 EMaxC= 1.00D-01 BMatC= 1.42D-12 BMatP= 3.40D-11
 IDIUse=1 WtCom= 1.00D+00 WtEn= 0.00D+00
 Coeff-Com: -0.146D-04 0.315D-04 0.108D-04-0.228D-03-0.837D-03 0.816D-03
 Coeff-Com:  0.101D-01 0.492D-03-0.392D-01-0.606D-01-0.470D-01 0.114D+01
 Coeff:     -0.146D-04 0.315D-04 0.108D-04-0.228D-03-0.837D-03 0.816D-03
 Coeff:      0.101D-01 0.492D-03-0.392D-01-0.606D-01-0.470D-01 0.114D+01
 Gap=     0.322 Goal=   None    Shift=    0.000
 RMSDP=1.62D-07 MaxDP=1.52D-05 DE=-1.00D-11 OVMax= 1.22D-06

 Cycle  13  Pass 1  IDiag  1:
 RMSU=  3.65D-08    CP:  5.96D-01  1.61D+00  7.88D-01  9.15D-01  1.37D+00
                    CP:  8.57D-01  1.28D+00  1.19D+00  1.35D+00  1.41D+00
                    CP:  1.36D+00  1.56D+00
 E= -925.309074203601     Delta-E=        0.000000000005 Rises=F Damp=F
 DIIS: error= 3.65D-08 at cycle  13 NSaved=  13.
 NSaved=13 IEnMin=12 EnMin= -925.309074203605     IErMin=13 ErrMin= 3.65D-08
 ErrMax= 3.65D-08  0.00D+00 EMaxC= 1.00D-01 BMatC= 2.04D-13 BMatP= 1.42D-12
 IDIUse=1 WtCom= 1.00D+00 WtEn= 0.00D+00
 Coeff-Com: -0.558D-05 0.120D-04 0.498D-05-0.745D-04-0.259D-03 0.192D-03
 Coeff-Com:  0.283D-02 0.150D-02-0.674D-02-0.283D-01-0.687D-01 0.353D+00
 Coeff-Com:  0.747D+00
 Coeff:     -0.558D-05 0.120D-04 0.498D-05-0.745D-04-0.259D-03 0.192D-03
 Coeff:      0.283D-02 0.150D-02-0.674D-02-0.283D-01-0.687D-01 0.353D+00
 Coeff:      0.747D+00
 Gap=     0.322 Goal=   None    Shift=    0.000
 RMSDP=2.02D-08 MaxDP=1.57D-06 DE= 4.55D-12 OVMax= 3.08D-07

 Cycle  14  Pass 1  IDiag  1:
 RMSU=  7.75D-09    CP:  5.96D-01  1.61D+00  7.88D-01  9.15D-01  1.37D+00
                    CP:  8.57D-01  1.28D+00  1.19D+00  1.36D+00  1.42D+00
                    CP:  1.36D+00  1.67D+00  1.14D+00
 E= -925.309074203633     Delta-E=       -0.000000000032 Rises=F Damp=F
 DIIS: error= 9.22D-09 at cycle  14 NSaved=  14.
 NSaved=14 IEnMin=14 EnMin= -925.309074203633     IErMin=14 ErrMin= 9.22D-09
 ErrMax= 9.22D-09  0.00D+00 EMaxC= 1.00D-01 BMatC= 4.97D-14 BMatP= 2.04D-13
 IDIUse=1 WtCom= 1.00D+00 WtEn= 0.00D+00
 Coeff-Com:  0.596D-06-0.132D-05-0.208D-06 0.139D-04 0.580D-04-0.782D-04
 Coeff-Com: -0.815D-03 0.411D-03 0.454D-02 0.471D-03-0.214D-01-0.866D-01
 Coeff-Com:  0.311D+00 0.792D+00
 Coeff:      0.596D-06-0.132D-05-0.208D-06 0.139D-04 0.580D-04-0.782D-04
 Coeff:     -0.815D-03 0.411D-03 0.454D-02 0.471D-03-0.214D-01-0.866D-01
 Coeff:      0.311D+00 0.792D+00
 Gap=     0.322 Goal=   None    Shift=    0.000
 RMSDP=1.50D-08 MaxDP=1.65D-06 DE=-3.18D-11 OVMax= 1.13D-07

 Cycle  15  Pass 1  IDiag  1:
 RMSU=  2.70D-09    CP:  5.96D-01  1.61D+00  7.88D-01  9.15D-01  1.37D+00
                    CP:  8.57D-01  1.28D+00  1.19D+00  1.36D+00  1.42D+00
                    CP:  1.36D+00  1.75D+00  1.31D+00  8.82D-01
 E= -925.309074203656     Delta-E=       -0.000000000024 Rises=F Damp=F
 DIIS: error= 2.39D-09 at cycle  15 NSaved=  15.
 NSaved=15 IEnMin=15 EnMin= -925.309074203656     IErMin=15 ErrMin= 2.39D-09
 ErrMax= 2.39D-09  0.00D+00 EMaxC= 1.00D-01 BMatC= 2.33D-15 BMatP= 4.97D-14
 IDIUse=1 WtCom= 1.00D+00 WtEn= 0.00D+00
 Coeff-Com:  0.561D-06-0.122D-05-0.478D-06 0.919D-05 0.352D-04-0.385D-04
 Coeff-Com: -0.435D-03 0.178D-04 0.178D-02 0.205D-02-0.158D-02-0.515D-01
 Coeff-Com:  0.424D-01 0.198D+00 0.809D+00
 Coeff:      0.561D-06-0.122D-05-0.478D-06 0.919D-05 0.352D-04-0.385D-04
 Coeff:     -0.435D-03 0.178D-04 0.178D-02 0.205D-02-0.158D-02-0.515D-01
 Coeff:      0.424D-01 0.198D+00 0.809D+00
 Gap=     0.322 Goal=   None    Shift=    0.000
 RMSDP=3.77D-09 MaxDP=4.02D-07 DE=-2.36D-11 OVMax= 2.62D-08

 SCF Done:  E(RwB97XD) =  -925.309074204     A.U. after   15 cycles
            NFock= 15  Conv=0.38D-08     -V/T= 2.0044
 KE= 9.212948799604D+02 PE=-5.607512992199D+03 EE= 2.030409267146D+03
 Leave Link  502 at Mon Nov 14 15:04:36 2022, MaxMem= 16106127360 cpu:            5075.9 elap:             161.6
 (Enter /opt/ap/G16/B01/g16/l601.exe)
 Copying SCF densities to generalized density rwf, IOpCl= 0 IROHF=0.

 **********************************************************************

            Population analysis using the SCF Density.

 **********************************************************************

 Orbital symmetries:
       Occupied  (A) (A) (A) (A) (A) (A) (A) (A) (A) (A) (A) (A)
                 (A) (A) (A) (A) (A) (A) (A) (A) (A) (A) (A) (A)
                 (A) (A) (A) (A) (A) (A) (A) (A) (A) (A) (A) (A)
                 (A) (A) (A) (A) (A) (A) (A) (A) (A) (A) (A) (A)
                 (A) (A) (A) (A) (A) (A) (A) (A) (A) (A) (A) (A)
                 (A) (A) (A) (A) (A) (A) (A) (A) (A) (A) (A) (A)
                 (A) (A) (A) (A) (A) (A) (A) (A) (A)
       Virtual   (A) (A) (A) (A) (A) (A) (A) (A) (A) (A) (A) (A)
                 (A) (A) (A) (A) (A) (A) (A) (A) (A) (A) (A) (A)
                 (A) (A) (A) (A) (A) (A) (A) (A) (A) (A) (A) (A)
                 (A) (A) (A) (A) (A) (A) (A) (A) (A) (A) (A) (A)
                 (A) (A) (A) (A) (A) (A) (A) (A) (A) (A) (A) (A)
                 (A) (A) (A) (A) (A) (A) (A) (A) (A) (A) (A) (A)
                 (A) (A) (A) (A) (A) (A) (A) (A) (A) (A) (A) (A)
                 (A) (A) (A) (A) (A) (A) (A) (A) (A) (A) (A) (A)
                 (A) (A) (A) (A) (A) (A) (A) (A) (A) (A) (A) (A)
                 (A) (A) (A) (A) (A) (A) (A) (A) (A) (A) (A) (A)
                 (A) (A) (A) (A) (A) (A) (A) (A) (A) (A) (A) (A)
                 (A) (A) (A) (A) (A) (A) (A) (A) (A) (A) (A) (A)
                 (A) (A) (A) (A) (A) (A) (A) (A) (A) (A) (A) (A)
                 (A) (A) (A) (A) (A) (A) (A) (A) (A) (A) (A) (A)
                 (A) (A) (A) (A) (A) (A) (A) (A) (A) (A) (A) (A)
                 (A) (A) (A) (A) (A) (A) (A) (A) (A) (A) (A) (A)
                 (A) (A) (A) (A) (A) (A) (A) (A) (A) (A) (A) (A)
                 (A) (A) (A) (A) (A) (A) (A) (A) (A) (A) (A) (A)
                 (A) (A) (A) (A) (A) (A) (A) (A) (A) (A) (A) (A)
                 (A) (A) (A) (A) (A) (A) (A) (A) (A) (A) (A) (A)
                 (A) (A) (A) (A) (A) (A) (A) (A) (A) (A) (A) (A)
                 (A) (A) (A) (A) (A) (A) (A) (A) (A) (A) (A) (A)
                 (A) (A) (A) (A) (A) (A) (A) (A) (A) (A) (A) (A)
                 (A) (A) (A) (A) (A) (A) (A) (A) (A) (A) (A) (A)
                 (A) (A) (A) (A) (A) (A) (A) (A) (A) (A) (A) (A)
                 (A) (A) (A) (A) (A) (A) (A) (A) (A) (A) (A) (A)
                 (A) (A) (A) (A) (A) (A) (A) (A) (A) (A) (A) (A)
                 (A) (A) (A) (A) (A) (A) (A) (A) (A) (A) (A) (A)
                 (A) (A) (A) (A) (A) (A) (A) (A) (A) (A) (A) (A)
                 (A) (A) (A) (A) (A) (A) (A) (A) (A) (A) (A) (A)
                 (A) (A) (A) (A) (A) (A) (A) (A) (A) (A) (A) (A)
                 (A) (A) (A) (A) (A) (A) (A) (A) (A) (A) (A) (A)
                 (A) (A) (A) (A) (A) (A) (A) (A) (A) (A) (A) (A)
                 (A) (A) (A) (A) (A) (A) (A) (A) (A) (A) (A) (A)
                 (A) (A) (A) (A) (A) (A) (A) (A) (A) (A) (A) (A)
                 (A) (A) (A) (A) (A) (A) (A) (A) (A) (A) (A) (A)
                 (A) (A) (A) (A) (A) (A) (A) (A) (A) (A) (A) (A)
                 (A) (A) (A) (A) (A) (A) (A) (A) (A) (A) (A) (A)
                 (A) (A) (A) (A) (A) (A) (A) (A) (A) (A) (A) (A)
                 (A) (A) (A) (A) (A) (A) (A) (A) (A) (A) (A) (A)
                 (A) (A) (A) (A) (A) (A) (A) (A) (A) (A) (A) (A)
                 (A) (A) (A) (A) (A) (A) (A) (A) (A) (A) (A) (A)
                 (A) (A) (A) (A) (A) (A) (A) (A) (A) (A) (A) (A)
                 (A) (A) (A) (A) (A) (A) (A) (A) (A) (A) (A) (A)
                 (A) (A) (A) (A) (A) (A) (A) (A) (A) (A) (A) (A)
                 (A) (A) (A) (A) (A) (A) (A) (A) (A) (A) (A) (A)
                 (A) (A) (A) (A) (A) (A) (A) (A) (A) (A) (A) (A)
                 (A)
 The electronic state is 1-A.
 Alpha  occ. eigenvalues --  -10.30372 -10.30368 -10.30313 -10.30300 -10.30291
 Alpha  occ. eigenvalues --  -10.30213 -10.29227 -10.29225 -10.29207 -10.29203
 Alpha  occ. eigenvalues --  -10.29192 -10.29168 -10.29148 -10.29145 -10.29122
 Alpha  occ. eigenvalues --  -10.29119 -10.29112 -10.29092 -10.29077 -10.29076
 Alpha  occ. eigenvalues --  -10.29061 -10.29051 -10.29039 -10.29036  -0.98920
 Alpha  occ. eigenvalues --   -0.97027  -0.96985  -0.95238  -0.89380  -0.89351
 Alpha  occ. eigenvalues --   -0.85305  -0.85261  -0.85169  -0.85022  -0.82251
 Alpha  occ. eigenvalues --   -0.82203  -0.73497  -0.73192  -0.71109  -0.70505
 Alpha  occ. eigenvalues --   -0.70435  -0.70082  -0.66811  -0.66662  -0.63420
 Alpha  occ. eigenvalues --   -0.60676  -0.60633  -0.58729  -0.57079  -0.56449
 Alpha  occ. eigenvalues --   -0.54958  -0.54709  -0.54579  -0.54256  -0.53104
 Alpha  occ. eigenvalues --   -0.51917  -0.51389  -0.51260  -0.51078  -0.50839
 Alpha  occ. eigenvalues --   -0.50720  -0.47638  -0.46611  -0.46044  -0.46027
 Alpha  occ. eigenvalues --   -0.45447  -0.45122  -0.44267  -0.43142  -0.43021
 Alpha  occ. eigenvalues --   -0.42858  -0.41842  -0.41336  -0.36511  -0.34958
 Alpha  occ. eigenvalues --   -0.33603  -0.33594  -0.33591  -0.33078  -0.31360
 Alpha  occ. eigenvalues --   -0.30203
 Alpha virt. eigenvalues --    0.02009   0.03119   0.03673   0.04208   0.04348
 Alpha virt. eigenvalues --    0.04811   0.04933   0.05071   0.05172   0.05310
 Alpha virt. eigenvalues --    0.05421   0.05648   0.05667   0.06716   0.06802
 Alpha virt. eigenvalues --    0.06832   0.07090   0.07909   0.08019   0.08253
 Alpha virt. eigenvalues --    0.08608   0.09011   0.09122   0.09405   0.11110
 Alpha virt. eigenvalues --    0.11481   0.11875   0.12089   0.12744   0.13401
 Alpha virt. eigenvalues --    0.13576   0.14081   0.14186   0.14829   0.14982
 Alpha virt. eigenvalues --    0.15596   0.15685   0.15777   0.16073   0.16355
 Alpha virt. eigenvalues --    0.16455   0.16572   0.17030   0.17344   0.17406
 Alpha virt. eigenvalues --    0.17536   0.17693   0.17778   0.17915   0.18064
 Alpha virt. eigenvalues --    0.18096   0.18184   0.18474   0.18731   0.18790
 Alpha virt. eigenvalues --    0.18991   0.19111   0.19454   0.20188   0.20297
 Alpha virt. eigenvalues --    0.20352   0.20641   0.20802   0.21325   0.21375
 Alpha virt. eigenvalues --    0.21911   0.22193   0.22210   0.22564   0.22869
 Alpha virt. eigenvalues --    0.23072   0.23138   0.23325   0.23608   0.23814
 Alpha virt. eigenvalues --    0.24382   0.25044   0.25129   0.25173   0.25616
 Alpha virt. eigenvalues --    0.25796   0.26042   0.26229   0.26774   0.27138
 Alpha virt. eigenvalues --    0.27398   0.27577   0.28043   0.28136   0.28506
 Alpha virt. eigenvalues --    0.28612   0.28947   0.29208   0.29372   0.29527
 Alpha virt. eigenvalues --    0.29666   0.30061   0.30273   0.30461   0.30631
 Alpha virt. eigenvalues --    0.31570   0.31970   0.32155   0.32720   0.33406
 Alpha virt. eigenvalues --    0.33678   0.33753   0.33939   0.34090   0.34337
 Alpha virt. eigenvalues --    0.34664   0.35043   0.35097   0.35313   0.35881
 Alpha virt. eigenvalues --    0.35916   0.35993   0.36584   0.36615   0.36912
 Alpha virt. eigenvalues --    0.36968   0.37173   0.37340   0.37884   0.37938
 Alpha virt. eigenvalues --    0.38173   0.38459   0.38726   0.39500   0.39641
 Alpha virt. eigenvalues --    0.39760   0.40100   0.40366   0.40793   0.41771
 Alpha virt. eigenvalues --    0.41924   0.42480   0.42632   0.42780   0.43096
 Alpha virt. eigenvalues --    0.43177   0.43454   0.43785   0.44655   0.44699
 Alpha virt. eigenvalues --    0.44914   0.45396   0.47513   0.47721   0.48135
 Alpha virt. eigenvalues --    0.48722   0.49005   0.49509   0.52873   0.53082
 Alpha virt. eigenvalues --    0.57204   0.58196   0.58789   0.59966   0.60074
 Alpha virt. eigenvalues --    0.61579   0.62176   0.62422   0.62652   0.62788
 Alpha virt. eigenvalues --    0.63079   0.63198   0.63522   0.63833   0.64105
 Alpha virt. eigenvalues --    0.64310   0.64652   0.64709   0.64777   0.65700
 Alpha virt. eigenvalues --    0.66151   0.66361   0.66709   0.66993   0.67393
 Alpha virt. eigenvalues --    0.67996   0.68553   0.69196   0.69649   0.70116
 Alpha virt. eigenvalues --    0.70628   0.71226   0.71709   0.71945   0.72594
 Alpha virt. eigenvalues --    0.73329   0.73685   0.73840   0.74593   0.74835
 Alpha virt. eigenvalues --    0.75022   0.75645   0.75980   0.77692   0.78265
 Alpha virt. eigenvalues --    0.79077   0.79188   0.80231   0.80536   0.80935
 Alpha virt. eigenvalues --    0.81152   0.81253   0.81389   0.81600   0.81873
 Alpha virt. eigenvalues --    0.82514   0.82627   0.82997   0.83659   0.83851
 Alpha virt. eigenvalues --    0.84057   0.84244   0.84806   0.85361   0.85609
 Alpha virt. eigenvalues --    0.86005   0.86543   0.87064   0.87472   0.88181
 Alpha virt. eigenvalues --    0.88365   0.90232   0.90709   0.91452   0.91682
 Alpha virt. eigenvalues --    0.91864   0.92292   0.92772   0.93125   0.93630
 Alpha virt. eigenvalues --    0.93833   0.93927   0.94562   0.94997   0.95376
 Alpha virt. eigenvalues --    0.95934   0.96249   0.96661   0.97129   0.97827
 Alpha virt. eigenvalues --    0.99195   1.00160   1.00470   1.00588   1.01349
 Alpha virt. eigenvalues --    1.01613   1.01970   1.03247   1.04090   1.05022
 Alpha virt. eigenvalues --    1.05577   1.06365   1.06722   1.07751   1.08245
 Alpha virt. eigenvalues --    1.08404   1.08566   1.09120   1.09562   1.09776
 Alpha virt. eigenvalues --    1.11952   1.12175   1.12639   1.12810   1.13473
 Alpha virt. eigenvalues --    1.13813   1.14420   1.14585   1.15959   1.16501
 Alpha virt. eigenvalues --    1.17058   1.17883   1.18282   1.19347   1.20081
 Alpha virt. eigenvalues --    1.21715   1.22314   1.22395   1.23166   1.23836
 Alpha virt. eigenvalues --    1.24438   1.25386   1.27579   1.27816   1.30075
 Alpha virt. eigenvalues --    1.30883   1.38786   1.38994   1.40316   1.41473
 Alpha virt. eigenvalues --    1.41496   1.45835   1.46526   1.48213   1.51015
 Alpha virt. eigenvalues --    1.54237   1.56756   1.57326   1.58397   1.59351
 Alpha virt. eigenvalues --    1.59845   1.59924   1.60222   1.61035   1.61568
 Alpha virt. eigenvalues --    1.61796   1.62203   1.62624   1.63088   1.64070
 Alpha virt. eigenvalues --    1.64173   1.65191   1.65593   1.65805   1.65862
 Alpha virt. eigenvalues --    1.66292   1.66564   1.67009   1.68245   1.68814
 Alpha virt. eigenvalues --    1.70038   1.71161   1.72669   1.73015   1.73720
 Alpha virt. eigenvalues --    1.73830   1.74489   1.75166   1.75351   1.75833
 Alpha virt. eigenvalues --    1.76080   1.77039   1.79922   1.81538   1.81970
 Alpha virt. eigenvalues --    1.82855   1.82951   1.84080   1.84401   1.84945
 Alpha virt. eigenvalues --    1.85644   1.86060   1.86323   1.86373   1.87651
 Alpha virt. eigenvalues --    1.88453   1.88707   1.89787   1.92455   1.92703
 Alpha virt. eigenvalues --    1.93054   1.93395   1.95433   1.96267   1.97076
 Alpha virt. eigenvalues --    1.99013   1.99985   2.00024   2.01563   2.02341
 Alpha virt. eigenvalues --    2.02780   2.02852   2.03296   2.04096   2.04310
 Alpha virt. eigenvalues --    2.04680   2.05091   2.05391   2.05519   2.05964
 Alpha virt. eigenvalues --    2.06185   2.06579   2.07225   2.08037   2.09325
 Alpha virt. eigenvalues --    2.11042   2.11722   2.12051   2.12462   2.12971
 Alpha virt. eigenvalues --    2.13526   2.14287   2.15348   2.16486   2.16894
 Alpha virt. eigenvalues --    2.17537   2.18360   2.19309   2.19846   2.21218
 Alpha virt. eigenvalues --    2.21900   2.22856   2.28207   2.29393   2.33001
 Alpha virt. eigenvalues --    2.35151   2.35750   2.37427   2.37961   2.39472
 Alpha virt. eigenvalues --    2.40823   2.44453   2.44633   2.48850   2.49017
 Alpha virt. eigenvalues --    2.50330   2.52002   2.53161   2.53570   2.54196
 Alpha virt. eigenvalues --    2.54948   2.55207   2.56385   2.56558   2.56982
 Alpha virt. eigenvalues --    2.57377   2.58673   2.58744   2.61866   2.62728
 Alpha virt. eigenvalues --    2.69818   2.72735   2.72960   2.73081   2.74154
 Alpha virt. eigenvalues --    2.74427   2.75948   2.76276   2.76469   2.79466
 Alpha virt. eigenvalues --    2.79657   2.80092   2.80407   2.80593   2.81083
 Alpha virt. eigenvalues --    2.81626   2.81975   2.82516   2.83076   2.83229
 Alpha virt. eigenvalues --    2.83867   2.83999   2.84266   2.85359   2.85742
 Alpha virt. eigenvalues --    2.86228   2.87276   2.87797   2.88831   2.89150
 Alpha virt. eigenvalues --    2.90706   2.91644   2.92260   2.92487   2.92788
 Alpha virt. eigenvalues --    2.93314   2.93631   2.94519   2.94891   2.95737
 Alpha virt. eigenvalues --    2.98379   2.99218   2.99471   2.99838   3.01280
 Alpha virt. eigenvalues --    3.02038   3.03612   3.04647   3.04975   3.05287
 Alpha virt. eigenvalues --    3.05522   3.07052   3.07574   3.08098   3.09529
 Alpha virt. eigenvalues --    3.11612   3.12547   3.16110   3.18986   3.20087
 Alpha virt. eigenvalues --    3.21268   3.22192   3.24537   3.27213   3.30263
 Alpha virt. eigenvalues --    3.32481   3.32584   3.33979   3.34744   3.35561
 Alpha virt. eigenvalues --    3.42241   3.46062   3.47689   3.48799   3.49270
 Alpha virt. eigenvalues --    3.49533   3.50857   3.52646   3.53960   3.60327
 Alpha virt. eigenvalues --    3.61043   3.61154   3.63800   3.64944   3.65833
 Alpha virt. eigenvalues --    3.67006   3.73753   3.74086   3.76245   3.76514
 Alpha virt. eigenvalues --    3.77509   3.78465   3.90803   3.92787   3.96886
 Alpha virt. eigenvalues --    4.09707   4.09988   4.10257   4.14514   4.14577
 Alpha virt. eigenvalues --    4.14730   4.24244   4.24673   4.25454   4.26266
 Alpha virt. eigenvalues --    4.26459   4.27038   4.27595   4.27789   4.46900
 Alpha virt. eigenvalues --    4.62884   4.66924   4.94019   4.95572   4.95777
 Alpha virt. eigenvalues --    4.98307  23.68404  23.81515  23.82586  23.88257
 Alpha virt. eigenvalues --   24.08388  24.08477  24.10704  24.11069  24.11276
 Alpha virt. eigenvalues --   24.11426  24.12852  24.13558  24.20277  24.20439
 Alpha virt. eigenvalues --   24.21016  24.24107  24.24329  24.24364  24.24540
 Alpha virt. eigenvalues --   24.26610  24.31633  24.33838  24.34182  24.35499
          Condensed to atoms (all electrons):
               1          2          3          4          5          6
     1  C   26.258385   0.644589   0.967490  -8.071347   0.345650   0.308215
     2  C    0.644589  18.981055  -4.717599   4.168994   0.193841  -2.526008
     3  C    0.967490  -4.717599  18.594394  -4.097049   0.203033  -2.429476
     4  C   -8.071347   4.168994  -4.097049  23.248369  -0.352046  -0.457944
     5  H    0.345650   0.193841   0.203033  -0.352046   0.516018  -0.030961
     6  C    0.308215  -2.526008  -2.429476  -0.457944  -0.030961  12.171578
     7  C   -8.109166  -4.339295   3.906186  -9.011919   0.094369  -0.506157
     8  H    0.331982   0.196845   0.201053   0.095549  -0.003859  -0.027687
     9  C   -5.581408  -0.919496  -0.993831   1.558284   0.008780  -1.626046
    10  C    0.319783  -2.754372  -1.401722  -2.047838  -0.026657   1.165160
    11  C   -1.060912  -0.296726  -0.330805  -0.016403  -0.080142   0.445545
    12  C   -0.770500   0.291831  -0.094406   0.217665   0.017248  -0.192109
    13  C    0.468240  -1.507404  -2.623427   0.467373  -0.018423   1.215101
    14  H    0.094157   0.060100   0.059844  -0.047269  -0.002298  -0.009530
    15  C   -0.574419   1.188442  -0.504942  -0.405220  -0.216742   0.206911
    16  C   -0.016807  -1.608046   0.124105  -0.526732   0.114988  -0.038885
    17  C   -0.411241   0.386257   0.368255   0.209707   0.013346  -1.252469
    18  H    0.054702  -0.014900  -0.044145  -0.023838  -0.001553   0.057521
    19  C   -0.017055  -0.003385   0.317029  -0.038876   0.010006  -1.133809
    20  H    0.017090  -0.000586  -0.006475   0.009953   0.003216  -0.001521
    21  C   -0.612457  -0.529565   1.057351   0.135533  -0.007743   0.146996
    22  C    0.112451   0.175918  -1.217126   0.117492   0.005002   0.018344
    23  C    0.463786   0.757364   0.114733  -0.039534   0.033555  -0.068750
    24  H   -0.076610  -0.032601  -0.044352   0.027630  -0.011177   0.031908
    25  C   -0.295397  -0.224972   0.055593  -0.035519   0.002865  -0.055718
    26  H    0.020322  -0.009204  -0.015128   0.131772  -0.002504   0.009336
    27  C   -0.102526  -0.104498  -0.199042  -0.016814  -0.002432  -0.192342
    28  H   -0.002342   0.002492   0.005267   0.002909  -0.000068   0.025425
    29  H   -0.001515  -0.001434   0.003563  -0.001156  -0.000356   0.036362
    30  C    0.382729   0.135864   0.660228  -0.153911  -0.001528  -0.106782
    31  H   -0.079284  -0.045614  -0.038671   0.022398  -0.000579   0.032847
    32  C   -0.287283   0.038420  -0.291163   0.415071   0.003771  -0.035469
    33  H    0.019209  -0.014662   0.000437  -0.135979   0.000033   0.009316
    34  C   -0.033749  -0.161643  -0.030834  -0.244401  -0.011584   0.033237
    35  H    0.006148   0.007896   0.001461   0.001787   0.000843  -0.002089
    36  H   -0.002811  -0.002937   0.000108  -0.007928   0.000556  -0.000588
    37  H   -0.002926  -0.004961  -0.006749   0.000574  -0.000128   0.018878
    38  C   -0.014622  -0.028336  -0.114193  -0.018346  -0.000217   0.033039
    39  H    0.005648   0.001609   0.007831   0.001117  -0.000003  -0.002332
    40  H   -0.002892  -0.000059  -0.004501   0.012823  -0.000010  -0.000580
    41  H    0.000915  -0.004109  -0.000831  -0.007860  -0.000442   0.000849
    42  H    0.001223  -0.000815  -0.003027   0.000294  -0.000009   0.000916
               7          8          9         10         11         12
     1  C   -8.109166   0.331982  -5.581408   0.319783  -1.060912  -0.770500
     2  C   -4.339295   0.196845  -0.919496  -2.754372  -0.296726   0.291831
     3  C    3.906186   0.201053  -0.993831  -1.401722  -0.330805  -0.094406
     4  C   -9.011919   0.095549   1.558284  -2.047838  -0.016403   0.217665
     5  H    0.094369  -0.003859   0.008780  -0.026657  -0.080142   0.017248
     6  C   -0.506157  -0.027687  -1.626046   1.165160   0.445545  -0.192109
     7  C   23.345598  -0.357524   1.927800   0.575252  -0.042566   0.164441
     8  H   -0.357524   0.509029   0.006451  -0.019387  -0.080031   0.037354
     9  C    1.927800   0.006451  15.803386  -2.060335  -0.360066   0.097058
    10  C    0.575252  -0.019387  -2.060335  15.557710   0.261290  -0.052511
    11  C   -0.042566  -0.080031  -0.360066   0.261290  14.310762  -5.638898
    12  C    0.164441   0.037354   0.097058  -0.052511  -5.638898  12.962408
    13  C   -2.201153  -0.018353  -2.156051   0.991868   0.251395  -0.010452
    14  H   -0.049497  -0.002307   0.255766   0.057441   0.003892  -0.003782
    15  C    0.105482  -0.003793  -0.711629  -0.760927  -0.042887   0.120158
    16  C    0.241920   0.001951   1.216309  -2.033495   0.052439  -0.057934
    17  C    0.162322   0.005389   0.068997   0.031766  -2.281665   1.143302
    18  H   -0.025854  -0.000917  -0.019192   0.011342   0.491620  -0.016379
    19  C    0.086179   0.000129   0.020678  -0.092633   0.864994  -1.532287
    20  H    0.002487   0.005023   0.007049   0.018528  -0.013926   0.399922
    21  C   -0.621844  -0.229874  -0.808643   0.003589  -0.045480   0.056300
    22  C   -0.136099   0.128668   1.036684   0.151854   0.052906  -0.027296
    23  C   -0.155071  -0.001458  -0.154436  -1.575267  -0.026556   0.010634
    24  H    0.017861  -0.000463  -0.020911  -0.014479   0.013881  -0.002719
    25  C    0.361370   0.003570   0.649530  -1.255155  -0.008825   0.006165
    26  H   -0.126998  -0.000120  -0.071584  -0.041538   0.001192   0.000532
    27  C   -0.040300   0.004054  -0.034143   0.027358  -0.182761  -0.573342
    28  H    0.003107  -0.000144   0.000483  -0.000237  -0.079933   0.009198
    29  H    0.000883  -0.000848  -0.000450  -0.001461   0.016847  -0.090660
    30  C    0.143471   0.020692  -0.084938  -0.023383  -0.019868   0.002895
    31  H    0.023806  -0.010892  -0.022640   0.014014   0.012557  -0.001939
    32  C   -0.254669   0.005991   0.702034  -0.132449  -0.011642   0.009924
    33  H    0.141126  -0.002161  -0.073467   0.016426   0.001226   0.000323
    34  C   -0.002721  -0.000168  -0.045182  -0.220457   0.003502  -0.000172
    35  H    0.001535  -0.000013   0.003433   0.027557  -0.000489   0.000263
    36  H    0.011734  -0.000005   0.016887   0.024852  -0.000155   0.000090
    37  H    0.000180   0.000049  -0.000834   0.000914   0.006579   0.004751
    38  C   -0.220979  -0.012816  -0.097218   0.042890   0.004471  -0.002018
    39  H    0.004393   0.000883   0.003868  -0.001042  -0.000477   0.000334
    40  H   -0.010692   0.000558   0.018504  -0.004308  -0.000187   0.000122
    41  H    0.000643  -0.000010  -0.005646   0.022758   0.000165  -0.000061
    42  H   -0.007710  -0.000407  -0.006820   0.001256   0.000179  -0.000096
              13         14         15         16         17         18
     1  C    0.468240   0.094157  -0.574419  -0.016807  -0.411241   0.054702
     2  C   -1.507404   0.060100   1.188442  -1.608046   0.386257  -0.014900
     3  C   -2.623427   0.059844  -0.504942   0.124105   0.368255  -0.044145
     4  C    0.467373  -0.047269  -0.405220  -0.526732   0.209707  -0.023838
     5  H   -0.018423  -0.002298  -0.216742   0.114988   0.013346  -0.001553
     6  C    1.215101  -0.009530   0.206911  -0.038885  -1.252469   0.057521
     7  C   -2.201153  -0.049497   0.105482   0.241920   0.162322  -0.025854
     8  H   -0.018353  -0.002307  -0.003793   0.001951   0.005389  -0.000917
     9  C   -2.156051   0.255766  -0.711629   1.216309   0.068997  -0.019192
    10  C    0.991868   0.057441  -0.760927  -2.033495   0.031766   0.011342
    11  C    0.251395   0.003892  -0.042887   0.052439  -2.281665   0.491620
    12  C   -0.010452  -0.003782   0.120158  -0.057934   1.143302  -0.016379
    13  C   15.705381   0.054081  -0.035288   0.205811   0.012107   0.010477
    14  H    0.054081   0.501292   0.100403  -0.184991  -0.003733   0.000667
    15  C   -0.035288   0.100403  18.193125 -10.381452  -0.055084   0.011475
    16  C    0.205811  -0.184991 -10.381452  20.037220   0.037509  -0.009880
    17  C    0.012107  -0.003733  -0.055084   0.037509   8.218470  -0.193073
    18  H    0.010477   0.000667   0.011475  -0.009880  -0.193073   0.470231
    19  C   -0.113024   0.003731   0.012862  -0.007606  -0.922709   0.035438
    20  H    0.022602  -0.000912  -0.012822   0.006788   0.031758  -0.002844
    21  C   -0.531972   0.093932   0.083319  -0.068324  -0.026486   0.006506
    22  C   -2.330665  -0.170840  -0.069679   0.092132   0.022030  -0.005463
    23  C   -0.015691   0.006725  -1.109764   0.597431   0.006926  -0.002140
    24  H    0.013262  -0.000740   0.563585  -0.075256  -0.001556   0.000591
    25  C   -0.148879  -0.007948   0.949148  -1.479414  -0.003294  -0.000131
    26  H    0.019930  -0.002293  -0.084709   0.521622   0.000288   0.000031
    27  C    0.036228   0.000114   0.000589  -0.000503   0.521400  -0.004089
    28  H   -0.000374  -0.000057  -0.000257   0.000345   0.415986  -0.010806
    29  H   -0.002299   0.000031   0.000905  -0.000234  -0.011949   0.000825
    30  C   -1.576193   0.002982   0.001533   0.010164   0.008842  -0.001891
    31  H   -0.018066  -0.000712   0.004591  -0.004076  -0.001041   0.000493
    32  C   -1.217855  -0.004849  -0.011237   0.001364  -0.003292  -0.000127
    33  H   -0.036816  -0.002468   0.001810   0.011485   0.000458  -0.000004
    34  C    0.043480  -0.002298  -0.297832  -0.113261   0.000382   0.000297
    35  H   -0.000969   0.000154  -0.109403   0.018729   0.000007  -0.000025
    36  H   -0.004547  -0.000800   0.016021  -0.095541  -0.000013  -0.000006
    37  H    0.001156  -0.000008  -0.000151   0.000050  -0.062040   0.000271
    38  C   -0.221977  -0.000824   0.006676  -0.019456   0.000336   0.000297
    39  H    0.029538   0.000160  -0.000256   0.000490   0.000005  -0.000020
    40  H    0.023293  -0.000792  -0.000817   0.002701  -0.000011  -0.000008
    41  H    0.001307   0.000150   0.001720   0.004273   0.000014   0.000010
    42  H    0.022977   0.000146   0.000189  -0.000564   0.000013   0.000007
              19         20         21         22         23         24
     1  C   -0.017055   0.017090  -0.612457   0.112451   0.463786  -0.076610
     2  C   -0.003385  -0.000586  -0.529565   0.175918   0.757364  -0.032601
     3  C    0.317029  -0.006475   1.057351  -1.217126   0.114733  -0.044352
     4  C   -0.038876   0.009953   0.135533   0.117492  -0.039534   0.027630
     5  H    0.010006   0.003216  -0.007743   0.005002   0.033555  -0.011177
     6  C   -1.133809  -0.001521   0.146996   0.018344  -0.068750   0.031908
     7  C    0.086179   0.002487  -0.621844  -0.136099  -0.155071   0.017861
     8  H    0.000129   0.005023  -0.229874   0.128668  -0.001458  -0.000463
     9  C    0.020678   0.007049  -0.808643   1.036684  -0.154436  -0.020911
    10  C   -0.092633   0.018528   0.003589   0.151854  -1.575267  -0.014479
    11  C    0.864994  -0.013926  -0.045480   0.052906  -0.026556   0.013881
    12  C   -1.532287   0.399922   0.056300  -0.027296   0.010634  -0.002719
    13  C   -0.113024   0.022602  -0.531972  -2.330665  -0.015691   0.013262
    14  H    0.003731  -0.000912   0.093932  -0.170840   0.006725  -0.000740
    15  C    0.012862  -0.012822   0.083319  -0.069679  -1.109764   0.563585
    16  C   -0.007606   0.006788  -0.068324   0.092132   0.597431  -0.075256
    17  C   -0.922709   0.031758  -0.026486   0.022030   0.006926  -0.001556
    18  H    0.035438  -0.002844   0.006506  -0.005463  -0.002140   0.000591
    19  C    7.919232  -0.139737   0.040947  -0.018560  -0.006535  -0.003838
    20  H   -0.139737   0.472934  -0.019821   0.010369  -0.001904  -0.000549
    21  C    0.040947  -0.019821  18.897941 -10.605503   0.002095   0.005638
    22  C   -0.018560   0.010369 -10.605503  19.705301   0.008234  -0.005246
    23  C   -0.006535  -0.001904   0.002095   0.008234   7.687756  -0.096850
    24  H   -0.003838  -0.000549   0.005638  -0.005246  -0.096850   0.484544
    25  C    0.003264  -0.000286  -0.010581   0.002748  -0.664869   0.000051
    26  H   -0.000216   0.000110   0.003032   0.007680  -0.007627   0.000224
    27  C    0.653414  -0.006012  -0.014155   0.005337  -0.002110   0.001323
    28  H   -0.003860   0.000488   0.000289   0.000015   0.000108  -0.000008
    29  H    0.420113  -0.011355   0.001862  -0.000507   0.000122   0.000009
    30  C   -0.011238  -0.001765  -1.342733   0.702049  -0.000219   0.000315
    31  H   -0.002025  -0.000876   0.578862  -0.088500   0.000196   0.000377
    32  C    0.004678  -0.000468   0.992641  -1.347641   0.004769  -0.001399
    33  H   -0.000460   0.000125  -0.082631   0.515005   0.000911   0.000089
    34  C   -0.001657   0.000107   0.006674  -0.019051   0.332489   0.024171
    35  H    0.000256   0.000002  -0.000280   0.000541   0.430638  -0.010998
    36  H    0.000011  -0.000002  -0.000824   0.002727   0.010830  -0.000304
    37  H   -0.061890   0.000786  -0.000466   0.000160  -0.000065   0.000038
    38  C   -0.002025   0.000106  -0.253468  -0.210274   0.000063   0.000230
    39  H    0.000229   0.000012  -0.117492   0.019789   0.000002  -0.000014
    40  H    0.000025  -0.000006   0.016278  -0.090875  -0.000032  -0.000010
    41  H   -0.000036   0.000005   0.000202  -0.000594  -0.073167   0.001294
    42  H   -0.000051   0.000009  -0.000346   0.006148   0.000005   0.000006
              25         26         27         28         29         30
     1  C   -0.295397   0.020322  -0.102526  -0.002342  -0.001515   0.382729
     2  C   -0.224972  -0.009204  -0.104498   0.002492  -0.001434   0.135864
     3  C    0.055593  -0.015128  -0.199042   0.005267   0.003563   0.660228
     4  C   -0.035519   0.131772  -0.016814   0.002909  -0.001156  -0.153911
     5  H    0.002865  -0.002504  -0.002432  -0.000068  -0.000356  -0.001528
     6  C   -0.055718   0.009336  -0.192342   0.025425   0.036362  -0.106782
     7  C    0.361370  -0.126998  -0.040300   0.003107   0.000883   0.143471
     8  H    0.003570  -0.000120   0.004054  -0.000144  -0.000848   0.020692
     9  C    0.649530  -0.071584  -0.034143   0.000483  -0.000450  -0.084938
    10  C   -1.255155  -0.041538   0.027358  -0.000237  -0.001461  -0.023383
    11  C   -0.008825   0.001192  -0.182761  -0.079933   0.016847  -0.019868
    12  C    0.006165   0.000532  -0.573342   0.009198  -0.090660   0.002895
    13  C   -0.148879   0.019930   0.036228  -0.000374  -0.002299  -1.576193
    14  H   -0.007948  -0.002293   0.000114  -0.000057   0.000031   0.002982
    15  C    0.949148  -0.084709   0.000589  -0.000257   0.000905   0.001533
    16  C   -1.479414   0.521622  -0.000503   0.000345  -0.000234   0.010164
    17  C   -0.003294   0.000288   0.521400   0.415986  -0.011949   0.008842
    18  H   -0.000131   0.000031  -0.004089  -0.010806   0.000825  -0.001891
    19  C    0.003264  -0.000216   0.653414  -0.003860   0.420113  -0.011238
    20  H   -0.000286   0.000110  -0.006012   0.000488  -0.011355  -0.001765
    21  C   -0.010581   0.003032  -0.014155   0.000289   0.001862  -1.342733
    22  C    0.002748   0.007680   0.005337   0.000015  -0.000507   0.702049
    23  C   -0.664869  -0.007627  -0.002110   0.000108   0.000122  -0.000219
    24  H    0.000051   0.000224   0.001323  -0.000008   0.000009   0.000315
    25  C    7.823280  -0.053993  -0.000283  -0.000024  -0.000005   0.005162
    26  H   -0.053993   0.497992   0.000062   0.000011  -0.000001   0.000634
    27  C   -0.000283   0.000062   6.204112  -0.050259  -0.047423  -0.002827
    28  H   -0.000024   0.000011  -0.050259   0.474842  -0.000205   0.000088
    29  H   -0.000005  -0.000001  -0.047423  -0.000205   0.477296   0.000112
    30  C    0.005162   0.000634  -0.002827   0.000088   0.000112   7.786357
    31  H   -0.001251   0.000143   0.000762   0.000010   0.000061  -0.090486
    32  C   -0.012975  -0.001096  -0.000375  -0.000001   0.000012  -0.704338
    33  H   -0.003583  -0.005336   0.000097   0.000009  -0.000002  -0.007236
    34  C    0.398514   0.023906   0.000227   0.000004   0.000007  -0.000001
    35  H    0.008122  -0.000392  -0.000035   0.000001   0.000000  -0.000003
    36  H    0.419313  -0.011532  -0.000001  -0.000000  -0.000000  -0.000017
    37  H   -0.000007   0.000002   0.441772  -0.008364  -0.009006  -0.000090
    38  C   -0.004746  -0.001062   0.000150   0.000003   0.000013   0.344344
    39  H    0.000052   0.000044  -0.000014  -0.000000  -0.000002   0.434006
    40  H    0.000663   0.000561  -0.000003  -0.000000  -0.000000   0.011225
    41  H   -0.067796   0.001719   0.000007  -0.000000  -0.000000   0.000004
    42  H   -0.000149  -0.000038   0.000008  -0.000000  -0.000000  -0.072860
              31         32         33         34         35         36
     1  C   -0.079284  -0.287283   0.019209  -0.033749   0.006148  -0.002811
     2  C   -0.045614   0.038420  -0.014662  -0.161643   0.007896  -0.002937
     3  C   -0.038671  -0.291163   0.000437  -0.030834   0.001461   0.000108
     4  C    0.022398   0.415071  -0.135979  -0.244401   0.001787  -0.007928
     5  H   -0.000579   0.003771   0.000033  -0.011584   0.000843   0.000556
     6  C    0.032847  -0.035469   0.009316   0.033237  -0.002089  -0.000588
     7  C    0.023806  -0.254669   0.141126  -0.002721   0.001535   0.011734
     8  H   -0.010892   0.005991  -0.002161  -0.000168  -0.000013  -0.000005
     9  C   -0.022640   0.702034  -0.073467  -0.045182   0.003433   0.016887
    10  C    0.014014  -0.132449   0.016426  -0.220457   0.027557   0.024852
    11  C    0.012557  -0.011642   0.001226   0.003502  -0.000489  -0.000155
    12  C   -0.001939   0.009924   0.000323  -0.000172   0.000263   0.000090
    13  C   -0.018066  -1.217855  -0.036816   0.043480  -0.000969  -0.004547
    14  H   -0.000712  -0.004849  -0.002468  -0.002298   0.000154  -0.000800
    15  C    0.004591  -0.011237   0.001810  -0.297832  -0.109403   0.016021
    16  C   -0.004076   0.001364   0.011485  -0.113261   0.018729  -0.095541
    17  C   -0.001041  -0.003292   0.000458   0.000382   0.000007  -0.000013
    18  H    0.000493  -0.000127  -0.000004   0.000297  -0.000025  -0.000006
    19  C   -0.002025   0.004678  -0.000460  -0.001657   0.000256   0.000011
    20  H   -0.000876  -0.000468   0.000125   0.000107   0.000002  -0.000002
    21  C    0.578862   0.992641  -0.082631   0.006674  -0.000280  -0.000824
    22  C   -0.088500  -1.347641   0.515005  -0.019051   0.000541   0.002727
    23  C    0.000196   0.004769   0.000911   0.332489   0.430638   0.010830
    24  H    0.000377  -0.001399   0.000089   0.024171  -0.010998  -0.000304
    25  C   -0.001251  -0.012975  -0.003583   0.398514   0.008122   0.419313
    26  H    0.000143  -0.001096  -0.005336   0.023906  -0.000392  -0.011532
    27  C    0.000762  -0.000375   0.000097   0.000227  -0.000035  -0.000001
    28  H    0.000010  -0.000001   0.000009   0.000004   0.000001  -0.000000
    29  H    0.000061   0.000012  -0.000002   0.000007   0.000000  -0.000000
    30  C   -0.090486  -0.704338  -0.007236  -0.000001  -0.000003  -0.000017
    31  H    0.483238   0.001867   0.000120   0.000243  -0.000014  -0.000012
    32  C    0.001867   7.781201  -0.060860  -0.004463   0.000058   0.000560
    33  H    0.000120  -0.060860   0.498535  -0.000942   0.000045   0.000526
    34  C    0.000243  -0.004463  -0.000942   6.402409  -0.069448  -0.064327
    35  H   -0.000014   0.000058   0.000045  -0.069448   0.475308   0.001049
    36  H   -0.000012   0.000560   0.000526  -0.064327   0.001049   0.474925
    37  H    0.000022  -0.000006   0.000003   0.000007  -0.000002  -0.000000
    38  C    0.027141   0.429442   0.023502  -0.000194  -0.000001   0.000096
    39  H   -0.011347   0.007565  -0.000442  -0.000002   0.000000  -0.000001
    40  H   -0.000269   0.417678  -0.011768   0.000102  -0.000001  -0.000047
    41  H    0.000006  -0.000139  -0.000034   0.464309  -0.011040  -0.011479
    42  H    0.001304  -0.069506   0.001859  -0.000000  -0.000000   0.000001
              37         38         39         40         41         42
     1  C   -0.002926  -0.014622   0.005648  -0.002892   0.000915   0.001223
     2  C   -0.004961  -0.028336   0.001609  -0.000059  -0.004109  -0.000815
     3  C   -0.006749  -0.114193   0.007831  -0.004501  -0.000831  -0.003027
     4  C    0.000574  -0.018346   0.001117   0.012823  -0.007860   0.000294
     5  H   -0.000128  -0.000217  -0.000003  -0.000010  -0.000442  -0.000009
     6  C    0.018878   0.033039  -0.002332  -0.000580   0.000849   0.000916
     7  C    0.000180  -0.220979   0.004393  -0.010692   0.000643  -0.007710
     8  H    0.000049  -0.012816   0.000883   0.000558  -0.000010  -0.000407
     9  C   -0.000834  -0.097218   0.003868   0.018504  -0.005646  -0.006820
    10  C    0.000914   0.042890  -0.001042  -0.004308   0.022758   0.001256
    11  C    0.006579   0.004471  -0.000477  -0.000187   0.000165   0.000179
    12  C    0.004751  -0.002018   0.000334   0.000122  -0.000061  -0.000096
    13  C    0.001156  -0.221977   0.029538   0.023293   0.001307   0.022977
    14  H   -0.000008  -0.000824   0.000160  -0.000792   0.000150   0.000146
    15  C   -0.000151   0.006676  -0.000256  -0.000817   0.001720   0.000189
    16  C    0.000050  -0.019456   0.000490   0.002701   0.004273  -0.000564
    17  C   -0.062040   0.000336   0.000005  -0.000011   0.000014   0.000013
    18  H    0.000271   0.000297  -0.000020  -0.000008   0.000010   0.000007
    19  C   -0.061890  -0.002025   0.000229   0.000025  -0.000036  -0.000051
    20  H    0.000786   0.000106   0.000012  -0.000006   0.000005   0.000009
    21  C   -0.000466  -0.253468  -0.117492   0.016278   0.000202  -0.000346
    22  C    0.000160  -0.210274   0.019789  -0.090875  -0.000594   0.006148
    23  C   -0.000065   0.000063   0.000002  -0.000032  -0.073167   0.000005
    24  H    0.000038   0.000230  -0.000014  -0.000010   0.001294   0.000006
    25  C   -0.000007  -0.004746   0.000052   0.000663  -0.067796  -0.000149
    26  H    0.000002  -0.001062   0.000044   0.000561   0.001719  -0.000038
    27  C    0.441772   0.000150  -0.000014  -0.000003   0.000007   0.000008
    28  H   -0.008364   0.000003  -0.000000  -0.000000  -0.000000  -0.000000
    29  H   -0.009006   0.000013  -0.000002  -0.000000  -0.000000  -0.000000
    30  C   -0.000090   0.344344   0.434006   0.011225   0.000004  -0.072860
    31  H    0.000022   0.027141  -0.011347  -0.000269   0.000006   0.001304
    32  C   -0.000006   0.429442   0.007565   0.417678  -0.000139  -0.069506
    33  H    0.000003   0.023502  -0.000442  -0.011768  -0.000034   0.001859
    34  C    0.000007  -0.000194  -0.000002   0.000102   0.464309  -0.000000
    35  H   -0.000002  -0.000001   0.000000  -0.000001  -0.011040  -0.000000
    36  H   -0.000000   0.000096  -0.000001  -0.000047  -0.011479   0.000001
    37  H    0.483146   0.000006  -0.000001  -0.000000   0.000000   0.000000
    38  C    0.000006   6.389434  -0.069302  -0.064476  -0.000000   0.465598
    39  H   -0.000001  -0.069302   0.475513   0.001065  -0.000000  -0.011156
    40  H   -0.000000  -0.064476   0.001065   0.475129   0.000001  -0.011750
    41  H    0.000000  -0.000000  -0.000000   0.000001   0.486689   0.000000
    42  H    0.000000   0.465598  -0.011156  -0.011750   0.000000   0.487137
 Mulliken charges:
               1
     1  C    1.304554
     2  C   -1.378294
     3  C   -1.438466
     4  C    0.912637
     5  H    0.204335
     6  C    0.729767
     7  C    0.898068
     8  H    0.218020
     9  C   -1.547018
    10  C    1.196046
    11  C   -0.174042
    12  C   -0.485357
    13  C    1.194273
    14  H    0.203180
    15  C   -0.179631
    16  C   -0.577368
    17  C   -0.436217
    18  H    0.224485
    19  C   -0.279703
    20  H    0.212398
    21  C   -0.199300
    22  C   -0.555668
    23  C   -0.467328
    24  H    0.213056
    25  C   -0.353610
    26  H    0.194230
    27  C   -0.320727
    28  H    0.215858
    29  H    0.221845
    30  C   -0.451390
    31  H    0.213237
    32  C   -0.363743
    33  H    0.196175
    34  C   -0.409678
    35  H    0.219367
    36  H    0.223589
    37  H    0.198351
    38  C   -0.411284
    39  H    0.219752
    40  H    0.223365
    41  H    0.196204
    42  H    0.196030
 Sum of Mulliken charges =  -0.00000
 Mulliken charges with hydrogens summed into heavy atoms:
               1
     1  C    1.304554
     2  C   -1.173958
     3  C   -1.220446
     4  C    0.912637
     6  C    0.729767
     7  C    0.898068
     9  C   -1.343838
    10  C    1.196046
    11  C    0.050444
    12  C   -0.272959
    13  C    1.194273
    15  C    0.033425
    16  C   -0.383138
    17  C   -0.220359
    19  C   -0.057858
    21  C    0.013937
    22  C   -0.359492
    23  C   -0.247961
    25  C   -0.130020
    27  C   -0.122375
    30  C   -0.231638
    32  C   -0.140379
    34  C   -0.213474
    38  C   -0.215254
 Electronic spatial extent (au):  <R**2>=          10005.9633
 Charge=             -0.0000 electrons
 Dipole moment (field-independent basis, Debye):
    X=             -0.0257    Y=              0.0013    Z=             -0.0035  Tot=              0.0260
 Quadrupole moment (field-independent basis, Debye-Ang):
   XX=           -126.6275   YY=           -130.8180   ZZ=           -136.9869
   XY=              0.0788   XZ=              6.3730   YZ=              0.4745
 Traceless Quadrupole moment (field-independent basis, Debye-Ang):
   XX=              4.8499   YY=              0.6595   ZZ=             -5.5094
   XY=              0.0788   XZ=              6.3730   YZ=              0.4745
 Octapole moment (field-independent basis, Debye-Ang**2):
  XXX=            -33.6067  YYY=              1.5162  ZZZ=              2.3051  XYY=             55.3129
  XXY=             -1.5871  XXZ=             31.5307  XZZ=            -21.3147  YZZ=              0.0751
  YYZ=            -34.0669  XYZ=             -1.8055
 Hexadecapole moment (field-independent basis, Debye-Ang**3):
 XXXX=          -6269.3162 YYYY=          -6134.0978 ZZZZ=           -631.5381 XXXY=              5.0767
 XXXZ=            115.9609 YYYX=             -2.9741 YYYZ=             -2.5281 ZZZX=              8.8764
 ZZZY=              3.9287 XXYY=          -2156.6728 XXZZ=          -1162.4203 YYZZ=          -1240.5150
 XXYZ=             11.7606 YYXZ=             38.3841 ZZXY=              0.0036
 N-N= 1.730499770890D+03 E-N=-5.607512992050D+03  KE= 9.212948799604D+02
 No NMR shielding tensors so no spin-rotation constants.
 Leave Link  601 at Mon Nov 14 15:04:36 2022, MaxMem= 16106127360 cpu:               8.9 elap:               0.4
 (Enter /opt/ap/G16/B01/g16/l9999.exe)
 1\1\GINC-N60\SP\RwB97XD\6-311++G(d,p)\C24H18\ROOT\14-Nov-2022\0\\#P wB
 97XD/6-311++G(d,p) scf=maxcycle=512\\_conf001.gjf nmol_natom 1_42\\0,1
 \C\C,1,1.39412829\C,1,1.39435449,2,118.86443127\C,2,1.39416084,1,121.1
 529487,3,0.03668482,0\H,2,1.08488355,1,119.42236619,3,-179.97409048,0\
 C,1,1.48467131,2,120.55714816,4,179.25839056,0\C,3,1.39437784,1,121.11
 776116,2,-0.05351271,0\H,3,1.08487775,1,119.41869036,2,177.23008049,0\
 C,4,1.39432447,2,118.86473838,1,0.01008406,0\C,4,1.48466627,2,120.5464
 188,1,179.19454736,0\C,6,1.3968498,1,120.7843492,2,-85.,0\C,6,1.396868
 2,1,120.67653841,2,95.,0\C,7,1.48449863,3,120.56496838,1,-179.96325804
 ,0\H,9,1.0848792,4,119.41824946,2,177.22245984,0\C,10,1.39685361,4,120
 .76946845,2,-42.52368674,0\C,10,1.39686289,4,120.69448769,2,137.431075
 16,0\C,11,1.38888939,6,120.7380073,1,179.94058542,0\H,11,1.0847641,6,1
 19.46912378,1,-1.41050605,0\C,12,1.38882428,6,120.76493111,1,-179.9508
 2712,0\H,12,1.08482758,6,119.44182626,1,-1.23602505,0\C,13,1.39682899,
 7,120.74134419,3,42.89023273,0\C,13,1.39683158,7,120.7379111,3,-137.12
 494058,0\C,15,1.38888263,10,120.742191,4,179.9460119,0\H,15,1.08476334
 ,10,119.47085903,4,-1.40606944,0\C,16,1.38886088,10,120.76338989,4,-17
 9.95592713,0\H,16,1.08483431,10,119.44215232,4,-1.23439681,0\C,17,1.39
 007919,11,120.20743432,6,0.00349958,0\H,17,1.0843506,11,119.71318733,6
 ,179.5011609,0\H,19,1.08435858,12,119.73823132,6,179.53683762,0\C,21,1
 .38882373,13,120.76699356,7,179.99297883,0\H,21,1.0847938,13,119.43526
 23,7,1.32183327,0\C,22,1.38881869,13,120.76647403,7,-179.97118338,0\H,
 22,1.08479982,13,119.43203605,7,1.34657928,0\C,23,1.39007007,15,120.20
 732995,10,0.00573957,0\H,23,1.08434813,15,119.71220819,10,179.50724368
 ,0\H,25,1.08436328,16,119.73539424,10,179.53636455,0\H,27,1.08412515,1
 7,120.21790854,11,179.98397203,0\C,30,1.39008059,21,120.18795226,13,-0
 .02169059,0\H,30,1.08435324,21,119.73787119,13,-179.52151214,0\H,32,1.
 0843543,22,119.737043,13,-179.52886928,0\H,34,1.08412314,23,120.221528
 03,15,179.98800213,0\H,38,1.08411439,30,120.21547163,21,-179.98600656,
 0\\Version=ES64L-G16RevB.01\State=1-A\HF=-925.3090742\RMSD=3.767e-09\D
 ipole=-0.0089746,0.0016639,-0.0045833\Quadrupole=2.5700098,-3.8088787,
 1.238869,-4.1211062,1.2482853,-2.7789922\PG=C01 [X(C24H18)]\\@


 I WANT TO KNOW HOW GOD CREATED THE WORLD.  I AM NOT INTERESTED IN
 THIS OR THAT PHENOMENON, IN THE SPECTRUM OF THIS OR THAT ELEMENT.
 I WANT TO KNOW HIS THOUGHTS, THE REST ARE DETAILS.
     -- ALBERT EINSTEIN
 Job cpu time:       0 days  1 hours 26 minutes 16.3 seconds.
 Elapsed time:       0 days  0 hours  2 minutes 44.9 seconds.
 File lengths (MBytes):  RWF=    224 Int=      0 D2E=      0 Chk=     26 Scr=      1
 Normal termination of Gaussian 16 at Mon Nov 14 15:04:36 2022.
