 Entering Gaussian System, Link 0=g16
 Input=_conf021.gjf
 Output=_conf021.log
 Initial command:
 /opt/ap/G16/B01/g16/l1.exe "/tmp2/scr/Gau-11788.inp" -scrdir="/tmp2/scr/"
 Entering Link 1 = /opt/ap/G16/B01/g16/l1.exe PID=     11789.
  
 Copyright (c) 1988-2017, Gaussian, Inc.  All Rights Reserved.
  
 This is part of the Gaussian(R) 16 program.  It is based on
 the Gaussian(R) 09 system (copyright 2009, Gaussian, Inc.),
 the Gaussian(R) 03 system (copyright 2003, Gaussian, Inc.),
 the Gaussian(R) 98 system (copyright 1998, Gaussian, Inc.),
 the Gaussian(R) 94 system (copyright 1995, Gaussian, Inc.),
 the Gaussian 92(TM) system (copyright 1992, Gaussian, Inc.),
 the Gaussian 90(TM) system (copyright 1990, Gaussian, Inc.),
 the Gaussian 88(TM) system (copyright 1988, Gaussian, Inc.),
 the Gaussian 86(TM) system (copyright 1986, Carnegie Mellon
 University), and the Gaussian 82(TM) system (copyright 1983,
 Carnegie Mellon University). Gaussian is a federally registered
 trademark of Gaussian, Inc.
  
 This software contains proprietary and confidential information,
 including trade secrets, belonging to Gaussian, Inc.
  
 This software is provided under written license and may be
 used, copied, transmitted, or stored only in accord with that
 written license.
  
 The following legend is applicable only to US Government
 contracts under FAR:
  
                    RESTRICTED RIGHTS LEGEND
  
 Use, reproduction and disclosure by the US Government is
 subject to restrictions as set forth in subparagraphs (a)
 and (c) of the Commercial Computer Software - Restricted
 Rights clause in FAR 52.227-19.
  
 Gaussian, Inc.
 340 Quinnipiac St., Bldg. 40, Wallingford CT 06492
  
  
 ---------------------------------------------------------------
 Warning -- This program may not be used in any manner that
 competes with the business of Gaussian, Inc. or will provide
 assistance to any competitor of Gaussian, Inc.  The licensee
 of this program is prohibited from giving any competitor of
 Gaussian, Inc. access to this program.  By using this program,
 the user acknowledges that Gaussian, Inc. is engaged in the
 business of creating and licensing software in the field of
 computational chemistry and represents and warrants to the
 licensee that it is not a competitor of Gaussian, Inc. and that
 it will not use this program in any manner prohibited above.
 ---------------------------------------------------------------
  

 Cite this work as:
 Gaussian 16, Revision B.01,
 M. J. Frisch, G. W. Trucks, H. B. Schlegel, G. E. Scuseria, 
 M. A. Robb, J. R. Cheeseman, G. Scalmani, V. Barone, 
 G. A. Petersson, H. Nakatsuji, X. Li, M. Caricato, A. V. Marenich, 
 J. Bloino, B. G. Janesko, R. Gomperts, B. Mennucci, H. P. Hratchian, 
 J. V. Ortiz, A. F. Izmaylov, J. L. Sonnenberg, D. Williams-Young, 
 F. Ding, F. Lipparini, F. Egidi, J. Goings, B. Peng, A. Petrone, 
 T. Henderson, D. Ranasinghe, V. G. Zakrzewski, J. Gao, N. Rega, 
 G. Zheng, W. Liang, M. Hada, M. Ehara, K. Toyota, R. Fukuda, 
 J. Hasegawa, M. Ishida, T. Nakajima, Y. Honda, O. Kitao, H. Nakai, 
 T. Vreven, K. Throssell, J. A. Montgomery, Jr., J. E. Peralta, 
 F. Ogliaro, M. J. Bearpark, J. J. Heyd, E. N. Brothers, K. N. Kudin, 
 V. N. Staroverov, T. A. Keith, R. Kobayashi, J. Normand, 
 K. Raghavachari, A. P. Rendell, J. C. Burant, S. S. Iyengar, 
 J. Tomasi, M. Cossi, J. M. Millam, M. Klene, C. Adamo, R. Cammi, 
 J. W. Ochterski, R. L. Martin, K. Morokuma, O. Farkas, 
 J. B. Foresman, and D. J. Fox, Gaussian, Inc., Wallingford CT, 2016.
 
 ******************************************
 Gaussian 16:  ES64L-G16RevB.01 20-Dec-2017
                14-Nov-2022 
 ******************************************
 %nprocshared=32
 Will use up to   32 processors via shared memory.
 %mem=120GB
 %chk=_conf021.chk
 ----------------------------------------
 #P wB97XD/6-311++G(d,p) scf=maxcycle=512
 ----------------------------------------
 1/38=1,172=1/1;
 2/12=2,17=6,18=5,40=1/2;
 3/5=4,6=6,7=1111,11=2,25=1,30=1,74=-58/1,2,3;
 4//1;
 5/5=2,7=512,38=5/2;
 6/7=2,8=2,9=2,10=2,28=1/1;
 99/5=1,9=1/99;
 Leave Link    1 at Mon Nov 14 15:14:31 2022, MaxMem= 16106127360 cpu:               1.3 elap:               0.0
 (Enter /opt/ap/G16/B01/g16/l101.exe)
 ----------------------------
 _conf021.gjf nmol_natom 1_42
 ----------------------------
 Symbolic Z-matrix:
 Charge =  0 Multiplicity = 1
 C
 C                    1     1.39413 
 C                    1     1.39435  2     118.86443 
 C                    2     1.39416  1     121.15295  3     0.03668  0
 H                    2     1.08488  1     119.42237  3    -179.97409  0
 C                    1     1.48467  2     120.55715  4     179.25839  0
 C                    3     1.39438  1     121.11776  2    -0.05351  0
 H                    3     1.08488  1     119.41869  2     177.23008  0
 C                    4     1.39432  2     118.86474  1     0.01008  0
 C                    4     1.48467  2     120.54642  1     179.19455  0
 C                    6     1.39685  1     120.78435  2     15.      0
 C                    6     1.39687  1     120.67654  2    -165.     0
 C                    7     1.4845   3     120.56497  1    -179.96326  0
 H                    9     1.08488  4     119.41825  2     177.22246  0
 C                    10    1.39685  4     120.76947  2    -42.52369  0
 C                    10    1.39686  4     120.69449  2     137.43108  0
 C                    11    1.38889  6     120.73801  1     179.94059  0
 H                    11    1.08476  6     119.46912  1    -1.41051  0
 C                    12    1.38882  6     120.76493  1    -179.95083  0
 H                    12    1.08483  6     119.44183  1    -1.23603  0
 C                    13    1.39683  7     120.74134  3     42.89023  0
 C                    13    1.39683  7     120.73791  3    -137.12494  0
 C                    15    1.38888  10    120.74219  4     179.94601  0
 H                    15    1.08476  10    119.47086  4    -1.40607  0
 C                    16    1.38886  10    120.76339  4    -179.95593  0
 H                    16    1.08483  10    119.44215  4    -1.2344   0
 C                    17    1.39008  11    120.20743  6     0.0035   0
 H                    17    1.08435  11    119.71319  6     179.50116  0
 H                    19    1.08436  12    119.73823  6     179.53684  0
 C                    21    1.38882  13    120.76699  7     179.99298  0
 H                    21    1.08479  13    119.43526  7     1.32183  0
 C                    22    1.38882  13    120.76647  7    -179.97118  0
 H                    22    1.0848   13    119.43204  7     1.34658  0
 C                    23    1.39007  15    120.20733  10    0.00574  0
 H                    23    1.08435  15    119.71221  10    179.50724  0
 H                    25    1.08436  16    119.73539  10    179.53636  0
 H                    27    1.08413  17    120.21791  11    179.98397  0
 C                    30    1.39008  21    120.18795  13   -0.02169  0
 H                    30    1.08435  21    119.73787  13   -179.52151  0
 H                    32    1.08435  22    119.73704  13   -179.52887  0
 H                    34    1.08412  23    120.22153  15    179.988  0
 H                    38    1.08411  30    120.21547  21   -179.98601  0
 
 ITRead=  0  0  0  0  0  0  0  0  0  0  0  0  0  0  0  0  0  0  0  0
 ITRead=  0  0  0  0  0  0  0  0  0  0  0  0  0  0  0  0  0  0  0  0
 ITRead=  0  0
 MicOpt= -1 -1 -1 -1 -1 -1 -1 -1 -1 -1 -1 -1 -1 -1 -1 -1 -1 -1 -1 -1
 MicOpt= -1 -1 -1 -1 -1 -1 -1 -1 -1 -1 -1 -1 -1 -1 -1 -1 -1 -1 -1 -1
 MicOpt= -1 -1
 NAtoms=     42 NQM=       42 NQMF=       0 NMMI=      0 NMMIF=      0
                NMic=       0 NMicF=      0.
                    Isotopes and Nuclear Properties:
 (Nuclear quadrupole moments (NQMom) in fm**2, nuclear magnetic moments (NMagM)
  in nuclear magnetons)

  Atom         1           2           3           4           5           6           7           8           9          10
 IAtWgt=          12          12          12          12           1          12          12           1          12          12
 AtmWgt=  12.0000000  12.0000000  12.0000000  12.0000000   1.0078250  12.0000000  12.0000000   1.0078250  12.0000000  12.0000000
 NucSpn=           0           0           0           0           1           0           0           1           0           0
 AtZEff=  -0.0000000  -0.0000000  -0.0000000  -0.0000000  -0.0000000  -0.0000000  -0.0000000  -0.0000000  -0.0000000  -0.0000000
 NQMom=    0.0000000   0.0000000   0.0000000   0.0000000   0.0000000   0.0000000   0.0000000   0.0000000   0.0000000   0.0000000
 NMagM=    0.0000000   0.0000000   0.0000000   0.0000000   2.7928460   0.0000000   0.0000000   2.7928460   0.0000000   0.0000000
 AtZNuc=   6.0000000   6.0000000   6.0000000   6.0000000   1.0000000   6.0000000   6.0000000   1.0000000   6.0000000   6.0000000

  Atom        11          12          13          14          15          16          17          18          19          20
 IAtWgt=          12          12          12           1          12          12          12           1          12           1
 AtmWgt=  12.0000000  12.0000000  12.0000000   1.0078250  12.0000000  12.0000000  12.0000000   1.0078250  12.0000000   1.0078250
 NucSpn=           0           0           0           1           0           0           0           1           0           1
 AtZEff=  -0.0000000  -0.0000000  -0.0000000  -0.0000000  -0.0000000  -0.0000000  -0.0000000  -0.0000000  -0.0000000  -0.0000000
 NQMom=    0.0000000   0.0000000   0.0000000   0.0000000   0.0000000   0.0000000   0.0000000   0.0000000   0.0000000   0.0000000
 NMagM=    0.0000000   0.0000000   0.0000000   2.7928460   0.0000000   0.0000000   0.0000000   2.7928460   0.0000000   2.7928460
 AtZNuc=   6.0000000   6.0000000   6.0000000   1.0000000   6.0000000   6.0000000   6.0000000   1.0000000   6.0000000   1.0000000

  Atom        21          22          23          24          25          26          27          28          29          30
 IAtWgt=          12          12          12           1          12           1          12           1           1          12
 AtmWgt=  12.0000000  12.0000000  12.0000000   1.0078250  12.0000000   1.0078250  12.0000000   1.0078250   1.0078250  12.0000000
 NucSpn=           0           0           0           1           0           1           0           1           1           0
 AtZEff=  -0.0000000  -0.0000000  -0.0000000  -0.0000000  -0.0000000  -0.0000000  -0.0000000  -0.0000000  -0.0000000  -0.0000000
 NQMom=    0.0000000   0.0000000   0.0000000   0.0000000   0.0000000   0.0000000   0.0000000   0.0000000   0.0000000   0.0000000
 NMagM=    0.0000000   0.0000000   0.0000000   2.7928460   0.0000000   2.7928460   0.0000000   2.7928460   2.7928460   0.0000000
 AtZNuc=   6.0000000   6.0000000   6.0000000   1.0000000   6.0000000   1.0000000   6.0000000   1.0000000   1.0000000   6.0000000

  Atom        31          32          33          34          35          36          37          38          39          40
 IAtWgt=           1          12           1          12           1           1           1          12           1           1
 AtmWgt=   1.0078250  12.0000000   1.0078250  12.0000000   1.0078250   1.0078250   1.0078250  12.0000000   1.0078250   1.0078250
 NucSpn=           1           0           1           0           1           1           1           0           1           1
 AtZEff=  -0.0000000  -0.0000000  -0.0000000  -0.0000000  -0.0000000  -0.0000000  -0.0000000  -0.0000000  -0.0000000  -0.0000000
 NQMom=    0.0000000   0.0000000   0.0000000   0.0000000   0.0000000   0.0000000   0.0000000   0.0000000   0.0000000   0.0000000
 NMagM=    2.7928460   0.0000000   2.7928460   0.0000000   2.7928460   2.7928460   2.7928460   0.0000000   2.7928460   2.7928460
 AtZNuc=   1.0000000   6.0000000   1.0000000   6.0000000   1.0000000   1.0000000   1.0000000   6.0000000   1.0000000   1.0000000

  Atom        41          42
 IAtWgt=           1           1
 AtmWgt=   1.0078250   1.0078250
 NucSpn=           1           1
 AtZEff=  -0.0000000  -0.0000000
 NQMom=    0.0000000   0.0000000
 NMagM=    2.7928460   2.7928460
 AtZNuc=   1.0000000   1.0000000
 Leave Link  101 at Mon Nov 14 15:14:31 2022, MaxMem= 16106127360 cpu:               5.5 elap:               0.2
 (Enter /opt/ap/G16/B01/g16/l202.exe)
                          Input orientation:                          
 ---------------------------------------------------------------------
 Center     Atomic      Atomic             Coordinates (Angstroms)
 Number     Number       Type             X           Y           Z
 ---------------------------------------------------------------------
      1          6           0        0.000000    0.000000    0.000000
      2          6           0        0.000000    0.000000    1.394128
      3          6           0        1.221126    0.000000   -0.673109
      4          6           0        1.193108    0.000764    2.115362
      5          1           0       -0.944957   -0.000427    1.927071
      6          6           0       -1.278366   -0.017366   -0.754803
      7          6           0        2.428476    0.001115    0.024455
      8          1           0        1.232154   -0.045667   -1.756969
      9          6           0        2.400843    0.001752    1.418572
     10          6           0        1.177445    0.018728    3.599837
     11          6           0       -2.487412    0.276830   -0.120102
     12          6           0       -1.297863   -0.328603   -2.116417
     13          6           0        3.721572    0.001921   -0.704680
     14          1           0        3.334061    0.048144    1.969857
     15          6           0        0.290794    0.844275    4.295193
     16          6           0        2.049080   -0.790881    4.331965
     17          6           0       -3.682603    0.261498   -0.827420
     18          1           0       -2.492648    0.498048    0.941853
     19          6           0       -2.492518   -0.344397   -2.824501
     20          1           0       -0.365126   -0.539686   -2.628566
     21          6           0        3.910862    0.818865   -1.821777
     22          6           0        4.776237   -0.814044   -0.288725
     23          6           0        0.275860    0.859807    5.683909
     24          1           0       -0.377402    1.495584    3.742000
     25          6           0        2.035025   -0.775886    5.720674
     26          1           0        2.729408   -1.453102    3.807101
     27          6           0       -3.689447   -0.048547   -2.182464
     28          1           0       -4.612537    0.484575   -0.316269
     29          1           0       -2.487468   -0.580913   -3.882740
     30          6           0        5.120444    0.820149   -2.504230
     31          1           0        3.109266    1.474569   -2.144691
     32          6           0        5.986440   -0.813321   -0.970068
     33          1           0        4.638168   -1.470412    0.563864
     34          6           0        1.147946    0.049642    6.401818
     35          1           0       -0.413890    1.513063    6.206701
     36          1           0        2.713797   -1.416787    6.272362
     37          1           0       -4.622310   -0.060818   -2.734681
     38          6           0        6.162883    0.003944   -2.080611
     39          1           0        5.251831    1.466740   -3.364741
     40          1           0        6.791448   -1.459089   -0.637249
     41          1           0        1.136620    0.061726    7.485815
     42          1           0        7.107346    0.004761   -2.612865
 ---------------------------------------------------------------------
                    Distance matrix (angstroms):
                    1          2          3          4          5
     1  C    0.000000
     2  C    1.394128   0.000000
     3  C    1.394354   2.400962   0.000000
     4  C    2.428634   1.394161   2.788612   0.000000
     5  H    2.146287   1.084884   3.384206   2.146341   0.000000
     6  C    1.484671   2.500485   2.500887   3.787659   2.702572
     7  C    2.428599   2.788100   1.394378   2.428585   3.872983
     8  H    2.146445   3.383741   1.084878   3.872806   4.279487
     9  C    2.788619   2.400968   2.401430   1.394324   3.384222
    10  C    3.787552   2.500376   4.273210   1.484666   2.702426
    11  C    2.505649   2.925192   3.759748   4.315059   2.578169
    12  C    2.504326   3.757174   2.921716   4.921521   4.072104
    13  C    3.787700   4.272598   2.500646   3.787581   5.357482
    14  H    3.872805   3.383747   3.384092   2.146415   4.279508
    15  C    4.387032   3.035381   5.124680   2.505463   2.801537
    16  C    4.856969   3.668120   5.134371   2.504540   3.920790
    17  C    3.783460   4.308738   4.913120   5.700921   3.892367
    18  H    2.710799   2.581840   4.080229   3.899898   1.901178
    19  C    3.782732   4.912035   4.305606   6.172942   5.009061
    20  H    2.708124   4.075125   2.575124   5.022452   4.623941
    21  C    4.391384   5.129076   3.037212   4.853507   6.189029
    22  C    4.853707   5.129045   3.667320   4.391169   6.189006
    23  C    5.755188   4.383786   6.484171   3.783362   4.042800
    24  H    4.047440   2.809218   4.928007   2.710524   2.419532
    25  C    6.121229   4.843792   6.491910   3.782894   4.886007
    26  H    4.904609   3.922195   4.945574   2.708491   4.375585
    27  C    4.286902   5.138715   5.137532   6.504850   4.941944
    28  H    4.648692   4.943255   5.864621   6.312877   4.326539
    29  H    4.647647   5.862618   4.938913   7.061318   6.039056
    30  C    5.758711   6.487587   4.385239   6.118495   7.556379
    31  H    4.054822   4.936104   2.811579   4.898143   5.932249
    32  C    6.118822   6.487555   4.843334   5.758354   7.556353
    33  H    4.898230   4.935996   3.920254   4.054620   5.932156
    34  C    6.504116   5.137821   7.075480   4.286973   4.940255
    35  H    6.401859   5.061770   7.231488   4.648499   4.570330
    36  H    6.979577   5.759266   7.243957   4.647859   5.854410
    37  H    5.371027   6.198106   6.196735   7.572700   5.937887
    38  C    6.504621   7.074953   5.138292   6.504219   8.159837
    39  H    6.407382   7.237395   5.063871   6.975231   8.279857
    40  H    6.975586   7.237348   5.758361   6.406985   8.279819
    41  H    7.571865   6.197125   8.159595   5.371096   5.936031
    42  H    7.572414   8.159067   6.197601   7.571945   9.243951
                    6          7          8          9         10
     6  C    0.000000
     7  C    3.787910   0.000000
     8  H    2.703303   2.146356   0.000000
     9  C    4.273231   1.394392   3.384102   0.000000
    10  C    4.999520   3.787973   5.357472   2.500981   0.000000
    11  C    1.396850   4.925735   4.076580   5.132078   5.228359
    12  C    1.396868   4.310179   2.571038   5.126959   6.238858
    13  C    5.000226   1.484499   2.703105   2.500505   5.000173
    14  H    5.357476   2.146366   4.279725   1.084879   2.703459
    15  C    5.357906   4.849723   6.189251   3.665665   1.396854
    16  C    6.127433   4.396117   6.188524   3.039714   1.396863
    17  C    2.421445   6.175659   5.011312   6.490012   6.578724
    18  H    2.149133   5.030508   4.631782   4.941641   4.556776
    19  C    2.421728   5.696675   3.886134   6.486021   7.407605
    20  H    2.148909   3.890397   1.885480   4.931842   6.440834
    21  C    5.363376   2.504946   2.815510   3.667109   6.124188
    22  C    6.124553   2.504906   3.912375   3.036921   5.363369
    23  C    6.681472   6.115597   7.556523   4.841994   2.421492
    24  H    4.829285   4.891475   5.933362   3.917716   2.149154
    25  C    7.313393   5.762417   7.555989   4.387097   2.421736
    26  H    6.239756   4.063707   5.931401   2.815959   2.148914
    27  C    2.802231   6.503994   4.939960   7.075424   7.558185
    28  H    3.400141   7.065811   6.042945   7.240877   7.005483
    29  H    3.400515   6.306459   4.317519   7.234569   8.353449
    30  C    6.686306   3.783088   4.053003   4.842972   7.310892
    31  H    4.838282   2.709194   2.446425   3.920191   6.233057
    32  C    7.311449   3.783053   4.879728   4.384797   6.686012
    33  H    6.233426   2.709077   4.360860   2.811302   4.838519
    34  C    7.557031   6.504835   8.159779   5.138559   2.802307
    35  H    7.179977   6.970308   8.280044   5.756123   3.400165
    36  H    8.202243   6.413127   8.279214   5.066504   3.400510
    37  H    3.886356   7.571674   5.935562   8.159541   8.588923
    38  C    7.558466   4.286853   4.941589   5.137824   7.557929
    39  H    7.187337   4.648230   4.585860   5.757987   8.197725
    40  H    8.198432   4.648180   5.844424   5.063385   7.187062
    41  H    8.587561   7.572613   9.243902   6.197846   3.886431
    42  H    8.589123   5.370968   5.937422   6.197069   8.588456
                   11         12         13         14         15
    11  C    0.000000
    12  C    2.401427   0.000000
    13  C    6.242498   5.224650   0.000000
    14  H    6.189489   6.188238   2.702860   0.000000
    15  C    5.247405   6.708817   6.121971   3.911840   0.000000
    16  C    6.445205   7.279929   5.365963   2.816859   2.401387
    17  C    1.388889   2.774296   7.409740   7.556709   6.509122
    18  H    1.084764   3.385835   6.447770   5.933779   4.371763
    19  C    2.774838   1.388824   6.574837   7.555725   7.736266
    20  H    3.385733   1.084828   4.549260   5.930853   7.091122
    21  C    6.642847   5.341752   1.396829   3.911930   7.107943
    22  C    7.347043   6.361667   1.396832   2.815037   6.624314
    23  C    6.454617   8.045744   7.309101   4.879095   1.388883
    24  H    4.566545   6.204511   6.229413   4.360107   1.084763
    25  C    7.461589   8.528083   6.688393   4.054029   2.774755
    26  H    6.755057   7.250619   4.843310   2.448430   3.385708
    27  C    2.409169   2.408832   7.557089   8.159705   7.655031
    28  H    2.144247   3.858608   8.357104   8.280415   6.740744
    29  H    3.859166   2.144462   6.999424   8.278816   8.753770
    30  C    7.991166   6.531821   2.421718   4.878996   8.340159
    31  H    6.070942   4.761828   2.148776   4.360587   7.057844
    32  C    8.585862   7.389867   2.421709   4.052208   7.931644
    33  H    7.368484   6.612420   2.148749   2.446125   6.179018
    34  C    7.470133   8.870478   7.558317   4.941800   2.409154
    35  H    6.771721   8.570147   8.194680   5.843284   2.144229
    36  H    8.413353   9.362113   7.190790   4.587189   3.859086
    37  H    3.392317   3.392036   8.587503   9.243830   8.624205
    38  C    8.873876   7.468240   2.802355   4.940696   8.708529
    39  H    8.475816   6.905075   3.400487   5.843645   9.147346
    40  H    9.453999   8.300776   3.400476   4.585006   8.478973
    41  H    8.427921   9.913724   8.588933   5.937569   3.392325
    42  H    9.917019   8.426454   3.886469   5.936405   9.741223
                   16         17         18         19         20
    16  C    0.000000
    17  C    7.783247   0.000000
    18  H    5.812184   2.145291   0.000000
    19  C    8.487666   2.402446   3.859422   0.000000
    20  H    7.371599   3.858974   4.283822   2.145303   0.000000
    21  C    6.627673   7.678549   6.981798   6.584976   4.558579
    22  C    5.365510   8.543943   7.488164   7.712686   5.655417
    23  C    2.774316   7.643612   5.502963   9.028126   8.453796
    24  H    3.385823   5.772947   3.648310   7.139901   6.687794
    25  C    1.388861   8.754711   6.705212   9.680127   8.690588
    26  H    1.084834   8.095216   6.267894   8.513277   7.199185
    27  C    8.713182   1.390079   3.390052   1.390101   3.389888
    28  H    8.222531   1.084351   2.465154   3.387168   4.943312
    29  H    9.386465   3.387180   4.943772   1.084359   2.465561
    30  C    7.665654   8.978720   8.362918   7.708172   5.652971
    31  H    6.942862   7.023975   6.470068   5.928807   4.045090
    32  C    6.604154   9.729644   8.790338   8.692038   6.570226
    33  H    4.622091   8.612225   7.407175   7.974686   6.007563
    34  C    2.408903   8.697181   6.577706   9.926390   9.175213
    35  H    3.858628   7.856828   5.750662   9.451638   9.070727
    36  H    2.144469   9.702446   7.693373  10.536064   9.459153
    37  H    9.745662   2.150485   4.285405   2.150465   4.285346
    38  C    7.660043   9.928264   9.181375   8.694290   6.573484
    39  H    8.636768   9.365614   8.914150   7.971638   6.009817
    40  H    6.901424  10.616135   9.618648   9.603053   7.485131
    41  H    3.392092   9.611175   7.495692  10.937925  10.242931
    42  H    8.628428  10.939685  10.248864   9.608542   7.492296
                   21         22         23         24         25
    21  C    0.000000
    22  C    2.401148   0.000000
    23  C    8.339678   7.663388   0.000000
    24  H    7.057108   6.938381   2.145221   0.000000
    25  C    7.934139   6.605193   2.402396   3.859344   0.000000
    26  H    6.184005   4.623169   3.858996   4.283837   2.145356
    27  C    7.658146   8.708619   8.855992   6.960837   9.785612
    28  H    8.661792   9.478199   7.748507   5.952147   9.067719
    29  H    6.866264   8.107571  10.061432   8.179295  10.616804
    30  C    1.388824   2.774442   9.514051   8.348527   8.928391
    31  H    1.084794   3.385432   8.348239   6.841814   8.251212
    32  C    2.774430   1.388819   8.926672   8.248218   7.770528
    33  H    3.385417   1.084800   7.118603   6.637291   5.818196
    34  C    8.709358   7.659884   1.390070   3.389995   1.390095
    35  H    9.145591   8.633852   1.084348   2.465033   3.387137
    36  H    8.482109   6.903971   3.387136   4.943698   1.084363
    37  H    8.626834   9.740777   9.783265   7.898672  10.785382
    38  C    2.408878   2.408889   9.781478   8.882743   8.860440
    39  H    2.144453   3.858761  10.344405   9.066139   9.895553
    40  H    3.858751   2.144441   9.369482   8.905073   7.969536
    41  H    9.741711   8.628862   2.150513   4.285366   2.150453
    42  H    3.392063   3.392069  10.781315   9.931179   9.787018
                   26         27         28         29         30
    26  H    0.000000
    27  C    8.890971   0.000000
    28  H    8.640656   2.149185   0.000000
    29  H    9.333282   2.149210   4.286129   0.000000
    30  C    7.121630   8.858462   9.981518   7.857709   0.000000
    31  H    6.643746   6.967339   7.996840   6.210415   2.145313
    32  C    5.817122   9.781491  10.698145   8.963525   2.402462
    33  H    3.763276   8.883310   9.495902   8.446194   3.859075
    34  C    3.389959   9.853929   8.860306  10.926389   9.782234
    35  H    4.943333   9.140349   7.825315  10.511007  10.343562
    36  H    2.465578  10.693815  10.034959  11.440189   9.371467
    37  H    9.938870   1.084125   2.479166   2.479130   9.785216
    38  C    6.969712   9.852997  10.929483   8.855411   1.390081
    39  H    8.143918   9.145509  10.371287   8.022341   1.084353
    40  H    6.021000  10.687679  11.572888   9.869280   3.387152
    41  H    4.285396  10.806419   9.700728  11.949520  10.781792
    42  H    7.906179  10.805500  11.952415   9.696187   2.150451
                   31         32         33         34         35
    31  H    0.000000
    32  C    3.859055   0.000000
    33  H    4.283308   2.145356   0.000000
    34  C    8.883693   8.860047   6.969499   0.000000
    35  H    9.064207   9.893547   8.140394   2.149187   0.000000
    36  H    8.908597   7.970392   6.024369   2.149200   4.286112
    37  H    7.904604  10.780802   9.930952  10.806650  10.006808
    38  C    3.389900   1.390094   3.389946   9.854100  10.686951
    39  H    2.465597   3.387150   4.943418  10.688111  11.122726
    40  H    4.943399   1.084354   2.465647   9.147341  10.372571
    41  H    9.931470   9.787155   7.907066   1.084123   2.479233
    42  H    4.285343   2.150458   4.285392  10.806525  11.688828
                   36         37         38         39         40
    36  H    0.000000
    37  H   11.695466   0.000000
    38  C    9.148051  10.805202   0.000000
    39  H   10.374492  10.011447   2.149134   0.000000
    40  H    8.023201  11.688809   2.149152   4.286037   0.000000
    41  H    2.479104  11.731957  10.806626  11.689465  10.013697
    42  H   10.013557  11.730472   1.084114   2.479039   2.479054
                   41         42
    41  H    0.000000
    42  H   11.731844   0.000000
 Stoichiometry    C24H18
 Framework group  C1[X(C24H18)]
 Deg. of freedom   120
 Full point group                 C1      NOp   1
 Largest Abelian subgroup         C1      NOp   1
 Largest concise Abelian subgroup C1      NOp   1
                         Standard orientation:                         
 ---------------------------------------------------------------------
 Center     Atomic      Atomic             Coordinates (Angstroms)
 Number     Number       Type             X           Y           Z
 ---------------------------------------------------------------------
      1          6           0       -0.035405    1.401017   -0.040186
      2          6           0       -1.217247    0.661535   -0.037161
      3          6           0        1.182684    0.723410   -0.003669
      4          6           0       -1.196050   -0.731907    0.002275
      5          1           0       -2.170074    1.179485   -0.065821
      6          6           0       -0.073107    2.884046   -0.098941
      7          6           0        1.231493   -0.669534    0.036510
      8          1           0        2.108019    1.287717   -0.051323
      9          6           0        0.034999   -1.385580    0.039313
     10          6           0       -2.463049   -1.505546    0.022965
     11          6           0       -1.256544    3.579885    0.158886
     12          6           0        1.075396    3.614237   -0.413588
     13          6           0        2.535225   -1.378380    0.075950
     14          1           0        0.061797   -2.467420    0.115903
     15          6           0       -3.534751   -1.100419    0.822044
     16          6           0       -2.609663   -2.654686   -0.757553
     17          6           0       -1.290429    4.967310    0.104856
     18          1           0       -2.162812    3.027120    0.382139
     19          6           0        1.042452    5.001601   -0.468066
     20          1           0        2.007216    3.089791   -0.596671
     21          6           0        3.570612   -0.923747    0.895959
     22          6           0        2.753782   -2.515068   -0.705915
     23          6           0       -4.720151   -1.823949    0.840117
     24          1           0       -3.429636   -0.222917    1.451054
     25          6           0       -3.794583   -3.378972   -0.739988
     26          1           0       -1.794285   -2.970938   -1.399431
     27          6           0       -0.140804    5.683328   -0.208193
     28          1           0       -2.220093    5.490240    0.300011
     29          1           0        1.945695    5.552132   -0.706607
     30          6           0        4.790482   -1.586581    0.933381
     31          1           0        3.409716   -0.055242    1.525713
     32          6           0        3.973047   -3.179032   -0.669031
     33          1           0        1.967430   -2.868380   -1.364408
     34          6           0       -4.854464   -2.965944    0.059027
     35          1           0       -5.538636   -1.498862    1.472739
     36          1           0       -3.892967   -4.264349   -1.358270
     37          1           0       -0.167123    6.766301   -0.250669
     38          6           0        4.996063   -2.716981    0.150914
     39          1           0        5.580149   -1.223674    1.581876
     40          1           0        4.127211   -4.055408   -1.288727
     41          1           0       -5.779581   -3.530995    0.073105
     42          1           0        5.948038   -3.234866    0.179948
 ---------------------------------------------------------------------
 Rotational constants (GHZ):           0.2003787           0.1977237           0.1029866
 Leave Link  202 at Mon Nov 14 15:14:31 2022, MaxMem= 16106127360 cpu:               0.4 elap:               0.0
 (Enter /opt/ap/G16/B01/g16/l301.exe)
 Standard basis: 6-311++G(d,p) (5D, 7F)
 Ernie: Thresh=  0.10000D-02 Tol=  0.10000D-05 Strict=F.
 There are   678 symmetry adapted cartesian basis functions of A   symmetry.
 There are   654 symmetry adapted basis functions of A   symmetry.
   654 basis functions,  1026 primitive gaussians,   678 cartesian basis functions
    81 alpha electrons       81 beta electrons
       nuclear repulsion energy      1734.3385257732 Hartrees.
 IExCor= 4639 DFT=T Ex+Corr=wB97XD ExCW=0 ScaHFX=  1.000000
 ScaDFX=  1.000000  1.000000  1.000000  1.000000 ScalE2=  1.000000  1.000000
 IRadAn=      5 IRanWt=     -1 IRanGd=            0 ICorTp=0 IEmpDi=121
 HFx  wShort=  0.000000 wLong=  0.200000 cFull=  0.222036 cShort=  0.000000 cLong=  0.777964
 DFx  wShort=  0.000000 wLong=  0.200000 cFull=  0.000000 cShort=  0.000000 cLong=  1.000000
 NAtoms=   42 NActive=   42 NUniq=   42 SFac= 1.00D+00 NAtFMM=   60 NAOKFM=F Big=F
 Integral buffers will be    131072 words long.
 Raffenetti 2 integral format.
 Two-electron integral symmetry is turned on.
 R6Disp:  Grimme-D2 Dispersion energy=       -0.0287508533 Hartrees.
 Nuclear repulsion after empirical dispersion term =     1734.3097749200 Hartrees.
 Leave Link  301 at Mon Nov 14 15:14:31 2022, MaxMem= 16106127360 cpu:               1.2 elap:               0.0
 (Enter /opt/ap/G16/B01/g16/l302.exe)
 NPDir=0 NMtPBC=     1 NCelOv=     1 NCel=       1 NClECP=     1 NCelD=      1
         NCelK=      1 NCelE2=     1 NClLst=     1 CellRange=     0.0.
 One-electron integrals computed using PRISM.
 One-electron integral symmetry used in STVInt
 NBasis=   654 RedAO= T EigKep=  1.06D-06  NBF=   654
 NBsUse=   645 1.00D-06 EigRej=  6.73D-07 NBFU=   645
 Precomputing XC quadrature grid using
 IXCGrd= 4 IRadAn=           5 IRanWt=          -1 IRanGd=           0 AccXCQ= 0.00D+00.
 Generated NRdTot=       0 NPtTot=           0 NUsed=           0 NTot=          32
 NSgBfM=   669   669   669   669   669 MxSgAt=    42 MxSgA2=    42.
 Leave Link  302 at Mon Nov 14 15:14:32 2022, MaxMem= 16106127360 cpu:              20.8 elap:               0.7
 (Enter /opt/ap/G16/B01/g16/l303.exe)
 DipDrv:  MaxL=1.
 Leave Link  303 at Mon Nov 14 15:14:32 2022, MaxMem= 16106127360 cpu:               2.8 elap:               0.1
 (Enter /opt/ap/G16/B01/g16/l401.exe)
 ExpMin= 3.60D-02 ExpMax= 4.56D+03 ExpMxC= 6.82D+02 IAcc=3 IRadAn=         5 AccDes= 0.00D+00
 Harris functional with IExCor= 4639 and IRadAn=       5 diagonalized for initial guess.
 HarFok:  IExCor= 4639 AccDes= 0.00D+00 IRadAn=         5 IDoV= 1 UseB2=F ITyADJ=14
 ICtDFT=  3500011 ScaDFX=  1.000000  1.000000  1.000000  1.000000
 FoFCou: FMM=F IPFlag=           0 FMFlag=      100000 FMFlg1=           0
         NFxFlg=           0 DoJE=T BraDBF=F KetDBF=T FulRan=T
         wScrn=  0.000000 ICntrl=       500 IOpCl=  0 I1Cent=   200000004 NGrid=           0
         NMat0=    1 NMatS0=      1 NMatT0=    0 NMatD0=    1 NMtDS0=    0 NMtDT0=    0
 Petite list used in FoFCou.
 Harris En= -882.964165840118    
 JPrj=0 DoOrth=F DoCkMO=F.
 Leave Link  401 at Mon Nov 14 15:14:34 2022, MaxMem= 16106127360 cpu:              55.4 elap:               1.7
 (Enter /opt/ap/G16/B01/g16/l502.exe)
 Integral symmetry usage will be decided dynamically.
 Closed shell SCF:
 Using DIIS extrapolation, IDIIS=  1040.
 NGot= 16106127360 LenX= 16105179956 LenY= 16104719594
 Requested convergence on RMS density matrix=1.00D-08 within 512 cycles.
 Requested convergence on MAX density matrix=1.00D-06.
 Requested convergence on             energy=1.00D-06.
 No special actions if energy rises.
 Fock matrices will be formed incrementally for  20 cycles.

 Cycle   1  Pass 1  IDiag  1:
 FoFJK:  IHMeth= 1 ICntrl=       0 DoSepK=T KAlg= 0 I1Cent=           0 FoldK=F
 IRaf=         1 NMat=       1 IRICut=       1 DoRegI=T DoRafI=F ISym2E= 0 IDoP0=0 IntGTp=1.
 FoFCou: FMM=F IPFlag=           0 FMFlag=      100000 FMFlg1=           0
         NFxFlg=           0 DoJE=T BraDBF=F KetDBF=F FulRan=T
         wScrn=  0.000000 ICntrl=       500 IOpCl=  0 I1Cent=           0 NGrid=           0
         NMat0=    1 NMatS0=      1 NMatT0=    0 NMatD0=    1 NMtDS0=    0 NMtDT0=    0
 Symmetry not used in FoFCou.
 E= -925.111655397634    
 DIIS: error= 5.64D-02 at cycle   1 NSaved=   1.
 NSaved= 1 IEnMin= 1 EnMin= -925.111655397634     IErMin= 1 ErrMin= 5.64D-02
 ErrMax= 5.64D-02  0.00D+00 EMaxC= 1.00D-01 BMatC= 1.90D+00 BMatP= 1.90D+00
 IDIUse=3 WtCom= 4.36D-01 WtEn= 5.64D-01
 Coeff-Com:  0.100D+01
 Coeff-En:   0.100D+01
 Coeff:      0.100D+01
 Gap=     0.305 Goal=   None    Shift=    0.000
 GapD=    0.305 DampG=1.000 DampE=0.500 DampFc=0.5000 IDamp=-1.
 Damping current iteration by 5.00D-01
 RMSDP=4.22D-02 MaxDP=5.67D+00              OVMax= 4.46D-02

 Cycle   2  Pass 1  IDiag  1:
 RMSU=  7.16D-03    CP:  8.09D-01
 E= -925.210610615736     Delta-E=       -0.098955218102 Rises=F Damp=T
 DIIS: error= 2.75D-02 at cycle   2 NSaved=   2.
 NSaved= 2 IEnMin= 2 EnMin= -925.210610615736     IErMin= 2 ErrMin= 2.75D-02
 ErrMax= 2.75D-02  0.00D+00 EMaxC= 1.00D-01 BMatC= 4.32D-01 BMatP= 1.90D+00
 IDIUse=3 WtCom= 7.25D-01 WtEn= 2.75D-01
 Coeff-Com: -0.883D+00 0.188D+01
 Coeff-En:   0.000D+00 0.100D+01
 Coeff:     -0.640D+00 0.164D+01
 Gap=     0.313 Goal=   None    Shift=    0.000
 RMSDP=2.56D-02 MaxDP=2.84D+00 DE=-9.90D-02 OVMax= 3.29D-02

 Cycle   3  Pass 1  IDiag  1:
 RMSU=  4.66D-03    CP:  5.68D-01  1.37D+00
 E= -925.300320496606     Delta-E=       -0.089709880869 Rises=F Damp=F
 DIIS: error= 2.69D-03 at cycle   3 NSaved=   3.
 NSaved= 3 IEnMin= 3 EnMin= -925.300320496606     IErMin= 3 ErrMin= 2.69D-03
 ErrMax= 2.69D-03  0.00D+00 EMaxC= 1.00D-01 BMatC= 7.69D-03 BMatP= 4.32D-01
 IDIUse=3 WtCom= 9.73D-01 WtEn= 2.69D-02
 Coeff-Com: -0.354D+00 0.753D+00 0.601D+00
 Coeff-En:   0.000D+00 0.000D+00 0.100D+01
 Coeff:     -0.344D+00 0.732D+00 0.612D+00
 Gap=     0.311 Goal=   None    Shift=    0.000
 RMSDP=2.50D-03 MaxDP=2.68D-01 DE=-8.97D-02 OVMax= 1.85D-02

 Cycle   4  Pass 1  IDiag  1:
 RMSU=  2.04D-03    CP:  5.64D-01  1.48D+00  7.67D-01
 E= -925.307325437776     Delta-E=       -0.007004941171 Rises=F Damp=F
 DIIS: error= 7.44D-04 at cycle   4 NSaved=   4.
 NSaved= 4 IEnMin= 4 EnMin= -925.307325437776     IErMin= 4 ErrMin= 7.44D-04
 ErrMax= 7.44D-04  0.00D+00 EMaxC= 1.00D-01 BMatC= 2.67D-04 BMatP= 7.69D-03
 IDIUse=3 WtCom= 9.93D-01 WtEn= 7.44D-03
 Coeff-Com: -0.108D+00 0.231D+00 0.240D+00 0.637D+00
 Coeff-En:   0.000D+00 0.000D+00 0.000D+00 0.100D+01
 Coeff:     -0.107D+00 0.229D+00 0.239D+00 0.640D+00
 Gap=     0.310 Goal=   None    Shift=    0.000
 RMSDP=7.82D-04 MaxDP=7.83D-02 DE=-7.00D-03 OVMax= 4.20D-03

 Cycle   5  Pass 1  IDiag  1:
 RMSU=  3.94D-04    CP:  5.61D-01  1.54D+00  7.53D-01  7.82D-01
 E= -925.307608046355     Delta-E=       -0.000282608579 Rises=F Damp=F
 DIIS: error= 1.85D-04 at cycle   5 NSaved=   5.
 NSaved= 5 IEnMin= 5 EnMin= -925.307608046355     IErMin= 5 ErrMin= 1.85D-04
 ErrMax= 1.85D-04  0.00D+00 EMaxC= 1.00D-01 BMatC= 2.03D-05 BMatP= 2.67D-04
 IDIUse=3 WtCom= 9.98D-01 WtEn= 1.85D-03
 Coeff-Com:  0.258D-01-0.550D-01-0.288D-01 0.193D+00 0.865D+00
 Coeff-En:   0.000D+00 0.000D+00 0.000D+00 0.000D+00 0.100D+01
 Coeff:      0.257D-01-0.549D-01-0.287D-01 0.193D+00 0.865D+00
 Gap=     0.311 Goal=   None    Shift=    0.000
 RMSDP=2.47D-04 MaxDP=1.46D-02 DE=-2.83D-04 OVMax= 1.60D-03

 Cycle   6  Pass 1  IDiag  1:
 RMSU=  7.83D-05    CP:  5.59D-01  1.53D+00  7.72D-01  8.56D-01  1.17D+00
 E= -925.307634575933     Delta-E=       -0.000026529578 Rises=F Damp=F
 DIIS: error= 5.87D-05 at cycle   6 NSaved=   6.
 NSaved= 6 IEnMin= 6 EnMin= -925.307634575933     IErMin= 6 ErrMin= 5.87D-05
 ErrMax= 5.87D-05  0.00D+00 EMaxC= 1.00D-01 BMatC= 1.38D-06 BMatP= 2.03D-05
 IDIUse=1 WtCom= 1.00D+00 WtEn= 0.00D+00
 Coeff-Com:  0.129D-01-0.276D-01-0.177D-01 0.533D-01 0.331D+00 0.648D+00
 Coeff:      0.129D-01-0.276D-01-0.177D-01 0.533D-01 0.331D+00 0.648D+00
 Gap=     0.311 Goal=   None    Shift=    0.000
 RMSDP=8.76D-05 MaxDP=8.84D-03 DE=-2.65D-05 OVMax= 3.91D-04

 Cycle   7  Pass 1  IDiag  1:
 RMSU=  4.42D-05    CP:  5.59D-01  1.53D+00  7.75D-01  8.90D-01  1.15D+00
                    CP:  1.01D+00
 E= -925.307636279813     Delta-E=       -0.000001703880 Rises=F Damp=F
 DIIS: error= 1.36D-05 at cycle   7 NSaved=   7.
 NSaved= 7 IEnMin= 7 EnMin= -925.307636279813     IErMin= 7 ErrMin= 1.36D-05
 ErrMax= 1.36D-05  0.00D+00 EMaxC= 1.00D-01 BMatC= 1.05D-07 BMatP= 1.38D-06
 IDIUse=1 WtCom= 1.00D+00 WtEn= 0.00D+00
 Coeff-Com: -0.237D-02 0.509D-02 0.244D-02-0.282D-01-0.104D+00 0.107D+00
 Coeff-Com:  0.102D+01
 Coeff:     -0.237D-02 0.509D-02 0.244D-02-0.282D-01-0.104D+00 0.107D+00
 Coeff:      0.102D+01
 Gap=     0.311 Goal=   None    Shift=    0.000
 RMSDP=2.14D-05 MaxDP=1.61D-03 DE=-1.70D-06 OVMax= 2.72D-04

 Cycle   8  Pass 1  IDiag  1:
 RMSU=  6.13D-06    CP:  5.59D-01  1.53D+00  7.77D-01  8.91D-01  1.18D+00
                    CP:  1.14D+00  1.16D+00
 E= -925.307636522395     Delta-E=       -0.000000242583 Rises=F Damp=F
 DIIS: error= 5.16D-06 at cycle   8 NSaved=   8.
 NSaved= 8 IEnMin= 8 EnMin= -925.307636522395     IErMin= 8 ErrMin= 5.16D-06
 ErrMax= 5.16D-06  0.00D+00 EMaxC= 1.00D-01 BMatC= 6.42D-09 BMatP= 1.05D-07
 IDIUse=1 WtCom= 1.00D+00 WtEn= 0.00D+00
 Coeff-Com: -0.107D-02 0.230D-02 0.130D-02-0.101D-01-0.389D-01 0.160D-01
 Coeff-Com:  0.262D+00 0.769D+00
 Coeff:     -0.107D-02 0.230D-02 0.130D-02-0.101D-01-0.389D-01 0.160D-01
 Coeff:      0.262D+00 0.769D+00
 Gap=     0.311 Goal=   None    Shift=    0.000
 RMSDP=3.49D-06 MaxDP=3.48D-04 DE=-2.43D-07 OVMax= 5.81D-05

 Cycle   9  Pass 1  IDiag  1:
 RMSU=  2.65D-06    CP:  5.59D-01  1.53D+00  7.77D-01  8.91D-01  1.18D+00
                    CP:  1.16D+00  1.20D+00  1.08D+00
 E= -925.307636532564     Delta-E=       -0.000000010169 Rises=F Damp=F
 DIIS: error= 3.67D-06 at cycle   9 NSaved=   9.
 NSaved= 9 IEnMin= 9 EnMin= -925.307636532564     IErMin= 9 ErrMin= 3.67D-06
 ErrMax= 3.67D-06  0.00D+00 EMaxC= 1.00D-01 BMatC= 2.04D-09 BMatP= 6.42D-09
 IDIUse=1 WtCom= 1.00D+00 WtEn= 0.00D+00
 Coeff-Com:  0.110D-03-0.241D-03 0.217D-04 0.269D-02 0.976D-02-0.171D-01
 Coeff-Com: -0.157D+00 0.356D+00 0.806D+00
 Coeff:      0.110D-03-0.241D-03 0.217D-04 0.269D-02 0.976D-02-0.171D-01
 Coeff:     -0.157D+00 0.356D+00 0.806D+00
 Gap=     0.311 Goal=   None    Shift=    0.000
 RMSDP=2.04D-06 MaxDP=1.89D-04 DE=-1.02D-08 OVMax= 4.11D-05

 Cycle  10  Pass 1  IDiag  1:
 RMSU=  7.24D-07    CP:  5.59D-01  1.53D+00  7.77D-01  8.92D-01  1.18D+00
                    CP:  1.16D+00  1.22D+00  1.29D+00  6.94D-01
 E= -925.307636536309     Delta-E=       -0.000000003744 Rises=F Damp=F
 DIIS: error= 9.89D-07 at cycle  10 NSaved=  10.
 NSaved=10 IEnMin=10 EnMin= -925.307636536309     IErMin=10 ErrMin= 9.89D-07
 ErrMax= 9.89D-07  0.00D+00 EMaxC= 1.00D-01 BMatC= 2.22D-10 BMatP= 2.04D-09
 IDIUse=1 WtCom= 1.00D+00 WtEn= 0.00D+00
 Coeff-Com:  0.118D-03-0.254D-03-0.717D-04 0.173D-02 0.626D-02-0.626D-02
 Coeff-Com: -0.763D-01 0.547D-01 0.328D+00 0.692D+00
 Coeff:      0.118D-03-0.254D-03-0.717D-04 0.173D-02 0.626D-02-0.626D-02
 Coeff:     -0.763D-01 0.547D-01 0.328D+00 0.692D+00
 Gap=     0.311 Goal=   None    Shift=    0.000
 RMSDP=5.22D-07 MaxDP=3.73D-05 DE=-3.74D-09 OVMax= 1.05D-05

 Cycle  11  Pass 1  IDiag  1:
 RMSU=  1.51D-07    CP:  5.59D-01  1.53D+00  7.77D-01  8.92D-01  1.18D+00
                    CP:  1.16D+00  1.22D+00  1.29D+00  8.39D-01  1.06D+00
 E= -925.307636536645     Delta-E=       -0.000000000336 Rises=F Damp=F
 DIIS: error= 1.97D-07 at cycle  11 NSaved=  11.
 NSaved=11 IEnMin=11 EnMin= -925.307636536645     IErMin=11 ErrMin= 1.97D-07
 ErrMax= 1.97D-07  0.00D+00 EMaxC= 1.00D-01 BMatC= 3.09D-11 BMatP= 2.22D-10
 IDIUse=1 WtCom= 1.00D+00 WtEn= 0.00D+00
 Coeff-Com:  0.201D-04-0.425D-04-0.198D-04 0.114D-03 0.236D-03 0.119D-02
 Coeff-Com:  0.166D-02-0.553D-01-0.214D-01 0.246D+00 0.827D+00
 Coeff:      0.201D-04-0.425D-04-0.198D-04 0.114D-03 0.236D-03 0.119D-02
 Coeff:      0.166D-02-0.553D-01-0.214D-01 0.246D+00 0.827D+00
 Gap=     0.311 Goal=   None    Shift=    0.000
 RMSDP=2.81D-07 MaxDP=2.43D-05 DE=-3.36D-10 OVMax= 3.36D-06

 Cycle  12  Pass 1  IDiag  1:
 RMSU=  6.99D-08    CP:  5.59D-01  1.53D+00  7.77D-01  8.92D-01  1.18D+00
                    CP:  1.16D+00  1.22D+00  1.30D+00  8.26D-01  1.23D+00
                    CP:  1.22D+00
 E= -925.307636536673     Delta-E=       -0.000000000028 Rises=F Damp=F
 DIIS: error= 9.95D-08 at cycle  12 NSaved=  12.
 NSaved=12 IEnMin=12 EnMin= -925.307636536673     IErMin=12 ErrMin= 9.95D-08
 ErrMax= 9.95D-08  0.00D+00 EMaxC= 1.00D-01 BMatC= 1.39D-12 BMatP= 3.09D-11
 IDIUse=1 WtCom= 1.00D+00 WtEn= 0.00D+00
 Coeff-Com: -0.140D-04 0.303D-04 0.127D-04-0.219D-03-0.809D-03 0.989D-03
 Coeff-Com:  0.940D-02-0.910D-02-0.297D-01-0.636D-01-0.104D+00 0.120D+01
 Coeff:     -0.140D-04 0.303D-04 0.127D-04-0.219D-03-0.809D-03 0.989D-03
 Coeff:      0.940D-02-0.910D-02-0.297D-01-0.636D-01-0.104D+00 0.120D+01
 Gap=     0.311 Goal=   None    Shift=    0.000
 RMSDP=8.97D-08 MaxDP=6.47D-06 DE=-2.77D-11 OVMax= 1.61D-06

 Cycle  13  Pass 1  IDiag  1:
 RMSU=  2.99D-08    CP:  5.59D-01  1.53D+00  7.77D-01  8.92D-01  1.18D+00
                    CP:  1.16D+00  1.22D+00  1.30D+00  8.23D-01  1.28D+00
                    CP:  1.32D+00  1.44D+00
 E= -925.307636536661     Delta-E=        0.000000000011 Rises=F Damp=F
 DIIS: error= 2.77D-08 at cycle  13 NSaved=  13.
 NSaved=13 IEnMin=12 EnMin= -925.307636536673     IErMin=13 ErrMin= 2.77D-08
 ErrMax= 2.77D-08  0.00D+00 EMaxC= 1.00D-01 BMatC= 1.07D-13 BMatP= 1.39D-12
 IDIUse=1 WtCom= 1.00D+00 WtEn= 0.00D+00
 Coeff-Com: -0.232D-05 0.496D-05 0.264D-05-0.257D-04-0.826D-04 0.404D-04
 Coeff-Com:  0.691D-03 0.179D-02-0.326D-03-0.168D-01-0.755D-01 0.120D+00
 Coeff-Com:  0.970D+00
 Coeff:     -0.232D-05 0.496D-05 0.264D-05-0.257D-04-0.826D-04 0.404D-04
 Coeff:      0.691D-03 0.179D-02-0.326D-03-0.168D-01-0.755D-01 0.120D+00
 Coeff:      0.970D+00
 Gap=     0.311 Goal=   None    Shift=    0.000
 RMSDP=3.13D-08 MaxDP=2.88D-06 DE= 1.14D-11 OVMax= 4.07D-07

 Cycle  14  Pass 1  IDiag  1:
 RMSU=  7.20D-09    CP:  5.59D-01  1.53D+00  7.77D-01  8.92D-01  1.18D+00
                    CP:  1.16D+00  1.22D+00  1.30D+00  8.22D-01  1.29D+00
                    CP:  1.34D+00  1.57D+00  1.27D+00
 E= -925.307636536710     Delta-E=       -0.000000000049 Rises=F Damp=F
 DIIS: error= 6.37D-09 at cycle  14 NSaved=  14.
 NSaved=14 IEnMin=14 EnMin= -925.307636536710     IErMin=14 ErrMin= 6.37D-09
 ErrMax= 6.37D-09  0.00D+00 EMaxC= 1.00D-01 BMatC= 3.12D-14 BMatP= 1.07D-13
 IDIUse=1 WtCom= 1.00D+00 WtEn= 0.00D+00
 Coeff-Com:  0.774D-06-0.171D-05-0.516D-06 0.171D-04 0.691D-04-0.109D-03
 Coeff-Com: -0.911D-03 0.187D-02 0.385D-02 0.173D-02-0.207D-01-0.107D+00
 Coeff-Com:  0.418D+00 0.703D+00
 Coeff:      0.774D-06-0.171D-05-0.516D-06 0.171D-04 0.691D-04-0.109D-03
 Coeff:     -0.911D-03 0.187D-02 0.385D-02 0.173D-02-0.207D-01-0.107D+00
 Coeff:      0.418D+00 0.703D+00
 Gap=     0.311 Goal=   None    Shift=    0.000
 RMSDP=8.53D-09 MaxDP=9.84D-07 DE=-4.87D-11 OVMax= 9.34D-08

 SCF Done:  E(RwB97XD) =  -925.307636537     A.U. after   14 cycles
            NFock= 14  Conv=0.85D-08     -V/T= 2.0043
 KE= 9.213152471999D+02 PE=-5.614956197662D+03 EE= 2.034023539006D+03
 Leave Link  502 at Mon Nov 14 15:16:57 2022, MaxMem= 16106127360 cpu:            4554.8 elap:             142.5
 (Enter /opt/ap/G16/B01/g16/l601.exe)
 Copying SCF densities to generalized density rwf, IOpCl= 0 IROHF=0.

 **********************************************************************

            Population analysis using the SCF Density.

 **********************************************************************

 Orbital symmetries:
       Occupied  (A) (A) (A) (A) (A) (A) (A) (A) (A) (A) (A) (A)
                 (A) (A) (A) (A) (A) (A) (A) (A) (A) (A) (A) (A)
                 (A) (A) (A) (A) (A) (A) (A) (A) (A) (A) (A) (A)
                 (A) (A) (A) (A) (A) (A) (A) (A) (A) (A) (A) (A)
                 (A) (A) (A) (A) (A) (A) (A) (A) (A) (A) (A) (A)
                 (A) (A) (A) (A) (A) (A) (A) (A) (A) (A) (A) (A)
                 (A) (A) (A) (A) (A) (A) (A) (A) (A)
       Virtual   (A) (A) (A) (A) (A) (A) (A) (A) (A) (A) (A) (A)
                 (A) (A) (A) (A) (A) (A) (A) (A) (A) (A) (A) (A)
                 (A) (A) (A) (A) (A) (A) (A) (A) (A) (A) (A) (A)
                 (A) (A) (A) (A) (A) (A) (A) (A) (A) (A) (A) (A)
                 (A) (A) (A) (A) (A) (A) (A) (A) (A) (A) (A) (A)
                 (A) (A) (A) (A) (A) (A) (A) (A) (A) (A) (A) (A)
                 (A) (A) (A) (A) (A) (A) (A) (A) (A) (A) (A) (A)
                 (A) (A) (A) (A) (A) (A) (A) (A) (A) (A) (A) (A)
                 (A) (A) (A) (A) (A) (A) (A) (A) (A) (A) (A) (A)
                 (A) (A) (A) (A) (A) (A) (A) (A) (A) (A) (A) (A)
                 (A) (A) (A) (A) (A) (A) (A) (A) (A) (A) (A) (A)
                 (A) (A) (A) (A) (A) (A) (A) (A) (A) (A) (A) (A)
                 (A) (A) (A) (A) (A) (A) (A) (A) (A) (A) (A) (A)
                 (A) (A) (A) (A) (A) (A) (A) (A) (A) (A) (A) (A)
                 (A) (A) (A) (A) (A) (A) (A) (A) (A) (A) (A) (A)
                 (A) (A) (A) (A) (A) (A) (A) (A) (A) (A) (A) (A)
                 (A) (A) (A) (A) (A) (A) (A) (A) (A) (A) (A) (A)
                 (A) (A) (A) (A) (A) (A) (A) (A) (A) (A) (A) (A)
                 (A) (A) (A) (A) (A) (A) (A) (A) (A) (A) (A) (A)
                 (A) (A) (A) (A) (A) (A) (A) (A) (A) (A) (A) (A)
                 (A) (A) (A) (A) (A) (A) (A) (A) (A) (A) (A) (A)
                 (A) (A) (A) (A) (A) (A) (A) (A) (A) (A) (A) (A)
                 (A) (A) (A) (A) (A) (A) (A) (A) (A) (A) (A) (A)
                 (A) (A) (A) (A) (A) (A) (A) (A) (A) (A) (A) (A)
                 (A) (A) (A) (A) (A) (A) (A) (A) (A) (A) (A) (A)
                 (A) (A) (A) (A) (A) (A) (A) (A) (A) (A) (A) (A)
                 (A) (A) (A) (A) (A) (A) (A) (A) (A) (A) (A) (A)
                 (A) (A) (A) (A) (A) (A) (A) (A) (A) (A) (A) (A)
                 (A) (A) (A) (A) (A) (A) (A) (A) (A) (A) (A) (A)
                 (A) (A) (A) (A) (A) (A) (A) (A) (A) (A) (A) (A)
                 (A) (A) (A) (A) (A) (A) (A) (A) (A) (A) (A) (A)
                 (A) (A) (A) (A) (A) (A) (A) (A) (A) (A) (A) (A)
                 (A) (A) (A) (A) (A) (A) (A) (A) (A) (A) (A) (A)
                 (A) (A) (A) (A) (A) (A) (A) (A) (A) (A) (A) (A)
                 (A) (A) (A) (A) (A) (A) (A) (A) (A) (A) (A) (A)
                 (A) (A) (A) (A) (A) (A) (A) (A) (A) (A) (A) (A)
                 (A) (A) (A) (A) (A) (A) (A) (A) (A) (A) (A) (A)
                 (A) (A) (A) (A) (A) (A) (A) (A) (A) (A) (A) (A)
                 (A) (A) (A) (A) (A) (A) (A) (A) (A) (A) (A) (A)
                 (A) (A) (A) (A) (A) (A) (A) (A) (A) (A) (A) (A)
                 (A) (A) (A) (A) (A) (A) (A) (A) (A) (A) (A) (A)
                 (A) (A) (A) (A) (A) (A) (A) (A) (A) (A) (A) (A)
                 (A) (A) (A) (A) (A) (A) (A) (A) (A) (A) (A) (A)
                 (A) (A) (A) (A) (A) (A) (A) (A) (A) (A) (A) (A)
                 (A) (A) (A) (A) (A) (A) (A) (A) (A) (A) (A) (A)
                 (A) (A) (A) (A) (A) (A) (A) (A) (A) (A) (A) (A)
                 (A) (A) (A) (A) (A) (A) (A) (A) (A) (A) (A) (A)
 The electronic state is 1-A.
 Alpha  occ. eigenvalues --  -10.30530 -10.30495 -10.30494 -10.30433 -10.30387
 Alpha  occ. eigenvalues --  -10.30367 -10.29315 -10.29310 -10.29303 -10.29299
 Alpha  occ. eigenvalues --  -10.29292 -10.29278 -10.29232 -10.29221 -10.29212
 Alpha  occ. eigenvalues --  -10.29209 -10.29188 -10.29187 -10.29161 -10.29146
 Alpha  occ. eigenvalues --  -10.29132 -10.29108 -10.29101 -10.29089  -0.99073
 Alpha  occ. eigenvalues --   -0.97130  -0.97108  -0.95306  -0.89526  -0.89502
 Alpha  occ. eigenvalues --   -0.85485  -0.85386  -0.85325  -0.85103  -0.82314
 Alpha  occ. eigenvalues --   -0.82249  -0.73957  -0.73650  -0.71192  -0.70880
 Alpha  occ. eigenvalues --   -0.70185  -0.69988  -0.66729  -0.66585  -0.63894
 Alpha  occ. eigenvalues --   -0.60992  -0.60754  -0.58633  -0.57477  -0.56942
 Alpha  occ. eigenvalues --   -0.54941  -0.54878  -0.54306  -0.54039  -0.52231
 Alpha  occ. eigenvalues --   -0.52043  -0.51729  -0.51601  -0.51186  -0.51028
 Alpha  occ. eigenvalues --   -0.50380  -0.48638  -0.46961  -0.46463  -0.46155
 Alpha  occ. eigenvalues --   -0.45544  -0.44867  -0.44411  -0.43208  -0.43180
 Alpha  occ. eigenvalues --   -0.42988  -0.41903  -0.41268  -0.37567  -0.36575
 Alpha  occ. eigenvalues --   -0.33708  -0.33686  -0.33668  -0.32977  -0.30315
 Alpha  occ. eigenvalues --   -0.29731
 Alpha virt. eigenvalues --    0.01354   0.01948   0.03686   0.04170   0.04210
 Alpha virt. eigenvalues --    0.04512   0.04866   0.04951   0.05029   0.05135
 Alpha virt. eigenvalues --    0.05254   0.05693   0.05946   0.06862   0.07077
 Alpha virt. eigenvalues --    0.07199   0.08106   0.08244   0.08429   0.08906
 Alpha virt. eigenvalues --    0.09061   0.09195   0.09657   0.10753   0.11243
 Alpha virt. eigenvalues --    0.11381   0.12065   0.12438   0.12964   0.13450
 Alpha virt. eigenvalues --    0.13868   0.14100   0.14414   0.14562   0.15445
 Alpha virt. eigenvalues --    0.15721   0.15742   0.15815   0.16256   0.16297
 Alpha virt. eigenvalues --    0.16423   0.16483   0.16941   0.16971   0.17264
 Alpha virt. eigenvalues --    0.17420   0.17674   0.17977   0.18076   0.18414
 Alpha virt. eigenvalues --    0.18450   0.18617   0.18821   0.19245   0.19329
 Alpha virt. eigenvalues --    0.19581   0.19744   0.19986   0.20261   0.20590
 Alpha virt. eigenvalues --    0.20936   0.21180   0.21367   0.21883   0.21954
 Alpha virt. eigenvalues --    0.22168   0.22635   0.22763   0.23068   0.23401
 Alpha virt. eigenvalues --    0.23490   0.23721   0.23781   0.24100   0.24731
 Alpha virt. eigenvalues --    0.24809   0.25193   0.25404   0.25468   0.25598
 Alpha virt. eigenvalues --    0.26124   0.26354   0.26743   0.26919   0.26997
 Alpha virt. eigenvalues --    0.27448   0.27656   0.27934   0.28155   0.28657
 Alpha virt. eigenvalues --    0.28716   0.29085   0.29221   0.29414   0.29759
 Alpha virt. eigenvalues --    0.29860   0.30142   0.30496   0.30797   0.31231
 Alpha virt. eigenvalues --    0.31657   0.31947   0.32419   0.32615   0.33162
 Alpha virt. eigenvalues --    0.33217   0.33495   0.33678   0.34142   0.34505
 Alpha virt. eigenvalues --    0.34801   0.34871   0.35409   0.35477   0.35813
 Alpha virt. eigenvalues --    0.35975   0.36110   0.36602   0.36789   0.37119
 Alpha virt. eigenvalues --    0.37231   0.37920   0.38158   0.38219   0.38355
 Alpha virt. eigenvalues --    0.38911   0.39074   0.39652   0.39955   0.40526
 Alpha virt. eigenvalues --    0.40728   0.40808   0.41051   0.41648   0.41748
 Alpha virt. eigenvalues --    0.42140   0.42678   0.43064   0.43374   0.43634
 Alpha virt. eigenvalues --    0.44212   0.44784   0.44915   0.45234   0.45353
 Alpha virt. eigenvalues --    0.45741   0.46998   0.48193   0.48523   0.48611
 Alpha virt. eigenvalues --    0.50185   0.50721   0.53396   0.54498   0.57435
 Alpha virt. eigenvalues --    0.58530   0.59151   0.59384   0.60045   0.61363
 Alpha virt. eigenvalues --    0.61738   0.62273   0.62703   0.62935   0.63018
 Alpha virt. eigenvalues --    0.63220   0.63300   0.63606   0.63828   0.64191
 Alpha virt. eigenvalues --    0.64409   0.64928   0.65242   0.65595   0.65861
 Alpha virt. eigenvalues --    0.65944   0.66492   0.67025   0.67248   0.68529
 Alpha virt. eigenvalues --    0.68820   0.69141   0.69441   0.69951   0.70423
 Alpha virt. eigenvalues --    0.70769   0.71626   0.71826   0.72242   0.72829
 Alpha virt. eigenvalues --    0.72982   0.73203   0.74105   0.74375   0.74896
 Alpha virt. eigenvalues --    0.75264   0.75750   0.76287   0.76846   0.77829
 Alpha virt. eigenvalues --    0.78022   0.78885   0.78965   0.79419   0.80080
 Alpha virt. eigenvalues --    0.80683   0.80785   0.81287   0.81555   0.81762
 Alpha virt. eigenvalues --    0.82467   0.82493   0.83157   0.84044   0.84224
 Alpha virt. eigenvalues --    0.84850   0.85109   0.85304   0.86102   0.86290
 Alpha virt. eigenvalues --    0.86617   0.87615   0.87837   0.88592   0.89122
 Alpha virt. eigenvalues --    0.90398   0.91047   0.91338   0.92253   0.92626
 Alpha virt. eigenvalues --    0.92930   0.93617   0.93708   0.94079   0.94334
 Alpha virt. eigenvalues --    0.94444   0.94743   0.95286   0.95967   0.96841
 Alpha virt. eigenvalues --    0.97596   0.98341   0.98933   0.99717   1.00164
 Alpha virt. eigenvalues --    1.01012   1.01180   1.01481   1.01932   1.02437
 Alpha virt. eigenvalues --    1.02784   1.02865   1.03997   1.04544   1.04716
 Alpha virt. eigenvalues --    1.05915   1.06433   1.06886   1.07039   1.07399
 Alpha virt. eigenvalues --    1.08395   1.08666   1.09327   1.10060   1.11654
 Alpha virt. eigenvalues --    1.12119   1.12731   1.13489   1.13530   1.14043
 Alpha virt. eigenvalues --    1.14877   1.15330   1.15601   1.16991   1.17359
 Alpha virt. eigenvalues --    1.17894   1.18228   1.19573   1.19918   1.21153
 Alpha virt. eigenvalues --    1.21639   1.22230   1.22529   1.23062   1.23849
 Alpha virt. eigenvalues --    1.24823   1.25770   1.26558   1.28303   1.29669
 Alpha virt. eigenvalues --    1.33810   1.38898   1.41281   1.41750   1.41884
 Alpha virt. eigenvalues --    1.45362   1.46697   1.47316   1.52783   1.55397
 Alpha virt. eigenvalues --    1.56628   1.57787   1.58261   1.58559   1.58676
 Alpha virt. eigenvalues --    1.59088   1.59418   1.60262   1.60968   1.61528
 Alpha virt. eigenvalues --    1.62027   1.62471   1.62999   1.63560   1.63756
 Alpha virt. eigenvalues --    1.64584   1.65454   1.65609   1.65811   1.66123
 Alpha virt. eigenvalues --    1.66481   1.66993   1.67502   1.68448   1.69024
 Alpha virt. eigenvalues --    1.69959   1.72739   1.72875   1.73092   1.73955
 Alpha virt. eigenvalues --    1.74168   1.74648   1.75815   1.75960   1.76217
 Alpha virt. eigenvalues --    1.77231   1.77742   1.80226   1.81099   1.82063
 Alpha virt. eigenvalues --    1.82711   1.82925   1.83691   1.85169   1.85201
 Alpha virt. eigenvalues --    1.85688   1.86354   1.86683   1.86947   1.87417
 Alpha virt. eigenvalues --    1.90153   1.91661   1.92735   1.92919   1.93456
 Alpha virt. eigenvalues --    1.93469   1.94494   1.96680   1.98681   1.99989
 Alpha virt. eigenvalues --    2.00165   2.01204   2.01970   2.02529   2.02734
 Alpha virt. eigenvalues --    2.03217   2.03524   2.04221   2.04415   2.04560
 Alpha virt. eigenvalues --    2.04970   2.05189   2.05300   2.05690   2.05711
 Alpha virt. eigenvalues --    2.07057   2.07457   2.08092   2.08886   2.09249
 Alpha virt. eigenvalues --    2.09727   2.11522   2.12497   2.12990   2.13459
 Alpha virt. eigenvalues --    2.14697   2.15123   2.16591   2.16956   2.17208
 Alpha virt. eigenvalues --    2.18143   2.19307   2.20206   2.20252   2.23296
 Alpha virt. eigenvalues --    2.23847   2.28106   2.30793   2.34068   2.35673
 Alpha virt. eigenvalues --    2.36338   2.36793   2.39543   2.40436   2.42224
 Alpha virt. eigenvalues --    2.43448   2.44308   2.45579   2.48533   2.49024
 Alpha virt. eigenvalues --    2.51152   2.52360   2.52990   2.54250   2.54853
 Alpha virt. eigenvalues --    2.55254   2.55814   2.56472   2.56966   2.57623
 Alpha virt. eigenvalues --    2.58418   2.58763   2.59996   2.62399   2.62862
 Alpha virt. eigenvalues --    2.71742   2.73020   2.73201   2.74073   2.75910
 Alpha virt. eigenvalues --    2.76090   2.77474   2.77892   2.79261   2.79451
 Alpha virt. eigenvalues --    2.79787   2.80014   2.80334   2.80737   2.80865
 Alpha virt. eigenvalues --    2.81652   2.82133   2.82442   2.83267   2.83570
 Alpha virt. eigenvalues --    2.83662   2.84390   2.85488   2.85681   2.86672
 Alpha virt. eigenvalues --    2.87185   2.87805   2.88145   2.90025   2.90660
 Alpha virt. eigenvalues --    2.91001   2.91758   2.92525   2.92997   2.93612
 Alpha virt. eigenvalues --    2.93856   2.94179   2.95128   2.96458   2.97238
 Alpha virt. eigenvalues --    2.99761   3.00264   3.00702   3.01100   3.03198
 Alpha virt. eigenvalues --    3.04270   3.04610   3.04828   3.05100   3.05242
 Alpha virt. eigenvalues --    3.06010   3.07012   3.07268   3.11581   3.12371
 Alpha virt. eigenvalues --    3.12757   3.15512   3.18005   3.19793   3.20476
 Alpha virt. eigenvalues --    3.21134   3.24329   3.25360   3.31924   3.32615
 Alpha virt. eigenvalues --    3.32984   3.33524   3.35143   3.35581   3.38265
 Alpha virt. eigenvalues --    3.47410   3.47944   3.49143   3.49346   3.49510
 Alpha virt. eigenvalues --    3.49596   3.54146   3.54551   3.60873   3.61058
 Alpha virt. eigenvalues --    3.62838   3.63164   3.65096   3.65761   3.66174
 Alpha virt. eigenvalues --    3.73544   3.73733   3.75561   3.76688   3.76934
 Alpha virt. eigenvalues --    3.77970   3.89027   3.91730   3.92931   4.09821
 Alpha virt. eigenvalues --    4.10156   4.10979   4.14556   4.14587   4.14621
 Alpha virt. eigenvalues --    4.23727   4.24215   4.26258   4.26367   4.26882
 Alpha virt. eigenvalues --    4.26998   4.28630   4.32082   4.52431   4.66916
 Alpha virt. eigenvalues --    4.72971   4.93298   4.95354   4.95567   4.99722
 Alpha virt. eigenvalues --   23.67609  23.80137  23.81895  23.88078  24.08577
 Alpha virt. eigenvalues --   24.08776  24.10303  24.10749  24.10977  24.11625
 Alpha virt. eigenvalues --   24.12231  24.13092  24.20603  24.20675  24.21395
 Alpha virt. eigenvalues --   24.23388  24.24200  24.24283  24.24430  24.24986
 Alpha virt. eigenvalues --   24.31285  24.33753  24.33816  24.34618
          Condensed to atoms (all electrons):
               1          2          3          4          5          6
     1  C   14.448094  -1.135648  -0.431001  -4.227076  -0.097759   4.078911
     2  C   -1.135648  12.370598  -0.936578   1.427016   0.377142  -2.092961
     3  C   -0.431001  -0.936578  11.884575  -0.467790   0.111965  -1.608214
     4  C   -4.227076   1.427016  -0.467790  20.361530   0.036804  -1.886311
     5  H   -0.097759   0.377142   0.111965   0.036804   0.624064  -0.063125
     6  C    4.078911  -2.092961  -1.608214  -1.886311  -0.063125  13.068553
     7  C   -4.462881  -0.686147   1.679479  -9.263500   0.066231  -2.220358
     8  H   -0.129376   0.081152   0.249739   0.040078   0.007416  -0.082505
     9  C   -2.078706   0.941066   0.691701   1.470020   0.057457  -1.287748
    10  C    0.417894  -1.439727  -1.044698  -0.324481   0.074451   0.570666
    11  C   -1.163193   4.421083  -4.738598   0.919604  -0.121390  -1.367578
    12  C   -0.489567  -4.557814   3.930498  -0.841923   0.005023  -0.657839
    13  C    0.242659  -1.031685  -2.004670  -1.172380  -0.015988   0.565540
    14  H    0.024951  -0.000061  -0.043351  -0.147188  -0.001285  -0.003435
    15  C    1.432008   1.105859  -0.355531  -2.135254  -0.237348   0.276577
    16  C   -1.075095  -1.382002   0.236273   1.008361   0.181677  -0.132936
    17  C   -0.039313  -1.041874   0.168446  -0.100630  -0.039177  -0.837356
    18  H   -0.039891   0.041533  -0.093234  -0.047495  -0.015974  -0.033982
    19  C   -0.410089   0.347295  -0.703845   0.191833  -0.005216  -1.876507
    20  H   -0.020775  -0.084998   0.044848  -0.027815  -0.005791   0.000552
    21  C    0.567225  -0.091917   1.575957  -0.684167  -0.007328  -0.130088
    22  C   -0.782744   0.057801  -1.593958   1.072767   0.008175   0.130037
    23  C    0.287024   0.391288   0.058111   0.225402  -0.061383   0.039306
    24  H   -0.010776  -0.035945  -0.013298  -0.015257   0.005650   0.003769
    25  C   -0.204635   0.075126  -0.004801  -0.174686   0.000804  -0.060446
    26  H    0.008132  -0.002739  -0.009273   0.186926  -0.002041   0.008833
    27  C   -0.335777   0.081934  -0.056598  -0.018445  -0.004754  -0.263005
    28  H    0.011608  -0.014810   0.004999  -0.001434   0.000437   0.023939
    29  H    0.010093   0.004492  -0.009662   0.002632   0.000291   0.006406
    30  C    0.355859   0.050575   0.504884  -0.109550  -0.004188   0.093862
    31  H   -0.018868  -0.014095   0.008031  -0.007034  -0.000386  -0.004886
    32  C   -0.103594   0.041494  -0.006935   0.407183   0.002094  -0.077553
    33  H    0.014740  -0.000219   0.003124  -0.167579   0.000233   0.013111
    34  C    0.012520  -0.036221  -0.016525  -0.231860  -0.002572   0.024375
    35  H    0.001028  -0.000036  -0.000394   0.002793  -0.000710  -0.001175
    36  H   -0.000500   0.000018   0.000113  -0.009381   0.000108  -0.000587
    37  H    0.001344   0.003296   0.000703   0.000698   0.000053   0.035744
    38  C   -0.073611  -0.016199  -0.111690  -0.045767   0.000725   0.004815
    39  H    0.004601   0.000163   0.002680   0.003135  -0.000038   0.001382
    40  H    0.000522   0.000108  -0.001664   0.014203  -0.000034  -0.000532
    41  H    0.001707  -0.001031  -0.000416  -0.005285  -0.000006   0.000754
    42  H    0.001185  -0.000502  -0.000127  -0.000784   0.000004   0.000538
               7          8          9         10         11         12
     1  C   -4.462881  -0.129376  -2.078706   0.417894  -1.163193  -0.489567
     2  C   -0.686147   0.081152   0.941066  -1.439727   4.421083  -4.557814
     3  C    1.679479   0.249739   0.691701  -1.044698  -4.738598   3.930498
     4  C   -9.263500   0.040078   1.470020  -0.324481   0.919604  -0.841923
     5  H    0.066231   0.007416   0.057457   0.074451  -0.121390   0.005023
     6  C   -2.220358  -0.082505  -1.287748   0.570666  -1.367578  -0.657839
     7  C   21.778680   0.049032  -0.081122  -0.508068  -1.486543   0.764239
     8  H    0.049032   1.010070   0.079472  -0.001171   0.001019  -0.024833
     9  C   -0.081122   0.079472  12.479203  -2.819038   0.268920   0.278925
    10  C   -0.508068  -0.001171  -2.819038  15.260145  -0.506857   0.075794
    11  C   -1.486543   0.001019   0.268920  -0.506857  18.546383  -8.145939
    12  C    0.764239  -0.024833   0.278925   0.075794  -8.145939  16.771801
    13  C    0.767870   0.182936  -2.709138   1.104860   0.079348  -0.267007
    14  H    0.087424  -0.002968   0.285140   0.081525   0.008111  -0.007757
    15  C    0.287905  -0.038354  -0.648844  -1.867885   0.386505   0.003481
    16  C   -0.193623   0.023463   0.165956  -0.952758  -0.293112   0.037309
    17  C    0.286762  -0.048440  -0.054605  -0.144353  -2.450558   1.783596
    18  H   -0.071789  -0.004466   0.006584  -0.062966   0.671535   0.002380
    19  C   -0.120586   0.053350   0.036113   0.077492   1.703433  -1.753353
    20  H   -0.054213  -0.166000   0.004386  -0.003053  -0.012234   0.609431
    21  C   -0.113678  -0.296097  -1.722304   0.040558  -0.021998  -0.166778
    22  C   -1.425908   0.154867   1.161991   0.043819   0.000084  -0.070868
    23  C   -0.293271  -0.004218   0.329459  -1.770539   0.010224   0.031949
    24  H    0.036693   0.000408  -0.035368   0.016042  -0.003367  -0.006328
    25  C    0.436281   0.003553   0.548029  -1.308521   0.067670  -0.026114
    26  H   -0.158699   0.001281  -0.096615  -0.015301  -0.013442   0.007941
    27  C   -0.094634   0.017314   0.017371  -0.020255   0.106798  -0.668254
    28  H    0.005062   0.000979  -0.000660   0.000397  -0.108769   0.033893
    29  H    0.000404   0.011063   0.000364   0.000116   0.031020  -0.093390
    30  C    0.052821  -0.098175   0.275161  -0.037433   0.027680  -0.042554
    31  H    0.027869  -0.036896  -0.054523   0.010436  -0.005163  -0.002824
    32  C    0.287158   0.004131   0.638134  -0.137113  -0.018410   0.075811
    33  H    0.168122  -0.009809  -0.088294  -0.002188   0.007217  -0.013901
    34  C   -0.023879  -0.000131  -0.224034  -0.336205  -0.022946   0.003965
    35  H    0.000479  -0.000056   0.007092   0.023561   0.001629   0.000059
    36  H    0.011604  -0.000040   0.019583   0.032385   0.000845  -0.000233
    37  H   -0.000350  -0.002018   0.000016  -0.000141  -0.006959  -0.018613
    38  C   -0.296968   0.017181  -0.222016   0.036805  -0.000812  -0.024917
    39  H   -0.001153  -0.001545   0.007025  -0.000984   0.000449   0.000142
    40  H   -0.011801   0.000796   0.017713  -0.002956  -0.000125   0.000914
    41  H   -0.000606   0.000009  -0.010345   0.023183  -0.000546   0.000091
    42  H   -0.004955  -0.000679  -0.007882   0.001001   0.000047  -0.000386
              13         14         15         16         17         18
     1  C    0.242659   0.024951   1.432008  -1.075095  -0.039313  -0.039891
     2  C   -1.031685  -0.000061   1.105859  -1.382002  -1.041874   0.041533
     3  C   -2.004670  -0.043351  -0.355531   0.236273   0.168446  -0.093234
     4  C   -1.172380  -0.147188  -2.135254   1.008361  -0.100630  -0.047495
     5  H   -0.015988  -0.001285  -0.237348   0.181677  -0.039177  -0.015974
     6  C    0.565540  -0.003435   0.276577  -0.132936  -0.837356  -0.033982
     7  C    0.767870   0.087424   0.287905  -0.193623   0.286762  -0.071789
     8  H    0.182936  -0.002968  -0.038354   0.023463  -0.048440  -0.004466
     9  C   -2.709138   0.285140  -0.648844   0.165956  -0.054605   0.006584
    10  C    1.104860   0.081525  -1.867885  -0.952758  -0.144353  -0.062966
    11  C    0.079348   0.008111   0.386505  -0.293112  -2.450558   0.671535
    12  C   -0.267007  -0.007757   0.003481   0.037309   1.783596   0.002380
    13  C   14.344585   0.105386   0.128887  -0.080887   0.030474  -0.001006
    14  H    0.105386   0.483078   0.103423  -0.135261   0.002813  -0.000655
    15  C    0.128887   0.103423  17.959136  -9.855744   0.105573   0.054153
    16  C   -0.080887  -0.135261  -9.855744  20.253052  -0.036405  -0.035386
    17  C    0.030474   0.002813   0.105573  -0.036405  10.256514  -0.128747
    18  H   -0.001006  -0.000655   0.054153  -0.035386  -0.128747   0.604598
    19  C    0.014935  -0.003701  -0.031262   0.020158  -1.913643   0.068655
    20  H   -0.049724   0.000149   0.010056  -0.005738   0.055849   0.003761
    21  C   -0.933823   0.070710   0.128382  -0.101752   0.034939  -0.007855
    22  C   -0.825183  -0.083949  -0.194382   0.293731  -0.014583   0.003931
    23  C   -0.081987   0.007172  -0.955444  -0.257408  -0.022500   0.033289
    24  H    0.015554  -0.000092   0.507260  -0.019630   0.008166  -0.007695
    25  C   -0.088480  -0.024147   0.762339  -2.072963   0.004447   0.001338
    26  H   -0.010348  -0.001286  -0.096102   0.560790  -0.001601  -0.000206
    27  C   -0.008744   0.000170   0.012943  -0.006328   0.173705   0.034431
    28  H    0.000293   0.000019  -0.000146   0.000395   0.433198  -0.019499
    29  H    0.001407  -0.000022  -0.000373   0.000203  -0.008700  -0.000806
    30  C   -1.781407   0.014455   0.016367  -0.019495  -0.000089  -0.000071
    31  H   -0.037192  -0.000318   0.004028  -0.002679   0.001892   0.000064
    32  C   -1.635245  -0.026312   0.001361  -0.018498  -0.000329   0.000518
    33  H    0.007188   0.006262  -0.002960   0.012024   0.000832  -0.000003
    34  C    0.049972   0.004288  -0.297166   0.323034   0.000388   0.001151
    35  H   -0.001156  -0.000068  -0.104223   0.005388  -0.000302   0.000305
    36  H   -0.003677  -0.000984   0.018873  -0.115574   0.000009   0.000070
    37  H   -0.000100  -0.000004   0.000091  -0.000027  -0.067179   0.001116
    38  C   -0.234998   0.004062  -0.002199   0.003554   0.000126  -0.000220
    39  H    0.015294  -0.000001  -0.000012   0.000152  -0.000017   0.000003
    40  H    0.010555  -0.001820  -0.000215   0.001075  -0.000011   0.000007
    41  H    0.001169   0.000365   0.008115   0.013510  -0.000027  -0.000080
    42  H    0.029666   0.000515   0.000078  -0.000288   0.000001  -0.000001
              19         20         21         22         23         24
     1  C   -0.410089  -0.020775   0.567225  -0.782744   0.287024  -0.010776
     2  C    0.347295  -0.084998  -0.091917   0.057801   0.391288  -0.035945
     3  C   -0.703845   0.044848   1.575957  -1.593958   0.058111  -0.013298
     4  C    0.191833  -0.027815  -0.684167   1.072767   0.225402  -0.015257
     5  H   -0.005216  -0.005791  -0.007328   0.008175  -0.061383   0.005650
     6  C   -1.876507   0.000552  -0.130088   0.130037   0.039306   0.003769
     7  C   -0.120586  -0.054213  -0.113678  -1.425908  -0.293271   0.036693
     8  H    0.053350  -0.166000  -0.296097   0.154867  -0.004218   0.000408
     9  C    0.036113   0.004386  -1.722304   1.161991   0.329459  -0.035368
    10  C    0.077492  -0.003053   0.040558   0.043819  -1.770539   0.016042
    11  C    1.703433  -0.012234  -0.021998   0.000084   0.010224  -0.003367
    12  C   -1.753353   0.609431  -0.166778  -0.070868   0.031949  -0.006328
    13  C    0.014935  -0.049724  -0.933823  -0.825183  -0.081987   0.015554
    14  H   -0.003701   0.000149   0.070710  -0.083949   0.007172  -0.000092
    15  C   -0.031262   0.010056   0.128382  -0.194382  -0.955444   0.507260
    16  C    0.020158  -0.005738  -0.101752   0.293731  -0.257408  -0.019630
    17  C   -1.913643   0.055849   0.034939  -0.014583  -0.022500   0.008166
    18  H    0.068655   0.003761  -0.007855   0.003931   0.033289  -0.007695
    19  C   10.115072  -0.116452  -0.071602   0.017405   0.003757  -0.001622
    20  H   -0.116452   0.652401   0.027446  -0.013525   0.001308  -0.000403
    21  C   -0.071602   0.027446  16.697574  -7.914842  -0.011857   0.005926
    22  C    0.017405  -0.013525  -7.914842  18.232288   0.014619  -0.005014
    23  C    0.003757   0.001308  -0.011857   0.014619   8.482642  -0.153543
    24  H   -0.001622  -0.000403   0.005926  -0.005014  -0.153543   0.492146
    25  C   -0.002414  -0.000610  -0.003439   0.010478  -0.355951   0.000204
    26  H    0.001089  -0.000054  -0.006340   0.027666  -0.013040  -0.000220
    27  C    0.685464  -0.002539  -0.007708  -0.001643   0.001025  -0.001006
    28  H   -0.019423  -0.001695   0.000149  -0.000027  -0.000814   0.000535
    29  H    0.417509  -0.025304  -0.001946   0.000733  -0.000031   0.000027
    30  C   -0.029159   0.014641  -1.105113  -0.586637   0.001268   0.000026
    31  H    0.000242   0.007311   0.555503  -0.055642  -0.000244   0.000319
    32  C    0.003905   0.003429  -0.032537  -1.888700   0.010129  -0.001373
    33  H   -0.001145   0.001006  -0.034643   0.484560  -0.000594   0.000096
    34  C    0.000247  -0.000006   0.009267  -0.019142   0.100556   0.012253
    35  H    0.000043   0.000019  -0.000323   0.000540   0.436919  -0.010892
    36  H   -0.000012   0.000002  -0.000720   0.002106   0.015645  -0.000070
    37  H   -0.039894   0.003836  -0.000070   0.000010   0.000014  -0.000035
    38  C    0.000733  -0.004352  -0.059630   0.473863  -0.001266   0.000230
    39  H   -0.000604   0.000320  -0.093858   0.004991   0.000034  -0.000009
    40  H    0.000042  -0.000046   0.016523  -0.096759   0.000066  -0.000008
    41  H    0.000008  -0.000002   0.000194  -0.000542  -0.076097   0.000674
    42  H    0.000022   0.000041  -0.006055   0.002326  -0.000011   0.000004
              25         26         27         28         29         30
     1  C   -0.204635   0.008132  -0.335777   0.011608   0.010093   0.355859
     2  C    0.075126  -0.002739   0.081934  -0.014810   0.004492   0.050575
     3  C   -0.004801  -0.009273  -0.056598   0.004999  -0.009662   0.504884
     4  C   -0.174686   0.186926  -0.018445  -0.001434   0.002632  -0.109550
     5  H    0.000804  -0.002041  -0.004754   0.000437   0.000291  -0.004188
     6  C   -0.060446   0.008833  -0.263005   0.023939   0.006406   0.093862
     7  C    0.436281  -0.158699  -0.094634   0.005062   0.000404   0.052821
     8  H    0.003553   0.001281   0.017314   0.000979   0.011063  -0.098175
     9  C    0.548029  -0.096615   0.017371  -0.000660   0.000364   0.275161
    10  C   -1.308521  -0.015301  -0.020255   0.000397   0.000116  -0.037433
    11  C    0.067670  -0.013442   0.106798  -0.108769   0.031020   0.027680
    12  C   -0.026114   0.007941  -0.668254   0.033893  -0.093390  -0.042554
    13  C   -0.088480  -0.010348  -0.008744   0.000293   0.001407  -1.781407
    14  H   -0.024147  -0.001286   0.000170   0.000019  -0.000022   0.014455
    15  C    0.762339  -0.096102   0.012943  -0.000146  -0.000373   0.016367
    16  C   -2.072963   0.560790  -0.006328   0.000395   0.000203  -0.019495
    17  C    0.004447  -0.001601   0.173705   0.433198  -0.008700  -0.000089
    18  H    0.001338  -0.000206   0.034431  -0.019499  -0.000806  -0.000071
    19  C   -0.002414   0.001089   0.685464  -0.019423   0.417509  -0.029159
    20  H   -0.000610  -0.000054  -0.002539  -0.001695  -0.025304   0.014641
    21  C   -0.003439  -0.006340  -0.007708   0.000149  -0.001946  -1.105113
    22  C    0.010478   0.027666  -0.001643  -0.000027   0.000733  -0.586637
    23  C   -0.355951  -0.013040   0.001025  -0.000814  -0.000031   0.001268
    24  H    0.000204  -0.000220  -0.001006   0.000535   0.000027   0.000026
    25  C    8.435563  -0.099673   0.000810  -0.000066   0.000011   0.007695
    26  H   -0.099673   0.498928  -0.000094   0.000004   0.000001  -0.001078
    27  C    0.000810  -0.000094   6.524329  -0.056372  -0.044784   0.001942
    28  H   -0.000066   0.000004  -0.056372   0.478952   0.001924  -0.000017
    29  H    0.000011   0.000001  -0.044784   0.001924   0.480055  -0.000573
    30  C    0.007695  -0.001078   0.001942  -0.000017  -0.000573   8.883840
    31  H   -0.000961  -0.000097  -0.000631  -0.000026  -0.000491  -0.092223
    32  C   -0.036647   0.000705   0.000362  -0.000006  -0.000039  -0.107255
    33  H    0.006599  -0.007215  -0.000199   0.000004  -0.000005  -0.006158
    34  C    0.116600   0.032478  -0.000318  -0.000004  -0.000002  -0.000880
    35  H    0.007814  -0.000505   0.000018  -0.000011  -0.000000   0.000023
    36  H    0.430234  -0.013335   0.000007  -0.000001   0.000000   0.000052
    37  H    0.000008  -0.000001   0.437659  -0.011166  -0.011596   0.000025
    38  C   -0.003514   0.000365  -0.000395   0.000003   0.000059  -0.125929
    39  H    0.000041   0.000030   0.000026   0.000000   0.000001   0.437925
    40  H    0.000084   0.000518   0.000007  -0.000000   0.000001   0.004972
    41  H   -0.082074   0.002266  -0.000008   0.000002   0.000000  -0.000008
    42  H   -0.000089  -0.000035  -0.000004  -0.000000  -0.000001  -0.053121
              31         32         33         34         35         36
     1  C   -0.018868  -0.103594   0.014740   0.012520   0.001028  -0.000500
     2  C   -0.014095   0.041494  -0.000219  -0.036221  -0.000036   0.000018
     3  C    0.008031  -0.006935   0.003124  -0.016525  -0.000394   0.000113
     4  C   -0.007034   0.407183  -0.167579  -0.231860   0.002793  -0.009381
     5  H   -0.000386   0.002094   0.000233  -0.002572  -0.000710   0.000108
     6  C   -0.004886  -0.077553   0.013111   0.024375  -0.001175  -0.000587
     7  C    0.027869   0.287158   0.168122  -0.023879   0.000479   0.011604
     8  H   -0.036896   0.004131  -0.009809  -0.000131  -0.000056  -0.000040
     9  C   -0.054523   0.638134  -0.088294  -0.224034   0.007092   0.019583
    10  C    0.010436  -0.137113  -0.002188  -0.336205   0.023561   0.032385
    11  C   -0.005163  -0.018410   0.007217  -0.022946   0.001629   0.000845
    12  C   -0.002824   0.075811  -0.013901   0.003965   0.000059  -0.000233
    13  C   -0.037192  -1.635245   0.007188   0.049972  -0.001156  -0.003677
    14  H   -0.000318  -0.026312   0.006262   0.004288  -0.000068  -0.000984
    15  C    0.004028   0.001361  -0.002960  -0.297166  -0.104223   0.018873
    16  C   -0.002679  -0.018498   0.012024   0.323034   0.005388  -0.115574
    17  C    0.001892  -0.000329   0.000832   0.000388  -0.000302   0.000009
    18  H    0.000064   0.000518  -0.000003   0.001151   0.000305   0.000070
    19  C    0.000242   0.003905  -0.001145   0.000247   0.000043  -0.000012
    20  H    0.007311   0.003429   0.001006  -0.000006   0.000019   0.000002
    21  C    0.555503  -0.032537  -0.034643   0.009267  -0.000323  -0.000720
    22  C   -0.055642  -1.888700   0.484560  -0.019142   0.000540   0.002106
    23  C   -0.000244   0.010129  -0.000594   0.100556   0.436919   0.015645
    24  H    0.000319  -0.001373   0.000096   0.012253  -0.010892  -0.000070
    25  C   -0.000961  -0.036647   0.006599   0.116600   0.007814   0.430234
    26  H   -0.000097   0.000705  -0.007215   0.032478  -0.000505  -0.013335
    27  C   -0.000631   0.000362  -0.000199  -0.000318   0.000018   0.000007
    28  H   -0.000026  -0.000006   0.000004  -0.000004  -0.000011  -0.000001
    29  H   -0.000491  -0.000039  -0.000005  -0.000002  -0.000000   0.000000
    30  C   -0.092223  -0.107255  -0.006158  -0.000880   0.000023   0.000052
    31  H    0.484122  -0.005076   0.001257   0.000211  -0.000010  -0.000001
    32  C   -0.005076   8.924640  -0.101240  -0.006503   0.000057   0.000641
    33  H    0.001257  -0.101240   0.499280  -0.000750   0.000051   0.000615
    34  C    0.000211  -0.006503  -0.000750   6.603638  -0.053567  -0.075529
    35  H   -0.000010   0.000057   0.000051  -0.053567   0.473156   0.000855
    36  H   -0.000001   0.000641   0.000615  -0.075529   0.000855   0.475284
    37  H    0.000062  -0.000000   0.000001  -0.000000  -0.000000   0.000000
    38  C    0.017051  -0.194229   0.018970   0.000420  -0.000005   0.000018
    39  H   -0.008689   0.010397  -0.000262  -0.000006   0.000000  -0.000001
    40  H   -0.000003   0.428018  -0.010712   0.000005  -0.000001  -0.000034
    41  H    0.000003  -0.000139  -0.000062   0.464305  -0.009742  -0.011853
    42  H    0.000449  -0.064433   0.001350   0.000006  -0.000000   0.000000
              37         38         39         40         41         42
     1  C    0.001344  -0.073611   0.004601   0.000522   0.001707   0.001185
     2  C    0.003296  -0.016199   0.000163   0.000108  -0.001031  -0.000502
     3  C    0.000703  -0.111690   0.002680  -0.001664  -0.000416  -0.000127
     4  C    0.000698  -0.045767   0.003135   0.014203  -0.005285  -0.000784
     5  H    0.000053   0.000725  -0.000038  -0.000034  -0.000006   0.000004
     6  C    0.035744   0.004815   0.001382  -0.000532   0.000754   0.000538
     7  C   -0.000350  -0.296968  -0.001153  -0.011801  -0.000606  -0.004955
     8  H   -0.002018   0.017181  -0.001545   0.000796   0.000009  -0.000679
     9  C    0.000016  -0.222016   0.007025   0.017713  -0.010345  -0.007882
    10  C   -0.000141   0.036805  -0.000984  -0.002956   0.023183   0.001001
    11  C   -0.006959  -0.000812   0.000449  -0.000125  -0.000546   0.000047
    12  C   -0.018613  -0.024917   0.000142   0.000914   0.000091  -0.000386
    13  C   -0.000100  -0.234998   0.015294   0.010555   0.001169   0.029666
    14  H   -0.000004   0.004062  -0.000001  -0.001820   0.000365   0.000515
    15  C    0.000091  -0.002199  -0.000012  -0.000215   0.008115   0.000078
    16  C   -0.000027   0.003554   0.000152   0.001075   0.013510  -0.000288
    17  C   -0.067179   0.000126  -0.000017  -0.000011  -0.000027   0.000001
    18  H    0.001116  -0.000220   0.000003   0.000007  -0.000080  -0.000001
    19  C   -0.039894   0.000733  -0.000604   0.000042   0.000008   0.000022
    20  H    0.003836  -0.004352   0.000320  -0.000046  -0.000002   0.000041
    21  C   -0.000070  -0.059630  -0.093858   0.016523   0.000194  -0.006055
    22  C    0.000010   0.473863   0.004991  -0.096759  -0.000542   0.002326
    23  C    0.000014  -0.001266   0.000034   0.000066  -0.076097  -0.000011
    24  H   -0.000035   0.000230  -0.000009  -0.000008   0.000674   0.000004
    25  C    0.000008  -0.003514   0.000041   0.000084  -0.082074  -0.000089
    26  H   -0.000001   0.000365   0.000030   0.000518   0.002266  -0.000035
    27  C    0.437659  -0.000395   0.000026   0.000007  -0.000008  -0.000004
    28  H   -0.011166   0.000003   0.000000  -0.000000   0.000002  -0.000000
    29  H   -0.011596   0.000059   0.000001   0.000001   0.000000  -0.000001
    30  C    0.000025  -0.125929   0.437925   0.004972  -0.000008  -0.053121
    31  H    0.000062   0.017051  -0.008689  -0.000003   0.000003   0.000449
    32  C   -0.000000  -0.194229   0.010397   0.428018  -0.000139  -0.064433
    33  H    0.000001   0.018970  -0.000262  -0.010712  -0.000062   0.001350
    34  C   -0.000000   0.000420  -0.000006   0.000005   0.464305   0.000006
    35  H   -0.000000  -0.000005   0.000000  -0.000001  -0.009742  -0.000000
    36  H    0.000000   0.000018  -0.000001  -0.000034  -0.011853   0.000000
    37  H    0.482999  -0.000004  -0.000000   0.000000  -0.000000   0.000000
    38  C   -0.000004   6.835584  -0.058830  -0.052974   0.000006   0.437612
    39  H   -0.000000  -0.058830   0.471332   0.000518  -0.000000  -0.008076
    40  H    0.000000  -0.052974   0.000518   0.471453   0.000000  -0.009209
    41  H   -0.000000   0.000006  -0.000000   0.000000   0.485360   0.000000
    42  H    0.000000   0.437612  -0.008076  -0.009209   0.000000   0.480088
 Mulliken charges:
               1
     1  C    1.408768
     2  C   -1.215832
     3  C   -0.903277
     4  C    0.742086
     5  H    0.125690
     6  C    1.741458
     7  C    0.780619
     8  H   -0.041533
     9  C   -1.645637
    10  C    1.415560
    11  C   -0.771063
    12  C   -0.536051
    13  C    1.276246
    14  H    0.194645
    15  C   -0.489959
    16  C   -0.346519
    17  C   -0.397294
    18  H    0.042603
    19  C   -0.658270
    20  H    0.154538
    21  C   -0.101886
    22  C   -0.624740
    23  C   -0.421009
    24  H    0.215972
    25  C   -0.365496
    26  H    0.211386
    27  C   -0.503821
    28  H    0.238153
    29  H    0.228912
    30  C   -0.542965
    31  H    0.230109
    32  C   -0.378001
    33  H    0.201298
    34  C   -0.411434
    35  H    0.221348
    36  H    0.223465
    37  H    0.190486
    38  C   -0.321658
    39  H    0.213447
    40  H    0.220802
    41  H    0.197147
    42  H    0.201705
 Sum of Mulliken charges =  -0.00000
 Mulliken charges with hydrogens summed into heavy atoms:
               1
     1  C    1.408768
     2  C   -1.090142
     3  C   -0.944810
     4  C    0.742086
     6  C    1.741458
     7  C    0.780619
     9  C   -1.450993
    10  C    1.415560
    11  C   -0.728460
    12  C   -0.381513
    13  C    1.276246
    15  C   -0.273987
    16  C   -0.135133
    17  C   -0.159141
    19  C   -0.429358
    21  C    0.128224
    22  C   -0.423442
    23  C   -0.199661
    25  C   -0.142031
    27  C   -0.313335
    30  C   -0.329517
    32  C   -0.157199
    34  C   -0.214286
    38  C   -0.119953
 Electronic spatial extent (au):  <R**2>=          10005.6630
 Charge=             -0.0000 electrons
 Dipole moment (field-independent basis, Debye):
    X=              0.0057    Y=             -0.0141    Z=              0.0047  Tot=              0.0159
 Quadrupole moment (field-independent basis, Debye-Ang):
   XX=           -123.2056   YY=           -126.0488   ZZ=           -144.7810
   XY=              0.0085   XZ=             -1.8387   YZ=              6.0906
 Traceless Quadrupole moment (field-independent basis, Debye-Ang):
   XX=              8.1395   YY=              5.2963   ZZ=            -13.4359
   XY=              0.0085   XZ=             -1.8387   YZ=              6.0906
 Octapole moment (field-independent basis, Debye-Ang**2):
  XXX=              0.7147  YYY=             35.2579  ZZZ=              1.6618  XYY=             -2.5167
  XXY=            -22.0557  XXZ=             32.8994  XZZ=              1.7305  YZZ=            -13.3035
  YYZ=            -34.5954  XYZ=             -6.8841
 Hexadecapole moment (field-independent basis, Debye-Ang**3):
 XXXX=          -6343.6722 YYYY=          -6251.6338 ZZZZ=           -431.1172 XXXY=             -5.8719
 XXXZ=             -8.4868 YYYX=              1.2698 YYYZ=             95.0045 ZZZX=              0.7548
 ZZZY=             26.1755 XXYY=          -2028.0213 XXZZ=          -1236.4428 YYZZ=          -1285.8831
 XXYZ=             33.9722 YYXZ=            -38.5906 ZZXY=              5.0640
 N-N= 1.734309774920D+03 E-N=-5.614956197714D+03  KE= 9.213152471999D+02
 No NMR shielding tensors so no spin-rotation constants.
 Leave Link  601 at Mon Nov 14 15:16:58 2022, MaxMem= 16106127360 cpu:              32.6 elap:               1.1
 (Enter /opt/ap/G16/B01/g16/l9999.exe)
 1\1\GINC-N60\SP\RwB97XD\6-311++G(d,p)\C24H18\ROOT\14-Nov-2022\0\\#P wB
 97XD/6-311++G(d,p) scf=maxcycle=512\\_conf021.gjf nmol_natom 1_42\\0,1
 \C\C,1,1.39412829\C,1,1.39435449,2,118.86443127\C,2,1.39416084,1,121.1
 529487,3,0.03668482,0\H,2,1.08488355,1,119.42236619,3,-179.97409048,0\
 C,1,1.48467131,2,120.55714816,4,179.25839056,0\C,3,1.39437784,1,121.11
 776116,2,-0.05351271,0\H,3,1.08487775,1,119.41869036,2,177.23008049,0\
 C,4,1.39432447,2,118.86473838,1,0.01008406,0\C,4,1.48466627,2,120.5464
 188,1,179.19454736,0\C,6,1.3968498,1,120.7843492,2,15.,0\C,6,1.3968682
 ,1,120.67653841,2,-165.,0\C,7,1.48449863,3,120.56496838,1,-179.9632580
 4,0\H,9,1.0848792,4,119.41824946,2,177.22245984,0\C,10,1.39685361,4,12
 0.76946845,2,-42.52368674,0\C,10,1.39686289,4,120.69448769,2,137.43107
 516,0\C,11,1.38888939,6,120.7380073,1,179.94058542,0\H,11,1.0847641,6,
 119.46912378,1,-1.41050605,0\C,12,1.38882428,6,120.76493111,1,-179.950
 82712,0\H,12,1.08482758,6,119.44182626,1,-1.23602505,0\C,13,1.39682899
 ,7,120.74134419,3,42.89023273,0\C,13,1.39683158,7,120.7379111,3,-137.1
 2494058,0\C,15,1.38888263,10,120.742191,4,179.9460119,0\H,15,1.0847633
 4,10,119.47085903,4,-1.40606944,0\C,16,1.38886088,10,120.76338989,4,-1
 79.95592713,0\H,16,1.08483431,10,119.44215232,4,-1.23439681,0\C,17,1.3
 9007919,11,120.20743432,6,0.00349958,0\H,17,1.0843506,11,119.71318733,
 6,179.5011609,0\H,19,1.08435858,12,119.73823132,6,179.53683762,0\C,21,
 1.38882373,13,120.76699356,7,179.99297883,0\H,21,1.0847938,13,119.4352
 623,7,1.32183327,0\C,22,1.38881869,13,120.76647403,7,-179.97118338,0\H
 ,22,1.08479982,13,119.43203605,7,1.34657928,0\C,23,1.39007007,15,120.2
 0732995,10,0.00573957,0\H,23,1.08434813,15,119.71220819,10,179.5072436
 8,0\H,25,1.08436328,16,119.73539424,10,179.53636455,0\H,27,1.08412515,
 17,120.21790854,11,179.98397203,0\C,30,1.39008059,21,120.18795226,13,-
 0.02169059,0\H,30,1.08435324,21,119.73787119,13,-179.52151214,0\H,32,1
 .0843543,22,119.737043,13,-179.52886928,0\H,34,1.08412314,23,120.22152
 803,15,179.98800213,0\H,38,1.08411439,30,120.21547163,21,-179.98600656
 ,0\\Version=ES64L-G16RevB.01\State=1-A\HF=-925.3076365\RMSD=8.530e-09\
 Dipole=0.0059322,0.0016754,0.0010442\Quadrupole=4.2290895,-9.6861185,5
 .457029,-5.0039824,-0.9968906,-1.2461323\PG=C01 [X(C24H18)]\\@


 Any fool can criticize, condemn, and complain -- and most do.
 -- Dale Carnegie
 Job cpu time:       0 days  1 hours 17 minutes 57.0 seconds.
 Elapsed time:       0 days  0 hours  2 minutes 26.5 seconds.
 File lengths (MBytes):  RWF=    224 Int=      0 D2E=      0 Chk=     26 Scr=      1
 Normal termination of Gaussian 16 at Mon Nov 14 15:16:58 2022.
