 Entering Gaussian System, Link 0=g16
 Input=_conf017.gjf
 Output=_conf017.log
 Initial command:
 /opt/ap/G16/B01/g16/l1.exe "/tmp2/scr/Gau-11450.inp" -scrdir="/tmp2/scr/"
 Entering Link 1 = /opt/ap/G16/B01/g16/l1.exe PID=     11451.
  
 Copyright (c) 1988-2017, Gaussian, Inc.  All Rights Reserved.
  
 This is part of the Gaussian(R) 16 program.  It is based on
 the Gaussian(R) 09 system (copyright 2009, Gaussian, Inc.),
 the Gaussian(R) 03 system (copyright 2003, Gaussian, Inc.),
 the Gaussian(R) 98 system (copyright 1998, Gaussian, Inc.),
 the Gaussian(R) 94 system (copyright 1995, Gaussian, Inc.),
 the Gaussian 92(TM) system (copyright 1992, Gaussian, Inc.),
 the Gaussian 90(TM) system (copyright 1990, Gaussian, Inc.),
 the Gaussian 88(TM) system (copyright 1988, Gaussian, Inc.),
 the Gaussian 86(TM) system (copyright 1986, Carnegie Mellon
 University), and the Gaussian 82(TM) system (copyright 1983,
 Carnegie Mellon University). Gaussian is a federally registered
 trademark of Gaussian, Inc.
  
 This software contains proprietary and confidential information,
 including trade secrets, belonging to Gaussian, Inc.
  
 This software is provided under written license and may be
 used, copied, transmitted, or stored only in accord with that
 written license.
  
 The following legend is applicable only to US Government
 contracts under FAR:
  
                    RESTRICTED RIGHTS LEGEND
  
 Use, reproduction and disclosure by the US Government is
 subject to restrictions as set forth in subparagraphs (a)
 and (c) of the Commercial Computer Software - Restricted
 Rights clause in FAR 52.227-19.
  
 Gaussian, Inc.
 340 Quinnipiac St., Bldg. 40, Wallingford CT 06492
  
  
 ---------------------------------------------------------------
 Warning -- This program may not be used in any manner that
 competes with the business of Gaussian, Inc. or will provide
 assistance to any competitor of Gaussian, Inc.  The licensee
 of this program is prohibited from giving any competitor of
 Gaussian, Inc. access to this program.  By using this program,
 the user acknowledges that Gaussian, Inc. is engaged in the
 business of creating and licensing software in the field of
 computational chemistry and represents and warrants to the
 licensee that it is not a competitor of Gaussian, Inc. and that
 it will not use this program in any manner prohibited above.
 ---------------------------------------------------------------
  

 Cite this work as:
 Gaussian 16, Revision B.01,
 M. J. Frisch, G. W. Trucks, H. B. Schlegel, G. E. Scuseria, 
 M. A. Robb, J. R. Cheeseman, G. Scalmani, V. Barone, 
 G. A. Petersson, H. Nakatsuji, X. Li, M. Caricato, A. V. Marenich, 
 J. Bloino, B. G. Janesko, R. Gomperts, B. Mennucci, H. P. Hratchian, 
 J. V. Ortiz, A. F. Izmaylov, J. L. Sonnenberg, D. Williams-Young, 
 F. Ding, F. Lipparini, F. Egidi, J. Goings, B. Peng, A. Petrone, 
 T. Henderson, D. Ranasinghe, V. G. Zakrzewski, J. Gao, N. Rega, 
 G. Zheng, W. Liang, M. Hada, M. Ehara, K. Toyota, R. Fukuda, 
 J. Hasegawa, M. Ishida, T. Nakajima, Y. Honda, O. Kitao, H. Nakai, 
 T. Vreven, K. Throssell, J. A. Montgomery, Jr., J. E. Peralta, 
 F. Ogliaro, M. J. Bearpark, J. J. Heyd, E. N. Brothers, K. N. Kudin, 
 V. N. Staroverov, T. A. Keith, R. Kobayashi, J. Normand, 
 K. Raghavachari, A. P. Rendell, J. C. Burant, S. S. Iyengar, 
 J. Tomasi, M. Cossi, J. M. Millam, M. Klene, C. Adamo, R. Cammi, 
 J. W. Ochterski, R. L. Martin, K. Morokuma, O. Farkas, 
 J. B. Foresman, and D. J. Fox, Gaussian, Inc., Wallingford CT, 2016.
 
 ******************************************
 Gaussian 16:  ES64L-G16RevB.01 20-Dec-2017
                14-Nov-2022 
 ******************************************
 %nprocshared=32
 Will use up to   32 processors via shared memory.
 %mem=120GB
 %chk=_conf017.chk
 ----------------------------------------
 #P wB97XD/6-311++G(d,p) scf=maxcycle=512
 ----------------------------------------
 1/38=1,172=1/1;
 2/12=2,17=6,18=5,40=1/2;
 3/5=4,6=6,7=1111,11=2,25=1,30=1,74=-58/1,2,3;
 4//1;
 5/5=2,7=512,38=5/2;
 6/7=2,8=2,9=2,10=2,28=1/1;
 99/5=1,9=1/99;
 Leave Link    1 at Mon Nov 14 15:12:02 2022, MaxMem= 16106127360 cpu:               1.8 elap:               0.1
 (Enter /opt/ap/G16/B01/g16/l101.exe)
 ----------------------------
 _conf017.gjf nmol_natom 1_42
 ----------------------------
 Symbolic Z-matrix:
 Charge =  0 Multiplicity = 1
 C
 C                    1     1.39413 
 C                    1     1.39435  2     118.86443 
 C                    2     1.39416  1     121.15295  3     0.03668  0
 H                    2     1.08488  1     119.42237  3    -179.97409  0
 C                    1     1.48467  2     120.55715  4     179.25839  0
 C                    3     1.39438  1     121.11776  2    -0.05351  0
 H                    3     1.08488  1     119.41869  2     177.23008  0
 C                    4     1.39432  2     118.86474  1     0.01008  0
 C                    4     1.48467  2     120.54642  1     179.19455  0
 C                    6     1.39685  1     120.78435  2    -5.       0
 C                    6     1.39687  1     120.67654  2     175.     0
 C                    7     1.4845   3     120.56497  1    -179.96326  0
 H                    9     1.08488  4     119.41825  2     177.22246  0
 C                    10    1.39685  4     120.76947  2    -42.52369  0
 C                    10    1.39686  4     120.69449  2     137.43108  0
 C                    11    1.38889  6     120.73801  1     179.94059  0
 H                    11    1.08476  6     119.46912  1    -1.41051  0
 C                    12    1.38882  6     120.76493  1    -179.95083  0
 H                    12    1.08483  6     119.44183  1    -1.23603  0
 C                    13    1.39683  7     120.74134  3     42.89023  0
 C                    13    1.39683  7     120.73791  3    -137.12494  0
 C                    15    1.38888  10    120.74219  4     179.94601  0
 H                    15    1.08476  10    119.47086  4    -1.40607  0
 C                    16    1.38886  10    120.76339  4    -179.95593  0
 H                    16    1.08483  10    119.44215  4    -1.2344   0
 C                    17    1.39008  11    120.20743  6     0.0035   0
 H                    17    1.08435  11    119.71319  6     179.50116  0
 H                    19    1.08436  12    119.73823  6     179.53684  0
 C                    21    1.38882  13    120.76699  7     179.99298  0
 H                    21    1.08479  13    119.43526  7     1.32183  0
 C                    22    1.38882  13    120.76647  7    -179.97118  0
 H                    22    1.0848   13    119.43204  7     1.34658  0
 C                    23    1.39007  15    120.20733  10    0.00574  0
 H                    23    1.08435  15    119.71221  10    179.50724  0
 H                    25    1.08436  16    119.73539  10    179.53636  0
 H                    27    1.08413  17    120.21791  11    179.98397  0
 C                    30    1.39008  21    120.18795  13   -0.02169  0
 H                    30    1.08435  21    119.73787  13   -179.52151  0
 H                    32    1.08435  22    119.73704  13   -179.52887  0
 H                    34    1.08412  23    120.22153  15    179.988  0
 H                    38    1.08411  30    120.21547  21   -179.98601  0
 
 ITRead=  0  0  0  0  0  0  0  0  0  0  0  0  0  0  0  0  0  0  0  0
 ITRead=  0  0  0  0  0  0  0  0  0  0  0  0  0  0  0  0  0  0  0  0
 ITRead=  0  0
 MicOpt= -1 -1 -1 -1 -1 -1 -1 -1 -1 -1 -1 -1 -1 -1 -1 -1 -1 -1 -1 -1
 MicOpt= -1 -1 -1 -1 -1 -1 -1 -1 -1 -1 -1 -1 -1 -1 -1 -1 -1 -1 -1 -1
 MicOpt= -1 -1
 NAtoms=     42 NQM=       42 NQMF=       0 NMMI=      0 NMMIF=      0
                NMic=       0 NMicF=      0.
                    Isotopes and Nuclear Properties:
 (Nuclear quadrupole moments (NQMom) in fm**2, nuclear magnetic moments (NMagM)
  in nuclear magnetons)

  Atom         1           2           3           4           5           6           7           8           9          10
 IAtWgt=          12          12          12          12           1          12          12           1          12          12
 AtmWgt=  12.0000000  12.0000000  12.0000000  12.0000000   1.0078250  12.0000000  12.0000000   1.0078250  12.0000000  12.0000000
 NucSpn=           0           0           0           0           1           0           0           1           0           0
 AtZEff=  -0.0000000  -0.0000000  -0.0000000  -0.0000000  -0.0000000  -0.0000000  -0.0000000  -0.0000000  -0.0000000  -0.0000000
 NQMom=    0.0000000   0.0000000   0.0000000   0.0000000   0.0000000   0.0000000   0.0000000   0.0000000   0.0000000   0.0000000
 NMagM=    0.0000000   0.0000000   0.0000000   0.0000000   2.7928460   0.0000000   0.0000000   2.7928460   0.0000000   0.0000000
 AtZNuc=   6.0000000   6.0000000   6.0000000   6.0000000   1.0000000   6.0000000   6.0000000   1.0000000   6.0000000   6.0000000

  Atom        11          12          13          14          15          16          17          18          19          20
 IAtWgt=          12          12          12           1          12          12          12           1          12           1
 AtmWgt=  12.0000000  12.0000000  12.0000000   1.0078250  12.0000000  12.0000000  12.0000000   1.0078250  12.0000000   1.0078250
 NucSpn=           0           0           0           1           0           0           0           1           0           1
 AtZEff=  -0.0000000  -0.0000000  -0.0000000  -0.0000000  -0.0000000  -0.0000000  -0.0000000  -0.0000000  -0.0000000  -0.0000000
 NQMom=    0.0000000   0.0000000   0.0000000   0.0000000   0.0000000   0.0000000   0.0000000   0.0000000   0.0000000   0.0000000
 NMagM=    0.0000000   0.0000000   0.0000000   2.7928460   0.0000000   0.0000000   0.0000000   2.7928460   0.0000000   2.7928460
 AtZNuc=   6.0000000   6.0000000   6.0000000   1.0000000   6.0000000   6.0000000   6.0000000   1.0000000   6.0000000   1.0000000

  Atom        21          22          23          24          25          26          27          28          29          30
 IAtWgt=          12          12          12           1          12           1          12           1           1          12
 AtmWgt=  12.0000000  12.0000000  12.0000000   1.0078250  12.0000000   1.0078250  12.0000000   1.0078250   1.0078250  12.0000000
 NucSpn=           0           0           0           1           0           1           0           1           1           0
 AtZEff=  -0.0000000  -0.0000000  -0.0000000  -0.0000000  -0.0000000  -0.0000000  -0.0000000  -0.0000000  -0.0000000  -0.0000000
 NQMom=    0.0000000   0.0000000   0.0000000   0.0000000   0.0000000   0.0000000   0.0000000   0.0000000   0.0000000   0.0000000
 NMagM=    0.0000000   0.0000000   0.0000000   2.7928460   0.0000000   2.7928460   0.0000000   2.7928460   2.7928460   0.0000000
 AtZNuc=   6.0000000   6.0000000   6.0000000   1.0000000   6.0000000   1.0000000   6.0000000   1.0000000   1.0000000   6.0000000

  Atom        31          32          33          34          35          36          37          38          39          40
 IAtWgt=           1          12           1          12           1           1           1          12           1           1
 AtmWgt=   1.0078250  12.0000000   1.0078250  12.0000000   1.0078250   1.0078250   1.0078250  12.0000000   1.0078250   1.0078250
 NucSpn=           1           0           1           0           1           1           1           0           1           1
 AtZEff=  -0.0000000  -0.0000000  -0.0000000  -0.0000000  -0.0000000  -0.0000000  -0.0000000  -0.0000000  -0.0000000  -0.0000000
 NQMom=    0.0000000   0.0000000   0.0000000   0.0000000   0.0000000   0.0000000   0.0000000   0.0000000   0.0000000   0.0000000
 NMagM=    2.7928460   0.0000000   2.7928460   0.0000000   2.7928460   2.7928460   2.7928460   0.0000000   2.7928460   2.7928460
 AtZNuc=   1.0000000   6.0000000   1.0000000   6.0000000   1.0000000   1.0000000   1.0000000   6.0000000   1.0000000   1.0000000

  Atom        41          42
 IAtWgt=           1           1
 AtmWgt=   1.0078250   1.0078250
 NucSpn=           1           1
 AtZEff=  -0.0000000  -0.0000000
 NQMom=    0.0000000   0.0000000
 NMagM=    2.7928460   2.7928460
 AtZNuc=   1.0000000   1.0000000
 Leave Link  101 at Mon Nov 14 15:12:02 2022, MaxMem= 16106127360 cpu:               5.4 elap:               0.2
 (Enter /opt/ap/G16/B01/g16/l202.exe)
                          Input orientation:                          
 ---------------------------------------------------------------------
 Center     Atomic      Atomic             Coordinates (Angstroms)
 Number     Number       Type             X           Y           Z
 ---------------------------------------------------------------------
      1          6           0        0.000000    0.000000    0.000000
      2          6           0        0.000000    0.000000    1.394128
      3          6           0        1.221126    0.000000   -0.673109
      4          6           0        1.193108    0.000764    2.115362
      5          1           0       -0.944957   -0.000427    1.927071
      6          6           0       -1.278366   -0.017366   -0.754803
      7          6           0        2.428476    0.001115    0.024455
      8          1           0        1.232154   -0.045667   -1.756969
      9          6           0        2.400843    0.001752    1.418572
     10          6           0        1.177445    0.018728    3.599837
     11          6           0       -2.500238   -0.138564   -0.088823
     12          6           0       -1.285023    0.087261   -2.147732
     13          6           0        3.721572    0.001921   -0.704680
     14          1           0        3.334061    0.048144    1.969857
     15          6           0        0.290794    0.844275    4.295193
     16          6           0        2.049080   -0.790881    4.331965
     17          6           0       -3.695635   -0.153472   -0.795801
     18          1           0       -2.511439   -0.243958    0.990751
     19          6           0       -2.479835    0.072237   -2.855567
     20          1           0       -0.345826    0.202300   -2.678323
     21          6           0        3.910862    0.818865   -1.821777
     22          6           0        4.776237   -0.814044   -0.288725
     23          6           0        0.275860    0.859807    5.683909
     24          1           0       -0.377402    1.495584    3.742000
     25          6           0        2.035025   -0.775886    5.720674
     26          1           0        2.729408   -1.453102    3.807101
     27          6           0       -3.689843   -0.047450   -2.181819
     28          1           0       -4.634180   -0.256458   -0.262564
     29          1           0       -2.466053    0.162130   -3.936105
     30          6           0        5.120444    0.820149   -2.504230
     31          1           0        3.109266    1.474569   -2.144691
     32          6           0        5.986440   -0.813321   -0.970068
     33          1           0        4.638168   -1.470412    0.563864
     34          6           0        1.147946    0.049642    6.401818
     35          1           0       -0.413890    1.513063    6.206701
     36          1           0        2.713797   -1.416787    6.272362
     37          1           0       -4.622818   -0.059329   -2.733854
     38          6           0        6.162883    0.003944   -2.080611
     39          1           0        5.251831    1.466740   -3.364741
     40          1           0        6.791448   -1.459089   -0.637249
     41          1           0        1.136620    0.061726    7.485815
     42          1           0        7.107346    0.004761   -2.612865
 ---------------------------------------------------------------------
                    Distance matrix (angstroms):
                    1          2          3          4          5
     1  C    0.000000
     2  C    1.394128   0.000000
     3  C    1.394354   2.400962   0.000000
     4  C    2.428634   1.394161   2.788612   0.000000
     5  H    2.146287   1.084884   3.384206   2.146341   0.000000
     6  C    1.484671   2.500485   2.500887   3.787659   2.702572
     7  C    2.428599   2.788100   1.394378   2.428585   3.872983
     8  H    2.146445   3.383741   1.084878   3.872806   4.279487
     9  C    2.788619   2.400968   2.401430   1.394324   3.384222
    10  C    3.787552   2.500376   4.273210   1.484666   2.702426
    11  C    2.505649   2.910246   3.769501   4.303329   2.549864
    12  C    2.504326   3.768776   2.909108   4.931792   4.089908
    13  C    3.787700   4.272598   2.500646   3.787581   5.357482
    14  H    3.872805   3.383747   3.384092   2.146415   4.279508
    15  C    4.387032   3.035381   5.124680   2.505463   2.801537
    16  C    4.856969   3.668120   5.134371   2.504540   3.920790
    17  C    3.783460   4.298495   4.920685   5.691964   3.873458
    18  H    2.710799   2.555300   4.093897   3.879215   1.841159
    19  C    3.782732   4.920844   4.297145   6.181080   5.023420
    20  H    2.708124   4.092112   2.552871   5.038685   4.648624
    21  C    4.391384   5.129076   3.037212   4.853507   6.189029
    22  C    4.853707   5.129045   3.667320   4.391169   6.189006
    23  C    5.755188   4.383786   6.484171   3.783362   4.042800
    24  H    4.047440   2.809218   4.928007   2.710524   2.419532
    25  C    6.121229   4.843792   6.491910   3.782894   4.886007
    26  H    4.904609   3.922195   4.945574   2.708491   4.375585
    27  C    4.286902   5.138540   5.137711   6.504713   4.941617
    28  H    4.648692   4.928086   5.875281   6.299046   4.297722
    29  H    4.647647   5.875295   4.926329   7.073595   6.059454
    30  C    5.758711   6.487587   4.385239   6.118495   7.556379
    31  H    4.054822   4.936104   2.811579   4.898143   5.932249
    32  C    6.118822   6.487555   4.843334   5.758354   7.556353
    33  H    4.898230   4.935996   3.920254   4.054620   5.932156
    34  C    6.504116   5.137821   7.075480   4.286973   4.940255
    35  H    6.401859   5.061770   7.231488   4.648499   4.570330
    36  H    6.979577   5.759266   7.243957   4.647859   5.854410
    37  H    5.371027   6.197920   6.196925   7.572549   5.937537
    38  C    6.504621   7.074953   5.138292   6.504219   8.159837
    39  H    6.407382   7.237395   5.063871   6.975231   8.279857
    40  H    6.975586   7.237348   5.758361   6.406985   8.279819
    41  H    7.571865   6.197125   8.159595   5.371096   5.936031
    42  H    7.572414   8.159067   6.197601   7.571945   9.243951
                    6          7          8          9         10
     6  C    0.000000
     7  C    3.787910   0.000000
     8  H    2.703303   2.146356   0.000000
     9  C    4.273231   1.394392   3.384102   0.000000
    10  C    4.999520   3.787973   5.357472   2.500981   0.000000
    11  C    1.396850   4.931993   4.089265   5.129573   5.211171
    12  C    1.396868   4.303009   2.550792   5.129468   6.253238
    13  C    5.000226   1.484499   2.703105   2.500505   5.000173
    14  H    5.357476   2.146366   4.279725   1.084879   2.703459
    15  C    5.357906   4.849723   6.189251   3.665665   1.396854
    16  C    6.127433   4.396117   6.188524   3.039714   1.396863
    17  C    2.421445   6.180732   5.021809   6.488034   6.564921
    18  H    2.149133   5.039499   4.647986   4.936995   4.525948
    19  C    2.421728   5.691318   3.872942   6.488008   7.419622
    20  H    2.148909   3.878432   1.844018   4.936493   6.462921
    21  C    5.363376   2.504946   2.815510   3.667109   6.124188
    22  C    6.124553   2.504906   3.912375   3.036921   5.363369
    23  C    6.681472   6.115597   7.556523   4.841994   2.421492
    24  H    4.829285   4.891475   5.933362   3.917716   2.149154
    25  C    7.313393   5.762417   7.555989   4.387097   2.421736
    26  H    6.239756   4.063707   5.931401   2.815959   2.148914
    27  C    2.802231   6.504139   4.940299   7.075429   7.557937
    28  H    3.400141   7.073177   6.057355   7.237710   6.983470
    29  H    3.400515   6.298283   4.297504   7.237746   8.371742
    30  C    6.686306   3.783088   4.053003   4.842972   7.310892
    31  H    4.838282   2.709194   2.446425   3.920191   6.233057
    32  C    7.311449   3.783053   4.879728   4.384797   6.686012
    33  H    6.233426   2.709077   4.360860   2.811302   4.838519
    34  C    7.557031   6.504835   8.159779   5.138559   2.802307
    35  H    7.179977   6.970308   8.280044   5.756123   3.400165
    36  H    8.202243   6.413127   8.279214   5.066504   3.400510
    37  H    3.886356   7.571834   5.935923   8.159546   8.588643
    38  C    7.558466   4.286853   4.941589   5.137824   7.557929
    39  H    7.187337   4.648230   4.585860   5.757987   8.197725
    40  H    8.198432   4.648180   5.844424   5.063385   7.187062
    41  H    8.587561   7.572613   9.243902   6.197846   3.886431
    42  H    8.589123   5.370968   5.937422   6.197069   8.588456
                   11         12         13         14         15
    11  C    0.000000
    12  C    2.401427   0.000000
    13  C    6.253793   5.211110   0.000000
    14  H    6.189674   6.188053   2.702860   0.000000
    15  C    5.289180   6.675893   6.121971   3.911840   0.000000
    16  C    6.376925   7.339880   5.365963   2.816859   2.401387
    17  C    1.388889   2.774296   7.419394   7.556860   6.542579
    18  H    1.084764   3.385835   6.464160   5.934126   4.467225
    19  C    2.774838   1.388824   6.564199   7.555573   7.707516
    20  H    3.385733   1.084828   4.525389   5.930507   7.031881
    21  C    6.709843   5.257253   1.396829   3.911930   7.107943
    22  C    7.310494   6.403681   1.396832   2.815037   6.624314
    23  C    6.482893   8.022953   7.309101   4.879095   1.388883
    24  H    4.674620   6.123405   6.229413   4.360107   1.084763
    25  C    7.397638   8.583679   6.688393   4.054029   2.774755
    26  H    6.652475   7.344958   4.843310   2.448430   3.385708
    27  C    2.409169   2.408832   7.557344   8.159704   7.654563
    28  H    2.144247   3.858608   8.371429   8.280662   6.800010
    29  H    3.859166   2.144462   6.982440   8.278569   8.707456
    30  C    8.051590   6.457106   2.421718   4.878996   8.340159
    31  H    6.188321   4.608080   2.148776   4.360587   7.057844
    32  C    8.558947   7.421058   2.421709   4.052208   7.931644
    33  H    7.290861   6.698006   2.148749   2.446125   6.179018
    34  C    7.448026   8.889069   7.558317   4.941800   2.409154
    35  H    6.834789   8.519878   8.194680   5.843284   2.144229
    36  H    8.323742   9.441964   7.190790   4.587189   3.859086
    37  H    3.392317   3.392036   8.587790   9.243829   8.623665
    38  C    8.890287   7.448675   2.802355   4.940696   8.708529
    39  H    8.567567   6.790768   3.400487   5.843645   9.147346
    40  H    9.401063   8.360750   3.400476   4.585006   8.478973
    41  H    8.404879   9.933289   8.588933   5.937569   3.392325
    42  H    9.934636   8.405653   3.886469   5.936405   9.741223
                   16         17         18         19         20
    16  C    0.000000
    17  C    7.726708   0.000000
    18  H    5.679892   2.145291   0.000000
    19  C    8.539125   2.402446   3.859422   0.000000
    20  H    7.474365   3.858974   4.283822   2.145303   0.000000
    21  C    6.627673   7.736721   7.091252   6.516685   4.385570
    22  C    5.365510   8.512702   7.421071   7.747565   5.742706
    23  C    2.774316   7.667212   5.568937   9.007595   8.411048
    24  H    3.385823   5.858472   3.892235   7.069231   6.549361
    25  C    1.388861   8.700133   6.582208   9.729090   8.784558
    26  H    1.084834   8.009801   6.071272   8.593836   7.366013
    27  C    8.713054   1.390079   3.390052   1.390101   3.389888
    28  H    8.127809   1.084351   2.465154   3.387168   4.943312
    29  H    9.468666   3.387180   4.943772   1.084359   2.465561
    30  C    7.665654   9.032713   8.461256   7.645067   5.503831
    31  H    6.942862   7.125776   6.661580   5.806025   3.720362
    32  C    6.604154   9.706098   8.739733   8.718780   6.636808
    33  H    4.622091   8.546069   7.266589   8.046008   6.176564
    34  C    2.408903   8.677975   6.538880   9.942861   9.203457
    35  H    3.858628   7.910892   5.890073   9.405785   8.981446
    36  H    2.144469   9.624744   7.521571  10.607077   9.596744
    37  H    9.745522   2.150485   4.285405   2.150465   4.285346
    38  C    7.660043   9.943133   9.205357   8.677661   6.539106
    39  H    8.636768   9.448898   9.064500   7.872900   5.779597
    40  H    6.901424  10.569233   9.522113   9.655184   7.607029
    41  H    3.392092   9.590733   7.455711  10.955502  10.272639
    42  H    8.628428  10.955873  10.274674   9.590490   7.456077
                   21         22         23         24         25
    21  C    0.000000
    22  C    2.401148   0.000000
    23  C    8.339678   7.663388   0.000000
    24  H    7.057108   6.938381   2.145221   0.000000
    25  C    7.934139   6.605193   2.402396   3.859344   0.000000
    26  H    6.184005   4.623169   3.858996   4.283837   2.145356
    27  C    7.658384   8.708960   8.855484   6.960233   9.785404
    28  H    8.752441   9.426959   7.791988   6.101340   8.974812
    29  H    6.750313   8.167439  10.027438   8.068077  10.695464
    30  C    1.388824   2.774442   9.514051   8.348527   8.928391
    31  H    1.084794   3.385432   8.348239   6.841814   8.251212
    32  C    2.774430   1.388819   8.926672   8.248218   7.770528
    33  H    3.385417   1.084800   7.118603   6.637291   5.818196
    34  C    8.709358   7.659884   1.390070   3.389995   1.390095
    35  H    9.145591   8.633852   1.084348   2.465033   3.387137
    36  H    8.482109   6.903971   3.387136   4.943698   1.084363
    37  H    8.627098   9.741176   9.782668   7.897975  10.785147
    38  C    2.408878   2.408889   9.781478   8.882743   8.860440
    39  H    2.144453   3.858761  10.344405   9.066139   9.895553
    40  H    3.858751   2.144441   9.369482   8.905073   7.969536
    41  H    9.741711   8.628862   2.150513   4.285366   2.150453
    42  H    3.392063   3.392069  10.781315   9.931179   9.787018
                   26         27         28         29         30
    26  H    0.000000
    27  C    8.890996   0.000000
    28  H    8.498033   2.149185   0.000000
    29  H    9.463563   2.149210   4.286129   0.000000
    30  C    7.121630   8.858771  10.066620   7.748431   0.000000
    31  H    6.643746   6.967482   8.154742   6.001320   2.145313
    32  C    5.817122   9.781888  10.658716   9.010744   2.402462
    33  H    3.763276   8.883657   9.387924   8.566497   3.859075
    34  C    3.389959   9.853550   8.828401  10.952000   9.782234
    35  H    4.943333   9.139712   7.924231  10.436134  10.343562
    36  H    2.465578  10.693683   9.901736  11.555804   9.371467
    37  H    9.938910   1.084125   2.479166   2.479130   9.785569
    38  C    6.969712   9.853380  10.952155   8.827594   1.390081
    39  H    8.143918   9.145797  10.503625   7.848197   1.084353
    40  H    6.021000  10.688119  11.494855   9.960528   3.387152
    41  H    4.285396  10.806008   9.666475  11.977044  10.781792
    42  H    7.906179  10.805915  11.977295   9.665696   2.150451
                   31         32         33         34         35
    31  H    0.000000
    32  C    3.859055   0.000000
    33  H    4.283308   2.145356   0.000000
    34  C    8.883693   8.860047   6.969499   0.000000
    35  H    9.064207   9.893547   8.140394   2.149187   0.000000
    36  H    8.908597   7.970392   6.024369   2.149200   4.286112
    37  H    7.904751  10.781271   9.931363  10.806207  10.006049
    38  C    3.389900   1.390094   3.389946   9.854100  10.686951
    39  H    2.465597   3.387150   4.943418  10.688111  11.122726
    40  H    4.943399   1.084354   2.465647   9.147341  10.372571
    41  H    9.931470   9.787155   7.907066   1.084123   2.479233
    42  H    4.285343   2.150458   4.285392  10.806525  11.688828
                   36         37         38         39         40
    36  H    0.000000
    37  H   11.695321   0.000000
    38  C    9.148051  10.805651   0.000000
    39  H   10.374492  10.011773   2.149134   0.000000
    40  H    8.023201  11.689335   2.149152   4.286037   0.000000
    41  H    2.479104  11.731471  10.806626  11.689465  10.013697
    42  H   10.013557  11.730963   1.084114   2.479039   2.479054
                   41         42
    41  H    0.000000
    42  H   11.731844   0.000000
 Stoichiometry    C24H18
 Framework group  C1[X(C24H18)]
 Deg. of freedom   120
 Full point group                 C1      NOp   1
 Largest Abelian subgroup         C1      NOp   1
 Largest concise Abelian subgroup C1      NOp   1
                         Standard orientation:                         
 ---------------------------------------------------------------------
 Center     Atomic      Atomic             Coordinates (Angstroms)
 Number     Number       Type             X           Y           Z
 ---------------------------------------------------------------------
      1          6           0        0.008356    1.401433   -0.040333
      2          6           0       -1.196094    0.699643   -0.020697
      3          6           0        1.204827    0.685694   -0.020426
      4          6           0       -1.218366   -0.693776    0.018939
      5          1           0       -2.132395    1.247428   -0.036359
      6          6           0        0.016695    2.884918   -0.099090
      7          6           0        1.210176   -0.708100    0.019570
      8          1           0        2.146774    1.220501   -0.081076
      9          6           0       -0.008179   -1.386003    0.039178
     10          6           0       -2.508757   -1.427018    0.057428
     11          6           0       -1.174000    3.601511   -0.240266
     12          6           0        1.216761    3.594771   -0.014283
     13          6           0        2.491295   -1.457768    0.041225
     14          1           0       -0.014500   -2.468156    0.115776
     15          6           0       -3.555972   -0.988313    0.871110
     16          6           0       -2.702372   -2.570892   -0.720577
     17          6           0       -1.165197    4.989337   -0.293894
     18          1           0       -2.112338    3.064799   -0.330682
     19          6           0        1.226598    4.982520   -0.068025
     20          1           0        2.148135    3.053974    0.115841
     21          6           0        3.551769   -1.036126    0.846672
     22          6           0        2.663008   -2.600728   -0.743182
     23          6           0       -4.763265   -1.674048    0.905836
     24          1           0       -3.414506   -0.114619    1.498293
     25          6           0       -3.909216   -3.257398   -0.686366
     26          1           0       -1.906346   -2.912685   -1.373560
     27          6           0        0.035168    5.684999   -0.207297
     28          1           0       -2.098529    5.528576   -0.411917
     29          1           0        2.167069    5.517056    0.006944
     30          6           0        4.750500   -1.737156    0.867454
     31          1           0        3.427108   -0.163024    1.478281
     32          6           0        3.861092   -3.302869   -0.722931
     33          1           0        1.856856   -2.928978   -1.390609
     34          6           0       -4.944368   -2.811169    0.127086
     35          1           0       -5.562245   -1.323326    1.549603
     36          1           0       -4.044055   -4.139177   -1.302912
     37          1           0        0.042261    6.768283   -0.249399
     38          6           0        4.909435   -2.873422    0.082620
     39          1           0        5.560131   -1.399421    1.504834
     40          1           0        3.978915   -4.183626   -1.344387
     41          1           0       -5.886584   -3.346724    0.154161
     42          1           0        5.844892   -3.421114    0.098669
 ---------------------------------------------------------------------
 Rotational constants (GHZ):           0.2007209           0.1977256           0.1028959
 Leave Link  202 at Mon Nov 14 15:12:03 2022, MaxMem= 16106127360 cpu:               2.2 elap:               0.1
 (Enter /opt/ap/G16/B01/g16/l301.exe)
 Standard basis: 6-311++G(d,p) (5D, 7F)
 Ernie: Thresh=  0.10000D-02 Tol=  0.10000D-05 Strict=F.
 There are   678 symmetry adapted cartesian basis functions of A   symmetry.
 There are   654 symmetry adapted basis functions of A   symmetry.
   654 basis functions,  1026 primitive gaussians,   678 cartesian basis functions
    81 alpha electrons       81 beta electrons
       nuclear repulsion energy      1734.5598872942 Hartrees.
 IExCor= 4639 DFT=T Ex+Corr=wB97XD ExCW=0 ScaHFX=  1.000000
 ScaDFX=  1.000000  1.000000  1.000000  1.000000 ScalE2=  1.000000  1.000000
 IRadAn=      5 IRanWt=     -1 IRanGd=            0 ICorTp=0 IEmpDi=121
 HFx  wShort=  0.000000 wLong=  0.200000 cFull=  0.222036 cShort=  0.000000 cLong=  0.777964
 DFx  wShort=  0.000000 wLong=  0.200000 cFull=  0.000000 cShort=  0.000000 cLong=  1.000000
 NAtoms=   42 NActive=   42 NUniq=   42 SFac= 1.00D+00 NAtFMM=   60 NAOKFM=F Big=F
 Integral buffers will be    131072 words long.
 Raffenetti 2 integral format.
 Two-electron integral symmetry is turned on.
 R6Disp:  Grimme-D2 Dispersion energy=       -0.0287121878 Hartrees.
 Nuclear repulsion after empirical dispersion term =     1734.5311751065 Hartrees.
 Leave Link  301 at Mon Nov 14 15:12:03 2022, MaxMem= 16106127360 cpu:               3.0 elap:               0.1
 (Enter /opt/ap/G16/B01/g16/l302.exe)
 NPDir=0 NMtPBC=     1 NCelOv=     1 NCel=       1 NClECP=     1 NCelD=      1
         NCelK=      1 NCelE2=     1 NClLst=     1 CellRange=     0.0.
 One-electron integrals computed using PRISM.
 One-electron integral symmetry used in STVInt
 NBasis=   654 RedAO= T EigKep=  1.02D-06  NBF=   654
 NBsUse=   644 1.00D-06 EigRej=  9.79D-07 NBFU=   644
 Precomputing XC quadrature grid using
 IXCGrd= 4 IRadAn=           5 IRanWt=          -1 IRanGd=           0 AccXCQ= 0.00D+00.
 Generated NRdTot=       0 NPtTot=           0 NUsed=           0 NTot=          32
 NSgBfM=   669   669   669   669   669 MxSgAt=    42 MxSgA2=    42.
 Leave Link  302 at Mon Nov 14 15:12:06 2022, MaxMem= 16106127360 cpu:              91.4 elap:               3.0
 (Enter /opt/ap/G16/B01/g16/l303.exe)
 DipDrv:  MaxL=1.
 Leave Link  303 at Mon Nov 14 15:12:06 2022, MaxMem= 16106127360 cpu:               2.7 elap:               0.1
 (Enter /opt/ap/G16/B01/g16/l401.exe)
 ExpMin= 3.60D-02 ExpMax= 4.56D+03 ExpMxC= 6.82D+02 IAcc=3 IRadAn=         5 AccDes= 0.00D+00
 Harris functional with IExCor= 4639 and IRadAn=       5 diagonalized for initial guess.
 HarFok:  IExCor= 4639 AccDes= 0.00D+00 IRadAn=         5 IDoV= 1 UseB2=F ITyADJ=14
 ICtDFT=  3500011 ScaDFX=  1.000000  1.000000  1.000000  1.000000
 FoFCou: FMM=F IPFlag=           0 FMFlag=      100000 FMFlg1=           0
         NFxFlg=           0 DoJE=T BraDBF=F KetDBF=T FulRan=T
         wScrn=  0.000000 ICntrl=       500 IOpCl=  0 I1Cent=   200000004 NGrid=           0
         NMat0=    1 NMatS0=      1 NMatT0=    0 NMatD0=    1 NMtDS0=    0 NMtDT0=    0
 Petite list used in FoFCou.
 Harris En= -882.962898162755    
 JPrj=0 DoOrth=F DoCkMO=F.
 Leave Link  401 at Mon Nov 14 15:12:07 2022, MaxMem= 16106127360 cpu:              55.0 elap:               1.7
 (Enter /opt/ap/G16/B01/g16/l502.exe)
 Integral symmetry usage will be decided dynamically.
 Closed shell SCF:
 Using DIIS extrapolation, IDIIS=  1040.
 NGot= 16106127360 LenX= 16105179956 LenY= 16104719594
 Requested convergence on RMS density matrix=1.00D-08 within 512 cycles.
 Requested convergence on MAX density matrix=1.00D-06.
 Requested convergence on             energy=1.00D-06.
 No special actions if energy rises.
 Fock matrices will be formed incrementally for  20 cycles.

 Cycle   1  Pass 1  IDiag  1:
 FoFJK:  IHMeth= 1 ICntrl=       0 DoSepK=T KAlg= 0 I1Cent=           0 FoldK=F
 IRaf=         1 NMat=       1 IRICut=       1 DoRegI=T DoRafI=F ISym2E= 0 IDoP0=0 IntGTp=1.
 FoFCou: FMM=F IPFlag=           0 FMFlag=      100000 FMFlg1=           0
         NFxFlg=           0 DoJE=T BraDBF=F KetDBF=F FulRan=T
         wScrn=  0.000000 ICntrl=       500 IOpCl=  0 I1Cent=           0 NGrid=           0
         NMat0=    1 NMatS0=      1 NMatT0=    0 NMatD0=    1 NMtDS0=    0 NMtDT0=    0
 Symmetry not used in FoFCou.
 E= -925.110549160322    
 DIIS: error= 5.70D-02 at cycle   1 NSaved=   1.
 NSaved= 1 IEnMin= 1 EnMin= -925.110549160322     IErMin= 1 ErrMin= 5.70D-02
 ErrMax= 5.70D-02  0.00D+00 EMaxC= 1.00D-01 BMatC= 1.90D+00 BMatP= 1.90D+00
 IDIUse=3 WtCom= 4.30D-01 WtEn= 5.70D-01
 Coeff-Com:  0.100D+01
 Coeff-En:   0.100D+01
 Coeff:      0.100D+01
 Gap=     0.303 Goal=   None    Shift=    0.000
 GapD=    0.303 DampG=1.000 DampE=0.500 DampFc=0.5000 IDamp=-1.
 Damping current iteration by 5.00D-01
 RMSDP=4.43D-02 MaxDP=6.28D+00              OVMax= 4.48D-02

 Cycle   2  Pass 1  IDiag  1:
 RMSU=  6.78D-03    CP:  8.02D-01
 E= -925.209564543688     Delta-E=       -0.099015383366 Rises=F Damp=T
 DIIS: error= 2.78D-02 at cycle   2 NSaved=   2.
 NSaved= 2 IEnMin= 2 EnMin= -925.209564543688     IErMin= 2 ErrMin= 2.78D-02
 ErrMax= 2.78D-02  0.00D+00 EMaxC= 1.00D-01 BMatC= 4.32D-01 BMatP= 1.90D+00
 IDIUse=3 WtCom= 7.22D-01 WtEn= 2.78D-01
 Coeff-Com: -0.883D+00 0.188D+01
 Coeff-En:   0.000D+00 0.100D+01
 Coeff:     -0.637D+00 0.164D+01
 Gap=     0.311 Goal=   None    Shift=    0.000
 RMSDP=2.67D-02 MaxDP=3.13D+00 DE=-9.90D-02 OVMax= 3.28D-02

 Cycle   3  Pass 1  IDiag  1:
 RMSU=  4.49D-03    CP:  5.55D-01  1.29D+00
 E= -925.299397873377     Delta-E=       -0.089833329689 Rises=F Damp=F
 DIIS: error= 2.83D-03 at cycle   3 NSaved=   3.
 NSaved= 3 IEnMin= 3 EnMin= -925.299397873377     IErMin= 3 ErrMin= 2.83D-03
 ErrMax= 2.83D-03  0.00D+00 EMaxC= 1.00D-01 BMatC= 7.62D-03 BMatP= 4.32D-01
 IDIUse=3 WtCom= 9.72D-01 WtEn= 2.83D-02
 Coeff-Com: -0.353D+00 0.750D+00 0.603D+00
 Coeff-En:   0.000D+00 0.000D+00 0.100D+01
 Coeff:     -0.343D+00 0.729D+00 0.614D+00
 Gap=     0.310 Goal=   None    Shift=    0.000
 RMSDP=2.03D-03 MaxDP=2.09D-01 DE=-8.98D-02 OVMax= 1.85D-02

 Cycle   4  Pass 1  IDiag  1:
 RMSU=  1.47D-03    CP:  5.51D-01  1.41D+00  7.61D-01
 E= -925.306329207808     Delta-E=       -0.006931334432 Rises=F Damp=F
 DIIS: error= 8.32D-04 at cycle   4 NSaved=   4.
 NSaved= 4 IEnMin= 4 EnMin= -925.306329207808     IErMin= 4 ErrMin= 8.32D-04
 ErrMax= 8.32D-04  0.00D+00 EMaxC= 1.00D-01 BMatC= 2.70D-04 BMatP= 7.62D-03
 IDIUse=3 WtCom= 9.92D-01 WtEn= 8.32D-03
 Coeff-Com: -0.108D+00 0.230D+00 0.242D+00 0.636D+00
 Coeff-En:   0.000D+00 0.000D+00 0.000D+00 0.100D+01
 Coeff:     -0.107D+00 0.228D+00 0.240D+00 0.639D+00
 Gap=     0.309 Goal=   None    Shift=    0.000
 RMSDP=7.20D-04 MaxDP=6.37D-02 DE=-6.93D-03 OVMax= 4.24D-03

 Cycle   5  Pass 1  IDiag  1:
 RMSU=  3.85D-04    CP:  5.48D-01  1.47D+00  7.54D-01  7.64D-01
 E= -925.306614934431     Delta-E=       -0.000285726623 Rises=F Damp=F
 DIIS: error= 2.13D-04 at cycle   5 NSaved=   5.
 NSaved= 5 IEnMin= 5 EnMin= -925.306614934431     IErMin= 5 ErrMin= 2.13D-04
 ErrMax= 2.13D-04  0.00D+00 EMaxC= 1.00D-01 BMatC= 2.04D-05 BMatP= 2.70D-04
 IDIUse=3 WtCom= 9.98D-01 WtEn= 2.13D-03
 Coeff-Com:  0.257D-01-0.550D-01-0.289D-01 0.193D+00 0.865D+00
 Coeff-En:   0.000D+00 0.000D+00 0.000D+00 0.000D+00 0.100D+01
 Coeff:      0.257D-01-0.548D-01-0.288D-01 0.193D+00 0.865D+00
 Gap=     0.309 Goal=   None    Shift=    0.000
 RMSDP=2.05D-04 MaxDP=1.53D-02 DE=-2.86D-04 OVMax= 1.63D-03

 Cycle   6  Pass 1  IDiag  1:
 RMSU=  7.13D-05    CP:  5.46D-01  1.46D+00  7.75D-01  8.31D-01  1.15D+00
 E= -925.306641628237     Delta-E=       -0.000026693806 Rises=F Damp=F
 DIIS: error= 5.96D-05 at cycle   6 NSaved=   6.
 NSaved= 6 IEnMin= 6 EnMin= -925.306641628237     IErMin= 6 ErrMin= 5.96D-05
 ErrMax= 5.96D-05  0.00D+00 EMaxC= 1.00D-01 BMatC= 1.38D-06 BMatP= 2.04D-05
 IDIUse=1 WtCom= 1.00D+00 WtEn= 0.00D+00
 Coeff-Com:  0.129D-01-0.275D-01-0.177D-01 0.534D-01 0.331D+00 0.648D+00
 Coeff:      0.129D-01-0.275D-01-0.177D-01 0.534D-01 0.331D+00 0.648D+00
 Gap=     0.309 Goal=   None    Shift=    0.000
 RMSDP=6.93D-05 MaxDP=7.12D-03 DE=-2.67D-05 OVMax= 3.99D-04

 Cycle   7  Pass 1  IDiag  1:
 RMSU=  4.49D-05    CP:  5.47D-01  1.46D+00  7.78D-01  8.60D-01  1.13D+00
                    CP:  9.89D-01
 E= -925.306643335439     Delta-E=       -0.000001707202 Rises=F Damp=F
 DIIS: error= 1.90D-05 at cycle   7 NSaved=   7.
 NSaved= 7 IEnMin= 7 EnMin= -925.306643335439     IErMin= 7 ErrMin= 1.90D-05
 ErrMax= 1.90D-05  0.00D+00 EMaxC= 1.00D-01 BMatC= 1.06D-07 BMatP= 1.38D-06
 IDIUse=1 WtCom= 1.00D+00 WtEn= 0.00D+00
 Coeff-Com: -0.233D-02 0.501D-02 0.237D-02-0.280D-01-0.103D+00 0.109D+00
 Coeff-Com:  0.102D+01
 Coeff:     -0.233D-02 0.501D-02 0.237D-02-0.280D-01-0.103D+00 0.109D+00
 Coeff:      0.102D+01
 Gap=     0.309 Goal=   None    Shift=    0.000
 RMSDP=2.04D-05 MaxDP=1.66D-03 DE=-1.71D-06 OVMax= 2.77D-04

 Cycle   8  Pass 1  IDiag  1:
 RMSU=  5.26D-06    CP:  5.47D-01  1.46D+00  7.80D-01  8.61D-01  1.16D+00
                    CP:  1.13D+00  1.14D+00
 E= -925.306643578718     Delta-E=       -0.000000243280 Rises=F Damp=F
 DIIS: error= 7.52D-06 at cycle   8 NSaved=   8.
 NSaved= 8 IEnMin= 8 EnMin= -925.306643578718     IErMin= 8 ErrMin= 7.52D-06
 ErrMax= 7.52D-06  0.00D+00 EMaxC= 1.00D-01 BMatC= 7.68D-09 BMatP= 1.06D-07
 IDIUse=1 WtCom= 1.00D+00 WtEn= 0.00D+00
 Coeff-Com: -0.119D-02 0.255D-02 0.140D-02-0.115D-01-0.443D-01 0.213D-01
 Coeff-Com:  0.315D+00 0.716D+00
 Coeff:     -0.119D-02 0.255D-02 0.140D-02-0.115D-01-0.443D-01 0.213D-01
 Coeff:      0.315D+00 0.716D+00
 Gap=     0.309 Goal=   None    Shift=    0.000
 RMSDP=3.70D-06 MaxDP=4.70D-04 DE=-2.43D-07 OVMax= 5.90D-05

 Cycle   9  Pass 1  IDiag  1:
 RMSU=  1.65D-06    CP:  5.47D-01  1.46D+00  7.80D-01  8.60D-01  1.16D+00
                    CP:  1.14D+00  1.19D+00  1.15D+00
 E= -925.306643589884     Delta-E=       -0.000000011166 Rises=F Damp=F
 DIIS: error= 4.63D-06 at cycle   9 NSaved=   9.
 NSaved= 9 IEnMin= 9 EnMin= -925.306643589884     IErMin= 9 ErrMin= 4.63D-06
 ErrMax= 4.63D-06  0.00D+00 EMaxC= 1.00D-01 BMatC= 2.11D-09 BMatP= 7.68D-09
 IDIUse=1 WtCom= 1.00D+00 WtEn= 0.00D+00
 Coeff-Com:  0.984D-04-0.215D-03 0.376D-04 0.261D-02 0.940D-02-0.174D-01
 Coeff-Com: -0.155D+00 0.322D+00 0.839D+00
 Coeff:      0.984D-04-0.215D-03 0.376D-04 0.261D-02 0.940D-02-0.174D-01
 Coeff:     -0.155D+00 0.322D+00 0.839D+00
 Gap=     0.309 Goal=   None    Shift=    0.000
 RMSDP=1.53D-06 MaxDP=9.01D-05 DE=-1.12D-08 OVMax= 4.29D-05

 Cycle  10  Pass 1  IDiag  1:
 RMSU=  6.52D-07    CP:  5.47D-01  1.46D+00  7.80D-01  8.60D-01  1.16D+00
                    CP:  1.14D+00  1.20D+00  1.33D+00  7.88D-01
 E= -925.306643593985     Delta-E=       -0.000000004101 Rises=F Damp=F
 DIIS: error= 1.24D-06 at cycle  10 NSaved=  10.
 NSaved=10 IEnMin=10 EnMin= -925.306643593985     IErMin=10 ErrMin= 1.24D-06
 ErrMax= 1.24D-06  0.00D+00 EMaxC= 1.00D-01 BMatC= 2.11D-10 BMatP= 2.11D-09
 IDIUse=1 WtCom= 1.00D+00 WtEn= 0.00D+00
 Coeff-Com:  0.117D-03-0.253D-03-0.704D-04 0.174D-02 0.628D-02-0.638D-02
 Coeff-Com: -0.763D-01 0.440D-01 0.323D+00 0.708D+00
 Coeff:      0.117D-03-0.253D-03-0.704D-04 0.174D-02 0.628D-02-0.638D-02
 Coeff:     -0.763D-01 0.440D-01 0.323D+00 0.708D+00
 Gap=     0.309 Goal=   None    Shift=    0.000
 RMSDP=3.67D-07 MaxDP=3.00D-05 DE=-4.10D-09 OVMax= 1.07D-05

 Cycle  11  Pass 1  IDiag  1:
 RMSU=  1.34D-07    CP:  5.47D-01  1.46D+00  7.80D-01  8.60D-01  1.16D+00
                    CP:  1.14D+00  1.20D+00  1.36D+00  9.12D-01  1.07D+00
 E= -925.306643594323     Delta-E=       -0.000000000338 Rises=F Damp=F
 DIIS: error= 2.02D-07 at cycle  11 NSaved=  11.
 NSaved=11 IEnMin=11 EnMin= -925.306643594323     IErMin=11 ErrMin= 2.02D-07
 ErrMax= 2.02D-07  0.00D+00 EMaxC= 1.00D-01 BMatC= 3.07D-11 BMatP= 2.11D-10
 IDIUse=1 WtCom= 1.00D+00 WtEn= 0.00D+00
 Coeff-Com:  0.206D-04-0.437D-04-0.203D-04 0.120D-03 0.264D-03 0.116D-02
 Coeff-Com:  0.137D-02-0.504D-01-0.303D-01 0.244D+00 0.834D+00
 Coeff:      0.206D-04-0.437D-04-0.203D-04 0.120D-03 0.264D-03 0.116D-02
 Coeff:      0.137D-02-0.504D-01-0.303D-01 0.244D+00 0.834D+00
 Gap=     0.309 Goal=   None    Shift=    0.000
 RMSDP=2.60D-07 MaxDP=2.19D-05 DE=-3.38D-10 OVMax= 3.35D-06

 Cycle  12  Pass 1  IDiag  1:
 RMSU=  6.04D-08    CP:  5.47D-01  1.46D+00  7.80D-01  8.60D-01  1.16D+00
                    CP:  1.14D+00  1.20D+00  1.37D+00  9.12D-01  1.24D+00
                    CP:  1.27D+00
 E= -925.306643594379     Delta-E=       -0.000000000056 Rises=F Damp=F
 DIIS: error= 1.11D-07 at cycle  12 NSaved=  12.
 NSaved=12 IEnMin=12 EnMin= -925.306643594379     IErMin=12 ErrMin= 1.11D-07
 ErrMax= 1.11D-07  0.00D+00 EMaxC= 1.00D-01 BMatC= 1.42D-12 BMatP= 3.07D-11
 IDIUse=1 WtCom= 1.00D+00 WtEn= 0.00D+00
 Coeff-Com: -0.141D-04 0.305D-04 0.126D-04-0.220D-03-0.816D-03 0.100D-02
 Coeff-Com:  0.944D-02-0.769D-02-0.303D-01-0.630D-01-0.110D+00 0.120D+01
 Coeff:     -0.141D-04 0.305D-04 0.126D-04-0.220D-03-0.816D-03 0.100D-02
 Coeff:      0.944D-02-0.769D-02-0.303D-01-0.630D-01-0.110D+00 0.120D+01
 Gap=     0.309 Goal=   None    Shift=    0.000
 RMSDP=8.22D-08 MaxDP=5.42D-06 DE=-5.59D-11 OVMax= 1.69D-06

 Cycle  13  Pass 1  IDiag  1:
 RMSU=  2.61D-08    CP:  5.47D-01  1.46D+00  7.80D-01  8.60D-01  1.16D+00
                    CP:  1.14D+00  1.20D+00  1.37D+00  9.12D-01  1.30D+00
                    CP:  1.36D+00  1.42D+00
 E= -925.306643594401     Delta-E=       -0.000000000022 Rises=F Damp=F
 DIIS: error= 3.03D-08 at cycle  13 NSaved=  13.
 NSaved=13 IEnMin=13 EnMin= -925.306643594401     IErMin=13 ErrMin= 3.03D-08
 ErrMax= 3.03D-08  0.00D+00 EMaxC= 1.00D-01 BMatC= 1.12D-13 BMatP= 1.42D-12
 IDIUse=1 WtCom= 1.00D+00 WtEn= 0.00D+00
 Coeff-Com: -0.241D-05 0.515D-05 0.269D-05-0.269D-04-0.871D-04 0.441D-04
 Coeff-Com:  0.736D-03 0.171D-02-0.160D-03-0.165D-01-0.783D-01 0.124D+00
 Coeff-Com:  0.969D+00
 Coeff:     -0.241D-05 0.515D-05 0.269D-05-0.269D-04-0.871D-04 0.441D-04
 Coeff:      0.736D-03 0.171D-02-0.160D-03-0.165D-01-0.783D-01 0.124D+00
 Coeff:      0.969D+00
 Gap=     0.309 Goal=   None    Shift=    0.000
 RMSDP=2.87D-08 MaxDP=2.61D-06 DE=-2.23D-11 OVMax= 4.28D-07

 Cycle  14  Pass 1  IDiag  1:
 RMSU=  6.38D-09    CP:  5.47D-01  1.46D+00  7.80D-01  8.60D-01  1.16D+00
                    CP:  1.14D+00  1.20D+00  1.37D+00  9.11D-01  1.30D+00
                    CP:  1.38D+00  1.54D+00  1.22D+00
 E= -925.306643594413     Delta-E=       -0.000000000011 Rises=F Damp=F
 DIIS: error= 6.41D-09 at cycle  14 NSaved=  14.
 NSaved=14 IEnMin=14 EnMin= -925.306643594413     IErMin=14 ErrMin= 6.41D-09
 ErrMax= 6.41D-09  0.00D+00 EMaxC= 1.00D-01 BMatC= 3.31D-14 BMatP= 1.12D-13
 IDIUse=1 WtCom= 1.00D+00 WtEn= 0.00D+00
 Coeff-Com:  0.773D-06-0.171D-05-0.504D-06 0.172D-04 0.698D-04-0.112D-03
 Coeff-Com: -0.916D-03 0.168D-02 0.404D-02 0.198D-02-0.210D-01-0.108D+00
 Coeff-Com:  0.420D+00 0.702D+00
 Coeff:      0.773D-06-0.171D-05-0.504D-06 0.172D-04 0.698D-04-0.112D-03
 Coeff:     -0.916D-03 0.168D-02 0.404D-02 0.198D-02-0.210D-01-0.108D+00
 Coeff:      0.420D+00 0.702D+00
 Gap=     0.309 Goal=   None    Shift=    0.000
 RMSDP=6.85D-09 MaxDP=6.08D-07 DE=-1.14D-11 OVMax= 1.02D-07

 SCF Done:  E(RwB97XD) =  -925.306643594     A.U. after   14 cycles
            NFock= 14  Conv=0.68D-08     -V/T= 2.0043
 KE= 9.213197156421D+02 PE=-5.615394081440D+03 EE= 2.034236547097D+03
 Leave Link  502 at Mon Nov 14 15:14:31 2022, MaxMem= 16106127360 cpu:            4568.7 elap:             143.1
 (Enter /opt/ap/G16/B01/g16/l601.exe)
 Copying SCF densities to generalized density rwf, IOpCl= 0 IROHF=0.

 **********************************************************************

            Population analysis using the SCF Density.

 **********************************************************************

 Orbital symmetries:
       Occupied  (A) (A) (A) (A) (A) (A) (A) (A) (A) (A) (A) (A)
                 (A) (A) (A) (A) (A) (A) (A) (A) (A) (A) (A) (A)
                 (A) (A) (A) (A) (A) (A) (A) (A) (A) (A) (A) (A)
                 (A) (A) (A) (A) (A) (A) (A) (A) (A) (A) (A) (A)
                 (A) (A) (A) (A) (A) (A) (A) (A) (A) (A) (A) (A)
                 (A) (A) (A) (A) (A) (A) (A) (A) (A) (A) (A) (A)
                 (A) (A) (A) (A) (A) (A) (A) (A) (A)
       Virtual   (A) (A) (A) (A) (A) (A) (A) (A) (A) (A) (A) (A)
                 (A) (A) (A) (A) (A) (A) (A) (A) (A) (A) (A) (A)
                 (A) (A) (A) (A) (A) (A) (A) (A) (A) (A) (A) (A)
                 (A) (A) (A) (A) (A) (A) (A) (A) (A) (A) (A) (A)
                 (A) (A) (A) (A) (A) (A) (A) (A) (A) (A) (A) (A)
                 (A) (A) (A) (A) (A) (A) (A) (A) (A) (A) (A) (A)
                 (A) (A) (A) (A) (A) (A) (A) (A) (A) (A) (A) (A)
                 (A) (A) (A) (A) (A) (A) (A) (A) (A) (A) (A) (A)
                 (A) (A) (A) (A) (A) (A) (A) (A) (A) (A) (A) (A)
                 (A) (A) (A) (A) (A) (A) (A) (A) (A) (A) (A) (A)
                 (A) (A) (A) (A) (A) (A) (A) (A) (A) (A) (A) (A)
                 (A) (A) (A) (A) (A) (A) (A) (A) (A) (A) (A) (A)
                 (A) (A) (A) (A) (A) (A) (A) (A) (A) (A) (A) (A)
                 (A) (A) (A) (A) (A) (A) (A) (A) (A) (A) (A) (A)
                 (A) (A) (A) (A) (A) (A) (A) (A) (A) (A) (A) (A)
                 (A) (A) (A) (A) (A) (A) (A) (A) (A) (A) (A) (A)
                 (A) (A) (A) (A) (A) (A) (A) (A) (A) (A) (A) (A)
                 (A) (A) (A) (A) (A) (A) (A) (A) (A) (A) (A) (A)
                 (A) (A) (A) (A) (A) (A) (A) (A) (A) (A) (A) (A)
                 (A) (A) (A) (A) (A) (A) (A) (A) (A) (A) (A) (A)
                 (A) (A) (A) (A) (A) (A) (A) (A) (A) (A) (A) (A)
                 (A) (A) (A) (A) (A) (A) (A) (A) (A) (A) (A) (A)
                 (A) (A) (A) (A) (A) (A) (A) (A) (A) (A) (A) (A)
                 (A) (A) (A) (A) (A) (A) (A) (A) (A) (A) (A) (A)
                 (A) (A) (A) (A) (A) (A) (A) (A) (A) (A) (A) (A)
                 (A) (A) (A) (A) (A) (A) (A) (A) (A) (A) (A) (A)
                 (A) (A) (A) (A) (A) (A) (A) (A) (A) (A) (A) (A)
                 (A) (A) (A) (A) (A) (A) (A) (A) (A) (A) (A) (A)
                 (A) (A) (A) (A) (A) (A) (A) (A) (A) (A) (A) (A)
                 (A) (A) (A) (A) (A) (A) (A) (A) (A) (A) (A) (A)
                 (A) (A) (A) (A) (A) (A) (A) (A) (A) (A) (A) (A)
                 (A) (A) (A) (A) (A) (A) (A) (A) (A) (A) (A) (A)
                 (A) (A) (A) (A) (A) (A) (A) (A) (A) (A) (A) (A)
                 (A) (A) (A) (A) (A) (A) (A) (A) (A) (A) (A) (A)
                 (A) (A) (A) (A) (A) (A) (A) (A) (A) (A) (A) (A)
                 (A) (A) (A) (A) (A) (A) (A) (A) (A) (A) (A) (A)
                 (A) (A) (A) (A) (A) (A) (A) (A) (A) (A) (A) (A)
                 (A) (A) (A) (A) (A) (A) (A) (A) (A) (A) (A) (A)
                 (A) (A) (A) (A) (A) (A) (A) (A) (A) (A) (A) (A)
                 (A) (A) (A) (A) (A) (A) (A) (A) (A) (A) (A) (A)
                 (A) (A) (A) (A) (A) (A) (A) (A) (A) (A) (A) (A)
                 (A) (A) (A) (A) (A) (A) (A) (A) (A) (A) (A) (A)
                 (A) (A) (A) (A) (A) (A) (A) (A) (A) (A) (A) (A)
                 (A) (A) (A) (A) (A) (A) (A) (A) (A) (A) (A) (A)
                 (A) (A) (A) (A) (A) (A) (A) (A) (A) (A) (A) (A)
                 (A) (A) (A) (A) (A) (A) (A) (A) (A) (A) (A) (A)
                 (A) (A) (A) (A) (A) (A) (A) (A) (A) (A) (A)
 The electronic state is 1-A.
 Alpha  occ. eigenvalues --  -10.30536 -10.30501 -10.30498 -10.30439 -10.30381
 Alpha  occ. eigenvalues --  -10.30377 -10.29320 -10.29312 -10.29303 -10.29301
 Alpha  occ. eigenvalues --  -10.29294 -10.29292 -10.29221 -10.29220 -10.29215
 Alpha  occ. eigenvalues --  -10.29210 -10.29194 -10.29192 -10.29158 -10.29155
 Alpha  occ. eigenvalues --  -10.29134 -10.29099 -10.29095 -10.29086  -0.99078
 Alpha  occ. eigenvalues --   -0.97135  -0.97111  -0.95307  -0.89535  -0.89507
 Alpha  occ. eigenvalues --   -0.85503  -0.85388  -0.85330  -0.85105  -0.82317
 Alpha  occ. eigenvalues --   -0.82245  -0.74008  -0.73659  -0.71194  -0.70888
 Alpha  occ. eigenvalues --   -0.70189  -0.69972  -0.66728  -0.66565  -0.63943
 Alpha  occ. eigenvalues --   -0.61039  -0.60757  -0.58631  -0.57492  -0.56960
 Alpha  occ. eigenvalues --   -0.54937  -0.54884  -0.54297  -0.54031  -0.52237
 Alpha  occ. eigenvalues --   -0.52024  -0.51711  -0.51609  -0.51185  -0.51049
 Alpha  occ. eigenvalues --   -0.50313  -0.48743  -0.46983  -0.46495  -0.46188
 Alpha  occ. eigenvalues --   -0.45503  -0.44859  -0.44405  -0.43204  -0.43181
 Alpha  occ. eigenvalues --   -0.42991  -0.41925  -0.41183  -0.37687  -0.36583
 Alpha  occ. eigenvalues --   -0.33721  -0.33685  -0.33676  -0.32977  -0.30316
 Alpha  occ. eigenvalues --   -0.29657
 Alpha virt. eigenvalues --    0.01249   0.01896   0.03694   0.04169   0.04196
 Alpha virt. eigenvalues --    0.04504   0.04875   0.04962   0.05010   0.05130
 Alpha virt. eigenvalues --    0.05298   0.05690   0.05949   0.06920   0.07079
 Alpha virt. eigenvalues --    0.07212   0.08171   0.08337   0.08452   0.08960
 Alpha virt. eigenvalues --    0.09112   0.09243   0.09824   0.10821   0.11182
 Alpha virt. eigenvalues --    0.11406   0.12220   0.12483   0.12892   0.13420
 Alpha virt. eigenvalues --    0.13970   0.14239   0.14533   0.14694   0.15331
 Alpha virt. eigenvalues --    0.15699   0.15781   0.15815   0.16205   0.16372
 Alpha virt. eigenvalues --    0.16501   0.16722   0.16870   0.16916   0.17260
 Alpha virt. eigenvalues --    0.17441   0.17716   0.18000   0.18144   0.18426
 Alpha virt. eigenvalues --    0.18457   0.18627   0.18944   0.19346   0.19477
 Alpha virt. eigenvalues --    0.19712   0.19834   0.19972   0.20361   0.20786
 Alpha virt. eigenvalues --    0.21053   0.21266   0.21433   0.21837   0.21958
 Alpha virt. eigenvalues --    0.22039   0.22647   0.22985   0.23203   0.23405
 Alpha virt. eigenvalues --    0.23559   0.23730   0.23996   0.24327   0.24851
 Alpha virt. eigenvalues --    0.24979   0.25170   0.25364   0.25581   0.25891
 Alpha virt. eigenvalues --    0.26081   0.26396   0.26617   0.26823   0.27026
 Alpha virt. eigenvalues --    0.27470   0.27848   0.27924   0.28222   0.28671
 Alpha virt. eigenvalues --    0.28797   0.29319   0.29421   0.29681   0.29929
 Alpha virt. eigenvalues --    0.30005   0.30373   0.30710   0.30964   0.31418
 Alpha virt. eigenvalues --    0.31640   0.32047   0.32433   0.32573   0.32948
 Alpha virt. eigenvalues --    0.33251   0.33558   0.33997   0.34193   0.34588
 Alpha virt. eigenvalues --    0.34695   0.34914   0.35466   0.35698   0.36039
 Alpha virt. eigenvalues --    0.36352   0.36546   0.36720   0.37057   0.37211
 Alpha virt. eigenvalues --    0.37908   0.38025   0.38259   0.38271   0.38728
 Alpha virt. eigenvalues --    0.39069   0.39272   0.40174   0.40376   0.40591
 Alpha virt. eigenvalues --    0.40990   0.41038   0.41295   0.41574   0.42172
 Alpha virt. eigenvalues --    0.42786   0.43208   0.43395   0.43578   0.44483
 Alpha virt. eigenvalues --    0.44671   0.44935   0.45016   0.45376   0.45811
 Alpha virt. eigenvalues --    0.46978   0.48116   0.48861   0.49440   0.50946
 Alpha virt. eigenvalues --    0.51127   0.53312   0.54674   0.57513   0.57941
 Alpha virt. eigenvalues --    0.59151   0.59669   0.60427   0.61000   0.61688
 Alpha virt. eigenvalues --    0.62156   0.62231   0.62759   0.63037   0.63214
 Alpha virt. eigenvalues --    0.63317   0.63494   0.63901   0.64197   0.64258
 Alpha virt. eigenvalues --    0.64844   0.65101   0.65219   0.65876   0.66025
 Alpha virt. eigenvalues --    0.66726   0.66899   0.67266   0.68554   0.68775
 Alpha virt. eigenvalues --    0.69086   0.69690   0.69946   0.70072   0.70801
 Alpha virt. eigenvalues --    0.71487   0.71617   0.72473   0.72740   0.72839
 Alpha virt. eigenvalues --    0.73244   0.74051   0.74074   0.74672   0.75014
 Alpha virt. eigenvalues --    0.75882   0.76197   0.76598   0.77065   0.78107
 Alpha virt. eigenvalues --    0.78475   0.79022   0.79153   0.80105   0.80499
 Alpha virt. eigenvalues --    0.80944   0.81200   0.81485   0.81854   0.82014
 Alpha virt. eigenvalues --    0.82426   0.82922   0.83767   0.84387   0.84991
 Alpha virt. eigenvalues --    0.85054   0.85575   0.85796   0.86356   0.86570
 Alpha virt. eigenvalues --    0.87432   0.87931   0.88543   0.89019   0.90188
 Alpha virt. eigenvalues --    0.91407   0.91570   0.92172   0.92805   0.92994
 Alpha virt. eigenvalues --    0.93303   0.93717   0.93808   0.94412   0.94799
 Alpha virt. eigenvalues --    0.94847   0.95447   0.96133   0.97065   0.97331
 Alpha virt. eigenvalues --    0.98231   0.98598   0.99922   1.00135   1.01108
 Alpha virt. eigenvalues --    1.01385   1.01807   1.02203   1.02678   1.02851
 Alpha virt. eigenvalues --    1.03720   1.04030   1.04792   1.05776   1.06284
 Alpha virt. eigenvalues --    1.06668   1.06985   1.07510   1.08189   1.08677
 Alpha virt. eigenvalues --    1.09421   1.09769   1.11561   1.12139   1.12234
 Alpha virt. eigenvalues --    1.12962   1.13518   1.13796   1.14562   1.14754
 Alpha virt. eigenvalues --    1.16406   1.17131   1.17192   1.17386   1.18030
 Alpha virt. eigenvalues --    1.18241   1.19218   1.19877   1.21079   1.21662
 Alpha virt. eigenvalues --    1.22451   1.22634   1.23621   1.24149   1.25158
 Alpha virt. eigenvalues --    1.25410   1.25629   1.27994   1.30712   1.32255
 Alpha virt. eigenvalues --    1.38586   1.40971   1.41578   1.42091   1.45712
 Alpha virt. eigenvalues --    1.46827   1.47258   1.52717   1.55134   1.56333
 Alpha virt. eigenvalues --    1.57598   1.58237   1.58533   1.58657   1.59121
 Alpha virt. eigenvalues --    1.59359   1.60149   1.61009   1.61768   1.62092
 Alpha virt. eigenvalues --    1.62555   1.62751   1.63438   1.63802   1.64535
 Alpha virt. eigenvalues --    1.65310   1.65473   1.65608   1.65918   1.66453
 Alpha virt. eigenvalues --    1.66636   1.67631   1.68477   1.69382   1.69911
 Alpha virt. eigenvalues --    1.72233   1.72935   1.73384   1.73864   1.74167
 Alpha virt. eigenvalues --    1.74619   1.75772   1.75955   1.76354   1.77351
 Alpha virt. eigenvalues --    1.78029   1.80897   1.81632   1.81932   1.82779
 Alpha virt. eigenvalues --    1.82974   1.83604   1.85071   1.85356   1.85673
 Alpha virt. eigenvalues --    1.86332   1.86619   1.86851   1.87366   1.90070
 Alpha virt. eigenvalues --    1.91459   1.92651   1.92945   1.93523   1.94382
 Alpha virt. eigenvalues --    1.95057   1.96561   1.97883   2.00106   2.01021
 Alpha virt. eigenvalues --    2.01263   2.02200   2.02511   2.02693   2.03141
 Alpha virt. eigenvalues --    2.03986   2.04049   2.04377   2.04453   2.04705
 Alpha virt. eigenvalues --    2.05168   2.05250   2.05466   2.05632   2.07115
 Alpha virt. eigenvalues --    2.07364   2.08200   2.08420   2.08884   2.09399
 Alpha virt. eigenvalues --    2.11334   2.12602   2.12787   2.13376   2.14144
 Alpha virt. eigenvalues --    2.14562   2.16680   2.16722   2.17180   2.18270
 Alpha virt. eigenvalues --    2.19699   2.20080   2.20330   2.23788   2.25078
 Alpha virt. eigenvalues --    2.28542   2.30987   2.34544   2.35762   2.36543
 Alpha virt. eigenvalues --    2.36855   2.39789   2.40759   2.42859   2.43481
 Alpha virt. eigenvalues --    2.44459   2.44724   2.48904   2.48987   2.50991
 Alpha virt. eigenvalues --    2.52400   2.53010   2.53940   2.54338   2.55250
 Alpha virt. eigenvalues --    2.56182   2.56329   2.57441   2.57654   2.58410
 Alpha virt. eigenvalues --    2.59148   2.60218   2.62615   2.62716   2.70975
 Alpha virt. eigenvalues --    2.73076   2.73156   2.73292   2.75886   2.76113
 Alpha virt. eigenvalues --    2.77061   2.78670   2.79238   2.79417   2.79897
 Alpha virt. eigenvalues --    2.80051   2.80408   2.81004   2.81086   2.81477
 Alpha virt. eigenvalues --    2.82038   2.82437   2.83219   2.83434   2.83837
 Alpha virt. eigenvalues --    2.84351   2.85352   2.85619   2.86467   2.87310
 Alpha virt. eigenvalues --    2.87547   2.88236   2.89598   2.90430   2.90519
 Alpha virt. eigenvalues --    2.91482   2.92502   2.92882   2.93841   2.93974
 Alpha virt. eigenvalues --    2.94242   2.95046   2.96570   2.96885   2.99566
 Alpha virt. eigenvalues --    2.99647   3.00328   3.01425   3.02973   3.04283
 Alpha virt. eigenvalues --    3.04578   3.04883   3.05013   3.05280   3.05887
 Alpha virt. eigenvalues --    3.07103   3.07227   3.11542   3.12948   3.14940
 Alpha virt. eigenvalues --    3.15581   3.17840   3.19830   3.20444   3.21564
 Alpha virt. eigenvalues --    3.24739   3.26221   3.31803   3.32339   3.33219
 Alpha virt. eigenvalues --    3.33601   3.35295   3.35751   3.39086   3.47073
 Alpha virt. eigenvalues --    3.47661   3.49225   3.49365   3.49654   3.49875
 Alpha virt. eigenvalues --    3.53808   3.55018   3.60777   3.61035   3.62926
 Alpha virt. eigenvalues --    3.63624   3.65207   3.65901   3.66478   3.73558
 Alpha virt. eigenvalues --    3.73743   3.75640   3.76835   3.76940   3.78309
 Alpha virt. eigenvalues --    3.88624   3.91587   3.92888   4.09835   4.10195
 Alpha virt. eigenvalues --    4.11056   4.14564   4.14591   4.14654   4.23581
 Alpha virt. eigenvalues --    4.24112   4.26262   4.26332   4.26949   4.27026
 Alpha virt. eigenvalues --    4.28894   4.33510   4.52602   4.66909   4.73980
 Alpha virt. eigenvalues --    4.93214   4.95409   4.95502   5.00430  23.67418
 Alpha virt. eigenvalues --   23.79912  23.81953  23.88184  24.08681  24.09000
 Alpha virt. eigenvalues --   24.10274  24.10645  24.10945  24.11780  24.12098
 Alpha virt. eigenvalues --   24.13155  24.20646  24.20688  24.21445  24.23278
 Alpha virt. eigenvalues --   24.24188  24.24272  24.24424  24.25184  24.31314
 Alpha virt. eigenvalues --   24.33783  24.33850  24.34582
          Condensed to atoms (all electrons):
               1          2          3          4          5          6
     1  C   13.353539  -0.650569  -0.963901  -5.847211  -0.089304   4.511299
     2  C   -0.650569  12.100677  -0.556284   2.662222   0.253369  -2.236927
     3  C   -0.963901  -0.556284  11.308535  -1.809666  -0.000037  -1.490053
     4  C   -5.847211   2.662222  -1.809666  24.119909   0.087405  -3.390407
     5  H   -0.089304   0.253369  -0.000037   0.087405   0.992670  -0.092589
     6  C    4.511299  -2.236927  -1.490053  -3.390407  -0.092589  12.827799
     7  C   -2.444056  -0.105944   2.092921  -9.601905   0.049359  -1.785729
     8  H   -0.029253   0.114124   0.328781   0.088090   0.011102  -0.054275
     9  C   -2.726213  -0.284702   0.321019  -0.161866   0.016747  -1.051076
    10  C    0.773517  -1.043593  -0.909535   1.302774   0.289873   0.349430
    11  C   -0.025997   3.097719  -3.430225   0.668188   0.001640  -0.406979
    12  C   -1.621472  -5.285077   3.946107  -1.850870  -0.062202  -1.119984
    13  C    1.630627  -0.563193  -1.007116  -0.781948   0.012791   0.766428
    14  H    0.039125  -0.022793   0.000485  -0.047368  -0.003565  -0.003199
    15  C    0.916882   1.705884  -0.191055   0.194883  -0.337068   0.055165
    16  C   -0.944495  -1.518377   0.151035  -0.662875   0.235546  -0.048625
    17  C   -0.997989  -0.749015  -0.511181  -0.083551  -0.021586  -1.554026
    18  H   -0.018639  -0.016202  -0.000466  -0.071430  -0.153772   0.012501
    19  C   -0.114022   0.044257  -0.599951   0.274402   0.000819  -0.779343
    20  H   -0.070239  -0.136122   0.097667  -0.090809  -0.008972  -0.019747
    21  C   -0.216456  -0.271834  -0.440009   0.327953  -0.019979  -0.220490
    22  C    0.190396   0.189585   0.140649   0.596991   0.010849   0.196438
    23  C    0.248425   0.371520   0.045737  -0.409063  -0.122017   0.086328
    24  H   -0.013863   0.015045  -0.017187   0.039852  -0.015870  -0.011448
    25  C   -0.152712  -0.059628   0.012231  -0.120158   0.001123  -0.060643
    26  H    0.004053   0.025296  -0.008514   0.205852  -0.007547   0.006910
    27  C   -0.402168  -0.165239   0.220512  -0.097201  -0.006208  -0.278972
    28  H    0.003511  -0.007120  -0.006408   0.000216   0.011057   0.011322
    29  H    0.017421   0.006141  -0.012814   0.005433   0.001568   0.034092
    30  C    0.230459  -0.018023   0.543460  -0.513237  -0.008319   0.045103
    31  H   -0.016639   0.004349  -0.047206   0.060319   0.001312  -0.006472
    32  C   -0.283864  -0.014278  -0.128908   0.367908   0.002647  -0.078254
    33  H    0.027367  -0.011419   0.022229  -0.146013   0.001111   0.012682
    34  C   -0.035253  -0.021743  -0.011022  -0.015260   0.004336  -0.001996
    35  H    0.004053   0.000001   0.000547  -0.008615  -0.001599   0.002257
    36  H    0.000582  -0.004644   0.000262  -0.013782   0.001054  -0.000023
    37  H   -0.000501  -0.001086   0.003544  -0.000940  -0.002477   0.028715
    38  C    0.026510  -0.000836  -0.004897   0.096212   0.000911   0.018563
    39  H    0.001545  -0.001473   0.004637  -0.002927  -0.000127  -0.000035
    40  H   -0.002835  -0.000006  -0.005777   0.007400  -0.000051  -0.000775
    41  H    0.001602   0.001719  -0.000362  -0.002991  -0.000635   0.000456
    42  H    0.002407  -0.000144   0.000623   0.001273   0.000024   0.000781
               7          8          9         10         11         12
     1  C   -2.444056  -0.029253  -2.726213   0.773517  -0.025997  -1.621472
     2  C   -0.105944   0.114124  -0.284702  -1.043593   3.097719  -5.285077
     3  C    2.092921   0.328781   0.321019  -0.909535  -3.430225   3.946107
     4  C   -9.601905   0.088090  -0.161866   1.302774   0.668188  -1.850870
     5  H    0.049359   0.011102   0.016747   0.289873   0.001640  -0.062202
     6  C   -1.785729  -0.054275  -1.051076   0.349430  -0.406979  -1.119984
     7  C   19.483771  -0.062106   2.079973  -1.994015  -0.297433   0.247869
     8  H   -0.062106   0.644890   0.065875  -0.013279   0.030037  -0.104658
     9  C    2.079973   0.065875  13.708505  -3.024101   0.148433   0.304128
    10  C   -1.994015  -0.013279  -3.024101  14.211581  -0.396327   0.060313
    11  C   -0.297433   0.030037   0.148433  -0.396327  13.901695  -7.395447
    12  C    0.247869  -0.104658   0.304128   0.060313  -7.395447  19.694818
    13  C   -1.036015   0.038526  -2.586546   0.910225   0.304686  -0.551069
    14  H   -0.022902  -0.000416   0.313419   0.029704  -0.004467   0.007656
    15  C   -0.850859  -0.024344  -1.285023  -1.265100   0.136362   0.000419
    16  C    0.804846   0.015541   0.794632  -0.719792  -0.200595  -0.003024
    17  C   -0.200026  -0.042943   0.080883  -0.055667  -0.545565   2.114484
    18  H   -0.017465  -0.005376   0.014776  -0.098851   0.452603   0.073040
    19  C    0.385756   0.009277  -0.076747   0.090100   1.446731  -3.064564
    20  H   -0.051410  -0.028273  -0.002620  -0.006628  -0.043671   0.789513
    21  C   -0.520846  -0.147479  -0.395034   0.246921  -0.109432   0.170620
    22  C   -1.391142   0.113919   0.465347  -0.272153   0.090964  -0.233949
    23  C    0.031060  -0.001967   0.300895  -1.838598  -0.040889   0.022073
    24  H   -0.013146  -0.001107  -0.049903  -0.039700   0.012002  -0.007218
    25  C    0.554283   0.002140   0.732250  -1.554364   0.077457  -0.020475
    26  H   -0.193041   0.000672  -0.116903   0.025826  -0.013401   0.006057
    27  C   -0.011601   0.001085   0.022949  -0.023096  -1.108498   0.730996
    28  H   -0.000213   0.000091  -0.000191   0.002814  -0.081917   0.023980
    29  H    0.003784   0.002437  -0.000200   0.000756   0.035422  -0.147157
    30  C    0.506238  -0.064684   0.017080  -0.058802   0.016963   0.056390
    31  H   -0.015526   0.003617  -0.012638   0.014335  -0.004563  -0.022116
    32  C    0.134913   0.015516   0.458334  -0.096675  -0.029001   0.072107
    33  H    0.129699  -0.005040  -0.087147  -0.005438   0.008685  -0.013054
    34  C   -0.115010  -0.000068  -0.283495  -0.248665  -0.020676   0.000162
    35  H    0.004713   0.000002   0.010082   0.021037  -0.000743   0.000597
    36  H    0.015577  -0.000039   0.022497   0.015250   0.000804  -0.000092
    37  H    0.000125  -0.000338   0.000294  -0.000529  -0.002461  -0.011589
    38  C   -0.457027  -0.010195  -0.050856   0.033673   0.005025  -0.029296
    39  H    0.003850  -0.000095  -0.000106  -0.000832   0.000020   0.002124
    40  H    0.000265   0.000735   0.014154  -0.003070  -0.000270   0.000735
    41  H   -0.002331  -0.000003  -0.011295   0.023884  -0.000352   0.000057
    42  H   -0.009421  -0.000457  -0.005770   0.001021   0.000114  -0.000556
              13         14         15         16         17         18
     1  C    1.630627   0.039125   0.916882  -0.944495  -0.997989  -0.018639
     2  C   -0.563193  -0.022793   1.705884  -1.518377  -0.749015  -0.016202
     3  C   -1.007116   0.000485  -0.191055   0.151035  -0.511181  -0.000466
     4  C   -0.781948  -0.047368   0.194883  -0.662875  -0.083551  -0.071430
     5  H    0.012791  -0.003565  -0.337068   0.235546  -0.021586  -0.153772
     6  C    0.766428  -0.003199   0.055165  -0.048625  -1.554026   0.012501
     7  C   -1.036015  -0.022902  -0.850859   0.804846  -0.200026  -0.017465
     8  H    0.038526  -0.000416  -0.024344   0.015541  -0.042943  -0.005376
     9  C   -2.586546   0.313419  -1.285023   0.794632   0.080883   0.014776
    10  C    0.910225   0.029704  -1.265100  -0.719792  -0.055667  -0.098851
    11  C    0.304686  -0.004467   0.136362  -0.200595  -0.545565   0.452603
    12  C   -0.551069   0.007656   0.000419  -0.003024   2.114484   0.073040
    13  C   12.167945   0.070441   0.061862  -0.034825   0.016634  -0.003948
    14  H    0.070441   0.490063   0.043863  -0.037513  -0.000296   0.000350
    15  C    0.061862   0.043863  14.960241  -8.499567  -0.064458   0.067243
    16  C   -0.034825  -0.037513  -8.499567  19.021271   0.007374  -0.037744
    17  C    0.016634  -0.000296  -0.064458   0.007374   9.614090  -0.011708
    18  H   -0.003948   0.000350   0.067243  -0.037744  -0.011708   0.636772
    19  C    0.067304  -0.000956   0.018485  -0.006357  -1.695746  -0.001341
    20  H   -0.042559  -0.000560   0.002197  -0.001005   0.123436   0.006401
    21  C   -0.673542   0.042090   0.228418  -0.215603   0.025895  -0.000673
    22  C   -1.435272  -0.067380  -0.255898   0.338808  -0.015914   0.001542
    23  C   -0.034667   0.010054   0.315086  -0.492769  -0.012709   0.020352
    24  H    0.007958  -0.001576   0.521565  -0.061708   0.002756   0.002376
    25  C   -0.156411  -0.025482   0.661565  -2.215233   0.007990   0.002983
    26  H   -0.008439   0.001416  -0.043625   0.515205  -0.001548   0.000510
    27  C   -0.015551   0.000455   0.004251  -0.004944   0.998679   0.017685
    28  H    0.000134  -0.000024  -0.002762   0.000884   0.420376  -0.024758
    29  H    0.003016  -0.000012  -0.000149   0.000072  -0.020768  -0.002918
    30  C   -0.795554   0.011557   0.006308  -0.005089   0.009457   0.001549
    31  H   -0.044055  -0.000765   0.004379  -0.003305  -0.003440  -0.000747
    32  C   -1.002612  -0.032671  -0.013278   0.032105  -0.001102  -0.000304
    33  H   -0.005986  -0.001766  -0.004929   0.014205   0.000578  -0.000038
    34  C    0.040840   0.003315  -0.649367   0.414629  -0.002924  -0.000773
    35  H   -0.000983   0.000163  -0.086450   0.012382  -0.000207   0.000245
    36  H   -0.003208  -0.001218   0.016089  -0.102993   0.000041  -0.000080
    37  H   -0.000376   0.000004   0.000101  -0.000046  -0.060328   0.005928
    38  C   -0.526398   0.005779   0.005247  -0.013212  -0.000667  -0.000137
    39  H    0.034450  -0.000014  -0.000196   0.000401   0.000160   0.000031
    40  H    0.039629  -0.001283  -0.000518   0.002345   0.000022   0.000001
    41  H    0.001121   0.000364   0.006068   0.000294  -0.000024   0.000028
    42  H    0.013004   0.000430   0.000178  -0.000568  -0.000007  -0.000004
              19         20         21         22         23         24
     1  C   -0.114022  -0.070239  -0.216456   0.190396   0.248425  -0.013863
     2  C    0.044257  -0.136122  -0.271834   0.189585   0.371520   0.015045
     3  C   -0.599951   0.097667  -0.440009   0.140649   0.045737  -0.017187
     4  C    0.274402  -0.090809   0.327953   0.596991  -0.409063   0.039852
     5  H    0.000819  -0.008972  -0.019979   0.010849  -0.122017  -0.015870
     6  C   -0.779343  -0.019747  -0.220490   0.196438   0.086328  -0.011448
     7  C    0.385756  -0.051410  -0.520846  -1.391142   0.031060  -0.013146
     8  H    0.009277  -0.028273  -0.147479   0.113919  -0.001967  -0.001107
     9  C   -0.076747  -0.002620  -0.395034   0.465347   0.300895  -0.049903
    10  C    0.090100  -0.006628   0.246921  -0.272153  -1.838598  -0.039700
    11  C    1.446731  -0.043671  -0.109432   0.090964  -0.040889   0.012002
    12  C   -3.064564   0.789513   0.170620  -0.233949   0.022073  -0.007218
    13  C    0.067304  -0.042559  -0.673542  -1.435272  -0.034667   0.007958
    14  H   -0.000956  -0.000560   0.042090  -0.067380   0.010054  -0.001576
    15  C    0.018485   0.002197   0.228418  -0.255898   0.315086   0.521565
    16  C   -0.006357  -0.001005  -0.215603   0.338808  -0.492769  -0.061708
    17  C   -1.695746   0.123436   0.025895  -0.015914  -0.012709   0.002756
    18  H   -0.001341   0.006401  -0.000673   0.001542   0.020352   0.002376
    19  C   10.437939  -0.217147  -0.043284   0.037667  -0.001797   0.000879
    20  H   -0.217147   0.608962   0.024178  -0.030560   0.000026   0.000417
    21  C   -0.043284   0.024178  16.393990  -6.051881  -0.007455   0.008488
    22  C    0.037667  -0.030560  -6.051881  15.185052   0.024958  -0.007285
    23  C   -0.001797   0.000026  -0.007455   0.024958   7.803346  -0.079820
    24  H    0.000879   0.000417   0.008488  -0.007285  -0.079820   0.487680
    25  C   -0.001923   0.000411  -0.024844   0.051939  -0.458520   0.003381
    26  H    0.001107  -0.000131  -0.000796   0.012568  -0.010680   0.000726
    27  C   -0.223002   0.029432   0.003587  -0.004740   0.000797   0.000052
    28  H    0.002474  -0.000661  -0.000036   0.000005  -0.000440  -0.000195
    29  H    0.460121  -0.021033  -0.002002   0.001443  -0.000027  -0.000023
    30  C   -0.058187   0.043725  -2.752070   0.127959   0.000224   0.000337
    31  H    0.015063  -0.007937   0.580523  -0.031759  -0.000055   0.000326
    32  C   -0.000054   0.000367  -0.096667  -1.478190   0.007545  -0.000977
    33  H   -0.000258   0.000262  -0.023924   0.489711   0.000709  -0.000014
    34  C    0.000795  -0.000085   0.010067  -0.022807   0.293754   0.015437
    35  H   -0.000071  -0.000005  -0.000437   0.000718   0.427136  -0.010446
    36  H   -0.000015   0.000008  -0.000656   0.001978   0.010492  -0.000124
    37  H   -0.063110   0.001523   0.000073  -0.000047   0.000024   0.000025
    38  C    0.004368   0.000460   0.530733  -0.122417  -0.000047   0.000070
    39  H   -0.001072   0.000228  -0.129231   0.009979   0.000010  -0.000005
    40  H   -0.000102   0.000001   0.002605  -0.096314  -0.000057   0.000006
    41  H    0.000011  -0.000000   0.000242  -0.000698  -0.078222   0.001008
    42  H    0.000095  -0.000045   0.027399  -0.002130   0.000003   0.000002
              25         26         27         28         29         30
     1  C   -0.152712   0.004053  -0.402168   0.003511   0.017421   0.230459
     2  C   -0.059628   0.025296  -0.165239  -0.007120   0.006141  -0.018023
     3  C    0.012231  -0.008514   0.220512  -0.006408  -0.012814   0.543460
     4  C   -0.120158   0.205852  -0.097201   0.000216   0.005433  -0.513237
     5  H    0.001123  -0.007547  -0.006208   0.011057   0.001568  -0.008319
     6  C   -0.060643   0.006910  -0.278972   0.011322   0.034092   0.045103
     7  C    0.554283  -0.193041  -0.011601  -0.000213   0.003784   0.506238
     8  H    0.002140   0.000672   0.001085   0.000091   0.002437  -0.064684
     9  C    0.732250  -0.116903   0.022949  -0.000191  -0.000200   0.017080
    10  C   -1.554364   0.025826  -0.023096   0.002814   0.000756  -0.058802
    11  C    0.077457  -0.013401  -1.108498  -0.081917   0.035422   0.016963
    12  C   -0.020475   0.006057   0.730996   0.023980  -0.147157   0.056390
    13  C   -0.156411  -0.008439  -0.015551   0.000134   0.003016  -0.795554
    14  H   -0.025482   0.001416   0.000455  -0.000024  -0.000012   0.011557
    15  C    0.661565  -0.043625   0.004251  -0.002762  -0.000149   0.006308
    16  C   -2.215233   0.515205  -0.004944   0.000884   0.000072  -0.005089
    17  C    0.007990  -0.001548   0.998679   0.420376  -0.020768   0.009457
    18  H    0.002983   0.000510   0.017685  -0.024758  -0.002918   0.001549
    19  C   -0.001923   0.001107  -0.223002   0.002474   0.460121  -0.058187
    20  H    0.000411  -0.000131   0.029432  -0.000661  -0.021033   0.043725
    21  C   -0.024844  -0.000796   0.003587  -0.000036  -0.002002  -2.752070
    22  C    0.051939   0.012568  -0.004740   0.000005   0.001443   0.127959
    23  C   -0.458520  -0.010680   0.000797  -0.000440  -0.000027   0.000224
    24  H    0.003381   0.000726   0.000052  -0.000195  -0.000023   0.000337
    25  C    8.856507  -0.131703   0.000688  -0.000032  -0.000008   0.010116
    26  H   -0.131703   0.505377  -0.000198  -0.000008   0.000007  -0.001518
    27  C    0.000688  -0.000198   6.450728  -0.049108  -0.071455   0.003109
    28  H   -0.000032  -0.000008  -0.049108   0.482243   0.002498  -0.000016
    29  H   -0.000008   0.000007  -0.071455   0.002498   0.481456  -0.001827
    30  C    0.010116  -0.001518   0.003109  -0.000016  -0.001827   9.256081
    31  H   -0.001440   0.000148  -0.001605   0.000024   0.000520  -0.183124
    32  C   -0.039981   0.008396   0.000637   0.000011  -0.000091  -0.296082
    33  H    0.004609  -0.007164  -0.000181   0.000005   0.000012  -0.010982
    34  C    0.014700   0.031555  -0.000420  -0.000017   0.000003  -0.000819
    35  H    0.003926  -0.000458   0.000018   0.000004   0.000000   0.000021
    36  H    0.435887  -0.012695   0.000008   0.000002  -0.000000   0.000069
    37  H    0.000007  -0.000001   0.453987  -0.014897  -0.012370   0.000073
    38  C   -0.005335  -0.000529  -0.000430  -0.000004   0.000011  -0.182627
    39  H    0.000064   0.000043   0.000025   0.000000  -0.000010   0.451968
    40  H    0.000440   0.000678   0.000005   0.000000  -0.000001   0.010827
    41  H   -0.073734   0.002057  -0.000005  -0.000001   0.000000  -0.000004
    42  H   -0.000128  -0.000064  -0.000010   0.000000   0.000003  -0.072262
              31         32         33         34         35         36
     1  C   -0.016639  -0.283864   0.027367  -0.035253   0.004053   0.000582
     2  C    0.004349  -0.014278  -0.011419  -0.021743   0.000001  -0.004644
     3  C   -0.047206  -0.128908   0.022229  -0.011022   0.000547   0.000262
     4  C    0.060319   0.367908  -0.146013  -0.015260  -0.008615  -0.013782
     5  H    0.001312   0.002647   0.001111   0.004336  -0.001599   0.001054
     6  C   -0.006472  -0.078254   0.012682  -0.001996   0.002257  -0.000023
     7  C   -0.015526   0.134913   0.129699  -0.115010   0.004713   0.015577
     8  H    0.003617   0.015516  -0.005040  -0.000068   0.000002  -0.000039
     9  C   -0.012638   0.458334  -0.087147  -0.283495   0.010082   0.022497
    10  C    0.014335  -0.096675  -0.005438  -0.248665   0.021037   0.015250
    11  C   -0.004563  -0.029001   0.008685  -0.020676  -0.000743   0.000804
    12  C   -0.022116   0.072107  -0.013054   0.000162   0.000597  -0.000092
    13  C   -0.044055  -1.002612  -0.005986   0.040840  -0.000983  -0.003208
    14  H   -0.000765  -0.032671  -0.001766   0.003315   0.000163  -0.001218
    15  C    0.004379  -0.013278  -0.004929  -0.649367  -0.086450   0.016089
    16  C   -0.003305   0.032105   0.014205   0.414629   0.012382  -0.102993
    17  C   -0.003440  -0.001102   0.000578  -0.002924  -0.000207   0.000041
    18  H   -0.000747  -0.000304  -0.000038  -0.000773   0.000245  -0.000080
    19  C    0.015063  -0.000054  -0.000258   0.000795  -0.000071  -0.000015
    20  H   -0.007937   0.000367   0.000262  -0.000085  -0.000005   0.000008
    21  C    0.580523  -0.096667  -0.023924   0.010067  -0.000437  -0.000656
    22  C   -0.031759  -1.478190   0.489711  -0.022807   0.000718   0.001978
    23  C   -0.000055   0.007545   0.000709   0.293754   0.427136   0.010492
    24  H    0.000326  -0.000977  -0.000014   0.015437  -0.010446  -0.000124
    25  C   -0.001440  -0.039981   0.004609   0.014700   0.003926   0.435887
    26  H    0.000148   0.008396  -0.007164   0.031555  -0.000458  -0.012695
    27  C   -0.001605   0.000637  -0.000181  -0.000420   0.000018   0.000008
    28  H    0.000024   0.000011   0.000005  -0.000017   0.000004   0.000002
    29  H    0.000520  -0.000091   0.000012   0.000003   0.000000  -0.000000
    30  C   -0.183124  -0.296082  -0.010982  -0.000819   0.000021   0.000069
    31  H    0.486766   0.002624  -0.000144   0.000272  -0.000016  -0.000009
    32  C    0.002624   8.326894  -0.108105  -0.004035   0.000061   0.000229
    33  H   -0.000144  -0.108105   0.504386  -0.001173   0.000039   0.000587
    34  C    0.000272  -0.004035  -0.001173   6.630217  -0.059825  -0.066231
    35  H   -0.000016   0.000061   0.000039  -0.059825   0.473791   0.000761
    36  H   -0.000009   0.000229   0.000587  -0.066231   0.000761   0.473859
    37  H   -0.000047   0.000006  -0.000003  -0.000006   0.000000   0.000000
    38  C    0.020023   0.134589   0.026347   0.000014  -0.000003   0.000017
    39  H   -0.010255   0.005803  -0.000465  -0.000003   0.000000  -0.000001
    40  H    0.000026   0.424923  -0.013805   0.000096  -0.000002  -0.000037
    41  H    0.000004  -0.000098  -0.000059   0.468515  -0.010263  -0.011158
    42  H    0.000661  -0.074782   0.002215   0.000000  -0.000000   0.000000
              37         38         39         40         41         42
     1  C   -0.000501   0.026510   0.001545  -0.002835   0.001602   0.002407
     2  C   -0.001086  -0.000836  -0.001473  -0.000006   0.001719  -0.000144
     3  C    0.003544  -0.004897   0.004637  -0.005777  -0.000362   0.000623
     4  C   -0.000940   0.096212  -0.002927   0.007400  -0.002991   0.001273
     5  H   -0.002477   0.000911  -0.000127  -0.000051  -0.000635   0.000024
     6  C    0.028715   0.018563  -0.000035  -0.000775   0.000456   0.000781
     7  C    0.000125  -0.457027   0.003850   0.000265  -0.002331  -0.009421
     8  H   -0.000338  -0.010195  -0.000095   0.000735  -0.000003  -0.000457
     9  C    0.000294  -0.050856  -0.000106   0.014154  -0.011295  -0.005770
    10  C   -0.000529   0.033673  -0.000832  -0.003070   0.023884   0.001021
    11  C   -0.002461   0.005025   0.000020  -0.000270  -0.000352   0.000114
    12  C   -0.011589  -0.029296   0.002124   0.000735   0.000057  -0.000556
    13  C   -0.000376  -0.526398   0.034450   0.039629   0.001121   0.013004
    14  H    0.000004   0.005779  -0.000014  -0.001283   0.000364   0.000430
    15  C    0.000101   0.005247  -0.000196  -0.000518   0.006068   0.000178
    16  C   -0.000046  -0.013212   0.000401   0.002345   0.000294  -0.000568
    17  C   -0.060328  -0.000667   0.000160   0.000022  -0.000024  -0.000007
    18  H    0.005928  -0.000137   0.000031   0.000001   0.000028  -0.000004
    19  C   -0.063110   0.004368  -0.001072  -0.000102   0.000011   0.000095
    20  H    0.001523   0.000460   0.000228   0.000001  -0.000000  -0.000045
    21  C    0.000073   0.530733  -0.129231   0.002605   0.000242   0.027399
    22  C   -0.000047  -0.122417   0.009979  -0.096314  -0.000698  -0.002130
    23  C    0.000024  -0.000047   0.000010  -0.000057  -0.078222   0.000003
    24  H    0.000025   0.000070  -0.000005   0.000006   0.001008   0.000002
    25  C    0.000007  -0.005335   0.000064   0.000440  -0.073734  -0.000128
    26  H   -0.000001  -0.000529   0.000043   0.000678   0.002057  -0.000064
    27  C    0.453987  -0.000430   0.000025   0.000005  -0.000005  -0.000010
    28  H   -0.014897  -0.000004   0.000000   0.000000  -0.000001   0.000000
    29  H   -0.012370   0.000011  -0.000010  -0.000001   0.000000   0.000003
    30  C    0.000073  -0.182627   0.451968   0.010827  -0.000004  -0.072262
    31  H   -0.000047   0.020023  -0.010255   0.000026   0.000004   0.000661
    32  C    0.000006   0.134589   0.005803   0.424923  -0.000098  -0.074782
    33  H   -0.000003   0.026347  -0.000465  -0.013805  -0.000059   0.002215
    34  C   -0.000006   0.000014  -0.000003   0.000096   0.468515   0.000000
    35  H    0.000000  -0.000003   0.000000  -0.000002  -0.010263  -0.000000
    36  H    0.000000   0.000017  -0.000001  -0.000037  -0.011158   0.000000
    37  H    0.486491  -0.000003   0.000000   0.000000  -0.000000  -0.000000
    38  C   -0.000003   6.661780  -0.053384  -0.070080  -0.000001   0.457882
    39  H    0.000000  -0.053384   0.472020   0.000606  -0.000000  -0.009126
    40  H    0.000000  -0.070080   0.000606   0.475325   0.000002  -0.011331
    41  H   -0.000000  -0.000001  -0.000000   0.000002   0.487383   0.000000
    42  H   -0.000000   0.457882  -0.009126  -0.011331   0.000000   0.484102
 Mulliken charges:
               1
     1  C    1.684334
     2  C   -0.845638
     3  C   -1.088407
     4  C    0.622813
     5  H   -0.033387
     6  C    1.725801
     7  C    0.670166
     8  H    0.109934
     9  C   -1.679843
    10  C    1.265779
    11  C   -0.276641
    12  C   -0.780376
    13  C    1.122652
    14  H    0.205496
    15  C   -0.358095
    16  C   -0.531307
    17  C   -0.769457
    18  H    0.150458
    19  C   -0.348600
    20  H    0.051011
    21  C   -0.259123
    22  C   -0.758932
    23  C   -0.430752
    24  H    0.211228
    25  C   -0.331942
    26  H    0.204504
    27  C   -0.475052
    28  H    0.227155
    29  H    0.236650
    30  C   -0.325845
    31  H    0.218572
    32  C   -0.215608
    33  H    0.201669
    34  C   -0.367035
    35  H    0.217568
    36  H    0.220952
    37  H    0.190237
    38  C   -0.499832
    39  H    0.221393
    40  H    0.225487
    41  H    0.197422
    42  H    0.194590
 Sum of Mulliken charges =  -0.00000
 Mulliken charges with hydrogens summed into heavy atoms:
               1
     1  C    1.684334
     2  C   -0.879025
     3  C   -0.978473
     4  C    0.622813
     6  C    1.725801
     7  C    0.670166
     9  C   -1.474347
    10  C    1.265779
    11  C   -0.126183
    12  C   -0.729365
    13  C    1.122652
    15  C   -0.146867
    16  C   -0.326803
    17  C   -0.542302
    19  C   -0.111950
    21  C   -0.040552
    22  C   -0.557262
    23  C   -0.213183
    25  C   -0.110990
    27  C   -0.284815
    30  C   -0.104452
    32  C    0.009880
    34  C   -0.169613
    38  C   -0.305243
 Electronic spatial extent (au):  <R**2>=          10005.6329
 Charge=             -0.0000 electrons
 Dipole moment (field-independent basis, Debye):
    X=             -0.0043    Y=             -0.0133    Z=              0.0054  Tot=              0.0150
 Quadrupole moment (field-independent basis, Debye-Ang):
   XX=           -122.8840   YY=           -126.0012   ZZ=           -145.1064
   XY=              0.0119   XZ=              0.7562   YZ=              6.1199
 Traceless Quadrupole moment (field-independent basis, Debye-Ang):
   XX=              8.4465   YY=              5.3293   ZZ=            -13.7758
   XY=              0.0119   XZ=              0.7562   YZ=              6.1199
 Octapole moment (field-independent basis, Debye-Ang**2):
  XXX=              0.0412  YYY=             35.4994  ZZZ=              1.8205  XYY=              0.5947
  XXY=            -20.6455  XXZ=             32.5139  XZZ=             -0.5731  YZZ=            -14.8086
  YYZ=            -34.3673  XYZ=              3.5553
 Hexadecapole moment (field-independent basis, Debye-Ang**3):
 XXXX=          -6352.4563 YYYY=          -6250.2371 ZZZZ=           -417.3454 XXXY=              1.2901
 XXXZ=              2.9039 YYYX=              1.6014 YYYZ=             96.8240 ZZZX=             -0.6263
 ZZZY=             26.9954 XXYY=          -2022.3323 XXZZ=          -1238.7961 YYZZ=          -1291.2341
 XXYZ=             32.0876 YYXZ=             17.1559 ZZXY=             -2.2715
 N-N= 1.734531175106D+03 E-N=-5.615394081508D+03  KE= 9.213197156421D+02
 No NMR shielding tensors so no spin-rotation constants.
 Leave Link  601 at Mon Nov 14 15:14:31 2022, MaxMem= 16106127360 cpu:               9.0 elap:               0.4
 (Enter /opt/ap/G16/B01/g16/l9999.exe)
 1\1\GINC-N60\SP\RwB97XD\6-311++G(d,p)\C24H18\ROOT\14-Nov-2022\0\\#P wB
 97XD/6-311++G(d,p) scf=maxcycle=512\\_conf017.gjf nmol_natom 1_42\\0,1
 \C\C,1,1.39412829\C,1,1.39435449,2,118.86443127\C,2,1.39416084,1,121.1
 529487,3,0.03668482,0\H,2,1.08488355,1,119.42236619,3,-179.97409048,0\
 C,1,1.48467131,2,120.55714816,4,179.25839056,0\C,3,1.39437784,1,121.11
 776116,2,-0.05351271,0\H,3,1.08487775,1,119.41869036,2,177.23008049,0\
 C,4,1.39432447,2,118.86473838,1,0.01008406,0\C,4,1.48466627,2,120.5464
 188,1,179.19454736,0\C,6,1.3968498,1,120.7843492,2,-5.,0\C,6,1.3968682
 ,1,120.67653841,2,175.,0\C,7,1.48449863,3,120.56496838,1,-179.96325804
 ,0\H,9,1.0848792,4,119.41824946,2,177.22245984,0\C,10,1.39685361,4,120
 .76946845,2,-42.52368674,0\C,10,1.39686289,4,120.69448769,2,137.431075
 16,0\C,11,1.38888939,6,120.7380073,1,179.94058542,0\H,11,1.0847641,6,1
 19.46912378,1,-1.41050605,0\C,12,1.38882428,6,120.76493111,1,-179.9508
 2712,0\H,12,1.08482758,6,119.44182626,1,-1.23602505,0\C,13,1.39682899,
 7,120.74134419,3,42.89023273,0\C,13,1.39683158,7,120.7379111,3,-137.12
 494058,0\C,15,1.38888263,10,120.742191,4,179.9460119,0\H,15,1.08476334
 ,10,119.47085903,4,-1.40606944,0\C,16,1.38886088,10,120.76338989,4,-17
 9.95592713,0\H,16,1.08483431,10,119.44215232,4,-1.23439681,0\C,17,1.39
 007919,11,120.20743432,6,0.00349958,0\H,17,1.0843506,11,119.71318733,6
 ,179.5011609,0\H,19,1.08435858,12,119.73823132,6,179.53683762,0\C,21,1
 .38882373,13,120.76699356,7,179.99297883,0\H,21,1.0847938,13,119.43526
 23,7,1.32183327,0\C,22,1.38881869,13,120.76647403,7,-179.97118338,0\H,
 22,1.08479982,13,119.43203605,7,1.34657928,0\C,23,1.39007007,15,120.20
 732995,10,0.00573957,0\H,23,1.08434813,15,119.71220819,10,179.50724368
 ,0\H,25,1.08436328,16,119.73539424,10,179.53636455,0\H,27,1.08412515,1
 7,120.21790854,11,179.98397203,0\C,30,1.39008059,21,120.18795226,13,-0
 .02169059,0\H,30,1.08435324,21,119.73787119,13,-179.52151214,0\H,32,1.
 0843543,22,119.737043,13,-179.52886928,0\H,34,1.08412314,23,120.221528
 03,15,179.98800213,0\H,38,1.08411439,30,120.21547163,21,-179.98600656,
 0\\Version=ES64L-G16RevB.01\State=1-A\HF=-925.3066436\RMSD=6.847e-09\D
 ipole=0.0037322,0.0019826,0.0041229\Quadrupole=4.3585274,-9.9772518,5.
 6187244,-3.9833444,-1.1269405,-2.9735977\PG=C01 [X(C24H18)]\\@


 A people that values its privileges above its principles soon loses both.
 -- Dwight D. Eisenhower
 Job cpu time:       0 days  1 hours 19 minutes  2.0 seconds.
 Elapsed time:       0 days  0 hours  2 minutes 28.7 seconds.
 File lengths (MBytes):  RWF=    224 Int=      0 D2E=      0 Chk=     26 Scr=      1
 Normal termination of Gaussian 16 at Mon Nov 14 15:14:31 2022.
