 Entering Gaussian System, Link 0=g16
 Input=_conf031.gjf
 Output=_conf031.log
 Initial command:
 /opt/ap/G16/B01/g16/l1.exe "/tmp2/scr/Gau-24365.inp" -scrdir="/tmp2/scr/"
 Entering Link 1 = /opt/ap/G16/B01/g16/l1.exe PID=     24366.
  
 Copyright (c) 1988-2017, Gaussian, Inc.  All Rights Reserved.
  
 This is part of the Gaussian(R) 16 program.  It is based on
 the Gaussian(R) 09 system (copyright 2009, Gaussian, Inc.),
 the Gaussian(R) 03 system (copyright 2003, Gaussian, Inc.),
 the Gaussian(R) 98 system (copyright 1998, Gaussian, Inc.),
 the Gaussian(R) 94 system (copyright 1995, Gaussian, Inc.),
 the Gaussian 92(TM) system (copyright 1992, Gaussian, Inc.),
 the Gaussian 90(TM) system (copyright 1990, Gaussian, Inc.),
 the Gaussian 88(TM) system (copyright 1988, Gaussian, Inc.),
 the Gaussian 86(TM) system (copyright 1986, Carnegie Mellon
 University), and the Gaussian 82(TM) system (copyright 1983,
 Carnegie Mellon University). Gaussian is a federally registered
 trademark of Gaussian, Inc.
  
 This software contains proprietary and confidential information,
 including trade secrets, belonging to Gaussian, Inc.
  
 This software is provided under written license and may be
 used, copied, transmitted, or stored only in accord with that
 written license.
  
 The following legend is applicable only to US Government
 contracts under FAR:
  
                    RESTRICTED RIGHTS LEGEND
  
 Use, reproduction and disclosure by the US Government is
 subject to restrictions as set forth in subparagraphs (a)
 and (c) of the Commercial Computer Software - Restricted
 Rights clause in FAR 52.227-19.
  
 Gaussian, Inc.
 340 Quinnipiac St., Bldg. 40, Wallingford CT 06492
  
  
 ---------------------------------------------------------------
 Warning -- This program may not be used in any manner that
 competes with the business of Gaussian, Inc. or will provide
 assistance to any competitor of Gaussian, Inc.  The licensee
 of this program is prohibited from giving any competitor of
 Gaussian, Inc. access to this program.  By using this program,
 the user acknowledges that Gaussian, Inc. is engaged in the
 business of creating and licensing software in the field of
 computational chemistry and represents and warrants to the
 licensee that it is not a competitor of Gaussian, Inc. and that
 it will not use this program in any manner prohibited above.
 ---------------------------------------------------------------
  

 Cite this work as:
 Gaussian 16, Revision B.01,
 M. J. Frisch, G. W. Trucks, H. B. Schlegel, G. E. Scuseria, 
 M. A. Robb, J. R. Cheeseman, G. Scalmani, V. Barone, 
 G. A. Petersson, H. Nakatsuji, X. Li, M. Caricato, A. V. Marenich, 
 J. Bloino, B. G. Janesko, R. Gomperts, B. Mennucci, H. P. Hratchian, 
 J. V. Ortiz, A. F. Izmaylov, J. L. Sonnenberg, D. Williams-Young, 
 F. Ding, F. Lipparini, F. Egidi, J. Goings, B. Peng, A. Petrone, 
 T. Henderson, D. Ranasinghe, V. G. Zakrzewski, J. Gao, N. Rega, 
 G. Zheng, W. Liang, M. Hada, M. Ehara, K. Toyota, R. Fukuda, 
 J. Hasegawa, M. Ishida, T. Nakajima, Y. Honda, O. Kitao, H. Nakai, 
 T. Vreven, K. Throssell, J. A. Montgomery, Jr., J. E. Peralta, 
 F. Ogliaro, M. J. Bearpark, J. J. Heyd, E. N. Brothers, K. N. Kudin, 
 V. N. Staroverov, T. A. Keith, R. Kobayashi, J. Normand, 
 K. Raghavachari, A. P. Rendell, J. C. Burant, S. S. Iyengar, 
 J. Tomasi, M. Cossi, J. M. Millam, M. Klene, C. Adamo, R. Cammi, 
 J. W. Ochterski, R. L. Martin, K. Morokuma, O. Farkas, 
 J. B. Foresman, and D. J. Fox, Gaussian, Inc., Wallingford CT, 2016.
 
 ******************************************
 Gaussian 16:  ES64L-G16RevB.01 20-Dec-2017
                14-Nov-2022 
 ******************************************
 %nprocshared=32
 Will use up to   32 processors via shared memory.
 %mem=120GB
 %chk=_conf031.chk
 ----------------------------------------
 #P wB97XD/6-311++G(d,p) scf=maxcycle=512
 ----------------------------------------
 1/38=1,172=1/1;
 2/12=2,17=6,18=5,40=1/2;
 3/5=4,6=6,7=1111,11=2,25=1,30=1,74=-58/1,2,3;
 4//1;
 5/5=2,7=512,38=5/2;
 6/7=2,8=2,9=2,10=2,28=1/1;
 99/5=1,9=1/99;
 Leave Link    1 at Mon Nov 14 15:19:35 2022, MaxMem= 16106127360 cpu:               1.8 elap:               0.1
 (Enter /opt/ap/G16/B01/g16/l101.exe)
 ----------------------------
 _conf031.gjf nmol_natom 1_42
 ----------------------------
 Symbolic Z-matrix:
 Charge =  0 Multiplicity = 1
 C
 C                    1     1.39413 
 C                    1     1.39435  2     118.86443 
 C                    2     1.39416  1     121.15295  3     0.03668  0
 H                    2     1.08488  1     119.42237  3    -179.97409  0
 C                    1     1.48467  2     120.55715  4     179.25839  0
 C                    3     1.39438  1     121.11776  2    -0.05351  0
 H                    3     1.08488  1     119.41869  2     177.23008  0
 C                    4     1.39432  2     118.86474  1     0.01008  0
 C                    4     1.48467  2     120.54642  1     179.19455  0
 C                    6     1.39685  1     120.78435  2     65.      0
 C                    6     1.39687  1     120.67654  2    -115.     0
 C                    7     1.4845   3     120.56497  1    -179.96326  0
 H                    9     1.08488  4     119.41825  2     177.22246  0
 C                    10    1.39685  4     120.76947  2    -42.52369  0
 C                    10    1.39686  4     120.69449  2     137.43108  0
 C                    11    1.38889  6     120.73801  1     179.94059  0
 H                    11    1.08476  6     119.46912  1    -1.41051  0
 C                    12    1.38882  6     120.76493  1    -179.95083  0
 H                    12    1.08483  6     119.44183  1    -1.23603  0
 C                    13    1.39683  7     120.74134  3     42.89023  0
 C                    13    1.39683  7     120.73791  3    -137.12494  0
 C                    15    1.38888  10    120.74219  4     179.94601  0
 H                    15    1.08476  10    119.47086  4    -1.40607  0
 C                    16    1.38886  10    120.76339  4    -179.95593  0
 H                    16    1.08483  10    119.44215  4    -1.2344   0
 C                    17    1.39008  11    120.20743  6     0.0035   0
 H                    17    1.08435  11    119.71319  6     179.50116  0
 H                    19    1.08436  12    119.73823  6     179.53684  0
 C                    21    1.38882  13    120.76699  7     179.99298  0
 H                    21    1.08479  13    119.43526  7     1.32183  0
 C                    22    1.38882  13    120.76647  7    -179.97118  0
 H                    22    1.0848   13    119.43204  7     1.34658  0
 C                    23    1.39007  15    120.20733  10    0.00574  0
 H                    23    1.08435  15    119.71221  10    179.50724  0
 H                    25    1.08436  16    119.73539  10    179.53636  0
 H                    27    1.08413  17    120.21791  11    179.98397  0
 C                    30    1.39008  21    120.18795  13   -0.02169  0
 H                    30    1.08435  21    119.73787  13   -179.52151  0
 H                    32    1.08435  22    119.73704  13   -179.52887  0
 H                    34    1.08412  23    120.22153  15    179.988  0
 H                    38    1.08411  30    120.21547  21   -179.98601  0
 
 ITRead=  0  0  0  0  0  0  0  0  0  0  0  0  0  0  0  0  0  0  0  0
 ITRead=  0  0  0  0  0  0  0  0  0  0  0  0  0  0  0  0  0  0  0  0
 ITRead=  0  0
 MicOpt= -1 -1 -1 -1 -1 -1 -1 -1 -1 -1 -1 -1 -1 -1 -1 -1 -1 -1 -1 -1
 MicOpt= -1 -1 -1 -1 -1 -1 -1 -1 -1 -1 -1 -1 -1 -1 -1 -1 -1 -1 -1 -1
 MicOpt= -1 -1
 NAtoms=     42 NQM=       42 NQMF=       0 NMMI=      0 NMMIF=      0
                NMic=       0 NMicF=      0.
                    Isotopes and Nuclear Properties:
 (Nuclear quadrupole moments (NQMom) in fm**2, nuclear magnetic moments (NMagM)
  in nuclear magnetons)

  Atom         1           2           3           4           5           6           7           8           9          10
 IAtWgt=          12          12          12          12           1          12          12           1          12          12
 AtmWgt=  12.0000000  12.0000000  12.0000000  12.0000000   1.0078250  12.0000000  12.0000000   1.0078250  12.0000000  12.0000000
 NucSpn=           0           0           0           0           1           0           0           1           0           0
 AtZEff=  -0.0000000  -0.0000000  -0.0000000  -0.0000000  -0.0000000  -0.0000000  -0.0000000  -0.0000000  -0.0000000  -0.0000000
 NQMom=    0.0000000   0.0000000   0.0000000   0.0000000   0.0000000   0.0000000   0.0000000   0.0000000   0.0000000   0.0000000
 NMagM=    0.0000000   0.0000000   0.0000000   0.0000000   2.7928460   0.0000000   0.0000000   2.7928460   0.0000000   0.0000000
 AtZNuc=   6.0000000   6.0000000   6.0000000   6.0000000   1.0000000   6.0000000   6.0000000   1.0000000   6.0000000   6.0000000

  Atom        11          12          13          14          15          16          17          18          19          20
 IAtWgt=          12          12          12           1          12          12          12           1          12           1
 AtmWgt=  12.0000000  12.0000000  12.0000000   1.0078250  12.0000000  12.0000000  12.0000000   1.0078250  12.0000000   1.0078250
 NucSpn=           0           0           0           1           0           0           0           1           0           1
 AtZEff=  -0.0000000  -0.0000000  -0.0000000  -0.0000000  -0.0000000  -0.0000000  -0.0000000  -0.0000000  -0.0000000  -0.0000000
 NQMom=    0.0000000   0.0000000   0.0000000   0.0000000   0.0000000   0.0000000   0.0000000   0.0000000   0.0000000   0.0000000
 NMagM=    0.0000000   0.0000000   0.0000000   2.7928460   0.0000000   0.0000000   0.0000000   2.7928460   0.0000000   2.7928460
 AtZNuc=   6.0000000   6.0000000   6.0000000   1.0000000   6.0000000   6.0000000   6.0000000   1.0000000   6.0000000   1.0000000

  Atom        21          22          23          24          25          26          27          28          29          30
 IAtWgt=          12          12          12           1          12           1          12           1           1          12
 AtmWgt=  12.0000000  12.0000000  12.0000000   1.0078250  12.0000000   1.0078250  12.0000000   1.0078250   1.0078250  12.0000000
 NucSpn=           0           0           0           1           0           1           0           1           1           0
 AtZEff=  -0.0000000  -0.0000000  -0.0000000  -0.0000000  -0.0000000  -0.0000000  -0.0000000  -0.0000000  -0.0000000  -0.0000000
 NQMom=    0.0000000   0.0000000   0.0000000   0.0000000   0.0000000   0.0000000   0.0000000   0.0000000   0.0000000   0.0000000
 NMagM=    0.0000000   0.0000000   0.0000000   2.7928460   0.0000000   2.7928460   0.0000000   2.7928460   2.7928460   0.0000000
 AtZNuc=   6.0000000   6.0000000   6.0000000   1.0000000   6.0000000   1.0000000   6.0000000   1.0000000   1.0000000   6.0000000

  Atom        31          32          33          34          35          36          37          38          39          40
 IAtWgt=           1          12           1          12           1           1           1          12           1           1
 AtmWgt=   1.0078250  12.0000000   1.0078250  12.0000000   1.0078250   1.0078250   1.0078250  12.0000000   1.0078250   1.0078250
 NucSpn=           1           0           1           0           1           1           1           0           1           1
 AtZEff=  -0.0000000  -0.0000000  -0.0000000  -0.0000000  -0.0000000  -0.0000000  -0.0000000  -0.0000000  -0.0000000  -0.0000000
 NQMom=    0.0000000   0.0000000   0.0000000   0.0000000   0.0000000   0.0000000   0.0000000   0.0000000   0.0000000   0.0000000
 NMagM=    2.7928460   0.0000000   2.7928460   0.0000000   2.7928460   2.7928460   2.7928460   0.0000000   2.7928460   2.7928460
 AtZNuc=   1.0000000   6.0000000   1.0000000   6.0000000   1.0000000   1.0000000   1.0000000   6.0000000   1.0000000   1.0000000

  Atom        41          42
 IAtWgt=           1           1
 AtmWgt=   1.0078250   1.0078250
 NucSpn=           1           1
 AtZEff=  -0.0000000  -0.0000000
 NQMom=    0.0000000   0.0000000
 NMagM=    2.7928460   2.7928460
 AtZNuc=   1.0000000   1.0000000
 Leave Link  101 at Mon Nov 14 15:19:36 2022, MaxMem= 16106127360 cpu:               5.5 elap:               0.2
 (Enter /opt/ap/G16/B01/g16/l202.exe)
                          Input orientation:                          
 ---------------------------------------------------------------------
 Center     Atomic      Atomic             Coordinates (Angstroms)
 Number     Number       Type             X           Y           Z
 ---------------------------------------------------------------------
      1          6           0        0.000000    0.000000    0.000000
      2          6           0        0.000000    0.000000    1.394128
      3          6           0        1.221126    0.000000   -0.673109
      4          6           0        1.193108    0.000764    2.115362
      5          1           0       -0.944957   -0.000427    1.927071
      6          6           0       -1.278366   -0.017366   -0.754803
      7          6           0        2.428476    0.001115    0.024455
      8          1           0        1.232154   -0.045667   -1.756969
      9          6           0        2.400843    0.001752    1.418572
     10          6           0        1.177445    0.018728    3.599837
     11          6           0       -2.166528    1.058268   -0.681543
     12          6           0       -1.619110   -1.110927   -1.554340
     13          6           0        3.721572    0.001921   -0.704680
     14          1           0        3.334061    0.048144    1.969857
     15          6           0        0.290794    0.844275    4.295193
     16          6           0        2.049080   -0.790881    4.331965
     17          6           0       -3.361603    1.041539   -1.389025
     18          1           0       -1.927787    1.905214   -0.047194
     19          6           0       -2.813993   -1.128668   -2.261993
     20          1           0       -0.930999   -1.945422   -1.637837
     21          6           0        3.910862    0.818865   -1.821777
     22          6           0        4.776237   -0.814044   -0.288725
     23          6           0        0.275860    0.859807    5.683909
     24          1           0       -0.377402    1.495584    3.742000
     25          6           0        2.035025   -0.775886    5.720674
     26          1           0        2.729408   -1.453102    3.807101
     27          6           0       -3.689427   -0.051791   -2.182424
     28          1           0       -4.042603    1.882002   -1.313684
     29          1           0       -3.058368   -1.982916   -2.883583
     30          6           0        5.120444    0.820149   -2.504230
     31          1           0        3.109266    1.474569   -2.144691
     32          6           0        5.986440   -0.813321   -0.970068
     33          1           0        4.638168   -1.470412    0.563864
     34          6           0        1.147946    0.049642    6.401818
     35          1           0       -0.413890    1.513063    6.206701
     36          1           0        2.713797   -1.416787    6.272362
     37          1           0       -4.622340   -0.065141   -2.734531
     38          6           0        6.162883    0.003944   -2.080611
     39          1           0        5.251831    1.466740   -3.364741
     40          1           0        6.791448   -1.459089   -0.637249
     41          1           0        1.136620    0.061726    7.485815
     42          1           0        7.107346    0.004761   -2.612865
 ---------------------------------------------------------------------
                    Distance matrix (angstroms):
                    1          2          3          4          5
     1  C    0.000000
     2  C    1.394128   0.000000
     3  C    1.394354   2.400962   0.000000
     4  C    2.428634   1.394161   2.788612   0.000000
     5  H    2.146287   1.084884   3.384206   2.146341   0.000000
     6  C    1.484671   2.500485   2.500887   3.787659   2.702572
     7  C    2.428599   2.788100   1.394378   2.428585   3.872983
     8  H    2.146445   3.383741   1.084878   3.872806   4.279487
     9  C    2.788619   2.400968   2.401430   1.394324   3.384222
    10  C    3.787552   2.500376   4.273210   1.484666   2.702426
    11  C    2.505649   3.181539   3.549113   4.497571   3.068866
    12  C    2.504326   3.542477   3.174534   4.755117   3.715900
    13  C    3.787700   4.272598   2.500646   3.787581   5.357482
    14  H    3.872805   3.383747   3.384092   2.146415   4.279508
    15  C    4.387032   3.035381   5.124680   2.505463   2.801537
    16  C    4.856969   3.668120   5.134371   2.504540   3.920790
    17  C    3.783460   4.486772   4.753814   5.840319   4.233481
    18  H    2.710799   3.069790   3.733264   4.247771   2.914643
    19  C    3.782732   4.749702   4.481142   6.041002   4.723820
    20  H    2.708124   3.720785   3.057288   4.731381   4.061005
    21  C    4.391384   5.129076   3.037212   4.853507   6.189029
    22  C    4.853707   5.129045   3.667320   4.391169   6.189006
    23  C    5.755188   4.383786   6.484171   3.783362   4.042800
    24  H    4.047440   2.809218   4.928007   2.710524   2.419532
    25  C    6.121229   4.843792   6.491910   3.782894   4.886007
    26  H    4.904609   3.922195   4.945574   2.708491   4.375585
    27  C    4.286902   5.138704   5.137533   6.504834   4.941932
    28  H    4.648692   5.216974   5.626643   6.535295   4.862246
    29  H    4.647647   5.619999   5.208860   6.855617   5.615974
    30  C    5.758711   6.487587   4.385239   6.118495   7.556379
    31  H    4.054822   4.936104   2.811579   4.898143   5.932249
    32  C    6.118822   6.487555   4.843334   5.758354   7.556353
    33  H    4.898230   4.935996   3.920254   4.054620   5.932156
    34  C    6.504116   5.137821   7.075480   4.286973   4.940255
    35  H    6.401859   5.061770   7.231488   4.648499   4.570330
    36  H    6.979577   5.759266   7.243957   4.647859   5.854410
    37  H    5.371027   6.198072   6.196757   7.572664   5.937833
    38  C    6.504621   7.074953   5.138292   6.504219   8.159837
    39  H    6.407382   7.237395   5.063871   6.975231   8.279857
    40  H    6.975586   7.237348   5.758361   6.406985   8.279819
    41  H    7.571865   6.197125   8.159595   5.371096   5.936031
    42  H    7.572414   8.159067   6.197601   7.571945   9.243951
                    6          7          8          9         10
     6  C    0.000000
     7  C    3.787910   0.000000
     8  H    2.703303   2.146356   0.000000
     9  C    4.273231   1.394392   3.384102   0.000000
    10  C    4.999520   3.787973   5.357472   2.500981   0.000000
    11  C    1.396850   4.767606   3.731790   5.136885   5.531095
    12  C    1.396868   4.484660   3.050498   5.122137   5.971799
    13  C    5.000226   1.484499   2.703105   2.500505   5.000173
    14  H    5.357476   2.146366   4.279725   1.084879   2.703459
    15  C    5.357906   4.849723   6.189251   3.665665   1.396854
    16  C    6.127433   4.396117   6.188524   3.039714   1.396863
    17  C    2.421445   6.050241   4.734976   6.493808   6.821865
    18  H    2.149133   4.754761   4.088336   4.950624   5.148022
    19  C    2.421728   5.829900   4.218915   6.482201   7.183951
    20  H    2.148909   4.223540   2.881404   4.922834   5.978014
    21  C    5.363376   2.504946   2.815510   3.667109   6.124188
    22  C    6.124553   2.504906   3.912375   3.036921   5.363369
    23  C    6.681472   6.115597   7.556523   4.841994   2.421492
    24  H    4.829285   4.891475   5.933362   3.917716   2.149154
    25  C    7.313393   5.762417   7.555989   4.387097   2.421736
    26  H    6.239756   4.063707   5.931401   2.815959   2.148914
    27  C    2.802231   6.503987   4.939939   7.075410   7.558171
    28  H    3.400141   6.870460   5.633424   7.246969   7.406982
    29  H    3.400515   6.519089   4.840534   7.228446   7.998964
    30  C    6.686306   3.783088   4.053003   4.842972   7.310892
    31  H    4.838282   2.709194   2.446425   3.920191   6.233057
    32  C    7.311449   3.783053   4.879728   4.384797   6.686012
    33  H    6.233426   2.709077   4.360860   2.811302   4.838519
    34  C    7.557031   6.504835   8.159779   5.138559   2.802307
    35  H    7.179977   6.970308   8.280044   5.756123   3.400165
    36  H    8.202243   6.413127   8.279214   5.066504   3.400510
    37  H    3.886356   7.571683   5.935579   8.159524   8.588874
    38  C    7.558466   4.286853   4.941589   5.137824   7.557929
    39  H    7.187337   4.648230   4.585860   5.757987   8.197725
    40  H    8.198432   4.648180   5.844424   5.063385   7.187062
    41  H    8.587561   7.572613   9.243902   6.197846   3.886431
    42  H    8.589123   5.370968   5.937422   6.197069   8.588456
                   11         12         13         14         15
    11  C    0.000000
    12  C    2.401427   0.000000
    13  C    5.982151   5.521162   0.000000
    14  H    6.189245   6.188482   2.702860   0.000000
    15  C    5.554469   6.456593   6.121971   3.911840   0.000000
    16  C    6.806319   6.943100   5.365963   2.816859   2.401387
    17  C    1.388889   2.774296   7.191696   7.556510   6.759383
    18  H    1.084764   3.385835   5.997505   5.933317   4.990392
    19  C    2.774838   1.388824   6.813007   7.555926   7.518571
    20  H    3.385733   1.084828   5.129263   5.931315   6.669036
    21  C    6.188063   5.863123   1.396829   3.911930   7.107943
    22  C    7.201518   6.526131   1.396832   2.815037   6.624314
    23  C    6.820823   7.737374   7.309101   4.879095   1.388883
    24  H    4.791654   6.032160   6.229413   4.360107   1.084763
    25  C    7.874361   8.148055   6.688393   4.054029   2.774755
    26  H    7.101063   6.911711   4.843310   2.448430   3.385708
    27  C    2.409169   2.408832   7.557083   8.159706   7.655365
    28  H    2.144247   3.858608   8.011742   8.280088   7.163429
    29  H    3.859166   2.144462   7.392887   8.279145   8.410989
    30  C    7.515241   7.074809   2.421718   4.878996   8.340159
    31  H    5.490730   5.421331   2.148776   4.360587   7.057844
    32  C    8.370005   7.633762   2.421709   4.052208   7.931644
    33  H    7.365403   6.615856   2.148749   2.446125   6.179018
    34  C    7.885244   8.503175   7.558317   4.941800   2.409154
    35  H    7.122252   8.280799   8.194680   5.843284   2.144229
    36  H    8.848744   8.951251   7.190790   4.587189   3.859086
    37  H    3.392317   3.392036   8.587529   9.243831   8.624555
    38  C    8.511645   7.879043   2.802355   4.940696   8.708529
    39  H    7.899270   7.558554   3.400487   5.843645   9.147346
    40  H    9.305074   8.467571   3.400476   4.585006   8.478973
    41  H    8.866207   9.523317   8.588933   5.937569   3.392325
    42  H    9.531245   8.860940   3.886469   5.936405   9.741223
                   16         17         18         19         20
    16  C    0.000000
    17  C    8.084738   0.000000
    18  H    6.500879   2.145291   0.000000
    19  C    8.200236   2.402446   3.859422   0.000000
    20  H    6.771438   3.858974   4.283822   2.145303   0.000000
    21  C    6.627673   7.288731   6.198316   7.015009   5.578417
    22  C    5.365510   8.418925   7.238553   7.848845   5.972660
    23  C    2.774316   7.955536   6.228521   8.754347   7.933081
    24  H    3.385823   5.953069   4.114545   6.990823   6.410120
    25  C    1.388861   9.109031   7.494030   9.346679   8.019526
    26  H    1.084834   8.385903   6.915442   8.226084   6.579385
    27  C    8.712863   1.390079   3.390052   1.390101   3.389888
    28  H    8.725037   1.084351   2.465154   3.387168   4.943312
    29  H    8.920264   3.387180   4.943772   1.084359   2.465561
    30  C    7.665654   8.557909   7.542675   8.173852   6.709618
    31  H    6.942862   6.529218   5.473285   6.471135   5.317610
    32  C    6.604154   9.539493   8.418854   8.900344   7.041202
    33  H    4.622091   8.609298   7.408105   7.977278   6.007391
    34  C    2.408903   9.056331   7.381940   9.599323   8.540395
    35  H    3.858628   8.161274   6.446461   9.190104   8.588672
    36  H    2.144469  10.082197   8.515678  10.172251   8.725551
    37  H    9.745251   2.150485   4.285405   2.150465   4.285346
    38  C    7.660043   9.605766   8.556200   9.049863   7.370159
    39  H    8.636768   8.847344   7.921193   8.544572   7.269968
    40  H    6.901424  10.483451   9.364388   9.747485   7.802172
    41  H    3.392092   9.997841   8.338780  10.585091   9.567900
    42  H    8.628428  10.591108   9.582693   9.992033   8.328798
                   21         22         23         24         25
    21  C    0.000000
    22  C    2.401148   0.000000
    23  C    8.339678   7.663388   0.000000
    24  H    7.057108   6.938381   2.145221   0.000000
    25  C    7.934139   6.605193   2.402396   3.859344   0.000000
    26  H    6.184005   4.623169   3.858996   4.283837   2.145356
    27  C    7.658492   8.708306   8.856280   6.961514   9.785327
    28  H    8.040275   9.278532   8.286152   6.256433   9.668719
    29  H    7.586012   8.335502   9.622893   7.948956  10.071386
    30  C    1.388824   2.774442   9.514051   8.348527   8.928391
    31  H    1.084794   3.385432   8.348239   6.841814   8.251212
    32  C    2.774430   1.388819   8.926672   8.248218   7.770528
    33  H    3.385417   1.084800   7.118603   6.637291   5.818196
    34  C    8.709358   7.659884   1.390070   3.389995   1.390095
    35  H    9.145591   8.633852   1.084348   2.465033   3.387137
    36  H    8.482109   6.903971   3.387136   4.943698   1.084363
    37  H    8.627289   9.740435   9.783559   7.899418  10.784997
    38  C    2.408878   2.408889   9.781478   8.882743   8.860440
    39  H    2.144453   3.858761  10.344405   9.066139   9.895553
    40  H    3.858751   2.144441   9.369482   8.905073   7.969536
    41  H    9.741711   8.628862   2.150513   4.285366   2.150453
    42  H    3.392063   3.392069  10.781315   9.931179   9.787018
                   26         27         28         29         30
    26  H    0.000000
    27  C    8.890418   0.000000
    28  H    9.121705   2.149185   0.000000
    29  H    8.862523   2.149210   4.286129   0.000000
    30  C    7.121630   8.858761   9.300879   8.654135   0.000000
    31  H    6.643746   6.968028   7.211505   7.109140   2.145313
    32  C    5.817122   9.781213  10.390599   9.318693   2.402462
    33  H    3.763276   8.882760   9.493138   8.448919   3.859075
    34  C    3.389959   9.853917   9.477780  10.394376   9.782234
    35  H    4.943333   9.140860   8.358221  10.091997  10.343562
    36  H    2.465578  10.693357  10.680779  10.838345   9.371467
    37  H    9.938188   1.084125   2.479166   2.479130   9.785633
    38  C    6.969712   9.852994  10.405154   9.466988   1.390081
    39  H    8.143918   9.146032   9.527108   9.010608   1.084353
    40  H    6.021000  10.687226  11.357690  10.116288   3.387152
    41  H    4.285396  10.806408  10.371545  11.371143  10.781792
    42  H    7.906179  10.805497  11.381268  10.361751   2.150451
                   31         32         33         34         35
    31  H    0.000000
    32  C    3.859055   0.000000
    33  H    4.283308   2.145356   0.000000
    34  C    8.883693   8.860047   6.969499   0.000000
    35  H    9.064207   9.893547   8.140394   2.149187   0.000000
    36  H    8.908597   7.970392   6.024369   2.149200   4.286112
    37  H    7.905463  10.780506   9.930318  10.806584  10.007367
    38  C    3.389900   1.390094   3.389946   9.854100  10.686951
    39  H    2.465597   3.387150   4.943418  10.688111  11.122726
    40  H    4.943399   1.084354   2.465647   9.147341  10.372571
    41  H    9.931470   9.787155   7.907066   1.084123   2.479233
    42  H    4.285343   2.150458   4.285392  10.806525  11.688828
                   36         37         38         39         40
    36  H    0.000000
    37  H   11.694869   0.000000
    38  C    9.148051  10.805250   0.000000
    39  H   10.374492  10.012146   2.149134   0.000000
    40  H    8.023201  11.688295   2.149152   4.286037   0.000000
    41  H    2.479104  11.731887  10.806626  11.689465  10.013697
    42  H   10.013557  11.730525   1.084114   2.479039   2.479054
                   41         42
    41  H    0.000000
    42  H   11.731844   0.000000
 Stoichiometry    C24H18
 Framework group  C1[X(C24H18)]
 Deg. of freedom   120
 Full point group                 C1      NOp   1
 Largest Abelian subgroup         C1      NOp   1
 Largest concise Abelian subgroup C1      NOp   1
                         Standard orientation:                         
 ---------------------------------------------------------------------
 Center     Atomic      Atomic             Coordinates (Angstroms)
 Number     Number       Type             X           Y           Z
 ---------------------------------------------------------------------
      1          6           0       -1.399845   -0.066771    0.041288
      2          6           0       -0.748103    1.165626    0.046310
      3          6           0       -0.635661   -1.232158   -0.004756
      4          6           0        0.643146    1.245927    0.005526
      5          1           0       -1.333808    2.078105    0.082412
      6          6           0       -2.881615   -0.137254    0.101589
      7          6           0        0.757095   -1.179426   -0.046485
      8          1           0       -1.131247   -2.196339    0.036583
      9          6           0        1.384399    0.065880   -0.041113
     10          6           0        1.322749    2.565862   -0.006520
     11          6           0       -3.664207    0.363736   -0.941362
     12          6           0       -3.523745   -0.706625    1.203736
     13          6           0        1.558648   -2.427940   -0.096108
     14          1           0        2.465223    0.118245   -0.118825
     15          6           0        0.839792    3.611102   -0.797358
     16          6           0        2.459297    2.789836    0.774069
     17          6           0       -5.050288    0.296193   -0.884503
     18          1           0       -3.182048    0.829822   -1.794005
     19          6           0       -4.909705   -0.774429    1.261599
     20          1           0       -2.929891   -1.118430    2.012813
     21          6           0        1.179231   -3.487614   -0.923310
     22          6           0        2.709285   -2.569076    0.683156
     23          6           0        1.475345    4.845998   -0.807344
     24          1           0       -0.028638    3.447135   -1.426371
     25          6           0        3.095640    4.024305    0.764588
     26          1           0        2.834790    1.994926    1.409670
     27          6           0       -5.678139   -0.273782    0.216974
     28          1           0       -5.641850    0.697586   -1.699827
     29          1           0       -5.390659   -1.226749    2.121787
     30          6           0        1.928809   -4.655844   -0.970260
     31          1           0        0.300465   -3.385621   -1.551121
     32          6           0        3.459947   -3.736625    0.636749
     33          1           0        3.005501   -1.763955    1.347104
     34          6           0        2.605661    5.057181   -0.026267
     35          1           0        1.090827    5.643298   -1.433657
     36          1           0        3.972397    4.182208    1.382816
     37          1           0       -6.760067   -0.326358    0.261651
     38          6           0        3.072234   -4.784501   -0.190292
     39          1           0        1.623278   -5.465042   -1.624226
     40          1           0        4.346061   -3.831260    1.254545
     41          1           0        3.102051    6.020955   -0.034034
     42          1           0        3.657811   -5.696133   -0.226762
 ---------------------------------------------------------------------
 Rotational constants (GHZ):           0.1977338           0.1952981           0.1043796
 Leave Link  202 at Mon Nov 14 15:19:36 2022, MaxMem= 16106127360 cpu:               0.2 elap:               0.0
 (Enter /opt/ap/G16/B01/g16/l301.exe)
 Standard basis: 6-311++G(d,p) (5D, 7F)
 Ernie: Thresh=  0.10000D-02 Tol=  0.10000D-05 Strict=F.
 There are   678 symmetry adapted cartesian basis functions of A   symmetry.
 There are   654 symmetry adapted basis functions of A   symmetry.
   654 basis functions,  1026 primitive gaussians,   678 cartesian basis functions
    81 alpha electrons       81 beta electrons
       nuclear repulsion energy      1731.2342025777 Hartrees.
 IExCor= 4639 DFT=T Ex+Corr=wB97XD ExCW=0 ScaHFX=  1.000000
 ScaDFX=  1.000000  1.000000  1.000000  1.000000 ScalE2=  1.000000  1.000000
 IRadAn=      5 IRanWt=     -1 IRanGd=            0 ICorTp=0 IEmpDi=121
 HFx  wShort=  0.000000 wLong=  0.200000 cFull=  0.222036 cShort=  0.000000 cLong=  0.777964
 DFx  wShort=  0.000000 wLong=  0.200000 cFull=  0.000000 cShort=  0.000000 cLong=  1.000000
 NAtoms=   42 NActive=   42 NUniq=   42 SFac= 1.00D+00 NAtFMM=   60 NAOKFM=F Big=F
 Integral buffers will be    131072 words long.
 Raffenetti 2 integral format.
 Two-electron integral symmetry is turned on.
 R6Disp:  Grimme-D2 Dispersion energy=       -0.0288161003 Hartrees.
 Nuclear repulsion after empirical dispersion term =     1731.2053864774 Hartrees.
 Leave Link  301 at Mon Nov 14 15:19:36 2022, MaxMem= 16106127360 cpu:               1.7 elap:               0.1
 (Enter /opt/ap/G16/B01/g16/l302.exe)
 NPDir=0 NMtPBC=     1 NCelOv=     1 NCel=       1 NClECP=     1 NCelD=      1
         NCelK=      1 NCelE2=     1 NClLst=     1 CellRange=     0.0.
 One-electron integrals computed using PRISM.
 One-electron integral symmetry used in STVInt
 NBasis=   654 RedAO= T EigKep=  1.40D-06  NBF=   654
 NBsUse=   645 1.00D-06 EigRej=  9.75D-07 NBFU=   645
 Precomputing XC quadrature grid using
 IXCGrd= 4 IRadAn=           5 IRanWt=          -1 IRanGd=           0 AccXCQ= 0.00D+00.
 Generated NRdTot=       0 NPtTot=           0 NUsed=           0 NTot=          32
 NSgBfM=   669   669   669   669   669 MxSgAt=    42 MxSgA2=    42.
 Leave Link  302 at Mon Nov 14 15:19:36 2022, MaxMem= 16106127360 cpu:              21.0 elap:               0.7
 (Enter /opt/ap/G16/B01/g16/l303.exe)
 DipDrv:  MaxL=1.
 Leave Link  303 at Mon Nov 14 15:19:36 2022, MaxMem= 16106127360 cpu:               2.8 elap:               0.1
 (Enter /opt/ap/G16/B01/g16/l401.exe)
 ExpMin= 3.60D-02 ExpMax= 4.56D+03 ExpMxC= 6.82D+02 IAcc=3 IRadAn=         5 AccDes= 0.00D+00
 Harris functional with IExCor= 4639 and IRadAn=       5 diagonalized for initial guess.
 HarFok:  IExCor= 4639 AccDes= 0.00D+00 IRadAn=         5 IDoV= 1 UseB2=F ITyADJ=14
 ICtDFT=  3500011 ScaDFX=  1.000000  1.000000  1.000000  1.000000
 FoFCou: FMM=F IPFlag=           0 FMFlag=      100000 FMFlg1=           0
         NFxFlg=           0 DoJE=T BraDBF=F KetDBF=T FulRan=T
         wScrn=  0.000000 ICntrl=       500 IOpCl=  0 I1Cent=   200000004 NGrid=           0
         NMat0=    1 NMatS0=      1 NMatT0=    0 NMatD0=    1 NMtDS0=    0 NMtDT0=    0
 Petite list used in FoFCou.
 Harris En= -882.968880005804    
 JPrj=0 DoOrth=F DoCkMO=F.
 Leave Link  401 at Mon Nov 14 15:19:38 2022, MaxMem= 16106127360 cpu:              55.4 elap:               1.7
 (Enter /opt/ap/G16/B01/g16/l502.exe)
 Integral symmetry usage will be decided dynamically.
 Closed shell SCF:
 Using DIIS extrapolation, IDIIS=  1040.
 NGot= 16106127360 LenX= 16105179956 LenY= 16104719594
 Requested convergence on RMS density matrix=1.00D-08 within 512 cycles.
 Requested convergence on MAX density matrix=1.00D-06.
 Requested convergence on             energy=1.00D-06.
 No special actions if energy rises.
 Fock matrices will be formed incrementally for  20 cycles.

 Cycle   1  Pass 1  IDiag  1:
 FoFJK:  IHMeth= 1 ICntrl=       0 DoSepK=T KAlg= 0 I1Cent=           0 FoldK=F
 IRaf=         1 NMat=       1 IRICut=       1 DoRegI=T DoRafI=F ISym2E= 0 IDoP0=0 IntGTp=1.
 FoFCou: FMM=F IPFlag=           0 FMFlag=      100000 FMFlg1=           0
         NFxFlg=           0 DoJE=T BraDBF=F KetDBF=F FulRan=T
         wScrn=  0.000000 ICntrl=       500 IOpCl=  0 I1Cent=           0 NGrid=           0
         NMat0=    1 NMatS0=      1 NMatT0=    0 NMatD0=    1 NMtDS0=    0 NMtDT0=    0
 Symmetry not used in FoFCou.
 E= -925.115411732897    
 DIIS: error= 4.62D-02 at cycle   1 NSaved=   1.
 NSaved= 1 IEnMin= 1 EnMin= -925.115411732897     IErMin= 1 ErrMin= 4.62D-02
 ErrMax= 4.62D-02  0.00D+00 EMaxC= 1.00D-01 BMatC= 1.90D+00 BMatP= 1.90D+00
 IDIUse=3 WtCom= 5.38D-01 WtEn= 4.62D-01
 Coeff-Com:  0.100D+01
 Coeff-En:   0.100D+01
 Coeff:      0.100D+01
 Gap=     0.318 Goal=   None    Shift=    0.000
 GapD=    0.318 DampG=1.000 DampE=0.500 DampFc=0.5000 IDamp=-1.
 Damping current iteration by 5.00D-01
 RMSDP=3.54D-02 MaxDP=4.51D+00              OVMax= 4.31D-02

 Cycle   2  Pass 1  IDiag  1:
 RMSU=  6.38D-03    CP:  8.14D-01
 E= -925.213829596783     Delta-E=       -0.098417863886 Rises=F Damp=T
 DIIS: error= 2.24D-02 at cycle   2 NSaved=   2.
 NSaved= 2 IEnMin= 2 EnMin= -925.213829596783     IErMin= 2 ErrMin= 2.24D-02
 ErrMax= 2.24D-02  0.00D+00 EMaxC= 1.00D-01 BMatC= 4.32D-01 BMatP= 1.90D+00
 IDIUse=3 WtCom= 7.76D-01 WtEn= 2.24D-01
 Coeff-Com: -0.883D+00 0.188D+01
 Coeff-En:   0.000D+00 0.100D+01
 Coeff:     -0.685D+00 0.168D+01
 Gap=     0.327 Goal=   None    Shift=    0.000
 RMSDP=2.04D-02 MaxDP=2.02D+00 DE=-9.84D-02 OVMax= 3.43D-02

 Cycle   3  Pass 1  IDiag  1:
 RMSU=  3.74D-03    CP:  5.90D-01  1.32D+00
 E= -925.301921835361     Delta-E=       -0.088092238578 Rises=F Damp=F
 DIIS: error= 3.41D-03 at cycle   3 NSaved=   3.
 NSaved= 3 IEnMin= 3 EnMin= -925.301921835361     IErMin= 3 ErrMin= 3.41D-03
 ErrMax= 3.41D-03  0.00D+00 EMaxC= 1.00D-01 BMatC= 8.83D-03 BMatP= 4.32D-01
 IDIUse=3 WtCom= 9.66D-01 WtEn= 3.41D-02
 Coeff-Com: -0.371D+00 0.788D+00 0.584D+00
 Coeff-En:   0.000D+00 0.000D+00 0.100D+01
 Coeff:     -0.359D+00 0.761D+00 0.598D+00
 Gap=     0.325 Goal=   None    Shift=    0.000
 RMSDP=1.99D-03 MaxDP=2.07D-01 DE=-8.81D-02 OVMax= 1.98D-02

 Cycle   4  Pass 1  IDiag  1:
 RMSU=  1.38D-03    CP:  5.91D-01  1.50D+00  7.59D-01
 E= -925.310010751312     Delta-E=       -0.008088915951 Rises=F Damp=F
 DIIS: error= 7.76D-04 at cycle   4 NSaved=   4.
 NSaved= 4 IEnMin= 4 EnMin= -925.310010751312     IErMin= 4 ErrMin= 7.76D-04
 ErrMax= 7.76D-04  0.00D+00 EMaxC= 1.00D-01 BMatC= 2.80D-04 BMatP= 8.83D-03
 IDIUse=3 WtCom= 9.92D-01 WtEn= 7.76D-03
 Coeff-Com: -0.113D+00 0.241D+00 0.237D+00 0.636D+00
 Coeff-En:   0.000D+00 0.000D+00 0.000D+00 0.100D+01
 Coeff:     -0.113D+00 0.239D+00 0.235D+00 0.638D+00
 Gap=     0.323 Goal=   None    Shift=    0.000
 RMSDP=6.19D-04 MaxDP=5.51D-02 DE=-8.09D-03 OVMax= 4.30D-03

 Cycle   5  Pass 1  IDiag  1:
 RMSU=  2.21D-04    CP:  5.85D-01  1.54D+00  7.71D-01  8.59D-01
 E= -925.310303035635     Delta-E=       -0.000292284323 Rises=F Damp=F
 DIIS: error= 1.87D-04 at cycle   5 NSaved=   5.
 NSaved= 5 IEnMin= 5 EnMin= -925.310303035635     IErMin= 5 ErrMin= 1.87D-04
 ErrMax= 1.87D-04  0.00D+00 EMaxC= 1.00D-01 BMatC= 2.02D-05 BMatP= 2.80D-04
 IDIUse=3 WtCom= 9.98D-01 WtEn= 1.87D-03
 Coeff-Com:  0.260D-01-0.554D-01-0.244D-01 0.195D+00 0.858D+00
 Coeff-En:   0.000D+00 0.000D+00 0.000D+00 0.000D+00 0.100D+01
 Coeff:      0.260D-01-0.553D-01-0.243D-01 0.195D+00 0.859D+00
 Gap=     0.323 Goal=   None    Shift=    0.000
 RMSDP=1.75D-04 MaxDP=1.25D-02 DE=-2.92D-04 OVMax= 1.44D-03

 Cycle   6  Pass 1  IDiag  1:
 RMSU=  7.04D-05    CP:  5.85D-01  1.54D+00  7.95D-01  9.35D-01  1.24D+00
 E= -925.310328566552     Delta-E=       -0.000025530917 Rises=F Damp=F
 DIIS: error= 5.70D-05 at cycle   6 NSaved=   6.
 NSaved= 6 IEnMin= 6 EnMin= -925.310328566552     IErMin= 6 ErrMin= 5.70D-05
 ErrMax= 5.70D-05  0.00D+00 EMaxC= 1.00D-01 BMatC= 1.47D-06 BMatP= 2.02D-05
 IDIUse=1 WtCom= 1.00D+00 WtEn= 0.00D+00
 Coeff-Com:  0.135D-01-0.287D-01-0.163D-01 0.541D-01 0.335D+00 0.643D+00
 Coeff:      0.135D-01-0.287D-01-0.163D-01 0.541D-01 0.335D+00 0.643D+00
 Gap=     0.323 Goal=   None    Shift=    0.000
 RMSDP=7.58D-05 MaxDP=5.10D-03 DE=-2.55D-05 OVMax= 4.11D-04

 Cycle   7  Pass 1  IDiag  1:
 RMSU=  4.13D-05    CP:  5.85D-01  1.54D+00  8.00D-01  9.68D-01  1.21D+00
                    CP:  8.18D-01
 E= -925.310330331727     Delta-E=       -0.000001765175 Rises=F Damp=F
 DIIS: error= 1.35D-05 at cycle   7 NSaved=   7.
 NSaved= 7 IEnMin= 7 EnMin= -925.310330331727     IErMin= 7 ErrMin= 1.35D-05
 ErrMax= 1.35D-05  0.00D+00 EMaxC= 1.00D-01 BMatC= 1.05D-07 BMatP= 1.47D-06
 IDIUse=1 WtCom= 1.00D+00 WtEn= 0.00D+00
 Coeff-Com: -0.215D-02 0.462D-02 0.187D-02-0.269D-01-0.949D-01 0.102D+00
 Coeff-Com:  0.102D+01
 Coeff:     -0.215D-02 0.462D-02 0.187D-02-0.269D-01-0.949D-01 0.102D+00
 Coeff:      0.102D+01
 Gap=     0.323 Goal=   None    Shift=    0.000
 RMSDP=1.81D-05 MaxDP=1.71D-03 DE=-1.77D-06 OVMax= 2.68D-04

 Cycle   8  Pass 1  IDiag  1:
 RMSU=  8.47D-06    CP:  5.85D-01  1.54D+00  8.02D-01  9.71D-01  1.24D+00
                    CP:  9.14D-01  1.20D+00
 E= -925.310330560241     Delta-E=       -0.000000228514 Rises=F Damp=F
 DIIS: error= 7.15D-06 at cycle   8 NSaved=   8.
 NSaved= 8 IEnMin= 8 EnMin= -925.310330560241     IErMin= 8 ErrMin= 7.15D-06
 ErrMax= 7.15D-06  0.00D+00 EMaxC= 1.00D-01 BMatC= 1.44D-08 BMatP= 1.05D-07
 IDIUse=1 WtCom= 1.00D+00 WtEn= 0.00D+00
 Coeff-Com: -0.153D-02 0.327D-02 0.158D-02-0.150D-01-0.563D-01 0.268D-01
 Coeff-Com:  0.445D+00 0.596D+00
 Coeff:     -0.153D-02 0.327D-02 0.158D-02-0.150D-01-0.563D-01 0.268D-01
 Coeff:      0.445D+00 0.596D+00
 Gap=     0.323 Goal=   None    Shift=    0.000
 RMSDP=2.79D-06 MaxDP=1.16D-04 DE=-2.29D-07 OVMax= 6.54D-05

 Cycle   9  Pass 1  IDiag  1:
 RMSU=  2.40D-06    CP:  5.85D-01  1.54D+00  8.02D-01  9.71D-01  1.25D+00
                    CP:  9.20D-01  1.22D+00  1.02D+00
 E= -925.310330578960     Delta-E=       -0.000000018719 Rises=F Damp=F
 DIIS: error= 3.06D-06 at cycle   9 NSaved=   9.
 NSaved= 9 IEnMin= 9 EnMin= -925.310330578960     IErMin= 9 ErrMin= 3.06D-06
 ErrMax= 3.06D-06  0.00D+00 EMaxC= 1.00D-01 BMatC= 2.15D-09 BMatP= 1.44D-08
 IDIUse=1 WtCom= 1.00D+00 WtEn= 0.00D+00
 Coeff-Com:  0.118D-03-0.258D-03 0.697D-04 0.291D-02 0.106D-01-0.170D-01
 Coeff-Com: -0.181D+00 0.187D+00 0.997D+00
 Coeff:      0.118D-03-0.258D-03 0.697D-04 0.291D-02 0.106D-01-0.170D-01
 Coeff:     -0.181D+00 0.187D+00 0.997D+00
 Gap=     0.323 Goal=   None    Shift=    0.000
 RMSDP=2.61D-06 MaxDP=1.63D-04 DE=-1.87D-08 OVMax= 4.87D-05

 Cycle  10  Pass 1  IDiag  1:
 RMSU=  5.76D-07    CP:  5.85D-01  1.54D+00  8.02D-01  9.71D-01  1.25D+00
                    CP:  9.24D-01  1.25D+00  1.25D+00  1.01D+00
 E= -925.310330584328     Delta-E=       -0.000000005368 Rises=F Damp=F
 DIIS: error= 8.45D-07 at cycle  10 NSaved=  10.
 NSaved=10 IEnMin=10 EnMin= -925.310330584328     IErMin=10 ErrMin= 8.45D-07
 ErrMax= 8.45D-07  0.00D+00 EMaxC= 1.00D-01 BMatC= 1.97D-10 BMatP= 2.15D-09
 IDIUse=1 WtCom= 1.00D+00 WtEn= 0.00D+00
 Coeff-Com:  0.136D-03-0.292D-03-0.616D-04 0.189D-02 0.684D-02-0.549D-02
 Coeff-Com: -0.849D-01 0.579D-02 0.334D+00 0.742D+00
 Coeff:      0.136D-03-0.292D-03-0.616D-04 0.189D-02 0.684D-02-0.549D-02
 Coeff:     -0.849D-01 0.579D-02 0.334D+00 0.742D+00
 Gap=     0.323 Goal=   None    Shift=    0.000
 RMSDP=3.71D-07 MaxDP=4.19D-05 DE=-5.37D-09 OVMax= 1.02D-05

 Cycle  11  Pass 1  IDiag  1:
 RMSU=  1.35D-07    CP:  5.85D-01  1.54D+00  8.02D-01  9.71D-01  1.25D+00
                    CP:  9.24D-01  1.25D+00  1.26D+00  1.09D+00  1.12D+00
 E= -925.310330584697     Delta-E=       -0.000000000369 Rises=F Damp=F
 DIIS: error= 2.11D-07 at cycle  11 NSaved=  11.
 NSaved=11 IEnMin=11 EnMin= -925.310330584697     IErMin=11 ErrMin= 2.11D-07
 ErrMax= 2.11D-07  0.00D+00 EMaxC= 1.00D-01 BMatC= 3.25D-11 BMatP= 1.97D-10
 IDIUse=1 WtCom= 1.00D+00 WtEn= 0.00D+00
 Coeff-Com:  0.216D-04-0.456D-04-0.197D-04 0.115D-03 0.227D-03 0.128D-02
 Coeff-Com:  0.225D-02-0.353D-01-0.561D-01 0.242D+00 0.845D+00
 Coeff:      0.216D-04-0.456D-04-0.197D-04 0.115D-03 0.227D-03 0.128D-02
 Coeff:      0.225D-02-0.353D-01-0.561D-01 0.242D+00 0.845D+00
 Gap=     0.323 Goal=   None    Shift=    0.000
 RMSDP=1.99D-07 MaxDP=1.94D-05 DE=-3.69D-10 OVMax= 3.18D-06

 Cycle  12  Pass 1  IDiag  1:
 RMSU=  5.85D-08    CP:  5.85D-01  1.54D+00  8.02D-01  9.71D-01  1.25D+00
                    CP:  9.24D-01  1.25D+00  1.27D+00  1.10D+00  1.25D+00
                    CP:  1.33D+00
 E= -925.310330584742     Delta-E=       -0.000000000045 Rises=F Damp=F
 DIIS: error= 8.07D-08 at cycle  12 NSaved=  12.
 NSaved=12 IEnMin=12 EnMin= -925.310330584742     IErMin=12 ErrMin= 8.07D-08
 ErrMax= 8.07D-08  0.00D+00 EMaxC= 1.00D-01 BMatC= 1.36D-12 BMatP= 3.25D-11
 IDIUse=1 WtCom= 1.00D+00 WtEn= 0.00D+00
 Coeff-Com: -0.145D-04 0.314D-04 0.103D-04-0.223D-03-0.820D-03 0.852D-03
 Coeff-Com:  0.994D-02-0.283D-02-0.352D-01-0.609D-01-0.641D-01 0.115D+01
 Coeff:     -0.145D-04 0.314D-04 0.103D-04-0.223D-03-0.820D-03 0.852D-03
 Coeff:      0.994D-02-0.283D-02-0.352D-01-0.609D-01-0.641D-01 0.115D+01
 Gap=     0.323 Goal=   None    Shift=    0.000
 RMSDP=6.12D-08 MaxDP=3.09D-06 DE=-4.46D-11 OVMax= 1.22D-06

 Cycle  13  Pass 1  IDiag  1:
 RMSU=  2.24D-08    CP:  5.85D-01  1.54D+00  8.02D-01  9.71D-01  1.25D+00
                    CP:  9.24D-01  1.25D+00  1.27D+00  1.10D+00  1.30D+00
                    CP:  1.48D+00  1.40D+00
 E= -925.310330584742     Delta-E=       -0.000000000000 Rises=F Damp=F
 DIIS: error= 3.16D-08 at cycle  13 NSaved=  13.
 NSaved=13 IEnMin=13 EnMin= -925.310330584742     IErMin=13 ErrMin= 3.16D-08
 ErrMax= 3.16D-08  0.00D+00 EMaxC= 1.00D-01 BMatC= 1.62D-13 BMatP= 1.36D-12
 IDIUse=1 WtCom= 1.00D+00 WtEn= 0.00D+00
 Coeff-Com: -0.488D-05 0.105D-04 0.424D-05-0.632D-04-0.219D-03 0.172D-03
 Coeff-Com:  0.237D-02 0.105D-02-0.510D-02-0.252D-01-0.710D-01 0.308D+00
 Coeff-Com:  0.790D+00
 Coeff:     -0.488D-05 0.105D-04 0.424D-05-0.632D-04-0.219D-03 0.172D-03
 Coeff:      0.237D-02 0.105D-02-0.510D-02-0.252D-01-0.710D-01 0.308D+00
 Coeff:      0.790D+00
 Gap=     0.323 Goal=   None    Shift=    0.000
 RMSDP=1.20D-08 MaxDP=6.32D-07 DE=-4.55D-13 OVMax= 2.99D-07

 Cycle  14  Pass 1  IDiag  1:
 RMSU=  6.17D-09    CP:  5.85D-01  1.54D+00  8.02D-01  9.71D-01  1.25D+00
                    CP:  9.24D-01  1.25D+00  1.27D+00  1.10D+00  1.30D+00
                    CP:  1.49D+00  1.49D+00  1.20D+00
 E= -925.310330584761     Delta-E=       -0.000000000019 Rises=F Damp=F
 DIIS: error= 7.81D-09 at cycle  14 NSaved=  14.
 NSaved=14 IEnMin=14 EnMin= -925.310330584761     IErMin=14 ErrMin= 7.81D-09
 ErrMax= 7.81D-09  0.00D+00 EMaxC= 1.00D-01 BMatC= 4.88D-14 BMatP= 1.62D-13
 IDIUse=1 WtCom= 1.00D+00 WtEn= 0.00D+00
 Coeff-Com:  0.603D-06-0.134D-05-0.168D-06 0.138D-04 0.577D-04-0.813D-04
 Coeff-Com: -0.816D-03 0.867D-03 0.411D-02 0.546D-03-0.222D-01-0.890D-01
 Coeff-Com:  0.353D+00 0.754D+00
 Coeff:      0.603D-06-0.134D-05-0.168D-06 0.138D-04 0.577D-04-0.813D-04
 Coeff:     -0.816D-03 0.867D-03 0.411D-02 0.546D-03-0.222D-01-0.890D-01
 Coeff:      0.353D+00 0.754D+00
 Gap=     0.323 Goal=   None    Shift=    0.000
 RMSDP=8.75D-09 MaxDP=5.79D-07 DE=-1.86D-11 OVMax= 9.81D-08

 SCF Done:  E(RwB97XD) =  -925.310330585     A.U. after   14 cycles
            NFock= 14  Conv=0.87D-08     -V/T= 2.0044
 KE= 9.212941798359D+02 PE=-5.608887524929D+03 EE= 2.031077628031D+03
 Leave Link  502 at Mon Nov 14 15:22:03 2022, MaxMem= 16106127360 cpu:            4617.7 elap:             145.2
 (Enter /opt/ap/G16/B01/g16/l601.exe)
 Copying SCF densities to generalized density rwf, IOpCl= 0 IROHF=0.

 **********************************************************************

            Population analysis using the SCF Density.

 **********************************************************************

 Orbital symmetries:
       Occupied  (A) (A) (A) (A) (A) (A) (A) (A) (A) (A) (A) (A)
                 (A) (A) (A) (A) (A) (A) (A) (A) (A) (A) (A) (A)
                 (A) (A) (A) (A) (A) (A) (A) (A) (A) (A) (A) (A)
                 (A) (A) (A) (A) (A) (A) (A) (A) (A) (A) (A) (A)
                 (A) (A) (A) (A) (A) (A) (A) (A) (A) (A) (A) (A)
                 (A) (A) (A) (A) (A) (A) (A) (A) (A) (A) (A) (A)
                 (A) (A) (A) (A) (A) (A) (A) (A) (A)
       Virtual   (A) (A) (A) (A) (A) (A) (A) (A) (A) (A) (A) (A)
                 (A) (A) (A) (A) (A) (A) (A) (A) (A) (A) (A) (A)
                 (A) (A) (A) (A) (A) (A) (A) (A) (A) (A) (A) (A)
                 (A) (A) (A) (A) (A) (A) (A) (A) (A) (A) (A) (A)
                 (A) (A) (A) (A) (A) (A) (A) (A) (A) (A) (A) (A)
                 (A) (A) (A) (A) (A) (A) (A) (A) (A) (A) (A) (A)
                 (A) (A) (A) (A) (A) (A) (A) (A) (A) (A) (A) (A)
                 (A) (A) (A) (A) (A) (A) (A) (A) (A) (A) (A) (A)
                 (A) (A) (A) (A) (A) (A) (A) (A) (A) (A) (A) (A)
                 (A) (A) (A) (A) (A) (A) (A) (A) (A) (A) (A) (A)
                 (A) (A) (A) (A) (A) (A) (A) (A) (A) (A) (A) (A)
                 (A) (A) (A) (A) (A) (A) (A) (A) (A) (A) (A) (A)
                 (A) (A) (A) (A) (A) (A) (A) (A) (A) (A) (A) (A)
                 (A) (A) (A) (A) (A) (A) (A) (A) (A) (A) (A) (A)
                 (A) (A) (A) (A) (A) (A) (A) (A) (A) (A) (A) (A)
                 (A) (A) (A) (A) (A) (A) (A) (A) (A) (A) (A) (A)
                 (A) (A) (A) (A) (A) (A) (A) (A) (A) (A) (A) (A)
                 (A) (A) (A) (A) (A) (A) (A) (A) (A) (A) (A) (A)
                 (A) (A) (A) (A) (A) (A) (A) (A) (A) (A) (A) (A)
                 (A) (A) (A) (A) (A) (A) (A) (A) (A) (A) (A) (A)
                 (A) (A) (A) (A) (A) (A) (A) (A) (A) (A) (A) (A)
                 (A) (A) (A) (A) (A) (A) (A) (A) (A) (A) (A) (A)
                 (A) (A) (A) (A) (A) (A) (A) (A) (A) (A) (A) (A)
                 (A) (A) (A) (A) (A) (A) (A) (A) (A) (A) (A) (A)
                 (A) (A) (A) (A) (A) (A) (A) (A) (A) (A) (A) (A)
                 (A) (A) (A) (A) (A) (A) (A) (A) (A) (A) (A) (A)
                 (A) (A) (A) (A) (A) (A) (A) (A) (A) (A) (A) (A)
                 (A) (A) (A) (A) (A) (A) (A) (A) (A) (A) (A) (A)
                 (A) (A) (A) (A) (A) (A) (A) (A) (A) (A) (A) (A)
                 (A) (A) (A) (A) (A) (A) (A) (A) (A) (A) (A) (A)
                 (A) (A) (A) (A) (A) (A) (A) (A) (A) (A) (A) (A)
                 (A) (A) (A) (A) (A) (A) (A) (A) (A) (A) (A) (A)
                 (A) (A) (A) (A) (A) (A) (A) (A) (A) (A) (A) (A)
                 (A) (A) (A) (A) (A) (A) (A) (A) (A) (A) (A) (A)
                 (A) (A) (A) (A) (A) (A) (A) (A) (A) (A) (A) (A)
                 (A) (A) (A) (A) (A) (A) (A) (A) (A) (A) (A) (A)
                 (A) (A) (A) (A) (A) (A) (A) (A) (A) (A) (A) (A)
                 (A) (A) (A) (A) (A) (A) (A) (A) (A) (A) (A) (A)
                 (A) (A) (A) (A) (A) (A) (A) (A) (A) (A) (A) (A)
                 (A) (A) (A) (A) (A) (A) (A) (A) (A) (A) (A) (A)
                 (A) (A) (A) (A) (A) (A) (A) (A) (A) (A) (A) (A)
                 (A) (A) (A) (A) (A) (A) (A) (A) (A) (A) (A) (A)
                 (A) (A) (A) (A) (A) (A) (A) (A) (A) (A) (A) (A)
                 (A) (A) (A) (A) (A) (A) (A) (A) (A) (A) (A) (A)
                 (A) (A) (A) (A) (A) (A) (A) (A) (A) (A) (A) (A)
                 (A) (A) (A) (A) (A) (A) (A) (A) (A) (A) (A) (A)
                 (A) (A) (A) (A) (A) (A) (A) (A) (A) (A) (A) (A)
 The electronic state is 1-A.
 Alpha  occ. eigenvalues --  -10.30392 -10.30392 -10.30365 -10.30321 -10.30304
 Alpha  occ. eigenvalues --  -10.30267 -10.29247 -10.29236 -10.29236 -10.29219
 Alpha  occ. eigenvalues --  -10.29209 -10.29193 -10.29165 -10.29158 -10.29156
 Alpha  occ. eigenvalues --  -10.29151 -10.29114 -10.29112 -10.29101 -10.29084
 Alpha  occ. eigenvalues --  -10.29079 -10.29063 -10.29061 -10.29053  -0.98951
 Alpha  occ. eigenvalues --   -0.97044  -0.97016  -0.95255  -0.89403  -0.89384
 Alpha  occ. eigenvalues --   -0.85324  -0.85279  -0.85216  -0.85040  -0.82258
 Alpha  occ. eigenvalues --   -0.82226  -0.73522  -0.73318  -0.71127  -0.70664
 Alpha  occ. eigenvalues --   -0.70268  -0.70101  -0.66781  -0.66682  -0.63472
 Alpha  occ. eigenvalues --   -0.60693  -0.60651  -0.58714  -0.57173  -0.56533
 Alpha  occ. eigenvalues --   -0.54930  -0.54764  -0.54467  -0.54251  -0.53016
 Alpha  occ. eigenvalues --   -0.51906  -0.51425  -0.51299  -0.51117  -0.50840
 Alpha  occ. eigenvalues --   -0.50772  -0.47748  -0.46654  -0.46131  -0.45975
 Alpha  occ. eigenvalues --   -0.45570  -0.45042  -0.44303  -0.43154  -0.43061
 Alpha  occ. eigenvalues --   -0.42893  -0.41815  -0.41451  -0.36521  -0.35605
 Alpha  occ. eigenvalues --   -0.33623  -0.33608  -0.33597  -0.33016  -0.30960
 Alpha  occ. eigenvalues --   -0.30232
 Alpha virt. eigenvalues --    0.02102   0.02789   0.03674   0.04206   0.04323
 Alpha virt. eigenvalues --    0.04790   0.04902   0.04912   0.05155   0.05246
 Alpha virt. eigenvalues --    0.05280   0.05679   0.05726   0.06782   0.06897
 Alpha virt. eigenvalues --    0.07005   0.07444   0.07950   0.08027   0.08452
 Alpha virt. eigenvalues --    0.08662   0.08929   0.09153   0.09554   0.11122
 Alpha virt. eigenvalues --    0.11508   0.12072   0.12302   0.12732   0.13311
 Alpha virt. eigenvalues --    0.13614   0.13974   0.14184   0.14586   0.15261
 Alpha virt. eigenvalues --    0.15560   0.15811   0.15872   0.16098   0.16282
 Alpha virt. eigenvalues --    0.16572   0.16852   0.17033   0.17434   0.17521
 Alpha virt. eigenvalues --    0.17534   0.17723   0.17917   0.18054   0.18096
 Alpha virt. eigenvalues --    0.18261   0.18335   0.18428   0.18704   0.18952
 Alpha virt. eigenvalues --    0.19128   0.19378   0.19447   0.20053   0.20347
 Alpha virt. eigenvalues --    0.20518   0.20682   0.20980   0.21195   0.21474
 Alpha virt. eigenvalues --    0.21992   0.22339   0.22545   0.22647   0.22859
 Alpha virt. eigenvalues --    0.23035   0.23237   0.23411   0.23739   0.23829
 Alpha virt. eigenvalues --    0.24477   0.24917   0.25152   0.25254   0.25458
 Alpha virt. eigenvalues --    0.25578   0.26117   0.26636   0.26914   0.27194
 Alpha virt. eigenvalues --    0.27407   0.27782   0.28070   0.28159   0.28273
 Alpha virt. eigenvalues --    0.28815   0.28901   0.29159   0.29360   0.29520
 Alpha virt. eigenvalues --    0.29789   0.30073   0.30336   0.30842   0.31204
 Alpha virt. eigenvalues --    0.31830   0.31944   0.32193   0.32744   0.33378
 Alpha virt. eigenvalues --    0.33618   0.33870   0.34069   0.34228   0.34341
 Alpha virt. eigenvalues --    0.34909   0.35032   0.35413   0.35544   0.35759
 Alpha virt. eigenvalues --    0.35935   0.36174   0.36585   0.36768   0.37085
 Alpha virt. eigenvalues --    0.37265   0.37479   0.37518   0.38045   0.38117
 Alpha virt. eigenvalues --    0.38239   0.38449   0.38581   0.39447   0.39689
 Alpha virt. eigenvalues --    0.39795   0.40450   0.40784   0.41427   0.41572
 Alpha virt. eigenvalues --    0.42102   0.42258   0.42448   0.42552   0.43298
 Alpha virt. eigenvalues --    0.43580   0.43907   0.44143   0.44617   0.45044
 Alpha virt. eigenvalues --    0.45361   0.46559   0.47606   0.47869   0.47958
 Alpha virt. eigenvalues --    0.48234   0.48878   0.52876   0.53237   0.57070
 Alpha virt. eigenvalues --    0.58209   0.58505   0.59009   0.59438   0.60798
 Alpha virt. eigenvalues --    0.62037   0.62338   0.62649   0.62834   0.63059
 Alpha virt. eigenvalues --    0.63424   0.63626   0.63912   0.64082   0.64180
 Alpha virt. eigenvalues --    0.64514   0.64633   0.65248   0.65599   0.65930
 Alpha virt. eigenvalues --    0.66083   0.66412   0.67057   0.67300   0.67537
 Alpha virt. eigenvalues --    0.68131   0.69009   0.69554   0.70086   0.70635
 Alpha virt. eigenvalues --    0.70769   0.71132   0.71813   0.72427   0.72604
 Alpha virt. eigenvalues --    0.73337   0.73507   0.73777   0.74285   0.74742
 Alpha virt. eigenvalues --    0.75140   0.76089   0.76634   0.77463   0.78072
 Alpha virt. eigenvalues --    0.78985   0.79286   0.80044   0.80362   0.80722
 Alpha virt. eigenvalues --    0.81126   0.81375   0.81609   0.81934   0.82229
 Alpha virt. eigenvalues --    0.82562   0.83031   0.83362   0.83552   0.84325
 Alpha virt. eigenvalues --    0.84541   0.84652   0.85051   0.85540   0.85785
 Alpha virt. eigenvalues --    0.86223   0.87040   0.87315   0.87834   0.88455
 Alpha virt. eigenvalues --    0.89473   0.90128   0.91406   0.91668   0.92069
 Alpha virt. eigenvalues --    0.92126   0.92331   0.93093   0.93571   0.93709
 Alpha virt. eigenvalues --    0.94265   0.94489   0.95134   0.95751   0.96277
 Alpha virt. eigenvalues --    0.96676   0.96785   0.97413   0.97790   0.99438
 Alpha virt. eigenvalues --    0.99946   1.00235   1.00625   1.01130   1.01880
 Alpha virt. eigenvalues --    1.01998   1.03162   1.03612   1.04397   1.05188
 Alpha virt. eigenvalues --    1.05347   1.06132   1.06908   1.07373   1.07678
 Alpha virt. eigenvalues --    1.08057   1.08475   1.09270   1.10170   1.11790
 Alpha virt. eigenvalues --    1.12023   1.12646   1.12902   1.13539   1.14096
 Alpha virt. eigenvalues --    1.14462   1.14704   1.16232   1.16660   1.16947
 Alpha virt. eigenvalues --    1.18029   1.18273   1.18741   1.19487   1.21363
 Alpha virt. eigenvalues --    1.21944   1.22239   1.23172   1.24005   1.24152
 Alpha virt. eigenvalues --    1.24527   1.25250   1.26368   1.29334   1.29982
 Alpha virt. eigenvalues --    1.38516   1.38849   1.40504   1.41545   1.41750
 Alpha virt. eigenvalues --    1.45795   1.47399   1.48235   1.51818   1.54650
 Alpha virt. eigenvalues --    1.56515   1.57614   1.58383   1.59299   1.59636
 Alpha virt. eigenvalues --    1.59988   1.60139   1.60868   1.61345   1.61562
 Alpha virt. eigenvalues --    1.62013   1.62739   1.62914   1.63329   1.63934
 Alpha virt. eigenvalues --    1.64538   1.65595   1.65710   1.65948   1.66370
 Alpha virt. eigenvalues --    1.67081   1.67307   1.68012   1.68593   1.69316
 Alpha virt. eigenvalues --    1.70471   1.73043   1.73275   1.74013   1.74187
 Alpha virt. eigenvalues --    1.74521   1.74817   1.75412   1.75717   1.76640
 Alpha virt. eigenvalues --    1.76950   1.78610   1.81747   1.82105   1.82911
 Alpha virt. eigenvalues --    1.82925   1.83539   1.84252   1.84598   1.84937
 Alpha virt. eigenvalues --    1.85749   1.86382   1.86618   1.87016   1.87969
 Alpha virt. eigenvalues --    1.88788   1.89336   1.92469   1.92762   1.92953
 Alpha virt. eigenvalues --    1.93547   1.94405   1.97043   1.99454   1.99909
 Alpha virt. eigenvalues --    2.00250   2.00998   2.02146   2.02499   2.02828
 Alpha virt. eigenvalues --    2.02984   2.03487   2.04205   2.04455   2.04629
 Alpha virt. eigenvalues --    2.04789   2.05182   2.05552   2.05834   2.06341
 Alpha virt. eigenvalues --    2.06621   2.07261   2.07983   2.09093   2.09308
 Alpha virt. eigenvalues --    2.10771   2.11328   2.11760   2.12387   2.13150
 Alpha virt. eigenvalues --    2.13433   2.14810   2.15018   2.16824   2.17296
 Alpha virt. eigenvalues --    2.18250   2.18678   2.19723   2.20980   2.21894
 Alpha virt. eigenvalues --    2.23019   2.28037   2.29619   2.33413   2.35010
 Alpha virt. eigenvalues --    2.35891   2.36894   2.37930   2.39675   2.42281
 Alpha virt. eigenvalues --    2.44418   2.44709   2.47449   2.48942   2.50363
 Alpha virt. eigenvalues --    2.52202   2.53187   2.53457   2.54245   2.55177
 Alpha virt. eigenvalues --    2.55404   2.56322   2.56391   2.56778   2.57432
 Alpha virt. eigenvalues --    2.58520   2.58733   2.62203   2.62921   2.66102
 Alpha virt. eigenvalues --    2.72859   2.73187   2.73619   2.75573   2.75912
 Alpha virt. eigenvalues --    2.75944   2.76263   2.77379   2.79294   2.79638
 Alpha virt. eigenvalues --    2.80104   2.80380   2.80552   2.80895   2.81147
 Alpha virt. eigenvalues --    2.81786   2.82466   2.82853   2.83123   2.83424
 Alpha virt. eigenvalues --    2.83959   2.84217   2.85760   2.86063   2.87125
 Alpha virt. eigenvalues --    2.87706   2.88233   2.88592   2.89602   2.90670
 Alpha virt. eigenvalues --    2.92030   2.92480   2.92589   2.92810   2.93116
 Alpha virt. eigenvalues --    2.93608   2.94253   2.94629   2.95022   2.97848
 Alpha virt. eigenvalues --    2.98757   2.99514   3.00903   3.01302   3.01931
 Alpha virt. eigenvalues --    3.03585   3.04647   3.05100   3.05224   3.05591
 Alpha virt. eigenvalues --    3.06192   3.07002   3.07812   3.08643   3.11570
 Alpha virt. eigenvalues --    3.12123   3.16137   3.18841   3.19926   3.20249
 Alpha virt. eigenvalues --    3.21888   3.23227   3.25982   3.30826   3.31804
 Alpha virt. eigenvalues --    3.32325   3.33689   3.34751   3.36544   3.37486
 Alpha virt. eigenvalues --    3.46620   3.47439   3.49140   3.49550   3.49693
 Alpha virt. eigenvalues --    3.50089   3.53419   3.53717   3.60489   3.60915
 Alpha virt. eigenvalues --    3.61156   3.63697   3.64838   3.65424   3.66266
 Alpha virt. eigenvalues --    3.73750   3.74044   3.76327   3.76386   3.76983
 Alpha virt. eigenvalues --    3.77443   3.90992   3.92615   3.95273   4.09765
 Alpha virt. eigenvalues --    4.09941   4.10273   4.14511   4.14589   4.14666
 Alpha virt. eigenvalues --    4.24242   4.24401   4.25677   4.26108   4.26491
 Alpha virt. eigenvalues --    4.26920   4.27677   4.27940   4.48201   4.63618
 Alpha virt. eigenvalues --    4.66906   4.94075   4.95580   4.95740   4.98720
 Alpha virt. eigenvalues --   23.68319  23.81556  23.82106  23.88087  24.08360
 Alpha virt. eigenvalues --   24.08420  24.10930  24.10959  24.11277  24.11410
 Alpha virt. eigenvalues --   24.12918  24.13419  24.20210  24.20490  24.20962
 Alpha virt. eigenvalues --   24.24059  24.24322  24.24373  24.24611  24.25626
 Alpha virt. eigenvalues --   24.31463  24.33827  24.34024  24.35135
          Condensed to atoms (all electrons):
               1          2          3          4          5          6
     1  C   18.663077   0.836437   1.612396  -6.229072   0.080974   0.239140
     2  C    0.836437  12.862739   0.181009   1.672004   0.358081  -2.710836
     3  C    1.612396   0.181009  12.383158  -2.427964   0.031368  -1.956095
     4  C   -6.229072   1.672004  -2.427964  19.685551  -0.213293  -0.568083
     5  H    0.080974   0.358081   0.031368  -0.213293   0.501634  -0.010839
     6  C    0.239140  -2.710836  -1.956095  -0.568083  -0.010839  13.048164
     7  C   -5.201877  -2.399686   1.637133  -7.664011   0.131052   0.044917
     8  H    0.036868   0.116203   0.354931   0.116438  -0.002954  -0.070538
     9  C   -3.362889  -0.334576  -0.659138   1.626548   0.054135  -1.454806
    10  C   -0.282371  -2.031598  -1.601676   0.545372  -0.042232   1.002876
    11  C   -0.883847   1.133979  -1.190565   1.037443  -0.028622  -0.557631
    12  C   -0.690354  -0.833955   0.397992  -0.474442  -0.021226  -0.012997
    13  C   -0.386864  -1.549019  -2.269584  -0.600092  -0.028472   0.946813
    14  H    0.095402   0.060086   0.066977  -0.045772  -0.001996  -0.011857
    15  C    1.813280   2.216412   0.216247  -0.961923  -0.041600   0.098652
    16  C   -1.381704  -2.566948  -0.159032  -1.255160   0.006860   0.065388
    17  C    0.136930   0.002477   0.201219   0.101450   0.008683  -1.311901
    18  H    0.008215   0.009141  -0.024978  -0.006607   0.003951   0.025853
    19  C   -0.319697   0.021440   0.810136  -0.074455   0.010530  -1.530387
    20  H    0.055695  -0.044353  -0.034045  -0.016948  -0.002114   0.066780
    21  C    1.626850   0.057219   2.619996  -0.716938  -0.015401   0.274208
    22  C   -1.479933  -0.050612  -3.349465   1.617093   0.014385  -0.111243
    23  C    0.193320   0.326571   0.093064   0.040682  -0.018280  -0.092697
    24  H   -0.038188  -0.038063  -0.017672   0.024852  -0.001797   0.019044
    25  C   -0.076968   0.125803   0.051754  -0.095962   0.027725  -0.023823
    26  H   -0.006640  -0.032404  -0.016289   0.095536  -0.004800   0.009632
    27  C   -0.204600   0.096916  -0.323450   0.044813  -0.000049  -0.362990
    28  H    0.005132  -0.008263   0.010187  -0.001626  -0.000898   0.038209
    29  H    0.000358   0.000378   0.009698   0.001901   0.000281   0.030863
    30  C    0.334000   0.060926   0.637769  -0.082317  -0.000732  -0.011088
    31  H   -0.022748  -0.028952  -0.019722  -0.001857  -0.000335   0.031809
    32  C   -0.040680   0.078767   0.159465   0.194915   0.001970  -0.064085
    33  H   -0.002115  -0.010292  -0.037407  -0.079896   0.000620   0.009285
    34  C   -0.023563  -0.146388  -0.020787  -0.243792  -0.012438   0.034993
    35  H    0.003214   0.006072   0.000867   0.002536   0.000049  -0.002554
    36  H    0.002914   0.008773  -0.000383   0.001111   0.001069  -0.000706
    37  H   -0.006247   0.000016  -0.009885   0.001826   0.000131   0.013773
    38  C   -0.083502  -0.027090  -0.229048   0.022229   0.000137   0.030303
    39  H    0.005820   0.001130   0.005043   0.003076  -0.000035  -0.001892
    40  H    0.002579  -0.000090   0.008171   0.004690  -0.000056  -0.000543
    41  H    0.000307  -0.005593  -0.000743  -0.006510  -0.000423   0.000948
    42  H   -0.000489  -0.000816  -0.005997   0.001028  -0.000005   0.000725
               7          8          9         10         11         12
     1  C   -5.201877   0.036868  -3.362889  -0.282371  -0.883847  -0.690354
     2  C   -2.399686   0.116203  -0.334576  -2.031598   1.133979  -0.833955
     3  C    1.637133   0.354931  -0.659138  -1.601676  -1.190565   0.397992
     4  C   -7.664011   0.116438   1.626548   0.545372   1.037443  -0.474442
     5  H    0.131052  -0.002954   0.054135  -0.042232  -0.028622  -0.021226
     6  C    0.044917  -0.070538  -1.454806   1.002876  -0.557631  -0.012997
     7  C   19.442764  -0.156209   0.560244  -0.507691  -0.488591   0.378449
     8  H   -0.156209   0.492267   0.076338  -0.036490   0.049783  -0.106538
     9  C    0.560244   0.076338  13.838027  -2.187969   0.149777  -0.365566
    10  C   -0.507691  -0.036490  -2.187969  12.917140   0.086170   0.162800
    11  C   -0.488591   0.049783   0.149777   0.086170  14.539371  -6.692076
    12  C    0.378449  -0.106538  -0.365566   0.162800  -6.692076  15.347658
    13  C    0.683747  -0.082224  -2.169021   1.346302  -0.098961   0.289126
    14  H   -0.051933  -0.002388   0.263235   0.026966  -0.003822   0.002978
    15  C   -0.825372  -0.017179  -2.725000  -0.789927  -0.063504  -0.007539
    16  C    1.575703   0.015540   2.956863  -0.405407   0.022857   0.027323
    17  C   -0.078488   0.008973   0.038725  -0.098840  -1.066198   0.437314
    18  H    0.008938   0.000041   0.002080   0.020013   0.366511   0.012667
    19  C    0.460500   0.026485   0.086625  -0.016815   0.675984  -2.111573
    20  H   -0.047766  -0.004586  -0.028407   0.014009  -0.019925   0.509992
    21  C   -0.790127  -0.040598  -2.819587   0.185211   0.183566  -0.188078
    22  C   -1.463550   0.008497   3.549937  -0.224496  -0.088479   0.112238
    23  C   -0.111655   0.000864   0.142551  -1.617464  -0.039352   0.003846
    24  H    0.011593  -0.000803  -0.045628  -0.020260   0.011218   0.003702
    25  C    0.234351   0.002053   0.269414  -1.587831   0.022485  -0.017756
    26  H   -0.091772   0.000594  -0.036629   0.019935  -0.000782   0.001897
    27  C   -0.080099  -0.005363  -0.035189   0.040620  -0.448571   0.057763
    28  H    0.001225   0.000076  -0.000392  -0.002941  -0.097443   0.008474
    29  H    0.007242   0.000269   0.001666  -0.000850   0.015292  -0.111891
    30  C   -0.212568   0.033508   0.059977  -0.039312   0.035679  -0.061843
    31  H    0.003880  -0.009120  -0.051237   0.015291  -0.000399   0.008774
    32  C    0.141403   0.017270   0.150855  -0.092534  -0.000311  -0.001530
    33  H    0.082432  -0.004158  -0.016107  -0.006206   0.001637  -0.000590
    34  C    0.016436  -0.000275  -0.033957  -0.126075  -0.009804   0.006528
    35  H    0.000856   0.000013   0.007151   0.023106   0.000559  -0.000434
    36  H    0.005504  -0.000044   0.002511   0.012950   0.000152  -0.000187
    37  H   -0.000445  -0.000267  -0.000861   0.001211   0.003104   0.020026
    38  C   -0.246662  -0.010046   0.066999   0.034221   0.000744   0.000326
    39  H    0.001553   0.000882   0.006010  -0.001064   0.000195  -0.000424
    40  H    0.002894   0.000833  -0.000472  -0.002289   0.000089  -0.000177
    41  H    0.000805  -0.000009  -0.004981   0.021792  -0.000260   0.000194
    42  H   -0.006034  -0.000483  -0.002435   0.001092  -0.000003   0.000066
              13         14         15         16         17         18
     1  C   -0.386864   0.095402   1.813280  -1.381704   0.136930   0.008215
     2  C   -1.549019   0.060086   2.216412  -2.566948   0.002477   0.009141
     3  C   -2.269584   0.066977   0.216247  -0.159032   0.201219  -0.024978
     4  C   -0.600092  -0.045772  -0.961923  -1.255160   0.101450  -0.006607
     5  H   -0.028472  -0.001996  -0.041600   0.006860   0.008683   0.003951
     6  C    0.946813  -0.011857   0.098652   0.065388  -1.311901   0.025853
     7  C    0.683747  -0.051933  -0.825372   1.575703  -0.078488   0.008938
     8  H   -0.082224  -0.002388  -0.017179   0.015540   0.008973   0.000041
     9  C   -2.169021   0.263235  -2.725000   2.956863   0.038725   0.002080
    10  C    1.346302   0.026966  -0.789927  -0.405407  -0.098840   0.020013
    11  C   -0.098961  -0.003822  -0.063504   0.022857  -1.066198   0.366511
    12  C    0.289126   0.002978  -0.007539   0.027323   0.437314   0.012667
    13  C   14.073459   0.059714   0.299296  -0.406670  -0.073521   0.010996
    14  H    0.059714   0.501905   0.074055  -0.137570   0.003181  -0.000501
    15  C    0.299296   0.074055  13.763361  -6.134020  -0.002578  -0.013064
    16  C   -0.406670  -0.137570  -6.134020  14.203706  -0.006164   0.008432
    17  C   -0.073521   0.003181  -0.002578  -0.006164   7.910638  -0.118361
    18  H    0.010996  -0.000501  -0.013064   0.008432  -0.118361   0.474590
    19  C    0.050822  -0.003193   0.016278  -0.003369  -0.721097   0.014394
    20  H    0.022032   0.000637   0.000449  -0.000458   0.019406  -0.001590
    21  C   -1.110456   0.101511   0.188942  -0.245443   0.016579  -0.004953
    22  C   -0.686427  -0.186262  -0.238702   0.434098  -0.007223   0.003440
    23  C   -0.042182   0.004468  -0.379263   0.014220  -0.023511   0.000260
    24  H    0.016019  -0.001890   0.496256  -0.042231  -0.003149  -0.002472
    25  C   -0.071089  -0.011740  -0.091399  -0.190180   0.006060  -0.000516
    26  H   -0.004091  -0.002265  -0.028508   0.441867  -0.000578   0.000123
    27  C    0.018687   0.000178  -0.019470   0.006623   0.542819  -0.002633
    28  H   -0.000603   0.000007   0.002031  -0.000540   0.420679  -0.010762
    29  H   -0.000664  -0.000063   0.000380  -0.000088   0.001926   0.000183
    30  C   -1.859638   0.009039  -0.012032   0.033637  -0.000960  -0.000872
    31  H    0.011849  -0.001072   0.007757  -0.008014  -0.002491  -0.000048
    32  C   -1.599580  -0.007248   0.001064  -0.021172   0.001989  -0.000125
    33  H    0.000826  -0.002107  -0.006236   0.024458  -0.000127   0.000121
    34  C    0.034673   0.001418  -0.243979  -0.469540  -0.003660   0.000011
    35  H   -0.001121   0.000249  -0.094330   0.011690   0.000299   0.000162
    36  H   -0.002748  -0.001005   0.003214  -0.078893   0.000026  -0.000002
    37  H    0.000628  -0.000005  -0.000560   0.000193  -0.064543   0.000984
    38  C   -0.124208  -0.003604   0.005783  -0.015892  -0.000740   0.000008
    39  H    0.016518   0.000199  -0.000336   0.000673   0.000137   0.000012
    40  H    0.011723  -0.000695  -0.000293   0.001188   0.000007  -0.000001
    41  H    0.001039   0.000099   0.010211  -0.006196  -0.000094   0.000007
    42  H    0.025383   0.000185   0.000186  -0.000550  -0.000014   0.000002
              19         20         21         22         23         24
     1  C   -0.319697   0.055695   1.626850  -1.479933   0.193320  -0.038188
     2  C    0.021440  -0.044353   0.057219  -0.050612   0.326571  -0.038063
     3  C    0.810136  -0.034045   2.619996  -3.349465   0.093064  -0.017672
     4  C   -0.074455  -0.016948  -0.716938   1.617093   0.040682   0.024852
     5  H    0.010530  -0.002114  -0.015401   0.014385  -0.018280  -0.001797
     6  C   -1.530387   0.066780   0.274208  -0.111243  -0.092697   0.019044
     7  C    0.460500  -0.047766  -0.790127  -1.463550  -0.111655   0.011593
     8  H    0.026485  -0.004586  -0.040598   0.008497   0.000864  -0.000803
     9  C    0.086625  -0.028407  -2.819587   3.549937   0.142551  -0.045628
    10  C   -0.016815   0.014009   0.185211  -0.224496  -1.617464  -0.020260
    11  C    0.675984  -0.019925   0.183566  -0.088479  -0.039352   0.011218
    12  C   -2.111573   0.509992  -0.188078   0.112238   0.003846   0.003702
    13  C    0.050822   0.022032  -1.110456  -0.686427  -0.042182   0.016019
    14  H   -0.003193   0.000637   0.101511  -0.186262   0.004468  -0.001890
    15  C    0.016278   0.000449   0.188942  -0.238702  -0.379263   0.496256
    16  C   -0.003369  -0.000458  -0.245443   0.434098   0.014220  -0.042231
    17  C   -0.721097   0.019406   0.016579  -0.007223  -0.023511  -0.003149
    18  H    0.014394  -0.001590  -0.004953   0.003440   0.000260  -0.002472
    19  C    8.716721  -0.200808  -0.105840   0.061574   0.010332  -0.000038
    20  H   -0.200808   0.477419   0.011749  -0.008716  -0.001439   0.000314
    21  C   -0.105840   0.011749  14.856180  -7.700729  -0.013532   0.006044
    22  C    0.061574  -0.008716  -7.700729  16.909960   0.031899  -0.005918
    23  C    0.010332  -0.001439  -0.013532   0.031899   7.732231  -0.067048
    24  H   -0.000038   0.000314   0.006044  -0.005918  -0.067048   0.496697
    25  C   -0.002453  -0.000262   0.006481  -0.029185  -0.576677  -0.011468
    26  H    0.000356   0.000032  -0.006503   0.028680  -0.012026   0.000281
    27  C    0.227383   0.014600   0.007389  -0.004087  -0.005275   0.000809
    28  H    0.001080   0.000288   0.000193  -0.000022   0.000188   0.000129
    29  H    0.439054  -0.012066  -0.000908   0.000719   0.000083   0.000005
    30  C   -0.000516  -0.004053  -0.238769  -0.201541  -0.000984  -0.000261
    31  H   -0.003562   0.001326   0.499131  -0.027462   0.000054   0.000370
    32  C   -0.002474  -0.000462   0.257448  -0.626932   0.005416  -0.000781
    33  H   -0.000107   0.000272  -0.038276   0.450719   0.000961   0.000037
    34  C    0.000127   0.000248   0.006030  -0.018065   0.416444   0.028141
    35  H   -0.000013  -0.000011  -0.000296   0.000547   0.421477  -0.013047
    36  H    0.000012  -0.000009  -0.000479   0.001889   0.013178  -0.000432
    37  H   -0.075032   0.000896   0.000093  -0.000035  -0.000130   0.000006
    38  C    0.000178   0.000506  -0.408075  -0.168347   0.000081   0.000212
    39  H    0.000045  -0.000071  -0.092535   0.010651  -0.000000  -0.000015
    40  H   -0.000030  -0.000018   0.004217  -0.081328  -0.000021  -0.000004
    41  H    0.000008   0.000005   0.000157  -0.000477  -0.077893   0.001971
    42  H    0.000003   0.000033   0.013054  -0.009084   0.000004   0.000005
              25         26         27         28         29         30
     1  C   -0.076968  -0.006640  -0.204600   0.005132   0.000358   0.334000
     2  C    0.125803  -0.032404   0.096916  -0.008263   0.000378   0.060926
     3  C    0.051754  -0.016289  -0.323450   0.010187   0.009698   0.637769
     4  C   -0.095962   0.095536   0.044813  -0.001626   0.001901  -0.082317
     5  H    0.027725  -0.004800  -0.000049  -0.000898   0.000281  -0.000732
     6  C   -0.023823   0.009632  -0.362990   0.038209   0.030863  -0.011088
     7  C    0.234351  -0.091772  -0.080099   0.001225   0.007242  -0.212568
     8  H    0.002053   0.000594  -0.005363   0.000076   0.000269   0.033508
     9  C    0.269414  -0.036629  -0.035189  -0.000392   0.001666   0.059977
    10  C   -1.587831   0.019935   0.040620  -0.002941  -0.000850  -0.039312
    11  C    0.022485  -0.000782  -0.448571  -0.097443   0.015292   0.035679
    12  C   -0.017756   0.001897   0.057763   0.008474  -0.111891  -0.061843
    13  C   -0.071089  -0.004091   0.018687  -0.000603  -0.000664  -1.859638
    14  H   -0.011740  -0.002265   0.000178   0.000007  -0.000063   0.009039
    15  C   -0.091399  -0.028508  -0.019470   0.002031   0.000380  -0.012032
    16  C   -0.190180   0.441867   0.006623  -0.000540  -0.000088   0.033637
    17  C    0.006060  -0.000578   0.542819   0.420679   0.001926  -0.000960
    18  H   -0.000516   0.000123  -0.002633  -0.010762   0.000183  -0.000872
    19  C   -0.002453   0.000356   0.227383   0.001080   0.439054  -0.000516
    20  H   -0.000262   0.000032   0.014600   0.000288  -0.012066  -0.004053
    21  C    0.006481  -0.006503   0.007389   0.000193  -0.000908  -0.238769
    22  C   -0.029185   0.028680  -0.004087  -0.000022   0.000719  -0.201541
    23  C   -0.576677  -0.012026  -0.005275   0.000188   0.000083  -0.000984
    24  H   -0.011468   0.000281   0.000809   0.000129   0.000005  -0.000261
    25  C    7.674007  -0.060446  -0.000060   0.000017   0.000007   0.006198
    26  H   -0.060446   0.499273   0.000057   0.000002   0.000004   0.002155
    27  C   -0.000060   0.000057   6.454386  -0.053662  -0.064842  -0.000446
    28  H    0.000017   0.000002  -0.053662   0.474959   0.000289   0.000032
    29  H    0.000007   0.000004  -0.064842   0.000289   0.474637   0.000084
    30  C    0.006198   0.002155  -0.000446   0.000032   0.000084   7.840879
    31  H   -0.001125   0.000008   0.001429  -0.000020  -0.000068  -0.103075
    32  C   -0.017526  -0.005474  -0.000417  -0.000005  -0.000009  -0.478230
    33  H    0.001574  -0.005073   0.000050  -0.000003   0.000006  -0.019169
    34  C    0.501713   0.021915  -0.000013   0.000026   0.000000   0.000250
    35  H    0.011361  -0.000490   0.000010  -0.000014  -0.000001   0.000010
    36  H    0.421421  -0.013036  -0.000002  -0.000000  -0.000000  -0.000082
    37  H    0.000001   0.000002   0.452687  -0.009654  -0.009257  -0.000013
    38  C   -0.004461  -0.000514   0.000155   0.000006   0.000008   0.370497
    39  H    0.000058   0.000048  -0.000037  -0.000000   0.000003   0.428671
    40  H    0.000410   0.000445   0.000001  -0.000000  -0.000001   0.016651
    41  H   -0.064363   0.001906   0.000005  -0.000000  -0.000000   0.000005
    42  H   -0.000122  -0.000023   0.000005   0.000000  -0.000000  -0.080554
              31         32         33         34         35         36
     1  C   -0.022748  -0.040680  -0.002115  -0.023563   0.003214   0.002914
     2  C   -0.028952   0.078767  -0.010292  -0.146388   0.006072   0.008773
     3  C   -0.019722   0.159465  -0.037407  -0.020787   0.000867  -0.000383
     4  C   -0.001857   0.194915  -0.079896  -0.243792   0.002536   0.001111
     5  H   -0.000335   0.001970   0.000620  -0.012438   0.000049   0.001069
     6  C    0.031809  -0.064085   0.009285   0.034993  -0.002554  -0.000706
     7  C    0.003880   0.141403   0.082432   0.016436   0.000856   0.005504
     8  H   -0.009120   0.017270  -0.004158  -0.000275   0.000013  -0.000044
     9  C   -0.051237   0.150855  -0.016107  -0.033957   0.007151   0.002511
    10  C    0.015291  -0.092534  -0.006206  -0.126075   0.023106   0.012950
    11  C   -0.000399  -0.000311   0.001637  -0.009804   0.000559   0.000152
    12  C    0.008774  -0.001530  -0.000590   0.006528  -0.000434  -0.000187
    13  C    0.011849  -1.599580   0.000826   0.034673  -0.001121  -0.002748
    14  H   -0.001072  -0.007248  -0.002107   0.001418   0.000249  -0.001005
    15  C    0.007757   0.001064  -0.006236  -0.243979  -0.094330   0.003214
    16  C   -0.008014  -0.021172   0.024458  -0.469540   0.011690  -0.078893
    17  C   -0.002491   0.001989  -0.000127  -0.003660   0.000299   0.000026
    18  H   -0.000048  -0.000125   0.000121   0.000011   0.000162  -0.000002
    19  C   -0.003562  -0.002474  -0.000107   0.000127  -0.000013   0.000012
    20  H    0.001326  -0.000462   0.000272   0.000248  -0.000011  -0.000009
    21  C    0.499131   0.257448  -0.038276   0.006030  -0.000296  -0.000479
    22  C   -0.027462  -0.626932   0.450719  -0.018065   0.000547   0.001889
    23  C    0.000054   0.005416   0.000961   0.416444   0.421477   0.013178
    24  H    0.000370  -0.000781   0.000037   0.028141  -0.013047  -0.000432
    25  C   -0.001125  -0.017526   0.001574   0.501713   0.011361   0.421421
    26  H    0.000008  -0.005474  -0.005073   0.021915  -0.000490  -0.013036
    27  C    0.001429  -0.000417   0.000050  -0.000013   0.000010  -0.000002
    28  H   -0.000020  -0.000005  -0.000003   0.000026  -0.000014  -0.000000
    29  H   -0.000068  -0.000009   0.000006   0.000000  -0.000001  -0.000000
    30  C   -0.103075  -0.478230  -0.019169   0.000250   0.000010  -0.000082
    31  H    0.480717  -0.008423   0.000580   0.000181  -0.000014  -0.000002
    32  C   -0.008423   7.632078  -0.041902  -0.004830   0.000045   0.000694
    33  H    0.000580  -0.041902   0.497903  -0.000949   0.000045   0.000588
    34  C    0.000181  -0.004830  -0.000949   6.362544  -0.067146  -0.065484
    35  H   -0.000014   0.000045   0.000045  -0.067146   0.476261   0.001121
    36  H   -0.000002   0.000694   0.000588  -0.065484   0.001121   0.477601
    37  H    0.000046  -0.000010   0.000003   0.000003  -0.000000  -0.000000
    38  C    0.021778   0.387714   0.016838  -0.000196  -0.000003   0.000087
    39  H   -0.010608   0.012097  -0.000484   0.000001   0.000000  -0.000002
    40  H   -0.000372   0.414544  -0.010790   0.000067  -0.000001  -0.000046
    41  H    0.000005  -0.000138  -0.000047   0.467380  -0.011933  -0.011759
    42  H    0.001253  -0.059915   0.001233  -0.000001  -0.000000   0.000001
              37         38         39         40         41         42
     1  C   -0.006247  -0.083502   0.005820   0.002579   0.000307  -0.000489
     2  C    0.000016  -0.027090   0.001130  -0.000090  -0.005593  -0.000816
     3  C   -0.009885  -0.229048   0.005043   0.008171  -0.000743  -0.005997
     4  C    0.001826   0.022229   0.003076   0.004690  -0.006510   0.001028
     5  H    0.000131   0.000137  -0.000035  -0.000056  -0.000423  -0.000005
     6  C    0.013773   0.030303  -0.001892  -0.000543   0.000948   0.000725
     7  C   -0.000445  -0.246662   0.001553   0.002894   0.000805  -0.006034
     8  H   -0.000267  -0.010046   0.000882   0.000833  -0.000009  -0.000483
     9  C   -0.000861   0.066999   0.006010  -0.000472  -0.004981  -0.002435
    10  C    0.001211   0.034221  -0.001064  -0.002289   0.021792   0.001092
    11  C    0.003104   0.000744   0.000195   0.000089  -0.000260  -0.000003
    12  C    0.020026   0.000326  -0.000424  -0.000177   0.000194   0.000066
    13  C    0.000628  -0.124208   0.016518   0.011723   0.001039   0.025383
    14  H   -0.000005  -0.003604   0.000199  -0.000695   0.000099   0.000185
    15  C   -0.000560   0.005783  -0.000336  -0.000293   0.010211   0.000186
    16  C    0.000193  -0.015892   0.000673   0.001188  -0.006196  -0.000550
    17  C   -0.064543  -0.000740   0.000137   0.000007  -0.000094  -0.000014
    18  H    0.000984   0.000008   0.000012  -0.000001   0.000007   0.000002
    19  C   -0.075032   0.000178   0.000045  -0.000030   0.000008   0.000003
    20  H    0.000896   0.000506  -0.000071  -0.000018   0.000005   0.000033
    21  C    0.000093  -0.408075  -0.092535   0.004217   0.000157   0.013054
    22  C   -0.000035  -0.168347   0.010651  -0.081328  -0.000477  -0.009084
    23  C   -0.000130   0.000081  -0.000000  -0.000021  -0.077893   0.000004
    24  H    0.000006   0.000212  -0.000015  -0.000004   0.001971   0.000005
    25  C    0.000001  -0.004461   0.000058   0.000410  -0.064363  -0.000122
    26  H    0.000002  -0.000514   0.000048   0.000445   0.001906  -0.000023
    27  C    0.452687   0.000155  -0.000037   0.000001   0.000005   0.000005
    28  H   -0.009654   0.000006  -0.000000  -0.000000  -0.000000   0.000000
    29  H   -0.009257   0.000008   0.000003  -0.000001  -0.000000  -0.000000
    30  C   -0.000013   0.370497   0.428671   0.016651   0.000005  -0.080554
    31  H    0.000046   0.021778  -0.010608  -0.000372   0.000005   0.001253
    32  C   -0.000010   0.387714   0.012097   0.414544  -0.000138  -0.059915
    33  H    0.000003   0.016838  -0.000484  -0.010790  -0.000047   0.001233
    34  C    0.000003  -0.000196   0.000001   0.000067   0.467380  -0.000001
    35  H   -0.000000  -0.000003   0.000000  -0.000001  -0.011933  -0.000000
    36  H   -0.000000   0.000087  -0.000002  -0.000046  -0.011759   0.000001
    37  H    0.483861   0.000007  -0.000002  -0.000000   0.000000   0.000000
    38  C    0.000007   6.423811  -0.069419  -0.059103   0.000000   0.461276
    39  H   -0.000002  -0.069419   0.474889   0.001110  -0.000000  -0.010705
    40  H   -0.000000  -0.059103   0.001110   0.474241   0.000001  -0.010522
    41  H    0.000000   0.000000  -0.000000   0.000001   0.488837   0.000000
    42  H    0.000000   0.461276  -0.010705  -0.010522   0.000000   0.486514
 Mulliken charges:
               1
     1  C    0.971440
     2  C   -1.413045
     3  C   -1.134657
     4  C    0.925625
     5  H    0.214963
     6  C    0.835217
     7  C    0.990915
     8  H    0.191546
     9  C   -1.574821
    10  C    1.245260
    11  C   -0.557449
    12  C   -0.090958
    13  C    1.247582
    14  H    0.204500
    15  C   -0.517042
    16  C   -0.316077
    17  C   -0.275280
    18  H    0.216347
    19  C   -0.458603
    20  H    0.231420
    21  C   -0.384724
    22  C   -0.468008
    23  C   -0.372765
    24  H    0.193458
    25  C   -0.427481
    26  H    0.203595
    27  C   -0.356130
    28  H    0.223621
    29  H    0.215373
    30  C   -0.460915
    31  H    0.214487
    32  C   -0.382946
    33  H    0.191852
    34  C   -0.408191
    35  H    0.223706
    36  H    0.220486
    37  H    0.197446
    38  C   -0.392992
    39  H    0.218806
    40  H    0.222992
    41  H    0.195740
    42  H    0.195708
 Sum of Mulliken charges =  -0.00000
 Mulliken charges with hydrogens summed into heavy atoms:
               1
     1  C    0.971440
     2  C   -1.198082
     3  C   -0.943111
     4  C    0.925625
     6  C    0.835217
     7  C    0.990915
     9  C   -1.370321
    10  C    1.245260
    11  C   -0.341102
    12  C    0.140462
    13  C    1.247582
    15  C   -0.323585
    16  C   -0.112482
    17  C   -0.051659
    19  C   -0.243230
    21  C   -0.170237
    22  C   -0.276157
    23  C   -0.149059
    25  C   -0.206994
    27  C   -0.158684
    30  C   -0.242109
    32  C   -0.159953
    34  C   -0.212452
    38  C   -0.197284
 Electronic spatial extent (au):  <R**2>=          10005.8996
 Charge=             -0.0000 electrons
 Dipole moment (field-independent basis, Debye):
    X=             -0.0171    Y=             -0.0057    Z=             -0.0007  Tot=              0.0181
 Quadrupole moment (field-independent basis, Debye-Ang):
   XX=           -126.5056   YY=           -129.1713   ZZ=           -138.6854
   XY=             -0.0396   XZ=              6.4617   YZ=             -2.7727
 Traceless Quadrupole moment (field-independent basis, Debye-Ang):
   XX=              4.9485   YY=              2.2828   ZZ=             -7.2313
   XY=             -0.0396   XZ=              6.4617   YZ=             -2.7727
 Octapole moment (field-independent basis, Debye-Ang**2):
  XXX=            -33.7144  YYY=              8.5821  ZZZ=              1.4134  XYY=             47.7286
  XXY=             -5.3782  XXZ=             30.4856  XZZ=            -13.6804  YZZ=             -3.1021
  YYZ=            -32.0085  XYZ=             18.6358
 Hexadecapole moment (field-independent basis, Debye-Ang**3):
 XXXX=          -6264.7076 YYYY=          -6187.0565 ZZZZ=           -602.1635 XXXY=             -0.6723
 XXXZ=            121.8472 YYYX=             -8.3905 YYYZ=             14.1311 ZZZX=             13.1483
 ZZZY=            -17.5675 XXYY=          -2128.8157 XXZZ=          -1190.0490 YYZZ=          -1228.5193
 XXYZ=            -66.2138 YYXZ=             30.2627 ZZXY=              8.2110
 N-N= 1.731205386477D+03 E-N=-5.608887524893D+03  KE= 9.212941798359D+02
 No NMR shielding tensors so no spin-rotation constants.
 Leave Link  601 at Mon Nov 14 15:22:04 2022, MaxMem= 16106127360 cpu:               9.3 elap:               0.4
 (Enter /opt/ap/G16/B01/g16/l9999.exe)
 1\1\GINC-N62\SP\RwB97XD\6-311++G(d,p)\C24H18\ROOT\14-Nov-2022\0\\#P wB
 97XD/6-311++G(d,p) scf=maxcycle=512\\_conf031.gjf nmol_natom 1_42\\0,1
 \C\C,1,1.39412829\C,1,1.39435449,2,118.86443127\C,2,1.39416084,1,121.1
 529487,3,0.03668482,0\H,2,1.08488355,1,119.42236619,3,-179.97409048,0\
 C,1,1.48467131,2,120.55714816,4,179.25839056,0\C,3,1.39437784,1,121.11
 776116,2,-0.05351271,0\H,3,1.08487775,1,119.41869036,2,177.23008049,0\
 C,4,1.39432447,2,118.86473838,1,0.01008406,0\C,4,1.48466627,2,120.5464
 188,1,179.19454736,0\C,6,1.3968498,1,120.7843492,2,65.,0\C,6,1.3968682
 ,1,120.67653841,2,-115.,0\C,7,1.48449863,3,120.56496838,1,-179.9632580
 4,0\H,9,1.0848792,4,119.41824946,2,177.22245984,0\C,10,1.39685361,4,12
 0.76946845,2,-42.52368674,0\C,10,1.39686289,4,120.69448769,2,137.43107
 516,0\C,11,1.38888939,6,120.7380073,1,179.94058542,0\H,11,1.0847641,6,
 119.46912378,1,-1.41050605,0\C,12,1.38882428,6,120.76493111,1,-179.950
 82712,0\H,12,1.08482758,6,119.44182626,1,-1.23602505,0\C,13,1.39682899
 ,7,120.74134419,3,42.89023273,0\C,13,1.39683158,7,120.7379111,3,-137.1
 2494058,0\C,15,1.38888263,10,120.742191,4,179.9460119,0\H,15,1.0847633
 4,10,119.47085903,4,-1.40606944,0\C,16,1.38886088,10,120.76338989,4,-1
 79.95592713,0\H,16,1.08483431,10,119.44215232,4,-1.23439681,0\C,17,1.3
 9007919,11,120.20743432,6,0.00349958,0\H,17,1.0843506,11,119.71318733,
 6,179.5011609,0\H,19,1.08435858,12,119.73823132,6,179.53683762,0\C,21,
 1.38882373,13,120.76699356,7,179.99297883,0\H,21,1.0847938,13,119.4352
 623,7,1.32183327,0\C,22,1.38881869,13,120.76647403,7,-179.97118338,0\H
 ,22,1.08479982,13,119.43203605,7,1.34657928,0\C,23,1.39007007,15,120.2
 0732995,10,0.00573957,0\H,23,1.08434813,15,119.71220819,10,179.5072436
 8,0\H,25,1.08436328,16,119.73539424,10,179.53636455,0\H,27,1.08412515,
 17,120.21790854,11,179.98397203,0\C,30,1.39008059,21,120.18795226,13,-
 0.02169059,0\H,30,1.08435324,21,119.73787119,13,-179.52151214,0\H,32,1
 .0843543,22,119.737043,13,-179.52886928,0\H,34,1.08412314,23,120.22152
 803,15,179.98800213,0\H,38,1.08411439,30,120.21547163,21,-179.98600656
 ,0\\Version=ES64L-G16RevB.01\State=1-A\HF=-925.3103306\RMSD=8.747e-09\
 Dipole=-0.0048914,0.0004373,-0.0051508\Quadrupole=2.8874117,-4.9963822
 ,2.1089705,-5.5031261,0.8065413,-0.4257102\PG=C01 [X(C24H18)]\\@


 HE THAT IS UNAWARE OF HIS IGNORANCE WILL BE MISLED BY HIS KNOWLEDGE.

                                        -- WHATLEY
 Job cpu time:       0 days  1 hours 18 minutes 37.5 seconds.
 Elapsed time:       0 days  0 hours  2 minutes 28.4 seconds.
 File lengths (MBytes):  RWF=    224 Int=      0 D2E=      0 Chk=     26 Scr=      1
 Normal termination of Gaussian 16 at Mon Nov 14 15:22:04 2022.
