 Entering Gaussian System, Link 0=g16
 Input=_conf019.gjf
 Output=_conf019.log
 Initial command:
 /opt/ap/G16/B01/g16/l1.exe "/tmp2/scr/Gau-23305.inp" -scrdir="/tmp2/scr/"
 Entering Link 1 = /opt/ap/G16/B01/g16/l1.exe PID=     23306.
  
 Copyright (c) 1988-2017, Gaussian, Inc.  All Rights Reserved.
  
 This is part of the Gaussian(R) 16 program.  It is based on
 the Gaussian(R) 09 system (copyright 2009, Gaussian, Inc.),
 the Gaussian(R) 03 system (copyright 2003, Gaussian, Inc.),
 the Gaussian(R) 98 system (copyright 1998, Gaussian, Inc.),
 the Gaussian(R) 94 system (copyright 1995, Gaussian, Inc.),
 the Gaussian 92(TM) system (copyright 1992, Gaussian, Inc.),
 the Gaussian 90(TM) system (copyright 1990, Gaussian, Inc.),
 the Gaussian 88(TM) system (copyright 1988, Gaussian, Inc.),
 the Gaussian 86(TM) system (copyright 1986, Carnegie Mellon
 University), and the Gaussian 82(TM) system (copyright 1983,
 Carnegie Mellon University). Gaussian is a federally registered
 trademark of Gaussian, Inc.
  
 This software contains proprietary and confidential information,
 including trade secrets, belonging to Gaussian, Inc.
  
 This software is provided under written license and may be
 used, copied, transmitted, or stored only in accord with that
 written license.
  
 The following legend is applicable only to US Government
 contracts under FAR:
  
                    RESTRICTED RIGHTS LEGEND
  
 Use, reproduction and disclosure by the US Government is
 subject to restrictions as set forth in subparagraphs (a)
 and (c) of the Commercial Computer Software - Restricted
 Rights clause in FAR 52.227-19.
  
 Gaussian, Inc.
 340 Quinnipiac St., Bldg. 40, Wallingford CT 06492
  
  
 ---------------------------------------------------------------
 Warning -- This program may not be used in any manner that
 competes with the business of Gaussian, Inc. or will provide
 assistance to any competitor of Gaussian, Inc.  The licensee
 of this program is prohibited from giving any competitor of
 Gaussian, Inc. access to this program.  By using this program,
 the user acknowledges that Gaussian, Inc. is engaged in the
 business of creating and licensing software in the field of
 computational chemistry and represents and warrants to the
 licensee that it is not a competitor of Gaussian, Inc. and that
 it will not use this program in any manner prohibited above.
 ---------------------------------------------------------------
  

 Cite this work as:
 Gaussian 16, Revision B.01,
 M. J. Frisch, G. W. Trucks, H. B. Schlegel, G. E. Scuseria, 
 M. A. Robb, J. R. Cheeseman, G. Scalmani, V. Barone, 
 G. A. Petersson, H. Nakatsuji, X. Li, M. Caricato, A. V. Marenich, 
 J. Bloino, B. G. Janesko, R. Gomperts, B. Mennucci, H. P. Hratchian, 
 J. V. Ortiz, A. F. Izmaylov, J. L. Sonnenberg, D. Williams-Young, 
 F. Ding, F. Lipparini, F. Egidi, J. Goings, B. Peng, A. Petrone, 
 T. Henderson, D. Ranasinghe, V. G. Zakrzewski, J. Gao, N. Rega, 
 G. Zheng, W. Liang, M. Hada, M. Ehara, K. Toyota, R. Fukuda, 
 J. Hasegawa, M. Ishida, T. Nakajima, Y. Honda, O. Kitao, H. Nakai, 
 T. Vreven, K. Throssell, J. A. Montgomery, Jr., J. E. Peralta, 
 F. Ogliaro, M. J. Bearpark, J. J. Heyd, E. N. Brothers, K. N. Kudin, 
 V. N. Staroverov, T. A. Keith, R. Kobayashi, J. Normand, 
 K. Raghavachari, A. P. Rendell, J. C. Burant, S. S. Iyengar, 
 J. Tomasi, M. Cossi, J. M. Millam, M. Klene, C. Adamo, R. Cammi, 
 J. W. Ochterski, R. L. Martin, K. Morokuma, O. Farkas, 
 J. B. Foresman, and D. J. Fox, Gaussian, Inc., Wallingford CT, 2016.
 
 ******************************************
 Gaussian 16:  ES64L-G16RevB.01 20-Dec-2017
                14-Nov-2022 
 ******************************************
 %nprocshared=32
 Will use up to   32 processors via shared memory.
 %mem=120GB
 %chk=_conf019.chk
 ----------------------------------------
 #P wB97XD/6-311++G(d,p) scf=maxcycle=512
 ----------------------------------------
 1/38=1,172=1/1;
 2/12=2,17=6,18=5,40=1/2;
 3/5=4,6=6,7=1111,11=2,25=1,30=1,74=-58/1,2,3;
 4//1;
 5/5=2,7=512,38=5/2;
 6/7=2,8=2,9=2,10=2,28=1/1;
 99/5=1,9=1/99;
 Leave Link    1 at Mon Nov 14 15:12:00 2022, MaxMem= 16106127360 cpu:               2.9 elap:               0.1
 (Enter /opt/ap/G16/B01/g16/l101.exe)
 ----------------------------
 _conf019.gjf nmol_natom 1_42
 ----------------------------
 Symbolic Z-matrix:
 Charge =  0 Multiplicity = 1
 C
 C                    1     1.39413 
 C                    1     1.39435  2     118.86443 
 C                    2     1.39416  1     121.15295  3     0.03668  0
 H                    2     1.08488  1     119.42237  3    -179.97409  0
 C                    1     1.48467  2     120.55715  4     179.25839  0
 C                    3     1.39438  1     121.11776  2    -0.05351  0
 H                    3     1.08488  1     119.41869  2     177.23008  0
 C                    4     1.39432  2     118.86474  1     0.01008  0
 C                    4     1.48467  2     120.54642  1     179.19455  0
 C                    6     1.39685  1     120.78435  2     5.       0
 C                    6     1.39687  1     120.67654  2    -175.     0
 C                    7     1.4845   3     120.56497  1    -179.96326  0
 H                    9     1.08488  4     119.41825  2     177.22246  0
 C                    10    1.39685  4     120.76947  2    -42.52369  0
 C                    10    1.39686  4     120.69449  2     137.43108  0
 C                    11    1.38889  6     120.73801  1     179.94059  0
 H                    11    1.08476  6     119.46912  1    -1.41051  0
 C                    12    1.38882  6     120.76493  1    -179.95083  0
 H                    12    1.08483  6     119.44183  1    -1.23603  0
 C                    13    1.39683  7     120.74134  3     42.89023  0
 C                    13    1.39683  7     120.73791  3    -137.12494  0
 C                    15    1.38888  10    120.74219  4     179.94601  0
 H                    15    1.08476  10    119.47086  4    -1.40607  0
 C                    16    1.38886  10    120.76339  4    -179.95593  0
 H                    16    1.08483  10    119.44215  4    -1.2344   0
 C                    17    1.39008  11    120.20743  6     0.0035   0
 H                    17    1.08435  11    119.71319  6     179.50116  0
 H                    19    1.08436  12    119.73823  6     179.53684  0
 C                    21    1.38882  13    120.76699  7     179.99298  0
 H                    21    1.08479  13    119.43526  7     1.32183  0
 C                    22    1.38882  13    120.76647  7    -179.97118  0
 H                    22    1.0848   13    119.43204  7     1.34658  0
 C                    23    1.39007  15    120.20733  10    0.00574  0
 H                    23    1.08435  15    119.71221  10    179.50724  0
 H                    25    1.08436  16    119.73539  10    179.53636  0
 H                    27    1.08413  17    120.21791  11    179.98397  0
 C                    30    1.39008  21    120.18795  13   -0.02169  0
 H                    30    1.08435  21    119.73787  13   -179.52151  0
 H                    32    1.08435  22    119.73704  13   -179.52887  0
 H                    34    1.08412  23    120.22153  15    179.988  0
 H                    38    1.08411  30    120.21547  21   -179.98601  0
 
 ITRead=  0  0  0  0  0  0  0  0  0  0  0  0  0  0  0  0  0  0  0  0
 ITRead=  0  0  0  0  0  0  0  0  0  0  0  0  0  0  0  0  0  0  0  0
 ITRead=  0  0
 MicOpt= -1 -1 -1 -1 -1 -1 -1 -1 -1 -1 -1 -1 -1 -1 -1 -1 -1 -1 -1 -1
 MicOpt= -1 -1 -1 -1 -1 -1 -1 -1 -1 -1 -1 -1 -1 -1 -1 -1 -1 -1 -1 -1
 MicOpt= -1 -1
 NAtoms=     42 NQM=       42 NQMF=       0 NMMI=      0 NMMIF=      0
                NMic=       0 NMicF=      0.
                    Isotopes and Nuclear Properties:
 (Nuclear quadrupole moments (NQMom) in fm**2, nuclear magnetic moments (NMagM)
  in nuclear magnetons)

  Atom         1           2           3           4           5           6           7           8           9          10
 IAtWgt=          12          12          12          12           1          12          12           1          12          12
 AtmWgt=  12.0000000  12.0000000  12.0000000  12.0000000   1.0078250  12.0000000  12.0000000   1.0078250  12.0000000  12.0000000
 NucSpn=           0           0           0           0           1           0           0           1           0           0
 AtZEff=  -0.0000000  -0.0000000  -0.0000000  -0.0000000  -0.0000000  -0.0000000  -0.0000000  -0.0000000  -0.0000000  -0.0000000
 NQMom=    0.0000000   0.0000000   0.0000000   0.0000000   0.0000000   0.0000000   0.0000000   0.0000000   0.0000000   0.0000000
 NMagM=    0.0000000   0.0000000   0.0000000   0.0000000   2.7928460   0.0000000   0.0000000   2.7928460   0.0000000   0.0000000
 AtZNuc=   6.0000000   6.0000000   6.0000000   6.0000000   1.0000000   6.0000000   6.0000000   1.0000000   6.0000000   6.0000000

  Atom        11          12          13          14          15          16          17          18          19          20
 IAtWgt=          12          12          12           1          12          12          12           1          12           1
 AtmWgt=  12.0000000  12.0000000  12.0000000   1.0078250  12.0000000  12.0000000  12.0000000   1.0078250  12.0000000   1.0078250
 NucSpn=           0           0           0           1           0           0           0           1           0           1
 AtZEff=  -0.0000000  -0.0000000  -0.0000000  -0.0000000  -0.0000000  -0.0000000  -0.0000000  -0.0000000  -0.0000000  -0.0000000
 NQMom=    0.0000000   0.0000000   0.0000000   0.0000000   0.0000000   0.0000000   0.0000000   0.0000000   0.0000000   0.0000000
 NMagM=    0.0000000   0.0000000   0.0000000   2.7928460   0.0000000   0.0000000   0.0000000   2.7928460   0.0000000   2.7928460
 AtZNuc=   6.0000000   6.0000000   6.0000000   1.0000000   6.0000000   6.0000000   6.0000000   1.0000000   6.0000000   1.0000000

  Atom        21          22          23          24          25          26          27          28          29          30
 IAtWgt=          12          12          12           1          12           1          12           1           1          12
 AtmWgt=  12.0000000  12.0000000  12.0000000   1.0078250  12.0000000   1.0078250  12.0000000   1.0078250   1.0078250  12.0000000
 NucSpn=           0           0           0           1           0           1           0           1           1           0
 AtZEff=  -0.0000000  -0.0000000  -0.0000000  -0.0000000  -0.0000000  -0.0000000  -0.0000000  -0.0000000  -0.0000000  -0.0000000
 NQMom=    0.0000000   0.0000000   0.0000000   0.0000000   0.0000000   0.0000000   0.0000000   0.0000000   0.0000000   0.0000000
 NMagM=    0.0000000   0.0000000   0.0000000   2.7928460   0.0000000   2.7928460   0.0000000   2.7928460   2.7928460   0.0000000
 AtZNuc=   6.0000000   6.0000000   6.0000000   1.0000000   6.0000000   1.0000000   6.0000000   1.0000000   1.0000000   6.0000000

  Atom        31          32          33          34          35          36          37          38          39          40
 IAtWgt=           1          12           1          12           1           1           1          12           1           1
 AtmWgt=   1.0078250  12.0000000   1.0078250  12.0000000   1.0078250   1.0078250   1.0078250  12.0000000   1.0078250   1.0078250
 NucSpn=           1           0           1           0           1           1           1           0           1           1
 AtZEff=  -0.0000000  -0.0000000  -0.0000000  -0.0000000  -0.0000000  -0.0000000  -0.0000000  -0.0000000  -0.0000000  -0.0000000
 NQMom=    0.0000000   0.0000000   0.0000000   0.0000000   0.0000000   0.0000000   0.0000000   0.0000000   0.0000000   0.0000000
 NMagM=    2.7928460   0.0000000   2.7928460   0.0000000   2.7928460   2.7928460   2.7928460   0.0000000   2.7928460   2.7928460
 AtZNuc=   1.0000000   6.0000000   1.0000000   6.0000000   1.0000000   1.0000000   1.0000000   6.0000000   1.0000000   1.0000000

  Atom        41          42
 IAtWgt=           1           1
 AtmWgt=   1.0078250   1.0078250
 NucSpn=           1           1
 AtZEff=  -0.0000000  -0.0000000
 NQMom=    0.0000000   0.0000000
 NMagM=    2.7928460   2.7928460
 AtZNuc=   1.0000000   1.0000000
 Leave Link  101 at Mon Nov 14 15:12:00 2022, MaxMem= 16106127360 cpu:               6.4 elap:               0.2
 (Enter /opt/ap/G16/B01/g16/l202.exe)
                          Input orientation:                          
 ---------------------------------------------------------------------
 Center     Atomic      Atomic             Coordinates (Angstroms)
 Number     Number       Type             X           Y           Z
 ---------------------------------------------------------------------
      1          6           0        0.000000    0.000000    0.000000
      2          6           0        0.000000    0.000000    1.394128
      3          6           0        1.221126    0.000000   -0.673109
      4          6           0        1.193108    0.000764    2.115362
      5          1           0       -0.944957   -0.000427    1.927071
      6          6           0       -1.278366   -0.017366   -0.754803
      7          6           0        2.428476    0.001115    0.024455
      8          1           0        1.232154   -0.045667   -1.756969
      9          6           0        2.400843    0.001752    1.418572
     10          6           0        1.177445    0.018728    3.599837
     11          6           0       -2.503079    0.070596   -0.088823
     12          6           0       -1.282178   -0.122136   -2.147732
     13          6           0        3.721572    0.001921   -0.704680
     14          1           0        3.334061    0.048144    1.969857
     15          6           0        0.290794    0.844275    4.295193
     16          6           0        2.049080   -0.790881    4.331965
     17          6           0       -3.698364    0.055494   -0.795987
     18          1           0       -2.518570    0.129305    0.994240
     19          6           0       -2.476895   -0.137532   -2.855720
     20          1           0       -0.338949   -0.170996   -2.681382
     21          6           0        3.910862    0.818865   -1.821777
     22          6           0        4.776237   -0.814044   -0.288725
     23          6           0        0.275860    0.859807    5.683909
     24          1           0       -0.377402    1.495584    3.742000
     25          6           0        2.035025   -0.775886    5.720674
     26          1           0        2.729408   -1.453102    3.807101
     27          6           0       -3.689621   -0.047966   -2.182183
     28          1           0       -4.639867    0.116563   -0.261516
     29          1           0       -2.460208   -0.211878   -3.937399
     30          6           0        5.120444    0.820149   -2.504230
     31          1           0        3.109266    1.474569   -2.144691
     32          6           0        5.986440   -0.813321   -0.970068
     33          1           0        4.638168   -1.470412    0.563864
     34          6           0        1.147946    0.049642    6.401818
     35          1           0       -0.413890    1.513063    6.206701
     36          1           0        2.713797   -1.416787    6.272362
     37          1           0       -4.622531   -0.060031   -2.734324
     38          6           0        6.162883    0.003944   -2.080611
     39          1           0        5.251831    1.466740   -3.364741
     40          1           0        6.791448   -1.459089   -0.637249
     41          1           0        1.136620    0.061726    7.485815
     42          1           0        7.107346    0.004761   -2.612865
 ---------------------------------------------------------------------
                    Distance matrix (angstroms):
                    1          2          3          4          5
     1  C    0.000000
     2  C    1.394128   0.000000
     3  C    1.394354   2.400962   0.000000
     4  C    2.428634   1.394161   2.788612   0.000000
     5  H    2.146287   1.084884   3.384206   2.146341   0.000000
     6  C    1.484671   2.500485   2.500887   3.787659   2.702572
     7  C    2.428599   2.788100   1.394378   2.428585   3.872983
     8  H    2.146445   3.383741   1.084878   3.872806   4.279487
     9  C    2.788619   2.400968   2.401430   1.394324   3.384222
    10  C    3.787552   2.500376   4.273210   1.484666   2.702426
    11  C    2.505649   2.910246   3.770421   4.304080   2.548846
    12  C    2.504326   3.768776   2.907913   4.931137   4.090543
    13  C    3.787700   4.272598   2.500646   3.787581   5.357482
    14  H    3.872805   3.383747   3.384092   2.146415   4.279508
    15  C    4.387032   3.035381   5.124680   2.505463   2.801537
    16  C    4.856969   3.668120   5.134371   2.504540   3.920790
    17  C    3.783460   4.298555   4.921337   5.692577   3.872908
    18  H    2.710799   2.553395   4.096596   3.879432   1.833919
    19  C    3.782732   4.920888   4.296285   6.180591   5.024014
    20  H    2.708124   4.093154   2.548771   5.038398   4.651255
    21  C    4.391384   5.129076   3.037212   4.853507   6.189029
    22  C    4.853707   5.129045   3.667320   4.391169   6.189006
    23  C    5.755188   4.383786   6.484171   3.783362   4.042800
    24  H    4.047440   2.809218   4.928007   2.710524   2.419532
    25  C    6.121229   4.843792   6.491910   3.782894   4.886007
    26  H    4.904609   3.922195   4.945574   2.708491   4.375585
    27  C    4.286902   5.138638   5.137610   6.504791   4.941801
    28  H    4.648692   4.927789   5.876583   6.299726   4.296039
    29  H    4.647647   5.875602   4.924703   7.073036   6.060751
    30  C    5.758711   6.487587   4.385239   6.118495   7.556379
    31  H    4.054822   4.936104   2.811579   4.898143   5.932249
    32  C    6.118822   6.487555   4.843334   5.758354   7.556353
    33  H    4.898230   4.935996   3.920254   4.054620   5.932156
    34  C    6.504116   5.137821   7.075480   4.286973   4.940255
    35  H    6.401859   5.061770   7.231488   4.648499   4.570330
    36  H    6.979577   5.759266   7.243957   4.647859   5.854410
    37  H    5.371027   6.198025   6.196817   7.572635   5.937736
    38  C    6.504621   7.074953   5.138292   6.504219   8.159837
    39  H    6.407382   7.237395   5.063871   6.975231   8.279857
    40  H    6.975586   7.237348   5.758361   6.406985   8.279819
    41  H    7.571865   6.197125   8.159595   5.371096   5.936031
    42  H    7.572414   8.159067   6.197601   7.571945   9.243951
                    6          7          8          9         10
     6  C    0.000000
     7  C    3.787910   0.000000
     8  H    2.703303   2.146356   0.000000
     9  C    4.273231   1.394392   3.384102   0.000000
    10  C    4.999520   3.787973   5.357472   2.500981   0.000000
    11  C    1.396850   4.933345   4.092455   5.130831   5.211061
    12  C    1.396868   4.301457   2.545664   5.128208   6.253330
    13  C    5.000226   1.484499   2.703105   2.500505   5.000173
    14  H    5.357476   2.146366   4.279725   1.084879   2.703459
    15  C    5.357906   4.849723   6.189251   3.665665   1.396854
    16  C    6.127433   4.396117   6.188524   3.039714   1.396863
    17  C    2.421445   6.181767   5.024313   6.489028   6.564916
    18  H    2.149133   5.042835   4.654857   4.939327   4.523482
    19  C    2.421728   5.690105   3.869461   6.487010   7.419760
    20  H    2.148909   3.874250   1.827186   4.934159   6.464453
    21  C    5.363376   2.504946   2.815510   3.667109   6.124188
    22  C    6.124553   2.504906   3.912375   3.036921   5.363369
    23  C    6.681472   6.115597   7.556523   4.841994   2.421492
    24  H    4.829285   4.891475   5.933362   3.917716   2.149154
    25  C    7.313393   5.762417   7.555989   4.387097   2.421736
    26  H    6.239756   4.063707   5.931401   2.815959   2.148914
    27  C    2.802231   6.504058   4.940109   7.075427   7.558077
    28  H    3.400141   7.075067   6.061627   7.239300   6.982889
    29  H    3.400515   6.296100   4.291321   7.236151   8.372313
    30  C    6.686306   3.783088   4.053003   4.842972   7.310892
    31  H    4.838282   2.709194   2.446425   3.920191   6.233057
    32  C    7.311449   3.783053   4.879728   4.384797   6.686012
    33  H    6.233426   2.709077   4.360860   2.811302   4.838519
    34  C    7.557031   6.504835   8.159779   5.138559   2.802307
    35  H    7.179977   6.970308   8.280044   5.756123   3.400165
    36  H    8.202243   6.413127   8.279214   5.066504   3.400510
    37  H    3.886356   7.571744   5.935719   8.159544   8.588802
    38  C    7.558466   4.286853   4.941589   5.137824   7.557929
    39  H    7.187337   4.648230   4.585860   5.757987   8.197725
    40  H    8.198432   4.648180   5.844424   5.063385   7.187062
    41  H    8.587561   7.572613   9.243902   6.197846   3.886431
    42  H    8.589123   5.370968   5.937422   6.197069   8.588456
                   11         12         13         14         15
    11  C    0.000000
    12  C    2.401427   0.000000
    13  C    6.255420   5.209155   0.000000
    14  H    6.189578   6.188149   2.702860   0.000000
    15  C    5.255845   6.702199   6.121971   3.911840   0.000000
    16  C    6.403723   7.316486   5.365963   2.816859   2.401387
    17  C    1.388889   2.774296   7.420691   7.556781   6.515801
    18  H    1.084764   3.385835   6.468534   5.933945   4.393176
    19  C    2.774838   1.388824   6.562576   7.555652   7.730434
    20  H    3.385733   1.084828   4.519411   5.930687   7.078132
    21  C    6.685931   5.287664   1.396829   3.911930   7.107943
    22  C    7.335598   6.374876   1.396832   2.815037   6.624314
    23  C    6.455214   8.045265   7.309101   4.879095   1.388883
    24  H    4.606984   6.174510   6.229413   4.360107   1.084763
    25  C    7.420322   8.564055   6.688393   4.054029   2.774755
    26  H    6.699164   7.302351   4.843310   2.448430   3.385708
    27  C    2.409169   2.408832   7.557201   8.159705   7.654815
    28  H    2.144247   3.858608   8.373959   8.280533   6.753116
    29  H    3.859166   2.144462   6.979297   8.278698   8.744086
    30  C    8.032068   6.481401   2.421718   4.878996   8.340159
    31  H    6.139719   4.672714   2.148776   4.360587   7.057844
    32  C    8.580783   7.395771   2.421709   4.052208   7.931644
    33  H    7.334720   6.649895   2.148749   2.446125   6.179018
    34  C    7.447070   8.889871   7.558317   4.941800   2.409154
    35  H    6.788154   8.557122   8.194680   5.843284   2.144229
    36  H    8.360190   9.409671   7.190790   4.587189   3.859086
    37  H    3.392317   3.392036   8.587628   9.243830   8.623958
    38  C    8.892163   7.446432   2.802355   4.940696   8.708529
    39  H    8.533434   6.833660   3.400487   5.843645   9.147346
    40  H    9.435515   8.321805   3.400476   4.585006   8.478973
    41  H    8.403727   9.934264   8.588933   5.937569   3.392325
    42  H    9.936568   8.403366   3.886469   5.936405   9.741223
                   16         17         18         19         20
    16  C    0.000000
    17  C    7.748893   0.000000
    18  H    5.731542   2.145291   0.000000
    19  C    8.519046   2.402446   3.859422   0.000000
    20  H    7.434647   3.858974   4.283822   2.145303   0.000000
    21  C    6.627673   7.715912   7.052875   6.541190   4.447431
    22  C    5.365510   8.534183   7.466601   7.723669   5.683613
    23  C    2.774316   7.643979   5.507764   9.027603   8.450955
    24  H    3.385823   5.804823   3.741858   7.113709   6.636174
    25  C    1.388861   8.719507   6.625238   9.711821   8.751925
    26  H    1.084834   8.048635   6.160964   8.557424   7.291023
    27  C    8.713136   1.390079   3.390052   1.390101   3.389888
    28  H    8.164896   1.084351   2.465154   3.387168   4.943312
    29  H    9.436700   3.387180   4.943772   1.084359   2.465561
    30  C    7.665654   9.015218   8.430367   7.665523   5.551461
    31  H    6.942862   7.083544   6.582945   5.857441   3.858252
    32  C    6.604154   9.725254   8.779649   8.697149   6.584202
    33  H    4.622091   8.583435   7.345967   8.005888   6.082089
    34  C    2.408903   8.677278   6.533880   9.943668   9.206740
    35  H    3.858628   7.870826   5.789146   9.439699   9.046529
    36  H    2.144469   9.656343   7.591221  10.578358   9.541529
    37  H    9.745614   2.150485   4.285405   2.150465   4.285346
    38  C    7.660043   9.944703   9.210758   8.675631   6.531872
    39  H    8.636768   9.417861   9.009361   7.909867   5.865661
    40  H    6.901424  10.599779   9.584425   9.621346   7.528627
    41  H    3.392092   9.589856   7.450203  10.956484  10.276349
    42  H    8.628428  10.957508  10.280320   9.588373   7.448684
                   21         22         23         24         25
    21  C    0.000000
    22  C    2.401148   0.000000
    23  C    8.339678   7.663388   0.000000
    24  H    7.057108   6.938381   2.145221   0.000000
    25  C    7.934139   6.605193   2.402396   3.859344   0.000000
    26  H    6.184005   4.623169   3.858996   4.283837   2.145356
    27  C    7.658239   8.708778   8.855760   6.960552   9.785530
    28  H    8.720241   9.462018   7.750152   6.008198   9.007621
    29  H    6.791820   8.126597  10.060027   8.137977  10.667877
    30  C    1.388824   2.774442   9.514051   8.348527   8.928391
    31  H    1.084794   3.385432   8.348239   6.841814   8.251212
    32  C    2.774430   1.388819   8.926672   8.248218   7.770528
    33  H    3.385417   1.084800   7.118603   6.637291   5.818196
    34  C    8.709358   7.659884   1.390070   3.389995   1.390095
    35  H    9.145591   8.633852   1.084348   2.465033   3.387137
    36  H    8.482109   6.903971   3.387136   4.943698   1.084363
    37  H    8.626935   9.740962   9.782995   7.898344  10.785291
    38  C    2.408878   2.408889   9.781478   8.882743   8.860440
    39  H    2.144453   3.858761  10.344405   9.066139   9.895553
    40  H    3.858751   2.144441   9.369482   8.905073   7.969536
    41  H    9.741711   8.628862   2.150513   4.285366   2.150453
    42  H    3.392063   3.392069  10.781315   9.931179   9.787018
                   26         27         28         29         30
    26  H    0.000000
    27  C    8.890999   0.000000
    28  H    8.562926   2.149185   0.000000
    29  H    9.404788   2.149210   4.286129   0.000000
    30  C    7.121630   8.858588  10.039345   7.783658   0.000000
    31  H    6.643746   6.967380   8.089473   6.089084   2.145313
    32  C    5.817122   9.781674  10.690421   8.972884   2.402462
    33  H    3.763276   8.883479   9.448898   8.498954   3.859075
    34  C    3.389959   9.853764   8.826283  10.953838   9.782234
    35  H    4.943333   9.140054   7.851555  10.491215  10.343562
    36  H    2.465578  10.693772   9.955857  11.509185   9.371467
    37  H    9.938909   1.084125   2.479166   2.479130   9.785358
    38  C    6.969712   9.853165  10.955419   8.823375   1.390081
    39  H    8.143918   9.145619  10.454600   7.913359   1.084353
    40  H    6.021000  10.687886  11.545510   9.901498   3.387152
    41  H    4.285396  10.806239   9.663950  11.979225  10.781792
    42  H    7.906179  10.805682  11.980749   9.661232   2.150451
                   31         32         33         34         35
    31  H    0.000000
    32  C    3.859055   0.000000
    33  H    4.283308   2.145356   0.000000
    34  C    8.883693   8.860047   6.969499   0.000000
    35  H    9.064207   9.893547   8.140394   2.149187   0.000000
    36  H    8.908597   7.970392   6.024369   2.149200   4.286112
    37  H    7.904641  10.781016   9.931152  10.806458  10.006458
    38  C    3.389900   1.390094   3.389946   9.854100  10.686951
    39  H    2.465597   3.387150   4.943418  10.688111  11.122726
    40  H    4.943399   1.084354   2.465647   9.147341  10.372571
    41  H    9.931470   9.787155   7.907066   1.084123   2.479233
    42  H    4.285343   2.150458   4.285392  10.806525  11.688828
                   36         37         38         39         40
    36  H    0.000000
    37  H   11.695422   0.000000
    38  C    9.148051  10.805397   0.000000
    39  H   10.374492  10.011568   2.149134   0.000000
    40  H    8.023201  11.689055   2.149152   4.286037   0.000000
    41  H    2.479104  11.731747  10.806626  11.689465  10.013697
    42  H   10.013557  11.730685   1.084114   2.479039   2.479054
                   41         42
    41  H    0.000000
    42  H   11.731844   0.000000
 Stoichiometry    C24H18
 Framework group  C1[X(C24H18)]
 Deg. of freedom   120
 Full point group                 C1      NOp   1
 Largest Abelian subgroup         C1      NOp   1
 Largest concise Abelian subgroup C1      NOp   1
                         Standard orientation:                         
 ---------------------------------------------------------------------
 Center     Atomic      Atomic             Coordinates (Angstroms)
 Number     Number       Type             X           Y           Z
 ---------------------------------------------------------------------
      1          6           0       -0.011676    1.401414   -0.040199
      2          6           0       -1.205951    0.682265   -0.029093
      3          6           0        1.194858    0.703063   -0.011826
      4          6           0       -1.208335   -0.711335    0.010378
      5          1           0       -2.149948    1.216443   -0.051380
      6          6           0       -0.024392    2.884871   -0.098889
      7          6           0        1.220096   -0.690511    0.028201
      8          1           0        2.129372    1.251453   -0.065804
      9          6           0        0.011570   -1.385978    0.039181
     10          6           0       -2.488218   -1.463180    0.039729
     11          6           0       -1.227324    3.592414   -0.039492
     12          6           0        1.167667    3.603756   -0.214817
     13          6           0        2.511744   -1.421563    0.058922
     14          1           0        0.020370   -2.468118    0.115727
     15          6           0       -3.547406   -1.039763    0.845979
     16          6           0       -2.659746   -2.609653   -0.739633
     17          6           0       -1.238009    4.980221   -0.093243
     18          1           0       -2.163554    3.048619    0.027393
     19          6           0        1.157984    4.991494   -0.268853
     20          1           0        2.111745    3.070053   -0.241851
     21          6           0        3.560277   -0.984703    0.871858
     22          6           0        2.705529   -2.561834   -0.724255
     23          6           0       -4.744863   -1.742903    0.872155
     24          1           0       -3.423043   -0.164181    1.474151
     25          6           0       -3.856740   -3.313557   -0.713969
     26          1           0       -1.854255   -2.939820   -1.386966
     27          6           0       -0.045250    5.684920   -0.207462
     28          1           0       -2.181990    5.512361   -0.053953
     29          1           0        2.093760    5.533117   -0.351325
     30          6           0        4.768851   -1.668314    0.901121
     31          1           0        3.418525   -0.113564    1.502572
     32          6           0        3.913476   -3.246564   -0.695526
     33          1           0        1.908815   -2.901647   -1.377374
     34          6           0       -4.903974   -2.882443    0.092137
     35          1           0       -5.553373   -1.403849    1.510251
     36          1           0       -3.974436   -4.197129   -1.331457
     37          1           0       -0.053413    6.768192   -0.249694
     38          6           0        4.949766   -2.802076    0.117428
     39          1           0        5.568978   -1.318964    1.544219
     40          1           0        4.048430   -4.125458   -1.316137
     41          1           0       -5.838508   -3.431580    0.112539
     42          1           0        5.892915   -3.336175    0.140096
 ---------------------------------------------------------------------
 Rotational constants (GHZ):           0.2007503           0.1977250           0.1028883
 Leave Link  202 at Mon Nov 14 15:12:01 2022, MaxMem= 16106127360 cpu:               0.4 elap:               0.0
 (Enter /opt/ap/G16/B01/g16/l301.exe)
 Standard basis: 6-311++G(d,p) (5D, 7F)
 Ernie: Thresh=  0.10000D-02 Tol=  0.10000D-05 Strict=F.
 There are   678 symmetry adapted cartesian basis functions of A   symmetry.
 There are   654 symmetry adapted basis functions of A   symmetry.
   654 basis functions,  1026 primitive gaussians,   678 cartesian basis functions
    81 alpha electrons       81 beta electrons
       nuclear repulsion energy      1734.5826349711 Hartrees.
 IExCor= 4639 DFT=T Ex+Corr=wB97XD ExCW=0 ScaHFX=  1.000000
 ScaDFX=  1.000000  1.000000  1.000000  1.000000 ScalE2=  1.000000  1.000000
 IRadAn=      5 IRanWt=     -1 IRanGd=            0 ICorTp=0 IEmpDi=121
 HFx  wShort=  0.000000 wLong=  0.200000 cFull=  0.222036 cShort=  0.000000 cLong=  0.777964
 DFx  wShort=  0.000000 wLong=  0.200000 cFull=  0.000000 cShort=  0.000000 cLong=  1.000000
 NAtoms=   42 NActive=   42 NUniq=   42 SFac= 1.00D+00 NAtFMM=   60 NAOKFM=F Big=F
 Integral buffers will be    131072 words long.
 Raffenetti 2 integral format.
 Two-electron integral symmetry is turned on.
 R6Disp:  Grimme-D2 Dispersion energy=       -0.0287054850 Hartrees.
 Nuclear repulsion after empirical dispersion term =     1734.5539294861 Hartrees.
 Leave Link  301 at Mon Nov 14 15:12:01 2022, MaxMem= 16106127360 cpu:               1.2 elap:               0.0
 (Enter /opt/ap/G16/B01/g16/l302.exe)
 NPDir=0 NMtPBC=     1 NCelOv=     1 NCel=       1 NClECP=     1 NCelD=      1
         NCelK=      1 NCelE2=     1 NClLst=     1 CellRange=     0.0.
 One-electron integrals computed using PRISM.
 One-electron integral symmetry used in STVInt
 NBasis=   654 RedAO= T EigKep=  1.01D-06  NBF=   654
 NBsUse=   644 1.00D-06 EigRej=  9.70D-07 NBFU=   644
 Precomputing XC quadrature grid using
 IXCGrd= 4 IRadAn=           5 IRanWt=          -1 IRanGd=           0 AccXCQ= 0.00D+00.
 Generated NRdTot=       0 NPtTot=           0 NUsed=           0 NTot=          32
 NSgBfM=   669   669   669   669   669 MxSgAt=    42 MxSgA2=    42.
 Leave Link  302 at Mon Nov 14 15:12:01 2022, MaxMem= 16106127360 cpu:              20.8 elap:               0.7
 (Enter /opt/ap/G16/B01/g16/l303.exe)
 DipDrv:  MaxL=1.
 Leave Link  303 at Mon Nov 14 15:12:01 2022, MaxMem= 16106127360 cpu:               2.8 elap:               0.1
 (Enter /opt/ap/G16/B01/g16/l401.exe)
 ExpMin= 3.60D-02 ExpMax= 4.56D+03 ExpMxC= 6.82D+02 IAcc=3 IRadAn=         5 AccDes= 0.00D+00
 Harris functional with IExCor= 4639 and IRadAn=       5 diagonalized for initial guess.
 HarFok:  IExCor= 4639 AccDes= 0.00D+00 IRadAn=         5 IDoV= 1 UseB2=F ITyADJ=14
 ICtDFT=  3500011 ScaDFX=  1.000000  1.000000  1.000000  1.000000
 FoFCou: FMM=F IPFlag=           0 FMFlag=      100000 FMFlg1=           0
         NFxFlg=           0 DoJE=T BraDBF=F KetDBF=T FulRan=T
         wScrn=  0.000000 ICntrl=       500 IOpCl=  0 I1Cent=   200000004 NGrid=           0
         NMat0=    1 NMatS0=      1 NMatT0=    0 NMatD0=    1 NMtDS0=    0 NMtDT0=    0
 Petite list used in FoFCou.
 Harris En= -882.962573187425    
 JPrj=0 DoOrth=F DoCkMO=F.
 Leave Link  401 at Mon Nov 14 15:12:03 2022, MaxMem= 16106127360 cpu:              56.7 elap:               1.8
 (Enter /opt/ap/G16/B01/g16/l502.exe)
 Integral symmetry usage will be decided dynamically.
 Closed shell SCF:
 Using DIIS extrapolation, IDIIS=  1040.
 NGot= 16106127360 LenX= 16105179956 LenY= 16104719594
 Requested convergence on RMS density matrix=1.00D-08 within 512 cycles.
 Requested convergence on MAX density matrix=1.00D-06.
 Requested convergence on             energy=1.00D-06.
 No special actions if energy rises.
 Fock matrices will be formed incrementally for  20 cycles.

 Cycle   1  Pass 1  IDiag  1:
 FoFJK:  IHMeth= 1 ICntrl=       0 DoSepK=T KAlg= 0 I1Cent=           0 FoldK=F
 IRaf=         1 NMat=       1 IRICut=       1 DoRegI=T DoRafI=F ISym2E= 0 IDoP0=0 IntGTp=1.
 FoFCou: FMM=F IPFlag=           0 FMFlag=      100000 FMFlg1=           0
         NFxFlg=           0 DoJE=T BraDBF=F KetDBF=F FulRan=T
         wScrn=  0.000000 ICntrl=       500 IOpCl=  0 I1Cent=           0 NGrid=           0
         NMat0=    1 NMatS0=      1 NMatT0=    0 NMatD0=    1 NMtDS0=    0 NMtDT0=    0
 Symmetry not used in FoFCou.
 E= -925.110228313369    
 DIIS: error= 5.69D-02 at cycle   1 NSaved=   1.
 NSaved= 1 IEnMin= 1 EnMin= -925.110228313369     IErMin= 1 ErrMin= 5.69D-02
 ErrMax= 5.69D-02  0.00D+00 EMaxC= 1.00D-01 BMatC= 1.90D+00 BMatP= 1.90D+00
 IDIUse=3 WtCom= 4.31D-01 WtEn= 5.69D-01
 Coeff-Com:  0.100D+01
 Coeff-En:   0.100D+01
 Coeff:      0.100D+01
 Gap=     0.303 Goal=   None    Shift=    0.000
 GapD=    0.303 DampG=1.000 DampE=0.500 DampFc=0.5000 IDamp=-1.
 Damping current iteration by 5.00D-01
 RMSDP=4.39D-02 MaxDP=6.14D+00              OVMax= 4.49D-02

 Cycle   2  Pass 1  IDiag  1:
 RMSU=  6.79D-03    CP:  8.03D-01
 E= -925.209263594232     Delta-E=       -0.099035280863 Rises=F Damp=T
 DIIS: error= 2.77D-02 at cycle   2 NSaved=   2.
 NSaved= 2 IEnMin= 2 EnMin= -925.209263594232     IErMin= 2 ErrMin= 2.77D-02
 ErrMax= 2.77D-02  0.00D+00 EMaxC= 1.00D-01 BMatC= 4.32D-01 BMatP= 1.90D+00
 IDIUse=3 WtCom= 7.23D-01 WtEn= 2.77D-01
 Coeff-Com: -0.883D+00 0.188D+01
 Coeff-En:   0.000D+00 0.100D+01
 Coeff:     -0.638D+00 0.164D+01
 Gap=     0.311 Goal=   None    Shift=    0.000
 RMSDP=2.67D-02 MaxDP=3.13D+00 DE=-9.90D-02 OVMax= 3.28D-02

 Cycle   3  Pass 1  IDiag  1:
 RMSU=  4.45D-03    CP:  5.55D-01  1.30D+00
 E= -925.299094701914     Delta-E=       -0.089831107682 Rises=F Damp=F
 DIIS: error= 2.83D-03 at cycle   3 NSaved=   3.
 NSaved= 3 IEnMin= 3 EnMin= -925.299094701914     IErMin= 3 ErrMin= 2.83D-03
 ErrMax= 2.83D-03  0.00D+00 EMaxC= 1.00D-01 BMatC= 7.64D-03 BMatP= 4.32D-01
 IDIUse=3 WtCom= 9.72D-01 WtEn= 2.83D-02
 Coeff-Com: -0.353D+00 0.750D+00 0.602D+00
 Coeff-En:   0.000D+00 0.000D+00 0.100D+01
 Coeff:     -0.343D+00 0.729D+00 0.614D+00
 Gap=     0.310 Goal=   None    Shift=    0.000
 RMSDP=1.96D-03 MaxDP=1.93D-01 DE=-8.98D-02 OVMax= 1.85D-02

 Cycle   4  Pass 1  IDiag  1:
 RMSU=  1.48D-03    CP:  5.51D-01  1.41D+00  7.81D-01
 E= -925.306045661509     Delta-E=       -0.006950959595 Rises=F Damp=F
 DIIS: error= 8.29D-04 at cycle   4 NSaved=   4.
 NSaved= 4 IEnMin= 4 EnMin= -925.306045661509     IErMin= 4 ErrMin= 8.29D-04
 ErrMax= 8.29D-04  0.00D+00 EMaxC= 1.00D-01 BMatC= 2.71D-04 BMatP= 7.64D-03
 IDIUse=3 WtCom= 9.92D-01 WtEn= 8.29D-03
 Coeff-Com: -0.108D+00 0.231D+00 0.242D+00 0.636D+00
 Coeff-En:   0.000D+00 0.000D+00 0.000D+00 0.100D+01
 Coeff:     -0.107D+00 0.229D+00 0.240D+00 0.639D+00
 Gap=     0.309 Goal=   None    Shift=    0.000
 RMSDP=7.18D-04 MaxDP=6.38D-02 DE=-6.95D-03 OVMax= 4.24D-03

 Cycle   5  Pass 1  IDiag  1:
 RMSU=  3.90D-04    CP:  5.48D-01  1.47D+00  7.70D-01  7.81D-01
 E= -925.306331801450     Delta-E=       -0.000286139941 Rises=F Damp=F
 DIIS: error= 2.18D-04 at cycle   5 NSaved=   5.
 NSaved= 5 IEnMin= 5 EnMin= -925.306331801450     IErMin= 5 ErrMin= 2.18D-04
 ErrMax= 2.18D-04  0.00D+00 EMaxC= 1.00D-01 BMatC= 2.04D-05 BMatP= 2.71D-04
 IDIUse=3 WtCom= 9.98D-01 WtEn= 2.18D-03
 Coeff-Com:  0.258D-01-0.550D-01-0.289D-01 0.193D+00 0.865D+00
 Coeff-En:   0.000D+00 0.000D+00 0.000D+00 0.000D+00 0.100D+01
 Coeff:      0.257D-01-0.549D-01-0.288D-01 0.193D+00 0.865D+00
 Gap=     0.309 Goal=   None    Shift=    0.000
 RMSDP=2.12D-04 MaxDP=1.48D-02 DE=-2.86D-04 OVMax= 1.62D-03

 Cycle   6  Pass 1  IDiag  1:
 RMSU=  7.11D-05    CP:  5.47D-01  1.46D+00  7.92D-01  8.50D-01  1.14D+00
 E= -925.306358484618     Delta-E=       -0.000026683168 Rises=F Damp=F
 DIIS: error= 6.03D-05 at cycle   6 NSaved=   6.
 NSaved= 6 IEnMin= 6 EnMin= -925.306358484618     IErMin= 6 ErrMin= 6.03D-05
 ErrMax= 6.03D-05  0.00D+00 EMaxC= 1.00D-01 BMatC= 1.38D-06 BMatP= 2.04D-05
 IDIUse=1 WtCom= 1.00D+00 WtEn= 0.00D+00
 Coeff-Com:  0.129D-01-0.275D-01-0.177D-01 0.533D-01 0.331D+00 0.648D+00
 Coeff:      0.129D-01-0.275D-01-0.177D-01 0.533D-01 0.331D+00 0.648D+00
 Gap=     0.309 Goal=   None    Shift=    0.000
 RMSDP=7.18D-05 MaxDP=7.49D-03 DE=-2.67D-05 OVMax= 3.97D-04

 Cycle   7  Pass 1  IDiag  1:
 RMSU=  4.49D-05    CP:  5.47D-01  1.46D+00  7.96D-01  8.81D-01  1.13D+00
                    CP:  9.97D-01
 E= -925.306360190003     Delta-E=       -0.000001705385 Rises=F Damp=F
 DIIS: error= 1.91D-05 at cycle   7 NSaved=   7.
 NSaved= 7 IEnMin= 7 EnMin= -925.306360190003     IErMin= 7 ErrMin= 1.91D-05
 ErrMax= 1.91D-05  0.00D+00 EMaxC= 1.00D-01 BMatC= 1.06D-07 BMatP= 1.38D-06
 IDIUse=1 WtCom= 1.00D+00 WtEn= 0.00D+00
 Coeff-Com: -0.234D-02 0.503D-02 0.238D-02-0.280D-01-0.103D+00 0.109D+00
 Coeff-Com:  0.102D+01
 Coeff:     -0.234D-02 0.503D-02 0.238D-02-0.280D-01-0.103D+00 0.109D+00
 Coeff:      0.102D+01
 Gap=     0.309 Goal=   None    Shift=    0.000
 RMSDP=2.04D-05 MaxDP=1.62D-03 DE=-1.71D-06 OVMax= 2.76D-04

 Cycle   8  Pass 1  IDiag  1:
 RMSU=  5.27D-06    CP:  5.47D-01  1.46D+00  7.98D-01  8.82D-01  1.16D+00
                    CP:  1.14D+00  1.14D+00
 E= -925.306360433376     Delta-E=       -0.000000243373 Rises=F Damp=F
 DIIS: error= 7.31D-06 at cycle   8 NSaved=   8.
 NSaved= 8 IEnMin= 8 EnMin= -925.306360433376     IErMin= 8 ErrMin= 7.31D-06
 ErrMax= 7.31D-06  0.00D+00 EMaxC= 1.00D-01 BMatC= 7.34D-09 BMatP= 1.06D-07
 IDIUse=1 WtCom= 1.00D+00 WtEn= 0.00D+00
 Coeff-Com: -0.116D-02 0.249D-02 0.138D-02-0.111D-01-0.430D-01 0.202D-01
 Coeff-Com:  0.303D+00 0.728D+00
 Coeff:     -0.116D-02 0.249D-02 0.138D-02-0.111D-01-0.430D-01 0.202D-01
 Coeff:      0.303D+00 0.728D+00
 Gap=     0.309 Goal=   None    Shift=    0.000
 RMSDP=3.74D-06 MaxDP=5.30D-04 DE=-2.43D-07 OVMax= 5.87D-05

 Cycle   9  Pass 1  IDiag  1:
 RMSU=  1.63D-06    CP:  5.47D-01  1.46D+00  7.98D-01  8.82D-01  1.16D+00
                    CP:  1.15D+00  1.19D+00  1.17D+00
 E= -925.306360444195     Delta-E=       -0.000000010819 Rises=F Damp=F
 DIIS: error= 4.68D-06 at cycle   9 NSaved=   9.
 NSaved= 9 IEnMin= 9 EnMin= -925.306360444195     IErMin= 9 ErrMin= 4.68D-06
 ErrMax= 4.68D-06  0.00D+00 EMaxC= 1.00D-01 BMatC= 2.10D-09 BMatP= 7.34D-09
 IDIUse=1 WtCom= 1.00D+00 WtEn= 0.00D+00
 Coeff-Com:  0.101D-03-0.221D-03 0.340D-04 0.262D-02 0.948D-02-0.173D-01
 Coeff-Com: -0.156D+00 0.331D+00 0.830D+00
 Coeff:      0.101D-03-0.221D-03 0.340D-04 0.262D-02 0.948D-02-0.173D-01
 Coeff:     -0.156D+00 0.331D+00 0.830D+00
 Gap=     0.309 Goal=   None    Shift=    0.000
 RMSDP=1.48D-06 MaxDP=7.52D-05 DE=-1.08D-08 OVMax= 4.25D-05

 Cycle  10  Pass 1  IDiag  1:
 RMSU=  6.50D-07    CP:  5.47D-01  1.46D+00  7.98D-01  8.82D-01  1.16D+00
                    CP:  1.15D+00  1.20D+00  1.34D+00  7.65D-01
 E= -925.306360448217     Delta-E=       -0.000000004023 Rises=F Damp=F
 DIIS: error= 1.25D-06 at cycle  10 NSaved=  10.
 NSaved=10 IEnMin=10 EnMin= -925.306360448217     IErMin=10 ErrMin= 1.25D-06
 ErrMax= 1.25D-06  0.00D+00 EMaxC= 1.00D-01 BMatC= 2.15D-10 BMatP= 2.10D-09
 IDIUse=1 WtCom= 1.00D+00 WtEn= 0.00D+00
 Coeff-Com:  0.118D-03-0.254D-03-0.707D-04 0.174D-02 0.629D-02-0.638D-02
 Coeff-Com: -0.763D-01 0.467D-01 0.324D+00 0.704D+00
 Coeff:      0.118D-03-0.254D-03-0.707D-04 0.174D-02 0.629D-02-0.638D-02
 Coeff:     -0.763D-01 0.467D-01 0.324D+00 0.704D+00
 Gap=     0.309 Goal=   None    Shift=    0.000
 RMSDP=3.74D-07 MaxDP=3.13D-05 DE=-4.02D-09 OVMax= 1.07D-05

 Cycle  11  Pass 1  IDiag  1:
 RMSU=  1.34D-07    CP:  5.47D-01  1.46D+00  7.98D-01  8.82D-01  1.16D+00
                    CP:  1.15D+00  1.20D+00  1.36D+00  8.97D-01  1.07D+00
 E= -925.306360448565     Delta-E=       -0.000000000347 Rises=F Damp=F
 DIIS: error= 2.11D-07 at cycle  11 NSaved=  11.
 NSaved=11 IEnMin=11 EnMin= -925.306360448565     IErMin=11 ErrMin= 2.11D-07
 ErrMax= 2.11D-07  0.00D+00 EMaxC= 1.00D-01 BMatC= 3.08D-11 BMatP= 2.15D-10
 IDIUse=1 WtCom= 1.00D+00 WtEn= 0.00D+00
 Coeff-Com:  0.203D-04-0.429D-04-0.200D-04 0.115D-03 0.245D-03 0.118D-02
 Coeff-Com:  0.159D-02-0.518D-01-0.289D-01 0.244D+00 0.834D+00
 Coeff:      0.203D-04-0.429D-04-0.200D-04 0.115D-03 0.245D-03 0.118D-02
 Coeff:      0.159D-02-0.518D-01-0.289D-01 0.244D+00 0.834D+00
 Gap=     0.309 Goal=   None    Shift=    0.000
 RMSDP=2.56D-07 MaxDP=2.02D-05 DE=-3.47D-10 OVMax= 3.37D-06

 Cycle  12  Pass 1  IDiag  1:
 RMSU=  6.12D-08    CP:  5.47D-01  1.46D+00  7.98D-01  8.82D-01  1.16D+00
                    CP:  1.15D+00  1.20D+00  1.37D+00  8.97D-01  1.24D+00
                    CP:  1.27D+00
 E= -925.306360448612     Delta-E=       -0.000000000048 Rises=F Damp=F
 DIIS: error= 1.11D-07 at cycle  12 NSaved=  12.
 NSaved=12 IEnMin=12 EnMin= -925.306360448612     IErMin=12 ErrMin= 1.11D-07
 ErrMax= 1.11D-07  0.00D+00 EMaxC= 1.00D-01 BMatC= 1.42D-12 BMatP= 3.08D-11
 IDIUse=1 WtCom= 1.00D+00 WtEn= 0.00D+00
 Coeff-Com: -0.141D-04 0.305D-04 0.126D-04-0.220D-03-0.815D-03 0.100D-02
 Coeff-Com:  0.943D-02-0.806D-02-0.301D-01-0.631D-01-0.109D+00 0.120D+01
 Coeff:     -0.141D-04 0.305D-04 0.126D-04-0.220D-03-0.815D-03 0.100D-02
 Coeff:      0.943D-02-0.806D-02-0.301D-01-0.631D-01-0.109D+00 0.120D+01
 Gap=     0.309 Goal=   None    Shift=    0.000
 RMSDP=8.01D-08 MaxDP=4.81D-06 DE=-4.77D-11 OVMax= 1.69D-06

 Cycle  13  Pass 1  IDiag  1:
 RMSU=  2.62D-08    CP:  5.47D-01  1.46D+00  7.98D-01  8.82D-01  1.16D+00
                    CP:  1.15D+00  1.20D+00  1.37D+00  8.97D-01  1.30D+00
                    CP:  1.37D+00  1.41D+00
 E= -925.306360448646     Delta-E=       -0.000000000034 Rises=F Damp=F
 DIIS: error= 3.04D-08 at cycle  13 NSaved=  13.
 NSaved=13 IEnMin=13 EnMin= -925.306360448646     IErMin=13 ErrMin= 3.04D-08
 ErrMax= 3.04D-08  0.00D+00 EMaxC= 1.00D-01 BMatC= 1.12D-13 BMatP= 1.42D-12
 IDIUse=1 WtCom= 1.00D+00 WtEn= 0.00D+00
 Coeff-Com: -0.237D-05 0.507D-05 0.265D-05-0.263D-04-0.850D-04 0.415D-04
 Coeff-Com:  0.710D-03 0.176D-02-0.136D-03-0.166D-01-0.780D-01 0.122D+00
 Coeff-Com:  0.970D+00
 Coeff:     -0.237D-05 0.507D-05 0.265D-05-0.263D-04-0.850D-04 0.415D-04
 Coeff:      0.710D-03 0.176D-02-0.136D-03-0.166D-01-0.780D-01 0.122D+00
 Coeff:      0.970D+00
 Gap=     0.309 Goal=   None    Shift=    0.000
 RMSDP=2.88D-08 MaxDP=2.71D-06 DE=-3.37D-11 OVMax= 4.29D-07

 Cycle  14  Pass 1  IDiag  1:
 RMSU=  6.37D-09    CP:  5.47D-01  1.46D+00  7.98D-01  8.82D-01  1.16D+00
                    CP:  1.15D+00  1.20D+00  1.37D+00  8.97D-01  1.30D+00
                    CP:  1.39D+00  1.52D+00  1.21D+00
 E= -925.306360448627     Delta-E=        0.000000000019 Rises=F Damp=F
 DIIS: error= 6.49D-09 at cycle  14 NSaved=  14.
 NSaved=14 IEnMin=13 EnMin= -925.306360448646     IErMin=14 ErrMin= 6.49D-09
 ErrMax= 6.49D-09  0.00D+00 EMaxC= 1.00D-01 BMatC= 3.24D-14 BMatP= 1.12D-13
 IDIUse=1 WtCom= 1.00D+00 WtEn= 0.00D+00
 Coeff-Com:  0.787D-06-0.174D-05-0.521D-06 0.174D-04 0.705D-04-0.112D-03
 Coeff-Com: -0.923D-03 0.174D-02 0.401D-02 0.201D-02-0.208D-01-0.109D+00
 Coeff-Com:  0.417D+00 0.706D+00
 Coeff:      0.787D-06-0.174D-05-0.521D-06 0.174D-04 0.705D-04-0.112D-03
 Coeff:     -0.923D-03 0.174D-02 0.401D-02 0.201D-02-0.208D-01-0.109D+00
 Coeff:      0.417D+00 0.706D+00
 Gap=     0.309 Goal=   None    Shift=    0.000
 RMSDP=7.05D-09 MaxDP=6.99D-07 DE= 1.91D-11 OVMax= 1.01D-07

 SCF Done:  E(RwB97XD) =  -925.306360449     A.U. after   14 cycles
            NFock= 14  Conv=0.71D-08     -V/T= 2.0043
 KE= 9.213201825232D+02 PE=-5.615436417778D+03 EE= 2.034255945320D+03
 Leave Link  502 at Mon Nov 14 15:14:28 2022, MaxMem= 16106127360 cpu:            4597.8 elap:             144.5
 (Enter /opt/ap/G16/B01/g16/l601.exe)
 Copying SCF densities to generalized density rwf, IOpCl= 0 IROHF=0.

 **********************************************************************

            Population analysis using the SCF Density.

 **********************************************************************

 Orbital symmetries:
       Occupied  (A) (A) (A) (A) (A) (A) (A) (A) (A) (A) (A) (A)
                 (A) (A) (A) (A) (A) (A) (A) (A) (A) (A) (A) (A)
                 (A) (A) (A) (A) (A) (A) (A) (A) (A) (A) (A) (A)
                 (A) (A) (A) (A) (A) (A) (A) (A) (A) (A) (A) (A)
                 (A) (A) (A) (A) (A) (A) (A) (A) (A) (A) (A) (A)
                 (A) (A) (A) (A) (A) (A) (A) (A) (A) (A) (A) (A)
                 (A) (A) (A) (A) (A) (A) (A) (A) (A)
       Virtual   (A) (A) (A) (A) (A) (A) (A) (A) (A) (A) (A) (A)
                 (A) (A) (A) (A) (A) (A) (A) (A) (A) (A) (A) (A)
                 (A) (A) (A) (A) (A) (A) (A) (A) (A) (A) (A) (A)
                 (A) (A) (A) (A) (A) (A) (A) (A) (A) (A) (A) (A)
                 (A) (A) (A) (A) (A) (A) (A) (A) (A) (A) (A) (A)
                 (A) (A) (A) (A) (A) (A) (A) (A) (A) (A) (A) (A)
                 (A) (A) (A) (A) (A) (A) (A) (A) (A) (A) (A) (A)
                 (A) (A) (A) (A) (A) (A) (A) (A) (A) (A) (A) (A)
                 (A) (A) (A) (A) (A) (A) (A) (A) (A) (A) (A) (A)
                 (A) (A) (A) (A) (A) (A) (A) (A) (A) (A) (A) (A)
                 (A) (A) (A) (A) (A) (A) (A) (A) (A) (A) (A) (A)
                 (A) (A) (A) (A) (A) (A) (A) (A) (A) (A) (A) (A)
                 (A) (A) (A) (A) (A) (A) (A) (A) (A) (A) (A) (A)
                 (A) (A) (A) (A) (A) (A) (A) (A) (A) (A) (A) (A)
                 (A) (A) (A) (A) (A) (A) (A) (A) (A) (A) (A) (A)
                 (A) (A) (A) (A) (A) (A) (A) (A) (A) (A) (A) (A)
                 (A) (A) (A) (A) (A) (A) (A) (A) (A) (A) (A) (A)
                 (A) (A) (A) (A) (A) (A) (A) (A) (A) (A) (A) (A)
                 (A) (A) (A) (A) (A) (A) (A) (A) (A) (A) (A) (A)
                 (A) (A) (A) (A) (A) (A) (A) (A) (A) (A) (A) (A)
                 (A) (A) (A) (A) (A) (A) (A) (A) (A) (A) (A) (A)
                 (A) (A) (A) (A) (A) (A) (A) (A) (A) (A) (A) (A)
                 (A) (A) (A) (A) (A) (A) (A) (A) (A) (A) (A) (A)
                 (A) (A) (A) (A) (A) (A) (A) (A) (A) (A) (A) (A)
                 (A) (A) (A) (A) (A) (A) (A) (A) (A) (A) (A) (A)
                 (A) (A) (A) (A) (A) (A) (A) (A) (A) (A) (A) (A)
                 (A) (A) (A) (A) (A) (A) (A) (A) (A) (A) (A) (A)
                 (A) (A) (A) (A) (A) (A) (A) (A) (A) (A) (A) (A)
                 (A) (A) (A) (A) (A) (A) (A) (A) (A) (A) (A) (A)
                 (A) (A) (A) (A) (A) (A) (A) (A) (A) (A) (A) (A)
                 (A) (A) (A) (A) (A) (A) (A) (A) (A) (A) (A) (A)
                 (A) (A) (A) (A) (A) (A) (A) (A) (A) (A) (A) (A)
                 (A) (A) (A) (A) (A) (A) (A) (A) (A) (A) (A) (A)
                 (A) (A) (A) (A) (A) (A) (A) (A) (A) (A) (A) (A)
                 (A) (A) (A) (A) (A) (A) (A) (A) (A) (A) (A) (A)
                 (A) (A) (A) (A) (A) (A) (A) (A) (A) (A) (A) (A)
                 (A) (A) (A) (A) (A) (A) (A) (A) (A) (A) (A) (A)
                 (A) (A) (A) (A) (A) (A) (A) (A) (A) (A) (A) (A)
                 (A) (A) (A) (A) (A) (A) (A) (A) (A) (A) (A) (A)
                 (A) (A) (A) (A) (A) (A) (A) (A) (A) (A) (A) (A)
                 (A) (A) (A) (A) (A) (A) (A) (A) (A) (A) (A) (A)
                 (A) (A) (A) (A) (A) (A) (A) (A) (A) (A) (A) (A)
                 (A) (A) (A) (A) (A) (A) (A) (A) (A) (A) (A) (A)
                 (A) (A) (A) (A) (A) (A) (A) (A) (A) (A) (A) (A)
                 (A) (A) (A) (A) (A) (A) (A) (A) (A) (A) (A) (A)
                 (A) (A) (A) (A) (A) (A) (A) (A) (A) (A) (A) (A)
                 (A) (A) (A) (A) (A) (A) (A) (A) (A) (A) (A)
 The electronic state is 1-A.
 Alpha  occ. eigenvalues --  -10.30539 -10.30502 -10.30500 -10.30442 -10.30386
 Alpha  occ. eigenvalues --  -10.30373 -10.29321 -10.29313 -10.29308 -10.29299
 Alpha  occ. eigenvalues --  -10.29299 -10.29289 -10.29226 -10.29221 -10.29219
 Alpha  occ. eigenvalues --  -10.29204 -10.29201 -10.29190 -10.29160 -10.29154
 Alpha  occ. eigenvalues --  -10.29135 -10.29102 -10.29097 -10.29087  -0.99080
 Alpha  occ. eigenvalues --   -0.97136  -0.97112  -0.95307  -0.89538  -0.89508
 Alpha  occ. eigenvalues --   -0.85507  -0.85389  -0.85330  -0.85106  -0.82319
 Alpha  occ. eigenvalues --   -0.82245  -0.74016  -0.73663  -0.71196  -0.70890
 Alpha  occ. eigenvalues --   -0.70190  -0.69972  -0.66729  -0.66563  -0.63955
 Alpha  occ. eigenvalues --   -0.61050  -0.60758  -0.58634  -0.57494  -0.56964
 Alpha  occ. eigenvalues --   -0.54938  -0.54886  -0.54295  -0.54032  -0.52256
 Alpha  occ. eigenvalues --   -0.52027  -0.51709  -0.51612  -0.51185  -0.51051
 Alpha  occ. eigenvalues --   -0.50276  -0.48784  -0.46988  -0.46500  -0.46198
 Alpha  occ. eigenvalues --   -0.45496  -0.44857  -0.44404  -0.43204  -0.43183
 Alpha  occ. eigenvalues --   -0.42992  -0.41931  -0.41173  -0.37689  -0.36585
 Alpha  occ. eigenvalues --   -0.33723  -0.33687  -0.33676  -0.32977  -0.30316
 Alpha  occ. eigenvalues --   -0.29652
 Alpha virt. eigenvalues --    0.01245   0.01893   0.03695   0.04170   0.04193
 Alpha virt. eigenvalues --    0.04504   0.04875   0.04961   0.05007   0.05129
 Alpha virt. eigenvalues --    0.05302   0.05689   0.05945   0.06928   0.07079
 Alpha virt. eigenvalues --    0.07215   0.08184   0.08353   0.08448   0.08961
 Alpha virt. eigenvalues --    0.09122   0.09228   0.09840   0.10894   0.11089
 Alpha virt. eigenvalues --    0.11404   0.12318   0.12542   0.12742   0.13419
 Alpha virt. eigenvalues --    0.14008   0.14252   0.14507   0.14922   0.15141
 Alpha virt. eigenvalues --    0.15701   0.15787   0.15801   0.16205   0.16367
 Alpha virt. eigenvalues --    0.16539   0.16698   0.16860   0.16899   0.17311
 Alpha virt. eigenvalues --    0.17399   0.17701   0.17995   0.18128   0.18423
 Alpha virt. eigenvalues --    0.18464   0.18633   0.18944   0.19349   0.19504
 Alpha virt. eigenvalues --    0.19716   0.19843   0.19950   0.20378   0.20772
 Alpha virt. eigenvalues --    0.21071   0.21275   0.21487   0.21774   0.21914
 Alpha virt. eigenvalues --    0.22013   0.22634   0.23015   0.23221   0.23397
 Alpha virt. eigenvalues --    0.23564   0.23729   0.24014   0.24330   0.24929
 Alpha virt. eigenvalues --    0.24994   0.25142   0.25277   0.25591   0.25852
 Alpha virt. eigenvalues --    0.26065   0.26290   0.26620   0.26794   0.27055
 Alpha virt. eigenvalues --    0.27446   0.27804   0.27939   0.28219   0.28705
 Alpha virt. eigenvalues --    0.28804   0.29327   0.29450   0.29704   0.29929
 Alpha virt. eigenvalues --    0.30048   0.30370   0.30748   0.31021   0.31378
 Alpha virt. eigenvalues --    0.31634   0.32027   0.32450   0.32605   0.32899
 Alpha virt. eigenvalues --    0.33257   0.33566   0.33964   0.34215   0.34603
 Alpha virt. eigenvalues --    0.34683   0.34928   0.35503   0.35725   0.36014
 Alpha virt. eigenvalues --    0.36383   0.36612   0.36718   0.37098   0.37236
 Alpha virt. eigenvalues --    0.37916   0.38047   0.38245   0.38299   0.38757
 Alpha virt. eigenvalues --    0.39105   0.39271   0.40255   0.40407   0.40575
 Alpha virt. eigenvalues --    0.40965   0.41112   0.41311   0.41544   0.42181
 Alpha virt. eigenvalues --    0.42744   0.43297   0.43428   0.43625   0.44445
 Alpha virt. eigenvalues --    0.44703   0.44950   0.45080   0.45391   0.45915
 Alpha virt. eigenvalues --    0.47013   0.48159   0.48902   0.49738   0.50981
 Alpha virt. eigenvalues --    0.51328   0.53323   0.54621   0.57519   0.57989
 Alpha virt. eigenvalues --    0.59128   0.59668   0.61043   0.61183   0.61711
 Alpha virt. eigenvalues --    0.61889   0.62317   0.62752   0.63084   0.63198
 Alpha virt. eigenvalues --    0.63293   0.63494   0.63988   0.64176   0.64194
 Alpha virt. eigenvalues --    0.64940   0.65032   0.65266   0.65815   0.66191
 Alpha virt. eigenvalues --    0.66555   0.66829   0.67375   0.68559   0.68804
 Alpha virt. eigenvalues --    0.68927   0.69733   0.69999   0.70020   0.70764
 Alpha virt. eigenvalues --    0.71475   0.71685   0.72651   0.72778   0.72970
 Alpha virt. eigenvalues --    0.73132   0.74017   0.74149   0.74646   0.74995
 Alpha virt. eigenvalues --    0.75809   0.76206   0.76617   0.76854   0.78092
 Alpha virt. eigenvalues --    0.78474   0.79025   0.79133   0.80047   0.80512
 Alpha virt. eigenvalues --    0.80962   0.81181   0.81503   0.81828   0.82096
 Alpha virt. eigenvalues --    0.82447   0.82825   0.83902   0.84370   0.85084
 Alpha virt. eigenvalues --    0.85132   0.85492   0.85968   0.86277   0.86612
 Alpha virt. eigenvalues --    0.87450   0.88056   0.88337   0.89176   0.90133
 Alpha virt. eigenvalues --    0.91368   0.91623   0.92150   0.92809   0.93017
 Alpha virt. eigenvalues --    0.93436   0.93792   0.93838   0.94472   0.94779
 Alpha virt. eigenvalues --    0.94932   0.95466   0.96442   0.97161   0.97389
 Alpha virt. eigenvalues --    0.98208   0.98661   0.99883   1.00109   1.01229
 Alpha virt. eigenvalues --    1.01574   1.01905   1.02669   1.02727   1.03120
 Alpha virt. eigenvalues --    1.03670   1.04766   1.05230   1.05615   1.06189
 Alpha virt. eigenvalues --    1.06999   1.07057   1.07609   1.08240   1.08920
 Alpha virt. eigenvalues --    1.09300   1.10109   1.11603   1.12198   1.12558
 Alpha virt. eigenvalues --    1.13035   1.13580   1.13721   1.14581   1.15152
 Alpha virt. eigenvalues --    1.16417   1.16713   1.17218   1.17312   1.17772
 Alpha virt. eigenvalues --    1.18184   1.19576   1.20629   1.20862   1.21564
 Alpha virt. eigenvalues --    1.22436   1.22920   1.23073   1.23799   1.25099
 Alpha virt. eigenvalues --    1.25498   1.25716   1.27938   1.30770   1.32334
 Alpha virt. eigenvalues --    1.38506   1.40893   1.41581   1.42163   1.46523
 Alpha virt. eigenvalues --    1.46920   1.47267   1.52695   1.55130   1.56265
 Alpha virt. eigenvalues --    1.57541   1.58235   1.58557   1.58650   1.59161
 Alpha virt. eigenvalues --    1.59296   1.60148   1.60961   1.61839   1.62177
 Alpha virt. eigenvalues --    1.62563   1.62757   1.63411   1.63810   1.64554
 Alpha virt. eigenvalues --    1.65280   1.65460   1.65598   1.65865   1.66463
 Alpha virt. eigenvalues --    1.66711   1.67437   1.68435   1.69439   1.69951
 Alpha virt. eigenvalues --    1.72034   1.72846   1.73405   1.73924   1.74176
 Alpha virt. eigenvalues --    1.74606   1.75723   1.75940   1.76355   1.77675
 Alpha virt. eigenvalues --    1.77824   1.81008   1.81688   1.81979   1.82739
 Alpha virt. eigenvalues --    1.82993   1.83643   1.84906   1.85340   1.85464
 Alpha virt. eigenvalues --    1.86334   1.86658   1.86771   1.87334   1.90102
 Alpha virt. eigenvalues --    1.91440   1.92661   1.92946   1.93551   1.94615
 Alpha virt. eigenvalues --    1.95599   1.96525   1.97747   2.00115   2.01195
 Alpha virt. eigenvalues --    2.01274   2.01833   2.02416   2.02720   2.03100
 Alpha virt. eigenvalues --    2.03907   2.04071   2.04387   2.04456   2.04628
 Alpha virt. eigenvalues --    2.05159   2.05296   2.05426   2.05588   2.07067
 Alpha virt. eigenvalues --    2.07296   2.08224   2.08445   2.08714   2.09317
 Alpha virt. eigenvalues --    2.11311   2.12496   2.12812   2.13337   2.14072
 Alpha virt. eigenvalues --    2.14572   2.16646   2.17006   2.17143   2.18265
 Alpha virt. eigenvalues --    2.19579   2.20148   2.20282   2.23778   2.25197
 Alpha virt. eigenvalues --    2.28593   2.30952   2.34530   2.35765   2.36564
 Alpha virt. eigenvalues --    2.36824   2.39769   2.40723   2.42952   2.43609
 Alpha virt. eigenvalues --    2.44521   2.44689   2.48903   2.49196   2.50865
 Alpha virt. eigenvalues --    2.52446   2.53023   2.53747   2.54355   2.55239
 Alpha virt. eigenvalues --    2.56268   2.56339   2.57478   2.57666   2.58429
 Alpha virt. eigenvalues --    2.59241   2.60456   2.62571   2.62801   2.70683
 Alpha virt. eigenvalues --    2.73047   2.73166   2.73235   2.75891   2.76109
 Alpha virt. eigenvalues --    2.76867   2.78836   2.79225   2.79392   2.79973
 Alpha virt. eigenvalues --    2.80053   2.80413   2.81024   2.81165   2.81479
 Alpha virt. eigenvalues --    2.82034   2.82443   2.83205   2.83462   2.83916
 Alpha virt. eigenvalues --    2.84305   2.85458   2.85690   2.86437   2.87300
 Alpha virt. eigenvalues --    2.87561   2.88373   2.89449   2.90124   2.90627
 Alpha virt. eigenvalues --    2.91469   2.92496   2.92877   2.93776   2.94023
 Alpha virt. eigenvalues --    2.94187   2.95028   2.96563   2.96826   2.99410
 Alpha virt. eigenvalues --    2.99677   3.00177   3.01584   3.03157   3.04305
 Alpha virt. eigenvalues --    3.04565   3.04865   3.05004   3.05325   3.05966
 Alpha virt. eigenvalues --    3.07054   3.07204   3.11523   3.12990   3.15504
 Alpha virt. eigenvalues --    3.15949   3.17975   3.19850   3.20442   3.21660
 Alpha virt. eigenvalues --    3.24796   3.26646   3.31786   3.32392   3.33214
 Alpha virt. eigenvalues --    3.33576   3.35392   3.35890   3.39173   3.47105
 Alpha virt. eigenvalues --    3.47570   3.49243   3.49389   3.49771   3.49905
 Alpha virt. eigenvalues --    3.53894   3.55063   3.60791   3.61030   3.62924
 Alpha virt. eigenvalues --    3.63668   3.65245   3.65919   3.66477   3.73579
 Alpha virt. eigenvalues --    3.73744   3.75700   3.76865   3.76953   3.78405
 Alpha virt. eigenvalues --    3.88543   3.91594   3.92893   4.09835   4.10204
 Alpha virt. eigenvalues --    4.11068   4.14562   4.14599   4.14683   4.23536
 Alpha virt. eigenvalues --    4.24081   4.26247   4.26333   4.26940   4.27032
 Alpha virt. eigenvalues --    4.28999   4.33939   4.52639   4.66909   4.74164
 Alpha virt. eigenvalues --    4.93211   4.95430   4.95486   5.00530  23.67409
 Alpha virt. eigenvalues --   23.79920  23.81960  23.88199  24.08702  24.09013
 Alpha virt. eigenvalues --   24.10275  24.10660  24.10952  24.11795  24.12118
 Alpha virt. eigenvalues --   24.13177  24.20644  24.20691  24.21446  24.23276
 Alpha virt. eigenvalues --   24.24190  24.24271  24.24427  24.25181  24.31319
 Alpha virt. eigenvalues --   24.33790  24.33845  24.34628
          Condensed to atoms (all electrons):
               1          2          3          4          5          6
     1  C   13.505367  -0.818689  -0.614501  -2.582832  -0.034750   4.579036
     2  C   -0.818689  11.369465  -0.465581   2.233114   0.302938  -1.444185
     3  C   -0.614501  -0.465581  11.865822   0.169729   0.137796  -2.260456
     4  C   -2.582832   2.233114   0.169729  19.271094  -0.055766  -1.866577
     5  H   -0.034750   0.302938   0.137796  -0.055766   0.720014  -0.078563
     6  C    4.579036  -1.444185  -2.260456  -1.866577  -0.078563  12.890381
     7  C   -5.920249  -1.971931   2.359784  -9.068325   0.114475  -3.543834
     8  H   -0.054492  -0.004218   0.279320   0.014221   0.012367  -0.065742
     9  C   -2.754967   0.213172  -0.103384   1.848533   0.072671  -1.027375
    10  C    1.563349  -1.103590  -0.510213  -1.069980   0.076809   0.733094
    11  C   -1.597948   3.754248  -5.245825   0.169384  -0.148743  -1.029014
    12  C   -0.069321  -3.348912   3.064664  -0.346449   0.030756  -0.361092
    13  C    0.780662  -0.934461  -1.040414  -2.065176  -0.008296   0.302726
    14  H    0.045383   0.002379  -0.022433  -0.019375  -0.000273  -0.000913
    15  C   -0.170937  -0.280180  -0.282074  -0.281219  -0.173905  -0.214149
    16  C    0.097996  -0.065987   0.189620  -1.642669   0.135735   0.184836
    17  C   -0.118294  -0.527963  -0.032348   0.440019   0.017867  -0.801227
    18  H   -0.075703   0.103704  -0.139787  -0.050245  -0.050796  -0.022000
    19  C   -0.985898  -0.527157  -0.654767  -0.228164  -0.049660  -1.528242
    20  H   -0.019006  -0.003961  -0.020017  -0.005739  -0.006616   0.017325
    21  C    0.887634  -0.224730   1.522607  -0.814447  -0.035556   0.048159
    22  C   -1.000829   0.166639  -1.444928   0.745408   0.026133  -0.077070
    23  C    0.246210   0.607652  -0.004702   0.488716  -0.083134   0.048538
    24  H   -0.018920  -0.051825  -0.000266  -0.006855   0.004140  -0.008163
    25  C   -0.268529  -0.129379  -0.026246   0.113137   0.010471  -0.073892
    26  H    0.026443   0.023405  -0.008966   0.120534  -0.006014   0.012830
    27  C   -0.427323   0.199151  -0.167041  -0.026007   0.000448  -0.290407
    28  H    0.017548  -0.012521   0.006038   0.003857   0.003900   0.035685
    29  H    0.002898  -0.006227  -0.006108  -0.000586   0.000176   0.010358
    30  C    0.285776   0.035787   0.370721   0.042312  -0.004251   0.104840
    31  H   -0.021926  -0.015003   0.008111  -0.012832  -0.000642  -0.016495
    32  C   -0.157401   0.025258  -0.019265   0.560089   0.003573  -0.059284
    33  H    0.001665  -0.011133   0.019424  -0.192730   0.000807   0.005529
    34  C    0.016454  -0.023312  -0.001635  -0.449570  -0.008866   0.015803
    35  H    0.002236   0.006297  -0.001240   0.002072  -0.000580   0.000385
    36  H   -0.002689  -0.005843  -0.000005   0.000607   0.000984  -0.000765
    37  H   -0.000778   0.003407  -0.001426  -0.000063  -0.000634   0.028915
    38  C   -0.043277  -0.012747  -0.038528  -0.119275  -0.000013  -0.005475
    39  H    0.004569   0.000412   0.000449   0.004846  -0.000018   0.002486
    40  H    0.000781   0.000384  -0.003775   0.015471  -0.000036   0.000079
    41  H    0.002340   0.000528  -0.000160  -0.009641  -0.000625   0.000774
    42  H    0.001395  -0.000365   0.001197  -0.002486  -0.000001   0.000375
               7          8          9         10         11         12
     1  C   -5.920249  -0.054492  -2.754967   1.563349  -1.597948  -0.069321
     2  C   -1.971931  -0.004218   0.213172  -1.103590   3.754248  -3.348912
     3  C    2.359784   0.279320  -0.103384  -0.510213  -5.245825   3.064664
     4  C   -9.068325   0.014221   1.848533  -1.069980   0.169384  -0.346449
     5  H    0.114475   0.012367   0.072671   0.076809  -0.148743   0.030756
     6  C   -3.543834  -0.065742  -1.027375   0.733094  -1.029014  -0.361092
     7  C   23.788291   0.045709   0.101175  -0.620057  -1.864084   0.563637
     8  H    0.045709   0.842847  -0.009326   0.015169  -0.048821   0.010274
     9  C    0.101175  -0.009326  13.560828  -2.452009   0.299946   0.143563
    10  C   -0.620057   0.015169  -2.452009  12.024413  -0.592679   0.314361
    11  C   -1.864084  -0.048821   0.299946  -0.592679  19.483100  -7.049325
    12  C    0.563637   0.010274   0.143563   0.314361  -7.049325  13.630094
    13  C    1.386132   0.236045  -3.079415   0.889401   0.046467  -0.429832
    14  H   -0.059104  -0.004437   0.314245   0.070229   0.008043  -0.003400
    15  C    0.148342  -0.019729  -0.474292  -0.652719   0.185094  -0.105658
    16  C    0.787358   0.012966   0.548349  -1.361151  -0.247710   0.086721
    17  C    0.277209   0.008331  -0.075647   0.087391  -2.867855   1.157625
    18  H   -0.094170  -0.008112  -0.001932  -0.055548   0.820260  -0.044951
    19  C   -0.091608  -0.018671   0.069045   0.010622   1.951360  -0.252530
    20  H   -0.065770  -0.096512   0.020911  -0.005134   0.075906   0.446506
    21  C    0.127741  -0.256783  -1.232652   0.045622  -0.001583   0.159695
    22  C   -0.433450   0.205427   0.701034  -0.004986  -0.004295  -0.221782
    23  C   -0.505072  -0.007100   0.028235  -0.888861   0.063906   0.015432
    24  H    0.057434   0.000832  -0.012282  -0.042391  -0.018476  -0.004819
    25  C    0.376652   0.002018   0.443107  -0.976010   0.077726  -0.029032
    26  H   -0.138877   0.001030  -0.086409  -0.013645  -0.013253   0.008805
    27  C   -0.106079  -0.011632   0.022511  -0.017534   0.755864  -1.039665
    28  H    0.005433   0.001569  -0.000237   0.003822  -0.145402   0.031482
    29  H   -0.000139   0.007498  -0.000399   0.000169   0.020991  -0.076348
    30  C   -0.430107  -0.090251   0.327447  -0.036897   0.026818  -0.032765
    31  H    0.047409  -0.004976  -0.051384   0.007906  -0.009548   0.009389
    32  C   -0.125411  -0.001293   0.741079  -0.148260  -0.020549   0.074443
    33  H    0.208469  -0.006239  -0.112246  -0.006956   0.005843  -0.013535
    34  C    0.094121   0.000982  -0.054445  -0.522480  -0.030852   0.004938
    35  H   -0.003079  -0.000106  -0.000253   0.031237   0.001914   0.000072
    36  H    0.007321  -0.000052   0.014360   0.041335   0.000750  -0.000265
    37  H   -0.001110  -0.002132   0.000294  -0.000449  -0.010843  -0.001784
    38  C   -0.019286   0.001315  -0.286116   0.040889  -0.000111  -0.021393
    39  H   -0.007631  -0.001325   0.010444  -0.000979   0.000640  -0.000410
    40  H   -0.014287   0.000845   0.021683  -0.003233  -0.000088   0.000794
    41  H    0.001222   0.000026  -0.005862   0.012733  -0.000573   0.000118
    42  H   -0.002942  -0.000476  -0.011404   0.001104   0.000048  -0.000376
              13         14         15         16         17         18
     1  C    0.780662   0.045383  -0.170937   0.097996  -0.118294  -0.075703
     2  C   -0.934461   0.002379  -0.280180  -0.065987  -0.527963   0.103704
     3  C   -1.040414  -0.022433  -0.282074   0.189620  -0.032348  -0.139787
     4  C   -2.065176  -0.019375  -0.281219  -1.642669   0.440019  -0.050245
     5  H   -0.008296  -0.000273  -0.173905   0.135735   0.017867  -0.050796
     6  C    0.302726  -0.000913  -0.214149   0.184836  -0.801227  -0.022000
     7  C    1.386132  -0.059104   0.148342   0.787358   0.277209  -0.094170
     8  H    0.236045  -0.004437  -0.019729   0.012966   0.008331  -0.008112
     9  C   -3.079415   0.314245  -0.474292   0.548349  -0.075647  -0.001932
    10  C    0.889401   0.070229  -0.652719  -1.361151   0.087391  -0.055548
    11  C    0.046467   0.008043   0.185094  -0.247710  -2.867855   0.820260
    12  C   -0.429832  -0.003400  -0.105658   0.086721   1.157625  -0.044951
    13  C   14.487093   0.029514   0.240274  -0.253219   0.099005  -0.009602
    14  H    0.029514   0.489755   0.043316  -0.074094  -0.001321  -0.000410
    15  C    0.240274   0.043316  15.967359  -5.973558  -0.056565   0.028410
    16  C   -0.253219  -0.074094  -5.973558  15.583738   0.041677  -0.033381
    17  C    0.099005  -0.001321  -0.056565   0.041677  10.361889  -0.216553
    18  H   -0.009602  -0.000410   0.028410  -0.033381  -0.216553   0.608974
    19  C   -0.068487   0.000021   0.027350  -0.016126  -1.541104   0.117668
    20  H   -0.091091   0.000400  -0.000079   0.000955  -0.007544   0.006565
    21  C   -1.127980   0.045642   0.221978  -0.243984   0.014835   0.005203
    22  C   -0.857602  -0.040762  -0.207634   0.329360  -0.004585  -0.003481
    23  C   -0.060479   0.015654  -2.612975  -0.008389  -0.059019   0.042750
    24  H    0.015294  -0.001064   0.577713  -0.031911   0.016058  -0.006984
    25  C   -0.096430  -0.036112  -0.062521  -1.675908   0.000837   0.001797
    26  H   -0.006317  -0.001928  -0.023919   0.496631  -0.000286   0.000370
    27  C   -0.027263   0.000522   0.005429  -0.005706  -0.250815   0.029925
    28  H    0.000902  -0.000019  -0.002532   0.001575   0.454372  -0.020665
    29  H    0.002595  -0.000021  -0.000065   0.000025   0.005642  -0.000870
    30  C   -1.880983   0.010560  -0.006768   0.024434  -0.002380   0.000771
    31  H   -0.015955  -0.001589   0.007846  -0.006932   0.001198   0.000078
    32  C   -1.610438  -0.021468  -0.023924   0.043243  -0.002070   0.000059
    33  H    0.029626   0.001566  -0.000919   0.012743   0.001120  -0.000147
    34  C    0.034188   0.004268   0.499562  -0.055927   0.004158  -0.000186
    35  H   -0.000907   0.000035  -0.126989   0.009806  -0.001194   0.000313
    36  H   -0.003019  -0.001253   0.003897  -0.097818  -0.000098  -0.000037
    37  H   -0.000590   0.000005   0.000136  -0.000069  -0.061842   0.001951
    38  C   -0.260518   0.002767   0.009624  -0.021325   0.000885  -0.000084
    39  H    0.019781   0.000195  -0.000395   0.000648  -0.000090   0.000003
    40  H    0.014895  -0.001248  -0.000643   0.001946  -0.000014   0.000006
    41  H    0.001033   0.000393   0.028184  -0.003548   0.000094  -0.000013
    42  H    0.025198   0.000366   0.000233  -0.000673   0.000013  -0.000001
              19         20         21         22         23         24
     1  C   -0.985898  -0.019006   0.887634  -1.000829   0.246210  -0.018920
     2  C   -0.527157  -0.003961  -0.224730   0.166639   0.607652  -0.051825
     3  C   -0.654767  -0.020017   1.522607  -1.444928  -0.004702  -0.000266
     4  C   -0.228164  -0.005739  -0.814447   0.745408   0.488716  -0.006855
     5  H   -0.049660  -0.006616  -0.035556   0.026133  -0.083134   0.004140
     6  C   -1.528242   0.017325   0.048159  -0.077070   0.048538  -0.008163
     7  C   -0.091608  -0.065770   0.127741  -0.433450  -0.505072   0.057434
     8  H   -0.018671  -0.096512  -0.256783   0.205427  -0.007100   0.000832
     9  C    0.069045   0.020911  -1.232652   0.701034   0.028235  -0.012282
    10  C    0.010622  -0.005134   0.045622  -0.004986  -0.888861  -0.042391
    11  C    1.951360   0.075906  -0.001583  -0.004295   0.063906  -0.018476
    12  C   -0.252530   0.446506   0.159695  -0.221782   0.015432  -0.004819
    13  C   -0.068487  -0.091091  -1.127980  -0.857602  -0.060479   0.015294
    14  H    0.000021   0.000400   0.045642  -0.040762   0.015654  -0.001064
    15  C    0.027350  -0.000079   0.221978  -0.207634  -2.612975   0.577713
    16  C   -0.016126   0.000955  -0.243984   0.329360  -0.008389  -0.031911
    17  C   -1.541104  -0.007544   0.014835  -0.004585  -0.059019   0.016058
    18  H    0.117668   0.006565   0.005203  -0.003481   0.042750  -0.006984
    19  C    9.245708  -0.024923  -0.048472   0.000192   0.008631  -0.002922
    20  H   -0.024923   0.605551   0.053035  -0.035615   0.001275  -0.000558
    21  C   -0.048472   0.053035  15.285048  -8.728418   0.006802   0.004854
    22  C    0.000192  -0.035615  -8.728418  19.350699  -0.009164  -0.003348
    23  C    0.008631   0.001275   0.006802  -0.009164   9.284337  -0.182543
    24  H   -0.002922  -0.000558   0.004854  -0.003348  -0.182543   0.488036
    25  C   -0.000977  -0.000131  -0.010928   0.030017  -0.273062   0.002091
    26  H    0.000512  -0.000043  -0.004560   0.013828  -0.012185  -0.000051
    27  C    1.003972   0.024570   0.006287  -0.005649   0.003602  -0.001585
    28  H   -0.016767  -0.003123  -0.000276   0.000130  -0.001813   0.000422
    29  H    0.415676  -0.020620  -0.002266   0.000822  -0.000018   0.000019
    30  C   -0.007325   0.017519   0.239556  -0.571039   0.000489  -0.000057
    31  H    0.000939  -0.001058   0.509238  -0.044882   0.000110   0.000386
    32  C    0.006946   0.003018   0.669776  -2.231541   0.010117  -0.001490
    33  H   -0.001362   0.000267  -0.045547   0.520933  -0.001633   0.000156
    34  C   -0.000651  -0.000141   0.005111  -0.011895  -0.234213   0.021961
    35  H    0.000164   0.000024  -0.000198   0.000371   0.454103  -0.010499
    36  H    0.000021   0.000001  -0.000520   0.002246   0.010465  -0.000013
    37  H   -0.059019   0.005505   0.000113  -0.000054   0.000084  -0.000040
    38  C   -0.002744  -0.000167  -0.647948   0.467456  -0.000977   0.000293
    39  H   -0.000102   0.000206  -0.087105   0.009124   0.000029  -0.000018
    40  H    0.000028  -0.000047   0.017267  -0.102804   0.000072  -0.000008
    41  H   -0.000006  -0.000004   0.000180  -0.000557  -0.073886   0.000741
    42  H   -0.000030   0.000007   0.004669   0.004268  -0.000007   0.000005
              25         26         27         28         29         30
     1  C   -0.268529   0.026443  -0.427323   0.017548   0.002898   0.285776
     2  C   -0.129379   0.023405   0.199151  -0.012521  -0.006227   0.035787
     3  C   -0.026246  -0.008966  -0.167041   0.006038  -0.006108   0.370721
     4  C    0.113137   0.120534  -0.026007   0.003857  -0.000586   0.042312
     5  H    0.010471  -0.006014   0.000448   0.003900   0.000176  -0.004251
     6  C   -0.073892   0.012830  -0.290407   0.035685   0.010358   0.104840
     7  C    0.376652  -0.138877  -0.106079   0.005433  -0.000139  -0.430107
     8  H    0.002018   0.001030  -0.011632   0.001569   0.007498  -0.090251
     9  C    0.443107  -0.086409   0.022511  -0.000237  -0.000399   0.327447
    10  C   -0.976010  -0.013645  -0.017534   0.003822   0.000169  -0.036897
    11  C    0.077726  -0.013253   0.755864  -0.145402   0.020991   0.026818
    12  C   -0.029032   0.008805  -1.039665   0.031482  -0.076348  -0.032765
    13  C   -0.096430  -0.006317  -0.027263   0.000902   0.002595  -1.880983
    14  H   -0.036112  -0.001928   0.000522  -0.000019  -0.000021   0.010560
    15  C   -0.062521  -0.023919   0.005429  -0.002532  -0.000065  -0.006768
    16  C   -1.675908   0.496631  -0.005706   0.001575   0.000025   0.024434
    17  C    0.000837  -0.000286  -0.250815   0.454372   0.005642  -0.002380
    18  H    0.001797   0.000370   0.029925  -0.020665  -0.000870   0.000771
    19  C   -0.000977   0.000512   1.003972  -0.016767   0.415676  -0.007325
    20  H   -0.000131  -0.000043   0.024570  -0.003123  -0.020620   0.017519
    21  C   -0.010928  -0.004560   0.006287  -0.000276  -0.002266   0.239556
    22  C    0.030017   0.013828  -0.005649   0.000130   0.000822  -0.571039
    23  C   -0.273062  -0.012185   0.003602  -0.001813  -0.000018   0.000489
    24  H    0.002091  -0.000051  -0.001585   0.000422   0.000019  -0.000057
    25  C    8.474150  -0.109068   0.000629  -0.000097   0.000011   0.008074
    26  H   -0.109068   0.504158  -0.000165   0.000010   0.000005   0.000731
    27  C    0.000629  -0.000165   6.469702  -0.070539  -0.051240   0.001306
    28  H   -0.000097   0.000010  -0.070539   0.480635   0.002648  -0.000045
    29  H    0.000011   0.000005  -0.051240   0.002648   0.481169  -0.000347
    30  C    0.008074   0.000731   0.001306  -0.000045  -0.000347   7.929150
    31  H   -0.000965  -0.000020  -0.000105  -0.000005  -0.000033  -0.096317
    32  C   -0.042838   0.004704   0.000746  -0.000004  -0.000044  -0.432435
    33  H    0.008371  -0.007196  -0.000217   0.000007  -0.000002  -0.014579
    34  C    0.126748   0.029064  -0.000449   0.000013  -0.000004  -0.000121
    35  H    0.005588  -0.000450   0.000024  -0.000010   0.000001   0.000012
    36  H    0.423980  -0.013868   0.000005  -0.000001   0.000000  -0.000053
    37  H    0.000006  -0.000002   0.451847  -0.012364  -0.014773   0.000031
    38  C   -0.003945  -0.001159  -0.000461   0.000002  -0.000030   0.279982
    39  H    0.000055   0.000040   0.000034  -0.000000   0.000005   0.429043
    40  H    0.000196   0.000590   0.000008  -0.000000   0.000001   0.011130
    41  H   -0.073981   0.002287  -0.000010   0.000002   0.000000   0.000002
    42  H   -0.000094  -0.000061  -0.000006   0.000000  -0.000001  -0.079575
              31         32         33         34         35         36
     1  C   -0.021926  -0.157401   0.001665   0.016454   0.002236  -0.002689
     2  C   -0.015003   0.025258  -0.011133  -0.023312   0.006297  -0.005843
     3  C    0.008111  -0.019265   0.019424  -0.001635  -0.001240  -0.000005
     4  C   -0.012832   0.560089  -0.192730  -0.449570   0.002072   0.000607
     5  H   -0.000642   0.003573   0.000807  -0.008866  -0.000580   0.000984
     6  C   -0.016495  -0.059284   0.005529   0.015803   0.000385  -0.000765
     7  C    0.047409  -0.125411   0.208469   0.094121  -0.003079   0.007321
     8  H   -0.004976  -0.001293  -0.006239   0.000982  -0.000106  -0.000052
     9  C   -0.051384   0.741079  -0.112246  -0.054445  -0.000253   0.014360
    10  C    0.007906  -0.148260  -0.006956  -0.522480   0.031237   0.041335
    11  C   -0.009548  -0.020549   0.005843  -0.030852   0.001914   0.000750
    12  C    0.009389   0.074443  -0.013535   0.004938   0.000072  -0.000265
    13  C   -0.015955  -1.610438   0.029626   0.034188  -0.000907  -0.003019
    14  H   -0.001589  -0.021468   0.001566   0.004268   0.000035  -0.001253
    15  C    0.007846  -0.023924  -0.000919   0.499562  -0.126989   0.003897
    16  C   -0.006932   0.043243   0.012743  -0.055927   0.009806  -0.097818
    17  C    0.001198  -0.002070   0.001120   0.004158  -0.001194  -0.000098
    18  H    0.000078   0.000059  -0.000147  -0.000186   0.000313  -0.000037
    19  C    0.000939   0.006946  -0.001362  -0.000651   0.000164   0.000021
    20  H   -0.001058   0.003018   0.000267  -0.000141   0.000024   0.000001
    21  C    0.509238   0.669776  -0.045547   0.005111  -0.000198  -0.000520
    22  C   -0.044882  -2.231541   0.520933  -0.011895   0.000371   0.002246
    23  C    0.000110   0.010117  -0.001633  -0.234213   0.454103   0.010465
    24  H    0.000386  -0.001490   0.000156   0.021961  -0.010499  -0.000013
    25  C   -0.000965  -0.042838   0.008371   0.126748   0.005588   0.423980
    26  H   -0.000020   0.004704  -0.007196   0.029064  -0.000450  -0.013868
    27  C   -0.000105   0.000746  -0.000217  -0.000449   0.000024   0.000005
    28  H   -0.000005  -0.000004   0.000007   0.000013  -0.000010  -0.000001
    29  H   -0.000033  -0.000044  -0.000002  -0.000004   0.000001   0.000000
    30  C   -0.096317  -0.432435  -0.014579  -0.000121   0.000012  -0.000053
    31  H    0.485110   0.002568   0.000634   0.000087  -0.000008   0.000006
    32  C    0.002568   8.902934  -0.134201  -0.005665   0.000070   0.000465
    33  H    0.000634  -0.134201   0.506022  -0.000542   0.000040   0.000681
    34  C    0.000087  -0.005665  -0.000542   6.701826  -0.053866  -0.070555
    35  H   -0.000008   0.000070   0.000040  -0.053866   0.472202   0.000611
    36  H    0.000006   0.000465   0.000681  -0.070555   0.000611   0.475062
    37  H    0.000004   0.000008  -0.000001  -0.000003   0.000000   0.000000
    38  C    0.018021  -0.034201   0.033152   0.000079  -0.000004   0.000089
    39  H   -0.010585   0.005401  -0.000528  -0.000005   0.000000  -0.000001
    40  H   -0.000067   0.435273  -0.012630   0.000015  -0.000001  -0.000037
    41  H    0.000002  -0.000132  -0.000066   0.459690  -0.009245  -0.011325
    42  H    0.000924  -0.076304   0.002096   0.000000  -0.000000   0.000002
              37         38         39         40         41         42
     1  C   -0.000778  -0.043277   0.004569   0.000781   0.002340   0.001395
     2  C    0.003407  -0.012747   0.000412   0.000384   0.000528  -0.000365
     3  C   -0.001426  -0.038528   0.000449  -0.003775  -0.000160   0.001197
     4  C   -0.000063  -0.119275   0.004846   0.015471  -0.009641  -0.002486
     5  H   -0.000634  -0.000013  -0.000018  -0.000036  -0.000625  -0.000001
     6  C    0.028915  -0.005475   0.002486   0.000079   0.000774   0.000375
     7  C   -0.001110  -0.019286  -0.007631  -0.014287   0.001222  -0.002942
     8  H   -0.002132   0.001315  -0.001325   0.000845   0.000026  -0.000476
     9  C    0.000294  -0.286116   0.010444   0.021683  -0.005862  -0.011404
    10  C   -0.000449   0.040889  -0.000979  -0.003233   0.012733   0.001104
    11  C   -0.010843  -0.000111   0.000640  -0.000088  -0.000573   0.000048
    12  C   -0.001784  -0.021393  -0.000410   0.000794   0.000118  -0.000376
    13  C   -0.000590  -0.260518   0.019781   0.014895   0.001033   0.025198
    14  H    0.000005   0.002767   0.000195  -0.001248   0.000393   0.000366
    15  C    0.000136   0.009624  -0.000395  -0.000643   0.028184   0.000233
    16  C   -0.000069  -0.021325   0.000648   0.001946  -0.003548  -0.000673
    17  C   -0.061842   0.000885  -0.000090  -0.000014   0.000094   0.000013
    18  H    0.001951  -0.000084   0.000003   0.000006  -0.000013  -0.000001
    19  C   -0.059019  -0.002744  -0.000102   0.000028  -0.000006  -0.000030
    20  H    0.005505  -0.000167   0.000206  -0.000047  -0.000004   0.000007
    21  C    0.000113  -0.647948  -0.087105   0.017267   0.000180   0.004669
    22  C   -0.000054   0.467456   0.009124  -0.102804  -0.000557   0.004268
    23  C    0.000084  -0.000977   0.000029   0.000072  -0.073886  -0.000007
    24  H   -0.000040   0.000293  -0.000018  -0.000008   0.000741   0.000005
    25  C    0.000006  -0.003945   0.000055   0.000196  -0.073981  -0.000094
    26  H   -0.000002  -0.001159   0.000040   0.000590   0.002287  -0.000061
    27  C    0.451847  -0.000461   0.000034   0.000008  -0.000010  -0.000006
    28  H   -0.012364   0.000002  -0.000000  -0.000000   0.000002   0.000000
    29  H   -0.014773  -0.000030   0.000005   0.000001   0.000000  -0.000001
    30  C    0.000031   0.279982   0.429043   0.011130   0.000002  -0.079575
    31  H    0.000004   0.018021  -0.010585  -0.000067   0.000002   0.000924
    32  C    0.000008  -0.034201   0.005401   0.435273  -0.000132  -0.076304
    33  H   -0.000001   0.033152  -0.000528  -0.012630  -0.000066   0.002096
    34  C   -0.000003   0.000079  -0.000005   0.000015   0.459690   0.000000
    35  H    0.000000  -0.000004   0.000000  -0.000001  -0.009245  -0.000000
    36  H    0.000000   0.000089  -0.000001  -0.000037  -0.011325   0.000002
    37  H    0.485738  -0.000006   0.000001   0.000000  -0.000000  -0.000000
    38  C   -0.000006   6.679363  -0.060972  -0.066854   0.000001   0.469572
    39  H    0.000001  -0.060972   0.473637   0.000756  -0.000000  -0.010195
    40  H    0.000000  -0.066854   0.000756   0.473748   0.000000  -0.011137
    41  H   -0.000000   0.000001  -0.000000   0.000000   0.484436   0.000000
    42  H   -0.000000   0.469572  -0.010195  -0.011137   0.000000   0.487138
 Mulliken charges:
               1
     1  C    1.691518
     2  C   -1.058038
     3  C   -0.879184
     4  C    0.673864
     5  H    0.075680
     6  C    1.752768
     7  C    0.588689
     8  H    0.013634
     9  C   -1.670597
    10  C    1.116104
    11  C   -0.800731
    12  C   -0.299722
    13  C    1.287640
    14  H    0.205966
    15  C   -0.240398
    16  C   -0.770275
    17  C   -0.361409
    18  H    0.066853
    19  C   -0.731142
    20  H    0.128352
    21  C   -0.367100
    22  C   -0.527719
    23  C   -0.317975
    24  H    0.216653
    25  C   -0.215515
    26  H    0.202464
    27  C   -0.476684
    28  H    0.236368
    29  H    0.229431
    30  C   -0.460195
    31  H    0.211361
    32  C   -0.341553
    33  H    0.203259
    34  C   -0.493683
    35  H    0.221054
    36  H    0.225329
    37  H    0.189939
    38  C   -0.355873
    39  H    0.217553
    40  H    0.220937
    41  H    0.194851
    42  H    0.197526
 Sum of Mulliken charges =  -0.00000
 Mulliken charges with hydrogens summed into heavy atoms:
               1
     1  C    1.691518
     2  C   -0.982359
     3  C   -0.865550
     4  C    0.673864
     6  C    1.752768
     7  C    0.588689
     9  C   -1.464631
    10  C    1.116104
    11  C   -0.733878
    12  C   -0.171370
    13  C    1.287640
    15  C   -0.023745
    16  C   -0.567811
    17  C   -0.125041
    19  C   -0.501711
    21  C   -0.155739
    22  C   -0.324460
    23  C   -0.096921
    25  C    0.009815
    27  C   -0.286746
    30  C   -0.242641
    32  C   -0.120616
    34  C   -0.298832
    38  C   -0.158347
 Electronic spatial extent (au):  <R**2>=          10005.6282
 Charge=              0.0000 electrons
 Dipole moment (field-independent basis, Debye):
    X=              0.0012    Y=             -0.0143    Z=              0.0057  Tot=              0.0154
 Quadrupole moment (field-independent basis, Debye-Ang):
   XX=           -122.8197   YY=           -125.9949   ZZ=           -145.1722
   XY=              0.0105   XZ=             -0.5544   YZ=              6.1191
 Traceless Quadrupole moment (field-independent basis, Debye-Ang):
   XX=              8.5092   YY=              5.3341   ZZ=            -13.8433
   XY=              0.0105   XZ=             -0.5544   YZ=              6.1191
 Octapole moment (field-independent basis, Debye-Ang**2):
  XXX=              0.2352  YYY=             35.5144  ZZZ=              1.8508  XYY=             -0.8417
  XXY=            -20.3939  XXZ=             32.4960  XZZ=              0.6023  YZZ=            -15.0763
  YYZ=            -34.3796  XYZ=             -1.8977
 Hexadecapole moment (field-independent basis, Debye-Ang**3):
 XXXX=          -6352.6612 YYYY=          -6249.8926 ZZZZ=           -416.1604 XXXY=             -2.2504
 XXXZ=             -2.9933 YYYX=              1.3774 YYYZ=             96.7313 ZZZX=              0.4646
 ZZZY=             27.1240 XXYY=          -2021.3253 XXZZ=          -1239.2154 YYZZ=          -1292.2120
 XXYZ=             32.0154 YYXZ=            -11.2412 ZZXY=              1.4255
 N-N= 1.734553929486D+03 E-N=-5.615436417850D+03  KE= 9.213201825232D+02
 No NMR shielding tensors so no spin-rotation constants.
 Leave Link  601 at Mon Nov 14 15:14:28 2022, MaxMem= 16106127360 cpu:               9.9 elap:               0.4
 (Enter /opt/ap/G16/B01/g16/l9999.exe)
 1\1\GINC-N62\SP\RwB97XD\6-311++G(d,p)\C24H18\ROOT\14-Nov-2022\0\\#P wB
 97XD/6-311++G(d,p) scf=maxcycle=512\\_conf019.gjf nmol_natom 1_42\\0,1
 \C\C,1,1.39412829\C,1,1.39435449,2,118.86443127\C,2,1.39416084,1,121.1
 529487,3,0.03668482,0\H,2,1.08488355,1,119.42236619,3,-179.97409048,0\
 C,1,1.48467131,2,120.55714816,4,179.25839056,0\C,3,1.39437784,1,121.11
 776116,2,-0.05351271,0\H,3,1.08487775,1,119.41869036,2,177.23008049,0\
 C,4,1.39432447,2,118.86473838,1,0.01008406,0\C,4,1.48466627,2,120.5464
 188,1,179.19454736,0\C,6,1.3968498,1,120.7843492,2,5.,0\C,6,1.3968682,
 1,120.67653841,2,-175.,0\C,7,1.48449863,3,120.56496838,1,-179.96325804
 ,0\H,9,1.0848792,4,119.41824946,2,177.22245984,0\C,10,1.39685361,4,120
 .76946845,2,-42.52368674,0\C,10,1.39686289,4,120.69448769,2,137.431075
 16,0\C,11,1.38888939,6,120.7380073,1,179.94058542,0\H,11,1.0847641,6,1
 19.46912378,1,-1.41050605,0\C,12,1.38882428,6,120.76493111,1,-179.9508
 2712,0\H,12,1.08482758,6,119.44182626,1,-1.23602505,0\C,13,1.39682899,
 7,120.74134419,3,42.89023273,0\C,13,1.39683158,7,120.7379111,3,-137.12
 494058,0\C,15,1.38888263,10,120.742191,4,179.9460119,0\H,15,1.08476334
 ,10,119.47085903,4,-1.40606944,0\C,16,1.38886088,10,120.76338989,4,-17
 9.95592713,0\H,16,1.08483431,10,119.44215232,4,-1.23439681,0\C,17,1.39
 007919,11,120.20743432,6,0.00349958,0\H,17,1.0843506,11,119.71318733,6
 ,179.5011609,0\H,19,1.08435858,12,119.73823132,6,179.53683762,0\C,21,1
 .38882373,13,120.76699356,7,179.99297883,0\H,21,1.0847938,13,119.43526
 23,7,1.32183327,0\C,22,1.38881869,13,120.76647403,7,-179.97118338,0\H,
 22,1.08479982,13,119.43203605,7,1.34657928,0\C,23,1.39007007,15,120.20
 732995,10,0.00573957,0\H,23,1.08434813,15,119.71220819,10,179.50724368
 ,0\H,25,1.08436328,16,119.73539424,10,179.53636455,0\H,27,1.08412515,1
 7,120.21790854,11,179.98397203,0\C,30,1.39008059,21,120.18795226,13,-0
 .02169059,0\H,30,1.08435324,21,119.73787119,13,-179.52151214,0\H,32,1.
 0843543,22,119.737043,13,-179.52886928,0\H,34,1.08412314,23,120.221528
 03,15,179.98800213,0\H,38,1.08411439,30,120.21547163,21,-179.98600656,
 0\\Version=ES64L-G16RevB.01\State=1-A\HF=-925.3063604\RMSD=7.054e-09\D
 ipole=0.0051344,0.0020685,0.0025101\Quadrupole=4.3491254,-10.0214713,5
 .6723459,-4.5053071,-1.1304544,-2.0904989\PG=C01 [X(C24H18)]\\@


 WE'RE IN THE POSITION OF A VISITOR FROM ANOTHER
 DIMENSION WHO COMES TO EARTH AND SEES A CHESS MATCH.
 ASSUMING HE KNOWS IT'S A GAME, HE'S GOT TWO PROBLEMS:
 FIRST, FIGURE OUT THE RULES, AND SECOND, FIGURE OUT HOW TO WIN.
 NINETY PERCENT OF SCIENCE (INCLUDING VIRTUALLY ALL OF CHEMISRY)
 IS IN THAT SECOND CATEGORY.  THEY'RE TRYING TO APPLY
 THE LAWS THAT ARE ALREADY KNOWN.

                     -- SHELDON GLASHOW, 1979
 Job cpu time:       0 days  1 hours 18 minutes 21.1 seconds.
 Elapsed time:       0 days  0 hours  2 minutes 27.8 seconds.
 File lengths (MBytes):  RWF=    224 Int=      0 D2E=      0 Chk=     26 Scr=      1
 Normal termination of Gaussian 16 at Mon Nov 14 15:14:28 2022.
