 Entering Gaussian System, Link 0=g16
 Input=_conf003.gjf
 Output=_conf003.log
 Initial command:
 /opt/ap/G16/B01/g16/l1.exe "/tmp2/scr/Gau-21879.inp" -scrdir="/tmp2/scr/"
 Entering Link 1 = /opt/ap/G16/B01/g16/l1.exe PID=     21880.
  
 Copyright (c) 1988-2017, Gaussian, Inc.  All Rights Reserved.
  
 This is part of the Gaussian(R) 16 program.  It is based on
 the Gaussian(R) 09 system (copyright 2009, Gaussian, Inc.),
 the Gaussian(R) 03 system (copyright 2003, Gaussian, Inc.),
 the Gaussian(R) 98 system (copyright 1998, Gaussian, Inc.),
 the Gaussian(R) 94 system (copyright 1995, Gaussian, Inc.),
 the Gaussian 92(TM) system (copyright 1992, Gaussian, Inc.),
 the Gaussian 90(TM) system (copyright 1990, Gaussian, Inc.),
 the Gaussian 88(TM) system (copyright 1988, Gaussian, Inc.),
 the Gaussian 86(TM) system (copyright 1986, Carnegie Mellon
 University), and the Gaussian 82(TM) system (copyright 1983,
 Carnegie Mellon University). Gaussian is a federally registered
 trademark of Gaussian, Inc.
  
 This software contains proprietary and confidential information,
 including trade secrets, belonging to Gaussian, Inc.
  
 This software is provided under written license and may be
 used, copied, transmitted, or stored only in accord with that
 written license.
  
 The following legend is applicable only to US Government
 contracts under FAR:
  
                    RESTRICTED RIGHTS LEGEND
  
 Use, reproduction and disclosure by the US Government is
 subject to restrictions as set forth in subparagraphs (a)
 and (c) of the Commercial Computer Software - Restricted
 Rights clause in FAR 52.227-19.
  
 Gaussian, Inc.
 340 Quinnipiac St., Bldg. 40, Wallingford CT 06492
  
  
 ---------------------------------------------------------------
 Warning -- This program may not be used in any manner that
 competes with the business of Gaussian, Inc. or will provide
 assistance to any competitor of Gaussian, Inc.  The licensee
 of this program is prohibited from giving any competitor of
 Gaussian, Inc. access to this program.  By using this program,
 the user acknowledges that Gaussian, Inc. is engaged in the
 business of creating and licensing software in the field of
 computational chemistry and represents and warrants to the
 licensee that it is not a competitor of Gaussian, Inc. and that
 it will not use this program in any manner prohibited above.
 ---------------------------------------------------------------
  

 Cite this work as:
 Gaussian 16, Revision B.01,
 M. J. Frisch, G. W. Trucks, H. B. Schlegel, G. E. Scuseria, 
 M. A. Robb, J. R. Cheeseman, G. Scalmani, V. Barone, 
 G. A. Petersson, H. Nakatsuji, X. Li, M. Caricato, A. V. Marenich, 
 J. Bloino, B. G. Janesko, R. Gomperts, B. Mennucci, H. P. Hratchian, 
 J. V. Ortiz, A. F. Izmaylov, J. L. Sonnenberg, D. Williams-Young, 
 F. Ding, F. Lipparini, F. Egidi, J. Goings, B. Peng, A. Petrone, 
 T. Henderson, D. Ranasinghe, V. G. Zakrzewski, J. Gao, N. Rega, 
 G. Zheng, W. Liang, M. Hada, M. Ehara, K. Toyota, R. Fukuda, 
 J. Hasegawa, M. Ishida, T. Nakajima, Y. Honda, O. Kitao, H. Nakai, 
 T. Vreven, K. Throssell, J. A. Montgomery, Jr., J. E. Peralta, 
 F. Ogliaro, M. J. Bearpark, J. J. Heyd, E. N. Brothers, K. N. Kudin, 
 V. N. Staroverov, T. A. Keith, R. Kobayashi, J. Normand, 
 K. Raghavachari, A. P. Rendell, J. C. Burant, S. S. Iyengar, 
 J. Tomasi, M. Cossi, J. M. Millam, M. Klene, C. Adamo, R. Cammi, 
 J. W. Ochterski, R. L. Martin, K. Morokuma, O. Farkas, 
 J. B. Foresman, and D. J. Fox, Gaussian, Inc., Wallingford CT, 2016.
 
 ******************************************
 Gaussian 16:  ES64L-G16RevB.01 20-Dec-2017
                14-Nov-2022 
 ******************************************
 %nprocshared=32
 Will use up to   32 processors via shared memory.
 %mem=120GB
 %chk=_conf003.chk
 ----------------------------------------
 #P wB97XD/6-311++G(d,p) scf=maxcycle=512
 ----------------------------------------
 1/38=1,172=1/1;
 2/12=2,17=6,18=5,40=1/2;
 3/5=4,6=6,7=1111,11=2,25=1,30=1,74=-58/1,2,3;
 4//1;
 5/5=2,7=512,38=5/2;
 6/7=2,8=2,9=2,10=2,28=1/1;
 99/5=1,9=1/99;
 Leave Link    1 at Mon Nov 14 15:01:51 2022, MaxMem= 16106127360 cpu:               3.4 elap:               0.1
 (Enter /opt/ap/G16/B01/g16/l101.exe)
 ----------------------------
 _conf003.gjf nmol_natom 1_42
 ----------------------------
 Symbolic Z-matrix:
 Charge =  0 Multiplicity = 1
 C
 C                    1     1.39413 
 C                    1     1.39435  2     118.86443 
 C                    2     1.39416  1     121.15295  3     0.03668  0
 H                    2     1.08488  1     119.42237  3    -179.97409  0
 C                    1     1.48467  2     120.55715  4     179.25839  0
 C                    3     1.39438  1     121.11776  2    -0.05351  0
 H                    3     1.08488  1     119.41869  2     177.23008  0
 C                    4     1.39432  2     118.86474  1     0.01008  0
 C                    4     1.48467  2     120.54642  1     179.19455  0
 C                    6     1.39685  1     120.78435  2    -75.      0
 C                    6     1.39687  1     120.67654  2     105.     0
 C                    7     1.4845   3     120.56497  1    -179.96326  0
 H                    9     1.08488  4     119.41825  2     177.22246  0
 C                    10    1.39685  4     120.76947  2    -42.52369  0
 C                    10    1.39686  4     120.69449  2     137.43108  0
 C                    11    1.38889  6     120.73801  1     179.94059  0
 H                    11    1.08476  6     119.46912  1    -1.41051  0
 C                    12    1.38882  6     120.76493  1    -179.95083  0
 H                    12    1.08483  6     119.44183  1    -1.23603  0
 C                    13    1.39683  7     120.74134  3     42.89023  0
 C                    13    1.39683  7     120.73791  3    -137.12494  0
 C                    15    1.38888  10    120.74219  4     179.94601  0
 H                    15    1.08476  10    119.47086  4    -1.40607  0
 C                    16    1.38886  10    120.76339  4    -179.95593  0
 H                    16    1.08483  10    119.44215  4    -1.2344   0
 C                    17    1.39008  11    120.20743  6     0.0035   0
 H                    17    1.08435  11    119.71319  6     179.50116  0
 H                    19    1.08436  12    119.73823  6     179.53684  0
 C                    21    1.38882  13    120.76699  7     179.99298  0
 H                    21    1.08479  13    119.43526  7     1.32183  0
 C                    22    1.38882  13    120.76647  7    -179.97118  0
 H                    22    1.0848   13    119.43204  7     1.34658  0
 C                    23    1.39007  15    120.20733  10    0.00574  0
 H                    23    1.08435  15    119.71221  10    179.50724  0
 H                    25    1.08436  16    119.73539  10    179.53636  0
 H                    27    1.08413  17    120.21791  11    179.98397  0
 C                    30    1.39008  21    120.18795  13   -0.02169  0
 H                    30    1.08435  21    119.73787  13   -179.52151  0
 H                    32    1.08435  22    119.73704  13   -179.52887  0
 H                    34    1.08412  23    120.22153  15    179.988  0
 H                    38    1.08411  30    120.21547  21   -179.98601  0
 
 ITRead=  0  0  0  0  0  0  0  0  0  0  0  0  0  0  0  0  0  0  0  0
 ITRead=  0  0  0  0  0  0  0  0  0  0  0  0  0  0  0  0  0  0  0  0
 ITRead=  0  0
 MicOpt= -1 -1 -1 -1 -1 -1 -1 -1 -1 -1 -1 -1 -1 -1 -1 -1 -1 -1 -1 -1
 MicOpt= -1 -1 -1 -1 -1 -1 -1 -1 -1 -1 -1 -1 -1 -1 -1 -1 -1 -1 -1 -1
 MicOpt= -1 -1
 NAtoms=     42 NQM=       42 NQMF=       0 NMMI=      0 NMMIF=      0
                NMic=       0 NMicF=      0.
                    Isotopes and Nuclear Properties:
 (Nuclear quadrupole moments (NQMom) in fm**2, nuclear magnetic moments (NMagM)
  in nuclear magnetons)

  Atom         1           2           3           4           5           6           7           8           9          10
 IAtWgt=          12          12          12          12           1          12          12           1          12          12
 AtmWgt=  12.0000000  12.0000000  12.0000000  12.0000000   1.0078250  12.0000000  12.0000000   1.0078250  12.0000000  12.0000000
 NucSpn=           0           0           0           0           1           0           0           1           0           0
 AtZEff=  -0.0000000  -0.0000000  -0.0000000  -0.0000000  -0.0000000  -0.0000000  -0.0000000  -0.0000000  -0.0000000  -0.0000000
 NQMom=    0.0000000   0.0000000   0.0000000   0.0000000   0.0000000   0.0000000   0.0000000   0.0000000   0.0000000   0.0000000
 NMagM=    0.0000000   0.0000000   0.0000000   0.0000000   2.7928460   0.0000000   0.0000000   2.7928460   0.0000000   0.0000000
 AtZNuc=   6.0000000   6.0000000   6.0000000   6.0000000   1.0000000   6.0000000   6.0000000   1.0000000   6.0000000   6.0000000

  Atom        11          12          13          14          15          16          17          18          19          20
 IAtWgt=          12          12          12           1          12          12          12           1          12           1
 AtmWgt=  12.0000000  12.0000000  12.0000000   1.0078250  12.0000000  12.0000000  12.0000000   1.0078250  12.0000000   1.0078250
 NucSpn=           0           0           0           1           0           0           0           1           0           1
 AtZEff=  -0.0000000  -0.0000000  -0.0000000  -0.0000000  -0.0000000  -0.0000000  -0.0000000  -0.0000000  -0.0000000  -0.0000000
 NQMom=    0.0000000   0.0000000   0.0000000   0.0000000   0.0000000   0.0000000   0.0000000   0.0000000   0.0000000   0.0000000
 NMagM=    0.0000000   0.0000000   0.0000000   2.7928460   0.0000000   0.0000000   0.0000000   2.7928460   0.0000000   2.7928460
 AtZNuc=   6.0000000   6.0000000   6.0000000   1.0000000   6.0000000   6.0000000   6.0000000   1.0000000   6.0000000   1.0000000

  Atom        21          22          23          24          25          26          27          28          29          30
 IAtWgt=          12          12          12           1          12           1          12           1           1          12
 AtmWgt=  12.0000000  12.0000000  12.0000000   1.0078250  12.0000000   1.0078250  12.0000000   1.0078250   1.0078250  12.0000000
 NucSpn=           0           0           0           1           0           1           0           1           1           0
 AtZEff=  -0.0000000  -0.0000000  -0.0000000  -0.0000000  -0.0000000  -0.0000000  -0.0000000  -0.0000000  -0.0000000  -0.0000000
 NQMom=    0.0000000   0.0000000   0.0000000   0.0000000   0.0000000   0.0000000   0.0000000   0.0000000   0.0000000   0.0000000
 NMagM=    0.0000000   0.0000000   0.0000000   2.7928460   0.0000000   2.7928460   0.0000000   2.7928460   2.7928460   0.0000000
 AtZNuc=   6.0000000   6.0000000   6.0000000   1.0000000   6.0000000   1.0000000   6.0000000   1.0000000   1.0000000   6.0000000

  Atom        31          32          33          34          35          36          37          38          39          40
 IAtWgt=           1          12           1          12           1           1           1          12           1           1
 AtmWgt=   1.0078250  12.0000000   1.0078250  12.0000000   1.0078250   1.0078250   1.0078250  12.0000000   1.0078250   1.0078250
 NucSpn=           1           0           1           0           1           1           1           0           1           1
 AtZEff=  -0.0000000  -0.0000000  -0.0000000  -0.0000000  -0.0000000  -0.0000000  -0.0000000  -0.0000000  -0.0000000  -0.0000000
 NQMom=    0.0000000   0.0000000   0.0000000   0.0000000   0.0000000   0.0000000   0.0000000   0.0000000   0.0000000   0.0000000
 NMagM=    2.7928460   0.0000000   2.7928460   0.0000000   2.7928460   2.7928460   2.7928460   0.0000000   2.7928460   2.7928460
 AtZNuc=   1.0000000   6.0000000   1.0000000   6.0000000   1.0000000   1.0000000   1.0000000   6.0000000   1.0000000   1.0000000

  Atom        41          42
 IAtWgt=           1           1
 AtmWgt=   1.0078250   1.0078250
 NucSpn=           1           1
 AtZEff=  -0.0000000  -0.0000000
 NQMom=    0.0000000   0.0000000
 NMagM=    2.7928460   2.7928460
 AtZNuc=   1.0000000   1.0000000
 Leave Link  101 at Mon Nov 14 15:01:51 2022, MaxMem= 16106127360 cpu:               5.9 elap:               0.2
 (Enter /opt/ap/G16/B01/g16/l202.exe)
                          Input orientation:                          
 ---------------------------------------------------------------------
 Center     Atomic      Atomic             Coordinates (Angstroms)
 Number     Number       Type             X           Y           Z
 ---------------------------------------------------------------------
      1          6           0        0.000000    0.000000    0.000000
      2          6           0        0.000000    0.000000    1.394128
      3          6           0        1.221126    0.000000   -0.673109
      4          6           0        1.193108    0.000764    2.115362
      5          1           0       -0.944957   -0.000427    1.927071
      6          6           0       -1.278366   -0.017366   -0.754803
      7          6           0        2.428476    0.001115    0.024455
      8          1           0        1.232154   -0.045667   -1.756969
      9          6           0        2.400843    0.001752    1.418572
     10          6           0        1.177445    0.018728    3.599837
     11          6           0       -2.036086   -1.186910   -0.850809
     12          6           0       -1.749700    1.136794   -1.384883
     13          6           0        3.721572    0.001921   -0.704680
     14          1           0        3.334061    0.048144    1.969857
     15          6           0        0.290794    0.844275    4.295193
     16          6           0        2.049080   -0.790881    4.331965
     17          6           0       -3.232458   -1.201757   -1.556137
     18          1           0       -1.672912   -2.097668   -0.386764
     19          6           0       -2.945788    1.122881   -2.090582
     20          1           0       -1.183169    2.058297   -1.302866
     21          6           0        3.910862    0.818865   -1.821777
     22          6           0        4.776237   -0.814044   -0.288725
     23          6           0        0.275860    0.859807    5.683909
     24          1           0       -0.377402    1.495584    3.742000
     25          6           0        2.035025   -0.775886    5.720674
     26          1           0        2.729408   -1.453102    3.807101
     27          6           0       -3.692052   -0.046654   -2.178095
     28          1           0       -3.803336   -2.120951   -1.626819
     29          1           0       -3.299807    2.030362   -2.567008
     30          6           0        5.120444    0.820149   -2.504230
     31          1           0        3.109266    1.474569   -2.144691
     32          6           0        5.986440   -0.813321   -0.970068
     33          1           0        4.638168   -1.470412    0.563864
     34          6           0        1.147946    0.049642    6.401818
     35          1           0       -0.413890    1.513063    6.206701
     36          1           0        2.713797   -1.416787    6.272362
     37          1           0       -4.625751   -0.058118   -2.728915
     38          6           0        6.162883    0.003944   -2.080611
     39          1           0        5.251831    1.466740   -3.364741
     40          1           0        6.791448   -1.459089   -0.637249
     41          1           0        1.136620    0.061726    7.485815
     42          1           0        7.107346    0.004761   -2.612865
 ---------------------------------------------------------------------
                    Distance matrix (angstroms):
                    1          2          3          4          5
     1  C    0.000000
     2  C    1.394128   0.000000
     3  C    1.394354   2.400962   0.000000
     4  C    2.428634   1.394161   2.788612   0.000000
     5  H    2.146287   1.084884   3.384206   2.146341   0.000000
     6  C    1.484671   2.500485   2.500887   3.787659   2.702572
     7  C    2.428599   2.788100   1.394378   2.428585   3.872983
     8  H    2.146445   3.383741   1.084878   3.872806   4.279487
     9  C    2.788619   2.400968   2.401430   1.394324   3.384222
    10  C    3.787552   2.500376   4.273210   1.484666   2.702426
    11  C    2.505649   3.254865   3.471277   4.542734   3.211685
    12  C    2.504326   3.475148   3.259559   4.711941   3.593037
    13  C    3.787700   4.272598   2.500646   3.787581   5.357482
    14  H    3.872805   3.383747   3.384092   2.146415   4.279508
    15  C    4.387032   3.035381   5.124680   2.505463   2.801537
    16  C    4.856969   3.668120   5.134371   2.504540   3.920790
    17  C    3.783460   4.538400   4.696634   5.874657   4.336887
    18  H    2.710799   3.220314   3.585758   4.344896   3.206582
    19  C    3.782732   4.699121   4.542385   6.006627   4.626735
    20  H    2.708124   3.593084   3.227044   4.643750   3.837653
    21  C    4.391384   5.129076   3.037212   4.853507   6.189029
    22  C    4.853707   5.129045   3.667320   4.391169   6.189006
    23  C    5.755188   4.383786   6.484171   3.783362   4.042800
    24  H    4.047440   2.809218   4.928007   2.710524   2.419532
    25  C    6.121229   4.843792   6.491910   3.782894   4.886007
    26  H    4.904609   3.922195   4.945574   2.708491   4.375585
    27  C    4.286902   5.137529   5.138724   6.503907   4.939742
    28  H    4.648692   5.299993   5.536534   6.593182   5.029621
    29  H    4.647647   5.540911   5.305474   6.799275   5.464995
    30  C    5.758711   6.487587   4.385239   6.118495   7.556379
    31  H    4.054822   4.936104   2.811579   4.898143   5.932249
    32  C    6.118822   6.487555   4.843334   5.758354   7.556353
    33  H    4.898230   4.935996   3.920254   4.054620   5.932156
    34  C    6.504116   5.137821   7.075480   4.286973   4.940255
    35  H    6.401859   5.061770   7.231488   4.648499   4.570330
    36  H    6.979577   5.759266   7.243957   4.647859   5.854410
    37  H    5.371027   6.196809   6.198039   7.571632   5.935468
    38  C    6.504621   7.074953   5.138292   6.504219   8.159837
    39  H    6.407382   7.237395   5.063871   6.975231   8.279857
    40  H    6.975586   7.237348   5.758361   6.406985   8.279819
    41  H    7.571865   6.197125   8.159595   5.371096   5.936031
    42  H    7.572414   8.159067   6.197601   7.571945   9.243951
                    6          7          8          9         10
     6  C    0.000000
     7  C    3.787910   0.000000
     8  H    2.703303   2.146356   0.000000
     9  C    4.273231   1.394392   3.384102   0.000000
    10  C    4.999520   3.787973   5.357472   2.500981   0.000000
    11  C    1.396850   4.702106   3.578401   5.123412   5.620373
    12  C    1.396868   4.553367   3.229258   5.135629   5.887756
    13  C    5.000226   1.484499   2.703105   2.500505   5.000173
    14  H    5.357476   2.146366   4.279725   1.084879   2.703459
    15  C    5.357906   4.849723   6.189251   3.665665   1.396854
    16  C    6.127433   4.396117   6.188524   3.039714   1.396863
    17  C    2.421445   5.999279   4.616236   6.483164   6.893540
    18  H    2.149133   4.625513   3.811505   4.925676   5.338226
    19  C    2.421728   5.883405   4.351091   6.492885   7.113443
    20  H    2.148909   4.363228   3.235221   4.947802   5.811096
    21  C    5.363376   2.504946   2.815510   3.667109   6.124188
    22  C    6.124553   2.504906   3.912375   3.036921   5.363369
    23  C    6.681472   6.115597   7.556523   4.841994   2.421492
    24  H    4.829285   4.891475   5.933362   3.917716   2.149154
    25  C    7.313393   5.762417   7.555989   4.387097   2.421736
    26  H    6.239756   4.063707   5.931401   2.815959   2.148914
    27  C    2.802231   6.504950   4.942181   7.075432   7.556506
    28  H    3.400141   6.787146   5.447926   7.229946   7.530228
    29  H    3.400515   6.606568   5.050220   7.245517   7.881779
    30  C    6.686306   3.783088   4.053003   4.842972   7.310892
    31  H    4.838282   2.709194   2.446425   3.920191   6.233057
    32  C    7.311449   3.783053   4.879728   4.384797   6.686012
    33  H    6.233426   2.709077   4.360860   2.811302   4.838519
    34  C    7.557031   6.504835   8.159779   5.138559   2.802307
    35  H    7.179977   6.970308   8.280044   5.756123   3.400165
    36  H    8.202243   6.413127   8.279214   5.066504   3.400510
    37  H    3.886356   7.572758   5.938003   8.159550   8.586972
    38  C    7.558466   4.286853   4.941589   5.137824   7.557929
    39  H    7.187337   4.648230   4.585860   5.757987   8.197725
    40  H    8.198432   4.648180   5.844424   5.063385   7.187062
    41  H    8.587561   7.572613   9.243902   6.197846   3.886431
    42  H    8.589123   5.370968   5.937422   6.197069   8.588456
                   11         12         13         14         15
    11  C    0.000000
    12  C    2.401427   0.000000
    13  C    5.880927   5.628980   0.000000
    14  H    6.190315   6.187411   2.702860   0.000000
    15  C    6.001785   6.042553   6.121971   3.911840   0.000000
    16  C    6.611095   7.129446   5.365963   2.816859   2.401387
    17  C    1.388889   2.774296   7.108611   7.557385   7.130050
    18  H    1.084764   3.385835   5.797396   5.935314   5.867870
    19  C    2.774838   1.388824   6.901519   7.555046   7.164580
    20  H    3.385733   1.084828   5.351915   5.929317   5.914785
    21  C    6.350756   5.686292   1.396829   3.911930   7.107943
    22  C    6.845635   6.898926   1.396832   2.815037   6.624314
    23  C    7.227495   7.358494   7.309101   4.879095   1.388883
    24  H    5.571436   5.319479   6.229413   4.360107   1.084763
    25  C    7.741271   8.274746   6.688393   4.054029   2.774755
    26  H    6.669102   7.329847   4.843310   2.448430   3.385708
    27  C    2.409169   2.408832   7.558778   8.159704   7.652469
    28  H    2.144247   3.858608   7.872811   8.281515   7.786187
    29  H    3.859166   2.144462   7.542055   8.277713   7.835115
    30  C    7.614329   6.967932   2.421718   4.878996   8.340159
    31  H    5.935676   4.929599   2.148776   4.360587   7.057844
    32  C    8.032105   7.988922   2.421709   4.052208   7.931644
    33  H    6.828422   7.169379   2.148749   2.446125   6.179018
    34  C    8.016715   8.379198   7.558317   4.941800   2.409154
    35  H    7.728507   7.717390   8.194680   5.843284   2.144229
    36  H    8.564683   9.223718   7.190790   4.587189   3.859086
    37  H    3.392317   3.392036   8.589466   9.243828   8.621185
    38  C    8.375778   8.023488   2.802355   4.940696   8.708529
    39  H    8.153248   7.283552   3.400487   5.843645   9.147346
    40  H    8.834311   8.958168   3.400476   4.585006   8.478973
    41  H    9.006911   9.390202   8.588933   5.937569   3.392325
    42  H    9.387613   9.013140   3.886469   5.936405   9.741223
                   16         17         18         19         20
    16  C    0.000000
    17  C    7.920430   0.000000
    18  H    6.150392   2.145291   0.000000
    19  C    8.358248   2.402446   3.859422   0.000000
    20  H    7.093418   3.858974   4.283822   2.145303   0.000000
    21  C    6.627673   7.428358   6.460956   6.868649   5.268265
    22  C    5.365510   8.117627   6.576384   8.162600   6.692784
    23  C    2.774316   8.305216   7.028331   8.419675   7.237415
    24  H    3.385823   6.595244   5.624633   6.383927   5.139706
    25  C    1.388861   8.993316   7.266134   9.456719   8.229185
    26  H    1.084834   8.023176   6.114278   8.580571   7.331435
    27  C    8.711794   1.390079   3.390052   1.390101   3.389888
    28  H    8.457362   1.084351   2.465154   3.387168   4.943312
    29  H    9.174194   3.387180   4.943772   1.084359   2.465561
    30  C    7.665654   8.646268   7.690708   8.082502   6.535428
    31  H    6.942862   6.908442   6.222572   6.065500   4.412982
    32  C    6.604154   9.245671   7.788161   9.208101   7.730474
    33  H    4.622091   8.155571   6.413024   8.443201   7.058643
    34  C    2.408903   9.169678   7.658527   9.488486   8.296442
    35  H    3.858628   8.693458   7.622092   8.683758   7.568531
    36  H    2.144469   9.833086   8.003173  10.412475   9.200360
    37  H    9.744042   2.150485   4.285405   2.150465   4.285346
    38  C    7.660043   9.486898   8.287676   9.177146   7.667447
    39  H    8.636768   9.076072   8.338190   8.303173   6.783104
    40  H    6.901424  10.069224   8.492109  10.178041   8.741257
    41  H    3.392092  10.121370   8.633305  10.464200   9.306376
    42  H    8.628428  10.463456   9.298852  10.128597   8.640934
                   21         22         23         24         25
    21  C    0.000000
    22  C    2.401148   0.000000
    23  C    8.339678   7.663388   0.000000
    24  H    7.057108   6.938381   2.145221   0.000000
    25  C    7.934139   6.605193   2.402396   3.859344   0.000000
    26  H    6.184005   4.623169   3.858996   4.283837   2.145356
    27  C    7.660313   8.710370   8.853085   6.957940   9.783750
    28  H    8.257686   8.781092   8.886591   7.323972   9.480576
    29  H    7.349615   8.860232   9.068254   6.973523  10.247982
    30  C    1.388824   2.774442   9.514051   8.348527   8.928391
    31  H    1.084794   3.385432   8.348239   6.841814   8.251212
    32  C    2.774430   1.388819   8.926672   8.248218   7.770528
    33  H    3.385417   1.084800   7.118603   6.637291   5.818196
    34  C    8.709358   7.659884   1.390070   3.389995   1.390095
    35  H    9.145591   8.633852   1.084348   2.465033   3.387137
    36  H    8.482109   6.903971   3.387136   4.943698   1.084363
    37  H    8.629355   9.742861   9.779774   7.895265  10.783167
    38  C    2.408878   2.408889   9.781478   8.882743   8.860440
    39  H    2.144453   3.858761  10.344405   9.066139   9.895553
    40  H    3.858751   2.144441   9.369482   8.905073   7.969536
    41  H    9.741711   8.628862   2.150513   4.285366   2.150453
    42  H    3.392063   3.392069  10.781315   9.931179   9.787018
                   26         27         28         29         30
    26  H    0.000000
    27  C    8.890210   0.000000
    28  H    8.523512   2.149185   0.000000
    29  H    9.440086   2.149210   4.286129   0.000000
    30  C    7.121630   8.861027   9.436830   8.507007   0.000000
    31  H    6.643746   6.969445   7.808970   6.446974   2.145313
    32  C    5.817122   9.783676   9.898531   9.842313   2.402462
    33  H    3.763276   8.884706   8.745358   9.223298   3.859075
    34  C    3.389959   9.851384   9.679137  10.205176   9.782234
    35  H    4.943333   9.136951   9.276769   9.250626  10.343562
    36  H    2.465578  10.692165  10.264791  11.233019   9.371467
    37  H    9.938001   1.084125   2.479166   2.479130   9.788266
    38  C    6.969712   9.855548  10.200325   9.689451   1.390081
    39  H    8.143918   9.148308   9.893834   8.607239   1.084353
    40  H    6.021000  10.689853  10.661461  10.850515   3.387152
    41  H    4.285396  10.803656  10.592797  11.163183  10.781792
    42  H    7.906179  10.808268  11.159476  10.602546   2.150451
                   31         32         33         34         35
    31  H    0.000000
    32  C    3.859055   0.000000
    33  H    4.283308   2.145356   0.000000
    34  C    8.883693   8.860047   6.969499   0.000000
    35  H    9.064207   9.893547   8.140394   2.149187   0.000000
    36  H    8.908597   7.970392   6.024369   2.149200   4.286112
    37  H    7.907018  10.783435   9.932632  10.803587  10.002680
    38  C    3.389900   1.390094   3.389946   9.854100  10.686951
    39  H    2.465597   3.387150   4.943418  10.688111  11.122726
    40  H    4.943399   1.084354   2.465647   9.147341  10.372571
    41  H    9.931470   9.787155   7.907066   1.084123   2.479233
    42  H    4.285343   2.150458   4.285392  10.806525  11.688828
                   36         37         38         39         40
    36  H    0.000000
    37  H   11.693500   0.000000
    38  C    9.148051  10.808274   0.000000
    39  H   10.374492  10.014794   2.149134   0.000000
    40  H    8.023201  11.691459   2.149152   4.286037   0.000000
    41  H    2.479104  11.728597  10.806626  11.689465  10.013697
    42  H   10.013557  11.733839   1.084114   2.479039   2.479054
                   41         42
    41  H    0.000000
    42  H   11.731844   0.000000
 Stoichiometry    C24H18
 Framework group  C1[X(C24H18)]
 Deg. of freedom   120
 Full point group                 C1      NOp   1
 Largest Abelian subgroup         C1      NOp   1
 Largest concise Abelian subgroup C1      NOp   1
                         Standard orientation:                         
 ---------------------------------------------------------------------
 Center     Atomic      Atomic             Coordinates (Angstroms)
 Number     Number       Type             X           Y           Z
 ---------------------------------------------------------------------
      1          6           0        1.401374   -0.004205    0.042896
      2          6           0        0.688700   -1.202067    0.014337
      3          6           0        0.696574    1.198834    0.029534
      4          6           0       -0.704795   -1.211403   -0.027731
      5          1           0        1.227925   -2.143395    0.024857
      6          6           0        2.884771   -0.009743    0.104141
      7          6           0       -0.697044    1.217123   -0.012716
      8          1           0        1.239816    2.135465    0.097138
      9          6           0       -1.385958    0.005138   -0.041298
     10          6           0       -1.449668   -2.494793   -0.075749
     11          6           0        3.550096   -0.322166    1.291965
     12          6           0        3.645865    0.297704   -1.026103
     13          6           0       -1.434999    2.505124   -0.027337
     14          1           0       -2.467992    0.009158   -0.119712
     15          6           0       -1.019116   -3.540698   -0.895449
     16          6           0       -2.596576   -2.682995    0.699112
     17          6           0        4.937847   -0.328254    1.347855
     18          1           0        2.973984   -0.540767    2.184725
     19          6           0        5.033590    0.292086   -0.971145
     20          1           0        3.144577    0.522794   -1.961462
     21          6           0       -1.002367    3.566879   -0.825231
     22          6           0       -2.577684    2.682177    0.756285
     23          6           0       -1.715736   -4.741452   -0.939090
     24          1           0       -0.143107   -3.403154   -1.520270
     25          6           0       -3.293964   -3.883297    0.655987
     26          1           0       -2.932230   -1.888112    1.356655
     27          6           0        5.684734   -0.021773    0.216241
     28          1           0        5.437144   -0.565292    2.280771
     29          1           0        5.608071    0.525989   -1.860580
     30          6           0       -1.692436    4.772049   -0.839429
     31          1           0       -0.129361    3.438346   -1.456196
     32          6           0       -3.268871    3.886707    0.742610
     33          1           0       -2.914348    1.874895    1.397957
     34          6           0       -2.855779   -4.917209   -0.163393
     35          1           0       -1.371195   -5.539430   -1.587421
     36          1           0       -4.177979   -4.014073    1.270201
     37          1           0        6.767976   -0.026220    0.259744
     38          6           0       -2.828544    4.936262   -0.055454
     39          1           0       -1.346272    5.582659   -1.471017
     40          1           0       -4.149577    4.008537    1.363367
     41          1           0       -3.399828   -5.854319   -0.197426
     42          1           0       -3.367683    5.876748   -0.066366
 ---------------------------------------------------------------------
 Rotational constants (GHZ):           0.1977352           0.1944379           0.1046263
 Leave Link  202 at Mon Nov 14 15:01:51 2022, MaxMem= 16106127360 cpu:               0.7 elap:               0.0
 (Enter /opt/ap/G16/B01/g16/l301.exe)
 Standard basis: 6-311++G(d,p) (5D, 7F)
 Ernie: Thresh=  0.10000D-02 Tol=  0.10000D-05 Strict=F.
 There are   678 symmetry adapted cartesian basis functions of A   symmetry.
 There are   654 symmetry adapted basis functions of A   symmetry.
   654 basis functions,  1026 primitive gaussians,   678 cartesian basis functions
    81 alpha electrons       81 beta electrons
       nuclear repulsion energy      1730.7376843228 Hartrees.
 IExCor= 4639 DFT=T Ex+Corr=wB97XD ExCW=0 ScaHFX=  1.000000
 ScaDFX=  1.000000  1.000000  1.000000  1.000000 ScalE2=  1.000000  1.000000
 IRadAn=      5 IRanWt=     -1 IRanGd=            0 ICorTp=0 IEmpDi=121
 HFx  wShort=  0.000000 wLong=  0.200000 cFull=  0.222036 cShort=  0.000000 cLong=  0.777964
 DFx  wShort=  0.000000 wLong=  0.200000 cFull=  0.000000 cShort=  0.000000 cLong=  1.000000
 NAtoms=   42 NActive=   42 NUniq=   42 SFac= 1.00D+00 NAtFMM=   60 NAOKFM=F Big=F
 Integral buffers will be    131072 words long.
 Raffenetti 2 integral format.
 Two-electron integral symmetry is turned on.
 R6Disp:  Grimme-D2 Dispersion energy=       -0.0287097135 Hartrees.
 Nuclear repulsion after empirical dispersion term =     1730.7089746092 Hartrees.
 Leave Link  301 at Mon Nov 14 15:01:51 2022, MaxMem= 16106127360 cpu:               1.5 elap:               0.1
 (Enter /opt/ap/G16/B01/g16/l302.exe)
 NPDir=0 NMtPBC=     1 NCelOv=     1 NCel=       1 NClECP=     1 NCelD=      1
         NCelK=      1 NCelE2=     1 NClLst=     1 CellRange=     0.0.
 One-electron integrals computed using PRISM.
 One-electron integral symmetry used in STVInt
 NBasis=   654 RedAO= T EigKep=  1.05D-06  NBF=   654
 NBsUse=   646 1.00D-06 EigRej=  7.53D-07 NBFU=   646
 Precomputing XC quadrature grid using
 IXCGrd= 4 IRadAn=           5 IRanWt=          -1 IRanGd=           0 AccXCQ= 0.00D+00.
 Generated NRdTot=       0 NPtTot=           0 NUsed=           0 NTot=          32
 NSgBfM=   669   669   669   669   669 MxSgAt=    42 MxSgA2=    42.
 Leave Link  302 at Mon Nov 14 15:01:52 2022, MaxMem= 16106127360 cpu:              22.8 elap:               0.7
 (Enter /opt/ap/G16/B01/g16/l303.exe)
 DipDrv:  MaxL=1.
 Leave Link  303 at Mon Nov 14 15:01:52 2022, MaxMem= 16106127360 cpu:               2.9 elap:               0.1
 (Enter /opt/ap/G16/B01/g16/l401.exe)
 ExpMin= 3.60D-02 ExpMax= 4.56D+03 ExpMxC= 6.82D+02 IAcc=3 IRadAn=         5 AccDes= 0.00D+00
 Harris functional with IExCor= 4639 and IRadAn=       5 diagonalized for initial guess.
 HarFok:  IExCor= 4639 AccDes= 0.00D+00 IRadAn=         5 IDoV= 1 UseB2=F ITyADJ=14
 ICtDFT=  3500011 ScaDFX=  1.000000  1.000000  1.000000  1.000000
 FoFCou: FMM=F IPFlag=           0 FMFlag=      100000 FMFlg1=           0
         NFxFlg=           0 DoJE=T BraDBF=F KetDBF=T FulRan=T
         wScrn=  0.000000 ICntrl=       500 IOpCl=  0 I1Cent=   200000004 NGrid=           0
         NMat0=    1 NMatS0=      1 NMatT0=    0 NMatD0=    1 NMtDS0=    0 NMtDT0=    0
 Petite list used in FoFCou.
 Harris En= -882.968226749537    
 JPrj=0 DoOrth=F DoCkMO=F.
 Leave Link  401 at Mon Nov 14 15:01:54 2022, MaxMem= 16106127360 cpu:              55.6 elap:               1.8
 (Enter /opt/ap/G16/B01/g16/l502.exe)
 Integral symmetry usage will be decided dynamically.
 Closed shell SCF:
 Using DIIS extrapolation, IDIIS=  1040.
 NGot= 16106127360 LenX= 16105179956 LenY= 16104719594
 Requested convergence on RMS density matrix=1.00D-08 within 512 cycles.
 Requested convergence on MAX density matrix=1.00D-06.
 Requested convergence on             energy=1.00D-06.
 No special actions if energy rises.
 Fock matrices will be formed incrementally for  20 cycles.

 Cycle   1  Pass 1  IDiag  1:
 FoFJK:  IHMeth= 1 ICntrl=       0 DoSepK=T KAlg= 0 I1Cent=           0 FoldK=F
 IRaf=         1 NMat=       1 IRICut=       1 DoRegI=T DoRafI=F ISym2E= 0 IDoP0=0 IntGTp=1.
 FoFCou: FMM=F IPFlag=           0 FMFlag=      100000 FMFlg1=           0
         NFxFlg=           0 DoJE=T BraDBF=F KetDBF=F FulRan=T
         wScrn=  0.000000 ICntrl=       500 IOpCl=  0 I1Cent=           0 NGrid=           0
         NMat0=    1 NMatS0=      1 NMatT0=    0 NMatD0=    1 NMtDS0=    0 NMtDT0=    0
 Symmetry not used in FoFCou.
 E= -925.114737722458    
 DIIS: error= 4.64D-02 at cycle   1 NSaved=   1.
 NSaved= 1 IEnMin= 1 EnMin= -925.114737722458     IErMin= 1 ErrMin= 4.64D-02
 ErrMax= 4.64D-02  0.00D+00 EMaxC= 1.00D-01 BMatC= 1.90D+00 BMatP= 1.90D+00
 IDIUse=3 WtCom= 5.36D-01 WtEn= 4.64D-01
 Coeff-Com:  0.100D+01
 Coeff-En:   0.100D+01
 Coeff:      0.100D+01
 Gap=     0.318 Goal=   None    Shift=    0.000
 GapD=    0.318 DampG=1.000 DampE=0.500 DampFc=0.5000 IDamp=-1.
 Damping current iteration by 5.00D-01
 RMSDP=4.37D-02 MaxDP=4.23D+00              OVMax= 4.33D-02

 Cycle   2  Pass 1  IDiag  1:
 RMSU=  7.09D-03    CP:  8.20D-01
 E= -925.213122827768     Delta-E=       -0.098385105311 Rises=F Damp=T
 DIIS: error= 2.25D-02 at cycle   2 NSaved=   2.
 NSaved= 2 IEnMin= 2 EnMin= -925.213122827768     IErMin= 2 ErrMin= 2.25D-02
 ErrMax= 2.25D-02  0.00D+00 EMaxC= 1.00D-01 BMatC= 4.32D-01 BMatP= 1.90D+00
 IDIUse=3 WtCom= 7.75D-01 WtEn= 2.25D-01
 Coeff-Com: -0.883D+00 0.188D+01
 Coeff-En:   0.000D+00 0.100D+01
 Coeff:     -0.684D+00 0.168D+01
 Gap=     0.326 Goal=   None    Shift=    0.000
 RMSDP=2.54D-02 MaxDP=2.30D+00 DE=-9.84D-02 OVMax= 3.44D-02

 Cycle   3  Pass 1  IDiag  1:
 RMSU=  4.24D-03    CP:  6.04D-01  1.41D+00
 E= -925.301194342220     Delta-E=       -0.088071514451 Rises=F Damp=F
 DIIS: error= 3.27D-03 at cycle   3 NSaved=   3.
 NSaved= 3 IEnMin= 3 EnMin= -925.301194342220     IErMin= 3 ErrMin= 3.27D-03
 ErrMax= 3.27D-03  0.00D+00 EMaxC= 1.00D-01 BMatC= 8.82D-03 BMatP= 4.32D-01
 IDIUse=3 WtCom= 9.67D-01 WtEn= 3.27D-02
 Coeff-Com: -0.371D+00 0.787D+00 0.584D+00
 Coeff-En:   0.000D+00 0.000D+00 0.100D+01
 Coeff:     -0.359D+00 0.761D+00 0.598D+00
 Gap=     0.324 Goal=   None    Shift=    0.000
 RMSDP=2.18D-03 MaxDP=1.87D-01 DE=-8.81D-02 OVMax= 2.00D-02

 Cycle   4  Pass 1  IDiag  1:
 RMSU=  1.47D-03    CP:  6.00D-01  1.54D+00  7.21D-01
 E= -925.309272741813     Delta-E=       -0.008078399594 Rises=F Damp=F
 DIIS: error= 8.15D-04 at cycle   4 NSaved=   4.
 NSaved= 4 IEnMin= 4 EnMin= -925.309272741813     IErMin= 4 ErrMin= 8.15D-04
 ErrMax= 8.15D-04  0.00D+00 EMaxC= 1.00D-01 BMatC= 2.77D-04 BMatP= 8.82D-03
 IDIUse=3 WtCom= 9.92D-01 WtEn= 8.15D-03
 Coeff-Com: -0.113D+00 0.241D+00 0.236D+00 0.636D+00
 Coeff-En:   0.000D+00 0.000D+00 0.000D+00 0.100D+01
 Coeff:     -0.112D+00 0.239D+00 0.234D+00 0.639D+00
 Gap=     0.322 Goal=   None    Shift=    0.000
 RMSDP=6.46D-04 MaxDP=5.53D-02 DE=-8.08D-03 OVMax= 4.35D-03

 Cycle   5  Pass 1  IDiag  1:
 RMSU=  2.99D-04    CP:  5.97D-01  1.59D+00  7.63D-01  8.14D-01
 E= -925.309561674385     Delta-E=       -0.000288932571 Rises=F Damp=F
 DIIS: error= 1.92D-04 at cycle   5 NSaved=   5.
 NSaved= 5 IEnMin= 5 EnMin= -925.309561674385     IErMin= 5 ErrMin= 1.92D-04
 ErrMax= 1.92D-04  0.00D+00 EMaxC= 1.00D-01 BMatC= 2.02D-05 BMatP= 2.77D-04
 IDIUse=3 WtCom= 9.98D-01 WtEn= 1.92D-03
 Coeff-Com:  0.258D-01-0.550D-01-0.242D-01 0.196D+00 0.857D+00
 Coeff-En:   0.000D+00 0.000D+00 0.000D+00 0.000D+00 0.100D+01
 Coeff:      0.258D-01-0.548D-01-0.241D-01 0.196D+00 0.858D+00
 Gap=     0.322 Goal=   None    Shift=    0.000
 RMSDP=1.89D-04 MaxDP=1.13D-02 DE=-2.89D-04 OVMax= 1.43D-03

 Cycle   6  Pass 1  IDiag  1:
 RMSU=  8.62D-05    CP:  5.96D-01  1.59D+00  7.88D-01  8.74D-01  1.28D+00
 E= -925.309587102438     Delta-E=       -0.000025428053 Rises=F Damp=F
 DIIS: error= 6.18D-05 at cycle   6 NSaved=   6.
 NSaved= 6 IEnMin= 6 EnMin= -925.309587102438     IErMin= 6 ErrMin= 6.18D-05
 ErrMax= 6.18D-05  0.00D+00 EMaxC= 1.00D-01 BMatC= 1.49D-06 BMatP= 2.02D-05
 IDIUse=1 WtCom= 1.00D+00 WtEn= 0.00D+00
 Coeff-Com:  0.135D-01-0.288D-01-0.163D-01 0.544D-01 0.336D+00 0.641D+00
 Coeff:      0.135D-01-0.288D-01-0.163D-01 0.544D-01 0.336D+00 0.641D+00
 Gap=     0.322 Goal=   None    Shift=    0.000
 RMSDP=8.39D-05 MaxDP=7.62D-03 DE=-2.54D-05 OVMax= 4.25D-04

 Cycle   7  Pass 1  IDiag  1:
 RMSU=  4.88D-05    CP:  5.97D-01  1.59D+00  7.94D-01  9.06D-01  1.30D+00
                    CP:  7.81D-01
 E= -925.309588889681     Delta-E=       -0.000001787243 Rises=F Damp=F
 DIIS: error= 1.18D-05 at cycle   7 NSaved=   7.
 NSaved= 7 IEnMin= 7 EnMin= -925.309588889681     IErMin= 7 ErrMin= 1.18D-05
 ErrMax= 1.18D-05  0.00D+00 EMaxC= 1.00D-01 BMatC= 1.07D-07 BMatP= 1.49D-06
 IDIUse=1 WtCom= 1.00D+00 WtEn= 0.00D+00
 Coeff-Com: -0.201D-02 0.431D-02 0.175D-02-0.263D-01-0.910D-01 0.104D+00
 Coeff-Com:  0.101D+01
 Coeff:     -0.201D-02 0.431D-02 0.175D-02-0.263D-01-0.910D-01 0.104D+00
 Coeff:      0.101D+01
 Gap=     0.322 Goal=   None    Shift=    0.000
 RMSDP=3.06D-05 MaxDP=1.88D-03 DE=-1.79D-06 OVMax= 2.58D-04

 Cycle   8  Pass 1  IDiag  1:
 RMSU=  9.34D-06    CP:  5.97D-01  1.59D+00  7.98D-01  9.06D-01  1.36D+00
                    CP:  8.85D-01  1.23D+00
 E= -925.309589116239     Delta-E=       -0.000000226558 Rises=F Damp=F
 DIIS: error= 8.58D-06 at cycle   8 NSaved=   8.
 NSaved= 8 IEnMin= 8 EnMin= -925.309589116239     IErMin= 8 ErrMin= 8.58D-06
 ErrMax= 8.58D-06  0.00D+00 EMaxC= 1.00D-01 BMatC= 1.83D-08 BMatP= 1.07D-07
 IDIUse=1 WtCom= 1.00D+00 WtEn= 0.00D+00
 Coeff-Com: -0.160D-02 0.343D-02 0.167D-02-0.160D-01-0.598D-01 0.284D-01
 Coeff-Com:  0.480D+00 0.564D+00
 Coeff:     -0.160D-02 0.343D-02 0.167D-02-0.160D-01-0.598D-01 0.284D-01
 Coeff:      0.480D+00 0.564D+00
 Gap=     0.322 Goal=   None    Shift=    0.000
 RMSDP=4.25D-06 MaxDP=2.71D-04 DE=-2.27D-07 OVMax= 6.93D-05

 Cycle   9  Pass 1  IDiag  1:
 RMSU=  2.67D-06    CP:  5.97D-01  1.59D+00  7.98D-01  9.06D-01  1.37D+00
                    CP:  8.89D-01  1.26D+00  9.78D-01
 E= -925.309589139410     Delta-E=       -0.000000023172 Rises=F Damp=F
 DIIS: error= 2.17D-06 at cycle   9 NSaved=   9.
 NSaved= 9 IEnMin= 9 EnMin= -925.309589139410     IErMin= 9 ErrMin= 2.17D-06
 ErrMax= 2.17D-06  0.00D+00 EMaxC= 1.00D-01 BMatC= 2.02D-09 BMatP= 1.83D-08
 IDIUse=1 WtCom= 1.00D+00 WtEn= 0.00D+00
 Coeff-Com:  0.119D-03-0.260D-03 0.723D-04 0.296D-02 0.108D-01-0.169D-01
 Coeff-Com: -0.184D+00 0.127D+00 0.106D+01
 Coeff:      0.119D-03-0.260D-03 0.723D-04 0.296D-02 0.108D-01-0.169D-01
 Coeff:     -0.184D+00 0.127D+00 0.106D+01
 Gap=     0.322 Goal=   None    Shift=    0.000
 RMSDP=3.18D-06 MaxDP=2.08D-04 DE=-2.32D-08 OVMax= 4.82D-05

 Cycle  10  Pass 1  IDiag  1:
 RMSU=  7.60D-07    CP:  5.97D-01  1.59D+00  7.98D-01  9.05D-01  1.37D+00
                    CP:  8.93D-01  1.29D+00  1.21D+00  1.15D+00
 E= -925.309589145011     Delta-E=       -0.000000005601 Rises=F Damp=F
 DIIS: error= 8.38D-07 at cycle  10 NSaved=  10.
 NSaved=10 IEnMin=10 EnMin= -925.309589145011     IErMin=10 ErrMin= 8.38D-07
 ErrMax= 8.38D-07  0.00D+00 EMaxC= 1.00D-01 BMatC= 1.96D-10 BMatP= 2.02D-09
 IDIUse=1 WtCom= 1.00D+00 WtEn= 0.00D+00
 Coeff-Com:  0.139D-03-0.299D-03-0.652D-04 0.193D-02 0.699D-02-0.537D-02
 Coeff-Com: -0.862D-01-0.101D-01 0.344D+00 0.749D+00
 Coeff:      0.139D-03-0.299D-03-0.652D-04 0.193D-02 0.699D-02-0.537D-02
 Coeff:     -0.862D-01-0.101D-01 0.344D+00 0.749D+00
 Gap=     0.322 Goal=   None    Shift=    0.000
 RMSDP=5.43D-07 MaxDP=4.20D-05 DE=-5.60D-09 OVMax= 1.03D-05

 Cycle  11  Pass 1  IDiag  1:
 RMSU=  1.63D-07    CP:  5.97D-01  1.59D+00  7.98D-01  9.05D-01  1.37D+00
                    CP:  8.93D-01  1.29D+00  1.22D+00  1.23D+00  1.16D+00
 E= -925.309589145343     Delta-E=       -0.000000000332 Rises=F Damp=F
 DIIS: error= 2.15D-07 at cycle  11 NSaved=  11.
 NSaved=11 IEnMin=11 EnMin= -925.309589145343     IErMin=11 ErrMin= 2.15D-07
 ErrMax= 2.15D-07  0.00D+00 EMaxC= 1.00D-01 BMatC= 3.35D-11 BMatP= 1.96D-10
 IDIUse=1 WtCom= 1.00D+00 WtEn= 0.00D+00
 Coeff-Com:  0.219D-04-0.463D-04-0.204D-04 0.114D-03 0.222D-03 0.130D-02
 Coeff-Com:  0.253D-02-0.298D-01-0.646D-01 0.242D+00 0.849D+00
 Coeff:      0.219D-04-0.463D-04-0.204D-04 0.114D-03 0.222D-03 0.130D-02
 Coeff:      0.253D-02-0.298D-01-0.646D-01 0.242D+00 0.849D+00
 Gap=     0.322 Goal=   None    Shift=    0.000
 RMSDP=3.76D-07 MaxDP=3.47D-05 DE=-3.32D-10 OVMax= 3.36D-06

 Cycle  12  Pass 1  IDiag  1:
 RMSU=  7.07D-08    CP:  5.97D-01  1.59D+00  7.98D-01  9.06D-01  1.37D+00
                    CP:  8.93D-01  1.29D+00  1.23D+00  1.26D+00  1.33D+00
                    CP:  1.26D+00
 E= -925.309589145364     Delta-E=       -0.000000000021 Rises=F Damp=F
 DIIS: error= 7.70D-08 at cycle  12 NSaved=  12.
 NSaved=12 IEnMin=12 EnMin= -925.309589145364     IErMin=12 ErrMin= 7.70D-08
 ErrMax= 7.70D-08  0.00D+00 EMaxC= 1.00D-01 BMatC= 1.40D-12 BMatP= 3.35D-11
 IDIUse=1 WtCom= 1.00D+00 WtEn= 0.00D+00
 Coeff-Com: -0.146D-04 0.316D-04 0.104D-04-0.226D-03-0.831D-03 0.832D-03
 Coeff-Com:  0.101D-01-0.100D-02-0.376D-01-0.610D-01-0.533D-01 0.114D+01
 Coeff:     -0.146D-04 0.316D-04 0.104D-04-0.226D-03-0.831D-03 0.832D-03
 Coeff:      0.101D-01-0.100D-02-0.376D-01-0.610D-01-0.533D-01 0.114D+01
 Gap=     0.322 Goal=   None    Shift=    0.000
 RMSDP=1.63D-07 MaxDP=1.59D-05 DE=-2.14D-11 OVMax= 1.23D-06

 Cycle  13  Pass 1  IDiag  1:
 RMSU=  3.68D-08    CP:  5.97D-01  1.59D+00  7.98D-01  9.06D-01  1.37D+00
                    CP:  8.92D-01  1.29D+00  1.23D+00  1.26D+00  1.40D+00
                    CP:  1.39D+00  1.57D+00
 E= -925.309589145410     Delta-E=       -0.000000000046 Rises=F Damp=F
 DIIS: error= 3.55D-08 at cycle  13 NSaved=  13.
 NSaved=13 IEnMin=13 EnMin= -925.309589145410     IErMin=13 ErrMin= 3.55D-08
 ErrMax= 3.55D-08  0.00D+00 EMaxC= 1.00D-01 BMatC= 1.91D-13 BMatP= 1.40D-12
 IDIUse=1 WtCom= 1.00D+00 WtEn= 0.00D+00
 Coeff-Com: -0.542D-05 0.117D-04 0.469D-05-0.715D-04-0.249D-03 0.189D-03
 Coeff-Com:  0.272D-02 0.127D-02-0.627D-02-0.276D-01-0.698D-01 0.342D+00
 Coeff-Com:  0.758D+00
 Coeff:     -0.542D-05 0.117D-04 0.469D-05-0.715D-04-0.249D-03 0.189D-03
 Coeff:      0.272D-02 0.127D-02-0.627D-02-0.276D-01-0.698D-01 0.342D+00
 Coeff:      0.758D+00
 Gap=     0.322 Goal=   None    Shift=    0.000
 RMSDP=2.04D-08 MaxDP=1.66D-06 DE=-4.59D-11 OVMax= 3.05D-07

 Cycle  14  Pass 1  IDiag  1:
 RMSU=  8.06D-09    CP:  5.97D-01  1.59D+00  7.98D-01  9.06D-01  1.37D+00
                    CP:  8.92D-01  1.29D+00  1.23D+00  1.26D+00  1.40D+00
                    CP:  1.39D+00  1.68D+00  1.13D+00
 E= -925.309589145425     Delta-E=       -0.000000000015 Rises=F Damp=F
 DIIS: error= 9.08D-09 at cycle  14 NSaved=  14.
 NSaved=14 IEnMin=14 EnMin= -925.309589145425     IErMin=14 ErrMin= 9.08D-09
 ErrMax= 9.08D-09  0.00D+00 EMaxC= 1.00D-01 BMatC= 5.03D-14 BMatP= 1.91D-13
 IDIUse=1 WtCom= 1.00D+00 WtEn= 0.00D+00
 Coeff-Com:  0.593D-06-0.132D-05-0.173D-06 0.137D-04 0.576D-04-0.792D-04
 Coeff-Com: -0.813D-03 0.611D-03 0.435D-02 0.470D-03-0.218D-01-0.871D-01
 Coeff-Com:  0.325D+00 0.779D+00
 Coeff:      0.593D-06-0.132D-05-0.173D-06 0.137D-04 0.576D-04-0.792D-04
 Coeff:     -0.813D-03 0.611D-03 0.435D-02 0.470D-03-0.218D-01-0.871D-01
 Coeff:      0.325D+00 0.779D+00
 Gap=     0.322 Goal=   None    Shift=    0.000
 RMSDP=1.53D-08 MaxDP=1.70D-06 DE=-1.46D-11 OVMax= 1.09D-07

 Cycle  15  Pass 1  IDiag  1:
 RMSU=  2.77D-09    CP:  5.97D-01  1.59D+00  7.98D-01  9.06D-01  1.37D+00
                    CP:  8.92D-01  1.29D+00  1.23D+00  1.26D+00  1.41D+00
                    CP:  1.40D+00  1.75D+00  1.30D+00  8.70D-01
 E= -925.309589145410     Delta-E=        0.000000000015 Rises=F Damp=F
 DIIS: error= 1.91D-09 at cycle  15 NSaved=  15.
 NSaved=15 IEnMin=14 EnMin= -925.309589145425     IErMin=15 ErrMin= 1.91D-09
 ErrMax= 1.91D-09  0.00D+00 EMaxC= 1.00D-01 BMatC= 2.32D-15 BMatP= 5.03D-14
 IDIUse=1 WtCom= 1.00D+00 WtEn= 0.00D+00
 Coeff-Com:  0.561D-06-0.122D-05-0.451D-06 0.911D-05 0.350D-04-0.391D-04
 Coeff-Com: -0.435D-03 0.929D-04 0.173D-02 0.207D-02-0.161D-02-0.518D-01
 Coeff-Com:  0.468D-01 0.198D+00 0.805D+00
 Coeff:      0.561D-06-0.122D-05-0.451D-06 0.911D-05 0.350D-04-0.391D-04
 Coeff:     -0.435D-03 0.929D-04 0.173D-02 0.207D-02-0.161D-02-0.518D-01
 Coeff:      0.468D-01 0.198D+00 0.805D+00
 Gap=     0.322 Goal=   None    Shift=    0.000
 RMSDP=3.93D-09 MaxDP=4.28D-07 DE= 1.46D-11 OVMax= 2.60D-08

 SCF Done:  E(RwB97XD) =  -925.309589145     A.U. after   15 cycles
            NFock= 15  Conv=0.39D-08     -V/T= 2.0044
 KE= 9.212946875955D+02 PE=-5.607923047288D+03 EE= 2.030609795938D+03
 Leave Link  502 at Mon Nov 14 15:04:26 2022, MaxMem= 16106127360 cpu:            4865.5 elap:             152.5
 (Enter /opt/ap/G16/B01/g16/l601.exe)
 Copying SCF densities to generalized density rwf, IOpCl= 0 IROHF=0.

 **********************************************************************

            Population analysis using the SCF Density.

 **********************************************************************

 Orbital symmetries:
       Occupied  (A) (A) (A) (A) (A) (A) (A) (A) (A) (A) (A) (A)
                 (A) (A) (A) (A) (A) (A) (A) (A) (A) (A) (A) (A)
                 (A) (A) (A) (A) (A) (A) (A) (A) (A) (A) (A) (A)
                 (A) (A) (A) (A) (A) (A) (A) (A) (A) (A) (A) (A)
                 (A) (A) (A) (A) (A) (A) (A) (A) (A) (A) (A) (A)
                 (A) (A) (A) (A) (A) (A) (A) (A) (A) (A) (A) (A)
                 (A) (A) (A) (A) (A) (A) (A) (A) (A)
       Virtual   (A) (A) (A) (A) (A) (A) (A) (A) (A) (A) (A) (A)
                 (A) (A) (A) (A) (A) (A) (A) (A) (A) (A) (A) (A)
                 (A) (A) (A) (A) (A) (A) (A) (A) (A) (A) (A) (A)
                 (A) (A) (A) (A) (A) (A) (A) (A) (A) (A) (A) (A)
                 (A) (A) (A) (A) (A) (A) (A) (A) (A) (A) (A) (A)
                 (A) (A) (A) (A) (A) (A) (A) (A) (A) (A) (A) (A)
                 (A) (A) (A) (A) (A) (A) (A) (A) (A) (A) (A) (A)
                 (A) (A) (A) (A) (A) (A) (A) (A) (A) (A) (A) (A)
                 (A) (A) (A) (A) (A) (A) (A) (A) (A) (A) (A) (A)
                 (A) (A) (A) (A) (A) (A) (A) (A) (A) (A) (A) (A)
                 (A) (A) (A) (A) (A) (A) (A) (A) (A) (A) (A) (A)
                 (A) (A) (A) (A) (A) (A) (A) (A) (A) (A) (A) (A)
                 (A) (A) (A) (A) (A) (A) (A) (A) (A) (A) (A) (A)
                 (A) (A) (A) (A) (A) (A) (A) (A) (A) (A) (A) (A)
                 (A) (A) (A) (A) (A) (A) (A) (A) (A) (A) (A) (A)
                 (A) (A) (A) (A) (A) (A) (A) (A) (A) (A) (A) (A)
                 (A) (A) (A) (A) (A) (A) (A) (A) (A) (A) (A) (A)
                 (A) (A) (A) (A) (A) (A) (A) (A) (A) (A) (A) (A)
                 (A) (A) (A) (A) (A) (A) (A) (A) (A) (A) (A) (A)
                 (A) (A) (A) (A) (A) (A) (A) (A) (A) (A) (A) (A)
                 (A) (A) (A) (A) (A) (A) (A) (A) (A) (A) (A) (A)
                 (A) (A) (A) (A) (A) (A) (A) (A) (A) (A) (A) (A)
                 (A) (A) (A) (A) (A) (A) (A) (A) (A) (A) (A) (A)
                 (A) (A) (A) (A) (A) (A) (A) (A) (A) (A) (A) (A)
                 (A) (A) (A) (A) (A) (A) (A) (A) (A) (A) (A) (A)
                 (A) (A) (A) (A) (A) (A) (A) (A) (A) (A) (A) (A)
                 (A) (A) (A) (A) (A) (A) (A) (A) (A) (A) (A) (A)
                 (A) (A) (A) (A) (A) (A) (A) (A) (A) (A) (A) (A)
                 (A) (A) (A) (A) (A) (A) (A) (A) (A) (A) (A) (A)
                 (A) (A) (A) (A) (A) (A) (A) (A) (A) (A) (A) (A)
                 (A) (A) (A) (A) (A) (A) (A) (A) (A) (A) (A) (A)
                 (A) (A) (A) (A) (A) (A) (A) (A) (A) (A) (A) (A)
                 (A) (A) (A) (A) (A) (A) (A) (A) (A) (A) (A) (A)
                 (A) (A) (A) (A) (A) (A) (A) (A) (A) (A) (A) (A)
                 (A) (A) (A) (A) (A) (A) (A) (A) (A) (A) (A) (A)
                 (A) (A) (A) (A) (A) (A) (A) (A) (A) (A) (A) (A)
                 (A) (A) (A) (A) (A) (A) (A) (A) (A) (A) (A) (A)
                 (A) (A) (A) (A) (A) (A) (A) (A) (A) (A) (A) (A)
                 (A) (A) (A) (A) (A) (A) (A) (A) (A) (A) (A) (A)
                 (A) (A) (A) (A) (A) (A) (A) (A) (A) (A) (A) (A)
                 (A) (A) (A) (A) (A) (A) (A) (A) (A) (A) (A) (A)
                 (A) (A) (A) (A) (A) (A) (A) (A) (A) (A) (A) (A)
                 (A) (A) (A) (A) (A) (A) (A) (A) (A) (A) (A) (A)
                 (A) (A) (A) (A) (A) (A) (A) (A) (A) (A) (A) (A)
                 (A) (A) (A) (A) (A) (A) (A) (A) (A) (A) (A) (A)
                 (A) (A) (A) (A) (A) (A) (A) (A) (A) (A) (A) (A)
                 (A) (A) (A) (A) (A) (A) (A) (A) (A) (A) (A) (A)
                 (A)
 The electronic state is 1-A.
 Alpha  occ. eigenvalues --  -10.30378 -10.30373 -10.30326 -10.30302 -10.30296
 Alpha  occ. eigenvalues --  -10.30226 -10.29230 -10.29229 -10.29211 -10.29207
 Alpha  occ. eigenvalues --  -10.29199 -10.29174 -10.29150 -10.29149 -10.29127
 Alpha  occ. eigenvalues --  -10.29123 -10.29118 -10.29097 -10.29082 -10.29079
 Alpha  occ. eigenvalues --  -10.29066 -10.29054 -10.29042 -10.29040  -0.98928
 Alpha  occ. eigenvalues --   -0.97031  -0.96993  -0.95242  -0.89386  -0.89359
 Alpha  occ. eigenvalues --   -0.85309  -0.85266  -0.85181  -0.85026  -0.82252
 Alpha  occ. eigenvalues --   -0.82209  -0.73503  -0.73227  -0.71113  -0.70580
 Alpha  occ. eigenvalues --   -0.70354  -0.70087  -0.66801  -0.66666  -0.63432
 Alpha  occ. eigenvalues --   -0.60680  -0.60635  -0.58724  -0.57109  -0.56469
 Alpha  occ. eigenvalues --   -0.54942  -0.54725  -0.54546  -0.54254  -0.53077
 Alpha  occ. eigenvalues --   -0.51914  -0.51397  -0.51267  -0.51091  -0.50845
 Alpha  occ. eigenvalues --   -0.50731  -0.47656  -0.46618  -0.46046  -0.46025
 Alpha  occ. eigenvalues --   -0.45501  -0.45090  -0.44275  -0.43145  -0.43030
 Alpha  occ. eigenvalues --   -0.42868  -0.41833  -0.41364  -0.36514  -0.35190
 Alpha  occ. eigenvalues --   -0.33606  -0.33599  -0.33592  -0.33052  -0.31219
 Alpha  occ. eigenvalues --   -0.30211
 Alpha virt. eigenvalues --    0.02038   0.03009   0.03675   0.04209   0.04340
 Alpha virt. eigenvalues --    0.04812   0.04927   0.04992   0.05167   0.05298
 Alpha virt. eigenvalues --    0.05369   0.05658   0.05685   0.06770   0.06836
 Alpha virt. eigenvalues --    0.06891   0.07186   0.07910   0.07983   0.08345
 Alpha virt. eigenvalues --    0.08612   0.08982   0.09104   0.09443   0.11112
 Alpha virt. eigenvalues --    0.11478   0.11951   0.12122   0.12742   0.13377
 Alpha virt. eigenvalues --    0.13579   0.14043   0.14182   0.14676   0.15110
 Alpha virt. eigenvalues --    0.15573   0.15750   0.15805   0.16084   0.16349
 Alpha virt. eigenvalues --    0.16409   0.16566   0.17034   0.17378   0.17460
 Alpha virt. eigenvalues --    0.17590   0.17622   0.17827   0.17971   0.18050
 Alpha virt. eigenvalues --    0.18146   0.18211   0.18452   0.18692   0.18906
 Alpha virt. eigenvalues --    0.18920   0.19255   0.19451   0.20110   0.20310
 Alpha virt. eigenvalues --    0.20397   0.20635   0.20856   0.21258   0.21391
 Alpha virt. eigenvalues --    0.21902   0.22247   0.22362   0.22588   0.22922
 Alpha virt. eigenvalues --    0.22954   0.23163   0.23325   0.23667   0.23817
 Alpha virt. eigenvalues --    0.24417   0.25026   0.25081   0.25200   0.25554
 Alpha virt. eigenvalues --    0.25631   0.26084   0.26393   0.26846   0.27127
 Alpha virt. eigenvalues --    0.27528   0.27663   0.27859   0.28136   0.28390
 Alpha virt. eigenvalues --    0.28736   0.28883   0.29178   0.29233   0.29551
 Alpha virt. eigenvalues --    0.29724   0.30065   0.30268   0.30466   0.30561
 Alpha virt. eigenvalues --    0.31420   0.31874   0.32186   0.32757   0.33382
 Alpha virt. eigenvalues --    0.33620   0.33770   0.34010   0.34097   0.34374
 Alpha virt. eigenvalues --    0.34788   0.35098   0.35172   0.35370   0.35803
 Alpha virt. eigenvalues --    0.35840   0.35971   0.36521   0.36788   0.36871
 Alpha virt. eigenvalues --    0.37077   0.37130   0.37455   0.37847   0.37948
 Alpha virt. eigenvalues --    0.38159   0.38293   0.38655   0.39156   0.39558
 Alpha virt. eigenvalues --    0.39713   0.40139   0.40411   0.40825   0.41658
 Alpha virt. eigenvalues --    0.41732   0.42260   0.42511   0.42638   0.43085
 Alpha virt. eigenvalues --    0.43166   0.43516   0.44033   0.44405   0.44641
 Alpha virt. eigenvalues --    0.44906   0.45476   0.47382   0.47793   0.48116
 Alpha virt. eigenvalues --    0.48526   0.48691   0.48945   0.52897   0.53090
 Alpha virt. eigenvalues --    0.57110   0.58293   0.58769   0.59726   0.60255
 Alpha virt. eigenvalues --    0.61756   0.62165   0.62322   0.62649   0.62764
 Alpha virt. eigenvalues --    0.63090   0.63255   0.63475   0.63957   0.64017
 Alpha virt. eigenvalues --    0.64314   0.64601   0.64744   0.64880   0.65712
 Alpha virt. eigenvalues --    0.65962   0.66156   0.66803   0.67096   0.67398
 Alpha virt. eigenvalues --    0.67905   0.68704   0.69223   0.69609   0.70066
 Alpha virt. eigenvalues --    0.70706   0.71032   0.71447   0.71931   0.72534
 Alpha virt. eigenvalues --    0.73249   0.73678   0.73715   0.74295   0.74584
 Alpha virt. eigenvalues --    0.74889   0.75412   0.76172   0.77260   0.78266
 Alpha virt. eigenvalues --    0.78743   0.79370   0.79898   0.80199   0.80735
 Alpha virt. eigenvalues --    0.81120   0.81295   0.81444   0.81651   0.81987
 Alpha virt. eigenvalues --    0.82495   0.82832   0.82965   0.83628   0.83806
 Alpha virt. eigenvalues --    0.84043   0.84579   0.84825   0.84999   0.85753
 Alpha virt. eigenvalues --    0.86032   0.86595   0.86988   0.87189   0.87994
 Alpha virt. eigenvalues --    0.88708   0.89750   0.90393   0.91441   0.91631
 Alpha virt. eigenvalues --    0.92083   0.92173   0.92546   0.93106   0.93604
 Alpha virt. eigenvalues --    0.93722   0.94167   0.94489   0.95173   0.95451
 Alpha virt. eigenvalues --    0.96076   0.96350   0.96701   0.97079   0.97902
 Alpha virt. eigenvalues --    0.99402   0.99972   1.00464   1.00716   1.01106
 Alpha virt. eigenvalues --    1.01686   1.01987   1.03280   1.03883   1.04941
 Alpha virt. eigenvalues --    1.05655   1.06074   1.06788   1.07263   1.07794
 Alpha virt. eigenvalues --    1.08028   1.08364   1.08763   1.09602   1.10107
 Alpha virt. eigenvalues --    1.11877   1.12318   1.12735   1.13093   1.13400
 Alpha virt. eigenvalues --    1.14023   1.14452   1.14661   1.16042   1.16453
 Alpha virt. eigenvalues --    1.17003   1.17728   1.18274   1.19200   1.19986
 Alpha virt. eigenvalues --    1.21632   1.21934   1.22469   1.23472   1.23829
 Alpha virt. eigenvalues --    1.24281   1.25272   1.26383   1.27377   1.30008
 Alpha virt. eigenvalues --    1.30472   1.38430   1.38866   1.40325   1.41478
 Alpha virt. eigenvalues --    1.41606   1.45777   1.46829   1.48199   1.51341
 Alpha virt. eigenvalues --    1.54303   1.56711   1.57465   1.58402   1.59324
 Alpha virt. eigenvalues --    1.59816   1.59874   1.60240   1.60962   1.61574
 Alpha virt. eigenvalues --    1.61698   1.62251   1.63076   1.63193   1.63785
 Alpha virt. eigenvalues --    1.64137   1.64748   1.65666   1.65729   1.65880
 Alpha virt. eigenvalues --    1.66317   1.66946   1.66992   1.68089   1.68664
 Alpha virt. eigenvalues --    1.70004   1.71182   1.72656   1.73111   1.73758
 Alpha virt. eigenvalues --    1.73911   1.74613   1.75132   1.75246   1.75669
 Alpha virt. eigenvalues --    1.76421   1.76920   1.79241   1.81747   1.82023
 Alpha virt. eigenvalues --    1.82876   1.82933   1.84076   1.84313   1.84548
 Alpha virt. eigenvalues --    1.84921   1.85863   1.86376   1.86538   1.87413
 Alpha virt. eigenvalues --    1.88250   1.88641   1.89751   1.92508   1.92615
 Alpha virt. eigenvalues --    1.92979   1.93458   1.94860   1.96884   1.97887
 Alpha virt. eigenvalues --    1.99259   2.00064   2.00424   2.02008   2.02332
 Alpha virt. eigenvalues --    2.02739   2.02900   2.03311   2.04061   2.04360
 Alpha virt. eigenvalues --    2.04690   2.05090   2.05185   2.05544   2.05990
 Alpha virt. eigenvalues --    2.06156   2.06657   2.07211   2.08026   2.09438
 Alpha virt. eigenvalues --    2.11067   2.11389   2.11501   2.12329   2.12854
 Alpha virt. eigenvalues --    2.13449   2.13834   2.15262   2.15636   2.16918
 Alpha virt. eigenvalues --    2.17524   2.18196   2.18966   2.19821   2.21158
 Alpha virt. eigenvalues --    2.21770   2.23262   2.28441   2.29477   2.33131
 Alpha virt. eigenvalues --    2.34985   2.35803   2.37244   2.37911   2.39597
 Alpha virt. eigenvalues --    2.41246   2.44422   2.44682   2.48490   2.49037
 Alpha virt. eigenvalues --    2.50409   2.52132   2.53171   2.53538   2.54211
 Alpha virt. eigenvalues --    2.55170   2.55275   2.56256   2.56459   2.56877
 Alpha virt. eigenvalues --    2.57504   2.58575   2.58764   2.61979   2.62771
 Alpha virt. eigenvalues --    2.67901   2.72995   2.73092   2.73289   2.74894
 Alpha virt. eigenvalues --    2.75250   2.75996   2.76291   2.76694   2.79510
 Alpha virt. eigenvalues --    2.79648   2.80103   2.80409   2.80564   2.80943
 Alpha virt. eigenvalues --    2.81612   2.81721   2.82410   2.82968   2.83176
 Alpha virt. eigenvalues --    2.83834   2.83943   2.84262   2.85702   2.85786
 Alpha virt. eigenvalues --    2.86869   2.87264   2.87874   2.88607   2.89572
 Alpha virt. eigenvalues --    2.90947   2.91595   2.92455   2.92557   2.92928
 Alpha virt. eigenvalues --    2.93656   2.93945   2.94594   2.94992   2.95271
 Alpha virt. eigenvalues --    2.98445   2.99208   2.99573   3.00868   3.01230
 Alpha virt. eigenvalues --    3.02475   3.03321   3.04655   3.05042   3.05232
 Alpha virt. eigenvalues --    3.05673   3.06944   3.07813   3.08029   3.08956
 Alpha virt. eigenvalues --    3.11629   3.12423   3.16346   3.19042   3.19995
 Alpha virt. eigenvalues --    3.20852   3.22220   3.24246   3.26770   3.30579
 Alpha virt. eigenvalues --    3.32421   3.32715   3.33860   3.34786   3.35944
 Alpha virt. eigenvalues --    3.39829   3.46297   3.47579   3.49031   3.49458
 Alpha virt. eigenvalues --    3.49548   3.50535   3.52941   3.53872   3.60484
 Alpha virt. eigenvalues --    3.61010   3.61202   3.63736   3.64911   3.65568
 Alpha virt. eigenvalues --    3.66691   3.73757   3.74043   3.76306   3.76421
 Alpha virt. eigenvalues --    3.77320   3.78051   3.90959   3.92707   3.96302
 Alpha virt. eigenvalues --    4.09742   4.09968   4.10269   4.14514   4.14584
 Alpha virt. eigenvalues --    4.14708   4.24282   4.24545   4.25502   4.26171
 Alpha virt. eigenvalues --    4.26512   4.26975   4.27656   4.27802   4.47315
 Alpha virt. eigenvalues --    4.63042   4.66959   4.94085   4.95629   4.95759
 Alpha virt. eigenvalues --    4.98562  23.68345  23.81537  23.82395  23.88226
 Alpha virt. eigenvalues --   24.08375  24.08474  24.10837  24.10991  24.11256
 Alpha virt. eigenvalues --   24.11440  24.12891  24.13503  24.20243  24.20461
 Alpha virt. eigenvalues --   24.21000  24.24096  24.24343  24.24370  24.24550
 Alpha virt. eigenvalues --   24.26190  24.31618  24.33838  24.34134  24.35323
          Condensed to atoms (all electrons):
               1          2          3          4          5          6
     1  C   26.621688   0.963281   1.082547  -7.711957   0.314882  -0.142774
     2  C    0.963281  19.263441  -4.842391   4.401025   0.194530  -2.340478
     3  C    1.082547  -4.842391  18.787313  -4.500592   0.229873  -2.299773
     4  C   -7.711957   4.401025  -4.500592  23.169194  -0.317887  -0.107515
     5  H    0.314882   0.194530   0.229873  -0.317887   0.512544  -0.059154
     6  C   -0.142774  -2.340478  -2.299773  -0.107515  -0.059154  12.256363
     7  C   -8.207068  -4.976704   4.090462  -9.552666   0.107328  -0.324506
     8  H    0.317741   0.202731   0.207226   0.108146  -0.004737  -0.038413
     9  C   -5.653369  -1.186405  -1.233102   1.071018   0.011921  -1.469591
    10  C    0.033702  -2.760069  -1.251120  -1.670664  -0.047475   0.998176
    11  C   -1.022331  -0.211546  -0.316875   0.040926  -0.079033   0.302429
    12  C   -0.767886   0.129129  -0.063078   0.126960   0.011964  -0.260209
    13  C    0.367183  -1.402384  -2.651820   0.693052  -0.018767   1.103456
    14  H    0.092521   0.062053   0.063406  -0.044793  -0.002286  -0.010198
    15  C   -0.615283   1.179773  -0.499857  -0.491603  -0.207252   0.264917
    16  C   -0.188865  -1.881775   0.075223  -0.401486   0.101338  -0.089072
    17  C   -0.382882   0.583955   0.244732   0.300448   0.022159  -1.350128
    18  H    0.046298   0.005133  -0.069274  -0.023250  -0.003159   0.066725
    19  C    0.044682  -0.164735   0.468432  -0.128980   0.015351  -1.149861
    20  H    0.011975  -0.003224  -0.007729   0.015718   0.001137   0.013925
    21  C   -0.800366  -0.550030   0.707076   0.163656  -0.005728   0.130494
    22  C    0.268086   0.188071  -0.751665  -0.020871   0.003472   0.028506
    23  C    0.576465   0.889768   0.097436  -0.185034   0.046808  -0.031736
    24  H   -0.086578  -0.027532  -0.049368   0.033705  -0.012269   0.031256
    25  C   -0.219241  -0.090841   0.066233   0.047082   0.005869  -0.064025
    26  H    0.016875  -0.014062  -0.014715   0.127881  -0.002803   0.008983
    27  C   -0.153353  -0.126596  -0.158349  -0.019152  -0.006303  -0.253717
    28  H    0.000107   0.001720   0.006481   0.003373   0.000138   0.027437
    29  H    0.000045  -0.000732   0.004240  -0.001531   0.000004   0.036195
    30  C    0.355772   0.134727   0.621122  -0.173876  -0.001126  -0.116226
    31  H   -0.102798  -0.049500  -0.048173   0.025397  -0.000409   0.028206
    32  C   -0.271127   0.023530  -0.302071   0.434144   0.003703  -0.018251
    33  H    0.017103  -0.014940   0.006753  -0.138695   0.000107   0.008379
    34  C   -0.094895  -0.240564  -0.033409  -0.211872  -0.013071   0.030701
    35  H    0.009302   0.010282   0.001681  -0.001984   0.001091  -0.001807
    36  H   -0.001663  -0.000806   0.000198  -0.007656   0.000586  -0.000569
    37  H   -0.005002  -0.005182  -0.006226   0.000655  -0.000265   0.015059
    38  C   -0.021593  -0.024283  -0.108034  -0.021448  -0.000232   0.030688
    39  H    0.007692   0.001780   0.010978   0.000440  -0.000003  -0.002318
    40  H   -0.002442  -0.000167  -0.004672   0.013026  -0.000014  -0.000533
    41  H   -0.000325  -0.006113  -0.000820  -0.006443  -0.000517   0.000732
    42  H    0.000778  -0.000731  -0.003813   0.000309  -0.000007   0.000886
               7          8          9         10         11         12
     1  C   -8.207068   0.317741  -5.653369   0.033702  -1.022331  -0.767886
     2  C   -4.976704   0.202731  -1.186405  -2.760069  -0.211546   0.129129
     3  C    4.090462   0.207226  -1.233102  -1.251120  -0.316875  -0.063078
     4  C   -9.552666   0.108146   1.071018  -1.670664   0.040926   0.126960
     5  H    0.107328  -0.004737   0.011921  -0.047475  -0.079033   0.011964
     6  C   -0.324506  -0.038413  -1.469591   0.998176   0.302429  -0.260209
     7  C   23.569456  -0.356696   1.891051   0.728430  -0.063034   0.276388
     8  H   -0.356696   0.507935  -0.001164  -0.017165  -0.072673   0.039003
     9  C    1.891051  -0.001164  15.871617  -1.805058  -0.347363   0.100676
    10  C    0.728430  -0.017165  -1.805058  15.362630   0.253275  -0.068820
    11  C   -0.063034  -0.072673  -0.347363   0.253275  14.588130  -5.819198
    12  C    0.276388   0.039003   0.100676  -0.068820  -5.819198  13.400397
    13  C   -2.126168  -0.016291  -1.823839   0.797098   0.207361   0.023440
    14  H   -0.051758  -0.002188   0.258163   0.056425   0.003763  -0.004357
    15  C    0.094825   0.002453  -0.525831  -0.826957  -0.072195   0.142842
    16  C    0.364185  -0.002503   1.477990  -1.839487   0.061529  -0.066809
    17  C    0.078668   0.004123   0.078481   0.039932  -2.312345   0.987512
    18  H   -0.029054  -0.000982  -0.021401   0.015747   0.492480  -0.011035
    19  C    0.170986  -0.001419   0.030040  -0.077866   0.668686  -1.536436
    20  H   -0.006164   0.006085   0.004926   0.015149   0.002253   0.385043
    21  C   -0.575748  -0.240554  -0.534129  -0.000394  -0.040786   0.022614
    22  C    0.228680   0.139993   0.728028   0.143835   0.050592  -0.016480
    23  C   -0.185850  -0.001449  -0.268804  -1.607993  -0.037547   0.020373
    24  H    0.013918  -0.000106  -0.010459  -0.006365   0.013038  -0.001905
    25  C    0.285781   0.002790   0.477775  -1.393839  -0.004766   0.001669
    26  H   -0.117489  -0.000136  -0.059603  -0.038400   0.000114   0.001298
    27  C   -0.025792   0.005276  -0.035164   0.021315  -0.060586  -0.480760
    28  H    0.003313  -0.000028   0.000884  -0.000317  -0.093060   0.009352
    29  H    0.001660  -0.001153  -0.000300  -0.000951   0.012170  -0.098368
    30  C    0.155567   0.005566  -0.101404  -0.020438  -0.008700  -0.014272
    31  H    0.045249  -0.010618  -0.006532   0.012071   0.008599   0.004061
    32  C   -0.422095   0.009543   0.701253  -0.119005  -0.014649   0.016684
    33  H    0.148482  -0.002032  -0.074102   0.013014   0.001771  -0.000606
    34  C    0.021736   0.000046   0.057340  -0.221293   0.001556   0.001290
    35  H    0.001495  -0.000032   0.000962   0.027943  -0.000455   0.000171
    36  H    0.010355  -0.000009   0.013067   0.021298  -0.000092   0.000044
    37  H    0.000419   0.000149  -0.000865   0.000727   0.013872   0.008619
    38  C   -0.152737  -0.013756  -0.096499   0.039313   0.005210  -0.004835
    39  H    0.001452   0.000966   0.001960  -0.000968  -0.000396   0.000256
    40  H   -0.012981   0.000578   0.018366  -0.004013  -0.000233   0.000200
    41  H    0.001185  -0.000007  -0.002844   0.024505   0.000120  -0.000023
    42  H   -0.005971  -0.000408  -0.006078   0.001107   0.000180  -0.000154
              13         14         15         16         17         18
     1  C    0.367183   0.092521  -0.615283  -0.188865  -0.382882   0.046298
     2  C   -1.402384   0.062053   1.179773  -1.881775   0.583955   0.005133
     3  C   -2.651820   0.063406  -0.499857   0.075223   0.244732  -0.069274
     4  C    0.693052  -0.044793  -0.491603  -0.401486   0.300448  -0.023250
     5  H   -0.018767  -0.002286  -0.207252   0.101338   0.022159  -0.003159
     6  C    1.103456  -0.010198   0.264917  -0.089072  -1.350128   0.066725
     7  C   -2.126168  -0.051758   0.094825   0.364185   0.078668  -0.029054
     8  H   -0.016291  -0.002188   0.002453  -0.002503   0.004123  -0.000982
     9  C   -1.823839   0.258163  -0.525831   1.477990   0.078481  -0.021401
    10  C    0.797098   0.056425  -0.826957  -1.839487   0.039932   0.015747
    11  C    0.207361   0.003763  -0.072195   0.061529  -2.312345   0.492480
    12  C    0.023440  -0.004357   0.142842  -0.066809   0.987512  -0.011035
    13  C   15.505780   0.046446  -0.091028   0.240548  -0.003731   0.010870
    14  H    0.046446   0.501685   0.099719  -0.185472  -0.003487   0.000643
    15  C   -0.091028   0.099719  18.284120 -10.245897  -0.074021   0.014608
    16  C    0.240548  -0.185472 -10.245897  19.515925   0.046720  -0.011653
    17  C   -0.003731  -0.003487  -0.074021   0.046720   8.431557  -0.199353
    18  H    0.010870   0.000643   0.014608  -0.011653  -0.199353   0.473955
    19  C   -0.128249   0.003618  -0.000823  -0.001839  -0.806377   0.026493
    20  H    0.025301  -0.000828  -0.008028   0.004598   0.026511  -0.002390
    21  C   -0.370175   0.090165   0.059273  -0.052911  -0.007785   0.002778
    22  C   -2.557652  -0.162255  -0.043698   0.075755   0.012125  -0.002440
    23  C   -0.001797   0.009478  -1.254687   0.632408   0.003747  -0.002942
    24  H    0.010682  -0.000925   0.571439  -0.072965  -0.002172   0.000882
    25  C   -0.128547  -0.010776   0.801734  -1.197490  -0.002650  -0.000193
    26  H    0.017575  -0.001844  -0.082430   0.506600  -0.000099   0.000146
    27  C    0.040037   0.000095   0.008163  -0.003843   0.375465   0.003838
    28  H   -0.000578  -0.000058  -0.000796   0.000640   0.426411  -0.011493
    29  H   -0.003093   0.000027   0.000368  -0.000077  -0.005746   0.000586
    30  C   -1.570916   0.001100  -0.001969   0.015034   0.010261  -0.001534
    31  H   -0.024264  -0.000908   0.002805  -0.002609  -0.000931   0.000402
    32  C   -1.180790  -0.004161  -0.010176   0.001011  -0.003289  -0.000247
    33  H   -0.035228  -0.002946   0.001360   0.014854   0.000660  -0.000026
    34  C    0.035476  -0.003029  -0.213996  -0.233042   0.000291   0.000397
    35  H   -0.000757   0.000167  -0.113683   0.023104   0.000009  -0.000039
    36  H   -0.004153  -0.000835   0.015745  -0.091520  -0.000007  -0.000010
    37  H    0.001278  -0.000007   0.000055  -0.000022  -0.069152   0.000595
    38  C   -0.242199   0.000248   0.006821  -0.020107   0.000295   0.000249
    39  H    0.031971   0.000167  -0.000239   0.000467   0.000011  -0.000015
    40  H    0.020794  -0.000775  -0.000802   0.002572  -0.000014  -0.000006
    41  H    0.001138   0.000166   0.004875  -0.001694   0.000009   0.000018
    42  H    0.023300   0.000125   0.000174  -0.000527   0.000012   0.000005
              19         20         21         22         23         24
     1  C    0.044682   0.011975  -0.800366   0.268086   0.576465  -0.086578
     2  C   -0.164735  -0.003224  -0.550030   0.188071   0.889768  -0.027532
     3  C    0.468432  -0.007729   0.707076  -0.751665   0.097436  -0.049368
     4  C   -0.128980   0.015718   0.163656  -0.020871  -0.185034   0.033705
     5  H    0.015351   0.001137  -0.005728   0.003472   0.046808  -0.012269
     6  C   -1.149861   0.013925   0.130494   0.028506  -0.031736   0.031256
     7  C    0.170986  -0.006164  -0.575748   0.228680  -0.185850   0.013918
     8  H   -0.001419   0.006085  -0.240554   0.139993  -0.001449  -0.000106
     9  C    0.030040   0.004926  -0.534129   0.728028  -0.268804  -0.010459
    10  C   -0.077866   0.015149  -0.000394   0.143835  -1.607993  -0.006365
    11  C    0.668686   0.002253  -0.040786   0.050592  -0.037547   0.013038
    12  C   -1.536436   0.385043   0.022614  -0.016480   0.020373  -0.001905
    13  C   -0.128249   0.025301  -0.370175  -2.557652  -0.001797   0.010682
    14  H    0.003618  -0.000828   0.090165  -0.162255   0.009478  -0.000925
    15  C   -0.000823  -0.008028   0.059273  -0.043698  -1.254687   0.571439
    16  C   -0.001839   0.004598  -0.052911   0.075755   0.632408  -0.072965
    17  C   -0.806377   0.026511  -0.007785   0.012125   0.003747  -0.002172
    18  H    0.026493  -0.002390   0.002778  -0.002440  -0.002942   0.000882
    19  C    8.094807  -0.142567   0.053695  -0.024756  -0.002689  -0.004671
    20  H   -0.142567   0.473503  -0.023497   0.012447  -0.001792  -0.000206
    21  C    0.053695  -0.023497  19.245911 -10.796033   0.001413   0.004760
    22  C   -0.024756   0.012447 -10.796033  19.502802   0.008031  -0.004564
    23  C   -0.002689  -0.001792   0.001413   0.008031   7.912315  -0.114858
    24  H   -0.004671  -0.000206   0.004760  -0.004564  -0.114858   0.484528
    25  C    0.002332  -0.000149  -0.005152  -0.006770  -0.681652  -0.000099
    26  H   -0.000033   0.000106   0.003249   0.005851  -0.005847   0.000029
    27  C    0.535589  -0.004607  -0.021489   0.008021  -0.001190   0.001684
    28  H    0.000617   0.000370   0.000519  -0.000141   0.000120  -0.000043
    29  H    0.427418  -0.011333   0.002571  -0.000700   0.000097  -0.000031
    30  C   -0.017110  -0.001050  -1.441204   0.825453  -0.000881   0.000413
    31  H   -0.000313  -0.001428   0.595425  -0.107974   0.000161   0.000282
    32  C    0.006089  -0.000711   1.061043  -1.334738   0.005659  -0.001507
    33  H   -0.000725   0.000137  -0.086730   0.518233   0.000927   0.000105
    34  C   -0.001256   0.000070   0.005493  -0.016383   0.305607   0.024589
    35  H    0.000238   0.000001  -0.000251   0.000514   0.433350  -0.011122
    36  H    0.000002  -0.000001  -0.000727   0.002477   0.009235  -0.000237
    37  H   -0.067105   0.000942  -0.000636   0.000218  -0.000037   0.000048
    38  C   -0.002611   0.000085  -0.268611  -0.318635   0.000143   0.000206
    39  H    0.000184   0.000052  -0.122198   0.024885   0.000003  -0.000012
    40  H    0.000038  -0.000007   0.017644  -0.088893  -0.000031  -0.000009
    41  H   -0.000023   0.000003   0.000190  -0.000562  -0.073907   0.001233
    42  H   -0.000071   0.000012  -0.001971   0.004946   0.000006   0.000005
              25         26         27         28         29         30
     1  C   -0.219241   0.016875  -0.153353   0.000107   0.000045   0.355772
     2  C   -0.090841  -0.014062  -0.126596   0.001720  -0.000732   0.134727
     3  C    0.066233  -0.014715  -0.158349   0.006481   0.004240   0.621122
     4  C    0.047082   0.127881  -0.019152   0.003373  -0.001531  -0.173876
     5  H    0.005869  -0.002803  -0.006303   0.000138   0.000004  -0.001126
     6  C   -0.064025   0.008983  -0.253717   0.027437   0.036195  -0.116226
     7  C    0.285781  -0.117489  -0.025792   0.003313   0.001660   0.155567
     8  H    0.002790  -0.000136   0.005276  -0.000028  -0.001153   0.005566
     9  C    0.477775  -0.059603  -0.035164   0.000884  -0.000300  -0.101404
    10  C   -1.393839  -0.038400   0.021315  -0.000317  -0.000951  -0.020438
    11  C   -0.004766   0.000114  -0.060586  -0.093060   0.012170  -0.008700
    12  C    0.001669   0.001298  -0.480760   0.009352  -0.098368  -0.014272
    13  C   -0.128547   0.017575   0.040037  -0.000578  -0.003093  -1.570916
    14  H   -0.010776  -0.001844   0.000095  -0.000058   0.000027   0.001100
    15  C    0.801734  -0.082430   0.008163  -0.000796   0.000368  -0.001969
    16  C   -1.197490   0.506600  -0.003843   0.000640  -0.000077   0.015034
    17  C   -0.002650  -0.000099   0.375465   0.426411  -0.005746   0.010261
    18  H   -0.000193   0.000146   0.003838  -0.011493   0.000586  -0.001534
    19  C    0.002332  -0.000033   0.535589   0.000617   0.427418  -0.017110
    20  H   -0.000149   0.000106  -0.004607   0.000370  -0.011333  -0.001050
    21  C   -0.005152   0.003249  -0.021489   0.000519   0.002571  -1.441204
    22  C   -0.006770   0.005851   0.008021  -0.000141  -0.000700   0.825453
    23  C   -0.681652  -0.005847  -0.001190   0.000120   0.000097  -0.000881
    24  H   -0.000099   0.000029   0.001684  -0.000043  -0.000031   0.000413
    25  C    7.749419  -0.047264  -0.000339  -0.000029  -0.000009   0.005390
    26  H   -0.047264   0.498058   0.000033   0.000010  -0.000002   0.000521
    27  C   -0.000339   0.000033   6.345959  -0.057072  -0.051283  -0.004013
    28  H   -0.000029   0.000010  -0.057072   0.474976   0.000030   0.000080
    29  H   -0.000009  -0.000002  -0.051283   0.000030   0.476936   0.000134
    30  C    0.005390   0.000521  -0.004013   0.000080   0.000134   7.904846
    31  H   -0.001002   0.000172   0.000568   0.000012   0.000113  -0.086640
    32  C   -0.015400   0.001770  -0.000254   0.000009   0.000026  -0.796418
    33  H   -0.004884  -0.005405   0.000105   0.000006  -0.000002  -0.004600
    34  C    0.432323   0.019369   0.000241   0.000003   0.000005   0.000079
    35  H    0.006544  -0.000283  -0.000047   0.000002   0.000001  -0.000008
    36  H    0.417271  -0.011135   0.000001  -0.000001  -0.000000  -0.000009
    37  H   -0.000008   0.000002   0.448412  -0.008794  -0.009373  -0.000115
    38  C   -0.004814  -0.001228   0.000049   0.000003   0.000020   0.391804
    39  H    0.000045   0.000044  -0.000001  -0.000001  -0.000006   0.432973
    40  H    0.000702   0.000597  -0.000003  -0.000000  -0.000000   0.010558
    41  H   -0.065875   0.001481   0.000006  -0.000000   0.000000   0.000005
    42  H   -0.000145  -0.000048   0.000007  -0.000000  -0.000000  -0.072732
              31         32         33         34         35         36
     1  C   -0.102798  -0.271127   0.017103  -0.094895   0.009302  -0.001663
     2  C   -0.049500   0.023530  -0.014940  -0.240564   0.010282  -0.000806
     3  C   -0.048173  -0.302071   0.006753  -0.033409   0.001681   0.000198
     4  C    0.025397   0.434144  -0.138695  -0.211872  -0.001984  -0.007656
     5  H   -0.000409   0.003703   0.000107  -0.013071   0.001091   0.000586
     6  C    0.028206  -0.018251   0.008379   0.030701  -0.001807  -0.000569
     7  C    0.045249  -0.422095   0.148482   0.021736   0.001495   0.010355
     8  H   -0.010618   0.009543  -0.002032   0.000046  -0.000032  -0.000009
     9  C   -0.006532   0.701253  -0.074102   0.057340   0.000962   0.013067
    10  C    0.012071  -0.119005   0.013014  -0.221293   0.027943   0.021298
    11  C    0.008599  -0.014649   0.001771   0.001556  -0.000455  -0.000092
    12  C    0.004061   0.016684  -0.000606   0.001290   0.000171   0.000044
    13  C   -0.024264  -1.180790  -0.035228   0.035476  -0.000757  -0.004153
    14  H   -0.000908  -0.004161  -0.002946  -0.003029   0.000167  -0.000835
    15  C    0.002805  -0.010176   0.001360  -0.213996  -0.113683   0.015745
    16  C   -0.002609   0.001011   0.014854  -0.233042   0.023104  -0.091520
    17  C   -0.000931  -0.003289   0.000660   0.000291   0.000009  -0.000007
    18  H    0.000402  -0.000247  -0.000026   0.000397  -0.000039  -0.000010
    19  C   -0.000313   0.006089  -0.000725  -0.001256   0.000238   0.000002
    20  H   -0.001428  -0.000711   0.000137   0.000070   0.000001  -0.000001
    21  C    0.595425   1.061043  -0.086730   0.005493  -0.000251  -0.000727
    22  C   -0.107974  -1.334738   0.518233  -0.016383   0.000514   0.002477
    23  C    0.000161   0.005659   0.000927   0.305607   0.433350   0.009235
    24  H    0.000282  -0.001507   0.000105   0.024589  -0.011122  -0.000237
    25  C   -0.001002  -0.015400  -0.004884   0.432323   0.006544   0.417271
    26  H    0.000172   0.001770  -0.005405   0.019369  -0.000283  -0.011135
    27  C    0.000568  -0.000254   0.000105   0.000241  -0.000047   0.000001
    28  H    0.000012   0.000009   0.000006   0.000003   0.000002  -0.000001
    29  H    0.000113   0.000026  -0.000002   0.000005   0.000001  -0.000000
    30  C   -0.086640  -0.796418  -0.004600   0.000079  -0.000008  -0.000009
    31  H    0.487526   0.005335  -0.000242   0.000197  -0.000011  -0.000012
    32  C    0.005335   7.858201  -0.071395  -0.004276   0.000067   0.000407
    33  H   -0.000242  -0.071395   0.499598  -0.000693   0.000041   0.000496
    34  C    0.000197  -0.004276  -0.000693   6.411850  -0.070211  -0.059937
    35  H   -0.000011   0.000067   0.000041  -0.070211   0.475240   0.000964
    36  H   -0.000012   0.000407   0.000496  -0.059937   0.000964   0.474354
    37  H    0.000009  -0.000003   0.000003   0.000008  -0.000002  -0.000000
    38  C    0.029652   0.464408   0.023171  -0.000213   0.000000   0.000087
    39  H   -0.012355   0.005121  -0.000426  -0.000002   0.000000  -0.000001
    40  H   -0.000235   0.418697  -0.012106   0.000093  -0.000001  -0.000046
    41  H    0.000006  -0.000127  -0.000029   0.462703  -0.010759  -0.011084
    42  H    0.001391  -0.071041   0.001987  -0.000001  -0.000000   0.000001
              37         38         39         40         41         42
     1  C   -0.005002  -0.021593   0.007692  -0.002442  -0.000325   0.000778
     2  C   -0.005182  -0.024283   0.001780  -0.000167  -0.006113  -0.000731
     3  C   -0.006226  -0.108034   0.010978  -0.004672  -0.000820  -0.003813
     4  C    0.000655  -0.021448   0.000440   0.013026  -0.006443   0.000309
     5  H   -0.000265  -0.000232  -0.000003  -0.000014  -0.000517  -0.000007
     6  C    0.015059   0.030688  -0.002318  -0.000533   0.000732   0.000886
     7  C    0.000419  -0.152737   0.001452  -0.012981   0.001185  -0.005971
     8  H    0.000149  -0.013756   0.000966   0.000578  -0.000007  -0.000408
     9  C   -0.000865  -0.096499   0.001960   0.018366  -0.002844  -0.006078
    10  C    0.000727   0.039313  -0.000968  -0.004013   0.024505   0.001107
    11  C    0.013872   0.005210  -0.000396  -0.000233   0.000120   0.000180
    12  C    0.008619  -0.004835   0.000256   0.000200  -0.000023  -0.000154
    13  C    0.001278  -0.242199   0.031971   0.020794   0.001138   0.023300
    14  H   -0.000007   0.000248   0.000167  -0.000775   0.000166   0.000125
    15  C    0.000055   0.006821  -0.000239  -0.000802   0.004875   0.000174
    16  C   -0.000022  -0.020107   0.000467   0.002572  -0.001694  -0.000527
    17  C   -0.069152   0.000295   0.000011  -0.000014   0.000009   0.000012
    18  H    0.000595   0.000249  -0.000015  -0.000006   0.000018   0.000005
    19  C   -0.067105  -0.002611   0.000184   0.000038  -0.000023  -0.000071
    20  H    0.000942   0.000085   0.000052  -0.000007   0.000003   0.000012
    21  C   -0.000636  -0.268611  -0.122198   0.017644   0.000190  -0.001971
    22  C    0.000218  -0.318635   0.024885  -0.088893  -0.000562   0.004946
    23  C   -0.000037   0.000143   0.000003  -0.000031  -0.073907   0.000006
    24  H    0.000048   0.000206  -0.000012  -0.000009   0.001233   0.000005
    25  C   -0.000008  -0.004814   0.000045   0.000702  -0.065875  -0.000145
    26  H    0.000002  -0.001228   0.000044   0.000597   0.001481  -0.000048
    27  C    0.448412   0.000049  -0.000001  -0.000003   0.000006   0.000007
    28  H   -0.008794   0.000003  -0.000001  -0.000000  -0.000000  -0.000000
    29  H   -0.009373   0.000020  -0.000006  -0.000000   0.000000  -0.000000
    30  C   -0.000115   0.391804   0.432973   0.010558   0.000005  -0.072732
    31  H    0.000009   0.029652  -0.012355  -0.000235   0.000006   0.001391
    32  C   -0.000003   0.464408   0.005121   0.418697  -0.000127  -0.071041
    33  H    0.000003   0.023171  -0.000426  -0.012106  -0.000029   0.001987
    34  C    0.000008  -0.000213  -0.000002   0.000093   0.462703  -0.000001
    35  H   -0.000002   0.000000   0.000000  -0.000001  -0.010759  -0.000000
    36  H   -0.000000   0.000087  -0.000001  -0.000046  -0.011084   0.000001
    37  H    0.483392   0.000003  -0.000001  -0.000000   0.000000   0.000000
    38  C    0.000003   6.380635  -0.068558  -0.063416  -0.000001   0.467851
    39  H   -0.000001  -0.068558   0.476022   0.001074  -0.000000  -0.011315
    40  H   -0.000000  -0.063416   0.001074   0.475316   0.000001  -0.011980
    41  H    0.000000  -0.000001  -0.000000   0.000001   0.486550   0.000000
    42  H    0.000000   0.467851  -0.011315  -0.011980   0.000000   0.488234
 Mulliken charges:
               1
     1  C    1.303074
     2  C   -1.313138
     3  C   -1.554485
     4  C    0.963799
     5  H    0.197697
     6  C    0.747339
     7  C    0.901412
     8  H    0.224166
     9  C   -1.531613
    10  C    1.172965
    11  C   -0.150194
    12  C   -0.494755
    13  C    1.179642
    14  H    0.203707
    15  C   -0.174816
    16  C   -0.568837
    17  C   -0.449927
    18  H    0.227649
    19  C   -0.288782
    20  H    0.215362
    21  C   -0.220864
    22  C   -0.525812
    23  C   -0.492826
    24  H    0.215203
    25  C   -0.357000
    26  H    0.192063
    27  C   -0.330952
    28  H    0.215797
    29  H    0.222047
    30  C   -0.436165
    31  H    0.209317
    32  C   -0.374972
    33  H    0.198520
    34  C   -0.393322
    35  H    0.218284
    36  H    0.223920
    37  H    0.198328
    38  C   -0.407130
    39  H    0.220273
    40  H    0.223122
    41  H    0.196228
    42  H    0.195678
 Sum of Mulliken charges =  -0.00000
 Mulliken charges with hydrogens summed into heavy atoms:
               1
     1  C    1.303074
     2  C   -1.115442
     3  C   -1.330318
     4  C    0.963799
     6  C    0.747339
     7  C    0.901412
     9  C   -1.327906
    10  C    1.172965
    11  C    0.077455
    12  C   -0.279393
    13  C    1.179642
    15  C    0.040386
    16  C   -0.376774
    17  C   -0.234130
    19  C   -0.066735
    21  C   -0.011547
    22  C   -0.327292
    23  C   -0.274543
    25  C   -0.133079
    27  C   -0.132624
    30  C   -0.215891
    32  C   -0.151850
    34  C   -0.197095
    38  C   -0.211452
 Electronic spatial extent (au):  <R**2>=          10005.9489
 Charge=             -0.0000 electrons
 Dipole moment (field-independent basis, Debye):
    X=              0.0238    Y=             -0.0049    Z=             -0.0030  Tot=              0.0245
 Quadrupole moment (field-independent basis, Debye-Ang):
   XX=           -126.5939   YY=           -130.3761   ZZ=           -137.4423
   XY=              0.0911   XZ=             -6.3685   YZ=             -1.6439
 Traceless Quadrupole moment (field-independent basis, Debye-Ang):
   XX=              4.8769   YY=              1.0946   ZZ=             -5.9715
   XY=              0.0911   XZ=             -6.3685   YZ=             -1.6439
 Octapole moment (field-independent basis, Debye-Ang**2):
  XXX=             33.7379  YYY=              1.5975  ZZZ=              2.0609  XYY=            -53.3495
  XXY=             -0.2042  XXZ=             31.5788  XZZ=             19.2469  YZZ=             -1.3798
  YYZ=            -33.8522  XYZ=             -9.2939
 Hexadecapole moment (field-independent basis, Debye-Ang**3):
 XXXX=          -6268.0274 YYYY=          -6150.6566 ZZZZ=           -622.5544 XXXY=              5.2970
 XXXZ=           -115.6560 YYYX=              1.1096 YYYZ=              9.9440 ZZZX=             -9.9029
 ZZZY=            -12.8623 XXYY=          -2149.1678 XXZZ=          -1169.8703 YYZZ=          -1236.7255
 XXYZ=            -39.9499 YYXZ=            -37.5526 ZZXY=             -3.8566
 N-N= 1.730708974609D+03 E-N=-5.607923047140D+03  KE= 9.212946875955D+02
 No NMR shielding tensors so no spin-rotation constants.
 Leave Link  601 at Mon Nov 14 15:04:27 2022, MaxMem= 16106127360 cpu:               9.3 elap:               0.4
 (Enter /opt/ap/G16/B01/g16/l9999.exe)
 1\1\GINC-N62\SP\RwB97XD\6-311++G(d,p)\C24H18\ROOT\14-Nov-2022\0\\#P wB
 97XD/6-311++G(d,p) scf=maxcycle=512\\_conf003.gjf nmol_natom 1_42\\0,1
 \C\C,1,1.39412829\C,1,1.39435449,2,118.86443127\C,2,1.39416084,1,121.1
 529487,3,0.03668482,0\H,2,1.08488355,1,119.42236619,3,-179.97409048,0\
 C,1,1.48467131,2,120.55714816,4,179.25839056,0\C,3,1.39437784,1,121.11
 776116,2,-0.05351271,0\H,3,1.08487775,1,119.41869036,2,177.23008049,0\
 C,4,1.39432447,2,118.86473838,1,0.01008406,0\C,4,1.48466627,2,120.5464
 188,1,179.19454736,0\C,6,1.3968498,1,120.7843492,2,-75.,0\C,6,1.396868
 2,1,120.67653841,2,105.,0\C,7,1.48449863,3,120.56496838,1,-179.9632580
 4,0\H,9,1.0848792,4,119.41824946,2,177.22245984,0\C,10,1.39685361,4,12
 0.76946845,2,-42.52368674,0\C,10,1.39686289,4,120.69448769,2,137.43107
 516,0\C,11,1.38888939,6,120.7380073,1,179.94058542,0\H,11,1.0847641,6,
 119.46912378,1,-1.41050605,0\C,12,1.38882428,6,120.76493111,1,-179.950
 82712,0\H,12,1.08482758,6,119.44182626,1,-1.23602505,0\C,13,1.39682899
 ,7,120.74134419,3,42.89023273,0\C,13,1.39683158,7,120.7379111,3,-137.1
 2494058,0\C,15,1.38888263,10,120.742191,4,179.9460119,0\H,15,1.0847633
 4,10,119.47085903,4,-1.40606944,0\C,16,1.38886088,10,120.76338989,4,-1
 79.95592713,0\H,16,1.08483431,10,119.44215232,4,-1.23439681,0\C,17,1.3
 9007919,11,120.20743432,6,0.00349958,0\H,17,1.0843506,11,119.71318733,
 6,179.5011609,0\H,19,1.08435858,12,119.73823132,6,179.53683762,0\C,21,
 1.38882373,13,120.76699356,7,179.99297883,0\H,21,1.0847938,13,119.4352
 623,7,1.32183327,0\C,22,1.38881869,13,120.76647403,7,-179.97118338,0\H
 ,22,1.08479982,13,119.43203605,7,1.34657928,0\C,23,1.39007007,15,120.2
 0732995,10,0.00573957,0\H,23,1.08434813,15,119.71220819,10,179.5072436
 8,0\H,25,1.08436328,16,119.73539424,10,179.53636455,0\H,27,1.08412515,
 17,120.21790854,11,179.98397203,0\C,30,1.39008059,21,120.18795226,13,-
 0.02169059,0\H,30,1.08435324,21,119.73787119,13,-179.52151214,0\H,32,1
 .0843543,22,119.737043,13,-179.52886928,0\H,34,1.08412314,23,120.22152
 803,15,179.98800213,0\H,38,1.08411439,30,120.21547163,21,-179.98600656
 ,0\\Version=ES64L-G16RevB.01\State=1-A\HF=-925.3095891\RMSD=3.927e-09\
 Dipole=-0.0090053,0.0014419,-0.0031241\Quadrupole=2.6733711,-4.137116,
 1.4637449,-3.6244571,1.1169264,-3.6179482\PG=C01 [X(C24H18)]\\@


 Other things may change us, but we start and end with family.
 -- Anthony Brandt
 Job cpu time:       0 days  1 hours 22 minutes 49.8 seconds.
 Elapsed time:       0 days  0 hours  2 minutes 36.0 seconds.
 File lengths (MBytes):  RWF=    224 Int=      0 D2E=      0 Chk=     26 Scr=      1
 Normal termination of Gaussian 16 at Mon Nov 14 15:04:27 2022.
