 Entering Gaussian System, Link 0=g16
 Input=_conf020.gjf
 Output=_conf020.log
 Initial command:
 /opt/ap/G16/B01/g16/l1.exe "/tmp2/scr/Gau-21627.inp" -scrdir="/tmp2/scr/"
 Entering Link 1 = /opt/ap/G16/B01/g16/l1.exe PID=     21628.
  
 Copyright (c) 1988-2017, Gaussian, Inc.  All Rights Reserved.
  
 This is part of the Gaussian(R) 16 program.  It is based on
 the Gaussian(R) 09 system (copyright 2009, Gaussian, Inc.),
 the Gaussian(R) 03 system (copyright 2003, Gaussian, Inc.),
 the Gaussian(R) 98 system (copyright 1998, Gaussian, Inc.),
 the Gaussian(R) 94 system (copyright 1995, Gaussian, Inc.),
 the Gaussian 92(TM) system (copyright 1992, Gaussian, Inc.),
 the Gaussian 90(TM) system (copyright 1990, Gaussian, Inc.),
 the Gaussian 88(TM) system (copyright 1988, Gaussian, Inc.),
 the Gaussian 86(TM) system (copyright 1986, Carnegie Mellon
 University), and the Gaussian 82(TM) system (copyright 1983,
 Carnegie Mellon University). Gaussian is a federally registered
 trademark of Gaussian, Inc.
  
 This software contains proprietary and confidential information,
 including trade secrets, belonging to Gaussian, Inc.
  
 This software is provided under written license and may be
 used, copied, transmitted, or stored only in accord with that
 written license.
  
 The following legend is applicable only to US Government
 contracts under FAR:
  
                    RESTRICTED RIGHTS LEGEND
  
 Use, reproduction and disclosure by the US Government is
 subject to restrictions as set forth in subparagraphs (a)
 and (c) of the Commercial Computer Software - Restricted
 Rights clause in FAR 52.227-19.
  
 Gaussian, Inc.
 340 Quinnipiac St., Bldg. 40, Wallingford CT 06492
  
  
 ---------------------------------------------------------------
 Warning -- This program may not be used in any manner that
 competes with the business of Gaussian, Inc. or will provide
 assistance to any competitor of Gaussian, Inc.  The licensee
 of this program is prohibited from giving any competitor of
 Gaussian, Inc. access to this program.  By using this program,
 the user acknowledges that Gaussian, Inc. is engaged in the
 business of creating and licensing software in the field of
 computational chemistry and represents and warrants to the
 licensee that it is not a competitor of Gaussian, Inc. and that
 it will not use this program in any manner prohibited above.
 ---------------------------------------------------------------
  

 Cite this work as:
 Gaussian 16, Revision B.01,
 M. J. Frisch, G. W. Trucks, H. B. Schlegel, G. E. Scuseria, 
 M. A. Robb, J. R. Cheeseman, G. Scalmani, V. Barone, 
 G. A. Petersson, H. Nakatsuji, X. Li, M. Caricato, A. V. Marenich, 
 J. Bloino, B. G. Janesko, R. Gomperts, B. Mennucci, H. P. Hratchian, 
 J. V. Ortiz, A. F. Izmaylov, J. L. Sonnenberg, D. Williams-Young, 
 F. Ding, F. Lipparini, F. Egidi, J. Goings, B. Peng, A. Petrone, 
 T. Henderson, D. Ranasinghe, V. G. Zakrzewski, J. Gao, N. Rega, 
 G. Zheng, W. Liang, M. Hada, M. Ehara, K. Toyota, R. Fukuda, 
 J. Hasegawa, M. Ishida, T. Nakajima, Y. Honda, O. Kitao, H. Nakai, 
 T. Vreven, K. Throssell, J. A. Montgomery, Jr., J. E. Peralta, 
 F. Ogliaro, M. J. Bearpark, J. J. Heyd, E. N. Brothers, K. N. Kudin, 
 V. N. Staroverov, T. A. Keith, R. Kobayashi, J. Normand, 
 K. Raghavachari, A. P. Rendell, J. C. Burant, S. S. Iyengar, 
 J. Tomasi, M. Cossi, J. M. Millam, M. Klene, C. Adamo, R. Cammi, 
 J. W. Ochterski, R. L. Martin, K. Morokuma, O. Farkas, 
 J. B. Foresman, and D. J. Fox, Gaussian, Inc., Wallingford CT, 2016.
 
 ******************************************
 Gaussian 16:  ES64L-G16RevB.01 20-Dec-2017
                14-Nov-2022 
 ******************************************
 %nprocshared=32
 Will use up to   32 processors via shared memory.
 %mem=120GB
 %chk=_conf020.chk
 ----------------------------------------
 #P wB97XD/6-311++G(d,p) scf=maxcycle=512
 ----------------------------------------
 1/38=1,172=1/1;
 2/12=2,17=6,18=5,40=1/2;
 3/5=4,6=6,7=1111,11=2,25=1,30=1,74=-58/1,2,3;
 4//1;
 5/5=2,7=512,38=5/2;
 6/7=2,8=2,9=2,10=2,28=1/1;
 99/5=1,9=1/99;
 Leave Link    1 at Mon Nov 14 15:14:34 2022, MaxMem= 16106127360 cpu:               2.2 elap:               0.1
 (Enter /opt/ap/G16/B01/g16/l101.exe)
 ----------------------------
 _conf020.gjf nmol_natom 1_42
 ----------------------------
 Symbolic Z-matrix:
 Charge =  0 Multiplicity = 1
 C
 C                    1     1.39413 
 C                    1     1.39435  2     118.86443 
 C                    2     1.39416  1     121.15295  3     0.03668  0
 H                    2     1.08488  1     119.42237  3    -179.97409  0
 C                    1     1.48467  2     120.55715  4     179.25839  0
 C                    3     1.39438  1     121.11776  2    -0.05351  0
 H                    3     1.08488  1     119.41869  2     177.23008  0
 C                    4     1.39432  2     118.86474  1     0.01008  0
 C                    4     1.48467  2     120.54642  1     179.19455  0
 C                    6     1.39685  1     120.78435  2     10.      0
 C                    6     1.39687  1     120.67654  2    -170.     0
 C                    7     1.4845   3     120.56497  1    -179.96326  0
 H                    9     1.08488  4     119.41825  2     177.22246  0
 C                    10    1.39685  4     120.76947  2    -42.52369  0
 C                    10    1.39686  4     120.69449  2     137.43108  0
 C                    11    1.38889  6     120.73801  1     179.94059  0
 H                    11    1.08476  6     119.46912  1    -1.41051  0
 C                    12    1.38882  6     120.76493  1    -179.95083  0
 H                    12    1.08483  6     119.44183  1    -1.23603  0
 C                    13    1.39683  7     120.74134  3     42.89023  0
 C                    13    1.39683  7     120.73791  3    -137.12494  0
 C                    15    1.38888  10    120.74219  4     179.94601  0
 H                    15    1.08476  10    119.47086  4    -1.40607  0
 C                    16    1.38886  10    120.76339  4    -179.95593  0
 H                    16    1.08483  10    119.44215  4    -1.2344   0
 C                    17    1.39008  11    120.20743  6     0.0035   0
 H                    17    1.08435  11    119.71319  6     179.50116  0
 H                    19    1.08436  12    119.73823  6     179.53684  0
 C                    21    1.38882  13    120.76699  7     179.99298  0
 H                    21    1.08479  13    119.43526  7     1.32183  0
 C                    22    1.38882  13    120.76647  7    -179.97118  0
 H                    22    1.0848   13    119.43204  7     1.34658  0
 C                    23    1.39007  15    120.20733  10    0.00574  0
 H                    23    1.08435  15    119.71221  10    179.50724  0
 H                    25    1.08436  16    119.73539  10    179.53636  0
 H                    27    1.08413  17    120.21791  11    179.98397  0
 C                    30    1.39008  21    120.18795  13   -0.02169  0
 H                    30    1.08435  21    119.73787  13   -179.52151  0
 H                    32    1.08435  22    119.73704  13   -179.52887  0
 H                    34    1.08412  23    120.22153  15    179.988  0
 H                    38    1.08411  30    120.21547  21   -179.98601  0
 
 ITRead=  0  0  0  0  0  0  0  0  0  0  0  0  0  0  0  0  0  0  0  0
 ITRead=  0  0  0  0  0  0  0  0  0  0  0  0  0  0  0  0  0  0  0  0
 ITRead=  0  0
 MicOpt= -1 -1 -1 -1 -1 -1 -1 -1 -1 -1 -1 -1 -1 -1 -1 -1 -1 -1 -1 -1
 MicOpt= -1 -1 -1 -1 -1 -1 -1 -1 -1 -1 -1 -1 -1 -1 -1 -1 -1 -1 -1 -1
 MicOpt= -1 -1
 NAtoms=     42 NQM=       42 NQMF=       0 NMMI=      0 NMMIF=      0
                NMic=       0 NMicF=      0.
                    Isotopes and Nuclear Properties:
 (Nuclear quadrupole moments (NQMom) in fm**2, nuclear magnetic moments (NMagM)
  in nuclear magnetons)

  Atom         1           2           3           4           5           6           7           8           9          10
 IAtWgt=          12          12          12          12           1          12          12           1          12          12
 AtmWgt=  12.0000000  12.0000000  12.0000000  12.0000000   1.0078250  12.0000000  12.0000000   1.0078250  12.0000000  12.0000000
 NucSpn=           0           0           0           0           1           0           0           1           0           0
 AtZEff=  -0.0000000  -0.0000000  -0.0000000  -0.0000000  -0.0000000  -0.0000000  -0.0000000  -0.0000000  -0.0000000  -0.0000000
 NQMom=    0.0000000   0.0000000   0.0000000   0.0000000   0.0000000   0.0000000   0.0000000   0.0000000   0.0000000   0.0000000
 NMagM=    0.0000000   0.0000000   0.0000000   0.0000000   2.7928460   0.0000000   0.0000000   2.7928460   0.0000000   0.0000000
 AtZNuc=   6.0000000   6.0000000   6.0000000   6.0000000   1.0000000   6.0000000   6.0000000   1.0000000   6.0000000   6.0000000

  Atom        11          12          13          14          15          16          17          18          19          20
 IAtWgt=          12          12          12           1          12          12          12           1          12           1
 AtmWgt=  12.0000000  12.0000000  12.0000000   1.0078250  12.0000000  12.0000000  12.0000000   1.0078250  12.0000000   1.0078250
 NucSpn=           0           0           0           1           0           0           0           1           0           1
 AtZEff=  -0.0000000  -0.0000000  -0.0000000  -0.0000000  -0.0000000  -0.0000000  -0.0000000  -0.0000000  -0.0000000  -0.0000000
 NQMom=    0.0000000   0.0000000   0.0000000   0.0000000   0.0000000   0.0000000   0.0000000   0.0000000   0.0000000   0.0000000
 NMagM=    0.0000000   0.0000000   0.0000000   2.7928460   0.0000000   0.0000000   0.0000000   2.7928460   0.0000000   2.7928460
 AtZNuc=   6.0000000   6.0000000   6.0000000   1.0000000   6.0000000   6.0000000   6.0000000   1.0000000   6.0000000   1.0000000

  Atom        21          22          23          24          25          26          27          28          29          30
 IAtWgt=          12          12          12           1          12           1          12           1           1          12
 AtmWgt=  12.0000000  12.0000000  12.0000000   1.0078250  12.0000000   1.0078250  12.0000000   1.0078250   1.0078250  12.0000000
 NucSpn=           0           0           0           1           0           1           0           1           1           0
 AtZEff=  -0.0000000  -0.0000000  -0.0000000  -0.0000000  -0.0000000  -0.0000000  -0.0000000  -0.0000000  -0.0000000  -0.0000000
 NQMom=    0.0000000   0.0000000   0.0000000   0.0000000   0.0000000   0.0000000   0.0000000   0.0000000   0.0000000   0.0000000
 NMagM=    0.0000000   0.0000000   0.0000000   2.7928460   0.0000000   2.7928460   0.0000000   2.7928460   2.7928460   0.0000000
 AtZNuc=   6.0000000   6.0000000   6.0000000   1.0000000   6.0000000   1.0000000   6.0000000   1.0000000   1.0000000   6.0000000

  Atom        31          32          33          34          35          36          37          38          39          40
 IAtWgt=           1          12           1          12           1           1           1          12           1           1
 AtmWgt=   1.0078250  12.0000000   1.0078250  12.0000000   1.0078250   1.0078250   1.0078250  12.0000000   1.0078250   1.0078250
 NucSpn=           1           0           1           0           1           1           1           0           1           1
 AtZEff=  -0.0000000  -0.0000000  -0.0000000  -0.0000000  -0.0000000  -0.0000000  -0.0000000  -0.0000000  -0.0000000  -0.0000000
 NQMom=    0.0000000   0.0000000   0.0000000   0.0000000   0.0000000   0.0000000   0.0000000   0.0000000   0.0000000   0.0000000
 NMagM=    2.7928460   0.0000000   2.7928460   0.0000000   2.7928460   2.7928460   2.7928460   0.0000000   2.7928460   2.7928460
 AtZNuc=   1.0000000   6.0000000   1.0000000   6.0000000   1.0000000   1.0000000   1.0000000   6.0000000   1.0000000   1.0000000

  Atom        41          42
 IAtWgt=           1           1
 AtmWgt=   1.0078250   1.0078250
 NucSpn=           1           1
 AtZEff=  -0.0000000  -0.0000000
 NQMom=    0.0000000   0.0000000
 NMagM=    2.7928460   2.7928460
 AtZNuc=   1.0000000   1.0000000
 Leave Link  101 at Mon Nov 14 15:14:35 2022, MaxMem= 16106127360 cpu:              11.2 elap:               0.4
 (Enter /opt/ap/G16/B01/g16/l202.exe)
                          Input orientation:                          
 ---------------------------------------------------------------------
 Center     Atomic      Atomic             Coordinates (Angstroms)
 Number     Number       Type             X           Y           Z
 ---------------------------------------------------------------------
      1          6           0        0.000000    0.000000    0.000000
      2          6           0        0.000000    0.000000    1.394128
      3          6           0        1.221126    0.000000   -0.673109
      4          6           0        1.193108    0.000764    2.115362
      5          1           0       -0.944957   -0.000427    1.927071
      6          6           0       -1.278366   -0.017366   -0.754803
      7          6           0        2.428476    0.001115    0.024455
      8          1           0        1.232154   -0.045667   -1.756969
      9          6           0        2.400843    0.001752    1.418572
     10          6           0        1.177445    0.018728    3.599837
     11          6           0       -2.497543    0.174475   -0.100590
     12          6           0       -1.287721   -0.226132   -2.135951
     13          6           0        3.721572    0.001921   -0.704680
     14          1           0        3.334061    0.048144    1.969857
     15          6           0        0.290794    0.844275    4.295193
     16          6           0        2.049080   -0.790881    4.331965
     17          6           0       -3.692778    0.159262   -0.807835
     18          1           0       -2.509715    0.314949    0.974971
     19          6           0       -2.482402   -0.241725   -2.843995
     20          1           0       -0.347932   -0.356625   -2.661897
     21          6           0        3.910862    0.818865   -1.821777
     22          6           0        4.776237   -0.814044   -0.288725
     23          6           0        0.275860    0.859807    5.683909
     24          1           0       -0.377402    1.495584    3.742000
     25          6           0        2.035025   -0.775886    5.720674
     26          1           0        2.729408   -1.453102    3.807101
     27          6           0       -3.689528   -0.048249   -2.182334
     28          1           0       -4.630300    0.301901   -0.281982
     29          1           0       -2.469728   -0.397725   -3.916999
     30          6           0        5.120444    0.820149   -2.504230
     31          1           0        3.109266    1.474569   -2.144691
     32          6           0        5.986440   -0.813321   -0.970068
     33          1           0        4.638168   -1.470412    0.563864
     34          6           0        1.147946    0.049642    6.401818
     35          1           0       -0.413890    1.513063    6.206701
     36          1           0        2.713797   -1.416787    6.272362
     37          1           0       -4.622412   -0.060415   -2.734517
     38          6           0        6.162883    0.003944   -2.080611
     39          1           0        5.251831    1.466740   -3.364741
     40          1           0        6.791448   -1.459089   -0.637249
     41          1           0        1.136620    0.061726    7.485815
     42          1           0        7.107346    0.004761   -2.612865
 ---------------------------------------------------------------------
                    Distance matrix (angstroms):
                    1          2          3          4          5
     1  C    0.000000
     2  C    1.394128   0.000000
     3  C    1.394354   2.400962   0.000000
     4  C    2.428634   1.394161   2.788612   0.000000
     5  H    2.146287   1.084884   3.384206   2.146341   0.000000
     6  C    1.484671   2.500485   2.500887   3.787659   2.702572
     7  C    2.428599   2.788100   1.394378   2.428585   3.872983
     8  H    2.146445   3.383741   1.084878   3.872806   4.279487
     9  C    2.788619   2.400968   2.401430   1.394324   3.384222
    10  C    3.787552   2.500376   4.273210   1.484666   2.702426
    11  C    2.505649   2.915878   3.766526   4.308308   2.559789
    12  C    2.504326   3.764415   2.912963   4.927439   4.083696
    13  C    3.787700   4.272598   2.500646   3.787581   5.357482
    14  H    3.872805   3.383747   3.384092   2.146415   4.279508
    15  C    4.387032   3.035381   5.124680   2.505463   2.801537
    16  C    4.856969   3.668120   5.134371   2.504540   3.920790
    17  C    3.783460   4.302396   4.918329   5.695795   3.880171
    18  H    2.710799   2.563894   4.090787   3.887171   1.858607
    19  C    3.782732   4.917565   4.299686   6.177653   5.018469
    20  H    2.708124   4.086512   2.558203   5.032369   4.641330
    21  C    4.391384   5.129076   3.037212   4.853507   6.189029
    22  C    4.853707   5.129045   3.667320   4.391169   6.189006
    23  C    5.755188   4.383786   6.484171   3.783362   4.042800
    24  H    4.047440   2.809218   4.928007   2.710524   2.419532
    25  C    6.121229   4.843792   6.491910   3.782894   4.886007
    26  H    4.904609   3.922195   4.945574   2.708491   4.375585
    27  C    4.286902   5.138680   5.137568   6.504823   4.941878
    28  H    4.648692   4.933576   5.872250   6.304762   4.307327
    29  H    4.647647   5.870760   4.929849   7.068560   6.052762
    30  C    5.758711   6.487587   4.385239   6.118495   7.556379
    31  H    4.054822   4.936104   2.811579   4.898143   5.932249
    32  C    6.118822   6.487555   4.843334   5.758354   7.556353
    33  H    4.898230   4.935996   3.920254   4.054620   5.932156
    34  C    6.504116   5.137821   7.075480   4.286973   4.940255
    35  H    6.401859   5.061770   7.231488   4.648499   4.570330
    36  H    6.979577   5.759266   7.243957   4.647859   5.854410
    37  H    5.371027   6.198069   6.196773   7.572671   5.937817
    38  C    6.504621   7.074953   5.138292   6.504219   8.159837
    39  H    6.407382   7.237395   5.063871   6.975231   8.279857
    40  H    6.975586   7.237348   5.758361   6.406985   8.279819
    41  H    7.571865   6.197125   8.159595   5.371096   5.936031
    42  H    7.572414   8.159067   6.197601   7.571945   9.243951
                    6          7          8          9         10
     6  C    0.000000
     7  C    3.787910   0.000000
     8  H    2.703303   2.146356   0.000000
     9  C    4.273231   1.394392   3.384102   0.000000
    10  C    4.999520   3.787973   5.357472   2.500981   0.000000
    11  C    1.396850   4.930654   4.086892   5.131459   5.217562
    12  C    1.396868   4.304546   2.554596   5.127580   6.247901
    13  C    5.000226   1.484499   2.703105   2.500505   5.000173
    14  H    5.357476   2.146366   4.279725   1.084879   2.703459
    15  C    5.357906   4.849723   6.189251   3.665665   1.396854
    16  C    6.127433   4.396117   6.188524   3.039714   1.396863
    17  C    2.421445   6.179600   5.019741   6.489523   6.570113
    18  H    2.149133   5.038621   4.647055   4.940491   4.535727
    19  C    2.421728   5.692425   3.875305   6.486513   7.415207
    20  H    2.148909   3.879807   1.847230   4.932994   6.455771
    21  C    5.363376   2.504946   2.815510   3.667109   6.124188
    22  C    6.124553   2.504906   3.912375   3.036921   5.363369
    23  C    6.681472   6.115597   7.556523   4.841994   2.421492
    24  H    4.829285   4.891475   5.933362   3.917716   2.149154
    25  C    7.313393   5.762417   7.555989   4.387097   2.421736
    26  H    6.239756   4.063707   5.931401   2.815959   2.148914
    27  C    2.802231   6.504023   4.940029   7.075425   7.558136
    28  H    3.400141   7.071824   6.055143   7.240093   6.991324
    29  H    3.400515   6.299725   4.300419   7.235356   8.365293
    30  C    6.686306   3.783088   4.053003   4.842972   7.310892
    31  H    4.838282   2.709194   2.446425   3.920191   6.233057
    32  C    7.311449   3.783053   4.879728   4.384797   6.686012
    33  H    6.233426   2.709077   4.360860   2.811302   4.838519
    34  C    7.557031   6.504835   8.159779   5.138559   2.802307
    35  H    7.179977   6.970308   8.280044   5.756123   3.400165
    36  H    8.202243   6.413127   8.279214   5.066504   3.400510
    37  H    3.886356   7.571706   5.935634   8.159542   8.588868
    38  C    7.558466   4.286853   4.941589   5.137824   7.557929
    39  H    7.187337   4.648230   4.585860   5.757987   8.197725
    40  H    8.198432   4.648180   5.844424   5.063385   7.187062
    41  H    8.587561   7.572613   9.243902   6.197846   3.886431
    42  H    8.589123   5.370968   5.937422   6.197069   8.588456
                   11         12         13         14         15
    11  C    0.000000
    12  C    2.401427   0.000000
    13  C    6.250766   5.214744   0.000000
    14  H    6.189532   6.188195   2.702860   0.000000
    15  C    5.248463   6.707988   6.121971   3.911840   0.000000
    16  C    6.422712   7.299803   5.365963   2.816859   2.401387
    17  C    1.388889   2.774296   7.416736   7.556744   6.509914
    18  H    1.084764   3.385835   6.461281   5.933860   4.375718
    19  C    2.774838   1.388824   6.566987   7.555689   7.735504
    20  H    3.385733   1.084828   4.529913   5.930772   7.088811
    21  C    6.666736   5.311873   1.396829   3.911930   7.107943
    22  C    7.343054   6.366277   1.396832   2.815037   6.624314
    23  C    6.451501   8.048246   7.309101   4.879095   1.388883
    24  H    4.583211   6.192197   6.229413   4.360107   1.084763
    25  C    7.438714   8.548066   6.688393   4.054029   2.774755
    26  H    6.726074   7.277544   4.843310   2.448430   3.385708
    27  C    2.409169   2.408832   7.557141   8.159705   7.654928
    28  H    2.144247   3.858608   8.367940   8.280472   6.742542
    29  H    3.859166   2.144462   6.986480   8.278759   8.752323
    30  C    8.014243   6.503453   2.421718   4.878996   8.340159
    31  H    6.107773   4.714441   2.148776   4.360587   7.057844
    32  C    8.585434   7.390365   2.421709   4.052208   7.931644
    33  H    7.352926   6.629736   2.148749   2.446125   6.179018
    34  C    7.455634   8.882682   7.558317   4.941800   2.409154
    35  H    6.776086   8.566692   8.194680   5.843284   2.144229
    36  H    8.384789   9.387733   7.190790   4.587189   3.859086
    37  H    3.392317   3.392036   8.587560   9.243830   8.624088
    38  C    8.885524   7.454361   2.802355   4.940696   8.708529
    39  H    8.507492   6.865965   3.400487   5.843645   9.147346
    40  H    9.446792   8.308987   3.400476   4.585006   8.478973
    41  H    8.412692   9.926665   8.588933   5.937569   3.392325
    42  H    9.929462   8.411772   3.886469   5.936405   9.741223
                   16         17         18         19         20
    16  C    0.000000
    17  C    7.764615   0.000000
    18  H    5.768438   2.145291   0.000000
    19  C    8.504723   2.402446   3.859422   0.000000
    20  H    7.405968   3.858974   4.283822   2.145303   0.000000
    21  C    6.627673   7.699253   7.021363   6.560763   4.497211
    22  C    5.365510   8.540551   7.480418   7.716528   5.665536
    23  C    2.774316   7.640915   5.498217   9.030312   8.457027
    24  H    3.385823   5.786058   3.687425   7.129138   6.666442
    25  C    1.388861   8.735196   6.660802   9.697734   8.724779
    26  H    1.084834   8.071048   6.212517   8.536245   7.247084
    27  C    8.713164   1.390079   3.390052   1.390101   3.389888
    28  H    8.191264   1.084351   2.465154   3.387168   4.943312
    29  H    9.413799   3.387180   4.943772   1.084359   2.465561
    30  C    7.665654   8.999300   8.401154   7.684158   5.595783
    31  H    6.942862   7.055849   6.530693   5.890793   3.946262
    32  C    6.604154   9.729310   8.788675   8.692503   6.572300
    33  H    4.622091   8.598957   7.378940   7.989099   6.042123
    34  C    2.408903   8.684683   6.549774   9.937273   9.195306
    35  H    3.858628   7.860508   5.761853   9.448445   9.063780
    36  H    2.144469   9.677671   7.638477  10.558846   9.503637
    37  H    9.745643   2.150485   4.285405   2.150465   4.285346
    38  C    7.660043   9.938719   9.200395   8.682400   6.546650
    39  H    8.636768   9.394322   8.966678   7.937782   5.930935
    40  H    6.901424  10.609767   9.605108   9.610203   7.502358
    41  H    3.392092   9.597771   7.466657  10.949629  10.264257
    42  H    8.628428  10.951012  10.269208   9.595699   7.464192
                   21         22         23         24         25
    21  C    0.000000
    22  C    2.401148   0.000000
    23  C    8.339678   7.663388   0.000000
    24  H    7.057108   6.938381   2.145221   0.000000
    25  C    7.934139   6.605193   2.402396   3.859344   0.000000
    26  H    6.184005   4.623169   3.858996   4.283837   2.145356
    27  C    7.658186   8.708696   8.855882   6.960699   9.785576
    28  H    8.694232   9.472504   7.744257   5.975320   9.034383
    29  H    6.825100   8.114291  10.064645   8.162274  10.645213
    30  C    1.388824   2.774442   9.514051   8.348527   8.928391
    31  H    1.084794   3.385432   8.348239   6.841814   8.251212
    32  C    2.774430   1.388819   8.926672   8.248218   7.770528
    33  H    3.385417   1.084800   7.118603   6.637291   5.818196
    34  C    8.709358   7.659884   1.390070   3.389995   1.390095
    35  H    9.145591   8.633852   1.084348   2.465033   3.387137
    36  H    8.482109   6.903971   3.387136   4.943698   1.084363
    37  H    8.626876   9.740866   9.783137   7.898514  10.785343
    38  C    2.408878   2.408889   9.781478   8.882743   8.860440
    39  H    2.144453   3.858761  10.344405   9.066139   9.895553
    40  H    3.858751   2.144441   9.369482   8.905073   7.969536
    41  H    9.741711   8.628862   2.150513   4.285366   2.150453
    42  H    3.392063   3.392069  10.781315   9.931179   9.787018
                   26         27         28         29         30
    26  H    0.000000
    27  C    8.890989   0.000000
    28  H    8.600346   2.149185   0.000000
    29  H    9.370516   2.149210   4.286129   0.000000
    30  C    7.121630   8.858517  10.014189   7.816000   0.000000
    31  H    6.643746   6.967351   8.046472   6.145872   2.145313
    32  C    5.817122   9.781578  10.697306   8.964592   2.402462
    33  H    3.763276   8.883393   9.474231   8.470595   3.859075
    34  C    3.389959   9.853853   8.838832  10.943751   9.782234
    35  H    4.943333   9.140208   7.832498  10.505564  10.343562
    36  H    2.465578  10.693799   9.992451  11.477391   9.371467
    37  H    9.938894   1.084125   2.479166   2.479130   9.785278
    38  C    6.969712   9.853075  10.946080   8.834911   1.390081
    39  H    8.143918   9.145555  10.417138   7.962644   1.084353
    40  H    6.021000  10.687779  11.562164   9.881935   3.387152
    41  H    4.285396  10.806336   9.677485  11.968333  10.781792
    42  H    7.906179  10.805584  11.970532   9.673836   2.150451
                   31         32         33         34         35
    31  H    0.000000
    32  C    3.859055   0.000000
    33  H    4.283308   2.145356   0.000000
    34  C    8.883693   8.860047   6.969499   0.000000
    35  H    9.064207   9.893547   8.140394   2.149187   0.000000
    36  H    8.908597   7.970392   6.024369   2.149200   4.286112
    37  H    7.904614  10.780904   9.931050  10.806562  10.006641
    38  C    3.389900   1.390094   3.389946   9.854100  10.686951
    39  H    2.465597   3.387150   4.943418  10.688111  11.122726
    40  H    4.943399   1.084354   2.465647   9.147341  10.372571
    41  H    9.931470   9.787155   7.907066   1.084123   2.479233
    42  H    4.285343   2.150458   4.285392  10.806525  11.688828
                   36         37         38         39         40
    36  H    0.000000
    37  H   11.695451   0.000000
    38  C    9.148051  10.805292   0.000000
    39  H   10.374492  10.011497   2.149134   0.000000
    40  H    8.023201  11.688928   2.149152   4.286037   0.000000
    41  H    2.479104  11.731861  10.806626  11.689465  10.013697
    42  H   10.013557  11.730570   1.084114   2.479039   2.479054
                   41         42
    41  H    0.000000
    42  H   11.731844   0.000000
 Stoichiometry    C24H18
 Framework group  C1[X(C24H18)]
 Deg. of freedom   120
 Full point group                 C1      NOp   1
 Largest Abelian subgroup         C1      NOp   1
 Largest concise Abelian subgroup C1      NOp   1
                         Standard orientation:                         
 ---------------------------------------------------------------------
 Center     Atomic      Atomic             Coordinates (Angstroms)
 Number     Number       Type             X           Y           Z
 ---------------------------------------------------------------------
      1          6           0       -0.022617    1.401281   -0.040178
      2          6           0       -1.211206    0.672721   -0.033224
      3          6           0        1.189290    0.712480   -0.007635
      4          6           0       -1.202720   -0.720856    0.006213
      5          1           0       -2.159309    1.199429   -0.058774
      6          6           0       -0.046845    2.884594   -0.098884
      7          6           0        1.225394   -0.680854    0.032453
      8          1           0        2.119624    1.268236   -0.058364
      9          6           0        0.022368   -1.385844    0.039231
     10          6           0       -2.476720   -1.482787    0.031113
     11          6           0       -1.243755    3.586917    0.060293
     12          6           0        1.128110    3.608566   -0.314721
     13          6           0        2.522662   -1.401682    0.067638
     14          1           0        0.039449   -2.467884    0.115788
     15          6           0       -3.542006   -1.067785    0.833695
     16          6           0       -2.636485   -2.630543   -0.748860
     17          6           0       -1.265119    4.974597    0.006420
     18          1           0       -2.168666    3.039097    0.205711
     19          6           0        1.107722    4.996181   -0.368960
     20          1           0        2.069003    3.078984   -0.420150
     21          6           0        3.564888   -0.956593    0.884211
     22          6           0        2.728160   -2.540352   -0.714884
     23          6           0       -4.733957   -1.780361    0.855707
     24          1           0       -3.426740   -0.191276    1.462310
     25          6           0       -3.827964   -3.343879   -0.727358
     26          1           0       -1.826173   -2.954308   -1.393403
     27          6           0       -0.089260    5.684388   -0.207759
     28          1           0       -2.204883    5.502632    0.124057
     29          1           0        2.030886    5.541807   -0.529871
     30          6           0        4.778715   -1.630638    0.917651
     31          1           0        3.414075   -0.086629    1.514447
     32          6           0        3.941370   -3.215522   -0.681981
     33          1           0        1.936423   -2.886417   -1.370767
     34          6           0       -4.881358   -2.921086    0.075121
     35          1           0       -5.547325   -1.447732    1.491002
     36          1           0       -3.936537   -4.228325   -1.345267
     37          1           0       -0.105781    6.767560   -0.250099
     38          6           0        4.971294   -2.762901    0.134569
     39          1           0        5.573823   -1.275010    1.563525
     40          1           0        4.085411   -4.093294   -1.302136
     41          1           0       -5.811591   -3.477588    0.092273
     42          1           0        5.918547   -3.289535    0.160496
 ---------------------------------------------------------------------
 Rotational constants (GHZ):           0.2006129           0.1977245           0.1029246
 Leave Link  202 at Mon Nov 14 15:14:35 2022, MaxMem= 16106127360 cpu:               1.2 elap:               0.0
 (Enter /opt/ap/G16/B01/g16/l301.exe)
 Standard basis: 6-311++G(d,p) (5D, 7F)
 Ernie: Thresh=  0.10000D-02 Tol=  0.10000D-05 Strict=F.
 There are   678 symmetry adapted cartesian basis functions of A   symmetry.
 There are   654 symmetry adapted basis functions of A   symmetry.
   654 basis functions,  1026 primitive gaussians,   678 cartesian basis functions
    81 alpha electrons       81 beta electrons
       nuclear repulsion energy      1734.4924559705 Hartrees.
 IExCor= 4639 DFT=T Ex+Corr=wB97XD ExCW=0 ScaHFX=  1.000000
 ScaDFX=  1.000000  1.000000  1.000000  1.000000 ScalE2=  1.000000  1.000000
 IRadAn=      5 IRanWt=     -1 IRanGd=            0 ICorTp=0 IEmpDi=121
 HFx  wShort=  0.000000 wLong=  0.200000 cFull=  0.222036 cShort=  0.000000 cLong=  0.777964
 DFx  wShort=  0.000000 wLong=  0.200000 cFull=  0.000000 cShort=  0.000000 cLong=  1.000000
 NAtoms=   42 NActive=   42 NUniq=   42 SFac= 1.00D+00 NAtFMM=   60 NAOKFM=F Big=F
 Integral buffers will be    131072 words long.
 Raffenetti 2 integral format.
 Two-electron integral symmetry is turned on.
 R6Disp:  Grimme-D2 Dispersion energy=       -0.0287215970 Hartrees.
 Nuclear repulsion after empirical dispersion term =     1734.4637343735 Hartrees.
 Leave Link  301 at Mon Nov 14 15:14:35 2022, MaxMem= 16106127360 cpu:               1.2 elap:               0.0
 (Enter /opt/ap/G16/B01/g16/l302.exe)
 NPDir=0 NMtPBC=     1 NCelOv=     1 NCel=       1 NClECP=     1 NCelD=      1
         NCelK=      1 NCelE2=     1 NClLst=     1 CellRange=     0.0.
 One-electron integrals computed using PRISM.
 One-electron integral symmetry used in STVInt
 NBasis=   654 RedAO= T EigKep=  1.01D-06  NBF=   654
 NBsUse=   645 1.00D-06 EigRej=  6.62D-07 NBFU=   645
 Precomputing XC quadrature grid using
 IXCGrd= 4 IRadAn=           5 IRanWt=          -1 IRanGd=           0 AccXCQ= 0.00D+00.
 Generated NRdTot=       0 NPtTot=           0 NUsed=           0 NTot=          32
 NSgBfM=   669   669   669   669   669 MxSgAt=    42 MxSgA2=    42.
 Leave Link  302 at Mon Nov 14 15:14:36 2022, MaxMem= 16106127360 cpu:              21.1 elap:               0.7
 (Enter /opt/ap/G16/B01/g16/l303.exe)
 DipDrv:  MaxL=1.
 Leave Link  303 at Mon Nov 14 15:14:36 2022, MaxMem= 16106127360 cpu:               6.2 elap:               0.2
 (Enter /opt/ap/G16/B01/g16/l401.exe)
 ExpMin= 3.60D-02 ExpMax= 4.56D+03 ExpMxC= 6.82D+02 IAcc=3 IRadAn=         5 AccDes= 0.00D+00
 Harris functional with IExCor= 4639 and IRadAn=       5 diagonalized for initial guess.
 HarFok:  IExCor= 4639 AccDes= 0.00D+00 IRadAn=         5 IDoV= 1 UseB2=F ITyADJ=14
 ICtDFT=  3500011 ScaDFX=  1.000000  1.000000  1.000000  1.000000
 FoFCou: FMM=F IPFlag=           0 FMFlag=      100000 FMFlg1=           0
         NFxFlg=           0 DoJE=T BraDBF=F KetDBF=T FulRan=T
         wScrn=  0.000000 ICntrl=       500 IOpCl=  0 I1Cent=   200000004 NGrid=           0
         NMat0=    1 NMatS0=      1 NMatT0=    0 NMatD0=    1 NMtDS0=    0 NMtDT0=    0
 Petite list used in FoFCou.
 Harris En= -882.963202177672    
 JPrj=0 DoOrth=F DoCkMO=F.
 Leave Link  401 at Mon Nov 14 15:14:38 2022, MaxMem= 16106127360 cpu:              55.3 elap:               1.7
 (Enter /opt/ap/G16/B01/g16/l502.exe)
 Integral symmetry usage will be decided dynamically.
 Closed shell SCF:
 Using DIIS extrapolation, IDIIS=  1040.
 NGot= 16106127360 LenX= 16105179956 LenY= 16104719594
 Requested convergence on RMS density matrix=1.00D-08 within 512 cycles.
 Requested convergence on MAX density matrix=1.00D-06.
 Requested convergence on             energy=1.00D-06.
 No special actions if energy rises.
 Fock matrices will be formed incrementally for  20 cycles.

 Cycle   1  Pass 1  IDiag  1:
 FoFJK:  IHMeth= 1 ICntrl=       0 DoSepK=T KAlg= 0 I1Cent=           0 FoldK=F
 IRaf=         1 NMat=       1 IRICut=       1 DoRegI=T DoRafI=F ISym2E= 0 IDoP0=0 IntGTp=1.
 FoFCou: FMM=F IPFlag=           0 FMFlag=      100000 FMFlg1=           0
         NFxFlg=           0 DoJE=T BraDBF=F KetDBF=F FulRan=T
         wScrn=  0.000000 ICntrl=       500 IOpCl=  0 I1Cent=           0 NGrid=           0
         NMat0=    1 NMatS0=      1 NMatT0=    0 NMatD0=    1 NMtDS0=    0 NMtDT0=    0
 Symmetry not used in FoFCou.
 E= -925.110774866690    
 DIIS: error= 5.69D-02 at cycle   1 NSaved=   1.
 NSaved= 1 IEnMin= 1 EnMin= -925.110774866690     IErMin= 1 ErrMin= 5.69D-02
 ErrMax= 5.69D-02  0.00D+00 EMaxC= 1.00D-01 BMatC= 1.90D+00 BMatP= 1.90D+00
 IDIUse=3 WtCom= 4.31D-01 WtEn= 5.69D-01
 Coeff-Com:  0.100D+01
 Coeff-En:   0.100D+01
 Coeff:      0.100D+01
 Gap=     0.304 Goal=   None    Shift=    0.000
 GapD=    0.304 DampG=1.000 DampE=0.500 DampFc=0.5000 IDamp=-1.
 Damping current iteration by 5.00D-01
 RMSDP=4.55D-02 MaxDP=6.25D+00              OVMax= 4.48D-02

 Cycle   2  Pass 1  IDiag  1:
 RMSU=  7.56D-03    CP:  8.06D-01
 E= -925.209783801921     Delta-E=       -0.099008935231 Rises=F Damp=T
 DIIS: error= 2.77D-02 at cycle   2 NSaved=   2.
 NSaved= 2 IEnMin= 2 EnMin= -925.209783801921     IErMin= 2 ErrMin= 2.77D-02
 ErrMax= 2.77D-02  0.00D+00 EMaxC= 1.00D-01 BMatC= 4.32D-01 BMatP= 1.90D+00
 IDIUse=3 WtCom= 7.23D-01 WtEn= 2.77D-01
 Coeff-Com: -0.883D+00 0.188D+01
 Coeff-En:   0.000D+00 0.100D+01
 Coeff:     -0.638D+00 0.164D+01
 Gap=     0.312 Goal=   None    Shift=    0.000
 RMSDP=2.72D-02 MaxDP=3.16D+00 DE=-9.90D-02 OVMax= 3.28D-02

 Cycle   3  Pass 1  IDiag  1:
 RMSU=  4.90D-03    CP:  5.65D-01  1.34D+00
 E= -925.299589916352     Delta-E=       -0.089806114432 Rises=F Damp=F
 DIIS: error= 2.74D-03 at cycle   3 NSaved=   3.
 NSaved= 3 IEnMin= 3 EnMin= -925.299589916352     IErMin= 3 ErrMin= 2.74D-03
 ErrMax= 2.74D-03  0.00D+00 EMaxC= 1.00D-01 BMatC= 7.65D-03 BMatP= 4.32D-01
 IDIUse=3 WtCom= 9.73D-01 WtEn= 2.74D-02
 Coeff-Com: -0.353D+00 0.751D+00 0.602D+00
 Coeff-En:   0.000D+00 0.000D+00 0.100D+01
 Coeff:     -0.343D+00 0.730D+00 0.613D+00
 Gap=     0.310 Goal=   None    Shift=    0.000
 RMSDP=2.58D-03 MaxDP=2.66D-01 DE=-8.98D-02 OVMax= 1.85D-02

 Cycle   4  Pass 1  IDiag  1:
 RMSU=  2.04D-03    CP:  5.58D-01  1.44D+00  7.73D-01
 E= -925.306545667317     Delta-E=       -0.006955750965 Rises=F Damp=F
 DIIS: error= 7.93D-04 at cycle   4 NSaved=   4.
 NSaved= 4 IEnMin= 4 EnMin= -925.306545667317     IErMin= 4 ErrMin= 7.93D-04
 ErrMax= 7.93D-04  0.00D+00 EMaxC= 1.00D-01 BMatC= 2.69D-04 BMatP= 7.65D-03
 IDIUse=3 WtCom= 9.92D-01 WtEn= 7.93D-03
 Coeff-Com: -0.108D+00 0.231D+00 0.241D+00 0.636D+00
 Coeff-En:   0.000D+00 0.000D+00 0.000D+00 0.100D+01
 Coeff:     -0.107D+00 0.229D+00 0.239D+00 0.639D+00
 Gap=     0.309 Goal=   None    Shift=    0.000
 RMSDP=8.01D-04 MaxDP=8.35D-02 DE=-6.96D-03 OVMax= 4.22D-03

 Cycle   5  Pass 1  IDiag  1:
 RMSU=  4.14D-04    CP:  5.55D-01  1.50D+00  7.64D-01  7.70D-01
 E= -925.306829837967     Delta-E=       -0.000284170649 Rises=F Damp=F
 DIIS: error= 1.95D-04 at cycle   5 NSaved=   5.
 NSaved= 5 IEnMin= 5 EnMin= -925.306829837967     IErMin= 5 ErrMin= 1.95D-04
 ErrMax= 1.95D-04  0.00D+00 EMaxC= 1.00D-01 BMatC= 2.04D-05 BMatP= 2.69D-04
 IDIUse=3 WtCom= 9.98D-01 WtEn= 1.95D-03
 Coeff-Com:  0.257D-01-0.550D-01-0.289D-01 0.193D+00 0.865D+00
 Coeff-En:   0.000D+00 0.000D+00 0.000D+00 0.000D+00 0.100D+01
 Coeff:      0.257D-01-0.548D-01-0.288D-01 0.193D+00 0.865D+00
 Gap=     0.310 Goal=   None    Shift=    0.000
 RMSDP=2.52D-04 MaxDP=1.90D-02 DE=-2.84D-04 OVMax= 1.62D-03

 Cycle   6  Pass 1  IDiag  1:
 RMSU=  7.86D-05    CP:  5.54D-01  1.49D+00  7.85D-01  8.40D-01  1.15D+00
 E= -925.306856461981     Delta-E=       -0.000026624015 Rises=F Damp=F
 DIIS: error= 5.99D-05 at cycle   6 NSaved=   6.
 NSaved= 6 IEnMin= 6 EnMin= -925.306856461981     IErMin= 6 ErrMin= 5.99D-05
 ErrMax= 5.99D-05  0.00D+00 EMaxC= 1.00D-01 BMatC= 1.38D-06 BMatP= 2.04D-05
 IDIUse=1 WtCom= 1.00D+00 WtEn= 0.00D+00
 Coeff-Com:  0.129D-01-0.275D-01-0.177D-01 0.533D-01 0.331D+00 0.648D+00
 Coeff:      0.129D-01-0.275D-01-0.177D-01 0.533D-01 0.331D+00 0.648D+00
 Gap=     0.310 Goal=   None    Shift=    0.000
 RMSDP=8.62D-05 MaxDP=8.66D-03 DE=-2.66D-05 OVMax= 3.95D-04

 Cycle   7  Pass 1  IDiag  1:
 RMSU=  4.78D-05    CP:  5.54D-01  1.49D+00  7.89D-01  8.72D-01  1.14D+00
                    CP:  1.00D+00
 E= -925.306858166505     Delta-E=       -0.000001704524 Rises=F Damp=F
 DIIS: error= 1.67D-05 at cycle   7 NSaved=   7.
 NSaved= 7 IEnMin= 7 EnMin= -925.306858166505     IErMin= 7 ErrMin= 1.67D-05
 ErrMax= 1.67D-05  0.00D+00 EMaxC= 1.00D-01 BMatC= 1.06D-07 BMatP= 1.38D-06
 IDIUse=1 WtCom= 1.00D+00 WtEn= 0.00D+00
 Coeff-Com: -0.235D-02 0.505D-02 0.241D-02-0.281D-01-0.104D+00 0.108D+00
 Coeff-Com:  0.102D+01
 Coeff:     -0.235D-02 0.505D-02 0.241D-02-0.281D-01-0.104D+00 0.108D+00
 Coeff:      0.102D+01
 Gap=     0.310 Goal=   None    Shift=    0.000
 RMSDP=2.31D-05 MaxDP=1.68D-03 DE=-1.70D-06 OVMax= 2.74D-04

 Cycle   8  Pass 1  IDiag  1:
 RMSU=  6.19D-06    CP:  5.54D-01  1.49D+00  7.91D-01  8.73D-01  1.16D+00
                    CP:  1.14D+00  1.15D+00
 E= -925.306858409649     Delta-E=       -0.000000243143 Rises=F Damp=F
 DIIS: error= 6.36D-06 at cycle   8 NSaved=   8.
 NSaved= 8 IEnMin= 8 EnMin= -925.306858409649     IErMin= 8 ErrMin= 6.36D-06
 ErrMax= 6.36D-06  0.00D+00 EMaxC= 1.00D-01 BMatC= 6.95D-09 BMatP= 1.06D-07
 IDIUse=1 WtCom= 1.00D+00 WtEn= 0.00D+00
 Coeff-Com: -0.113D-02 0.242D-02 0.135D-02-0.107D-01-0.414D-01 0.186D-01
 Coeff-Com:  0.287D+00 0.744D+00
 Coeff:     -0.113D-02 0.242D-02 0.135D-02-0.107D-01-0.414D-01 0.186D-01
 Coeff:      0.287D+00 0.744D+00
 Gap=     0.310 Goal=   None    Shift=    0.000
 RMSDP=3.78D-06 MaxDP=4.62D-04 DE=-2.43D-07 OVMax= 5.85D-05

 Cycle   9  Pass 1  IDiag  1:
 RMSU=  2.59D-06    CP:  5.54D-01  1.49D+00  7.91D-01  8.73D-01  1.17D+00
                    CP:  1.15D+00  1.19D+00  1.09D+00
 E= -925.306858420216     Delta-E=       -0.000000010567 Rises=F Damp=F
 DIIS: error= 4.25D-06 at cycle   9 NSaved=   9.
 NSaved= 9 IEnMin= 9 EnMin= -925.306858420216     IErMin= 9 ErrMin= 4.25D-06
 ErrMax= 4.25D-06  0.00D+00 EMaxC= 1.00D-01 BMatC= 2.08D-09 BMatP= 6.95D-09
 IDIUse=1 WtCom= 1.00D+00 WtEn= 0.00D+00
 Coeff-Com:  0.105D-03-0.229D-03 0.283D-04 0.265D-02 0.960D-02-0.172D-01
 Coeff-Com: -0.156D+00 0.341D+00 0.820D+00
 Coeff:      0.105D-03-0.229D-03 0.283D-04 0.265D-02 0.960D-02-0.172D-01
 Coeff:     -0.156D+00 0.341D+00 0.820D+00
 Gap=     0.310 Goal=   None    Shift=    0.000
 RMSDP=1.97D-06 MaxDP=1.61D-04 DE=-1.06D-08 OVMax= 4.20D-05

 Cycle  10  Pass 1  IDiag  1:
 RMSU=  7.37D-07    CP:  5.54D-01  1.49D+00  7.91D-01  8.73D-01  1.17D+00
                    CP:  1.15D+00  1.20D+00  1.28D+00  7.37D-01
 E= -925.306858424118     Delta-E=       -0.000000003902 Rises=F Damp=F
 DIIS: error= 1.14D-06 at cycle  10 NSaved=  10.
 NSaved=10 IEnMin=10 EnMin= -925.306858424118     IErMin=10 ErrMin= 1.14D-06
 ErrMax= 1.14D-06  0.00D+00 EMaxC= 1.00D-01 BMatC= 2.18D-10 BMatP= 2.08D-09
 IDIUse=1 WtCom= 1.00D+00 WtEn= 0.00D+00
 Coeff-Com:  0.118D-03-0.254D-03-0.716D-04 0.174D-02 0.628D-02-0.634D-02
 Coeff-Com: -0.764D-01 0.500D-01 0.325D+00 0.700D+00
 Coeff:      0.118D-03-0.254D-03-0.716D-04 0.174D-02 0.628D-02-0.634D-02
 Coeff:     -0.764D-01 0.500D-01 0.325D+00 0.700D+00
 Gap=     0.310 Goal=   None    Shift=    0.000
 RMSDP=4.99D-07 MaxDP=3.16D-05 DE=-3.90D-09 OVMax= 1.06D-05

 Cycle  11  Pass 1  IDiag  1:
 RMSU=  1.52D-07    CP:  5.54D-01  1.49D+00  7.91D-01  8.73D-01  1.17D+00
                    CP:  1.15D+00  1.21D+00  1.29D+00  8.76D-01  1.08D+00
 E= -925.306858424459     Delta-E=       -0.000000000341 Rises=F Damp=F
 DIIS: error= 1.97D-07 at cycle  11 NSaved=  11.
 NSaved=11 IEnMin=11 EnMin= -925.306858424459     IErMin=11 ErrMin= 1.97D-07
 ErrMax= 1.97D-07  0.00D+00 EMaxC= 1.00D-01 BMatC= 3.08D-11 BMatP= 2.18D-10
 IDIUse=1 WtCom= 1.00D+00 WtEn= 0.00D+00
 Coeff-Com:  0.201D-04-0.425D-04-0.199D-04 0.113D-03 0.236D-03 0.119D-02
 Coeff-Com:  0.168D-02-0.533D-01-0.262D-01 0.244D+00 0.832D+00
 Coeff:      0.201D-04-0.425D-04-0.199D-04 0.113D-03 0.236D-03 0.119D-02
 Coeff:      0.168D-02-0.533D-01-0.262D-01 0.244D+00 0.832D+00
 Gap=     0.310 Goal=   None    Shift=    0.000
 RMSDP=3.10D-07 MaxDP=2.59D-05 DE=-3.41D-10 OVMax= 3.37D-06

 Cycle  12  Pass 1  IDiag  1:
 RMSU=  7.34D-08    CP:  5.54D-01  1.49D+00  7.91D-01  8.73D-01  1.17D+00
                    CP:  1.15D+00  1.21D+00  1.30D+00  8.70D-01  1.25D+00
                    CP:  1.23D+00
 E= -925.306858424515     Delta-E=       -0.000000000056 Rises=F Damp=F
 DIIS: error= 1.07D-07 at cycle  12 NSaved=  12.
 NSaved=12 IEnMin=12 EnMin= -925.306858424515     IErMin=12 ErrMin= 1.07D-07
 ErrMax= 1.07D-07  0.00D+00 EMaxC= 1.00D-01 BMatC= 1.41D-12 BMatP= 3.08D-11
 IDIUse=1 WtCom= 1.00D+00 WtEn= 0.00D+00
 Coeff-Com: -0.140D-04 0.304D-04 0.127D-04-0.219D-03-0.813D-03 0.998D-03
 Coeff-Com:  0.942D-02-0.848D-02-0.299D-01-0.632D-01-0.107D+00 0.120D+01
 Coeff:     -0.140D-04 0.304D-04 0.127D-04-0.219D-03-0.813D-03 0.998D-03
 Coeff:      0.942D-02-0.848D-02-0.299D-01-0.632D-01-0.107D+00 0.120D+01
 Gap=     0.310 Goal=   None    Shift=    0.000
 RMSDP=9.68D-08 MaxDP=6.26D-06 DE=-5.64D-11 OVMax= 1.66D-06

 Cycle  13  Pass 1  IDiag  1:
 RMSU=  3.06D-08    CP:  5.54D-01  1.49D+00  7.91D-01  8.73D-01  1.17D+00
                    CP:  1.15D+00  1.21D+00  1.30D+00  8.71D-01  1.31D+00
                    CP:  1.32D+00  1.44D+00
 E= -925.306858424520     Delta-E=       -0.000000000005 Rises=F Damp=F
 DIIS: error= 2.94D-08 at cycle  13 NSaved=  13.
 NSaved=13 IEnMin=13 EnMin= -925.306858424520     IErMin=13 ErrMin= 2.94D-08
 ErrMax= 2.94D-08  0.00D+00 EMaxC= 1.00D-01 BMatC= 1.09D-13 BMatP= 1.41D-12
 IDIUse=1 WtCom= 1.00D+00 WtEn= 0.00D+00
 Coeff-Com: -0.234D-05 0.500D-05 0.265D-05-0.259D-04-0.834D-04 0.403D-04
 Coeff-Com:  0.696D-03 0.178D-02-0.185D-03-0.166D-01-0.770D-01 0.121D+00
 Coeff-Com:  0.970D+00
 Coeff:     -0.234D-05 0.500D-05 0.265D-05-0.259D-04-0.834D-04 0.403D-04
 Coeff:      0.696D-03 0.178D-02-0.185D-03-0.166D-01-0.770D-01 0.121D+00
 Coeff:      0.970D+00
 Gap=     0.310 Goal=   None    Shift=    0.000
 RMSDP=3.30D-08 MaxDP=2.89D-06 DE=-4.55D-12 OVMax= 4.20D-07

 Cycle  14  Pass 1  IDiag  1:
 RMSU=  7.37D-09    CP:  5.54D-01  1.49D+00  7.91D-01  8.73D-01  1.17D+00
                    CP:  1.15D+00  1.21D+00  1.30D+00  8.71D-01  1.31D+00
                    CP:  1.34D+00  1.57D+00  1.27D+00
 E= -925.306858424515     Delta-E=        0.000000000005 Rises=F Damp=F
 DIIS: error= 6.41D-09 at cycle  14 NSaved=  14.
 NSaved=14 IEnMin=13 EnMin= -925.306858424520     IErMin=14 ErrMin= 6.41D-09
 ErrMax= 6.41D-09  0.00D+00 EMaxC= 1.00D-01 BMatC= 3.18D-14 BMatP= 1.09D-13
 IDIUse=1 WtCom= 1.00D+00 WtEn= 0.00D+00
 Coeff-Com:  0.785D-06-0.174D-05-0.528D-06 0.173D-04 0.701D-04-0.111D-03
 Coeff-Com: -0.920D-03 0.179D-02 0.395D-02 0.192D-02-0.207D-01-0.108D+00
 Coeff-Com:  0.417D+00 0.705D+00
 Coeff:      0.785D-06-0.174D-05-0.528D-06 0.173D-04 0.701D-04-0.111D-03
 Coeff:     -0.920D-03 0.179D-02 0.395D-02 0.192D-02-0.207D-01-0.108D+00
 Coeff:      0.417D+00 0.705D+00
 Gap=     0.310 Goal=   None    Shift=    0.000
 RMSDP=8.40D-09 MaxDP=7.84D-07 DE= 5.46D-12 OVMax= 9.81D-08

 SCF Done:  E(RwB97XD) =  -925.306858425     A.U. after   14 cycles
            NFock= 14  Conv=0.84D-08     -V/T= 2.0043
 KE= 9.213181303594D+02 PE=-5.615258965256D+03 EE= 2.034170242099D+03
 Leave Link  502 at Mon Nov 14 15:17:02 2022, MaxMem= 16106127360 cpu:            4595.4 elap:             144.0
 (Enter /opt/ap/G16/B01/g16/l601.exe)
 Copying SCF densities to generalized density rwf, IOpCl= 0 IROHF=0.

 **********************************************************************

            Population analysis using the SCF Density.

 **********************************************************************

 Orbital symmetries:
       Occupied  (A) (A) (A) (A) (A) (A) (A) (A) (A) (A) (A) (A)
                 (A) (A) (A) (A) (A) (A) (A) (A) (A) (A) (A) (A)
                 (A) (A) (A) (A) (A) (A) (A) (A) (A) (A) (A) (A)
                 (A) (A) (A) (A) (A) (A) (A) (A) (A) (A) (A) (A)
                 (A) (A) (A) (A) (A) (A) (A) (A) (A) (A) (A) (A)
                 (A) (A) (A) (A) (A) (A) (A) (A) (A) (A) (A) (A)
                 (A) (A) (A) (A) (A) (A) (A) (A) (A)
       Virtual   (A) (A) (A) (A) (A) (A) (A) (A) (A) (A) (A) (A)
                 (A) (A) (A) (A) (A) (A) (A) (A) (A) (A) (A) (A)
                 (A) (A) (A) (A) (A) (A) (A) (A) (A) (A) (A) (A)
                 (A) (A) (A) (A) (A) (A) (A) (A) (A) (A) (A) (A)
                 (A) (A) (A) (A) (A) (A) (A) (A) (A) (A) (A) (A)
                 (A) (A) (A) (A) (A) (A) (A) (A) (A) (A) (A) (A)
                 (A) (A) (A) (A) (A) (A) (A) (A) (A) (A) (A) (A)
                 (A) (A) (A) (A) (A) (A) (A) (A) (A) (A) (A) (A)
                 (A) (A) (A) (A) (A) (A) (A) (A) (A) (A) (A) (A)
                 (A) (A) (A) (A) (A) (A) (A) (A) (A) (A) (A) (A)
                 (A) (A) (A) (A) (A) (A) (A) (A) (A) (A) (A) (A)
                 (A) (A) (A) (A) (A) (A) (A) (A) (A) (A) (A) (A)
                 (A) (A) (A) (A) (A) (A) (A) (A) (A) (A) (A) (A)
                 (A) (A) (A) (A) (A) (A) (A) (A) (A) (A) (A) (A)
                 (A) (A) (A) (A) (A) (A) (A) (A) (A) (A) (A) (A)
                 (A) (A) (A) (A) (A) (A) (A) (A) (A) (A) (A) (A)
                 (A) (A) (A) (A) (A) (A) (A) (A) (A) (A) (A) (A)
                 (A) (A) (A) (A) (A) (A) (A) (A) (A) (A) (A) (A)
                 (A) (A) (A) (A) (A) (A) (A) (A) (A) (A) (A) (A)
                 (A) (A) (A) (A) (A) (A) (A) (A) (A) (A) (A) (A)
                 (A) (A) (A) (A) (A) (A) (A) (A) (A) (A) (A) (A)
                 (A) (A) (A) (A) (A) (A) (A) (A) (A) (A) (A) (A)
                 (A) (A) (A) (A) (A) (A) (A) (A) (A) (A) (A) (A)
                 (A) (A) (A) (A) (A) (A) (A) (A) (A) (A) (A) (A)
                 (A) (A) (A) (A) (A) (A) (A) (A) (A) (A) (A) (A)
                 (A) (A) (A) (A) (A) (A) (A) (A) (A) (A) (A) (A)
                 (A) (A) (A) (A) (A) (A) (A) (A) (A) (A) (A) (A)
                 (A) (A) (A) (A) (A) (A) (A) (A) (A) (A) (A) (A)
                 (A) (A) (A) (A) (A) (A) (A) (A) (A) (A) (A) (A)
                 (A) (A) (A) (A) (A) (A) (A) (A) (A) (A) (A) (A)
                 (A) (A) (A) (A) (A) (A) (A) (A) (A) (A) (A) (A)
                 (A) (A) (A) (A) (A) (A) (A) (A) (A) (A) (A) (A)
                 (A) (A) (A) (A) (A) (A) (A) (A) (A) (A) (A) (A)
                 (A) (A) (A) (A) (A) (A) (A) (A) (A) (A) (A) (A)
                 (A) (A) (A) (A) (A) (A) (A) (A) (A) (A) (A) (A)
                 (A) (A) (A) (A) (A) (A) (A) (A) (A) (A) (A) (A)
                 (A) (A) (A) (A) (A) (A) (A) (A) (A) (A) (A) (A)
                 (A) (A) (A) (A) (A) (A) (A) (A) (A) (A) (A) (A)
                 (A) (A) (A) (A) (A) (A) (A) (A) (A) (A) (A) (A)
                 (A) (A) (A) (A) (A) (A) (A) (A) (A) (A) (A) (A)
                 (A) (A) (A) (A) (A) (A) (A) (A) (A) (A) (A) (A)
                 (A) (A) (A) (A) (A) (A) (A) (A) (A) (A) (A) (A)
                 (A) (A) (A) (A) (A) (A) (A) (A) (A) (A) (A) (A)
                 (A) (A) (A) (A) (A) (A) (A) (A) (A) (A) (A) (A)
                 (A) (A) (A) (A) (A) (A) (A) (A) (A) (A) (A) (A)
                 (A) (A) (A) (A) (A) (A) (A) (A) (A) (A) (A) (A)
                 (A) (A) (A) (A) (A) (A) (A) (A) (A) (A) (A) (A)
 The electronic state is 1-A.
 Alpha  occ. eigenvalues --  -10.30536 -10.30499 -10.30498 -10.30439 -10.30387
 Alpha  occ. eigenvalues --  -10.30370 -10.29319 -10.29309 -10.29309 -10.29300
 Alpha  occ. eigenvalues --  -10.29296 -10.29283 -10.29230 -10.29222 -10.29216
 Alpha  occ. eigenvalues --  -10.29205 -10.29196 -10.29188 -10.29161 -10.29150
 Alpha  occ. eigenvalues --  -10.29134 -10.29105 -10.29099 -10.29088  -0.99077
 Alpha  occ. eigenvalues --   -0.97134  -0.97110  -0.95307  -0.89533  -0.89506
 Alpha  occ. eigenvalues --   -0.85498  -0.85388  -0.85328  -0.85105  -0.82317
 Alpha  occ. eigenvalues --   -0.82247  -0.73994  -0.73658  -0.71194  -0.70886
 Alpha  occ. eigenvalues --   -0.70188  -0.69977  -0.66729  -0.66571  -0.63932
 Alpha  occ. eigenvalues --   -0.61028  -0.60756  -0.58633  -0.57488  -0.56957
 Alpha  occ. eigenvalues --   -0.54939  -0.54883  -0.54299  -0.54034  -0.52234
 Alpha  occ. eigenvalues --   -0.52047  -0.51715  -0.51608  -0.51185  -0.51042
 Alpha  occ. eigenvalues --   -0.50314  -0.48729  -0.46978  -0.46485  -0.46183
 Alpha  occ. eigenvalues --   -0.45513  -0.44860  -0.44407  -0.43205  -0.43182
 Alpha  occ. eigenvalues --   -0.42991  -0.41921  -0.41209  -0.37643  -0.36581
 Alpha  occ. eigenvalues --   -0.33717  -0.33687  -0.33673  -0.32976  -0.30315
 Alpha  occ. eigenvalues --   -0.29681
 Alpha virt. eigenvalues --    0.01286   0.01914   0.03691   0.04170   0.04199
 Alpha virt. eigenvalues --    0.04506   0.04872   0.04956   0.05017   0.05131
 Alpha virt. eigenvalues --    0.05283   0.05691   0.05946   0.06887   0.07078
 Alpha virt. eigenvalues --    0.07209   0.08147   0.08300   0.08430   0.08943
 Alpha virt. eigenvalues --    0.09091   0.09174   0.09736   0.10819   0.11211
 Alpha virt. eigenvalues --    0.11353   0.12165   0.12464   0.12882   0.13430
 Alpha virt. eigenvalues --    0.13936   0.14212   0.14479   0.14648   0.15326
 Alpha virt. eigenvalues --    0.15694   0.15755   0.15806   0.16197   0.16260
 Alpha virt. eigenvalues --    0.16448   0.16560   0.16890   0.16920   0.17241
 Alpha virt. eigenvalues --    0.17404   0.17664   0.17978   0.18046   0.18415
 Alpha virt. eigenvalues --    0.18454   0.18615   0.18878   0.19290   0.19408
 Alpha virt. eigenvalues --    0.19636   0.19819   0.19942   0.20256   0.20634
 Alpha virt. eigenvalues --    0.20991   0.21225   0.21433   0.21862   0.21900
 Alpha virt. eigenvalues --    0.22073   0.22598   0.22904   0.23078   0.23406
 Alpha virt. eigenvalues --    0.23534   0.23723   0.23868   0.24195   0.24848
 Alpha virt. eigenvalues --    0.24889   0.25137   0.25391   0.25486   0.25679
 Alpha virt. eigenvalues --    0.26097   0.26350   0.26589   0.26887   0.26978
 Alpha virt. eigenvalues --    0.27448   0.27664   0.27884   0.28162   0.28672
 Alpha virt. eigenvalues --    0.28776   0.29012   0.29335   0.29571   0.29863
 Alpha virt. eigenvalues --    0.29988   0.30140   0.30490   0.30796   0.31280
 Alpha virt. eigenvalues --    0.31663   0.31941   0.32468   0.32542   0.33019
 Alpha virt. eigenvalues --    0.33141   0.33454   0.33775   0.34072   0.34432
 Alpha virt. eigenvalues --    0.34722   0.34763   0.35422   0.35508   0.35824
 Alpha virt. eigenvalues --    0.36093   0.36360   0.36611   0.36811   0.37115
 Alpha virt. eigenvalues --    0.37319   0.38010   0.38170   0.38264   0.38498
 Alpha virt. eigenvalues --    0.38956   0.39073   0.39757   0.40127   0.40617
 Alpha virt. eigenvalues --    0.40681   0.40937   0.41061   0.41603   0.41674
 Alpha virt. eigenvalues --    0.42195   0.42891   0.43220   0.43530   0.43655
 Alpha virt. eigenvalues --    0.44446   0.44887   0.44946   0.45315   0.45513
 Alpha virt. eigenvalues --    0.46321   0.47099   0.48249   0.48854   0.49252
 Alpha virt. eigenvalues --    0.50719   0.51115   0.53403   0.54709   0.57493
 Alpha virt. eigenvalues --    0.58557   0.59212   0.59585   0.60659   0.61574
 Alpha virt. eigenvalues --    0.61791   0.62278   0.62745   0.62825   0.63018
 Alpha virt. eigenvalues --    0.63220   0.63296   0.63532   0.63974   0.64186
 Alpha virt. eigenvalues --    0.64306   0.64924   0.65150   0.65722   0.65856
 Alpha virt. eigenvalues --    0.66008   0.66763   0.66871   0.67444   0.68592
 Alpha virt. eigenvalues --    0.68797   0.69098   0.69581   0.69927   0.70287
 Alpha virt. eigenvalues --    0.70836   0.71577   0.71873   0.72566   0.72852
 Alpha virt. eigenvalues --    0.72968   0.73316   0.74095   0.74343   0.74790
 Alpha virt. eigenvalues --    0.75088   0.75750   0.76298   0.76822   0.77345
 Alpha virt. eigenvalues --    0.78082   0.78712   0.78993   0.79344   0.80344
 Alpha virt. eigenvalues --    0.80677   0.80906   0.81377   0.81622   0.81724
 Alpha virt. eigenvalues --    0.82465   0.82480   0.83002   0.84072   0.84486
 Alpha virt. eigenvalues --    0.85007   0.85343   0.85408   0.86089   0.86508
 Alpha virt. eigenvalues --    0.86632   0.87751   0.88090   0.88467   0.89264
 Alpha virt. eigenvalues --    0.90318   0.91359   0.91521   0.92194   0.92713
 Alpha virt. eigenvalues --    0.92990   0.93737   0.93781   0.94192   0.94465
 Alpha virt. eigenvalues --    0.94641   0.95079   0.95404   0.96302   0.97001
 Alpha virt. eigenvalues --    0.97633   0.98262   0.98801   1.00032   1.00368
 Alpha virt. eigenvalues --    1.01284   1.01414   1.01778   1.02570   1.02672
 Alpha virt. eigenvalues --    1.03168   1.03569   1.04298   1.04741   1.05209
 Alpha virt. eigenvalues --    1.06046   1.06723   1.06937   1.07453   1.07870
 Alpha virt. eigenvalues --    1.08592   1.09186   1.09727   1.11299   1.11824
 Alpha virt. eigenvalues --    1.12304   1.12813   1.13565   1.13687   1.14451
 Alpha virt. eigenvalues --    1.15109   1.15776   1.15982   1.16984   1.17312
 Alpha virt. eigenvalues --    1.17858   1.18091   1.19676   1.20197   1.21053
 Alpha virt. eigenvalues --    1.21760   1.22262   1.22645   1.22984   1.23815
 Alpha virt. eigenvalues --    1.24968   1.25787   1.26294   1.28152   1.30221
 Alpha virt. eigenvalues --    1.32949   1.38666   1.41227   1.41758   1.42196
 Alpha virt. eigenvalues --    1.45946   1.46843   1.47292   1.52758   1.55266
 Alpha virt. eigenvalues --    1.56493   1.57659   1.58277   1.58563   1.58686
 Alpha virt. eigenvalues --    1.59121   1.59348   1.60224   1.61065   1.61715
 Alpha virt. eigenvalues --    1.62115   1.62583   1.63103   1.63621   1.63830
 Alpha virt. eigenvalues --    1.64562   1.65356   1.65578   1.65657   1.65974
 Alpha virt. eigenvalues --    1.66466   1.66883   1.67420   1.68447   1.69230
 Alpha virt. eigenvalues --    1.69999   1.72281   1.72929   1.73254   1.73856
 Alpha virt. eigenvalues --    1.74157   1.74604   1.75862   1.75903   1.76294
 Alpha virt. eigenvalues --    1.77498   1.77859   1.80672   1.81349   1.82017
 Alpha virt. eigenvalues --    1.82722   1.82951   1.83694   1.85164   1.85355
 Alpha virt. eigenvalues --    1.85538   1.86353   1.86728   1.86833   1.87387
 Alpha virt. eigenvalues --    1.90258   1.91655   1.92695   1.93027   1.93523
 Alpha virt. eigenvalues --    1.94346   1.94918   1.96683   1.98191   2.00098
 Alpha virt. eigenvalues --    2.00750   2.01288   2.01843   2.02470   2.02745
 Alpha virt. eigenvalues --    2.03184   2.03767   2.04145   2.04413   2.04525
 Alpha virt. eigenvalues --    2.04836   2.05112   2.05298   2.05543   2.05632
 Alpha virt. eigenvalues --    2.07139   2.07372   2.08183   2.08673   2.09030
 Alpha virt. eigenvalues --    2.09434   2.11401   2.12534   2.13024   2.13401
 Alpha virt. eigenvalues --    2.14269   2.14825   2.16630   2.17064   2.17140
 Alpha virt. eigenvalues --    2.18198   2.19636   2.20014   2.20254   2.23619
 Alpha virt. eigenvalues --    2.24863   2.28284   2.30903   2.34358   2.35732
 Alpha virt. eigenvalues --    2.36441   2.36826   2.39655   2.40714   2.42673
 Alpha virt. eigenvalues --    2.43391   2.44366   2.45082   2.48915   2.49028
 Alpha virt. eigenvalues --    2.50988   2.52377   2.53005   2.54058   2.54562
 Alpha virt. eigenvalues --    2.55242   2.56156   2.56377   2.57297   2.57605
 Alpha virt. eigenvalues --    2.58439   2.59004   2.60177   2.62478   2.62861
 Alpha virt. eigenvalues --    2.71160   2.73064   2.73197   2.73402   2.75910
 Alpha virt. eigenvalues --    2.76098   2.77142   2.78438   2.79254   2.79445
 Alpha virt. eigenvalues --    2.79901   2.80033   2.80394   2.80921   2.80998
 Alpha virt. eigenvalues --    2.81577   2.82124   2.82449   2.83319   2.83489
 Alpha virt. eigenvalues --    2.83816   2.84420   2.85498   2.86076   2.86528
 Alpha virt. eigenvalues --    2.87252   2.87987   2.88114   2.89781   2.90526
 Alpha virt. eigenvalues --    2.90776   2.91558   2.92495   2.92999   2.93753
 Alpha virt. eigenvalues --    2.94071   2.94192   2.95089   2.96549   2.97066
 Alpha virt. eigenvalues --    2.99737   3.00101   3.00309   3.01409   3.03133
 Alpha virt. eigenvalues --    3.04330   3.04745   3.04782   3.05160   3.05208
 Alpha virt. eigenvalues --    3.05975   3.07037   3.07306   3.11551   3.12947
 Alpha virt. eigenvalues --    3.14565   3.15541   3.18033   3.19828   3.20442
 Alpha virt. eigenvalues --    3.21436   3.24767   3.25953   3.31851   3.32677
 Alpha virt. eigenvalues --    3.33143   3.33769   3.35285   3.35773   3.38758
 Alpha virt. eigenvalues --    3.47393   3.47770   3.49252   3.49408   3.49706
 Alpha virt. eigenvalues --    3.49721   3.54319   3.54828   3.60929   3.61025
 Alpha virt. eigenvalues --    3.62907   3.63455   3.65175   3.65870   3.66326
 Alpha virt. eigenvalues --    3.73563   3.73742   3.75661   3.76788   3.76995
 Alpha virt. eigenvalues --    3.78218   3.88729   3.91650   3.92926   4.09829
 Alpha virt. eigenvalues --    4.10181   4.11036   4.14564   4.14593   4.14671
 Alpha virt. eigenvalues --    4.23610   4.24142   4.26250   4.26353   4.26908
 Alpha virt. eigenvalues --    4.27021   4.28830   4.33156   4.52588   4.66936
 Alpha virt. eigenvalues --    4.73730   4.93250   4.95397   4.95525   5.00164
 Alpha virt. eigenvalues --   23.67534  23.80005  23.81972  23.88143  24.08636
 Alpha virt. eigenvalues --   24.08908  24.10287  24.10698  24.10987  24.11702
 Alpha virt. eigenvalues --   24.12278  24.13132  24.20626  24.20691  24.21425
 Alpha virt. eigenvalues --   24.23321  24.24197  24.24276  24.24429  24.25109
 Alpha virt. eigenvalues --   24.31320  24.33773  24.33840  24.34665
          Condensed to atoms (all electrons):
               1          2          3          4          5          6
     1  C   14.513138  -1.366976  -0.382362  -4.373100  -0.089421   4.865868
     2  C   -1.366976  12.430201  -1.135021   1.929140   0.363044  -2.143999
     3  C   -0.382362  -1.135021  12.340714  -0.543435   0.117662  -1.719110
     4  C   -4.373100   1.929140  -0.543435  21.506490   0.024817  -2.404298
     5  H   -0.089421   0.363044   0.117662   0.024817   0.660466  -0.094597
     6  C    4.865868  -2.143999  -1.719110  -2.404298  -0.094597  13.317582
     7  C   -4.710996  -0.742125   2.142611  -9.978403   0.105614  -2.947953
     8  H   -0.092138   0.028476   0.229403   0.029556   0.009755  -0.068178
     9  C   -2.258043   0.683886   0.295101   1.455035   0.050061  -1.042257
    10  C    0.695686  -1.012642  -0.805500  -0.296821   0.099766   0.318791
    11  C   -1.334580   4.659736  -5.317325   0.708002  -0.131456  -1.285743
    12  C   -0.538020  -4.926830   4.088632  -0.986361  -0.017669  -0.508083
    13  C    0.425762  -0.883591  -1.564372  -1.355479  -0.004110   0.379568
    14  H    0.035004  -0.018642  -0.032052  -0.148650  -0.001815   0.001926
    15  C    1.150685   0.598731  -0.212094  -1.922429  -0.225846   0.311202
    16  C   -0.946745  -0.789070   0.102401   1.089485   0.195262  -0.172461
    17  C   -0.128240  -1.373365   0.261394  -0.049004  -0.026878  -0.666832
    18  H   -0.070043   0.080015  -0.124842  -0.043858  -0.029209  -0.028823
    19  C   -0.509406   0.339820  -1.006446   0.143445  -0.016949  -1.634784
    20  H   -0.028854  -0.072970   0.054694  -0.039370  -0.007487   0.006511
    21  C    0.633970  -0.062945   1.461740  -0.365731  -0.011536  -0.132989
    22  C   -0.946684   0.108580  -1.692821   0.906668   0.014012   0.038079
    23  C    0.266175   0.365934   0.031386   0.257434  -0.082540   0.067435
    24  H   -0.009968  -0.039231  -0.005184  -0.015676   0.006590  -0.001231
    25  C   -0.208948  -0.001779  -0.019676  -0.208167  -0.000292  -0.054124
    26  H    0.010905   0.014571  -0.010214   0.204267  -0.002712   0.007197
    27  C   -0.413476   0.096301  -0.107472  -0.020837  -0.008905  -0.307567
    28  H    0.014974  -0.022078   0.008366  -0.001654   0.001710   0.032641
    29  H    0.009625   0.003252  -0.012065   0.002208   0.000434   0.012234
    30  C    0.384286   0.014093   0.593984  -0.186113  -0.006045   0.123797
    31  H   -0.026292  -0.004115  -0.003208   0.009904   0.000066  -0.017539
    32  C   -0.111049   0.014620   0.039430   0.379562   0.001402  -0.061205
    33  H    0.007490  -0.001371   0.009295  -0.175977   0.000719   0.008674
    34  C    0.007012  -0.000495  -0.010200  -0.211853  -0.001241   0.013978
    35  H    0.001675   0.000990  -0.000853   0.000544  -0.000878  -0.000039
    36  H   -0.000910  -0.003053   0.000113  -0.012246   0.000303  -0.000363
    37  H    0.002689   0.004157  -0.000753   0.000593  -0.000362   0.037311
    38  C   -0.079748  -0.004070  -0.127110  -0.014100   0.001224  -0.008698
    39  H    0.004818  -0.000482   0.004085   0.001782  -0.000068   0.002349
    40  H    0.000862  -0.000059  -0.002452   0.013496  -0.000058  -0.000090
    41  H    0.001988   0.000767  -0.000259  -0.004206  -0.000128   0.000630
    42  H    0.001076  -0.000255  -0.000163  -0.000453   0.000015   0.000352
               7          8          9         10         11         12
     1  C   -4.710996  -0.092138  -2.258043   0.695686  -1.334580  -0.538020
     2  C   -0.742125   0.028476   0.683886  -1.012642   4.659736  -4.926830
     3  C    2.142611   0.229403   0.295101  -0.805500  -5.317325   4.088632
     4  C   -9.978403   0.029556   1.455035  -0.296821   0.708002  -0.986361
     5  H    0.105614   0.009755   0.050061   0.099766  -0.131456  -0.017669
     6  C   -2.947953  -0.068178  -1.042257   0.318791  -1.285743  -0.508083
     7  C   23.502781   0.041536  -0.085268  -0.699770  -1.691848   0.585228
     8  H    0.041536   0.977287   0.041011   0.011126  -0.012643  -0.009645
     9  C   -0.085268   0.041011  12.827075  -2.728056   0.275211   0.248476
    10  C   -0.699770   0.011126  -2.728056  14.642431  -0.502020   0.072923
    11  C   -1.691848  -0.012643   0.275211  -0.502020  20.172680  -8.846848
    12  C    0.585228  -0.009645   0.248476   0.072923  -8.846848  17.951457
    13  C    1.063414   0.248125  -2.769480   0.921241   0.078974  -0.388566
    14  H    0.076132  -0.003097   0.283786   0.081913   0.006612  -0.003485
    15  C    0.444539  -0.034025  -0.249426  -2.008503   0.288860   0.041098
    16  C   -0.430006   0.021035  -0.206990  -0.832122  -0.278111   0.011766
    17  C    0.292603  -0.024879  -0.050068  -0.133835  -3.675650   2.661011
    18  H   -0.100420  -0.005874   0.007746  -0.063505   0.775546  -0.014245
    19  C   -0.120000   0.023646   0.055827   0.085728   2.622673  -2.594517
    20  H   -0.063285  -0.154414   0.009159  -0.008733  -0.001156   0.629667
    21  C   -0.487086  -0.312832  -1.131319  -0.005675  -0.008220  -0.050608
    22  C   -1.013614   0.204596   0.941290   0.053415  -0.005038  -0.157467
    23  C   -0.331419  -0.006205   0.306550  -1.538604   0.034701   0.028778
    24  H    0.044881   0.000629  -0.027949  -0.000055  -0.012426  -0.004305
    25  C    0.494081   0.003153   0.591005  -1.217772   0.073969  -0.026389
    26  H   -0.181565   0.001189  -0.100215  -0.012172  -0.012925   0.007385
    27  C   -0.097464   0.004552   0.016364  -0.022972   0.307446  -0.628989
    28  H    0.005399   0.001348  -0.000273   0.000654  -0.149390   0.050639
    29  H   -0.000097   0.010890   0.000551   0.000361   0.039203  -0.113497
    30  C    0.047043  -0.116000   0.173895  -0.032081   0.026136  -0.006194
    31  H    0.025213  -0.022257  -0.035999   0.009269  -0.005821  -0.006255
    32  C    0.234415   0.002924   0.541171  -0.121904  -0.020467   0.079771
    33  H    0.191333  -0.009367  -0.094888  -0.006592   0.006656  -0.014234
    34  C   -0.025614   0.000399  -0.220097  -0.375188  -0.026498   0.003939
    35  H   -0.000282  -0.000086   0.005139   0.024460   0.001723   0.000138
    36  H    0.012918  -0.000046   0.020346   0.033086   0.000798  -0.000210
    37  H   -0.000541  -0.002279   0.000053  -0.000321  -0.000180  -0.026733
    38  C   -0.266262   0.007728  -0.150003   0.028383  -0.000055  -0.027751
    39  H   -0.004698  -0.001384   0.004048  -0.000770   0.000454   0.000285
    40  H   -0.013692   0.001053   0.017236  -0.002494  -0.000111   0.000888
    41  H   -0.000893   0.000018  -0.010132   0.022793  -0.000539   0.000095
    42  H   -0.003988  -0.000716  -0.006968   0.000845   0.000056  -0.000439
              13         14         15         16         17         18
     1  C    0.425762   0.035004   1.150685  -0.946745  -0.128240  -0.070043
     2  C   -0.883591  -0.018642   0.598731  -0.789070  -1.373365   0.080015
     3  C   -1.564372  -0.032052  -0.212094   0.102401   0.261394  -0.124842
     4  C   -1.355479  -0.148650  -1.922429   1.089485  -0.049004  -0.043858
     5  H   -0.004110  -0.001815  -0.225846   0.195262  -0.026878  -0.029209
     6  C    0.379568   0.001926   0.311202  -0.172461  -0.666832  -0.028823
     7  C    1.063414   0.076132   0.444539  -0.430006   0.292603  -0.100420
     8  H    0.248125  -0.003097  -0.034025   0.021035  -0.024879  -0.005874
     9  C   -2.769480   0.283786  -0.249426  -0.206990  -0.050068   0.007746
    10  C    0.921241   0.081913  -2.008503  -0.832122  -0.133835  -0.063505
    11  C    0.078974   0.006612   0.288860  -0.278111  -3.675650   0.775546
    12  C   -0.388566  -0.003485   0.041098   0.011766   2.661011  -0.014245
    13  C   14.167535   0.097003   0.099138  -0.068419   0.061926  -0.007424
    14  H    0.097003   0.481453   0.095601  -0.113543   0.001981  -0.000443
    15  C    0.099138   0.095601  18.114303  -9.625633   0.092788   0.040504
    16  C   -0.068419  -0.113543  -9.625633  20.002925  -0.030686  -0.037018
    17  C    0.061926   0.001981   0.092788  -0.030686  11.249183  -0.192923
    18  H   -0.007424  -0.000443   0.040504  -0.037018  -0.192923   0.608441
    19  C   -0.029111  -0.002735  -0.028086   0.016321  -2.450047   0.098229
    20  H   -0.080929   0.000315   0.009737  -0.005554   0.053945   0.005546
    21  C   -1.457129   0.062744   0.132536  -0.103280   0.016309  -0.003546
    22  C   -0.797922  -0.071589  -0.192077   0.305240  -0.009127   0.001062
    23  C   -0.071488   0.007314  -1.439950  -0.153526  -0.034755   0.041887
    24  H    0.014504  -0.000130   0.532100  -0.027885   0.013139  -0.008112
    25  C   -0.092152  -0.029061   0.782717  -2.300110   0.004920   0.001595
    26  H   -0.014114  -0.000388  -0.093344   0.558306  -0.001615  -0.000031
    27  C   -0.018899   0.000198   0.015457  -0.007544   0.154607   0.040656
    28  H    0.000584   0.000017  -0.000532   0.000594   0.461122  -0.020540
    29  H    0.002524  -0.000019  -0.000464   0.000224  -0.015545  -0.000986
    30  C   -1.519731   0.016234   0.020226  -0.026223   0.001344   0.000534
    31  H   -0.028698  -0.000770   0.002531  -0.001205  -0.000731  -0.000060
    32  C   -1.395227  -0.032403  -0.001470  -0.006181  -0.000576   0.000497
    33  H   -0.000439   0.005567  -0.003030   0.011861   0.000947  -0.000121
    34  C    0.041750   0.006470  -0.189412   0.278522   0.001229   0.000260
    35  H   -0.001031  -0.000070  -0.107230   0.008102  -0.000640   0.000367
    36  H   -0.003258  -0.001286   0.021836  -0.112378  -0.000005   0.000035
    37  H   -0.000410  -0.000003   0.000200  -0.000062  -0.061470   0.001736
    38  C   -0.396279   0.004167  -0.002138   0.004903  -0.000082  -0.000265
    39  H    0.015655   0.000004  -0.000012   0.000135   0.000034   0.000010
    40  H    0.017646  -0.001838  -0.000224   0.001058  -0.000008   0.000010
    41  H    0.001009   0.000475   0.007825   0.006332   0.000009  -0.000068
    42  H    0.026432   0.000521   0.000076  -0.000282  -0.000002  -0.000003
              19         20         21         22         23         24
     1  C   -0.509406  -0.028854   0.633970  -0.946684   0.266175  -0.009968
     2  C    0.339820  -0.072970  -0.062945   0.108580   0.365934  -0.039231
     3  C   -1.006446   0.054694   1.461740  -1.692821   0.031386  -0.005184
     4  C    0.143445  -0.039370  -0.365731   0.906668   0.257434  -0.015676
     5  H   -0.016949  -0.007487  -0.011536   0.014012  -0.082540   0.006590
     6  C   -1.634784   0.006511  -0.132989   0.038079   0.067435  -0.001231
     7  C   -0.120000  -0.063285  -0.487086  -1.013614  -0.331419   0.044881
     8  H    0.023646  -0.154414  -0.312832   0.204596  -0.006205   0.000629
     9  C    0.055827   0.009159  -1.131319   0.941290   0.306550  -0.027949
    10  C    0.085728  -0.008733  -0.005675   0.053415  -1.538604  -0.000055
    11  C    2.622673  -0.001156  -0.008220  -0.005038   0.034701  -0.012426
    12  C   -2.594517   0.629667  -0.050608  -0.157467   0.028778  -0.004305
    13  C   -0.029111  -0.080929  -1.457129  -0.797922  -0.071488   0.014504
    14  H   -0.002735   0.000315   0.062744  -0.071589   0.007314  -0.000130
    15  C   -0.028086   0.009737   0.132536  -0.192077  -1.439950   0.532100
    16  C    0.016321  -0.005554  -0.103280   0.305240  -0.153526  -0.027885
    17  C   -2.450047   0.053945   0.016309  -0.009127  -0.034755   0.013139
    18  H    0.098229   0.005546  -0.003546   0.001062   0.041887  -0.008112
    19  C   10.667560  -0.126733  -0.041080   0.010739   0.005161  -0.002928
    20  H   -0.126733   0.650402   0.040809  -0.031647   0.001565  -0.000465
    21  C   -0.041080   0.040809  16.601764  -7.836221  -0.002271   0.004490
    22  C    0.010739  -0.031647  -7.836221  18.808400   0.000806  -0.003724
    23  C    0.005161   0.001565  -0.002271   0.000806   8.797848  -0.170630
    24  H   -0.002928  -0.000465   0.004490  -0.003724  -0.170630   0.490253
    25  C   -0.002366  -0.000375  -0.008783   0.022209  -0.358609   0.003951
    26  H    0.001193  -0.000100  -0.005170   0.024507  -0.009534  -0.000474
    27  C    0.770329   0.012064   0.002333  -0.004987   0.002107  -0.000825
    28  H   -0.031441  -0.002284  -0.000135   0.000060  -0.001247   0.000503
    29  H    0.432072  -0.025428  -0.002727   0.001079  -0.000028   0.000014
    30  C   -0.032674   0.027566  -1.253828  -0.819400   0.001564   0.000058
    31  H    0.005645   0.002884   0.534512  -0.037585  -0.000127   0.000299
    32  C    0.004031   0.003885   0.174674  -2.271740   0.009770  -0.001235
    33  H   -0.001303   0.000824  -0.049308   0.508943  -0.000908   0.000103
    34  C    0.000039  -0.000092   0.007661  -0.015035   0.015191   0.013866
    35  H    0.000086   0.000025  -0.000261   0.000440   0.440612  -0.010568
    36  H   -0.000009   0.000004  -0.000696   0.002117   0.011111   0.000086
    37  H   -0.028235   0.004605   0.000132  -0.000054   0.000045  -0.000029
    38  C    0.001196  -0.003259  -0.117431   0.649307  -0.001225   0.000182
    39  H   -0.000710   0.000322  -0.087535   0.003117   0.000030  -0.000008
    40  H    0.000028  -0.000079   0.023169  -0.097493   0.000061  -0.000005
    41  H    0.000004  -0.000003   0.000172  -0.000512  -0.071373   0.000495
    42  H    0.000035   0.000027  -0.007779   0.001986  -0.000009   0.000003
              25         26         27         28         29         30
     1  C   -0.208948   0.010905  -0.413476   0.014974   0.009625   0.384286
     2  C   -0.001779   0.014571   0.096301  -0.022078   0.003252   0.014093
     3  C   -0.019676  -0.010214  -0.107472   0.008366  -0.012065   0.593984
     4  C   -0.208167   0.204267  -0.020837  -0.001654   0.002208  -0.186113
     5  H   -0.000292  -0.002712  -0.008905   0.001710   0.000434  -0.006045
     6  C   -0.054124   0.007197  -0.307567   0.032641   0.012234   0.123797
     7  C    0.494081  -0.181565  -0.097464   0.005399  -0.000097   0.047043
     8  H    0.003153   0.001189   0.004552   0.001348   0.010890  -0.116000
     9  C    0.591005  -0.100215   0.016364  -0.000273   0.000551   0.173895
    10  C   -1.217772  -0.012172  -0.022972   0.000654   0.000361  -0.032081
    11  C    0.073969  -0.012925   0.307446  -0.149390   0.039203   0.026136
    12  C   -0.026389   0.007385  -0.628989   0.050639  -0.113497  -0.006194
    13  C   -0.092152  -0.014114  -0.018899   0.000584   0.002524  -1.519731
    14  H   -0.029061  -0.000388   0.000198   0.000017  -0.000019   0.016234
    15  C    0.782717  -0.093344   0.015457  -0.000532  -0.000464   0.020226
    16  C   -2.300110   0.558306  -0.007544   0.000594   0.000224  -0.026223
    17  C    0.004920  -0.001615   0.154607   0.461122  -0.015545   0.001344
    18  H    0.001595  -0.000031   0.040656  -0.020540  -0.000986   0.000534
    19  C   -0.002366   0.001193   0.770329  -0.031441   0.432072  -0.032674
    20  H   -0.000375  -0.000100   0.012064  -0.002284  -0.025428   0.027566
    21  C   -0.008783  -0.005170   0.002333  -0.000135  -0.002727  -1.253828
    22  C    0.022209   0.024507  -0.004987   0.000060   0.001079  -0.819400
    23  C   -0.358609  -0.009534   0.002107  -0.001247  -0.000028   0.001564
    24  H    0.003951  -0.000474  -0.000825   0.000503   0.000014   0.000058
    25  C    8.583805  -0.111392   0.000735  -0.000036   0.000010   0.008152
    26  H   -0.111392   0.499845  -0.000110  -0.000001   0.000004  -0.001317
    27  C    0.000735  -0.000110   6.428677  -0.057726  -0.044542   0.002584
    28  H   -0.000036  -0.000001  -0.057726   0.480374   0.002092  -0.000019
    29  H    0.000010   0.000004  -0.044542   0.002092   0.480853  -0.000923
    30  C    0.008152  -0.001317   0.002584  -0.000019  -0.000923   9.059165
    31  H   -0.001073  -0.000016  -0.000149  -0.000038  -0.000308  -0.117399
    32  C   -0.040924   0.003663   0.000387  -0.000001  -0.000015  -0.081619
    33  H    0.008040  -0.007713  -0.000187   0.000005  -0.000010  -0.007089
    34  C    0.107940   0.030334  -0.000283  -0.000029  -0.000004  -0.000887
    35  H    0.005075  -0.000438   0.000009  -0.000006   0.000000   0.000025
    36  H    0.426738  -0.013216   0.000006  -0.000000   0.000000   0.000047
    37  H    0.000006  -0.000001   0.423052  -0.011531  -0.012094   0.000048
    38  C   -0.003594   0.000049  -0.000334  -0.000001  -0.000011  -0.151348
    39  H    0.000048   0.000034   0.000003   0.000001   0.000009   0.434195
    40  H    0.000083   0.000604   0.000005  -0.000000   0.000002   0.002073
    41  H   -0.076427   0.002138  -0.000006   0.000001  -0.000000  -0.000006
    42  H   -0.000089  -0.000047  -0.000003  -0.000000  -0.000002  -0.050447
              31         32         33         34         35         36
     1  C   -0.026292  -0.111049   0.007490   0.007012   0.001675  -0.000910
     2  C   -0.004115   0.014620  -0.001371  -0.000495   0.000990  -0.003053
     3  C   -0.003208   0.039430   0.009295  -0.010200  -0.000853   0.000113
     4  C    0.009904   0.379562  -0.175977  -0.211853   0.000544  -0.012246
     5  H    0.000066   0.001402   0.000719  -0.001241  -0.000878   0.000303
     6  C   -0.017539  -0.061205   0.008674   0.013978  -0.000039  -0.000363
     7  C    0.025213   0.234415   0.191333  -0.025614  -0.000282   0.012918
     8  H   -0.022257   0.002924  -0.009367   0.000399  -0.000086  -0.000046
     9  C   -0.035999   0.541171  -0.094888  -0.220097   0.005139   0.020346
    10  C    0.009269  -0.121904  -0.006592  -0.375188   0.024460   0.033086
    11  C   -0.005821  -0.020467   0.006656  -0.026498   0.001723   0.000798
    12  C   -0.006255   0.079771  -0.014234   0.003939   0.000138  -0.000210
    13  C   -0.028698  -1.395227  -0.000439   0.041750  -0.001031  -0.003258
    14  H   -0.000770  -0.032403   0.005567   0.006470  -0.000070  -0.001286
    15  C    0.002531  -0.001470  -0.003030  -0.189412  -0.107230   0.021836
    16  C   -0.001205  -0.006181   0.011861   0.278522   0.008102  -0.112378
    17  C   -0.000731  -0.000576   0.000947   0.001229  -0.000640  -0.000005
    18  H   -0.000060   0.000497  -0.000121   0.000260   0.000367   0.000035
    19  C    0.005645   0.004031  -0.001303   0.000039   0.000086  -0.000009
    20  H    0.002884   0.003885   0.000824  -0.000092   0.000025   0.000004
    21  C    0.534512   0.174674  -0.049308   0.007661  -0.000261  -0.000696
    22  C   -0.037585  -2.271740   0.508943  -0.015035   0.000440   0.002117
    23  C   -0.000127   0.009770  -0.000908   0.015191   0.440612   0.011111
    24  H    0.000299  -0.001235   0.000103   0.013866  -0.010568   0.000086
    25  C   -0.001073  -0.040924   0.008040   0.107940   0.005075   0.426738
    26  H   -0.000016   0.003663  -0.007713   0.030334  -0.000438  -0.013216
    27  C   -0.000149   0.000387  -0.000187  -0.000283   0.000009   0.000006
    28  H   -0.000038  -0.000001   0.000005  -0.000029  -0.000006  -0.000000
    29  H   -0.000308  -0.000015  -0.000010  -0.000004   0.000000   0.000000
    30  C   -0.117399  -0.081619  -0.007089  -0.000887   0.000025   0.000047
    31  H    0.481698  -0.001606   0.000822   0.000185  -0.000010  -0.000001
    32  C   -0.001606   8.977488  -0.106443  -0.005846   0.000059   0.000524
    33  H    0.000822  -0.106443   0.501628  -0.000904   0.000048   0.000685
    34  C    0.000185  -0.005846  -0.000904   6.621609  -0.051507  -0.069866
    35  H   -0.000010   0.000059   0.000048  -0.051507   0.472351   0.000676
    36  H   -0.000001   0.000524   0.000685  -0.069866   0.000676   0.474507
    37  H    0.000050  -0.000000   0.000000   0.000000  -0.000000  -0.000000
    38  C    0.017941  -0.205237   0.022833   0.000380  -0.000006   0.000030
    39  H   -0.008567   0.005888  -0.000247  -0.000005   0.000000  -0.000001
    40  H    0.000082   0.421750  -0.011057   0.000015  -0.000001  -0.000038
    41  H    0.000002  -0.000122  -0.000072   0.458630  -0.009210  -0.011294
    42  H    0.000413  -0.062297   0.001527   0.000004  -0.000000   0.000001
              37         38         39         40         41         42
     1  C    0.002689  -0.079748   0.004818   0.000862   0.001988   0.001076
     2  C    0.004157  -0.004070  -0.000482  -0.000059   0.000767  -0.000255
     3  C   -0.000753  -0.127110   0.004085  -0.002452  -0.000259  -0.000163
     4  C    0.000593  -0.014100   0.001782   0.013496  -0.004206  -0.000453
     5  H   -0.000362   0.001224  -0.000068  -0.000058  -0.000128   0.000015
     6  C    0.037311  -0.008698   0.002349  -0.000090   0.000630   0.000352
     7  C   -0.000541  -0.266262  -0.004698  -0.013692  -0.000893  -0.003988
     8  H   -0.002279   0.007728  -0.001384   0.001053   0.000018  -0.000716
     9  C    0.000053  -0.150003   0.004048   0.017236  -0.010132  -0.006968
    10  C   -0.000321   0.028383  -0.000770  -0.002494   0.022793   0.000845
    11  C   -0.000180  -0.000055   0.000454  -0.000111  -0.000539   0.000056
    12  C   -0.026733  -0.027751   0.000285   0.000888   0.000095  -0.000439
    13  C   -0.000410  -0.396279   0.015655   0.017646   0.001009   0.026432
    14  H   -0.000003   0.004167   0.000004  -0.001838   0.000475   0.000521
    15  C    0.000200  -0.002138  -0.000012  -0.000224   0.007825   0.000076
    16  C   -0.000062   0.004903   0.000135   0.001058   0.006332  -0.000282
    17  C   -0.061470  -0.000082   0.000034  -0.000008   0.000009  -0.000002
    18  H    0.001736  -0.000265   0.000010   0.000010  -0.000068  -0.000003
    19  C   -0.028235   0.001196  -0.000710   0.000028   0.000004   0.000035
    20  H    0.004605  -0.003259   0.000322  -0.000079  -0.000003   0.000027
    21  C    0.000132  -0.117431  -0.087535   0.023169   0.000172  -0.007779
    22  C   -0.000054   0.649307   0.003117  -0.097493  -0.000512   0.001986
    23  C    0.000045  -0.001225   0.000030   0.000061  -0.071373  -0.000009
    24  H   -0.000029   0.000182  -0.000008  -0.000005   0.000495   0.000003
    25  C    0.000006  -0.003594   0.000048   0.000083  -0.076427  -0.000089
    26  H   -0.000001   0.000049   0.000034   0.000604   0.002138  -0.000047
    27  C    0.423052  -0.000334   0.000003   0.000005  -0.000006  -0.000003
    28  H   -0.011531  -0.000001   0.000001  -0.000000   0.000001  -0.000000
    29  H   -0.012094  -0.000011   0.000009   0.000002  -0.000000  -0.000002
    30  C    0.000048  -0.151348   0.434195   0.002073  -0.000006  -0.050447
    31  H    0.000050   0.017941  -0.008567   0.000082   0.000002   0.000413
    32  C   -0.000000  -0.205237   0.005888   0.421750  -0.000122  -0.062297
    33  H    0.000000   0.022833  -0.000247  -0.011057  -0.000072   0.001527
    34  C    0.000000   0.000380  -0.000005   0.000015   0.458630   0.000004
    35  H   -0.000000  -0.000006   0.000000  -0.000001  -0.009210  -0.000000
    36  H   -0.000000   0.000030  -0.000001  -0.000038  -0.011294   0.000001
    37  H    0.480852  -0.000002  -0.000001  -0.000000  -0.000000   0.000000
    38  C   -0.000002   6.811325  -0.049503  -0.053160   0.000003   0.436195
    39  H   -0.000001  -0.049503   0.470162   0.000367  -0.000000  -0.007732
    40  H   -0.000000  -0.053160   0.000367   0.471343   0.000001  -0.009186
    41  H   -0.000000   0.000003  -0.000000   0.000001   0.484290   0.000000
    42  H    0.000000   0.436195  -0.007732  -0.009186   0.000000   0.480043
 Mulliken charges:
               1
     1  C    1.592312
     2  C   -1.131153
     3  C   -0.946020
     4  C    0.695796
     5  H    0.107278
     6  C    1.754842
     7  C    0.687546
     8  H   -0.023373
     9  C   -1.682593
    10  C    1.325233
    11  C   -0.760386
    12  C   -0.564836
    13  C    1.285471
    14  H    0.196579
    15  C   -0.466764
    16  C   -0.339438
    17  C   -0.401530
    18  H    0.047685
    19  C   -0.624247
    20  H    0.138659
    21  C   -0.150893
    22  C   -0.601914
    23  C   -0.419019
    24  H    0.216897
    25  C   -0.356094
    26  H    0.212635
    27  C   -0.534594
    28  H    0.237877
    29  H    0.231123
    30  C   -0.527706
    31  H    0.228310
    32  C   -0.368345
    33  H    0.203262
    34  C   -0.404359
    35  H    0.220574
    36  H    0.222905
    37  H    0.189532
    38  C   -0.324177
    39  H    0.213887
    40  H    0.220211
    41  H    0.197572
    42  H    0.201252
 Sum of Mulliken charges =  -0.00000
 Mulliken charges with hydrogens summed into heavy atoms:
               1
     1  C    1.592312
     2  C   -1.023875
     3  C   -0.969394
     4  C    0.695796
     6  C    1.754842
     7  C    0.687546
     9  C   -1.486013
    10  C    1.325233
    11  C   -0.712700
    12  C   -0.426177
    13  C    1.285471
    15  C   -0.249867
    16  C   -0.126802
    17  C   -0.163653
    19  C   -0.393123
    21  C    0.077418
    22  C   -0.398653
    23  C   -0.198446
    25  C   -0.133188
    27  C   -0.345062
    30  C   -0.313819
    32  C   -0.148134
    34  C   -0.206786
    38  C   -0.122925
 Electronic spatial extent (au):  <R**2>=          10005.6440
 Charge=              0.0000 electrons
 Dipole moment (field-independent basis, Debye):
    X=              0.0035    Y=             -0.0143    Z=              0.0055  Tot=              0.0157
 Quadrupole moment (field-independent basis, Debye-Ang):
   XX=           -122.9598   YY=           -126.0198   ZZ=           -145.0294
   XY=              0.0095   XZ=             -1.2085   YZ=              6.1083
 Traceless Quadrupole moment (field-independent basis, Debye-Ang):
   XX=              8.3765   YY=              5.3165   ZZ=            -13.6931
   XY=              0.0095   XZ=             -1.2085   YZ=              6.1083
 Octapole moment (field-independent basis, Debye-Ang**2):
  XXX=              0.3944  YYY=             35.4076  ZZZ=              1.7832  XYY=             -1.6138
  XXY=            -20.9872  XXZ=             32.6384  XZZ=              1.1779  YZZ=            -14.4387
  YYZ=            -34.4540  XYZ=             -4.5105
 Hexadecapole moment (field-independent basis, Debye-Ang**3):
 XXXX=          -6349.3883 YYYY=          -6250.7072 ZZZZ=           -421.7031 XXXY=             -4.0099
 XXXZ=             -5.9112 YYYX=              1.2914 YYYZ=             96.1026 ZZZX=              0.8243
 ZZZY=             26.7802 XXYY=          -2023.7906 XXZZ=          -1238.1828 YYZZ=          -1289.9316
 XXYZ=             32.7024 YYXZ=            -25.2333 ZZXY=              3.2718
 N-N= 1.734463734373D+03 E-N=-5.615258965321D+03  KE= 9.213181303594D+02
 No NMR shielding tensors so no spin-rotation constants.
 Leave Link  601 at Mon Nov 14 15:17:02 2022, MaxMem= 16106127360 cpu:               9.0 elap:               0.3
 (Enter /opt/ap/G16/B01/g16/l9999.exe)
 1\1\GINC-N59\SP\RwB97XD\6-311++G(d,p)\C24H18\ROOT\14-Nov-2022\0\\#P wB
 97XD/6-311++G(d,p) scf=maxcycle=512\\_conf020.gjf nmol_natom 1_42\\0,1
 \C\C,1,1.39412829\C,1,1.39435449,2,118.86443127\C,2,1.39416084,1,121.1
 529487,3,0.03668482,0\H,2,1.08488355,1,119.42236619,3,-179.97409048,0\
 C,1,1.48467131,2,120.55714816,4,179.25839056,0\C,3,1.39437784,1,121.11
 776116,2,-0.05351271,0\H,3,1.08487775,1,119.41869036,2,177.23008049,0\
 C,4,1.39432447,2,118.86473838,1,0.01008406,0\C,4,1.48466627,2,120.5464
 188,1,179.19454736,0\C,6,1.3968498,1,120.7843492,2,10.,0\C,6,1.3968682
 ,1,120.67653841,2,-170.,0\C,7,1.48449863,3,120.56496838,1,-179.9632580
 4,0\H,9,1.0848792,4,119.41824946,2,177.22245984,0\C,10,1.39685361,4,12
 0.76946845,2,-42.52368674,0\C,10,1.39686289,4,120.69448769,2,137.43107
 516,0\C,11,1.38888939,6,120.7380073,1,179.94058542,0\H,11,1.0847641,6,
 119.46912378,1,-1.41050605,0\C,12,1.38882428,6,120.76493111,1,-179.950
 82712,0\H,12,1.08482758,6,119.44182626,1,-1.23602505,0\C,13,1.39682899
 ,7,120.74134419,3,42.89023273,0\C,13,1.39683158,7,120.7379111,3,-137.1
 2494058,0\C,15,1.38888263,10,120.742191,4,179.9460119,0\H,15,1.0847633
 4,10,119.47085903,4,-1.40606944,0\C,16,1.38886088,10,120.76338989,4,-1
 79.95592713,0\H,16,1.08483431,10,119.44215232,4,-1.23439681,0\C,17,1.3
 9007919,11,120.20743432,6,0.00349958,0\H,17,1.0843506,11,119.71318733,
 6,179.5011609,0\H,19,1.08435858,12,119.73823132,6,179.53683762,0\C,21,
 1.38882373,13,120.76699356,7,179.99297883,0\H,21,1.0847938,13,119.4352
 623,7,1.32183327,0\C,22,1.38881869,13,120.76647403,7,-179.97118338,0\H
 ,22,1.08479982,13,119.43203605,7,1.34657928,0\C,23,1.39007007,15,120.2
 0732995,10,0.00573957,0\H,23,1.08434813,15,119.71220819,10,179.5072436
 8,0\H,25,1.08436328,16,119.73539424,10,179.53636455,0\H,27,1.08412515,
 17,120.21790854,11,179.98397203,0\C,30,1.39008059,21,120.18795226,13,-
 0.02169059,0\H,30,1.08435324,21,119.73787119,13,-179.52151214,0\H,32,1
 .0843543,22,119.737043,13,-179.52886928,0\H,34,1.08412314,23,120.22152
 803,15,179.98800213,0\H,38,1.08411439,30,120.21547163,21,-179.98600656
 ,0\\Version=ES64L-G16RevB.01\State=1-A\HF=-925.3068584\RMSD=8.404e-09\
 Dipole=0.0055778,0.0020112,0.0017773\Quadrupole=4.3001839,-9.8964392,5
 .5962552,-4.7617523,-1.0812174,-1.6548859\PG=C01 [X(C24H18)]\\@


 THE TEST OF A FIRST RATE INTELLIGENCE IS THE ABILITY TO HOLD TWO OPPOSED
 IDEAS IN THE MIND AT THE SAME TIME, AND STILL RETAIN THE ABILITY TO FUNCTION.
 ONE SHOULD, FOR EXAMPLE, BE ABLE TO SEE THAT THINGS ARE HOPELESS AND YET BE
 DETERMINED TO MAKE THEM OTHERWISE.

                                                       -- F. SCOTT FITZGERALD
 Job cpu time:       0 days  1 hours 18 minutes 25.1 seconds.
 Elapsed time:       0 days  0 hours  2 minutes 27.6 seconds.
 File lengths (MBytes):  RWF=    224 Int=      0 D2E=      0 Chk=     26 Scr=      1
 Normal termination of Gaussian 16 at Mon Nov 14 15:17:02 2022.
