 Entering Gaussian System, Link 0=g16
 Input=_conf023.gjf
 Output=_conf023.log
 Initial command:
 /opt/ap/G16/B01/g16/l1.exe "/tmp2/scr/Gau-23638.inp" -scrdir="/tmp2/scr/"
 Entering Link 1 = /opt/ap/G16/B01/g16/l1.exe PID=     23639.
  
 Copyright (c) 1988-2017, Gaussian, Inc.  All Rights Reserved.
  
 This is part of the Gaussian(R) 16 program.  It is based on
 the Gaussian(R) 09 system (copyright 2009, Gaussian, Inc.),
 the Gaussian(R) 03 system (copyright 2003, Gaussian, Inc.),
 the Gaussian(R) 98 system (copyright 1998, Gaussian, Inc.),
 the Gaussian(R) 94 system (copyright 1995, Gaussian, Inc.),
 the Gaussian 92(TM) system (copyright 1992, Gaussian, Inc.),
 the Gaussian 90(TM) system (copyright 1990, Gaussian, Inc.),
 the Gaussian 88(TM) system (copyright 1988, Gaussian, Inc.),
 the Gaussian 86(TM) system (copyright 1986, Carnegie Mellon
 University), and the Gaussian 82(TM) system (copyright 1983,
 Carnegie Mellon University). Gaussian is a federally registered
 trademark of Gaussian, Inc.
  
 This software contains proprietary and confidential information,
 including trade secrets, belonging to Gaussian, Inc.
  
 This software is provided under written license and may be
 used, copied, transmitted, or stored only in accord with that
 written license.
  
 The following legend is applicable only to US Government
 contracts under FAR:
  
                    RESTRICTED RIGHTS LEGEND
  
 Use, reproduction and disclosure by the US Government is
 subject to restrictions as set forth in subparagraphs (a)
 and (c) of the Commercial Computer Software - Restricted
 Rights clause in FAR 52.227-19.
  
 Gaussian, Inc.
 340 Quinnipiac St., Bldg. 40, Wallingford CT 06492
  
  
 ---------------------------------------------------------------
 Warning -- This program may not be used in any manner that
 competes with the business of Gaussian, Inc. or will provide
 assistance to any competitor of Gaussian, Inc.  The licensee
 of this program is prohibited from giving any competitor of
 Gaussian, Inc. access to this program.  By using this program,
 the user acknowledges that Gaussian, Inc. is engaged in the
 business of creating and licensing software in the field of
 computational chemistry and represents and warrants to the
 licensee that it is not a competitor of Gaussian, Inc. and that
 it will not use this program in any manner prohibited above.
 ---------------------------------------------------------------
  

 Cite this work as:
 Gaussian 16, Revision B.01,
 M. J. Frisch, G. W. Trucks, H. B. Schlegel, G. E. Scuseria, 
 M. A. Robb, J. R. Cheeseman, G. Scalmani, V. Barone, 
 G. A. Petersson, H. Nakatsuji, X. Li, M. Caricato, A. V. Marenich, 
 J. Bloino, B. G. Janesko, R. Gomperts, B. Mennucci, H. P. Hratchian, 
 J. V. Ortiz, A. F. Izmaylov, J. L. Sonnenberg, D. Williams-Young, 
 F. Ding, F. Lipparini, F. Egidi, J. Goings, B. Peng, A. Petrone, 
 T. Henderson, D. Ranasinghe, V. G. Zakrzewski, J. Gao, N. Rega, 
 G. Zheng, W. Liang, M. Hada, M. Ehara, K. Toyota, R. Fukuda, 
 J. Hasegawa, M. Ishida, T. Nakajima, Y. Honda, O. Kitao, H. Nakai, 
 T. Vreven, K. Throssell, J. A. Montgomery, Jr., J. E. Peralta, 
 F. Ogliaro, M. J. Bearpark, J. J. Heyd, E. N. Brothers, K. N. Kudin, 
 V. N. Staroverov, T. A. Keith, R. Kobayashi, J. Normand, 
 K. Raghavachari, A. P. Rendell, J. C. Burant, S. S. Iyengar, 
 J. Tomasi, M. Cossi, J. M. Millam, M. Klene, C. Adamo, R. Cammi, 
 J. W. Ochterski, R. L. Martin, K. Morokuma, O. Farkas, 
 J. B. Foresman, and D. J. Fox, Gaussian, Inc., Wallingford CT, 2016.
 
 ******************************************
 Gaussian 16:  ES64L-G16RevB.01 20-Dec-2017
                14-Nov-2022 
 ******************************************
 %nprocshared=32
 Will use up to   32 processors via shared memory.
 %mem=120GB
 %chk=_conf023.chk
 ----------------------------------------
 #P wB97XD/6-311++G(d,p) scf=maxcycle=512
 ----------------------------------------
 1/38=1,172=1/1;
 2/12=2,17=6,18=5,40=1/2;
 3/5=4,6=6,7=1111,11=2,25=1,30=1,74=-58/1,2,3;
 4//1;
 5/5=2,7=512,38=5/2;
 6/7=2,8=2,9=2,10=2,28=1/1;
 99/5=1,9=1/99;
 Leave Link    1 at Mon Nov 14 15:14:28 2022, MaxMem= 16106127360 cpu:               2.6 elap:               0.1
 (Enter /opt/ap/G16/B01/g16/l101.exe)
 ----------------------------
 _conf023.gjf nmol_natom 1_42
 ----------------------------
 Symbolic Z-matrix:
 Charge =  0 Multiplicity = 1
 C
 C                    1     1.39413 
 C                    1     1.39435  2     118.86443 
 C                    2     1.39416  1     121.15295  3     0.03668  0
 H                    2     1.08488  1     119.42237  3    -179.97409  0
 C                    1     1.48467  2     120.55715  4     179.25839  0
 C                    3     1.39438  1     121.11776  2    -0.05351  0
 H                    3     1.08488  1     119.41869  2     177.23008  0
 C                    4     1.39432  2     118.86474  1     0.01008  0
 C                    4     1.48467  2     120.54642  1     179.19455  0
 C                    6     1.39685  1     120.78435  2     25.      0
 C                    6     1.39687  1     120.67654  2    -155.     0
 C                    7     1.4845   3     120.56497  1    -179.96326  0
 H                    9     1.08488  4     119.41825  2     177.22246  0
 C                    10    1.39685  4     120.76947  2    -42.52369  0
 C                    10    1.39686  4     120.69449  2     137.43108  0
 C                    11    1.38889  6     120.73801  1     179.94059  0
 H                    11    1.08476  6     119.46912  1    -1.41051  0
 C                    12    1.38882  6     120.76493  1    -179.95083  0
 H                    12    1.08483  6     119.44183  1    -1.23603  0
 C                    13    1.39683  7     120.74134  3     42.89023  0
 C                    13    1.39683  7     120.73791  3    -137.12494  0
 C                    15    1.38888  10    120.74219  4     179.94601  0
 H                    15    1.08476  10    119.47086  4    -1.40607  0
 C                    16    1.38886  10    120.76339  4    -179.95593  0
 H                    16    1.08483  10    119.44215  4    -1.2344   0
 C                    17    1.39008  11    120.20743  6     0.0035   0
 H                    17    1.08435  11    119.71319  6     179.50116  0
 H                    19    1.08436  12    119.73823  6     179.53684  0
 C                    21    1.38882  13    120.76699  7     179.99298  0
 H                    21    1.08479  13    119.43526  7     1.32183  0
 C                    22    1.38882  13    120.76647  7    -179.97118  0
 H                    22    1.0848   13    119.43204  7     1.34658  0
 C                    23    1.39007  15    120.20733  10    0.00574  0
 H                    23    1.08435  15    119.71221  10    179.50724  0
 H                    25    1.08436  16    119.73539  10    179.53636  0
 H                    27    1.08413  17    120.21791  11    179.98397  0
 C                    30    1.39008  21    120.18795  13   -0.02169  0
 H                    30    1.08435  21    119.73787  13   -179.52151  0
 H                    32    1.08435  22    119.73704  13   -179.52887  0
 H                    34    1.08412  23    120.22153  15    179.988  0
 H                    38    1.08411  30    120.21547  21   -179.98601  0
 
 ITRead=  0  0  0  0  0  0  0  0  0  0  0  0  0  0  0  0  0  0  0  0
 ITRead=  0  0  0  0  0  0  0  0  0  0  0  0  0  0  0  0  0  0  0  0
 ITRead=  0  0
 MicOpt= -1 -1 -1 -1 -1 -1 -1 -1 -1 -1 -1 -1 -1 -1 -1 -1 -1 -1 -1 -1
 MicOpt= -1 -1 -1 -1 -1 -1 -1 -1 -1 -1 -1 -1 -1 -1 -1 -1 -1 -1 -1 -1
 MicOpt= -1 -1
 NAtoms=     42 NQM=       42 NQMF=       0 NMMI=      0 NMMIF=      0
                NMic=       0 NMicF=      0.
                    Isotopes and Nuclear Properties:
 (Nuclear quadrupole moments (NQMom) in fm**2, nuclear magnetic moments (NMagM)
  in nuclear magnetons)

  Atom         1           2           3           4           5           6           7           8           9          10
 IAtWgt=          12          12          12          12           1          12          12           1          12          12
 AtmWgt=  12.0000000  12.0000000  12.0000000  12.0000000   1.0078250  12.0000000  12.0000000   1.0078250  12.0000000  12.0000000
 NucSpn=           0           0           0           0           1           0           0           1           0           0
 AtZEff=  -0.0000000  -0.0000000  -0.0000000  -0.0000000  -0.0000000  -0.0000000  -0.0000000  -0.0000000  -0.0000000  -0.0000000
 NQMom=    0.0000000   0.0000000   0.0000000   0.0000000   0.0000000   0.0000000   0.0000000   0.0000000   0.0000000   0.0000000
 NMagM=    0.0000000   0.0000000   0.0000000   0.0000000   2.7928460   0.0000000   0.0000000   2.7928460   0.0000000   0.0000000
 AtZNuc=   6.0000000   6.0000000   6.0000000   6.0000000   1.0000000   6.0000000   6.0000000   1.0000000   6.0000000   6.0000000

  Atom        11          12          13          14          15          16          17          18          19          20
 IAtWgt=          12          12          12           1          12          12          12           1          12           1
 AtmWgt=  12.0000000  12.0000000  12.0000000   1.0078250  12.0000000  12.0000000  12.0000000   1.0078250  12.0000000   1.0078250
 NucSpn=           0           0           0           1           0           0           0           1           0           1
 AtZEff=  -0.0000000  -0.0000000  -0.0000000  -0.0000000  -0.0000000  -0.0000000  -0.0000000  -0.0000000  -0.0000000  -0.0000000
 NQMom=    0.0000000   0.0000000   0.0000000   0.0000000   0.0000000   0.0000000   0.0000000   0.0000000   0.0000000   0.0000000
 NMagM=    0.0000000   0.0000000   0.0000000   2.7928460   0.0000000   0.0000000   0.0000000   2.7928460   0.0000000   2.7928460
 AtZNuc=   6.0000000   6.0000000   6.0000000   1.0000000   6.0000000   6.0000000   6.0000000   1.0000000   6.0000000   1.0000000

  Atom        21          22          23          24          25          26          27          28          29          30
 IAtWgt=          12          12          12           1          12           1          12           1           1          12
 AtmWgt=  12.0000000  12.0000000  12.0000000   1.0078250  12.0000000   1.0078250  12.0000000   1.0078250   1.0078250  12.0000000
 NucSpn=           0           0           0           1           0           1           0           1           1           0
 AtZEff=  -0.0000000  -0.0000000  -0.0000000  -0.0000000  -0.0000000  -0.0000000  -0.0000000  -0.0000000  -0.0000000  -0.0000000
 NQMom=    0.0000000   0.0000000   0.0000000   0.0000000   0.0000000   0.0000000   0.0000000   0.0000000   0.0000000   0.0000000
 NMagM=    0.0000000   0.0000000   0.0000000   2.7928460   0.0000000   2.7928460   0.0000000   2.7928460   2.7928460   0.0000000
 AtZNuc=   6.0000000   6.0000000   6.0000000   1.0000000   6.0000000   1.0000000   6.0000000   1.0000000   1.0000000   6.0000000

  Atom        31          32          33          34          35          36          37          38          39          40
 IAtWgt=           1          12           1          12           1           1           1          12           1           1
 AtmWgt=   1.0078250  12.0000000   1.0078250  12.0000000   1.0078250   1.0078250   1.0078250  12.0000000   1.0078250   1.0078250
 NucSpn=           1           0           1           0           1           1           1           0           1           1
 AtZEff=  -0.0000000  -0.0000000  -0.0000000  -0.0000000  -0.0000000  -0.0000000  -0.0000000  -0.0000000  -0.0000000  -0.0000000
 NQMom=    0.0000000   0.0000000   0.0000000   0.0000000   0.0000000   0.0000000   0.0000000   0.0000000   0.0000000   0.0000000
 NMagM=    2.7928460   0.0000000   2.7928460   0.0000000   2.7928460   2.7928460   2.7928460   0.0000000   2.7928460   2.7928460
 AtZNuc=   1.0000000   6.0000000   1.0000000   6.0000000   1.0000000   1.0000000   1.0000000   6.0000000   1.0000000   1.0000000

  Atom        41          42
 IAtWgt=           1           1
 AtmWgt=   1.0078250   1.0078250
 NucSpn=           1           1
 AtZEff=  -0.0000000  -0.0000000
 NQMom=    0.0000000   0.0000000
 NMagM=    2.7928460   2.7928460
 AtZNuc=   1.0000000   1.0000000
 Leave Link  101 at Mon Nov 14 15:14:29 2022, MaxMem= 16106127360 cpu:               6.1 elap:               0.2
 (Enter /opt/ap/G16/B01/g16/l202.exe)
                          Input orientation:                          
 ---------------------------------------------------------------------
 Center     Atomic      Atomic             Coordinates (Angstroms)
 Number     Number       Type             X           Y           Z
 ---------------------------------------------------------------------
      1          6           0        0.000000    0.000000    0.000000
      2          6           0        0.000000    0.000000    1.394128
      3          6           0        1.221126    0.000000   -0.673109
      4          6           0        1.193108    0.000764    2.115362
      5          1           0       -0.944957   -0.000427    1.927071
      6          6           0       -1.278366   -0.017366   -0.754803
      7          6           0        2.428476    0.001115    0.024455
      8          1           0        1.232154   -0.045667   -1.756969
      9          6           0        2.400843    0.001752    1.418572
     10          6           0        1.177445    0.018728    3.599837
     11          6           0       -2.453713    0.473870   -0.181710
     12          6           0       -1.331600   -0.525866   -2.054739
     13          6           0        3.721572    0.001921   -0.704680
     14          1           0        3.334061    0.048144    1.969857
     15          6           0        0.290794    0.844275    4.295193
     16          6           0        2.049080   -0.790881    4.331965
     17          6           0       -3.648831    0.458282   -0.889144
     18          1           0       -2.434459    0.851067    0.835180
     19          6           0       -2.526229   -0.542072   -2.762858
     20          1           0       -0.423561   -0.892567   -2.521479
     21          6           0        3.910862    0.818865   -1.821777
     22          6           0        4.776237   -0.814044   -0.288725
     23          6           0        0.275860    0.859807    5.683909
     24          1           0       -0.377402    1.495584    3.742000
     25          6           0        2.035025   -0.775886    5.720674
     26          1           0        2.729408   -1.453102    3.807101
     27          6           0       -3.689327   -0.049178   -2.182653
     28          1           0       -4.553023    0.836397   -0.425159
     29          1           0       -2.547004   -0.933762   -3.773789
     30          6           0        5.120444    0.820149   -2.504230
     31          1           0        3.109266    1.474569   -2.144691
     32          6           0        5.986440   -0.813321   -0.970068
     33          1           0        4.638168   -1.470412    0.563864
     34          6           0        1.147946    0.049642    6.401818
     35          1           0       -0.413890    1.513063    6.206701
     36          1           0        2.713797   -1.416787    6.272362
     37          1           0       -4.622161   -0.061666   -2.734914
     38          6           0        6.162883    0.003944   -2.080611
     39          1           0        5.251831    1.466740   -3.364741
     40          1           0        6.791448   -1.459089   -0.637249
     41          1           0        1.136620    0.061726    7.485815
     42          1           0        7.107346    0.004761   -2.612865
 ---------------------------------------------------------------------
                    Distance matrix (angstroms):
                    1          2          3          4          5
     1  C    0.000000
     2  C    1.394128   0.000000
     3  C    1.394354   2.400962   0.000000
     4  C    2.428634   1.394161   2.788612   0.000000
     5  H    2.146287   1.084884   3.384206   2.146341   0.000000
     6  C    1.484671   2.500485   2.500887   3.787659   2.702572
     7  C    2.428599   2.788100   1.394378   2.428585   3.872983
     8  H    2.146445   3.383741   1.084878   3.872806   4.279487
     9  C    2.788619   2.400968   2.401430   1.394324   3.384222
    10  C    3.787552   2.500376   4.273210   1.484666   2.702426
    11  C    2.505649   2.954408   3.737709   4.335858   2.635955
    12  C    2.504326   3.734218   2.949890   4.903186   4.034897
    13  C    3.787700   4.272598   2.500646   3.787581   5.357482
    14  H    3.872805   3.383747   3.384092   2.146415   4.279508
    15  C    4.387032   3.035381   5.124680   2.505463   2.801537
    16  C    4.856969   3.668120   5.134371   2.504540   3.920790
    17  C    3.783460   4.328663   4.896241   5.716708   3.930956
    18  H    2.710799   2.638812   4.045065   3.939685   2.033687
    19  C    3.782732   4.894508   4.324762   6.158341   4.978879
    20  H    2.708124   4.038324   2.630236   4.991187   4.566986
    21  C    4.391384   5.129076   3.037212   4.853507   6.189029
    22  C    4.853707   5.129045   3.667320   4.391169   6.189006
    23  C    5.755188   4.383786   6.484171   3.783362   4.042800
    24  H    4.047440   2.809218   4.928007   2.710524   2.419532
    25  C    6.121229   4.843792   6.491910   3.782894   4.886007
    26  H    4.904609   3.922195   4.945574   2.708491   4.375585
    27  C    4.286902   5.138766   5.137479   6.504890   4.942041
    28  H    4.648692   4.973870   5.839678   6.338024   4.387641
    29  H    4.647647   5.836652   4.968393   7.038741   5.994787
    30  C    5.758711   6.487587   4.385239   6.118495   7.556379
    31  H    4.054822   4.936104   2.811579   4.898143   5.932249
    32  C    6.118822   6.487555   4.843334   5.758354   7.556353
    33  H    4.898230   4.935996   3.920254   4.054620   5.932156
    34  C    6.504116   5.137821   7.075480   4.286973   4.940255
    35  H    6.401859   5.061770   7.231488   4.648499   4.570330
    36  H    6.979577   5.759266   7.243957   4.647859   5.854410
    37  H    5.371027   6.198158   6.196680   7.572742   5.937986
    38  C    6.504621   7.074953   5.138292   6.504219   8.159837
    39  H    6.407382   7.237395   5.063871   6.975231   8.279857
    40  H    6.975586   7.237348   5.758361   6.406985   8.279819
    41  H    7.571865   6.197125   8.159595   5.371096   5.936031
    42  H    7.572414   8.159067   6.197601   7.571945   9.243951
                    6          7          8          9         10
     6  C    0.000000
     7  C    3.787910   0.000000
     8  H    2.703303   2.146356   0.000000
     9  C    4.273231   1.394392   3.384102   0.000000
    10  C    4.999520   3.787973   5.357472   2.500981   0.000000
    11  C    1.396850   4.909355   4.041902   5.133275   5.262372
    12  C    1.396868   4.328848   2.625279   5.125759   6.210163
    13  C    5.000226   1.484499   2.703105   2.500505   5.000173
    14  H    5.357476   2.146366   4.279725   1.084879   2.703459
    15  C    5.357906   4.849723   6.189251   3.665665   1.396854
    16  C    6.127433   4.396117   6.188524   3.039714   1.396863
    17  C    2.421445   6.162574   4.983081   6.490958   6.605838
    18  H    2.149133   5.002782   4.579019   4.943867   4.624064
    19  C    2.421728   5.710802   3.922202   6.485071   7.383467
    20  H    2.148909   3.926138   2.010747   4.929611   6.392510
    21  C    5.363376   2.504946   2.815510   3.667109   6.124188
    22  C    6.124553   2.504906   3.912375   3.036921   5.363369
    23  C    6.681472   6.115597   7.556523   4.841994   2.421492
    24  H    4.829285   4.891475   5.933362   3.917716   2.149154
    25  C    7.313393   5.762417   7.555989   4.387097   2.421736
    26  H    6.239756   4.063707   5.931401   2.815959   2.148914
    27  C    2.802231   6.503950   4.939857   7.075421   7.558258
    28  H    3.400141   7.045649   6.001668   7.242391   7.050351
    29  H    3.400515   6.328985   4.374735   7.233049   8.315595
    30  C    6.686306   3.783088   4.053003   4.842972   7.310892
    31  H    4.838282   2.709194   2.446425   3.920191   6.233057
    32  C    7.311449   3.783053   4.879728   4.384797   6.686012
    33  H    6.233426   2.709077   4.360860   2.811302   4.838519
    34  C    7.557031   6.504835   8.159779   5.138559   2.802307
    35  H    7.179977   6.970308   8.280044   5.756123   3.400165
    36  H    8.202243   6.413127   8.279214   5.066504   3.400510
    37  H    3.886356   7.571627   5.935455   8.159538   8.589003
    38  C    7.558466   4.286853   4.941589   5.137824   7.557929
    39  H    7.187337   4.648230   4.585860   5.757987   8.197725
    40  H    8.198432   4.648180   5.844424   5.063385   7.187062
    41  H    8.587561   7.572613   9.243902   6.197846   3.886431
    42  H    8.589123   5.370968   5.937422   6.197069   8.588456
                   11         12         13         14         15
    11  C    0.000000
    12  C    2.401427   0.000000
    13  C    6.215334   5.256973   0.000000
    14  H    6.189411   6.188316   2.702860   0.000000
    15  C    5.264236   6.695603   6.121971   3.911840   0.000000
    16  C    6.499846   7.231129   5.365963   2.816859   2.401387
    17  C    1.388889   2.774296   7.386821   7.556645   6.522805
    18  H    1.084764   3.385835   6.402260   5.933633   4.404400
    19  C    2.774838   1.388824   6.600533   7.555789   7.724873
    20  H    3.385733   1.084828   4.613349   5.931000   7.070639
    21  C    6.581539   5.417193   1.396829   3.911930   7.107943
    22  C    7.344546   6.364553   1.396832   2.815037   6.624314
    23  C    6.481126   8.024381   7.309101   4.879095   1.388883
    24  H    4.555268   6.212805   6.229413   4.360107   1.084763
    25  C    7.519894   8.476658   6.688393   4.054029   2.774755
    26  H    6.818253   7.191156   4.843310   2.448430   3.385708
    27  C    2.409169   2.408832   7.557012   8.159705   7.655202
    28  H    2.144247   3.858608   8.321262   8.280310   6.763457
    29  H    3.859166   2.144462   7.042015   8.278921   8.736303
    30  C    7.929808   6.606260   2.421718   4.878996   8.340159
    31  H    5.983429   4.871460   2.148776   4.360587   7.057844
    32  C    8.574062   7.403570   2.421709   4.052208   7.931644
    33  H    7.391271   6.586910   2.148749   2.446125   6.179018
    34  C    7.516300   8.831349   7.558317   4.941800   2.409154
    35  H    6.786206   8.558669   8.194680   5.843284   2.144229
    36  H    8.481320   9.300516   7.190790   4.587189   3.859086
    37  H    3.392317   3.392036   8.587419   9.243830   8.624399
    38  C    8.835858   7.513232   2.802355   4.940696   8.708529
    39  H    8.396004   7.002010   3.400487   5.843645   9.147346
    40  H    9.456048   8.298439   3.400476   4.585006   8.478973
    41  H    8.476514   9.872160   8.588933   5.937569   3.392325
    42  H    9.876458   8.474012   3.886469   5.936405   9.741223
                   16         17         18         19         20
    16  C    0.000000
    17  C    7.828575   0.000000
    18  H    5.918245   2.145291   0.000000
    19  C    8.445820   2.402446   3.859422   0.000000
    20  H    7.286562   3.858974   4.283822   2.145303   0.000000
    21  C    6.627673   7.625535   6.879212   6.646347   4.712303
    22  C    5.365510   8.541727   7.485312   7.715006   5.659440
    23  C    2.774316   7.666124   5.554825   9.009153   8.419524
    24  H    3.385823   5.764177   3.618907   7.147215   6.703474
    25  C    1.388861   8.804493   6.818454   9.634834   8.601822
    26  H    1.084834   8.148009   6.388038   8.462627   7.092696
    27  C    8.713191   1.390079   3.390052   1.390101   3.389888
    28  H    8.298556   1.084351   2.465154   3.387168   4.943312
    29  H    9.319209   3.387180   4.943772   1.084359   2.465561
    30  C    7.665654   8.924104   8.260095   7.771367   5.802558
    31  H    6.942862   6.948461   6.324655   6.017290   4.269211
    32  C    6.604154   9.719154   8.771581   8.703631   6.595548
    33  H    4.622091   8.631654   7.448821   7.953457   5.956034
    34  C    2.408903   8.736944   6.668086   9.891460   9.109480
    35  H    3.858628   7.869461   5.777038   9.441321   9.053633
    36  H    2.144469   9.761459   7.823723  10.481326   9.351441
    37  H    9.745665   2.150485   4.285405   2.150465   4.285346
    38  C    7.660043   9.894228   9.117771   8.732942   6.661782
    39  H    8.636768   9.293404   8.780515   8.055793   6.203828
    40  H    6.901424  10.617871   9.624044   9.600950   7.478477
    41  H    3.392092   9.653897   7.589902  10.900291  10.173041
    42  H    8.628428  10.902854  10.180927   9.650248   7.584728
                   21         22         23         24         25
    21  C    0.000000
    22  C    2.401148   0.000000
    23  C    8.339678   7.663388   0.000000
    24  H    7.057108   6.938381   2.145221   0.000000
    25  C    7.934139   6.605193   2.402396   3.859344   0.000000
    26  H    6.184005   4.623169   3.858996   4.283837   2.145356
    27  C    7.658107   8.708488   8.856171   6.961081   9.785647
    28  H    8.578356   9.475108   7.787129   5.935954   9.152765
    29  H    6.970372   8.111096  10.031625   8.191214  10.543469
    30  C    1.388824   2.774442   9.514051   8.348527   8.928391
    31  H    1.084794   3.385432   8.348239   6.841814   8.251212
    32  C    2.774430   1.388819   8.926672   8.248218   7.770528
    33  H    3.385417   1.084800   7.118603   6.637291   5.818196
    34  C    8.709358   7.659884   1.390070   3.389995   1.390095
    35  H    9.145591   8.633852   1.084348   2.465033   3.387137
    36  H    8.482109   6.903971   3.387136   4.943698   1.084363
    37  H    8.626797   9.740626   9.783471   7.898951  10.785417
    38  C    2.408878   2.408889   9.781478   8.882743   8.860440
    39  H    2.144453   3.858761  10.344405   9.066139   9.895553
    40  H    3.858751   2.144441   9.369482   8.905073   7.969536
    41  H    9.741711   8.628862   2.150513   4.285366   2.150453
    42  H    3.392063   3.392069  10.781315   9.931179   9.787018
                   26         27         28         29         30
    26  H    0.000000
    27  C    8.890912   0.000000
    28  H    8.728553   2.149185   0.000000
    29  H    9.250953   2.149210   4.286129   0.000000
    30  C    7.121630   8.858397   9.894380   7.967292   0.000000
    31  H    6.643746   6.967360   7.878751   6.359828   2.145313
    32  C    5.817122   9.781346  10.681702   8.983041   2.402462
    33  H    3.763276   8.883155   9.527724   8.410109   3.859075
    34  C    3.389959   9.854041   8.929034  10.870268   9.782234
    35  H    4.943333   9.140587   7.846774  10.495108  10.343562
    36  H    2.465578  10.693812  10.136089  11.350528   9.371467
    37  H    9.938794   1.084125   2.479166   2.479130   9.785150
    38  C    6.969712   9.852882  10.874932   8.922347   1.390081
    39  H    8.143918   9.145471  10.255420   8.170163   1.084353
    40  H    6.021000  10.687505  11.576323   9.865117   3.387152
    41  H    4.285396  10.806541   9.775258  11.888598  10.781792
    42  H    7.906179  10.805375  11.892934   9.769086   2.150451
                   31         32         33         34         35
    31  H    0.000000
    32  C    3.859055   0.000000
    33  H    4.283308   2.145356   0.000000
    34  C    8.883693   8.860047   6.969499   0.000000
    35  H    9.064207   9.893547   8.140394   2.149187   0.000000
    36  H    8.908597   7.970392   6.024369   2.149200   4.286112
    37  H    7.904640  10.780634   9.930770  10.806776  10.007087
    38  C    3.389900   1.390094   3.389946   9.854100  10.686951
    39  H    2.465597   3.387150   4.943418  10.688111  11.122726
    40  H    4.943399   1.084354   2.465647   9.147341  10.372571
    41  H    9.931470   9.787155   7.907066   1.084123   2.479233
    42  H    4.285343   2.150458   4.285392  10.806525  11.688828
                   36         37         38         39         40
    36  H    0.000000
    37  H   11.695454   0.000000
    38  C    9.148051  10.805073   0.000000
    39  H   10.374492  10.011414   2.149134   0.000000
    40  H    8.023201  11.688604   2.149152   4.286037   0.000000
    41  H    2.479104  11.732096  10.806626  11.689465  10.013697
    42  H   10.013557  11.730329   1.084114   2.479039   2.479054
                   41         42
    41  H    0.000000
    42  H   11.731844   0.000000
 Stoichiometry    C24H18
 Framework group  C1[X(C24H18)]
 Deg. of freedom   120
 Full point group                 C1      NOp   1
 Largest Abelian subgroup         C1      NOp   1
 Largest concise Abelian subgroup C1      NOp   1
                         Standard orientation:                         
 ---------------------------------------------------------------------
 Center     Atomic      Atomic             Coordinates (Angstroms)
 Number     Number       Type             X           Y           Z
 ---------------------------------------------------------------------
      1          6           0       -0.074586    1.399476   -0.040287
      2          6           0       -1.235154    0.627037   -0.044016
      3          6           0        1.161856    0.756399    0.003165
      4          6           0       -1.174987   -0.765263   -0.004484
      5          1           0       -2.201997    1.117981   -0.078100
      6          6           0       -0.153661    2.880868   -0.099229
      7          6           0        1.249605   -0.634627    0.043596
      8          1           0        2.071206    1.346525   -0.039201
      9          6           0        0.073733   -1.384051    0.039562
     10          6           0       -2.419818   -1.574245    0.008965
     11          6           0       -1.291873    3.554491    0.350096
     12          6           0        0.909763    3.631725   -0.605771
     13          6           0        2.572518   -1.306522    0.090458
     14          1           0        0.130520   -2.464723    0.116284
     15          6           0       -3.507031   -1.199571    0.801926
     16          6           0       -2.529592   -2.726915   -0.772397
     17          6           0       -1.364327    4.940420    0.295644
     18          1           0       -2.135710    2.985199    0.725010
     19          6           0        0.838163    5.017609   -0.660822
     20          1           0        1.808809    3.124936   -0.940036
     21          6           0        3.590012   -0.823086    0.916368
     22          6           0        2.827420   -2.436471   -0.690167
     23          6           0       -4.671689   -1.956167    0.813225
     24          1           0       -3.430233   -0.319572    1.431541
     25          6           0       -3.693747   -3.484253   -0.761604
     26          1           0       -1.701993   -3.019988   -1.409620
     27          6           0       -0.299223    5.677145   -0.209441
     28          1           0       -2.259191    5.445841    0.641456
     29          1           0        1.676503    5.584474   -1.050288
     30          6           0        4.827814   -1.451346    0.960735
     31          1           0        3.401158    0.040436    1.545209
     32          6           0        4.064653   -3.065877   -0.646343
     33          1           0        2.055087   -2.811649   -1.353141
     34          6           0       -4.769366   -3.101350    0.031361
     35          1           0       -5.502590   -1.654348    1.441174
     36          1           0       -3.763657   -4.371938   -1.380452
     37          1           0       -0.355701    6.758951   -0.252263
     38          6           0        5.069573   -2.575375    0.179432
     39          1           0        5.603250   -1.066482    1.613729
     40          1           0        4.246941   -3.937459   -1.265165
     41          1           0       -5.678285   -3.692206    0.040153
     42          1           0        6.035561   -3.066278    0.213886
 ---------------------------------------------------------------------
 Rotational constants (GHZ):           0.1996515           0.1977211           0.1031805
 Leave Link  202 at Mon Nov 14 15:14:29 2022, MaxMem= 16106127360 cpu:               0.4 elap:               0.0
 (Enter /opt/ap/G16/B01/g16/l301.exe)
 Standard basis: 6-311++G(d,p) (5D, 7F)
 Ernie: Thresh=  0.10000D-02 Tol=  0.10000D-05 Strict=F.
 There are   678 symmetry adapted cartesian basis functions of A   symmetry.
 There are   654 symmetry adapted basis functions of A   symmetry.
   654 basis functions,  1026 primitive gaussians,   678 cartesian basis functions
    81 alpha electrons       81 beta electrons
       nuclear repulsion energy      1733.8658623118 Hartrees.
 IExCor= 4639 DFT=T Ex+Corr=wB97XD ExCW=0 ScaHFX=  1.000000
 ScaDFX=  1.000000  1.000000  1.000000  1.000000 ScalE2=  1.000000  1.000000
 IRadAn=      5 IRanWt=     -1 IRanGd=            0 ICorTp=0 IEmpDi=121
 HFx  wShort=  0.000000 wLong=  0.200000 cFull=  0.222036 cShort=  0.000000 cLong=  0.777964
 DFx  wShort=  0.000000 wLong=  0.200000 cFull=  0.000000 cShort=  0.000000 cLong=  1.000000
 NAtoms=   42 NActive=   42 NUniq=   42 SFac= 1.00D+00 NAtFMM=   60 NAOKFM=F Big=F
 Integral buffers will be    131072 words long.
 Raffenetti 2 integral format.
 Two-electron integral symmetry is turned on.
 R6Disp:  Grimme-D2 Dispersion energy=       -0.0288458884 Hartrees.
 Nuclear repulsion after empirical dispersion term =     1733.8370164234 Hartrees.
 Leave Link  301 at Mon Nov 14 15:14:29 2022, MaxMem= 16106127360 cpu:               2.1 elap:               0.1
 (Enter /opt/ap/G16/B01/g16/l302.exe)
 NPDir=0 NMtPBC=     1 NCelOv=     1 NCel=       1 NClECP=     1 NCelD=      1
         NCelK=      1 NCelE2=     1 NClLst=     1 CellRange=     0.0.
 One-electron integrals computed using PRISM.
 One-electron integral symmetry used in STVInt
 NBasis=   654 RedAO= T EigKep=  1.14D-06  NBF=   654
 NBsUse=   645 1.00D-06 EigRej=  6.87D-07 NBFU=   645
 Precomputing XC quadrature grid using
 IXCGrd= 4 IRadAn=           5 IRanWt=          -1 IRanGd=           0 AccXCQ= 0.00D+00.
 Generated NRdTot=       0 NPtTot=           0 NUsed=           0 NTot=          32
 NSgBfM=   669   669   669   669   669 MxSgAt=    42 MxSgA2=    42.
 Leave Link  302 at Mon Nov 14 15:14:29 2022, MaxMem= 16106127360 cpu:              20.9 elap:               0.7
 (Enter /opt/ap/G16/B01/g16/l303.exe)
 DipDrv:  MaxL=1.
 Leave Link  303 at Mon Nov 14 15:14:30 2022, MaxMem= 16106127360 cpu:               2.7 elap:               0.1
 (Enter /opt/ap/G16/B01/g16/l401.exe)
 ExpMin= 3.60D-02 ExpMax= 4.56D+03 ExpMxC= 6.82D+02 IAcc=3 IRadAn=         5 AccDes= 0.00D+00
 Harris functional with IExCor= 4639 and IRadAn=       5 diagonalized for initial guess.
 HarFok:  IExCor= 4639 AccDes= 0.00D+00 IRadAn=         5 IDoV= 1 UseB2=F ITyADJ=14
 ICtDFT=  3500011 ScaDFX=  1.000000  1.000000  1.000000  1.000000
 FoFCou: FMM=F IPFlag=           0 FMFlag=      100000 FMFlg1=           0
         NFxFlg=           0 DoJE=T BraDBF=F KetDBF=T FulRan=T
         wScrn=  0.000000 ICntrl=       500 IOpCl=  0 I1Cent=   200000004 NGrid=           0
         NMat0=    1 NMatS0=      1 NMatT0=    0 NMatD0=    1 NMtDS0=    0 NMtDT0=    0
 Petite list used in FoFCou.
 Harris En= -882.966583140475    
 JPrj=0 DoOrth=F DoCkMO=F.
 Leave Link  401 at Mon Nov 14 15:14:31 2022, MaxMem= 16106127360 cpu:              55.5 elap:               1.8
 (Enter /opt/ap/G16/B01/g16/l502.exe)
 Integral symmetry usage will be decided dynamically.
 Closed shell SCF:
 Using DIIS extrapolation, IDIIS=  1040.
 NGot= 16106127360 LenX= 16105179956 LenY= 16104719594
 Requested convergence on RMS density matrix=1.00D-08 within 512 cycles.
 Requested convergence on MAX density matrix=1.00D-06.
 Requested convergence on             energy=1.00D-06.
 No special actions if energy rises.
 Fock matrices will be formed incrementally for  20 cycles.

 Cycle   1  Pass 1  IDiag  1:
 FoFJK:  IHMeth= 1 ICntrl=       0 DoSepK=T KAlg= 0 I1Cent=           0 FoldK=F
 IRaf=         1 NMat=       1 IRICut=       1 DoRegI=T DoRafI=F ISym2E= 0 IDoP0=0 IntGTp=1.
 FoFCou: FMM=F IPFlag=           0 FMFlag=      100000 FMFlg1=           0
         NFxFlg=           0 DoJE=T BraDBF=F KetDBF=F FulRan=T
         wScrn=  0.000000 ICntrl=       500 IOpCl=  0 I1Cent=           0 NGrid=           0
         NMat0=    1 NMatS0=      1 NMatT0=    0 NMatD0=    1 NMtDS0=    0 NMtDT0=    0
 Symmetry not used in FoFCou.
 E= -925.113834104301    
 DIIS: error= 5.04D-02 at cycle   1 NSaved=   1.
 NSaved= 1 IEnMin= 1 EnMin= -925.113834104301     IErMin= 1 ErrMin= 5.04D-02
 ErrMax= 5.04D-02  0.00D+00 EMaxC= 1.00D-01 BMatC= 1.90D+00 BMatP= 1.90D+00
 IDIUse=3 WtCom= 4.96D-01 WtEn= 5.04D-01
 Coeff-Com:  0.100D+01
 Coeff-En:   0.100D+01
 Coeff:      0.100D+01
 Gap=     0.309 Goal=   None    Shift=    0.000
 GapD=    0.309 DampG=1.000 DampE=0.500 DampFc=0.5000 IDamp=-1.
 Damping current iteration by 5.00D-01
 RMSDP=3.96D-02 MaxDP=4.81D+00              OVMax= 4.41D-02

 Cycle   2  Pass 1  IDiag  1:
 RMSU=  6.88D-03    CP:  8.11D-01
 E= -925.212644847463     Delta-E=       -0.098810743162 Rises=F Damp=T
 DIIS: error= 2.45D-02 at cycle   2 NSaved=   2.
 NSaved= 2 IEnMin= 2 EnMin= -925.212644847463     IErMin= 2 ErrMin= 2.45D-02
 ErrMax= 2.45D-02  0.00D+00 EMaxC= 1.00D-01 BMatC= 4.32D-01 BMatP= 1.90D+00
 IDIUse=3 WtCom= 7.55D-01 WtEn= 2.45D-01
 Coeff-Com: -0.883D+00 0.188D+01
 Coeff-En:   0.000D+00 0.100D+01
 Coeff:     -0.666D+00 0.167D+01
 Gap=     0.317 Goal=   None    Shift=    0.000
 RMSDP=2.39D-02 MaxDP=2.30D+00 DE=-9.88D-02 OVMax= 3.35D-02

 Cycle   3  Pass 1  IDiag  1:
 RMSU=  4.17D-03    CP:  5.73D-01  1.37D+00
 E= -925.301643847416     Delta-E=       -0.088998999953 Rises=F Damp=F
 DIIS: error= 2.73D-03 at cycle   3 NSaved=   3.
 NSaved= 3 IEnMin= 3 EnMin= -925.301643847416     IErMin= 3 ErrMin= 2.73D-03
 ErrMax= 2.73D-03  0.00D+00 EMaxC= 1.00D-01 BMatC= 8.28D-03 BMatP= 4.32D-01
 IDIUse=3 WtCom= 9.73D-01 WtEn= 2.73D-02
 Coeff-Com: -0.363D+00 0.772D+00 0.592D+00
 Coeff-En:   0.000D+00 0.000D+00 0.100D+01
 Coeff:     -0.354D+00 0.751D+00 0.603D+00
 Gap=     0.315 Goal=   None    Shift=    0.000
 RMSDP=2.29D-03 MaxDP=2.32D-01 DE=-8.90D-02 OVMax= 1.90D-02

 Cycle   4  Pass 1  IDiag  1:
 RMSU=  1.64D-03    CP:  5.75D-01  1.53D+00  7.25D-01
 E= -925.309223159516     Delta-E=       -0.007579312100 Rises=F Damp=F
 DIIS: error= 6.39D-04 at cycle   4 NSaved=   4.
 NSaved= 4 IEnMin= 4 EnMin= -925.309223159516     IErMin= 4 ErrMin= 6.39D-04
 ErrMax= 6.39D-04  0.00D+00 EMaxC= 1.00D-01 BMatC= 2.68D-04 BMatP= 8.28D-03
 IDIUse=3 WtCom= 9.94D-01 WtEn= 6.39D-03
 Coeff-Com: -0.112D+00 0.238D+00 0.237D+00 0.637D+00
 Coeff-En:   0.000D+00 0.000D+00 0.000D+00 0.100D+01
 Coeff:     -0.111D+00 0.236D+00 0.235D+00 0.640D+00
 Gap=     0.314 Goal=   None    Shift=    0.000
 RMSDP=7.46D-04 MaxDP=6.01D-02 DE=-7.58D-03 OVMax= 4.19D-03

 Cycle   5  Pass 1  IDiag  1:
 RMSU=  3.50D-04    CP:  5.70D-01  1.58D+00  7.23D-01  8.15D-01
 E= -925.309505985693     Delta-E=       -0.000282826177 Rises=F Damp=F
 DIIS: error= 2.29D-04 at cycle   5 NSaved=   5.
 NSaved= 5 IEnMin= 5 EnMin= -925.309505985693     IErMin= 5 ErrMin= 2.29D-04
 ErrMax= 2.29D-04  0.00D+00 EMaxC= 1.00D-01 BMatC= 2.02D-05 BMatP= 2.68D-04
 IDIUse=3 WtCom= 9.98D-01 WtEn= 2.29D-03
 Coeff-Com:  0.262D-01-0.559D-01-0.278D-01 0.194D+00 0.864D+00
 Coeff-En:   0.000D+00 0.000D+00 0.000D+00 0.000D+00 0.100D+01
 Coeff:      0.262D-01-0.558D-01-0.278D-01 0.193D+00 0.864D+00
 Gap=     0.314 Goal=   None    Shift=    0.000
 RMSDP=2.08D-04 MaxDP=1.15D-02 DE=-2.83D-04 OVMax= 1.56D-03

 Cycle   6  Pass 1  IDiag  1:
 RMSU=  7.75D-05    CP:  5.69D-01  1.58D+00  7.39D-01  8.94D-01  1.20D+00
 E= -925.309532272331     Delta-E=       -0.000026286638 Rises=F Damp=F
 DIIS: error= 5.37D-05 at cycle   6 NSaved=   6.
 NSaved= 6 IEnMin= 6 EnMin= -925.309532272331     IErMin= 6 ErrMin= 5.37D-05
 ErrMax= 5.37D-05  0.00D+00 EMaxC= 1.00D-01 BMatC= 1.38D-06 BMatP= 2.02D-05
 IDIUse=1 WtCom= 1.00D+00 WtEn= 0.00D+00
 Coeff-Com:  0.132D-01-0.281D-01-0.172D-01 0.533D-01 0.330D+00 0.648D+00
 Coeff:      0.132D-01-0.281D-01-0.172D-01 0.533D-01 0.330D+00 0.648D+00
 Gap=     0.314 Goal=   None    Shift=    0.000
 RMSDP=7.68D-05 MaxDP=7.88D-03 DE=-2.63D-05 OVMax= 3.80D-04

 Cycle   7  Pass 1  IDiag  1:
 RMSU=  4.25D-05    CP:  5.69D-01  1.58D+00  7.41D-01  9.25D-01  1.16D+00
                    CP:  9.79D-01
 E= -925.309533976301     Delta-E=       -0.000001703970 Rises=F Damp=F
 DIIS: error= 1.59D-05 at cycle   7 NSaved=   7.
 NSaved= 7 IEnMin= 7 EnMin= -925.309533976301     IErMin= 7 ErrMin= 1.59D-05
 ErrMax= 1.59D-05  0.00D+00 EMaxC= 1.00D-01 BMatC= 1.03D-07 BMatP= 1.38D-06
 IDIUse=1 WtCom= 1.00D+00 WtEn= 0.00D+00
 Coeff-Com: -0.245D-02 0.526D-02 0.241D-02-0.284D-01-0.105D+00 0.103D+00
 Coeff-Com:  0.103D+01
 Coeff:     -0.245D-02 0.526D-02 0.241D-02-0.284D-01-0.105D+00 0.103D+00
 Coeff:      0.103D+01
 Gap=     0.314 Goal=   None    Shift=    0.000
 RMSDP=1.96D-05 MaxDP=1.29D-03 DE=-1.70D-06 OVMax= 2.64D-04

 Cycle   8  Pass 1  IDiag  1:
 RMSU=  5.77D-06    CP:  5.69D-01  1.58D+00  7.43D-01  9.27D-01  1.19D+00
                    CP:  1.11D+00  1.18D+00
 E= -925.309534216911     Delta-E=       -0.000000240610 Rises=F Damp=F
 DIIS: error= 4.84D-06 at cycle   8 NSaved=   8.
 NSaved= 8 IEnMin= 8 EnMin= -925.309534216911     IErMin= 8 ErrMin= 4.84D-06
 ErrMax= 4.84D-06  0.00D+00 EMaxC= 1.00D-01 BMatC= 5.05D-09 BMatP= 1.03D-07
 IDIUse=1 WtCom= 1.00D+00 WtEn= 0.00D+00
 Coeff-Com: -0.906D-03 0.194D-02 0.109D-02-0.781D-02-0.303D-01 0.737D-02
 Coeff-Com:  0.175D+00 0.853D+00
 Coeff:     -0.906D-03 0.194D-02 0.109D-02-0.781D-02-0.303D-01 0.737D-02
 Coeff:      0.175D+00 0.853D+00
 Gap=     0.314 Goal=   None    Shift=    0.000
 RMSDP=3.09D-06 MaxDP=2.09D-04 DE=-2.41D-07 OVMax= 5.66D-05

 Cycle   9  Pass 1  IDiag  1:
 RMSU=  1.99D-06    CP:  5.69D-01  1.58D+00  7.43D-01  9.27D-01  1.19D+00
                    CP:  1.12D+00  1.22D+00  1.20D+00
 E= -925.309534226358     Delta-E=       -0.000000009446 Rises=F Damp=F
 DIIS: error= 2.48D-06 at cycle   9 NSaved=   9.
 NSaved= 9 IEnMin= 9 EnMin= -925.309534226358     IErMin= 9 ErrMin= 2.48D-06
 ErrMax= 2.48D-06  0.00D+00 EMaxC= 1.00D-01 BMatC= 1.69D-09 BMatP= 5.05D-09
 IDIUse=1 WtCom= 1.00D+00 WtEn= 0.00D+00
 Coeff-Com:  0.133D-03-0.289D-03-0.160D-05 0.283D-02 0.103D-01-0.163D-01
 Coeff-Com: -0.159D+00 0.381D+00 0.782D+00
 Coeff:      0.133D-03-0.289D-03-0.160D-05 0.283D-02 0.103D-01-0.163D-01
 Coeff:     -0.159D+00 0.381D+00 0.782D+00
 Gap=     0.314 Goal=   None    Shift=    0.000
 RMSDP=1.80D-06 MaxDP=1.38D-04 DE=-9.45D-09 OVMax= 3.74D-05

 Cycle  10  Pass 1  IDiag  1:
 RMSU=  7.29D-07    CP:  5.69D-01  1.58D+00  7.43D-01  9.27D-01  1.19D+00
                    CP:  1.12D+00  1.23D+00  1.38D+00  6.14D-01
 E= -925.309534229383     Delta-E=       -0.000000003025 Rises=F Damp=F
 DIIS: error= 9.42D-07 at cycle  10 NSaved=  10.
 NSaved=10 IEnMin=10 EnMin= -925.309534229383     IErMin=10 ErrMin= 9.42D-07
 ErrMax= 9.42D-07  0.00D+00 EMaxC= 1.00D-01 BMatC= 2.22D-10 BMatP= 1.69D-09
 IDIUse=1 WtCom= 1.00D+00 WtEn= 0.00D+00
 Coeff-Com:  0.117D-03-0.252D-03-0.671D-04 0.168D-02 0.605D-02-0.581D-02
 Coeff-Com: -0.741D-01 0.635D-01 0.340D+00 0.669D+00
 Coeff:      0.117D-03-0.252D-03-0.671D-04 0.168D-02 0.605D-02-0.581D-02
 Coeff:     -0.741D-01 0.635D-01 0.340D+00 0.669D+00
 Gap=     0.314 Goal=   None    Shift=    0.000
 RMSDP=5.04D-07 MaxDP=5.31D-05 DE=-3.03D-09 OVMax= 9.91D-06

 Cycle  11  Pass 1  IDiag  1:
 RMSU=  1.43D-07    CP:  5.69D-01  1.58D+00  7.43D-01  9.27D-01  1.19D+00
                    CP:  1.12D+00  1.23D+00  1.39D+00  8.08D-01  9.71D-01
 E= -925.309534229654     Delta-E=       -0.000000000271 Rises=F Damp=F
 DIIS: error= 2.06D-07 at cycle  11 NSaved=  11.
 NSaved=11 IEnMin=11 EnMin= -925.309534229654     IErMin=11 ErrMin= 2.06D-07
 ErrMax= 2.06D-07  0.00D+00 EMaxC= 1.00D-01 BMatC= 3.17D-11 BMatP= 2.22D-10
 IDIUse=1 WtCom= 1.00D+00 WtEn= 0.00D+00
 Coeff-Com:  0.205D-04-0.435D-04-0.193D-04 0.118D-03 0.251D-03 0.118D-02
 Coeff-Com:  0.143D-02-0.608D-01-0.359D-02 0.266D+00 0.796D+00
 Coeff:      0.205D-04-0.435D-04-0.193D-04 0.118D-03 0.251D-03 0.118D-02
 Coeff:      0.143D-02-0.608D-01-0.359D-02 0.266D+00 0.796D+00
 Gap=     0.314 Goal=   None    Shift=    0.000
 RMSDP=2.20D-07 MaxDP=1.87D-05 DE=-2.71D-10 OVMax= 3.35D-06

 Cycle  12  Pass 1  IDiag  1:
 RMSU=  6.21D-08    CP:  5.69D-01  1.58D+00  7.43D-01  9.27D-01  1.19D+00
                    CP:  1.12D+00  1.23D+00  1.40D+00  7.84D-01  1.15D+00
                    CP:  1.15D+00
 E= -925.309534229706     Delta-E=       -0.000000000052 Rises=F Damp=F
 DIIS: error= 7.74D-08 at cycle  12 NSaved=  12.
 NSaved=12 IEnMin=12 EnMin= -925.309534229706     IErMin=12 ErrMin= 7.74D-08
 ErrMax= 7.74D-08  0.00D+00 EMaxC= 1.00D-01 BMatC= 1.37D-12 BMatP= 3.17D-11
 IDIUse=1 WtCom= 1.00D+00 WtEn= 0.00D+00
 Coeff-Com: -0.141D-04 0.305D-04 0.121D-04-0.217D-03-0.799D-03 0.962D-03
 Coeff-Com:  0.938D-02-0.109D-01-0.302D-01-0.683D-01-0.886D-01 0.119D+01
 Coeff:     -0.141D-04 0.305D-04 0.121D-04-0.217D-03-0.799D-03 0.962D-03
 Coeff:      0.938D-02-0.109D-01-0.302D-01-0.683D-01-0.886D-01 0.119D+01
 Gap=     0.314 Goal=   None    Shift=    0.000
 RMSDP=7.59D-08 MaxDP=4.82D-06 DE=-5.18D-11 OVMax= 1.48D-06

 Cycle  13  Pass 1  IDiag  1:
 RMSU=  2.76D-08    CP:  5.69D-01  1.58D+00  7.43D-01  9.27D-01  1.19D+00
                    CP:  1.12D+00  1.23D+00  1.40D+00  7.83D-01  1.20D+00
                    CP:  1.24D+00  1.43D+00
 E= -925.309534229785     Delta-E=       -0.000000000079 Rises=F Damp=F
 DIIS: error= 2.19D-08 at cycle  13 NSaved=  13.
 NSaved=13 IEnMin=13 EnMin= -925.309534229785     IErMin=13 ErrMin= 2.19D-08
 ErrMax= 2.19D-08  0.00D+00 EMaxC= 1.00D-01 BMatC= 1.01D-13 BMatP= 1.37D-12
 IDIUse=1 WtCom= 1.00D+00 WtEn= 0.00D+00
 Coeff-Com: -0.239D-05 0.511D-05 0.261D-05-0.264D-04-0.852D-04 0.457D-04
 Coeff-Com:  0.734D-03 0.179D-02-0.103D-02-0.191D-01-0.696D-01 0.123D+00
 Coeff-Com:  0.964D+00
 Coeff:     -0.239D-05 0.511D-05 0.261D-05-0.264D-04-0.852D-04 0.457D-04
 Coeff:      0.734D-03 0.179D-02-0.103D-02-0.191D-01-0.696D-01 0.123D+00
 Coeff:      0.964D+00
 Gap=     0.314 Goal=   None    Shift=    0.000
 RMSDP=2.38D-08 MaxDP=2.33D-06 DE=-7.91D-11 OVMax= 3.66D-07

 Cycle  14  Pass 1  IDiag  1:
 RMSU=  5.72D-09    CP:  5.69D-01  1.58D+00  7.43D-01  9.27D-01  1.19D+00
                    CP:  1.12D+00  1.23D+00  1.40D+00  7.82D-01  1.21D+00
                    CP:  1.25D+00  1.55D+00  1.28D+00
 E= -925.309534229711     Delta-E=        0.000000000075 Rises=F Damp=F
 DIIS: error= 6.21D-09 at cycle  14 NSaved=  14.
 NSaved=14 IEnMin=13 EnMin= -925.309534229785     IErMin=14 ErrMin= 6.21D-09
 ErrMax= 6.21D-09  0.00D+00 EMaxC= 1.00D-01 BMatC= 3.10D-14 BMatP= 1.01D-13
 IDIUse=1 WtCom= 1.00D+00 WtEn= 0.00D+00
 Coeff-Com:  0.740D-06-0.164D-05-0.434D-06 0.161D-04 0.657D-04-0.102D-03
 Coeff-Com: -0.879D-03 0.210D-02 0.364D-02 0.810D-03-0.212D-01-0.103D+00
 Coeff-Com:  0.424D+00 0.695D+00
 Coeff:      0.740D-06-0.164D-05-0.434D-06 0.161D-04 0.657D-04-0.102D-03
 Coeff:     -0.879D-03 0.210D-02 0.364D-02 0.810D-03-0.212D-01-0.103D+00
 Coeff:      0.424D+00 0.695D+00
 Gap=     0.314 Goal=   None    Shift=    0.000
 RMSDP=8.24D-09 MaxDP=1.03D-06 DE= 7.46D-11 OVMax= 8.31D-08

 Cycle  15  Pass 1  IDiag  1:
 RMSU=  2.37D-09    CP:  5.69D-01  1.58D+00  7.43D-01  9.27D-01  1.19D+00
                    CP:  1.12D+00  1.23D+00  1.40D+00  7.81D-01  1.21D+00
                    CP:  1.24D+00  1.58D+00  1.39D+00  1.17D+00
 E= -925.309534229758     Delta-E=       -0.000000000048 Rises=F Damp=F
 DIIS: error= 2.33D-09 at cycle  15 NSaved=  15.
 NSaved=15 IEnMin=13 EnMin= -925.309534229785     IErMin=15 ErrMin= 2.33D-09
 ErrMax= 2.33D-09  0.00D+00 EMaxC= 1.00D-01 BMatC= 1.32D-15 BMatP= 3.10D-14
 IDIUse=1 WtCom= 1.00D+00 WtEn= 0.00D+00
 Coeff-Com:  0.405D-06-0.876D-06-0.430D-06 0.607D-05 0.225D-04-0.277D-04
 Coeff-Com: -0.254D-03 0.211D-03 0.894D-03 0.249D-02 0.342D-02-0.345D-01
 Coeff-Com: -0.223D-02 0.589D-01 0.971D+00
 Coeff:      0.405D-06-0.876D-06-0.430D-06 0.607D-05 0.225D-04-0.277D-04
 Coeff:     -0.254D-03 0.211D-03 0.894D-03 0.249D-02 0.342D-02-0.345D-01
 Coeff:     -0.223D-02 0.589D-01 0.971D+00
 Gap=     0.314 Goal=   None    Shift=    0.000
 RMSDP=4.24D-09 MaxDP=4.69D-07 DE=-4.77D-11 OVMax= 3.65D-08

 SCF Done:  E(RwB97XD) =  -925.309534230     A.U. after   15 cycles
            NFock= 15  Conv=0.42D-08     -V/T= 2.0043
 KE= 9.213073508233D+02 PE=-5.614028725107D+03 EE= 2.033574823631D+03
 Leave Link  502 at Mon Nov 14 15:17:09 2022, MaxMem= 16106127360 cpu:            4964.2 elap:             157.2
 (Enter /opt/ap/G16/B01/g16/l601.exe)
 Copying SCF densities to generalized density rwf, IOpCl= 0 IROHF=0.

 **********************************************************************

            Population analysis using the SCF Density.

 **********************************************************************

 Orbital symmetries:
       Occupied  (A) (A) (A) (A) (A) (A) (A) (A) (A) (A) (A) (A)
                 (A) (A) (A) (A) (A) (A) (A) (A) (A) (A) (A) (A)
                 (A) (A) (A) (A) (A) (A) (A) (A) (A) (A) (A) (A)
                 (A) (A) (A) (A) (A) (A) (A) (A) (A) (A) (A) (A)
                 (A) (A) (A) (A) (A) (A) (A) (A) (A) (A) (A) (A)
                 (A) (A) (A) (A) (A) (A) (A) (A) (A) (A) (A) (A)
                 (A) (A) (A) (A) (A) (A) (A) (A) (A)
       Virtual   (A) (A) (A) (A) (A) (A) (A) (A) (A) (A) (A) (A)
                 (A) (A) (A) (A) (A) (A) (A) (A) (A) (A) (A) (A)
                 (A) (A) (A) (A) (A) (A) (A) (A) (A) (A) (A) (A)
                 (A) (A) (A) (A) (A) (A) (A) (A) (A) (A) (A) (A)
                 (A) (A) (A) (A) (A) (A) (A) (A) (A) (A) (A) (A)
                 (A) (A) (A) (A) (A) (A) (A) (A) (A) (A) (A) (A)
                 (A) (A) (A) (A) (A) (A) (A) (A) (A) (A) (A) (A)
                 (A) (A) (A) (A) (A) (A) (A) (A) (A) (A) (A) (A)
                 (A) (A) (A) (A) (A) (A) (A) (A) (A) (A) (A) (A)
                 (A) (A) (A) (A) (A) (A) (A) (A) (A) (A) (A) (A)
                 (A) (A) (A) (A) (A) (A) (A) (A) (A) (A) (A) (A)
                 (A) (A) (A) (A) (A) (A) (A) (A) (A) (A) (A) (A)
                 (A) (A) (A) (A) (A) (A) (A) (A) (A) (A) (A) (A)
                 (A) (A) (A) (A) (A) (A) (A) (A) (A) (A) (A) (A)
                 (A) (A) (A) (A) (A) (A) (A) (A) (A) (A) (A) (A)
                 (A) (A) (A) (A) (A) (A) (A) (A) (A) (A) (A) (A)
                 (A) (A) (A) (A) (A) (A) (A) (A) (A) (A) (A) (A)
                 (A) (A) (A) (A) (A) (A) (A) (A) (A) (A) (A) (A)
                 (A) (A) (A) (A) (A) (A) (A) (A) (A) (A) (A) (A)
                 (A) (A) (A) (A) (A) (A) (A) (A) (A) (A) (A) (A)
                 (A) (A) (A) (A) (A) (A) (A) (A) (A) (A) (A) (A)
                 (A) (A) (A) (A) (A) (A) (A) (A) (A) (A) (A) (A)
                 (A) (A) (A) (A) (A) (A) (A) (A) (A) (A) (A) (A)
                 (A) (A) (A) (A) (A) (A) (A) (A) (A) (A) (A) (A)
                 (A) (A) (A) (A) (A) (A) (A) (A) (A) (A) (A) (A)
                 (A) (A) (A) (A) (A) (A) (A) (A) (A) (A) (A) (A)
                 (A) (A) (A) (A) (A) (A) (A) (A) (A) (A) (A) (A)
                 (A) (A) (A) (A) (A) (A) (A) (A) (A) (A) (A) (A)
                 (A) (A) (A) (A) (A) (A) (A) (A) (A) (A) (A) (A)
                 (A) (A) (A) (A) (A) (A) (A) (A) (A) (A) (A) (A)
                 (A) (A) (A) (A) (A) (A) (A) (A) (A) (A) (A) (A)
                 (A) (A) (A) (A) (A) (A) (A) (A) (A) (A) (A) (A)
                 (A) (A) (A) (A) (A) (A) (A) (A) (A) (A) (A) (A)
                 (A) (A) (A) (A) (A) (A) (A) (A) (A) (A) (A) (A)
                 (A) (A) (A) (A) (A) (A) (A) (A) (A) (A) (A) (A)
                 (A) (A) (A) (A) (A) (A) (A) (A) (A) (A) (A) (A)
                 (A) (A) (A) (A) (A) (A) (A) (A) (A) (A) (A) (A)
                 (A) (A) (A) (A) (A) (A) (A) (A) (A) (A) (A) (A)
                 (A) (A) (A) (A) (A) (A) (A) (A) (A) (A) (A) (A)
                 (A) (A) (A) (A) (A) (A) (A) (A) (A) (A) (A) (A)
                 (A) (A) (A) (A) (A) (A) (A) (A) (A) (A) (A) (A)
                 (A) (A) (A) (A) (A) (A) (A) (A) (A) (A) (A) (A)
                 (A) (A) (A) (A) (A) (A) (A) (A) (A) (A) (A) (A)
                 (A) (A) (A) (A) (A) (A) (A) (A) (A) (A) (A) (A)
                 (A) (A) (A) (A) (A) (A) (A) (A) (A) (A) (A) (A)
                 (A) (A) (A) (A) (A) (A) (A) (A) (A) (A) (A) (A)
                 (A) (A) (A) (A) (A) (A) (A) (A) (A) (A) (A) (A)
 The electronic state is 1-A.
 Alpha  occ. eigenvalues --  -10.30510 -10.30480 -10.30480 -10.30413 -10.30381
 Alpha  occ. eigenvalues --  -10.30357 -10.29306 -10.29303 -10.29294 -10.29286
 Alpha  occ. eigenvalues --  -10.29282 -10.29263 -10.29230 -10.29215 -10.29214
 Alpha  occ. eigenvalues --  -10.29203 -10.29181 -10.29171 -10.29155 -10.29134
 Alpha  occ. eigenvalues --  -10.29128 -10.29111 -10.29101 -10.29088  -0.99056
 Alpha  occ. eigenvalues --   -0.97117  -0.97098  -0.95303  -0.89504  -0.89487
 Alpha  occ. eigenvalues --   -0.85444  -0.85379  -0.85314  -0.85095  -0.82302
 Alpha  occ. eigenvalues --   -0.82255  -0.73846  -0.73627  -0.71184  -0.70859
 Alpha  occ. eigenvalues --   -0.70173  -0.70020  -0.66728  -0.66623  -0.63792
 Alpha  occ. eigenvalues --   -0.60895  -0.60745  -0.58637  -0.57440  -0.56888
 Alpha  occ. eigenvalues --   -0.54941  -0.54864  -0.54323  -0.54061  -0.52372
 Alpha  occ. eigenvalues --   -0.51886  -0.51769  -0.51571  -0.51184  -0.50987
 Alpha  occ. eigenvalues --   -0.50537  -0.48406  -0.46905  -0.46406  -0.46059
 Alpha  occ. eigenvalues --   -0.45634  -0.44888  -0.44412  -0.43208  -0.43173
 Alpha  occ. eigenvalues --   -0.42978  -0.41844  -0.41421  -0.37328  -0.36555
 Alpha  occ. eigenvalues --   -0.33686  -0.33677  -0.33656  -0.32978  -0.30311
 Alpha  occ. eigenvalues --   -0.29886
 Alpha virt. eigenvalues --    0.01563   0.02046   0.03677   0.04172   0.04232
 Alpha virt. eigenvalues --    0.04535   0.04846   0.04940   0.05054   0.05139
 Alpha virt. eigenvalues --    0.05196   0.05693   0.05928   0.06816   0.07068
 Alpha virt. eigenvalues --    0.07168   0.08030   0.08122   0.08416   0.08796
 Alpha virt. eigenvalues --    0.08979   0.09185   0.09464   0.10594   0.11045
 Alpha virt. eigenvalues --    0.11462   0.12127   0.12391   0.12979   0.13496
 Alpha virt. eigenvalues --    0.13659   0.13906   0.14351   0.14508   0.15440
 Alpha virt. eigenvalues --    0.15744   0.15802   0.15859   0.16198   0.16305
 Alpha virt. eigenvalues --    0.16458   0.16549   0.16984   0.17188   0.17326
 Alpha virt. eigenvalues --    0.17412   0.17702   0.18010   0.18123   0.18403
 Alpha virt. eigenvalues --    0.18440   0.18579   0.18688   0.19130   0.19184
 Alpha virt. eigenvalues --    0.19484   0.19581   0.20014   0.20283   0.20583
 Alpha virt. eigenvalues --    0.20805   0.21086   0.21212   0.21866   0.22019
 Alpha virt. eigenvalues --    0.22123   0.22423   0.22660   0.23171   0.23271
 Alpha virt. eigenvalues --    0.23476   0.23660   0.23726   0.23979   0.24293
 Alpha virt. eigenvalues --    0.24729   0.25086   0.25408   0.25454   0.25482
 Alpha virt. eigenvalues --    0.26004   0.26205   0.26743   0.27018   0.27238
 Alpha virt. eigenvalues --    0.27500   0.27661   0.27796   0.28325   0.28577
 Alpha virt. eigenvalues --    0.28651   0.29161   0.29210   0.29343   0.29525
 Alpha virt. eigenvalues --    0.29693   0.30315   0.30557   0.30688   0.31018
 Alpha virt. eigenvalues --    0.31509   0.32086   0.32419   0.32815   0.33299
 Alpha virt. eigenvalues --    0.33441   0.33563   0.33658   0.34389   0.34629
 Alpha virt. eigenvalues --    0.34812   0.34902   0.35267   0.35445   0.35560
 Alpha virt. eigenvalues --    0.35695   0.36050   0.36541   0.36639   0.37015
 Alpha virt. eigenvalues --    0.37171   0.37606   0.38070   0.38151   0.38403
 Alpha virt. eigenvalues --    0.38623   0.39054   0.39484   0.39625   0.40280
 Alpha virt. eigenvalues --    0.40595   0.40876   0.41066   0.41401   0.41728
 Alpha virt. eigenvalues --    0.42052   0.42337   0.42696   0.43035   0.43762
 Alpha virt. eigenvalues --    0.43956   0.44617   0.44786   0.44901   0.45091
 Alpha virt. eigenvalues --    0.45382   0.46653   0.47728   0.47925   0.48217
 Alpha virt. eigenvalues --    0.49164   0.50268   0.53344   0.54210   0.57336
 Alpha virt. eigenvalues --    0.58492   0.58809   0.59111   0.59269   0.60919
 Alpha virt. eigenvalues --    0.61656   0.62265   0.62557   0.62911   0.63111
 Alpha virt. eigenvalues --    0.63219   0.63421   0.63717   0.63793   0.64186
 Alpha virt. eigenvalues --    0.64410   0.64988   0.65221   0.65563   0.65657
 Alpha virt. eigenvalues --    0.65813   0.66262   0.67155   0.67361   0.68218
 Alpha virt. eigenvalues --    0.68731   0.69107   0.69852   0.70134   0.70492
 Alpha virt. eigenvalues --    0.70683   0.71367   0.71840   0.71943   0.72776
 Alpha virt. eigenvalues --    0.72938   0.73057   0.74126   0.74187   0.75027
 Alpha virt. eigenvalues --    0.75262   0.75997   0.76739   0.77143   0.77810
 Alpha virt. eigenvalues --    0.78379   0.78866   0.79165   0.79708   0.79792
 Alpha virt. eigenvalues --    0.80451   0.80679   0.81313   0.81569   0.82008
 Alpha virt. eigenvalues --    0.82408   0.82480   0.83230   0.83591   0.84099
 Alpha virt. eigenvalues --    0.84645   0.84822   0.85282   0.85773   0.85989
 Alpha virt. eigenvalues --    0.86670   0.87069   0.87502   0.88648   0.88760
 Alpha virt. eigenvalues --    0.90302   0.90433   0.91289   0.92199   0.92398
 Alpha virt. eigenvalues --    0.92715   0.92931   0.93435   0.93752   0.93969
 Alpha virt. eigenvalues --    0.94176   0.94265   0.94908   0.95658   0.96725
 Alpha virt. eigenvalues --    0.97036   0.98023   0.98189   0.99000   0.99721
 Alpha virt. eigenvalues --    1.00033   1.00423   1.00570   1.01271   1.01930
 Alpha virt. eigenvalues --    1.02215   1.02864   1.03560   1.04611   1.04833
 Alpha virt. eigenvalues --    1.05851   1.06256   1.06564   1.06972   1.07340
 Alpha virt. eigenvalues --    1.07681   1.08221   1.08401   1.09131   1.11466
 Alpha virt. eigenvalues --    1.11960   1.12664   1.12921   1.13502   1.13833
 Alpha virt. eigenvalues --    1.14792   1.15184   1.15506   1.17010   1.17317
 Alpha virt. eigenvalues --    1.17880   1.18628   1.19448   1.19662   1.21251
 Alpha virt. eigenvalues --    1.21392   1.22284   1.22554   1.23276   1.23923
 Alpha virt. eigenvalues --    1.24596   1.25488   1.26347   1.28516   1.29145
 Alpha virt. eigenvalues --    1.35561   1.39358   1.40889   1.41434   1.41969
 Alpha virt. eigenvalues --    1.45205   1.46782   1.47376   1.52734   1.55725
 Alpha virt. eigenvalues --    1.56730   1.58070   1.58285   1.58581   1.58892
 Alpha virt. eigenvalues --    1.59146   1.59669   1.60359   1.60898   1.61256
 Alpha virt. eigenvalues --    1.61916   1.62211   1.62826   1.63531   1.63661
 Alpha virt. eigenvalues --    1.64583   1.65551   1.65687   1.65929   1.66417
 Alpha virt. eigenvalues --    1.66532   1.67061   1.67687   1.68464   1.68798
 Alpha virt. eigenvalues --    1.69684   1.72503   1.72954   1.73913   1.74080
 Alpha virt. eigenvalues --    1.74313   1.75163   1.75605   1.76058   1.76632
 Alpha virt. eigenvalues --    1.76883   1.77451   1.80100   1.80988   1.82194
 Alpha virt. eigenvalues --    1.82715   1.82890   1.83716   1.84863   1.85040
 Alpha virt. eigenvalues --    1.85958   1.86350   1.86587   1.87032   1.87454
 Alpha virt. eigenvalues --    1.89326   1.90129   1.92098   1.92747   1.93300
 Alpha virt. eigenvalues --    1.93661   1.94229   1.96732   1.99247   1.99636
 Alpha virt. eigenvalues --    2.00222   2.00953   2.02035   2.02577   2.02657
 Alpha virt. eigenvalues --    2.03132   2.03289   2.04234   2.04398   2.04639
 Alpha virt. eigenvalues --    2.04886   2.05007   2.05614   2.05844   2.05985
 Alpha virt. eigenvalues --    2.07008   2.07324   2.08021   2.09052   2.09271
 Alpha virt. eigenvalues --    2.10522   2.11945   2.12219   2.12966   2.13436
 Alpha virt. eigenvalues --    2.14691   2.15810   2.16447   2.16858   2.17448
 Alpha virt. eigenvalues --    2.18058   2.18933   2.20130   2.20889   2.21263
 Alpha virt. eigenvalues --    2.23414   2.28364   2.30612   2.33906   2.35535
 Alpha virt. eigenvalues --    2.36387   2.36758   2.39240   2.39642   2.42661
 Alpha virt. eigenvalues --    2.43853   2.44325   2.46488   2.47536   2.49071
 Alpha virt. eigenvalues --    2.51421   2.52571   2.53001   2.54068   2.54471
 Alpha virt. eigenvalues --    2.55255   2.55858   2.56475   2.56675   2.58220
 Alpha virt. eigenvalues --    2.58417   2.58590   2.61307   2.62519   2.62970
 Alpha virt. eigenvalues --    2.72507   2.72964   2.73237   2.75767   2.76057
 Alpha virt. eigenvalues --    2.76429   2.76759   2.78237   2.79139   2.79574
 Alpha virt. eigenvalues --    2.79939   2.80062   2.80284   2.80448   2.80724
 Alpha virt. eigenvalues --    2.81801   2.81954   2.82562   2.83108   2.83514
 Alpha virt. eigenvalues --    2.83881   2.84369   2.84856   2.86180   2.87001
 Alpha virt. eigenvalues --    2.87386   2.87772   2.88553   2.89580   2.90587
 Alpha virt. eigenvalues --    2.91335   2.92329   2.92599   2.93041   2.93149
 Alpha virt. eigenvalues --    2.93549   2.94147   2.95068   2.96066   2.97546
 Alpha virt. eigenvalues --    2.99545   3.00083   3.00747   3.01407   3.03751
 Alpha virt. eigenvalues --    3.04262   3.04441   3.04696   3.04893   3.05378
 Alpha virt. eigenvalues --    3.06212   3.06512   3.07028   3.08699   3.11577
 Alpha virt. eigenvalues --    3.12200   3.15502   3.17884   3.19734   3.20072
 Alpha virt. eigenvalues --    3.20962   3.23118   3.25277   3.32001   3.32410
 Alpha virt. eigenvalues --    3.32584   3.33298   3.34956   3.35301   3.37627
 Alpha virt. eigenvalues --    3.47317   3.47939   3.48930   3.49376   3.49418
 Alpha virt. eigenvalues --    3.49595   3.53707   3.54095   3.60777   3.61092
 Alpha virt. eigenvalues --    3.62392   3.63006   3.65034   3.65603   3.66151
 Alpha virt. eigenvalues --    3.73598   3.73727   3.75701   3.76542   3.76807
 Alpha virt. eigenvalues --    3.77540   3.89762   3.91885   3.92854   4.09816
 Alpha virt. eigenvalues --    4.10136   4.10775   4.14498   4.14541   4.14595
 Alpha virt. eigenvalues --    4.23985   4.24311   4.26244   4.26343   4.26820
 Alpha virt. eigenvalues --    4.26963   4.28433   4.30251   4.51974   4.66925
 Alpha virt. eigenvalues --    4.70971   4.93433   4.95281   4.95643   4.98997
 Alpha virt. eigenvalues --   23.67810  23.80555  23.81802  23.88037  24.08523
 Alpha virt. eigenvalues --   24.08572  24.10511  24.10870  24.10970  24.11569
 Alpha virt. eigenvalues --   24.12281  24.13056  24.20569  24.20655  24.21294
 Alpha virt. eigenvalues --   24.23599  24.24219  24.24320  24.24445  24.24739
 Alpha virt. eigenvalues --   24.31228  24.33754  24.33798  24.34571
          Condensed to atoms (all electrons):
               1          2          3          4          5          6
     1  C   16.124431  -0.161473   0.209279  -4.710899  -0.153020   2.102434
     2  C   -0.161473  12.960710  -0.339461   1.426281   0.336200  -2.258549
     3  C    0.209279  -0.339461  11.075566  -1.019387   0.070784  -1.858894
     4  C   -4.710899   1.426281  -1.019387  19.172287   0.068800  -1.046623
     5  H   -0.153020   0.336200   0.070784   0.068800   0.582454  -0.002192
     6  C    2.102434  -2.258549  -1.858894  -1.046623  -0.002192  13.401259
     7  C   -5.175127  -1.659292   1.174461  -7.550614   0.063917  -1.012400
     8  H   -0.114074   0.135462   0.353176   0.036732   0.004563  -0.086290
     9  C   -1.579688   1.077025   0.937437   1.222257   0.061264  -1.734440
    10  C   -0.402586  -2.418634  -1.525076  -0.334751   0.072407   1.165140
    11  C   -0.937459   3.845029  -3.605980   1.028009  -0.127692  -1.335351
    12  C   -0.269013  -3.887209   3.432127  -0.762191   0.036662  -0.870476
    13  C   -0.223632  -1.544744  -2.242329  -0.887787  -0.019552   0.897460
    14  H    0.055548   0.040430  -0.028479  -0.096283  -0.002449  -0.015246
    15  C    1.667527   1.864582  -0.375198  -1.896703  -0.232480   0.040936
    16  C   -1.233741  -2.451764   0.280136   0.008349   0.162418   0.030876
    17  C    0.071926  -0.338693   0.069499   0.009971  -0.039376  -1.147462
    18  H    0.049274  -0.008082  -0.035744  -0.091444  -0.001262  -0.042793
    19  C   -0.330726   0.329636  -0.090458   0.145622   0.021856  -2.008400
    20  H   -0.015569  -0.099992   0.024801  -0.010843  -0.004007  -0.023019
    21  C    0.449202  -0.176684   1.634179  -0.870530  -0.004702   0.084795
    22  C   -0.611274   0.050907  -1.593571   1.181276   0.003996   0.140510
    23  C    0.387903   0.643346   0.085857   0.133530  -0.036750  -0.016892
    24  H   -0.039638  -0.053683  -0.022499   0.016652   0.002989   0.008736
    25  C   -0.146193   0.238595   0.043741   0.006037  -0.005057  -0.070885
    26  H    0.003904  -0.024623  -0.013835   0.134635  -0.001084   0.013151
    27  C   -0.184815  -0.051031  -0.006433  -0.061193  -0.008603  -0.147435
    28  H    0.001376  -0.000655  -0.000242   0.004132  -0.000795   0.011019
    29  H    0.008058   0.008937  -0.005852   0.003988   0.000400   0.005067
    30  C    0.366573   0.099887   0.457186  -0.075913  -0.003324   0.049083
    31  H   -0.025734  -0.026217   0.002050  -0.013996  -0.000501   0.022079
    32  C   -0.086202   0.077157  -0.064533   0.403577   0.002711  -0.099307
    33  H    0.011103  -0.008402  -0.000611  -0.142857  -0.000165   0.017665
    34  C   -0.015611  -0.174966  -0.026048  -0.318180   0.003271   0.041303
    35  H    0.003097   0.005075   0.000292   0.004593  -0.000968  -0.002943
    36  H    0.000680   0.006114   0.000394  -0.001470  -0.000175  -0.001065
    37  H   -0.002266  -0.001832   0.001597  -0.000180   0.000174   0.030759
    38  C   -0.080407  -0.036154  -0.089710  -0.063743   0.000500   0.032005
    39  H    0.006152   0.001004   0.001673   0.003900  -0.000044  -0.000968
    40  H    0.000981   0.000747  -0.000591   0.013123  -0.000019  -0.001178
    41  H    0.000504  -0.006572  -0.000720  -0.008749   0.000303   0.001083
    42  H    0.000674  -0.000913  -0.001046  -0.000884  -0.000001   0.000911
               7          8          9         10         11         12
     1  C   -5.175127  -0.114074  -1.579688  -0.402586  -0.937459  -0.269013
     2  C   -1.659292   0.135462   1.077025  -2.418634   3.845029  -3.887209
     3  C    1.174461   0.353176   0.937437  -1.525076  -3.605980   3.432127
     4  C   -7.550614   0.036732   1.222257  -0.334751   1.028009  -0.762191
     5  H    0.063917   0.004563   0.061264   0.072407  -0.127692   0.036662
     6  C   -1.012400  -0.086290  -1.734440   1.165140  -1.335351  -0.870476
     7  C   19.897506   0.009969  -0.107731   0.115417  -1.102327   0.816517
     8  H    0.009969   0.811656   0.112541  -0.029710   0.013956  -0.039706
     9  C   -0.107731   0.112541  12.839488  -2.813088   0.229974   0.259807
    10  C    0.115417  -0.029710  -2.813088  15.979623  -0.444355   0.088940
    11  C   -1.102327   0.013956   0.229974  -0.444355  16.720364  -7.467646
    12  C    0.816517  -0.039706   0.259807   0.088940  -7.467646  15.333951
    13  C    0.412003   0.011858  -3.136762   1.424575   0.004796   0.030415
    14  H    0.024046  -0.003005   0.317438   0.046877   0.012465  -0.010845
    15  C   -0.298552  -0.026299  -1.295909  -1.609342   0.461265  -0.085830
    16  C    0.850165   0.014960   1.101734  -0.942139  -0.284294   0.084288
    17  C    0.104765  -0.037611  -0.006126  -0.142815  -0.910282   0.655298
    18  H   -0.024415  -0.003938  -0.002429  -0.060508   0.531578   0.002247
    19  C    0.071816   0.055666   0.028861   0.033422   0.465867  -0.486161
    20  H   -0.031101  -0.083444  -0.004042   0.009647  -0.039632   0.584504
    21  C   -0.093436  -0.191405  -2.557153   0.149690   0.008835  -0.363695
    22  C   -1.375205   0.058589   1.676963  -0.013576  -0.011493   0.080180
    23  C   -0.290514  -0.000235   0.159089  -1.979376  -0.027512   0.032112
    24  H    0.026226   0.000201  -0.030345   0.034449   0.012741  -0.008592
    25  C    0.253636   0.003225   0.414051  -1.552734   0.059952  -0.023193
    26  H   -0.108155   0.000603  -0.087171  -0.013577  -0.012872   0.008567
    27  C   -0.097465   0.020756   0.012027  -0.006093  -0.285525  -0.599557
    28  H    0.003480   0.000371  -0.000662   0.000272  -0.065056   0.011842
    29  H    0.003138   0.004421  -0.000185  -0.000414   0.024483  -0.082597
    30  C    0.065223  -0.011862   0.378072  -0.047587   0.036436  -0.093797
    31  H    0.020706  -0.038956  -0.085952   0.016284  -0.001629  -0.006065
    32  C    0.212285   0.005355   0.708462  -0.147089  -0.015439   0.064037
    33  H    0.133106  -0.005998  -0.076704   0.003458   0.006789  -0.012300
    34  C    0.038514  -0.000642  -0.133214  -0.258837  -0.021766   0.003329
    35  H    0.000006  -0.000023   0.006933   0.018748   0.001813  -0.000065
    36  H    0.006815  -0.000017   0.014337   0.029687   0.000909  -0.000265
    37  H   -0.000202  -0.000846  -0.000128   0.000305  -0.023601  -0.000154
    38  C   -0.328914   0.018604  -0.310789   0.049081  -0.001818  -0.020951
    39  H    0.007580  -0.001111   0.013551  -0.001479   0.000437   0.000588
    40  H   -0.006676   0.000176   0.017046  -0.003594  -0.000126   0.000901
    41  H    0.001121  -0.000005  -0.007510   0.024318  -0.000589   0.000085
    42  H   -0.008400  -0.000386  -0.009549   0.001275   0.000023  -0.000330
              13         14         15         16         17         18
     1  C   -0.223632   0.055548   1.667527  -1.233741   0.071926   0.049274
     2  C   -1.544744   0.040430   1.864582  -2.451764  -0.338693  -0.008082
     3  C   -2.242329  -0.028479  -0.375198   0.280136   0.069499  -0.035744
     4  C   -0.887787  -0.096283  -1.896703   0.008349   0.009971  -0.091444
     5  H   -0.019552  -0.002449  -0.232480   0.162418  -0.039376  -0.001262
     6  C    0.897460  -0.015246   0.040936   0.030876  -1.147462  -0.042793
     7  C    0.412003   0.024046  -0.298552   0.850165   0.104765  -0.024415
     8  H    0.011858  -0.003005  -0.026299   0.014960  -0.037611  -0.003938
     9  C   -3.136762   0.317438  -1.295909   1.101734  -0.006126  -0.002429
    10  C    1.424575   0.046877  -1.609342  -0.942139  -0.142815  -0.060508
    11  C    0.004796   0.012465   0.461265  -0.284294  -0.910282   0.531578
    12  C    0.030415  -0.010845  -0.085830   0.084288   0.655298   0.002247
    13  C   15.241316   0.075794   0.129054  -0.020344  -0.027644   0.007908
    14  H    0.075794   0.489414   0.100052  -0.161341   0.003557  -0.000306
    15  C    0.129054   0.100052  17.402914  -9.496874   0.070984   0.068761
    16  C   -0.020344  -0.161341  -9.496874  19.563484  -0.024351  -0.033692
    17  C   -0.027644   0.003557   0.070984  -0.024351   8.496865  -0.042794
    18  H    0.007908  -0.000306   0.068761  -0.033692  -0.042794   0.579971
    19  C    0.048610  -0.003981  -0.019315   0.014452  -1.118547   0.006739
    20  H    0.015400  -0.000015   0.004676  -0.002428   0.026813   0.001531
    21  C   -0.308234   0.069695   0.112627  -0.099299   0.045256  -0.010689
    22  C   -1.088345  -0.113381  -0.165362   0.242825  -0.017902   0.006330
    23  C   -0.087158   0.013746  -0.393524  -0.430812  -0.013951   0.018585
    24  H    0.016245  -0.001033   0.465690  -0.004433  -0.001336  -0.006494
    25  C   -0.106918  -0.014193   0.494341  -1.500591   0.004641   0.002452
    26  H    0.001785  -0.002440  -0.083271   0.544928  -0.001388  -0.000448
    27  C    0.009929   0.000423   0.003895  -0.002556   0.331644   0.032767
    28  H   -0.000170  -0.000009   0.000012   0.000280   0.404822  -0.016689
    29  H   -0.000951  -0.000041  -0.000002   0.000054   0.002287  -0.000678
    30  C   -2.091268   0.021185   0.006747  -0.004590   0.000269  -0.000719
    31  H   -0.028620  -0.000677   0.005086  -0.003917   0.002915   0.000227
    32  C   -1.869906  -0.010348   0.000029  -0.018219   0.000460   0.000440
    33  H    0.018601   0.003739  -0.003852   0.017483   0.000406   0.000165
    34  C    0.063422  -0.003173  -0.344910   0.341348  -0.001891   0.000310
    35  H   -0.001400   0.000151  -0.099255  -0.002771   0.000351   0.000373
    36  H   -0.004652  -0.000432   0.014536  -0.117372   0.000028   0.000116
    37  H    0.000439  -0.000000  -0.000174   0.000050  -0.066077   0.000977
    38  C   -0.046175  -0.002933   0.000211  -0.003219  -0.000075  -0.000152
    39  H    0.018642   0.000270  -0.000039   0.000205  -0.000025   0.000005
    40  H    0.003357  -0.001291  -0.000290   0.001246  -0.000003   0.000002
    41  H    0.001492   0.000047   0.007546   0.024730  -0.000089  -0.000114
    42  H    0.031307   0.000303   0.000106  -0.000354  -0.000002   0.000001
              19         20         21         22         23         24
     1  C   -0.330726  -0.015569   0.449202  -0.611274   0.387903  -0.039638
     2  C    0.329636  -0.099992  -0.176684   0.050907   0.643346  -0.053683
     3  C   -0.090458   0.024801   1.634179  -1.593571   0.085857  -0.022499
     4  C    0.145622  -0.010843  -0.870530   1.181276   0.133530   0.016652
     5  H    0.021856  -0.004007  -0.004702   0.003996  -0.036750   0.002989
     6  C   -2.008400  -0.023019   0.084795   0.140510  -0.016892   0.008736
     7  C    0.071816  -0.031101  -0.093436  -1.375205  -0.290514   0.026226
     8  H    0.055666  -0.083444  -0.191405   0.058589  -0.000235   0.000201
     9  C    0.028861  -0.004042  -2.557153   1.676963   0.159089  -0.030345
    10  C    0.033422   0.009647   0.149690  -0.013576  -1.979376   0.034449
    11  C    0.465867  -0.039632   0.008835  -0.011493  -0.027512   0.012741
    12  C   -0.486161   0.584504  -0.363695   0.080180   0.032112  -0.008592
    13  C    0.048610   0.015400  -0.308234  -1.088345  -0.087158   0.016245
    14  H   -0.003981  -0.000015   0.069695  -0.113381   0.013746  -0.001033
    15  C   -0.019315   0.004676   0.112627  -0.165362  -0.393524   0.465690
    16  C    0.014452  -0.002428  -0.099299   0.242825  -0.430812  -0.004433
    17  C   -1.118547   0.026813   0.045256  -0.017902  -0.013951  -0.001336
    18  H    0.006739   0.001531  -0.010689   0.006330   0.018585  -0.006494
    19  C    8.802085  -0.093574  -0.096578   0.027113   0.003905   0.000343
    20  H   -0.093574   0.580371  -0.009524   0.014956   0.000370  -0.000203
    21  C   -0.096578  -0.009524  17.631841  -8.449526  -0.022347   0.007410
    22  C    0.027113   0.014956  -8.449526  17.339988   0.031864  -0.006408
    23  C    0.003905   0.000370  -0.022347   0.031864   8.095226  -0.118757
    24  H    0.000343  -0.000203   0.007410  -0.006408  -0.118757   0.495151
    25  C   -0.001902  -0.000687   0.000897  -0.006582  -0.300900  -0.010468
    26  H    0.000535   0.000189  -0.005894   0.027386  -0.018000   0.000463
    27  C    0.513709   0.001578  -0.018817   0.002412  -0.001689  -0.001219
    28  H    0.002078  -0.000544   0.000465  -0.000106  -0.000118   0.000520
    29  H    0.415103  -0.017460   0.000277   0.000096  -0.000011   0.000041
    30  C   -0.023909  -0.007185  -1.258232  -0.046219   0.000168   0.000065
    31  H   -0.004681   0.006934   0.613670  -0.071278  -0.000519   0.000338
    32  C    0.004477   0.002066  -0.189683  -0.971531   0.008980  -0.001485
    33  H   -0.000727   0.000487  -0.014055   0.453582  -0.000220   0.000073
    34  C    0.000192   0.000081   0.010883  -0.023450   0.154108   0.016122
    35  H   -0.000016   0.000010  -0.000399   0.000642   0.436618  -0.011715
    36  H   -0.000003  -0.000003  -0.000770   0.002165   0.020590  -0.000437
    37  H   -0.066326   0.001731  -0.000345   0.000087  -0.000052  -0.000040
    38  C   -0.000442  -0.003492   0.139910  -0.054517  -0.000908   0.000276
    39  H   -0.000286   0.000235  -0.122254   0.012108   0.000036  -0.000014
    40  H    0.000049   0.000035   0.003185  -0.089890   0.000043  -0.000009
    41  H    0.000006   0.000001   0.000227  -0.000572  -0.083751   0.001333
    42  H   -0.000004   0.000028   0.012790   0.000954  -0.000011   0.000005
              25         26         27         28         29         30
     1  C   -0.146193   0.003904  -0.184815   0.001376   0.008058   0.366573
     2  C    0.238595  -0.024623  -0.051031  -0.000655   0.008937   0.099887
     3  C    0.043741  -0.013835  -0.006433  -0.000242  -0.005852   0.457186
     4  C    0.006037   0.134635  -0.061193   0.004132   0.003988  -0.075913
     5  H   -0.005057  -0.001084  -0.008603  -0.000795   0.000400  -0.003324
     6  C   -0.070885   0.013151  -0.147435   0.011019   0.005067   0.049083
     7  C    0.253636  -0.108155  -0.097465   0.003480   0.003138   0.065223
     8  H    0.003225   0.000603   0.020756   0.000371   0.004421  -0.011862
     9  C    0.414051  -0.087171   0.012027  -0.000662  -0.000185   0.378072
    10  C   -1.552734  -0.013577  -0.006093   0.000272  -0.000414  -0.047587
    11  C    0.059952  -0.012872  -0.285525  -0.065056   0.024483   0.036436
    12  C   -0.023193   0.008567  -0.599557   0.011842  -0.082597  -0.093797
    13  C   -0.106918   0.001785   0.009929  -0.000170  -0.000951  -2.091268
    14  H   -0.014193  -0.002440   0.000423  -0.000009  -0.000041   0.021185
    15  C    0.494341  -0.083271   0.003895   0.000012  -0.000002   0.006747
    16  C   -1.500591   0.544928  -0.002556   0.000280   0.000054  -0.004590
    17  C    0.004641  -0.001388   0.331644   0.404822   0.002287   0.000269
    18  H    0.002452  -0.000448   0.032767  -0.016689  -0.000678  -0.000719
    19  C   -0.001902   0.000535   0.513709   0.002078   0.415103  -0.023909
    20  H   -0.000687   0.000189   0.001578  -0.000544  -0.017460  -0.007185
    21  C    0.000897  -0.005894  -0.018817   0.000465   0.000277  -1.258232
    22  C   -0.006582   0.027386   0.002412  -0.000106   0.000096  -0.046219
    23  C   -0.300900  -0.018000  -0.001689  -0.000118  -0.000011   0.000168
    24  H   -0.010468   0.000463  -0.001219   0.000520   0.000041   0.000065
    25  C    8.187010  -0.081051   0.000853  -0.000119   0.000008   0.008476
    26  H   -0.081051   0.498229   0.000016   0.000011  -0.000009  -0.000494
    27  C    0.000853   0.000016   6.630652  -0.057308  -0.060395   0.001007
    28  H   -0.000119   0.000011  -0.057308   0.476224   0.001519  -0.000007
    29  H    0.000008  -0.000009  -0.060395   0.001519   0.477705  -0.000102
    30  C    0.008476  -0.000494   0.001007  -0.000007  -0.000102   8.808236
    31  H   -0.000973  -0.000093  -0.001687   0.000007  -0.000274  -0.103151
    32  C   -0.027760  -0.002579   0.000060  -0.000006  -0.000048  -0.288242
    33  H    0.003056  -0.005838  -0.000205   0.000001   0.000021  -0.013106
    34  C    0.121162   0.034049  -0.000413   0.000071   0.000003  -0.000817
    35  H    0.015279  -0.000674   0.000060  -0.000027  -0.000001   0.000023
    36  H    0.433479  -0.013394   0.000007  -0.000002   0.000000   0.000053
    37  H    0.000011   0.000001   0.467458  -0.010734  -0.011054  -0.000005
    38  C   -0.004670   0.000596  -0.000415   0.000008   0.000135  -0.076466
    39  H    0.000052   0.000023   0.000091  -0.000001  -0.000017   0.454386
    40  H    0.000291   0.000381   0.000009  -0.000000  -0.000002   0.013252
    41  H   -0.090686   0.002413  -0.000008   0.000003   0.000000  -0.000011
    42  H   -0.000110  -0.000018  -0.000004   0.000000   0.000001  -0.076145
              31         32         33         34         35         36
     1  C   -0.025734  -0.086202   0.011103  -0.015611   0.003097   0.000680
     2  C   -0.026217   0.077157  -0.008402  -0.174966   0.005075   0.006114
     3  C    0.002050  -0.064533  -0.000611  -0.026048   0.000292   0.000394
     4  C   -0.013996   0.403577  -0.142857  -0.318180   0.004593  -0.001470
     5  H   -0.000501   0.002711  -0.000165   0.003271  -0.000968  -0.000175
     6  C    0.022079  -0.099307   0.017665   0.041303  -0.002943  -0.001065
     7  C    0.020706   0.212285   0.133106   0.038514   0.000006   0.006815
     8  H   -0.038956   0.005355  -0.005998  -0.000642  -0.000023  -0.000017
     9  C   -0.085952   0.708462  -0.076704  -0.133214   0.006933   0.014337
    10  C    0.016284  -0.147089   0.003458  -0.258837   0.018748   0.029687
    11  C   -0.001629  -0.015439   0.006789  -0.021766   0.001813   0.000909
    12  C   -0.006065   0.064037  -0.012300   0.003329  -0.000065  -0.000265
    13  C   -0.028620  -1.869906   0.018601   0.063422  -0.001400  -0.004652
    14  H   -0.000677  -0.010348   0.003739  -0.003173   0.000151  -0.000432
    15  C    0.005086   0.000029  -0.003852  -0.344910  -0.099255   0.014536
    16  C   -0.003917  -0.018219   0.017483   0.341348  -0.002771  -0.117372
    17  C    0.002915   0.000460   0.000406  -0.001891   0.000351   0.000028
    18  H    0.000227   0.000440   0.000165   0.000310   0.000373   0.000116
    19  C   -0.004681   0.004477  -0.000727   0.000192  -0.000016  -0.000003
    20  H    0.006934   0.002066   0.000487   0.000081   0.000010  -0.000003
    21  C    0.613670  -0.189683  -0.014055   0.010883  -0.000399  -0.000770
    22  C   -0.071278  -0.971531   0.453582  -0.023450   0.000642   0.002165
    23  C   -0.000519   0.008980  -0.000220   0.154108   0.436618   0.020590
    24  H    0.000338  -0.001485   0.000073   0.016122  -0.011715  -0.000437
    25  C   -0.000973  -0.027760   0.003056   0.121162   0.015279   0.433479
    26  H   -0.000093  -0.002579  -0.005838   0.034049  -0.000674  -0.013394
    27  C   -0.001687   0.000060  -0.000205  -0.000413   0.000060   0.000007
    28  H    0.000007  -0.000006   0.000001   0.000071  -0.000027  -0.000002
    29  H   -0.000274  -0.000048   0.000021   0.000003  -0.000001   0.000000
    30  C   -0.103151  -0.288242  -0.013106  -0.000817   0.000023   0.000053
    31  H    0.490167  -0.012013   0.001517   0.000293  -0.000012  -0.000004
    32  C   -0.012013   8.374209  -0.089603  -0.006307   0.000054   0.000698
    33  H    0.001517  -0.089603   0.497842  -0.000240   0.000050   0.000475
    34  C    0.000293  -0.006307  -0.000240   6.609008  -0.061393  -0.080639
    35  H   -0.000012   0.000054   0.000050  -0.061393   0.474934   0.001194
    36  H   -0.000004   0.000698   0.000475  -0.080639   0.001194   0.476135
    37  H    0.000033  -0.000003  -0.000000  -0.000003   0.000000   0.000000
    38  C    0.025753   0.009071   0.019408   0.000391  -0.000007   0.000002
    39  H   -0.010736   0.016312  -0.000526  -0.000010   0.000000  -0.000001
    40  H   -0.000166   0.432726  -0.010889   0.000004  -0.000001  -0.000027
    41  H    0.000005  -0.000147  -0.000040   0.474451  -0.011095  -0.012657
    42  H    0.000877  -0.075267   0.001452   0.000008  -0.000000  -0.000001
              37         38         39         40         41         42
     1  C   -0.002266  -0.080407   0.006152   0.000981   0.000504   0.000674
     2  C   -0.001832  -0.036154   0.001004   0.000747  -0.006572  -0.000913
     3  C    0.001597  -0.089710   0.001673  -0.000591  -0.000720  -0.001046
     4  C   -0.000180  -0.063743   0.003900   0.013123  -0.008749  -0.000884
     5  H    0.000174   0.000500  -0.000044  -0.000019   0.000303  -0.000001
     6  C    0.030759   0.032005  -0.000968  -0.001178   0.001083   0.000911
     7  C   -0.000202  -0.328914   0.007580  -0.006676   0.001121  -0.008400
     8  H   -0.000846   0.018604  -0.001111   0.000176  -0.000005  -0.000386
     9  C   -0.000128  -0.310789   0.013551   0.017046  -0.007510  -0.009549
    10  C    0.000305   0.049081  -0.001479  -0.003594   0.024318   0.001275
    11  C   -0.023601  -0.001818   0.000437  -0.000126  -0.000589   0.000023
    12  C   -0.000154  -0.020951   0.000588   0.000901   0.000085  -0.000330
    13  C    0.000439  -0.046175   0.018642   0.003357   0.001492   0.031307
    14  H   -0.000000  -0.002933   0.000270  -0.001291   0.000047   0.000303
    15  C   -0.000174   0.000211  -0.000039  -0.000290   0.007546   0.000106
    16  C    0.000050  -0.003219   0.000205   0.001246   0.024730  -0.000354
    17  C   -0.066077  -0.000075  -0.000025  -0.000003  -0.000089  -0.000002
    18  H    0.000977  -0.000152   0.000005   0.000002  -0.000114   0.000001
    19  C   -0.066326  -0.000442  -0.000286   0.000049   0.000006  -0.000004
    20  H    0.001731  -0.003492   0.000235   0.000035   0.000001   0.000028
    21  C   -0.000345   0.139910  -0.122254   0.003185   0.000227   0.012790
    22  C    0.000087  -0.054517   0.012108  -0.089890  -0.000572   0.000954
    23  C   -0.000052  -0.000908   0.000036   0.000043  -0.083751  -0.000011
    24  H   -0.000040   0.000276  -0.000014  -0.000009   0.001333   0.000005
    25  C    0.000011  -0.004670   0.000052   0.000291  -0.090686  -0.000110
    26  H    0.000001   0.000596   0.000023   0.000381   0.002413  -0.000018
    27  C    0.467458  -0.000415   0.000091   0.000009  -0.000008  -0.000004
    28  H   -0.010734   0.000008  -0.000001  -0.000000   0.000003   0.000000
    29  H   -0.011054   0.000135  -0.000017  -0.000002   0.000000   0.000001
    30  C   -0.000005  -0.076466   0.454386   0.013252  -0.000011  -0.076145
    31  H    0.000033   0.025753  -0.010736  -0.000166   0.000005   0.000877
    32  C   -0.000003   0.009071   0.016312   0.432726  -0.000147  -0.075267
    33  H   -0.000000   0.019408  -0.000526  -0.010889  -0.000040   0.001452
    34  C   -0.000003   0.000391  -0.000010   0.000004   0.474451   0.000008
    35  H    0.000000  -0.000007   0.000000  -0.000001  -0.011095  -0.000000
    36  H    0.000000   0.000002  -0.000001  -0.000027  -0.012657  -0.000001
    37  H    0.487163  -0.000006   0.000001   0.000000  -0.000000   0.000000
    38  C   -0.000006   6.865056  -0.080361  -0.059542   0.000009   0.459343
    39  H    0.000001  -0.080361   0.474729   0.000944  -0.000000  -0.009852
    40  H    0.000000  -0.059542   0.000944   0.472620  -0.000000  -0.010304
    41  H   -0.000000   0.000009  -0.000000  -0.000000   0.487666   0.000000
    42  H    0.000000   0.459343  -0.009852  -0.010304   0.000000   0.483621
 Mulliken charges:
               1
     1  C    0.978520
     2  C   -1.417498
     3  C   -0.907540
     4  C    0.941472
     5  H    0.148549
     6  C    1.686538
     7  C    0.958108
     8  H    0.002723
     9  C   -1.608780
    10  C    1.483742
    11  C   -0.743275
    12  C   -0.435761
    13  C    1.272183
    14  H    0.196723
    15  C   -0.494395
    16  C   -0.444913
    17  C   -0.364319
    18  H    0.072631
    19  C   -0.646105
    20  H    0.170321
    21  C   -0.111585
    22  C   -0.644741
    23  C   -0.402072
    24  H    0.212738
    25  C   -0.345574
    26  H    0.205043
    27  C   -0.436488
    28  H    0.234738
    29  H    0.224352
    30  C   -0.543179
    31  H    0.228906
    32  C   -0.347448
    33  H    0.195862
    34  C   -0.439814
    35  H    0.222468
    36  H    0.224971
    37  H    0.193239
    38  C   -0.354494
    39  H    0.214799
    40  H    0.223481
    41  H    0.195973
    42  H    0.199903
 Sum of Mulliken charges =  -0.00000
 Mulliken charges with hydrogens summed into heavy atoms:
               1
     1  C    0.978520
     2  C   -1.268949
     3  C   -0.904817
     4  C    0.941472
     6  C    1.686538
     7  C    0.958108
     9  C   -1.412057
    10  C    1.483742
    11  C   -0.670644
    12  C   -0.265440
    13  C    1.272183
    15  C   -0.281657
    16  C   -0.239870
    17  C   -0.129581
    19  C   -0.421753
    21  C    0.117321
    22  C   -0.448879
    23  C   -0.179604
    25  C   -0.120603
    27  C   -0.243250
    30  C   -0.328380
    32  C   -0.123967
    34  C   -0.243841
    38  C   -0.154591
 Electronic spatial extent (au):  <R**2>=          10005.7003
 Charge=             -0.0000 electrons
 Dipole moment (field-independent basis, Debye):
    X=              0.0086    Y=             -0.0097    Z=              0.0026  Tot=              0.0132
 Quadrupole moment (field-independent basis, Debye-Ang):
   XX=           -123.9906   YY=           -126.1155   ZZ=           -143.9814
   XY=              0.0041   XZ=             -3.0117   YZ=              6.0063
 Traceless Quadrupole moment (field-independent basis, Debye-Ang):
   XX=              7.3719   YY=              5.2470   ZZ=            -12.6189
   XY=              0.0041   XZ=             -3.0117   YZ=              6.0063
 Octapole moment (field-independent basis, Debye-Ang**2):
  XXX=              2.5156  YYY=             34.7265  ZZZ=              1.2681  XYY=             -5.3246
  XXY=            -25.2809  XXZ=             33.9055  XZZ=              2.6952  YZZ=             -9.6128
  YYZ=            -35.2119  XYZ=            -10.1737
 Hexadecapole moment (field-independent basis, Debye-Ang**3):
 XXXX=          -6324.9576 YYYY=          -6253.8286 ZZZZ=           -459.6914 XXXY=             -9.7345
 XXXZ=            -12.7512 YYYX=              1.5580 YYYZ=             89.9804 ZZZX=             -1.4561
 ZZZY=             24.1340 XXYY=          -2041.5934 XXZZ=          -1231.7809 YYZZ=          -1272.5984
 XXYZ=             39.0243 YYXZ=            -61.9259 ZZXY=              8.3629
 N-N= 1.733837016423D+03 E-N=-5.614028724951D+03  KE= 9.213073508233D+02
 No NMR shielding tensors so no spin-rotation constants.
 Leave Link  601 at Mon Nov 14 15:17:09 2022, MaxMem= 16106127360 cpu:               9.0 elap:               0.3
 (Enter /opt/ap/G16/B01/g16/l9999.exe)
 1\1\GINC-N62\SP\RwB97XD\6-311++G(d,p)\C24H18\ROOT\14-Nov-2022\0\\#P wB
 97XD/6-311++G(d,p) scf=maxcycle=512\\_conf023.gjf nmol_natom 1_42\\0,1
 \C\C,1,1.39412829\C,1,1.39435449,2,118.86443127\C,2,1.39416084,1,121.1
 529487,3,0.03668482,0\H,2,1.08488355,1,119.42236619,3,-179.97409048,0\
 C,1,1.48467131,2,120.55714816,4,179.25839056,0\C,3,1.39437784,1,121.11
 776116,2,-0.05351271,0\H,3,1.08487775,1,119.41869036,2,177.23008049,0\
 C,4,1.39432447,2,118.86473838,1,0.01008406,0\C,4,1.48466627,2,120.5464
 188,1,179.19454736,0\C,6,1.3968498,1,120.7843492,2,25.,0\C,6,1.3968682
 ,1,120.67653841,2,-155.,0\C,7,1.48449863,3,120.56496838,1,-179.9632580
 4,0\H,9,1.0848792,4,119.41824946,2,177.22245984,0\C,10,1.39685361,4,12
 0.76946845,2,-42.52368674,0\C,10,1.39686289,4,120.69448769,2,137.43107
 516,0\C,11,1.38888939,6,120.7380073,1,179.94058542,0\H,11,1.0847641,6,
 119.46912378,1,-1.41050605,0\C,12,1.38882428,6,120.76493111,1,-179.950
 82712,0\H,12,1.08482758,6,119.44182626,1,-1.23602505,0\C,13,1.39682899
 ,7,120.74134419,3,42.89023273,0\C,13,1.39683158,7,120.7379111,3,-137.1
 2494058,0\C,15,1.38888263,10,120.742191,4,179.9460119,0\H,15,1.0847633
 4,10,119.47085903,4,-1.40606944,0\C,16,1.38886088,10,120.76338989,4,-1
 79.95592713,0\H,16,1.08483431,10,119.44215232,4,-1.23439681,0\C,17,1.3
 9007919,11,120.20743432,6,0.00349958,0\H,17,1.0843506,11,119.71318733,
 6,179.5011609,0\H,19,1.08435858,12,119.73823132,6,179.53683762,0\C,21,
 1.38882373,13,120.76699356,7,179.99297883,0\H,21,1.0847938,13,119.4352
 623,7,1.32183327,0\C,22,1.38881869,13,120.76647403,7,-179.97118338,0\H
 ,22,1.08479982,13,119.43203605,7,1.34657928,0\C,23,1.39007007,15,120.2
 0732995,10,0.00573957,0\H,23,1.08434813,15,119.71220819,10,179.5072436
 8,0\H,25,1.08436328,16,119.73539424,10,179.53636455,0\H,27,1.08412515,
 17,120.21790854,11,179.98397203,0\C,30,1.39008059,21,120.18795226,13,-
 0.02169059,0\H,30,1.08435324,21,119.73787119,13,-179.52151214,0\H,32,1
 .0843543,22,119.737043,13,-179.52886928,0\H,34,1.08412314,23,120.22152
 803,15,179.98800213,0\H,38,1.08411439,30,120.21547163,21,-179.98600656
 ,0\\Version=ES64L-G16RevB.01\State=1-A\HF=-925.3095342\RMSD=4.242e-09\
 Dipole=0.005091,0.0008492,-0.0006817\Quadrupole=4.0290343,-9.0308532,5
 .0018189,-5.4177667,-0.7333381,-0.5470487\PG=C01 [X(C24H18)]\\@


 MORNING PEOPLE ARE USUALLY ADMIRED AS EARLY BIRDS.
 RECALL BEN FRANKLIN'S APHORISM THAT THE EARLY BIRD GETS THE WORM.
 I IDENTIFY WITH THE WORM. --  CRAIG JAGGER, MINNEAPOLIS, KS.
 Job cpu time:       0 days  1 hours 24 minutes 26.0 seconds.
 Elapsed time:       0 days  0 hours  2 minutes 40.5 seconds.
 File lengths (MBytes):  RWF=    224 Int=      0 D2E=      0 Chk=     26 Scr=      1
 Normal termination of Gaussian 16 at Mon Nov 14 15:17:09 2022.
