LAMMPS Description

36  atoms
40  bonds
66  angles
104  dihedrals
14  impropers

2  atom types
2  bond types
2  angle types
1  dihedral types
1  improper types

-2.688850 2.695740 xlo xhi
-3.627940 3.627940 ylo yhi
-7.688730 7.688730 zlo zhi

Masses

1 1.008  # ha
2 12.01  # ca

Atoms

1 1 2 0.199550 -0.58263800 -0.90363600 0.82223900
2 1 2 -0.351950 -0.61762000 -1.17040400 -0.48580300
3 1 2 0.199550 -0.09040600 0.30321000 1.37764900
4 1 2 0.199560 0.09040600 -0.30321000 -1.37764900
5 1 2 -0.396160 -1.28347900 -1.75532100 1.77644200
6 1 2 -0.396190 -0.08560600 0.45583300 2.74659800
7 1 2 -0.351940 0.61762000 1.17040400 0.48580300
8 1 2 -0.396140 0.08560600 -0.45583300 -2.74659700
9 1 2 0.199580 0.58263800 0.90363700 -0.82223900
10 1 2 0.215150 -1.27097000 -1.53049900 3.11638800
11 1 2 0.215250 -0.70255700 -0.35184700 3.63699400
12 1 2 0.215110 0.70255700 0.35184600 -3.63699400
13 1 2 -0.396160 1.28347900 1.75532100 -1.77644300
14 1 2 -0.243390 -1.95108900 -2.38826800 4.04013800
15 1 2 -0.243460 -0.73892700 -0.17531800 5.06249800
16 1 2 0.215120 1.27097100 1.53050000 -3.11638700
17 1 2 -0.243240 0.73892700 0.17531800 -5.06249800
18 1 2 -0.052280 -1.95002000 -2.14719500 5.37428200
19 1 2 -0.052270 -1.32422900 -1.05305600 5.90358900
20 1 2 -0.243260 1.95108800 2.38826800 -4.04013700
21 1 2 -0.052370 1.32422800 1.05305600 -5.90358900
22 1 2 -0.052340 1.95002000 2.14719500 -5.37428200
23 1 1 0.161400 -1.06515700 -2.01346600 -0.88459600
24 1 1 0.173080 -1.74206200 -2.66739500 1.42115400
25 1 1 0.173090 0.39700800 1.31690400 3.16134200
26 1 1 0.161390 1.06515700 2.01346600 0.88459600
27 1 1 0.173050 -0.39700800 -1.31690400 -3.16134300
28 1 1 0.173060 1.74206200 2.66739500 -1.42115400
29 1 1 0.117720 -2.40530700 -3.29813000 3.63989400
30 1 1 0.117710 -0.20256600 0.71924600 5.36558100
31 1 1 0.117690 0.20256600 -0.71924600 -5.36558200
32 1 1 0.081590 -2.44409800 -2.84442300 6.09066000
33 1 1 0.081640 -1.33112500 -0.85194600 6.98975700
34 1 1 0.117690 2.40530700 3.29813000 -3.63989400
35 1 1 0.081600 1.33112500 0.85194600 -6.98975700
36 1 1 0.081600 2.45098474 2.82966026 -6.02863320

Bonds

1 2 1 2
2 2 1 3
3 2 1 5
4 2 2 4
5 1 2 23
6 2 3 6
7 2 3 7
8 2 4 8
9 2 4 9
10 2 5 10
11 1 5 24
12 2 6 11
13 1 6 25
14 2 7 9
15 1 7 26
16 2 8 12
17 1 8 27
18 2 9 13
19 2 10 11
20 2 10 14
21 2 11 15
22 2 12 16
23 2 12 17
24 2 13 16
25 1 13 28
26 2 14 18
27 1 14 29
28 2 15 19
29 1 15 30
30 2 16 20
31 2 17 21
32 1 17 31
33 2 18 19
34 1 18 32
35 1 19 33
36 2 20 22
37 1 20 34
38 2 21 22
39 1 21 35
40 1 22 36

Angles

1 2 1 2 4
2 2 1 3 6
3 2 1 3 7
4 2 1 5 10
5 2 2 1 3
6 2 2 1 5
7 2 2 4 8
8 2 2 4 9
9 2 3 1 5
10 2 3 6 11
11 2 3 7 9
12 2 4 8 12
13 2 4 9 7
14 2 4 9 13
15 2 5 10 11
16 2 5 10 14
17 2 6 3 7
18 2 6 11 10
19 2 6 11 15
20 2 7 9 13
21 2 8 4 9
22 2 8 12 16
23 2 8 12 17
24 2 9 13 16
25 2 10 11 15
26 2 10 14 18
27 2 11 10 14
28 2 11 15 19
29 2 12 16 13
30 2 12 16 20
31 2 12 17 21
32 2 13 16 20
33 2 14 18 19
34 2 15 19 18
35 2 16 12 17
36 2 16 20 22
37 2 17 21 22
38 2 20 22 21
39 1 1 2 23
40 1 1 5 24
41 1 3 6 25
42 1 3 7 26
43 1 4 2 23
44 1 4 8 27
45 1 9 7 26
46 1 9 13 28
47 1 10 5 24
48 1 10 14 29
49 1 11 6 25
50 1 11 15 30
51 1 12 8 27
52 1 12 17 31
53 1 14 18 32
54 1 15 19 33
55 1 16 13 28
56 1 16 20 34
57 1 17 21 35
58 1 18 14 29
59 1 18 19 33
60 1 19 15 30
61 1 19 18 32
62 1 20 22 36
63 1 21 17 31
64 1 21 22 36
65 1 22 20 34
66 1 22 21 35

Dihedrals

1 1 1 2 4 8
2 1 1 2 4 9
3 1 1 3 6 11
4 1 1 3 7 9
5 1 1 5 10 11
6 1 1 5 10 14
7 1 2 1 3 6
8 1 2 1 3 7
9 1 2 1 5 10
10 1 2 4 8 12
11 1 2 4 9 7
12 1 2 4 9 13
13 1 3 1 2 4
14 1 3 1 5 10
15 1 3 6 11 10
16 1 3 6 11 15
17 1 3 7 9 4
18 1 3 7 9 13
19 1 4 2 1 5
20 1 4 8 12 16
21 1 4 8 12 17
22 1 4 9 13 16
23 1 5 1 3 6
24 1 5 1 3 7
25 1 5 10 11 6
26 1 5 10 11 15
27 1 5 10 14 18
28 1 6 3 7 9
29 1 6 11 10 14
30 1 6 11 15 19
31 1 7 3 6 11
32 1 7 9 4 8
33 1 7 9 13 16
34 1 8 4 9 13
35 1 8 12 16 13
36 1 8 12 16 20
37 1 8 12 17 21
38 1 9 4 8 12
39 1 9 13 16 12
40 1 9 13 16 20
41 1 10 11 15 19
42 1 10 14 18 19
43 1 11 10 14 18
44 1 11 15 19 18
45 1 12 16 20 22
46 1 12 17 21 22
47 1 13 16 12 17
48 1 13 16 20 22
49 1 14 10 11 15
50 1 14 18 19 15
51 1 16 12 17 21
52 1 16 20 22 21
53 1 17 12 16 20
54 1 17 21 22 20
55 1 1 3 6 25
56 1 1 3 7 26
57 1 2 1 5 24
58 1 2 4 8 27
59 1 3 1 2 23
60 1 3 1 5 24
61 1 4 9 7 26
62 1 4 9 13 28
63 1 5 1 2 23
64 1 5 10 14 29
65 1 6 3 7 26
66 1 6 11 15 30
67 1 7 3 6 25
68 1 7 9 13 28
69 1 8 4 2 23
70 1 8 12 17 31
71 1 9 4 2 23
72 1 9 4 8 27
73 1 10 11 6 25
74 1 10 11 15 30
75 1 10 14 18 32
76 1 11 10 5 24
77 1 11 10 14 29
78 1 11 15 19 33
79 1 12 16 13 28
80 1 12 16 20 34
81 1 12 17 21 35
82 1 13 9 7 26
83 1 13 16 20 34
84 1 14 10 5 24
85 1 14 18 19 33
86 1 15 11 6 25
87 1 15 19 18 32
88 1 16 12 8 27
89 1 16 12 17 31
90 1 16 20 22 36
91 1 17 12 8 27
92 1 17 21 22 36
93 1 18 19 15 30
94 1 19 18 14 29
95 1 20 16 13 28
96 1 20 22 21 35
97 1 21 22 20 34
98 1 22 21 17 31
99 1 29 14 18 32
100 1 30 15 19 33
101 1 31 17 21 35
102 1 32 18 19 33
103 1 34 20 22 36
104 1 35 21 22 36

Impropers

1 1 1 4 2 23
2 1 1 10 5 24
3 1 3 11 6 25
4 1 3 9 7 26
5 1 4 12 8 27
6 1 9 16 13 28
7 1 10 18 14 29
8 1 11 19 15 30
9 1 12 21 17 31
10 1 14 19 18 32
11 1 15 18 19 33
12 1 16 22 20 34
13 1 17 22 21 35
14 1 20 21 22 36

