 Entering Gaussian System, Link 0=g16
 Input=_conf026.gjf
 Output=_conf026.log
 Initial command:
 /opt/ap/G16/B01/g16/l1.exe "/tmp2/scr/Gau-5935.inp" -scrdir="/tmp2/scr/"
 Entering Link 1 = /opt/ap/G16/B01/g16/l1.exe PID=      5936.
  
 Copyright (c) 1988-2017, Gaussian, Inc.  All Rights Reserved.
  
 This is part of the Gaussian(R) 16 program.  It is based on
 the Gaussian(R) 09 system (copyright 2009, Gaussian, Inc.),
 the Gaussian(R) 03 system (copyright 2003, Gaussian, Inc.),
 the Gaussian(R) 98 system (copyright 1998, Gaussian, Inc.),
 the Gaussian(R) 94 system (copyright 1995, Gaussian, Inc.),
 the Gaussian 92(TM) system (copyright 1992, Gaussian, Inc.),
 the Gaussian 90(TM) system (copyright 1990, Gaussian, Inc.),
 the Gaussian 88(TM) system (copyright 1988, Gaussian, Inc.),
 the Gaussian 86(TM) system (copyright 1986, Carnegie Mellon
 University), and the Gaussian 82(TM) system (copyright 1983,
 Carnegie Mellon University). Gaussian is a federally registered
 trademark of Gaussian, Inc.
  
 This software contains proprietary and confidential information,
 including trade secrets, belonging to Gaussian, Inc.
  
 This software is provided under written license and may be
 used, copied, transmitted, or stored only in accord with that
 written license.
  
 The following legend is applicable only to US Government
 contracts under FAR:
  
                    RESTRICTED RIGHTS LEGEND
  
 Use, reproduction and disclosure by the US Government is
 subject to restrictions as set forth in subparagraphs (a)
 and (c) of the Commercial Computer Software - Restricted
 Rights clause in FAR 52.227-19.
  
 Gaussian, Inc.
 340 Quinnipiac St., Bldg. 40, Wallingford CT 06492
  
  
 ---------------------------------------------------------------
 Warning -- This program may not be used in any manner that
 competes with the business of Gaussian, Inc. or will provide
 assistance to any competitor of Gaussian, Inc.  The licensee
 of this program is prohibited from giving any competitor of
 Gaussian, Inc. access to this program.  By using this program,
 the user acknowledges that Gaussian, Inc. is engaged in the
 business of creating and licensing software in the field of
 computational chemistry and represents and warrants to the
 licensee that it is not a competitor of Gaussian, Inc. and that
 it will not use this program in any manner prohibited above.
 ---------------------------------------------------------------
  

 Cite this work as:
 Gaussian 16, Revision B.01,
 M. J. Frisch, G. W. Trucks, H. B. Schlegel, G. E. Scuseria, 
 M. A. Robb, J. R. Cheeseman, G. Scalmani, V. Barone, 
 G. A. Petersson, H. Nakatsuji, X. Li, M. Caricato, A. V. Marenich, 
 J. Bloino, B. G. Janesko, R. Gomperts, B. Mennucci, H. P. Hratchian, 
 J. V. Ortiz, A. F. Izmaylov, J. L. Sonnenberg, D. Williams-Young, 
 F. Ding, F. Lipparini, F. Egidi, J. Goings, B. Peng, A. Petrone, 
 T. Henderson, D. Ranasinghe, V. G. Zakrzewski, J. Gao, N. Rega, 
 G. Zheng, W. Liang, M. Hada, M. Ehara, K. Toyota, R. Fukuda, 
 J. Hasegawa, M. Ishida, T. Nakajima, Y. Honda, O. Kitao, H. Nakai, 
 T. Vreven, K. Throssell, J. A. Montgomery, Jr., J. E. Peralta, 
 F. Ogliaro, M. J. Bearpark, J. J. Heyd, E. N. Brothers, K. N. Kudin, 
 V. N. Staroverov, T. A. Keith, R. Kobayashi, J. Normand, 
 K. Raghavachari, A. P. Rendell, J. C. Burant, S. S. Iyengar, 
 J. Tomasi, M. Cossi, J. M. Millam, M. Klene, C. Adamo, R. Cammi, 
 J. W. Ochterski, R. L. Martin, K. Morokuma, O. Farkas, 
 J. B. Foresman, and D. J. Fox, Gaussian, Inc., Wallingford CT, 2016.
 
 ******************************************
 Gaussian 16:  ES64L-G16RevB.01 20-Dec-2017
                22-Nov-2022 
 ******************************************
 %nprocshared=32
 Will use up to   32 processors via shared memory.
 %mem=120GB
 %chk=_conf026.chk
 ----------------------------------------
 #P wB97XD/6-311++G(d,p) scf=maxcycle=512
 ----------------------------------------
 1/38=1,172=1/1;
 2/12=2,17=6,18=5,40=1/2;
 3/5=4,6=6,7=1111,11=2,25=1,30=1,74=-58/1,2,3;
 4//1;
 5/5=2,7=512,38=5/2;
 6/7=2,8=2,9=2,10=2,28=1/1;
 99/5=1,9=1/99;
 Leave Link    1 at Tue Nov 22 15:02:15 2022, MaxMem= 16106127360 cpu:               2.3 elap:               0.1
 (Enter /opt/ap/G16/B01/g16/l101.exe)
 ----------------------------
 _conf026.gjf nmol_natom 1_24
 ----------------------------
 Symbolic Z-matrix:
 Charge =  0 Multiplicity = 1
 C
 C                    1     1.39746 
 C                    1     1.39996  2     119.28067 
 C                    2     1.39288  1     120.37437  3    -0.51003  0
 H                    2     0.95015  1     119.82324  3     179.45635  0
 C                    1     1.49653  2     122.77761  4     174.46829  0
 C                    3     1.38701  1     120.10018  2    -0.37316  0
 H                    3     0.95011  1     119.95246  2     179.59239  0
 C                    7     1.3872   3     120.16569  1     1.07451  0
 H                    4     0.95012  2     120.18756  1    -179.31195  0
 C                    6     1.49517  1     120.70973  2     40.      0
 O                    6     1.2215   1     119.67074  2    -140.     0
 H                    7     0.94957  3     119.91275  1    -178.88636  0
 H                    9     0.94992  7     119.76038  3     179.10764  0
 C                    11    1.39714  6     122.62586  1     30.97749  0
 C                    11    1.4004   6     117.74754  1    -153.15468  0
 C                    15    1.39456  11    119.80747  6     175.4763  0
 H                    15    0.94963  11    120.10536  6    -4.50802  0
 C                    16    1.38466  11    120.46174  6    -176.88197  0
 H                    16    0.94975  11    119.75779  6     3.147    0
 C                    17    1.39089  15    120.34753  11    0.79736  0
 H                    17    0.94984  15    119.81565  11   -179.16676  0
 H                    19    0.94975  16    119.98566  11   -178.40987  0
 H                    21    0.94939  17    120.07445  15    179.91636  0
 
 ITRead=  0  0  0  0  0  0  0  0  0  0  0  0  0  0  0  0  0  0  0  0
 ITRead=  0  0  0  0
 MicOpt= -1 -1 -1 -1 -1 -1 -1 -1 -1 -1 -1 -1 -1 -1 -1 -1 -1 -1 -1 -1
 MicOpt= -1 -1 -1 -1
 NAtoms=     24 NQM=       24 NQMF=       0 NMMI=      0 NMMIF=      0
                NMic=       0 NMicF=      0.
                    Isotopes and Nuclear Properties:
 (Nuclear quadrupole moments (NQMom) in fm**2, nuclear magnetic moments (NMagM)
  in nuclear magnetons)

  Atom         1           2           3           4           5           6           7           8           9          10
 IAtWgt=          12          12          12          12           1          12          12           1          12           1
 AtmWgt=  12.0000000  12.0000000  12.0000000  12.0000000   1.0078250  12.0000000  12.0000000   1.0078250  12.0000000   1.0078250
 NucSpn=           0           0           0           0           1           0           0           1           0           1
 AtZEff=  -0.0000000  -0.0000000  -0.0000000  -0.0000000  -0.0000000  -0.0000000  -0.0000000  -0.0000000  -0.0000000  -0.0000000
 NQMom=    0.0000000   0.0000000   0.0000000   0.0000000   0.0000000   0.0000000   0.0000000   0.0000000   0.0000000   0.0000000
 NMagM=    0.0000000   0.0000000   0.0000000   0.0000000   2.7928460   0.0000000   0.0000000   2.7928460   0.0000000   2.7928460
 AtZNuc=   6.0000000   6.0000000   6.0000000   6.0000000   1.0000000   6.0000000   6.0000000   1.0000000   6.0000000   1.0000000

  Atom        11          12          13          14          15          16          17          18          19          20
 IAtWgt=          12          16           1           1          12          12          12           1          12           1
 AtmWgt=  12.0000000  15.9949146   1.0078250   1.0078250  12.0000000  12.0000000  12.0000000   1.0078250  12.0000000   1.0078250
 NucSpn=           0           0           1           1           0           0           0           1           0           1
 AtZEff=  -0.0000000  -0.0000000  -0.0000000  -0.0000000  -0.0000000  -0.0000000  -0.0000000  -0.0000000  -0.0000000  -0.0000000
 NQMom=    0.0000000   0.0000000   0.0000000   0.0000000   0.0000000   0.0000000   0.0000000   0.0000000   0.0000000   0.0000000
 NMagM=    0.0000000   0.0000000   2.7928460   2.7928460   0.0000000   0.0000000   0.0000000   2.7928460   0.0000000   2.7928460
 AtZNuc=   6.0000000   8.0000000   1.0000000   1.0000000   6.0000000   6.0000000   6.0000000   1.0000000   6.0000000   1.0000000

  Atom        21          22          23          24
 IAtWgt=          12           1           1           1
 AtmWgt=  12.0000000   1.0078250   1.0078250   1.0078250
 NucSpn=           0           1           1           1
 AtZEff=  -0.0000000  -0.0000000  -0.0000000  -0.0000000
 NQMom=    0.0000000   0.0000000   0.0000000   0.0000000
 NMagM=    0.0000000   2.7928460   2.7928460   2.7928460
 AtZNuc=   6.0000000   1.0000000   1.0000000   1.0000000
 Leave Link  101 at Tue Nov 22 15:02:15 2022, MaxMem= 16106127360 cpu:               6.3 elap:               0.2
 (Enter /opt/ap/G16/B01/g16/l202.exe)
                          Input orientation:                          
 ---------------------------------------------------------------------
 Center     Atomic      Atomic             Coordinates (Angstroms)
 Number     Number       Type             X           Y           Z
 ---------------------------------------------------------------------
      1          6           0        0.000000    0.000000    0.000000
      2          6           0        0.000000    0.000000    1.397463
      3          6           0        1.221096    0.000000   -0.684705
      4          6           0        1.201650   -0.010697    2.101772
      5          1           0       -0.824276    0.007821    1.869996
      6          6           0       -1.253421   -0.110138   -0.810191
      7          6           0        2.414707    0.007815    0.021719
      8          1           0        1.232246   -0.005856   -1.634731
      9          6           0        2.403895   -0.006831    1.408800
     10          1           0        1.198494   -0.020531    3.051836
     11          6           0       -2.496350    0.610130   -0.395617
     12          8           0       -1.261667   -0.795709   -1.821125
     13          1           0        3.241298    0.023792   -0.445367
     14          1           0        3.224827   -0.014217    1.886678
     15          6           0       -2.468565    1.828649    0.287346
     16          6           0       -3.726039    0.069007   -0.790786
     17          6           0       -3.661514    2.496396    0.562621
     18          1           0       -1.639805    2.201309    0.563164
     19          6           0       -4.909242    0.723794   -0.493163
     20          1           0       -3.748444   -0.753063   -1.265883
     21          6           0       -4.879520    1.947633    0.175460
     22          1           0       -3.641950    3.330577    1.016450
     23          1           0       -5.740611    0.339541   -0.744549
     24          1           0       -5.689397    2.404982    0.365894
 ---------------------------------------------------------------------
                    Distance matrix (angstroms):
                    1          2          3          4          5
     1  C    0.000000
     2  C    1.397463   0.000000
     3  C    1.399963   2.413814   0.000000
     4  C    2.421058   1.392885   2.786566   0.000000
     5  H    2.043619   0.950147   3.272630   2.039225   0.000000
     6  C    1.496530   2.541049   2.480142   3.810091   2.716889
     7  C    2.414817   2.779127   1.387013   2.408002   3.729228
     8  H    2.047146   3.273021   0.950109   3.736632   4.063567
     9  C    2.786301   2.403931   2.404542   1.387667   3.260982
    10  H    3.278797   2.042977   3.736665   0.950119   2.342893
    11  C    2.600103   3.133554   3.778257   4.505284   2.879516
    12  O    2.354029   3.547432   2.844067   4.698223   3.802808
    13  H    3.271839   3.728619   2.034469   3.263323   4.678681
    14  H    3.736210   3.261755   3.259932   2.034583   4.049198
    15  C    3.085505   3.266517   4.231127   4.488409   2.919569
    16  C    3.809655   4.321639   4.948753   5.714487   3.937478
    17  C    4.467127   4.509506   5.623850   5.683737   3.994015
    18  H    2.802120   2.868933   3.819384   3.915885   2.680352
    19  C    4.986757   5.310273   6.175889   6.679533   4.773268
    20  H    4.027455   4.659544   5.059762   6.032880   4.354704
    21  C    5.256784   5.394097   6.461476   6.672808   4.804095
    22  H    5.038821   4.949921   6.134809   5.983519   4.439429
    23  H    5.798643   6.136621   6.970239   7.511271   5.578193
    24  H    6.187654   6.262373   7.392064   7.505685   5.628331
                    6          7          8          9         10
     6  C    0.000000
     7  C    3.763130   0.000000
     8  H    2.620930   2.035246   0.000000
     9  C    4.279082   1.387200   3.261263   0.000000
    10  H    4.575496   3.265208   4.686711   2.037829   0.000000
    11  C    1.495169   4.965423   3.977092   5.258227   5.092596
    12  O    1.221501   4.190161   2.622634   4.948847   5.513532
    13  H    4.511488   0.949567   2.334899   2.034727   4.050363
    14  H    5.228480   2.033434   4.046081   0.949923   2.337447
    15  C    2.537727   5.218462   4.555852   5.326116   4.950676
    16  C    2.479176   6.194568   5.030153   6.513065   6.246982
    17  C    3.804937   6.588328   5.919333   6.615992   6.012553
    18  H    2.716281   4.641514   4.236862   4.684281   4.380183
    19  C    3.763108   7.376853   6.289152   7.591656   7.101090
    20  H    2.616515   6.342025   5.049914   6.749967   6.606928
    21  C    4.284219   7.549323   6.666828   7.641282   7.006387
    22  H    4.569487   6.979493   6.474436   6.916969   6.229175
    23  H    4.510144   8.197952   7.037930   8.431480   7.917915
    24  H    5.233249   8.458213   7.597617   8.509164   7.780774
                   11         12         13         14         15
    11  C    0.000000
    12  O    2.352211   0.000000
    13  H    5.767744   4.779224   0.000000
    14  H    6.191167   5.872578   2.332413   0.000000
    15  C    1.397140   3.576242   6.032986   6.194250   0.000000
    16  C    1.400396   2.807573   6.976041   7.449180   2.416598
    17  C    2.415332   4.720113   7.401258   7.448356   1.394557
    18  H    2.045674   3.848369   5.439107   5.506804   0.949629
    19  C    2.417537   4.168594   8.180684   8.507137   2.790484
    20  H    2.045335   2.548367   7.080483   7.688371   3.273506
    21  C    2.791872   4.959954   8.368649   8.512201   2.416481
    22  H    3.272181   5.544711   7.775013   7.687495   2.040640
    23  H    3.274172   4.744339   8.992435   9.350272   3.740125
    24  H    3.741249   5.884919   9.278229   9.361021   3.272933
                   16         17         18         19         20
    16  C    0.000000
    17  C    2.779944   0.000000
    18  H    3.276013   2.043131   0.000000
    19  C    1.384664   2.411145   3.740066   0.000000
    20  H    0.949746   3.729607   4.064490   2.031171   0.000000
    21  C    2.406945   1.390889   3.272678   1.394891   3.263520
    22  H    3.729747   0.949843   2.342925   3.268069   4.679370
    23  H    2.033181   3.268541   4.689659   0.949747   2.331159
    24  H    3.263351   2.039453   4.059507   2.042795   4.050092
                   21         22         23         24
    21  C    0.000000
    22  H    2.037493   0.000000
    23  H    2.043001   4.056081   0.000000
    24  H    0.949386   2.339229   2.345581   0.000000
 Stoichiometry    C13H10O
 Framework group  C1[X(C13H10O)]
 Deg. of freedom    66
 Full point group                 C1      NOp   1
 Largest Abelian subgroup         C1      NOp   1
 Largest concise Abelian subgroup C1      NOp   1
                         Standard orientation:                         
 ---------------------------------------------------------------------
 Center     Atomic      Atomic             Coordinates (Angstroms)
 Number     Number       Type             X           Y           Z
 ---------------------------------------------------------------------
      1          6           0       -1.296188    0.325011    0.025204
      2          6           0       -1.501114   -0.852086    0.750016
      3          6           0       -2.372692    0.906220   -0.655407
      4          6           0       -2.764944   -1.435163    0.803708
      5          1           0       -0.774216   -1.257341    1.208456
      6          6           0        0.006167    1.062211    0.028557
      7          6           0       -3.624963    0.311355   -0.613515
      8          1           0       -2.245429    1.709633   -1.146364
      9          6           0       -3.821206   -0.849143    0.120692
     10          1           0       -2.903411   -2.230121    1.305300
     11          6           0        1.303669    0.320246   -0.010242
     12          8           0        0.009741    2.283211    0.063358
     13          1           0       -4.349593    0.699204   -1.089079
     14          1           0       -4.684154   -1.244675    0.155732
     15          6           0        1.447999   -0.911678   -0.653306
     16          6           0        2.426348    0.940248    0.552161
     17          6           0        2.706065   -1.507821   -0.735010
     18          1           0        0.691741   -1.341822   -1.033890
     19          6           0        3.668858    0.332303    0.489979
     20          1           0        2.334606    1.783426    0.979541
     21          6           0        3.814608   -0.890402   -0.165361
     22          1           0        2.806359   -2.339622   -1.182503
     23          1           0        4.421467    0.748107    0.893348
     24          1           0        4.669067   -1.300277   -0.222255
 ---------------------------------------------------------------------
 Rotational constants (GHZ):           1.7520698           0.4064143           0.3543822
 Leave Link  202 at Tue Nov 22 15:02:16 2022, MaxMem= 16106127360 cpu:               0.2 elap:               0.0
 (Enter /opt/ap/G16/B01/g16/l301.exe)
 Standard basis: 6-311++G(d,p) (5D, 7F)
 Ernie: Thresh=  0.10000D-02 Tol=  0.10000D-05 Strict=F.
 There are   392 symmetry adapted cartesian basis functions of A   symmetry.
 There are   378 symmetry adapted basis functions of A   symmetry.
   378 basis functions,   594 primitive gaussians,   392 cartesian basis functions
    48 alpha electrons       48 beta electrons
       nuclear repulsion energy       782.4616771950 Hartrees.
 IExCor= 4639 DFT=T Ex+Corr=wB97XD ExCW=0 ScaHFX=  1.000000
 ScaDFX=  1.000000  1.000000  1.000000  1.000000 ScalE2=  1.000000  1.000000
 IRadAn=      5 IRanWt=     -1 IRanGd=            0 ICorTp=0 IEmpDi=121
 HFx  wShort=  0.000000 wLong=  0.200000 cFull=  0.222036 cShort=  0.000000 cLong=  0.777964
 DFx  wShort=  0.000000 wLong=  0.200000 cFull=  0.000000 cShort=  0.000000 cLong=  1.000000
 NAtoms=   24 NActive=   24 NUniq=   24 SFac= 1.00D+00 NAtFMM=   60 NAOKFM=F Big=F
 Integral buffers will be    131072 words long.
 Raffenetti 2 integral format.
 Two-electron integral symmetry is turned on.
 R6Disp:  Grimme-D2 Dispersion energy=       -0.0140408384 Hartrees.
 Nuclear repulsion after empirical dispersion term =      782.4476363566 Hartrees.
 Leave Link  301 at Tue Nov 22 15:02:16 2022, MaxMem= 16106127360 cpu:               1.2 elap:               0.0
 (Enter /opt/ap/G16/B01/g16/l302.exe)
 NPDir=0 NMtPBC=     1 NCelOv=     1 NCel=       1 NClECP=     1 NCelD=      1
         NCelK=      1 NCelE2=     1 NClLst=     1 CellRange=     0.0.
 One-electron integrals computed using PRISM.
 One-electron integral symmetry used in STVInt
 NBasis=   378 RedAO= T EigKep=  1.46D-06  NBF=   378
 NBsUse=   376 1.00D-06 EigRej=  8.58D-07 NBFU=   376
 Precomputing XC quadrature grid using
 IXCGrd= 4 IRadAn=           5 IRanWt=          -1 IRanGd=           0 AccXCQ= 0.00D+00.
 Generated NRdTot=       0 NPtTot=           0 NUsed=           0 NTot=          32
 NSgBfM=   392   392   392   392   392 MxSgAt=    24 MxSgA2=    24.
 Leave Link  302 at Tue Nov 22 15:02:16 2022, MaxMem= 16106127360 cpu:               8.7 elap:               0.3
 (Enter /opt/ap/G16/B01/g16/l303.exe)
 DipDrv:  MaxL=1.
 Leave Link  303 at Tue Nov 22 15:02:16 2022, MaxMem= 16106127360 cpu:               1.6 elap:               0.1
 (Enter /opt/ap/G16/B01/g16/l401.exe)
 ExpMin= 3.60D-02 ExpMax= 8.59D+03 ExpMxC= 1.30D+03 IAcc=3 IRadAn=         5 AccDes= 0.00D+00
 Harris functional with IExCor= 4639 and IRadAn=       5 diagonalized for initial guess.
 HarFok:  IExCor= 4639 AccDes= 0.00D+00 IRadAn=         5 IDoV= 1 UseB2=F ITyADJ=14
 ICtDFT=  3500011 ScaDFX=  1.000000  1.000000  1.000000  1.000000
 FoFCou: FMM=F IPFlag=           0 FMFlag=      100000 FMFlg1=           0
         NFxFlg=           0 DoJE=T BraDBF=F KetDBF=T FulRan=T
         wScrn=  0.000000 ICntrl=       500 IOpCl=  0 I1Cent=   200000004 NGrid=           0
         NMat0=    1 NMatS0=      1 NMatT0=    0 NMatD0=    1 NMtDS0=    0 NMtDT0=    0
 Petite list used in FoFCou.
 Harris En= -550.906844569708    
 JPrj=0 DoOrth=F DoCkMO=F.
 Leave Link  401 at Tue Nov 22 15:02:17 2022, MaxMem= 16106127360 cpu:              22.8 elap:               0.7
 (Enter /opt/ap/G16/B01/g16/l502.exe)
 Integral symmetry usage will be decided dynamically.
 Closed shell SCF:
 Using DIIS extrapolation, IDIIS=  1040.
 NGot= 16106127360 LenX= 16105803762 LenY= 16105649657
 Requested convergence on RMS density matrix=1.00D-08 within 512 cycles.
 Requested convergence on MAX density matrix=1.00D-06.
 Requested convergence on             energy=1.00D-06.
 No special actions if energy rises.
 Fock matrices will be formed incrementally for  20 cycles.

 Cycle   1  Pass 1  IDiag  1:
 FoFJK:  IHMeth= 1 ICntrl=       0 DoSepK=T KAlg= 0 I1Cent=           0 FoldK=F
 IRaf=         1 NMat=       1 IRICut=       1 DoRegI=T DoRafI=F ISym2E= 0 IDoP0=0 IntGTp=1.
 FoFCou: FMM=F IPFlag=           0 FMFlag=      100000 FMFlg1=           0
         NFxFlg=           0 DoJE=T BraDBF=F KetDBF=F FulRan=T
         wScrn=  0.000000 ICntrl=       500 IOpCl=  0 I1Cent=           0 NGrid=           0
         NMat0=    1 NMatS0=      1 NMatT0=    0 NMatD0=    1 NMtDS0=    0 NMtDT0=    0
 Symmetry not used in FoFCou.
 E= -576.264854084819    
 DIIS: error= 6.31D-02 at cycle   1 NSaved=   1.
 NSaved= 1 IEnMin= 1 EnMin= -576.264854084819     IErMin= 1 ErrMin= 6.31D-02
 ErrMax= 6.31D-02  0.00D+00 EMaxC= 1.00D-01 BMatC= 1.19D+00 BMatP= 1.19D+00
 IDIUse=3 WtCom= 3.69D-01 WtEn= 6.31D-01
 Coeff-Com:  0.100D+01
 Coeff-En:   0.100D+01
 Coeff:      0.100D+01
 Gap=     0.405 Goal=   None    Shift=    0.000
 GapD=    0.405 DampG=2.000 DampE=0.500 DampFc=1.0000 IDamp=-1.
 RMSDP=2.83D-02 MaxDP=3.59D+00              OVMax= 1.38D-01

 Cycle   2  Pass 1  IDiag  1:
 RMSU=  1.63D-02    CP:  7.02D-01
 E= -576.353315219253     Delta-E=       -0.088461134434 Rises=F Damp=F
 DIIS: error= 1.66D-02 at cycle   2 NSaved=   2.
 NSaved= 2 IEnMin= 2 EnMin= -576.353315219253     IErMin= 2 ErrMin= 1.66D-02
 ErrMax= 1.66D-02  0.00D+00 EMaxC= 1.00D-01 BMatC= 7.62D-02 BMatP= 1.19D+00
 IDIUse=3 WtCom= 8.34D-01 WtEn= 1.66D-01
 Coeff-Com:  0.127D+00 0.873D+00
 Coeff-En:   0.151D+00 0.849D+00
 Coeff:      0.131D+00 0.869D+00
 Gap=     0.425 Goal=   None    Shift=    0.000
 RMSDP=8.07D-03 MaxDP=1.26D+00 DE=-8.85D-02 OVMax= 1.59D-01

 Cycle   3  Pass 1  IDiag  1:
 RMSU=  6.74D-03    CP:  6.54D-01  8.51D-01
 E= -576.369894019171     Delta-E=       -0.016578799918 Rises=F Damp=F
 DIIS: error= 1.54D-02 at cycle   3 NSaved=   3.
 NSaved= 3 IEnMin= 3 EnMin= -576.369894019171     IErMin= 3 ErrMin= 1.54D-02
 ErrMax= 1.54D-02  0.00D+00 EMaxC= 1.00D-01 BMatC= 5.62D-02 BMatP= 7.62D-02
 IDIUse=3 WtCom= 8.46D-01 WtEn= 1.54D-01
 Coeff-Com:  0.240D-01 0.465D+00 0.511D+00
 Coeff-En:   0.000D+00 0.432D+00 0.568D+00
 Coeff:      0.203D-01 0.460D+00 0.520D+00
 Gap=     0.350 Goal=   None    Shift=    0.000
 RMSDP=3.22D-03 MaxDP=1.59D-01 DE=-1.66D-02 OVMax= 7.00D-02

 Cycle   4  Pass 1  IDiag  1:
 RMSU=  1.73D-03    CP:  6.37D-01  8.92D-01  6.61D-01
 E= -576.419224460933     Delta-E=       -0.049330441762 Rises=F Damp=F
 DIIS: error= 2.75D-03 at cycle   4 NSaved=   4.
 NSaved= 4 IEnMin= 4 EnMin= -576.419224460933     IErMin= 4 ErrMin= 2.75D-03
 ErrMax= 2.75D-03  0.00D+00 EMaxC= 1.00D-01 BMatC= 9.78D-04 BMatP= 5.62D-02
 IDIUse=3 WtCom= 9.73D-01 WtEn= 2.75D-02
 Coeff-Com:  0.964D-02 0.200D+00 0.245D+00 0.545D+00
 Coeff-En:   0.000D+00 0.000D+00 0.000D+00 0.100D+01
 Coeff:      0.938D-02 0.194D+00 0.238D+00 0.558D+00
 Gap=     0.324 Goal=   None    Shift=    0.000
 RMSDP=5.12D-04 MaxDP=3.76D-02 DE=-4.93D-02 OVMax= 7.09D-03

 Cycle   5  Pass 1  IDiag  1:
 RMSU=  4.07D-04    CP:  6.39D-01  9.09D-01  6.77D-01  9.80D-01
 E= -576.419896165473     Delta-E=       -0.000671704540 Rises=F Damp=F
 DIIS: error= 7.95D-04 at cycle   5 NSaved=   5.
 NSaved= 5 IEnMin= 5 EnMin= -576.419896165473     IErMin= 5 ErrMin= 7.95D-04
 ErrMax= 7.95D-04  0.00D+00 EMaxC= 1.00D-01 BMatC= 9.06D-05 BMatP= 9.78D-04
 IDIUse=3 WtCom= 9.92D-01 WtEn= 7.95D-03
 Coeff-Com: -0.585D-03-0.834D-02 0.192D-03 0.222D+00 0.787D+00
 Coeff-En:   0.000D+00 0.000D+00 0.000D+00 0.000D+00 0.100D+01
 Coeff:     -0.580D-03-0.827D-02 0.191D-03 0.220D+00 0.788D+00
 Gap=     0.325 Goal=   None    Shift=    0.000
 RMSDP=3.66D-04 MaxDP=4.07D-02 DE=-6.72D-04 OVMax= 2.68D-03

 Cycle   6  Pass 1  IDiag  1:
 RMSU=  2.34D-04    CP:  6.37D-01  9.17D-01  6.84D-01  1.07D+00  6.95D-01
 E= -576.419966638356     Delta-E=       -0.000070472883 Rises=F Damp=F
 DIIS: error= 3.70D-04 at cycle   6 NSaved=   6.
 NSaved= 6 IEnMin= 6 EnMin= -576.419966638356     IErMin= 6 ErrMin= 3.70D-04
 ErrMax= 3.70D-04  0.00D+00 EMaxC= 1.00D-01 BMatC= 1.89D-05 BMatP= 9.06D-05
 IDIUse=3 WtCom= 9.96D-01 WtEn= 3.70D-03
 Coeff-Com: -0.123D-02-0.231D-01-0.224D-01 0.654D-01 0.424D+00 0.558D+00
 Coeff-En:   0.000D+00 0.000D+00 0.000D+00 0.000D+00 0.000D+00 0.100D+01
 Coeff:     -0.123D-02-0.231D-01-0.224D-01 0.652D-01 0.422D+00 0.559D+00
 Gap=     0.325 Goal=   None    Shift=    0.000
 RMSDP=8.26D-05 MaxDP=3.85D-03 DE=-7.05D-05 OVMax= 1.26D-03

 Cycle   7  Pass 1  IDiag  1:
 RMSU=  6.15D-05    CP:  6.37D-01  9.17D-01  6.87D-01  1.08D+00  7.92D-01
                    CP:  9.51D-01
 E= -576.419986430489     Delta-E=       -0.000019792133 Rises=F Damp=F
 DIIS: error= 5.40D-05 at cycle   7 NSaved=   7.
 NSaved= 7 IEnMin= 7 EnMin= -576.419986430489     IErMin= 7 ErrMin= 5.40D-05
 ErrMax= 5.40D-05  0.00D+00 EMaxC= 1.00D-01 BMatC= 5.04D-07 BMatP= 1.89D-05
 IDIUse=1 WtCom= 1.00D+00 WtEn= 0.00D+00
 Coeff-Com: -0.230D-03-0.441D-02-0.523D-02-0.104D-01-0.907D-02 0.107D+00
 Coeff-Com:  0.922D+00
 Coeff:     -0.230D-03-0.441D-02-0.523D-02-0.104D-01-0.907D-02 0.107D+00
 Coeff:      0.922D+00
 Gap=     0.326 Goal=   None    Shift=    0.000
 RMSDP=4.23D-05 MaxDP=4.03D-03 DE=-1.98D-05 OVMax= 6.32D-04

 Cycle   8  Pass 1  IDiag  1:
 RMSU=  2.15D-05    CP:  6.37D-01  9.18D-01  6.88D-01  1.09D+00  8.07D-01
                    CP:  1.05D+00  1.09D+00
 E= -576.419987718897     Delta-E=       -0.000001288408 Rises=F Damp=F
 DIIS: error= 2.56D-05 at cycle   8 NSaved=   8.
 NSaved= 8 IEnMin= 8 EnMin= -576.419987718897     IErMin= 8 ErrMin= 2.56D-05
 ErrMax= 2.56D-05  0.00D+00 EMaxC= 1.00D-01 BMatC= 8.66D-08 BMatP= 5.04D-07
 IDIUse=1 WtCom= 1.00D+00 WtEn= 0.00D+00
 Coeff-Com:  0.494D-04 0.713D-03 0.224D-03-0.123D-01-0.556D-01-0.253D-01
 Coeff-Com:  0.311D+00 0.781D+00
 Coeff:      0.494D-04 0.713D-03 0.224D-03-0.123D-01-0.556D-01-0.253D-01
 Coeff:      0.311D+00 0.781D+00
 Gap=     0.326 Goal=   None    Shift=    0.000
 RMSDP=1.74D-05 MaxDP=2.03D-03 DE=-1.29D-06 OVMax= 2.47D-04

 Cycle   9  Pass 1  IDiag  1:
 RMSU=  5.22D-06    CP:  6.37D-01  9.18D-01  6.87D-01  1.10D+00  8.10D-01
                    CP:  1.08D+00  1.12D+00  1.30D+00
 E= -576.419987904154     Delta-E=       -0.000000185258 Rises=F Damp=F
 DIIS: error= 5.60D-06 at cycle   9 NSaved=   9.
 NSaved= 9 IEnMin= 9 EnMin= -576.419987904154     IErMin= 9 ErrMin= 5.60D-06
 ErrMax= 5.60D-06  0.00D+00 EMaxC= 1.00D-01 BMatC= 7.19D-09 BMatP= 8.66D-08
 IDIUse=1 WtCom= 1.00D+00 WtEn= 0.00D+00
 Coeff-Com:  0.414D-04 0.733D-03 0.729D-03-0.731D-03-0.920D-02-0.177D-01
 Coeff-Com: -0.652D-01 0.150D+00 0.942D+00
 Coeff:      0.414D-04 0.733D-03 0.729D-03-0.731D-03-0.920D-02-0.177D-01
 Coeff:     -0.652D-01 0.150D+00 0.942D+00
 Gap=     0.326 Goal=   None    Shift=    0.000
 RMSDP=7.01D-06 MaxDP=9.99D-04 DE=-1.85D-07 OVMax= 1.25D-04

 Cycle  10  Pass 1  IDiag  1:
 RMSU=  1.71D-06    CP:  6.37D-01  9.18D-01  6.87D-01  1.10D+00  8.09D-01
                    CP:  1.08D+00  1.12D+00  1.47D+00  1.30D+00
 E= -576.419987929494     Delta-E=       -0.000000025339 Rises=F Damp=F
 DIIS: error= 2.04D-06 at cycle  10 NSaved=  10.
 NSaved=10 IEnMin=10 EnMin= -576.419987929494     IErMin=10 ErrMin= 2.04D-06
 ErrMax= 2.04D-06  0.00D+00 EMaxC= 1.00D-01 BMatC= 7.53D-10 BMatP= 7.19D-09
 IDIUse=1 WtCom= 1.00D+00 WtEn= 0.00D+00
 Coeff-Com: -0.376D-05-0.291D-04 0.134D-04 0.149D-02 0.540D-02 0.251D-02
 Coeff-Com: -0.306D-01-0.767D-01 0.443D-01 0.105D+01
 Coeff:     -0.376D-05-0.291D-04 0.134D-04 0.149D-02 0.540D-02 0.251D-02
 Coeff:     -0.306D-01-0.767D-01 0.443D-01 0.105D+01
 Gap=     0.326 Goal=   None    Shift=    0.000
 RMSDP=2.40D-06 MaxDP=1.49D-04 DE=-2.53D-08 OVMax= 4.96D-05

 Cycle  11  Pass 1  IDiag  1:
 RMSU=  7.60D-07    CP:  6.37D-01  9.18D-01  6.87D-01  1.10D+00  8.09D-01
                    CP:  1.08D+00  1.11D+00  1.53D+00  1.42D+00  1.23D+00
 E= -576.419987933500     Delta-E=       -0.000000004007 Rises=F Damp=F
 DIIS: error= 1.05D-06 at cycle  11 NSaved=  11.
 NSaved=11 IEnMin=11 EnMin= -576.419987933500     IErMin=11 ErrMin= 1.05D-06
 ErrMax= 1.05D-06  0.00D+00 EMaxC= 1.00D-01 BMatC= 1.54D-10 BMatP= 7.53D-10
 IDIUse=1 WtCom= 1.00D+00 WtEn= 0.00D+00
 Coeff-Com: -0.423D-05-0.690D-04-0.609D-04 0.376D-03 0.172D-02 0.189D-02
 Coeff-Com:  0.860D-03-0.307D-01-0.986D-01 0.186D+00 0.938D+00
 Coeff:     -0.423D-05-0.690D-04-0.609D-04 0.376D-03 0.172D-02 0.189D-02
 Coeff:      0.860D-03-0.307D-01-0.986D-01 0.186D+00 0.938D+00
 Gap=     0.326 Goal=   None    Shift=    0.000
 RMSDP=6.89D-07 MaxDP=7.03D-05 DE=-4.01D-09 OVMax= 2.18D-05

 Cycle  12  Pass 1  IDiag  1:
 RMSU=  3.89D-07    CP:  6.37D-01  9.18D-01  6.87D-01  1.10D+00  8.10D-01
                    CP:  1.08D+00  1.11D+00  1.53D+00  1.47D+00  1.32D+00
                    CP:  1.30D+00
 E= -576.419987934267     Delta-E=       -0.000000000767 Rises=F Damp=F
 DIIS: error= 5.54D-07 at cycle  12 NSaved=  12.
 NSaved=12 IEnMin=12 EnMin= -576.419987934267     IErMin=12 ErrMin= 5.54D-07
 ErrMax= 5.54D-07  0.00D+00 EMaxC= 1.00D-01 BMatC= 3.44D-11 BMatP= 1.54D-10
 IDIUse=1 WtCom= 1.00D+00 WtEn= 0.00D+00
 Coeff-Com:  0.164D-06-0.749D-05-0.153D-04-0.319D-03-0.112D-02-0.353D-03
 Coeff-Com:  0.885D-02 0.155D-01-0.323D-01-0.233D+00 0.212D+00 0.103D+01
 Coeff:      0.164D-06-0.749D-05-0.153D-04-0.319D-03-0.112D-02-0.353D-03
 Coeff:      0.885D-02 0.155D-01-0.323D-01-0.233D+00 0.212D+00 0.103D+01
 Gap=     0.326 Goal=   None    Shift=    0.000
 RMSDP=3.56D-07 MaxDP=1.98D-05 DE=-7.67D-10 OVMax= 1.33D-05

 Cycle  13  Pass 1  IDiag  1:
 RMSU=  1.34D-07    CP:  6.37D-01  9.18D-01  6.87D-01  1.10D+00  8.10D-01
                    CP:  1.08D+00  1.11D+00  1.52D+00  1.48D+00  1.34D+00
                    CP:  1.50D+00  1.54D+00
 E= -576.419987934474     Delta-E=       -0.000000000207 Rises=F Damp=F
 DIIS: error= 1.74D-07 at cycle  13 NSaved=  13.
 NSaved=13 IEnMin=13 EnMin= -576.419987934474     IErMin=13 ErrMin= 1.74D-07
 ErrMax= 1.74D-07  0.00D+00 EMaxC= 1.00D-01 BMatC= 5.45D-12 BMatP= 3.44D-11
 IDIUse=1 WtCom= 1.00D+00 WtEn= 0.00D+00
 Coeff-Com:  0.605D-06 0.696D-05 0.525D-05-0.161D-03-0.564D-03-0.404D-03
 Coeff-Com:  0.237D-02 0.872D-02 0.325D-02-0.947D-01-0.596D-01 0.277D+00
 Coeff-Com:  0.864D+00
 Coeff:      0.605D-06 0.696D-05 0.525D-05-0.161D-03-0.564D-03-0.404D-03
 Coeff:      0.237D-02 0.872D-02 0.325D-02-0.947D-01-0.596D-01 0.277D+00
 Coeff:      0.864D+00
 Gap=     0.326 Goal=   None    Shift=    0.000
 RMSDP=1.20D-07 MaxDP=6.05D-06 DE=-2.07D-10 OVMax= 4.29D-06

 Cycle  14  Pass 1  IDiag  1:
 RMSU=  5.24D-08    CP:  6.37D-01  9.18D-01  6.87D-01  1.10D+00  8.10D-01
                    CP:  1.08D+00  1.11D+00  1.52D+00  1.48D+00  1.34D+00
                    CP:  1.54D+00  1.69D+00  1.30D+00
 E= -576.419987934496     Delta-E=       -0.000000000022 Rises=F Damp=F
 DIIS: error= 5.32D-08 at cycle  14 NSaved=  14.
 NSaved=14 IEnMin=14 EnMin= -576.419987934496     IErMin=14 ErrMin= 5.32D-08
 ErrMax= 5.32D-08  0.00D+00 EMaxC= 1.00D-01 BMatC= 9.49D-13 BMatP= 5.45D-12
 IDIUse=1 WtCom= 1.00D+00 WtEn= 0.00D+00
 Coeff-Com:  0.100D-06 0.269D-05 0.439D-05 0.468D-05 0.484D-04-0.382D-04
 Coeff-Com: -0.806D-03-0.378D-03 0.541D-02 0.135D-01-0.412D-01-0.116D+00
 Coeff-Com:  0.221D+00 0.918D+00
 Coeff:      0.100D-06 0.269D-05 0.439D-05 0.468D-05 0.484D-04-0.382D-04
 Coeff:     -0.806D-03-0.378D-03 0.541D-02 0.135D-01-0.412D-01-0.116D+00
 Coeff:      0.221D+00 0.918D+00
 Gap=     0.326 Goal=   None    Shift=    0.000
 RMSDP=7.97D-08 MaxDP=8.22D-06 DE=-2.21D-11 OVMax= 1.49D-06

 Cycle  15  Pass 1  IDiag  1:
 RMSU=  1.53D-08    CP:  6.37D-01  9.18D-01  6.87D-01  1.10D+00  8.10D-01
                    CP:  1.08D+00  1.11D+00  1.52D+00  1.48D+00  1.33D+00
                    CP:  1.55D+00  1.76D+00  1.50D+00  1.06D+00
 E= -576.419987934506     Delta-E=       -0.000000000010 Rises=F Damp=F
 DIIS: error= 1.64D-08 at cycle  15 NSaved=  15.
 NSaved=15 IEnMin=15 EnMin= -576.419987934506     IErMin=15 ErrMin= 1.64D-08
 ErrMax= 1.64D-08  0.00D+00 EMaxC= 1.00D-01 BMatC= 1.57D-13 BMatP= 9.49D-13
 IDIUse=1 WtCom= 1.00D+00 WtEn= 0.00D+00
 Coeff-Com: -0.319D-07 0.327D-06 0.137D-05 0.216D-04 0.931D-04 0.409D-04
 Coeff-Com: -0.608D-03-0.121D-02 0.195D-02 0.178D-01-0.795D-02-0.898D-01
 Coeff-Com: -0.157D-01 0.390D+00 0.706D+00
 Coeff:     -0.319D-07 0.327D-06 0.137D-05 0.216D-04 0.931D-04 0.409D-04
 Coeff:     -0.608D-03-0.121D-02 0.195D-02 0.178D-01-0.795D-02-0.898D-01
 Coeff:     -0.157D-01 0.390D+00 0.706D+00
 Gap=     0.326 Goal=   None    Shift=    0.000
 RMSDP=1.83D-08 MaxDP=1.51D-06 DE=-1.00D-11 OVMax= 3.34D-07

 Cycle  16  Pass 1  IDiag  1:
 RMSU=  4.05D-09    CP:  6.37D-01  9.18D-01  6.87D-01  1.10D+00  8.10D-01
                    CP:  1.08D+00  1.11D+00  1.52D+00  1.48D+00  1.33D+00
                    CP:  1.54D+00  1.78D+00  1.52D+00  1.14D+00  1.14D+00
 E= -576.419987934484     Delta-E=        0.000000000023 Rises=F Damp=F
 DIIS: error= 5.50D-09 at cycle  16 NSaved=  16.
 NSaved=16 IEnMin=15 EnMin= -576.419987934506     IErMin=16 ErrMin= 5.50D-09
 ErrMax= 5.50D-09  0.00D+00 EMaxC= 1.00D-01 BMatC= 4.47D-15 BMatP= 1.57D-13
 IDIUse=1 WtCom= 1.00D+00 WtEn= 0.00D+00
 Coeff-Com: -0.812D-08-0.188D-06-0.283D-06 0.133D-05 0.272D-05 0.984D-05
 Coeff-Com:  0.300D-04-0.707D-04-0.458D-03-0.437D-04 0.464D-02 0.215D-02
 Coeff-Com: -0.216D-01-0.583D-01 0.510D-01 0.102D+01
 Coeff:     -0.812D-08-0.188D-06-0.283D-06 0.133D-05 0.272D-05 0.984D-05
 Coeff:      0.300D-04-0.707D-04-0.458D-03-0.437D-04 0.464D-02 0.215D-02
 Coeff:     -0.216D-01-0.583D-01 0.510D-01 0.102D+01
 Gap=     0.326 Goal=   None    Shift=    0.000
 RMSDP=4.39D-09 MaxDP=2.58D-07 DE= 2.27D-11 OVMax= 7.72D-08

 SCF Done:  E(RwB97XD) =  -576.419987934     A.U. after   16 cycles
            NFock= 16  Conv=0.44D-08     -V/T= 2.0000
 KE= 5.764114097335D+02 PE=-2.907133341134D+03 EE= 9.718543071095D+02
 Leave Link  502 at Tue Nov 22 15:02:55 2022, MaxMem= 16106127360 cpu:            1208.3 elap:              37.9
 (Enter /opt/ap/G16/B01/g16/l601.exe)
 Copying SCF densities to generalized density rwf, IOpCl= 0 IROHF=0.

 **********************************************************************

            Population analysis using the SCF Density.

 **********************************************************************

 Orbital symmetries:
       Occupied  (A) (A) (A) (A) (A) (A) (A) (A) (A) (A) (A) (A)
                 (A) (A) (A) (A) (A) (A) (A) (A) (A) (A) (A) (A)
                 (A) (A) (A) (A) (A) (A) (A) (A) (A) (A) (A) (A)
                 (A) (A) (A) (A) (A) (A) (A) (A) (A) (A) (A) (A)
       Virtual   (A) (A) (A) (A) (A) (A) (A) (A) (A) (A) (A) (A)
                 (A) (A) (A) (A) (A) (A) (A) (A) (A) (A) (A) (A)
                 (A) (A) (A) (A) (A) (A) (A) (A) (A) (A) (A) (A)
                 (A) (A) (A) (A) (A) (A) (A) (A) (A) (A) (A) (A)
                 (A) (A) (A) (A) (A) (A) (A) (A) (A) (A) (A) (A)
                 (A) (A) (A) (A) (A) (A) (A) (A) (A) (A) (A) (A)
                 (A) (A) (A) (A) (A) (A) (A) (A) (A) (A) (A) (A)
                 (A) (A) (A) (A) (A) (A) (A) (A) (A) (A) (A) (A)
                 (A) (A) (A) (A) (A) (A) (A) (A) (A) (A) (A) (A)
                 (A) (A) (A) (A) (A) (A) (A) (A) (A) (A) (A) (A)
                 (A) (A) (A) (A) (A) (A) (A) (A) (A) (A) (A) (A)
                 (A) (A) (A) (A) (A) (A) (A) (A) (A) (A) (A) (A)
                 (A) (A) (A) (A) (A) (A) (A) (A) (A) (A) (A) (A)
                 (A) (A) (A) (A) (A) (A) (A) (A) (A) (A) (A) (A)
                 (A) (A) (A) (A) (A) (A) (A) (A) (A) (A) (A) (A)
                 (A) (A) (A) (A) (A) (A) (A) (A) (A) (A) (A) (A)
                 (A) (A) (A) (A) (A) (A) (A) (A) (A) (A) (A) (A)
                 (A) (A) (A) (A) (A) (A) (A) (A) (A) (A) (A) (A)
                 (A) (A) (A) (A) (A) (A) (A) (A) (A) (A) (A) (A)
                 (A) (A) (A) (A) (A) (A) (A) (A) (A) (A) (A) (A)
                 (A) (A) (A) (A) (A) (A) (A) (A) (A) (A) (A) (A)
                 (A) (A) (A) (A) (A) (A) (A) (A) (A) (A) (A) (A)
                 (A) (A) (A) (A) (A) (A) (A) (A) (A) (A) (A) (A)
                 (A) (A) (A) (A) (A) (A) (A) (A) (A) (A) (A) (A)
                 (A) (A) (A) (A) (A) (A) (A) (A) (A) (A) (A) (A)
                 (A) (A) (A) (A) (A) (A) (A) (A) (A) (A) (A) (A)
                 (A) (A) (A) (A) (A) (A) (A) (A) (A) (A) (A) (A)
                 (A) (A) (A) (A)
 The electronic state is 1-A.
 Alpha  occ. eigenvalues --  -19.23751 -10.38148 -10.30481 -10.30458 -10.28969
 Alpha  occ. eigenvalues --  -10.28889 -10.28647 -10.28452 -10.28425 -10.28420
 Alpha  occ. eigenvalues --  -10.28390 -10.28358 -10.28220 -10.28101  -1.14827
 Alpha  occ. eigenvalues --   -0.97881  -0.97397  -0.89100  -0.87343  -0.87257
 Alpha  occ. eigenvalues --   -0.86762  -0.76764  -0.73761  -0.73575  -0.72453
 Alpha  occ. eigenvalues --   -0.67945  -0.65414  -0.63007  -0.60173  -0.56743
 Alpha  occ. eigenvalues --   -0.56132  -0.55815  -0.54004  -0.53935  -0.53880
 Alpha  occ. eigenvalues --   -0.52024  -0.49598  -0.47161  -0.46656  -0.46172
 Alpha  occ. eigenvalues --   -0.45346  -0.44874  -0.44291  -0.35158  -0.34645
 Alpha  occ. eigenvalues --   -0.34215  -0.34109  -0.33155
 Alpha virt. eigenvalues --   -0.00594   0.03599   0.03663   0.04225   0.04319
 Alpha virt. eigenvalues --    0.05146   0.05176   0.05404   0.05994   0.06792
 Alpha virt. eigenvalues --    0.07551   0.08044   0.08858   0.09881   0.11067
 Alpha virt. eigenvalues --    0.11420   0.11842   0.13091   0.13647   0.14269
 Alpha virt. eigenvalues --    0.14846   0.14960   0.15515   0.15888   0.16572
 Alpha virt. eigenvalues --    0.16962   0.17137   0.17353   0.17751   0.17870
 Alpha virt. eigenvalues --    0.18238   0.18488   0.18721   0.19116   0.19610
 Alpha virt. eigenvalues --    0.19780   0.20352   0.20456   0.20890   0.21000
 Alpha virt. eigenvalues --    0.21377   0.21697   0.22059   0.23096   0.23778
 Alpha virt. eigenvalues --    0.24132   0.25032   0.25274   0.25400   0.26401
 Alpha virt. eigenvalues --    0.26571   0.27072   0.27739   0.28286   0.28700
 Alpha virt. eigenvalues --    0.29281   0.29828   0.30026   0.30224   0.30869
 Alpha virt. eigenvalues --    0.31305   0.31996   0.32721   0.32948   0.33616
 Alpha virt. eigenvalues --    0.34052   0.34322   0.34569   0.35607   0.35818
 Alpha virt. eigenvalues --    0.36706   0.37377   0.37933   0.38642   0.39121
 Alpha virt. eigenvalues --    0.39320   0.39973   0.41002   0.41621   0.41839
 Alpha virt. eigenvalues --    0.42073   0.42791   0.42953   0.44019   0.44709
 Alpha virt. eigenvalues --    0.45018   0.45736   0.46669   0.48848   0.50874
 Alpha virt. eigenvalues --    0.51626   0.57222   0.57486   0.57756   0.61187
 Alpha virt. eigenvalues --    0.61400   0.62025   0.62761   0.63024   0.63790
 Alpha virt. eigenvalues --    0.64066   0.64639   0.65211   0.65557   0.66218
 Alpha virt. eigenvalues --    0.66447   0.66545   0.68105   0.69173   0.70440
 Alpha virt. eigenvalues --    0.71212   0.71670   0.72328   0.73869   0.74358
 Alpha virt. eigenvalues --    0.75214   0.75979   0.76496   0.77695   0.79338
 Alpha virt. eigenvalues --    0.79836   0.80302   0.81870   0.81952   0.82473
 Alpha virt. eigenvalues --    0.83613   0.84641   0.84739   0.85840   0.87543
 Alpha virt. eigenvalues --    0.88090   0.89559   0.92632   0.93066   0.93376
 Alpha virt. eigenvalues --    0.94284   0.94377   0.95221   0.96397   0.96741
 Alpha virt. eigenvalues --    0.97294   0.97944   0.99441   0.99936   1.01953
 Alpha virt. eigenvalues --    1.02190   1.02607   1.04473   1.04872   1.05223
 Alpha virt. eigenvalues --    1.07768   1.08561   1.09892   1.12751   1.12982
 Alpha virt. eigenvalues --    1.13687   1.16027   1.16564   1.17231   1.17937
 Alpha virt. eigenvalues --    1.19329   1.20763   1.21987   1.22962   1.24382
 Alpha virt. eigenvalues --    1.27214   1.29713   1.31100   1.34613   1.38453
 Alpha virt. eigenvalues --    1.40205   1.43486   1.44798   1.45939   1.55001
 Alpha virt. eigenvalues --    1.57547   1.58187   1.58955   1.60424   1.61581
 Alpha virt. eigenvalues --    1.61711   1.63132   1.64487   1.65628   1.66511
 Alpha virt. eigenvalues --    1.67179   1.68279   1.68613   1.70586   1.73189
 Alpha virt. eigenvalues --    1.75763   1.75965   1.76649   1.77177   1.77957
 Alpha virt. eigenvalues --    1.78433   1.81503   1.86583   1.87551   1.88966
 Alpha virt. eigenvalues --    1.90118   1.91579   1.91789   1.93369   1.93868
 Alpha virt. eigenvalues --    1.95504   1.95922   1.98263   2.00233   2.00518
 Alpha virt. eigenvalues --    2.01560   2.02184   2.05503   2.05656   2.06114
 Alpha virt. eigenvalues --    2.06569   2.06958   2.07416   2.10059   2.11129
 Alpha virt. eigenvalues --    2.11560   2.15112   2.15225   2.17806   2.20783
 Alpha virt. eigenvalues --    2.24511   2.26755   2.27134   2.28627   2.29933
 Alpha virt. eigenvalues --    2.30843   2.42314   2.44685   2.46457   2.48406
 Alpha virt. eigenvalues --    2.48964   2.49694   2.50658   2.51443   2.52562
 Alpha virt. eigenvalues --    2.58327   2.59554   2.60728   2.67153   2.67803
 Alpha virt. eigenvalues --    2.69923   2.78084   2.80473   2.82018   2.82277
 Alpha virt. eigenvalues --    2.83159   2.84318   2.87102   2.87886   2.88566
 Alpha virt. eigenvalues --    2.89646   2.92558   2.93295   2.93632   2.96510
 Alpha virt. eigenvalues --    2.96739   2.97056   2.97952   3.00334   3.00654
 Alpha virt. eigenvalues --    3.00993   3.01061   3.02094   3.03145   3.05152
 Alpha virt. eigenvalues --    3.05779   3.08761   3.12463   3.14557   3.16112
 Alpha virt. eigenvalues --    3.19339   3.20385   3.21702   3.25118   3.25508
 Alpha virt. eigenvalues --    3.27240   3.32554   3.32858   3.37482   3.45145
 Alpha virt. eigenvalues --    3.48976   3.49998   3.51185   3.53334   3.65812
 Alpha virt. eigenvalues --    3.69853   3.70617   3.70994   3.75249   3.76314
 Alpha virt. eigenvalues --    3.83417   3.88629   3.91686   3.97149   4.31855
 Alpha virt. eigenvalues --    4.37043   4.37387   4.39689   4.40509   4.41635
 Alpha virt. eigenvalues --    4.42737   4.50840   4.51923   4.57207   4.94662
 Alpha virt. eigenvalues --    4.95740   5.21490   5.35507   5.85987  23.89501
 Alpha virt. eigenvalues --   23.96114  23.98803  24.16976  24.18970  24.24002
 Alpha virt. eigenvalues --   24.24929  24.30117  24.31014  24.33993  24.34434
 Alpha virt. eigenvalues --   24.43372  24.44299  50.14780
          Condensed to atoms (all electrons):
               1          2          3          4          5          6
     1  C   14.277773   0.035966  -0.550591  -0.672212   0.034579  -4.813988
     2  C    0.035966  16.893044  -4.507442  -3.320768   0.761505  -3.020633
     3  C   -0.550591  -4.507442   9.665988   0.764543  -0.053241  -0.184342
     4  C   -0.672212  -3.320768   0.764543   7.990399  -0.259745   1.943448
     5  H    0.034579   0.761505  -0.053241  -0.259745   0.514620  -0.214942
     6  C   -4.813988  -3.020633  -0.184342   1.943448  -0.214942  20.551922
     7  C   -0.720670  -0.505763   0.803639  -0.059323   0.016404   0.174617
     8  H    0.091528   0.098168   0.317291  -0.006035  -0.000150   0.013861
     9  C   -0.301987   1.472962  -0.854632  -0.308020   0.034059  -0.729501
    10  H    0.055864  -0.209477   0.042328   0.525292  -0.019542   0.049630
    11  C   -1.465396  -0.299279   0.136731  -0.563493   0.056186  -5.865775
    12  O   -0.001174  -0.020828   0.040877  -0.014839  -0.001157   0.248173
    13  H   -0.013034  -0.038153  -0.053519   0.022043   0.000801   0.014782
    14  H    0.021385   0.055618  -0.027779  -0.104923   0.001565  -0.038140
    15  C   -0.361051  -0.551483   0.291070   0.102853  -0.005033  -2.713502
    16  C   -0.500742  -0.124223  -0.092771   0.182512  -0.028831   1.589270
    17  C   -0.339550   0.088352   0.075036   0.097964  -0.013320   1.067802
    18  H    0.025616   0.001498  -0.003785  -0.016649  -0.003176  -0.139850
    19  C   -0.087868   0.115354  -0.155065   0.045219  -0.001212  -0.334239
    20  H   -0.031519  -0.047997   0.032596  -0.002210  -0.003781   0.031078
    21  C    0.077602  -0.135724   0.068626  -0.010747   0.002791  -0.318060
    22  H   -0.014120   0.006478  -0.003364   0.004257  -0.001843   0.033006
    23  H   -0.007403   0.010042  -0.006244   0.000967   0.000062   0.010221
    24  H    0.008671  -0.010270   0.003851  -0.001463  -0.000144  -0.030618
               7          8          9         10         11         12
     1  C   -0.720670   0.091528  -0.301987   0.055864  -1.465396  -0.001174
     2  C   -0.505763   0.098168   1.472962  -0.209477  -0.299279  -0.020828
     3  C    0.803639   0.317291  -0.854632   0.042328   0.136731   0.040877
     4  C   -0.059323  -0.006035  -0.308020   0.525292  -0.563493  -0.014839
     5  H    0.016404  -0.000150   0.034059  -0.019542   0.056186  -0.001157
     6  C    0.174617   0.013861  -0.729501   0.049630  -5.865775   0.248173
     7  C    5.849893  -0.115429   0.504490   0.011786  -0.085382  -0.000006
     8  H   -0.115429   0.468750  -0.006432   0.000090  -0.043377  -0.013774
     9  C    0.504490  -0.006432   6.057555  -0.126927   0.162880   0.009476
    10  H    0.011786   0.000090  -0.126927   0.494159  -0.018783  -0.000030
    11  C   -0.085382  -0.043377   0.162880  -0.018783  15.007835   0.044043
    12  O   -0.000006  -0.013774   0.009476  -0.000030   0.044043   7.948355
    13  H    0.473123  -0.013601  -0.058614   0.001126  -0.008545  -0.000003
    14  H   -0.069671   0.002346   0.509751  -0.015956   0.009559   0.000138
    15  C    0.127069  -0.049659  -0.103319   0.007678   0.591591  -0.055314
    16  C   -0.106472   0.025051   0.011469  -0.001556  -1.276837   0.026412
    17  C    0.058154  -0.004617  -0.019210   0.005344  -1.046859  -0.010104
    18  H   -0.005673  -0.003373   0.006224  -0.002123   0.028757  -0.001995
    19  C   -0.038617   0.004142   0.009711  -0.001363  -0.518024   0.003559
    20  H    0.004780  -0.000845  -0.001447   0.000228   0.059661  -0.014884
    21  C    0.014248  -0.002114  -0.012118   0.001627  -0.210457   0.001350
    22  H   -0.001023   0.000208   0.001301   0.000099   0.046071   0.000143
    23  H   -0.000898   0.000106   0.000413  -0.000046  -0.012076   0.000809
    24  H    0.000418  -0.000101  -0.000353   0.000041   0.027653   0.000069
              13         14         15         16         17         18
     1  C   -0.013034   0.021385  -0.361051  -0.500742  -0.339550   0.025616
     2  C   -0.038153   0.055618  -0.551483  -0.124223   0.088352   0.001498
     3  C   -0.053519  -0.027779   0.291070  -0.092771   0.075036  -0.003785
     4  C    0.022043  -0.104923   0.102853   0.182512   0.097964  -0.016649
     5  H    0.000801   0.001565  -0.005033  -0.028831  -0.013320  -0.003176
     6  C    0.014782  -0.038140  -2.713502   1.589270   1.067802  -0.139850
     7  C    0.473123  -0.069671   0.127069  -0.106472   0.058154  -0.005673
     8  H   -0.013601   0.002346  -0.049659   0.025051  -0.004617  -0.003373
     9  C   -0.058614   0.509751  -0.103319   0.011469  -0.019210   0.006224
    10  H    0.001126  -0.015956   0.007678  -0.001556   0.005344  -0.002123
    11  C   -0.008545   0.009559   0.591591  -1.276837  -1.046859   0.028757
    12  O   -0.000003   0.000138  -0.055314   0.026412  -0.010104  -0.001995
    13  H    0.484429  -0.015749   0.010781  -0.005106   0.001640  -0.000263
    14  H   -0.015749   0.496222  -0.009782   0.002225  -0.001747  -0.000191
    15  C    0.010781  -0.009782  15.394723  -5.587907  -1.940107   0.704456
    16  C   -0.005106   0.002225  -5.587907  10.887188   1.141496  -0.100518
    17  C    0.001640  -0.001747  -1.940107   1.141496   7.100483  -0.204803
    18  H   -0.000263  -0.000191   0.704456  -0.100518  -0.204803   0.513511
    19  C   -0.000828   0.000383   0.518696   0.160570  -0.474806   0.047620
    20  H    0.000071  -0.000080   0.048896   0.383903   0.010236  -0.001177
    21  C    0.000520  -0.000384   0.602156  -0.855468   0.339079   0.004616
    22  H   -0.000044   0.000036  -0.162984   0.062097   0.472918  -0.017737
    23  H   -0.000019   0.000011  -0.009655  -0.078736   0.006346   0.000723
    24  H    0.000013  -0.000009   0.022937  -0.034076  -0.089396   0.000831
              19         20         21         22         23         24
     1  C   -0.087868  -0.031519   0.077602  -0.014120  -0.007403   0.008671
     2  C    0.115354  -0.047997  -0.135724   0.006478   0.010042  -0.010270
     3  C   -0.155065   0.032596   0.068626  -0.003364  -0.006244   0.003851
     4  C    0.045219  -0.002210  -0.010747   0.004257   0.000967  -0.001463
     5  H   -0.001212  -0.003781   0.002791  -0.001843   0.000062  -0.000144
     6  C   -0.334239   0.031078  -0.318060   0.033006   0.010221  -0.030618
     7  C   -0.038617   0.004780   0.014248  -0.001023  -0.000898   0.000418
     8  H    0.004142  -0.000845  -0.002114   0.000208   0.000106  -0.000101
     9  C    0.009711  -0.001447  -0.012118   0.001301   0.000413  -0.000353
    10  H   -0.001363   0.000228   0.001627   0.000099  -0.000046   0.000041
    11  C   -0.518024   0.059661  -0.210457   0.046071  -0.012076   0.027653
    12  O    0.003559  -0.014884   0.001350   0.000143   0.000809   0.000069
    13  H   -0.000828   0.000071   0.000520  -0.000044  -0.000019   0.000013
    14  H    0.000383  -0.000080  -0.000384   0.000036   0.000011  -0.000009
    15  C    0.518696   0.048896   0.602156  -0.162984  -0.009655   0.022937
    16  C    0.160570   0.383903  -0.855468   0.062097  -0.078736  -0.034076
    17  C   -0.474806   0.010236   0.339079   0.472918   0.006346  -0.089396
    18  H    0.047620  -0.001177   0.004616  -0.017737   0.000723   0.000831
    19  C    6.274833  -0.145347   0.558551  -0.003058   0.481826  -0.071797
    20  H   -0.145347   0.462644  -0.007405   0.000523  -0.012229   0.002046
    21  C    0.558551  -0.007405   5.806478  -0.104999  -0.050928   0.522223
    22  H   -0.003058   0.000523  -0.104999   0.492470   0.000889  -0.016345
    23  H    0.481826  -0.012229  -0.050928   0.000889   0.480560  -0.016103
    24  H   -0.071797   0.002046   0.522223  -0.016345  -0.016103   0.500159
 Mulliken charges:
               1
     1  C    1.252322
     2  C   -0.746945
     3  C    0.250200
     4  C   -0.339071
     5  H    0.183545
     6  C   -1.324220
     7  C   -0.329690
     8  H    0.237966
     9  C   -0.257733
    10  H    0.200509
    11  C    1.243319
    12  O   -0.189299
    13  H    0.198148
    14  H    0.185171
    15  C   -0.873109
    16  C    0.321051
    17  C   -0.320331
    18  H    0.167463
    19  C   -0.388238
    20  H    0.232260
    21  C   -0.291461
    22  H    0.205021
    23  H    0.201361
    24  H    0.181763
 Sum of Mulliken charges =  -0.00000
 Mulliken charges with hydrogens summed into heavy atoms:
               1
     1  C    1.252322
     2  C   -0.563401
     3  C    0.488166
     4  C   -0.138562
     6  C   -1.324220
     7  C   -0.131541
     9  C   -0.072562
    11  C    1.243319
    12  O   -0.189299
    15  C   -0.705646
    16  C    0.553311
    17  C   -0.115310
    19  C   -0.186877
    21  C   -0.109699
 Electronic spatial extent (au):  <R**2>=           3066.0908
 Charge=             -0.0000 electrons
 Dipole moment (field-independent basis, Debye):
    X=              0.0568    Y=             -3.2530    Z=             -0.1029  Tot=              3.2551
 Quadrupole moment (field-independent basis, Debye-Ang):
   XX=            -63.9063   YY=            -83.3978   ZZ=            -80.5533
   XY=              0.2663   XZ=              2.6750   YZ=             -0.5388
 Traceless Quadrupole moment (field-independent basis, Debye-Ang):
   XX=             12.0462   YY=             -7.4453   ZZ=             -4.6008
   XY=              0.2663   XZ=              2.6750   YZ=             -0.5388
 Octapole moment (field-independent basis, Debye-Ang**2):
  XXX=              2.3098  YYY=            -21.4494  ZZZ=              0.4763  XYY=              1.3938
  XXY=             -7.5851  XXZ=             -1.0990  XZZ=             -1.8897  YZZ=              2.8561
  YYZ=             -0.7917  XYZ=             18.4801
 Hexadecapole moment (field-independent basis, Debye-Ang**3):
 XXXX=          -2857.8483 YYYY=           -724.1950 ZZZZ=           -247.7478 XXXY=              6.1090
 XXXZ=             66.7904 YYYX=             -0.0236 YYYZ=             -0.8640 ZZZX=              6.6374
 ZZZY=             -2.1585 XXYY=           -612.0729 XXZZ=           -605.3273 YYZZ=           -139.8931
 XXYZ=             -1.4052 YYXZ=             -9.2535 ZZXY=              0.2128
 N-N= 7.824476363566D+02 E-N=-2.907133341286D+03  KE= 5.764114097335D+02
 No NMR shielding tensors so no spin-rotation constants.
 Leave Link  601 at Tue Nov 22 15:02:55 2022, MaxMem= 16106127360 cpu:               4.7 elap:               0.2
 (Enter /opt/ap/G16/B01/g16/l9999.exe)
 1\1\GINC-N18\SP\RwB97XD\6-311++G(d,p)\C13H10O1\ROOT\22-Nov-2022\0\\#P 
 wB97XD/6-311++G(d,p) scf=maxcycle=512\\_conf026.gjf nmol_natom 1_24\\0
 ,1\C\C,1,1.39746343\C,1,1.39996263,2,119.28066518\C,2,1.39288453,1,120
 .37436646,3,-0.51002981,0\H,2,0.95014703,1,119.82324024,3,179.45634896
 ,0\C,1,1.49653039,2,122.77761373,4,174.46828757,0\C,3,1.3870125,1,120.
 10017821,2,-0.37315804,0\H,3,0.9501092,1,119.95246451,2,179.5923884,0\
 C,7,1.38720039,3,120.16568731,1,1.0745106,0\H,4,0.95011919,2,120.18755
 644,1,-179.31195299,0\C,6,1.49516902,1,120.70972921,2,40.,0\O,6,1.2215
 0059,1,119.67074267,2,-140.,0\H,7,0.94956661,3,119.91274826,1,-178.886
 36029,0\H,9,0.94992259,7,119.76037934,3,179.10763853,0\C,11,1.39713972
 ,6,122.62585705,1,30.97749054,0\C,11,1.40039562,6,117.74753532,1,-153.
 15467779,0\C,15,1.39455701,11,119.80747484,6,175.4763048,0\H,15,0.9496
 2854,11,120.10535689,6,-4.50802339,0\C,16,1.38466431,11,120.4617377,6,
 -176.88197195,0\H,16,0.9497464,11,119.75779177,6,3.14699974,0\C,17,1.3
 9088945,15,120.3475273,11,0.7973643,0\H,17,0.94984298,15,119.8156451,1
 1,-179.16676483,0\H,19,0.94974749,16,119.98566335,11,-178.40987425,0\H
 ,21,0.94938585,17,120.0744529,15,179.91636093,0\\Version=ES64L-G16RevB
 .01\State=1-A\HF=-576.4199879\RMSD=4.393e-09\Dipole=-0.0154542,0.72766
 48,1.053729\Quadrupole=9.0977354,-4.539221,-4.5585143,-1.1655306,0.909
 2696,-1.0811891\PG=C01 [X(C13H10O1)]\\@


 WE ARE PERHAPS NOT FAR REMOVED FROM THE TIME WHEN WE SHALL BE ABLE TO SUBMIT
 THE BULK OF CHEMICAL PHENOMENA TO CALCULATION.

            -- JOSEPH LOUIS GAY-LUSSAC
               MEMOIRES DE LA SOCIETE D'ARCUEIL, 2, 207 (1808)
 Job cpu time:       0 days  0 hours 20 minutes 58.6 seconds.
 Elapsed time:       0 days  0 hours  0 minutes 39.5 seconds.
 File lengths (MBytes):  RWF=     78 Int=      0 D2E=      0 Chk=      9 Scr=      1
 Normal termination of Gaussian 16 at Tue Nov 22 15:02:55 2022.
