 Entering Gaussian System, Link 0=g16
 Input=_conf003.gjf
 Output=_conf003.log
 Initial command:
 /opt/ap/G16/B01/g16/l1.exe "/tmp2/scr/Gau-14952.inp" -scrdir="/tmp2/scr/"
 Entering Link 1 = /opt/ap/G16/B01/g16/l1.exe PID=     14953.
  
 Copyright (c) 1988-2017, Gaussian, Inc.  All Rights Reserved.
  
 This is part of the Gaussian(R) 16 program.  It is based on
 the Gaussian(R) 09 system (copyright 2009, Gaussian, Inc.),
 the Gaussian(R) 03 system (copyright 2003, Gaussian, Inc.),
 the Gaussian(R) 98 system (copyright 1998, Gaussian, Inc.),
 the Gaussian(R) 94 system (copyright 1995, Gaussian, Inc.),
 the Gaussian 92(TM) system (copyright 1992, Gaussian, Inc.),
 the Gaussian 90(TM) system (copyright 1990, Gaussian, Inc.),
 the Gaussian 88(TM) system (copyright 1988, Gaussian, Inc.),
 the Gaussian 86(TM) system (copyright 1986, Carnegie Mellon
 University), and the Gaussian 82(TM) system (copyright 1983,
 Carnegie Mellon University). Gaussian is a federally registered
 trademark of Gaussian, Inc.
  
 This software contains proprietary and confidential information,
 including trade secrets, belonging to Gaussian, Inc.
  
 This software is provided under written license and may be
 used, copied, transmitted, or stored only in accord with that
 written license.
  
 The following legend is applicable only to US Government
 contracts under FAR:
  
                    RESTRICTED RIGHTS LEGEND
  
 Use, reproduction and disclosure by the US Government is
 subject to restrictions as set forth in subparagraphs (a)
 and (c) of the Commercial Computer Software - Restricted
 Rights clause in FAR 52.227-19.
  
 Gaussian, Inc.
 340 Quinnipiac St., Bldg. 40, Wallingford CT 06492
  
  
 ---------------------------------------------------------------
 Warning -- This program may not be used in any manner that
 competes with the business of Gaussian, Inc. or will provide
 assistance to any competitor of Gaussian, Inc.  The licensee
 of this program is prohibited from giving any competitor of
 Gaussian, Inc. access to this program.  By using this program,
 the user acknowledges that Gaussian, Inc. is engaged in the
 business of creating and licensing software in the field of
 computational chemistry and represents and warrants to the
 licensee that it is not a competitor of Gaussian, Inc. and that
 it will not use this program in any manner prohibited above.
 ---------------------------------------------------------------
  

 Cite this work as:
 Gaussian 16, Revision B.01,
 M. J. Frisch, G. W. Trucks, H. B. Schlegel, G. E. Scuseria, 
 M. A. Robb, J. R. Cheeseman, G. Scalmani, V. Barone, 
 G. A. Petersson, H. Nakatsuji, X. Li, M. Caricato, A. V. Marenich, 
 J. Bloino, B. G. Janesko, R. Gomperts, B. Mennucci, H. P. Hratchian, 
 J. V. Ortiz, A. F. Izmaylov, J. L. Sonnenberg, D. Williams-Young, 
 F. Ding, F. Lipparini, F. Egidi, J. Goings, B. Peng, A. Petrone, 
 T. Henderson, D. Ranasinghe, V. G. Zakrzewski, J. Gao, N. Rega, 
 G. Zheng, W. Liang, M. Hada, M. Ehara, K. Toyota, R. Fukuda, 
 J. Hasegawa, M. Ishida, T. Nakajima, Y. Honda, O. Kitao, H. Nakai, 
 T. Vreven, K. Throssell, J. A. Montgomery, Jr., J. E. Peralta, 
 F. Ogliaro, M. J. Bearpark, J. J. Heyd, E. N. Brothers, K. N. Kudin, 
 V. N. Staroverov, T. A. Keith, R. Kobayashi, J. Normand, 
 K. Raghavachari, A. P. Rendell, J. C. Burant, S. S. Iyengar, 
 J. Tomasi, M. Cossi, J. M. Millam, M. Klene, C. Adamo, R. Cammi, 
 J. W. Ochterski, R. L. Martin, K. Morokuma, O. Farkas, 
 J. B. Foresman, and D. J. Fox, Gaussian, Inc., Wallingford CT, 2016.
 
 ******************************************
 Gaussian 16:  ES64L-G16RevB.01 20-Dec-2017
                22-Nov-2022 
 ******************************************
 %nprocshared=32
 Will use up to   32 processors via shared memory.
 %mem=120GB
 %chk=_conf003.chk
 ----------------------------------------
 #P wB97XD/6-311++G(d,p) scf=maxcycle=512
 ----------------------------------------
 1/38=1,172=1/1;
 2/12=2,17=6,18=5,40=1/2;
 3/5=4,6=6,7=1111,11=2,25=1,30=1,74=-58/1,2,3;
 4//1;
 5/5=2,7=512,38=5/2;
 6/7=2,8=2,9=2,10=2,28=1/1;
 99/5=1,9=1/99;
 Leave Link    1 at Tue Nov 22 14:58:15 2022, MaxMem= 16106127360 cpu:               3.0 elap:               0.1
 (Enter /opt/ap/G16/B01/g16/l101.exe)
 ----------------------------
 _conf003.gjf nmol_natom 1_24
 ----------------------------
 Symbolic Z-matrix:
 Charge =  0 Multiplicity = 1
 C
 C                    1     1.39746 
 C                    1     1.39996  2     119.28067 
 C                    2     1.39288  1     120.37437  3    -0.51003  0
 H                    2     0.95015  1     119.82324  3     179.45635  0
 C                    1     1.49653  2     122.77761  4     174.46829  0
 C                    3     1.38701  1     120.10018  2    -0.37316  0
 H                    3     0.95011  1     119.95246  2     179.59239  0
 C                    7     1.3872   3     120.16569  1     1.07451  0
 H                    4     0.95012  2     120.18756  1    -179.31195  0
 C                    6     1.49517  1     120.70973  2    -75.      0
 O                    6     1.2215   1     119.67074  2     105.     0
 H                    7     0.94957  3     119.91275  1    -178.88636  0
 H                    9     0.94992  7     119.76038  3     179.10764  0
 C                    11    1.39714  6     122.62586  1     30.97749  0
 C                    11    1.4004   6     117.74754  1    -153.15468  0
 C                    15    1.39456  11    119.80747  6     175.4763  0
 H                    15    0.94963  11    120.10536  6    -4.50802  0
 C                    16    1.38466  11    120.46174  6    -176.88197  0
 H                    16    0.94975  11    119.75779  6     3.147    0
 C                    17    1.39089  15    120.34753  11    0.79736  0
 H                    17    0.94984  15    119.81565  11   -179.16676  0
 H                    19    0.94975  16    119.98566  11   -178.40987  0
 H                    21    0.94939  17    120.07445  15    179.91636  0
 
 ITRead=  0  0  0  0  0  0  0  0  0  0  0  0  0  0  0  0  0  0  0  0
 ITRead=  0  0  0  0
 MicOpt= -1 -1 -1 -1 -1 -1 -1 -1 -1 -1 -1 -1 -1 -1 -1 -1 -1 -1 -1 -1
 MicOpt= -1 -1 -1 -1
 NAtoms=     24 NQM=       24 NQMF=       0 NMMI=      0 NMMIF=      0
                NMic=       0 NMicF=      0.
                    Isotopes and Nuclear Properties:
 (Nuclear quadrupole moments (NQMom) in fm**2, nuclear magnetic moments (NMagM)
  in nuclear magnetons)

  Atom         1           2           3           4           5           6           7           8           9          10
 IAtWgt=          12          12          12          12           1          12          12           1          12           1
 AtmWgt=  12.0000000  12.0000000  12.0000000  12.0000000   1.0078250  12.0000000  12.0000000   1.0078250  12.0000000   1.0078250
 NucSpn=           0           0           0           0           1           0           0           1           0           1
 AtZEff=  -0.0000000  -0.0000000  -0.0000000  -0.0000000  -0.0000000  -0.0000000  -0.0000000  -0.0000000  -0.0000000  -0.0000000
 NQMom=    0.0000000   0.0000000   0.0000000   0.0000000   0.0000000   0.0000000   0.0000000   0.0000000   0.0000000   0.0000000
 NMagM=    0.0000000   0.0000000   0.0000000   0.0000000   2.7928460   0.0000000   0.0000000   2.7928460   0.0000000   2.7928460
 AtZNuc=   6.0000000   6.0000000   6.0000000   6.0000000   1.0000000   6.0000000   6.0000000   1.0000000   6.0000000   1.0000000

  Atom        11          12          13          14          15          16          17          18          19          20
 IAtWgt=          12          16           1           1          12          12          12           1          12           1
 AtmWgt=  12.0000000  15.9949146   1.0078250   1.0078250  12.0000000  12.0000000  12.0000000   1.0078250  12.0000000   1.0078250
 NucSpn=           0           0           1           1           0           0           0           1           0           1
 AtZEff=  -0.0000000  -0.0000000  -0.0000000  -0.0000000  -0.0000000  -0.0000000  -0.0000000  -0.0000000  -0.0000000  -0.0000000
 NQMom=    0.0000000   0.0000000   0.0000000   0.0000000   0.0000000   0.0000000   0.0000000   0.0000000   0.0000000   0.0000000
 NMagM=    0.0000000   0.0000000   2.7928460   2.7928460   0.0000000   0.0000000   0.0000000   2.7928460   0.0000000   2.7928460
 AtZNuc=   6.0000000   8.0000000   1.0000000   1.0000000   6.0000000   6.0000000   6.0000000   1.0000000   6.0000000   1.0000000

  Atom        21          22          23          24
 IAtWgt=          12           1           1           1
 AtmWgt=  12.0000000   1.0078250   1.0078250   1.0078250
 NucSpn=           0           1           1           1
 AtZEff=  -0.0000000  -0.0000000  -0.0000000  -0.0000000
 NQMom=    0.0000000   0.0000000   0.0000000   0.0000000
 NMagM=    0.0000000   2.7928460   2.7928460   2.7928460
 AtZNuc=   6.0000000   1.0000000   1.0000000   1.0000000
 Leave Link  101 at Tue Nov 22 14:58:15 2022, MaxMem= 16106127360 cpu:               6.0 elap:               0.2
 (Enter /opt/ap/G16/B01/g16/l202.exe)
                          Input orientation:                          
 ---------------------------------------------------------------------
 Center     Atomic      Atomic             Coordinates (Angstroms)
 Number     Number       Type             X           Y           Z
 ---------------------------------------------------------------------
      1          6           0        0.000000    0.000000    0.000000
      2          6           0        0.000000    0.000000    1.397463
      3          6           0        1.221096    0.000000   -0.684705
      4          6           0        1.201650   -0.010697    2.101772
      5          1           0       -0.824276    0.007821    1.869996
      6          6           0       -1.253421   -0.110138   -0.810191
      7          6           0        2.414707    0.007815    0.021719
      8          1           0        1.232246   -0.005856   -1.634731
      9          6           0        2.403895   -0.006831    1.408800
     10          1           0        1.198494   -0.020531    3.051836
     11          6           0       -1.963689   -1.419026   -0.943835
     12          8           0       -1.701448    0.879622   -1.368501
     13          1           0        3.241298    0.023792   -0.445367
     14          1           0        3.224827   -0.014217    1.886678
     15          6           0       -1.952618   -2.388248    0.062389
     16          6           0       -2.734386   -1.628129   -2.094230
     17          6           0       -2.712114   -3.548596   -0.084404
     18          1           0       -1.429655   -2.257293    0.844152
     19          6           0       -3.467146   -2.793161   -2.246085
     20          1           0       -2.754166   -0.966293   -2.775111
     21          6           0       -3.467311   -3.753397   -1.234320
     22          1           0       -2.713987   -4.202162    0.604835
     23          1           0       -3.969549   -2.937976   -3.038953
     24          1           0       -3.982016   -4.545306   -1.330713
 ---------------------------------------------------------------------
                    Distance matrix (angstroms):
                    1          2          3          4          5
     1  C    0.000000
     2  C    1.397463   0.000000
     3  C    1.399963   2.413814   0.000000
     4  C    2.421058   1.392885   2.786566   0.000000
     5  H    2.043619   0.950147   3.272630   2.039225   0.000000
     6  C    1.496530   2.541049   2.480142   3.810091   2.716889
     7  C    2.414817   2.779127   1.387013   2.408002   3.729228
     8  H    2.047146   3.273021   0.950109   3.736632   4.063567
     9  C    2.786301   2.403931   2.404542   1.387667   3.260982
    10  H    3.278797   2.042977   3.736665   0.950119   2.342893
    11  C    2.600103   3.369182   3.496232   4.612861   3.354370
    12  O    2.354029   3.364405   3.127710   4.611230   3.466602
    13  H    3.271839   3.728619   2.034469   3.263323   4.678681
    14  H    3.736210   3.261755   3.259932   2.034583   4.049198
    15  C    3.085505   3.361379   4.041576   4.445362   3.206517
    16  C    3.809655   4.724362   4.503709   5.976195   4.694672
    17  C    4.467127   4.705744   5.331326   5.710836   4.475680
    18  H    2.802120   2.728633   3.802532   3.681381   2.559215
    19  C    4.986757   5.753112   5.676201   6.960145   5.636700
    20  H    4.027455   5.092105   4.594151   6.351822   5.123514
    21  C    5.256784   5.747740   6.030856   6.851022   5.546997
    22  H    5.038821   5.064795   5.899657   5.928019   4.784934
    23  H    5.798643   6.638585   6.412252   7.857310   6.532094
    24  H    6.187654   6.630174   6.938984   7.695130   6.398971
                    6          7          8          9         10
     6  C    0.000000
     7  C    3.763130   0.000000
     8  H    2.620930   2.035246   0.000000
     9  C    4.279082   1.387200   3.261263   0.000000
    10  H    4.575496   3.265208   4.686711   2.037829   0.000000
    11  C    1.495169   4.705159   3.562076   5.158000   5.283992
    12  O    1.221501   4.431195   3.075956   5.035179   5.362771
    13  H    4.511488   0.949567   2.334899   2.034727   4.050363
    14  H    5.228480   2.033434   4.046081   0.949923   2.337447
    15  C    2.537727   4.981596   4.324276   5.144237   4.946957
    16  C    2.479176   5.802302   4.310113   6.426644   6.673373
    17  C    3.804937   6.240482   5.523811   6.399008   6.129934
    18  H    2.716281   4.537205   4.277796   4.481016   4.096844
    19  C    3.763108   6.898159   5.497918   7.455933   7.584433
    20  H    2.616515   5.957214   4.256100   6.710534   7.104315
    21  C    4.284219   7.093834   6.024136   7.449422   7.353581
    22  H    4.569487   6.660888   6.180403   6.666324   6.227467
    23  H    4.510144   7.668385   6.134153   8.306317   8.503991
    24  H    5.233249   7.967311   6.920084   8.299551   8.155857
                   11         12         13         14         15
    11  C    0.000000
    12  O    2.352211   0.000000
    13  H    5.424212   5.100525   0.000000
    14  H    6.075030   5.971878   2.332413   0.000000
    15  C    1.397140   3.576242   5.749132   5.980802   0.000000
    16  C    1.400396   2.807573   6.415324   7.346058   2.416598
    17  C    2.415332   4.720113   6.952364   7.185003   1.394557
    18  H    2.045674   3.848369   5.355745   5.270906   0.949629
    19  C    2.417537   4.168594   7.495400   8.341748   2.790484
    20  H    2.045335   2.548367   6.507962   7.641145   3.273506
    21  C    2.791872   4.959954   7.739188   8.276884   2.416481
    22  H    3.272181   5.544711   7.377467   7.379127   2.040640
    23  H    3.274172   4.744339   8.215538   9.196155   3.740125
    24  H    3.741249   5.884919   8.592832   9.100602   3.272933
                   16         17         18         19         20
    16  C    0.000000
    17  C    2.779944   0.000000
    18  H    3.276013   2.043131   0.000000
    19  C    1.384664   2.411145   3.740066   0.000000
    20  H    0.949746   3.729607   4.064490   2.031171   0.000000
    21  C    2.406945   1.390889   3.272678   1.394891   3.263520
    22  H    3.729747   0.949843   2.342925   3.268069   4.679370
    23  H    2.033181   3.268541   4.689659   0.949747   2.331159
    24  H    3.263351   2.039453   4.059507   2.042795   4.050092
                   21         22         23         24
    21  C    0.000000
    22  H    2.037493   0.000000
    23  H    2.043001   4.056081   0.000000
    24  H    0.949386   2.339229   2.345581   0.000000
 Stoichiometry    C13H10O
 Framework group  C1[X(C13H10O)]
 Deg. of freedom    66
 Full point group                 C1      NOp   1
 Largest Abelian subgroup         C1      NOp   1
 Largest concise Abelian subgroup C1      NOp   1
                         Standard orientation:                         
 ---------------------------------------------------------------------
 Center     Atomic      Atomic             Coordinates (Angstroms)
 Number     Number       Type             X           Y           Z
 ---------------------------------------------------------------------
      1          6           0       -1.310539    0.433604   -0.231980
      2          6           0       -1.842030   -0.577739   -1.036721
      3          6           0       -2.010801    0.838539    0.910629
      4          6           0       -3.050069   -1.183927   -0.700116
      5          1           0       -1.377066   -0.853196   -1.818201
      6          6           0        0.037252    1.037353   -0.473949
      7          6           0       -3.222322    0.244118    1.231073
      8          1           0       -1.655407    1.521226    1.467712
      9          6           0       -3.734237   -0.768957    0.433610
     10          1           0       -3.404138   -1.878000   -1.243830
     11          6           0        1.283275    0.288709   -0.123963
     12          8           0        0.120829    2.153728   -0.962604
     13          1           0       -3.702750    0.531790    1.997956
     14          1           0       -4.558247   -1.180764    0.665503
     15          6           0        1.363126   -1.105315   -0.172135
     16          6           0        2.428800    1.034951    0.179356
     17          6           0        2.580656   -1.738875    0.074873
     18          1           0        0.590698   -1.620021   -0.372701
     19          6           0        3.629498    0.399858    0.448197
     20          1           0        2.381521    1.983269    0.201177
     21          6           0        3.711712   -0.991177    0.385086
     22          1           0        2.637770   -2.685960    0.030493
     23          1           0        4.396713    0.911565    0.675258
     24          1           0        4.538348   -1.426579    0.553708
 ---------------------------------------------------------------------
 Rotational constants (GHZ):           1.6050372           0.4146169           0.3703753
 Leave Link  202 at Tue Nov 22 14:58:15 2022, MaxMem= 16106127360 cpu:               0.4 elap:               0.0
 (Enter /opt/ap/G16/B01/g16/l301.exe)
 Standard basis: 6-311++G(d,p) (5D, 7F)
 Ernie: Thresh=  0.10000D-02 Tol=  0.10000D-05 Strict=F.
 There are   392 symmetry adapted cartesian basis functions of A   symmetry.
 There are   378 symmetry adapted basis functions of A   symmetry.
   378 basis functions,   594 primitive gaussians,   392 cartesian basis functions
    48 alpha electrons       48 beta electrons
       nuclear repulsion energy       782.8817785306 Hartrees.
 IExCor= 4639 DFT=T Ex+Corr=wB97XD ExCW=0 ScaHFX=  1.000000
 ScaDFX=  1.000000  1.000000  1.000000  1.000000 ScalE2=  1.000000  1.000000
 IRadAn=      5 IRanWt=     -1 IRanGd=            0 ICorTp=0 IEmpDi=121
 HFx  wShort=  0.000000 wLong=  0.200000 cFull=  0.222036 cShort=  0.000000 cLong=  0.777964
 DFx  wShort=  0.000000 wLong=  0.200000 cFull=  0.000000 cShort=  0.000000 cLong=  1.000000
 NAtoms=   24 NActive=   24 NUniq=   24 SFac= 1.00D+00 NAtFMM=   60 NAOKFM=F Big=F
 Integral buffers will be    131072 words long.
 Raffenetti 2 integral format.
 Two-electron integral symmetry is turned on.
 R6Disp:  Grimme-D2 Dispersion energy=       -0.0141448456 Hartrees.
 Nuclear repulsion after empirical dispersion term =      782.8676336849 Hartrees.
 Leave Link  301 at Tue Nov 22 14:58:15 2022, MaxMem= 16106127360 cpu:               1.4 elap:               0.0
 (Enter /opt/ap/G16/B01/g16/l302.exe)
 NPDir=0 NMtPBC=     1 NCelOv=     1 NCel=       1 NClECP=     1 NCelD=      1
         NCelK=      1 NCelE2=     1 NClLst=     1 CellRange=     0.0.
 One-electron integrals computed using PRISM.
 One-electron integral symmetry used in STVInt
 NBasis=   378 RedAO= T EigKep=  1.83D-06  NBF=   378
 NBsUse=   376 1.00D-06 EigRej=  8.57D-07 NBFU=   376
 Precomputing XC quadrature grid using
 IXCGrd= 4 IRadAn=           5 IRanWt=          -1 IRanGd=           0 AccXCQ= 0.00D+00.
 Generated NRdTot=       0 NPtTot=           0 NUsed=           0 NTot=          32
 NSgBfM=   392   392   392   392   392 MxSgAt=    24 MxSgA2=    24.
 Leave Link  302 at Tue Nov 22 14:58:16 2022, MaxMem= 16106127360 cpu:               9.5 elap:               0.3
 (Enter /opt/ap/G16/B01/g16/l303.exe)
 DipDrv:  MaxL=1.
 Leave Link  303 at Tue Nov 22 14:58:16 2022, MaxMem= 16106127360 cpu:               1.9 elap:               0.1
 (Enter /opt/ap/G16/B01/g16/l401.exe)
 ExpMin= 3.60D-02 ExpMax= 8.59D+03 ExpMxC= 1.30D+03 IAcc=3 IRadAn=         5 AccDes= 0.00D+00
 Harris functional with IExCor= 4639 and IRadAn=       5 diagonalized for initial guess.
 HarFok:  IExCor= 4639 AccDes= 0.00D+00 IRadAn=         5 IDoV= 1 UseB2=F ITyADJ=14
 ICtDFT=  3500011 ScaDFX=  1.000000  1.000000  1.000000  1.000000
 FoFCou: FMM=F IPFlag=           0 FMFlag=      100000 FMFlg1=           0
         NFxFlg=           0 DoJE=T BraDBF=F KetDBF=T FulRan=T
         wScrn=  0.000000 ICntrl=       500 IOpCl=  0 I1Cent=   200000004 NGrid=           0
         NMat0=    1 NMatS0=      1 NMatT0=    0 NMatD0=    1 NMtDS0=    0 NMtDT0=    0
 Petite list used in FoFCou.
 Harris En= -550.902048374420    
 JPrj=0 DoOrth=F DoCkMO=F.
 Leave Link  401 at Tue Nov 22 14:58:17 2022, MaxMem= 16106127360 cpu:              23.3 elap:               0.7
 (Enter /opt/ap/G16/B01/g16/l502.exe)
 Integral symmetry usage will be decided dynamically.
 Closed shell SCF:
 Using DIIS extrapolation, IDIIS=  1040.
 NGot= 16106127360 LenX= 16105803762 LenY= 16105649657
 Requested convergence on RMS density matrix=1.00D-08 within 512 cycles.
 Requested convergence on MAX density matrix=1.00D-06.
 Requested convergence on             energy=1.00D-06.
 No special actions if energy rises.
 Fock matrices will be formed incrementally for  20 cycles.

 Cycle   1  Pass 1  IDiag  1:
 FoFJK:  IHMeth= 1 ICntrl=       0 DoSepK=T KAlg= 0 I1Cent=           0 FoldK=F
 IRaf=         1 NMat=       1 IRICut=       1 DoRegI=T DoRafI=F ISym2E= 0 IDoP0=0 IntGTp=1.
 FoFCou: FMM=F IPFlag=           0 FMFlag=      100000 FMFlg1=           0
         NFxFlg=           0 DoJE=T BraDBF=F KetDBF=F FulRan=T
         wScrn=  0.000000 ICntrl=       500 IOpCl=  0 I1Cent=           0 NGrid=           0
         NMat0=    1 NMatS0=      1 NMatT0=    0 NMatD0=    1 NMtDS0=    0 NMtDT0=    0
 Symmetry not used in FoFCou.
 E= -576.255023482635    
 DIIS: error= 4.56D-02 at cycle   1 NSaved=   1.
 NSaved= 1 IEnMin= 1 EnMin= -576.255023482635     IErMin= 1 ErrMin= 4.56D-02
 ErrMax= 4.56D-02  0.00D+00 EMaxC= 1.00D-01 BMatC= 1.20D+00 BMatP= 1.20D+00
 IDIUse=3 WtCom= 5.44D-01 WtEn= 4.56D-01
 Coeff-Com:  0.100D+01
 Coeff-En:   0.100D+01
 Coeff:      0.100D+01
 Gap=     0.420 Goal=   None    Shift=    0.000
 GapD=    0.420 DampG=2.000 DampE=0.500 DampFc=1.0000 IDamp=-1.
 RMSDP=2.42D-02 MaxDP=4.17D+00              OVMax= 1.18D-01

 Cycle   2  Pass 1  IDiag  1:
 RMSU=  1.50D-02    CP:  7.56D-01
 E= -576.346103688395     Delta-E=       -0.091080205759 Rises=F Damp=F
 DIIS: error= 1.17D-02 at cycle   2 NSaved=   2.
 NSaved= 2 IEnMin= 2 EnMin= -576.346103688395     IErMin= 2 ErrMin= 1.17D-02
 ErrMax= 1.17D-02  0.00D+00 EMaxC= 1.00D-01 BMatC= 7.51D-02 BMatP= 1.20D+00
 IDIUse=3 WtCom= 8.83D-01 WtEn= 1.17D-01
 Coeff-Com:  0.126D+00 0.874D+00
 Coeff-En:   0.142D+00 0.858D+00
 Coeff:      0.128D+00 0.872D+00
 Gap=     0.439 Goal=   None    Shift=    0.000
 RMSDP=1.03D-02 MaxDP=1.22D+00 DE=-9.11D-02 OVMax= 1.42D-01

 Cycle   3  Pass 1  IDiag  1:
 RMSU=  6.04D-03    CP:  7.12D-01  4.99D-01
 E= -576.365055136809     Delta-E=       -0.018951448414 Rises=F Damp=F
 DIIS: error= 1.13D-02 at cycle   3 NSaved=   3.
 NSaved= 3 IEnMin= 3 EnMin= -576.365055136809     IErMin= 3 ErrMin= 1.13D-02
 ErrMax= 1.13D-02  0.00D+00 EMaxC= 1.00D-01 BMatC= 5.23D-02 BMatP= 7.51D-02
 IDIUse=3 WtCom= 8.87D-01 WtEn= 1.13D-01
 Coeff-Com:  0.236D-01 0.458D+00 0.518D+00
 Coeff-En:   0.000D+00 0.419D+00 0.581D+00
 Coeff:      0.210D-01 0.454D+00 0.525D+00
 Gap=     0.357 Goal=   None    Shift=    0.000
 RMSDP=4.41D-03 MaxDP=5.18D-01 DE=-1.90D-02 OVMax= 5.80D-02

 Cycle   4  Pass 1  IDiag  1:
 RMSU=  1.50D-03    CP:  6.90D-01  7.10D-01  6.56D-01
 E= -576.411615255427     Delta-E=       -0.046560118618 Rises=F Damp=F
 DIIS: error= 1.53D-03 at cycle   4 NSaved=   4.
 NSaved= 4 IEnMin= 4 EnMin= -576.411615255427     IErMin= 4 ErrMin= 1.53D-03
 ErrMax= 1.53D-03  0.00D+00 EMaxC= 1.00D-01 BMatC= 7.80D-04 BMatP= 5.23D-02
 IDIUse=3 WtCom= 9.85D-01 WtEn= 1.53D-02
 Coeff-Com:  0.912D-02 0.189D+00 0.237D+00 0.566D+00
 Coeff-En:   0.000D+00 0.000D+00 0.000D+00 0.100D+01
 Coeff:      0.898D-02 0.186D+00 0.233D+00 0.572D+00
 Gap=     0.326 Goal=   None    Shift=    0.000
 RMSDP=6.44D-04 MaxDP=4.96D-02 DE=-4.66D-02 OVMax= 6.23D-03

 Cycle   5  Pass 1  IDiag  1:
 RMSU=  4.36D-04    CP:  6.92D-01  7.33D-01  6.98D-01  9.68D-01
 E= -576.412172239792     Delta-E=       -0.000556984365 Rises=F Damp=F
 DIIS: error= 5.06D-04 at cycle   5 NSaved=   5.
 NSaved= 5 IEnMin= 5 EnMin= -576.412172239792     IErMin= 5 ErrMin= 5.06D-04
 ErrMax= 5.06D-04  0.00D+00 EMaxC= 1.00D-01 BMatC= 7.50D-05 BMatP= 7.80D-04
 IDIUse=3 WtCom= 9.95D-01 WtEn= 5.06D-03
 Coeff-Com: -0.546D-03-0.733D-02 0.514D-03 0.223D+00 0.784D+00
 Coeff-En:   0.000D+00 0.000D+00 0.000D+00 0.000D+00 0.100D+01
 Coeff:     -0.543D-03-0.729D-02 0.511D-03 0.222D+00 0.785D+00
 Gap=     0.328 Goal=   None    Shift=    0.000
 RMSDP=3.80D-04 MaxDP=4.61D-02 DE=-5.57D-04 OVMax= 2.58D-03

 Cycle   6  Pass 1  IDiag  1:
 RMSU=  1.97D-04    CP:  6.89D-01  7.35D-01  7.09D-01  1.09D+00  9.36D-01
 E= -576.412228264192     Delta-E=       -0.000056024401 Rises=F Damp=F
 DIIS: error= 2.15D-04 at cycle   6 NSaved=   6.
 NSaved= 6 IEnMin= 6 EnMin= -576.412228264192     IErMin= 6 ErrMin= 2.15D-04
 ErrMax= 2.15D-04  0.00D+00 EMaxC= 1.00D-01 BMatC= 1.83D-05 BMatP= 7.50D-05
 IDIUse=3 WtCom= 9.98D-01 WtEn= 2.15D-03
 Coeff-Com: -0.122D-02-0.228D-01-0.227D-01 0.664D-01 0.435D+00 0.546D+00
 Coeff-En:   0.000D+00 0.000D+00 0.000D+00 0.000D+00 0.000D+00 0.100D+01
 Coeff:     -0.121D-02-0.227D-01-0.227D-01 0.663D-01 0.434D+00 0.547D+00
 Gap=     0.328 Goal=   None    Shift=    0.000
 RMSDP=1.06D-04 MaxDP=8.27D-03 DE=-5.60D-05 OVMax= 1.30D-03

 Cycle   7  Pass 1  IDiag  1:
 RMSU=  7.26D-05    CP:  6.89D-01  7.34D-01  7.17D-01  1.13D+00  9.97D-01
                    CP:  1.01D+00
 E= -576.412246639078     Delta-E=       -0.000018374885 Rises=F Damp=F
 DIIS: error= 3.99D-05 at cycle   7 NSaved=   7.
 NSaved= 7 IEnMin= 7 EnMin= -576.412246639078     IErMin= 7 ErrMin= 3.99D-05
 ErrMax= 3.99D-05  0.00D+00 EMaxC= 1.00D-01 BMatC= 5.00D-07 BMatP= 1.83D-05
 IDIUse=1 WtCom= 1.00D+00 WtEn= 0.00D+00
 Coeff-Com: -0.236D-03-0.457D-02-0.535D-02-0.964D-02-0.517D-02 0.112D+00
 Coeff-Com:  0.913D+00
 Coeff:     -0.236D-03-0.457D-02-0.535D-02-0.964D-02-0.517D-02 0.112D+00
 Coeff:      0.913D+00
 Gap=     0.328 Goal=   None    Shift=    0.000
 RMSDP=4.48D-05 MaxDP=4.66D-03 DE=-1.84D-05 OVMax= 5.52D-04

 Cycle   8  Pass 1  IDiag  1:
 RMSU=  1.92D-05    CP:  6.89D-01  7.34D-01  7.18D-01  1.14D+00  1.00D+00
                    CP:  1.16D+00  1.11D+00
 E= -576.412247828069     Delta-E=       -0.000001188991 Rises=F Damp=F
 DIIS: error= 1.21D-05 at cycle   8 NSaved=   8.
 NSaved= 8 IEnMin= 8 EnMin= -576.412247828069     IErMin= 8 ErrMin= 1.21D-05
 ErrMax= 1.21D-05  0.00D+00 EMaxC= 1.00D-01 BMatC= 8.55D-08 BMatP= 5.00D-07
 IDIUse=1 WtCom= 1.00D+00 WtEn= 0.00D+00
 Coeff-Com:  0.535D-04 0.806D-03 0.432D-03-0.126D-01-0.597D-01-0.244D-01
 Coeff-Com:  0.319D+00 0.777D+00
 Coeff:      0.535D-04 0.806D-03 0.432D-03-0.126D-01-0.597D-01-0.244D-01
 Coeff:      0.319D+00 0.777D+00
 Gap=     0.328 Goal=   None    Shift=    0.000
 RMSDP=1.44D-05 MaxDP=1.27D-03 DE=-1.19D-06 OVMax= 2.25D-04

 Cycle   9  Pass 1  IDiag  1:
 RMSU=  6.77D-06    CP:  6.89D-01  7.35D-01  7.18D-01  1.14D+00  1.00D+00
                    CP:  1.21D+00  1.15D+00  1.27D+00
 E= -576.412247999946     Delta-E=       -0.000000171877 Rises=F Damp=F
 DIIS: error= 4.61D-06 at cycle   9 NSaved=   9.
 NSaved= 9 IEnMin= 9 EnMin= -576.412247999946     IErMin= 9 ErrMin= 4.61D-06
 ErrMax= 4.61D-06  0.00D+00 EMaxC= 1.00D-01 BMatC= 6.16D-09 BMatP= 8.55D-08
 IDIUse=1 WtCom= 1.00D+00 WtEn= 0.00D+00
 Coeff-Com:  0.404D-04 0.719D-03 0.732D-03-0.805D-03-0.104D-01-0.163D-01
 Coeff-Com: -0.598D-01 0.144D+00 0.942D+00
 Coeff:      0.404D-04 0.719D-03 0.732D-03-0.805D-03-0.104D-01-0.163D-01
 Coeff:     -0.598D-01 0.144D+00 0.942D+00
 Gap=     0.328 Goal=   None    Shift=    0.000
 RMSDP=8.27D-06 MaxDP=7.50D-04 DE=-1.72D-07 OVMax= 8.26D-05

 Cycle  10  Pass 1  IDiag  1:
 RMSU=  1.99D-06    CP:  6.89D-01  7.35D-01  7.17D-01  1.14D+00  9.92D-01
                    CP:  1.22D+00  1.16D+00  1.50D+00  1.32D+00
 E= -576.412248017040     Delta-E=       -0.000000017093 Rises=F Damp=F
 DIIS: error= 1.02D-06 at cycle  10 NSaved=  10.
 NSaved=10 IEnMin=10 EnMin= -576.412248017040     IErMin=10 ErrMin= 1.02D-06
 ErrMax= 1.02D-06  0.00D+00 EMaxC= 1.00D-01 BMatC= 5.15D-10 BMatP= 6.16D-09
 IDIUse=1 WtCom= 1.00D+00 WtEn= 0.00D+00
 Coeff-Com: -0.122D-05 0.432D-05 0.323D-04 0.129D-02 0.429D-02 0.162D-02
 Coeff-Com: -0.315D-01-0.561D-01 0.106D+00 0.974D+00
 Coeff:     -0.122D-05 0.432D-05 0.323D-04 0.129D-02 0.429D-02 0.162D-02
 Coeff:     -0.315D-01-0.561D-01 0.106D+00 0.974D+00
 Gap=     0.328 Goal=   None    Shift=    0.000
 RMSDP=2.66D-06 MaxDP=3.05D-04 DE=-1.71D-08 OVMax= 1.70D-05

 Cycle  11  Pass 1  IDiag  1:
 RMSU=  6.75D-07    CP:  6.89D-01  7.35D-01  7.17D-01  1.14D+00  9.89D-01
                    CP:  1.22D+00  1.15D+00  1.55D+00  1.39D+00  1.08D+00
 E= -576.412248018398     Delta-E=       -0.000000001358 Rises=F Damp=F
 DIIS: error= 4.01D-07 at cycle  11 NSaved=  11.
 NSaved=11 IEnMin=11 EnMin= -576.412248018398     IErMin=11 ErrMin= 4.01D-07
 ErrMax= 4.01D-07  0.00D+00 EMaxC= 1.00D-01 BMatC= 8.92D-11 BMatP= 5.15D-10
 IDIUse=1 WtCom= 1.00D+00 WtEn= 0.00D+00
 Coeff-Com: -0.310D-05-0.441D-04-0.371D-04 0.511D-03 0.201D-02 0.162D-02
 Coeff-Com: -0.566D-02-0.304D-01-0.406D-01 0.317D+00 0.756D+00
 Coeff:     -0.310D-05-0.441D-04-0.371D-04 0.511D-03 0.201D-02 0.162D-02
 Coeff:     -0.566D-02-0.304D-01-0.406D-01 0.317D+00 0.756D+00
 Gap=     0.328 Goal=   None    Shift=    0.000
 RMSDP=6.64D-07 MaxDP=6.73D-05 DE=-1.36D-09 OVMax= 5.78D-06

 Cycle  12  Pass 1  IDiag  1:
 RMSU=  1.48D-07    CP:  6.89D-01  7.35D-01  7.17D-01  1.14D+00  9.89D-01
                    CP:  1.22D+00  1.15D+00  1.55D+00  1.41D+00  1.16D+00
                    CP:  1.15D+00
 E= -576.412248018574     Delta-E=       -0.000000000176 Rises=F Damp=F
 DIIS: error= 2.29D-07 at cycle  12 NSaved=  12.
 NSaved=12 IEnMin=12 EnMin= -576.412248018574     IErMin=12 ErrMin= 2.29D-07
 ErrMax= 2.29D-07  0.00D+00 EMaxC= 1.00D-01 BMatC= 1.07D-11 BMatP= 8.92D-11
 IDIUse=1 WtCom= 1.00D+00 WtEn= 0.00D+00
 Coeff-Com: -0.321D-06-0.897D-05-0.128D-04-0.912D-04-0.340D-03 0.345D-04
 Coeff-Com:  0.412D-02 0.317D-02-0.239D-01-0.915D-01 0.127D+00 0.981D+00
 Coeff:     -0.321D-06-0.897D-05-0.128D-04-0.912D-04-0.340D-03 0.345D-04
 Coeff:      0.412D-02 0.317D-02-0.239D-01-0.915D-01 0.127D+00 0.981D+00
 Gap=     0.328 Goal=   None    Shift=    0.000
 RMSDP=2.80D-07 MaxDP=2.14D-05 DE=-1.76D-10 OVMax= 3.61D-06

 Cycle  13  Pass 1  IDiag  1:
 RMSU=  9.29D-08    CP:  6.89D-01  7.35D-01  7.17D-01  1.14D+00  9.89D-01
                    CP:  1.22D+00  1.15D+00  1.55D+00  1.42D+00  1.18D+00
                    CP:  1.26D+00  1.36D+00
 E= -576.412248018612     Delta-E=       -0.000000000038 Rises=F Damp=F
 DIIS: error= 1.23D-07 at cycle  13 NSaved=  13.
 NSaved=13 IEnMin=13 EnMin= -576.412248018612     IErMin=13 ErrMin= 1.23D-07
 ErrMax= 1.23D-07  0.00D+00 EMaxC= 1.00D-01 BMatC= 2.71D-12 BMatP= 1.07D-11
 IDIUse=1 WtCom= 1.00D+00 WtEn= 0.00D+00
 Coeff-Com:  0.336D-06 0.265D-05 0.263D-06-0.111D-03-0.424D-03-0.243D-03
 Coeff-Com:  0.229D-02 0.566D-02-0.235D-02-0.798D-01-0.691D-01 0.375D+00
 Coeff-Com:  0.769D+00
 Coeff:      0.336D-06 0.265D-05 0.263D-06-0.111D-03-0.424D-03-0.243D-03
 Coeff:      0.229D-02 0.566D-02-0.235D-02-0.798D-01-0.691D-01 0.375D+00
 Coeff:      0.769D+00
 Gap=     0.328 Goal=   None    Shift=    0.000
 RMSDP=1.16D-07 MaxDP=1.06D-05 DE=-3.84D-11 OVMax= 1.72D-06

 Cycle  14  Pass 1  IDiag  1:
 RMSU=  4.37D-08    CP:  6.89D-01  7.35D-01  7.17D-01  1.14D+00  9.88D-01
                    CP:  1.22D+00  1.15D+00  1.55D+00  1.41D+00  1.17D+00
                    CP:  1.31D+00  1.44D+00  1.21D+00
 E= -576.412248018638     Delta-E=       -0.000000000026 Rises=F Damp=F
 DIIS: error= 6.04D-08 at cycle  14 NSaved=  14.
 NSaved=14 IEnMin=14 EnMin= -576.412248018638     IErMin=14 ErrMin= 6.04D-08
 ErrMax= 6.04D-08  0.00D+00 EMaxC= 1.00D-01 BMatC= 3.88D-13 BMatP= 2.71D-12
 IDIUse=1 WtCom= 1.00D+00 WtEn= 0.00D+00
 Coeff-Com:  0.993D-07 0.213D-05 0.284D-05-0.475D-05-0.205D-05-0.550D-04
 Coeff-Com: -0.389D-03 0.291D-03 0.368D-02 0.359D-02-0.350D-01-0.128D+00
 Coeff-Com:  0.915D-01 0.106D+01
 Coeff:      0.993D-07 0.213D-05 0.284D-05-0.475D-05-0.205D-05-0.550D-04
 Coeff:     -0.389D-03 0.291D-03 0.368D-02 0.359D-02-0.350D-01-0.128D+00
 Coeff:      0.915D-01 0.106D+01
 Gap=     0.328 Goal=   None    Shift=    0.000
 RMSDP=6.32D-08 MaxDP=5.44D-06 DE=-2.57D-11 OVMax= 1.13D-06

 Cycle  15  Pass 1  IDiag  1:
 RMSU=  1.56D-08    CP:  6.89D-01  7.35D-01  7.17D-01  1.14D+00  9.89D-01
                    CP:  1.22D+00  1.15D+00  1.55D+00  1.41D+00  1.16D+00
                    CP:  1.32D+00  1.47D+00  1.50D+00  1.45D+00
 E= -576.412248018620     Delta-E=        0.000000000018 Rises=F Damp=F
 DIIS: error= 2.27D-08 at cycle  15 NSaved=  15.
 NSaved=15 IEnMin=14 EnMin= -576.412248018638     IErMin=15 ErrMin= 2.27D-08
 ErrMax= 2.27D-08  0.00D+00 EMaxC= 1.00D-01 BMatC= 9.94D-14 BMatP= 3.88D-13
 IDIUse=1 WtCom= 1.00D+00 WtEn= 0.00D+00
 Coeff-Com: -0.300D-07 0.336D-06 0.117D-05 0.203D-04 0.859D-04 0.323D-04
 Coeff-Com: -0.580D-03-0.100D-02 0.192D-02 0.180D-01 0.267D-02-0.120D+00
 Coeff-Com: -0.129D+00 0.393D+00 0.834D+00
 Coeff:     -0.300D-07 0.336D-06 0.117D-05 0.203D-04 0.859D-04 0.323D-04
 Coeff:     -0.580D-03-0.100D-02 0.192D-02 0.180D-01 0.267D-02-0.120D+00
 Coeff:     -0.129D+00 0.393D+00 0.834D+00
 Gap=     0.328 Goal=   None    Shift=    0.000
 RMSDP=2.42D-08 MaxDP=2.05D-06 DE= 1.75D-11 OVMax= 4.49D-07

 Cycle  16  Pass 1  IDiag  1:
 RMSU=  5.34D-09    CP:  6.89D-01  7.35D-01  7.17D-01  1.14D+00  9.89D-01
                    CP:  1.22D+00  1.15D+00  1.55D+00  1.41D+00  1.16D+00
                    CP:  1.32D+00  1.48D+00  1.59D+00  1.68D+00  1.28D+00
 E= -576.412248018632     Delta-E=       -0.000000000012 Rises=F Damp=F
 DIIS: error= 7.54D-09 at cycle  16 NSaved=  16.
 NSaved=16 IEnMin=14 EnMin= -576.412248018638     IErMin=16 ErrMin= 7.54D-09
 ErrMax= 7.54D-09  0.00D+00 EMaxC= 1.00D-01 BMatC= 7.25D-15 BMatP= 9.94D-14
 IDIUse=1 WtCom= 1.00D+00 WtEn= 0.00D+00
 Coeff-Com: -0.134D-07-0.295D-06-0.366D-06 0.248D-05 0.706D-05 0.137D-04
 Coeff-Com:  0.108D-04-0.140D-03-0.482D-03 0.717D-03 0.552D-02 0.110D-01
 Coeff-Com: -0.255D-01-0.133D+00 0.248D-01 0.112D+01
 Coeff:     -0.134D-07-0.295D-06-0.366D-06 0.248D-05 0.706D-05 0.137D-04
 Coeff:      0.108D-04-0.140D-03-0.482D-03 0.717D-03 0.552D-02 0.110D-01
 Coeff:     -0.255D-01-0.133D+00 0.248D-01 0.112D+01
 Gap=     0.328 Goal=   None    Shift=    0.000
 RMSDP=7.80D-09 MaxDP=4.68D-07 DE=-1.16D-11 OVMax= 1.93D-07

 SCF Done:  E(RwB97XD) =  -576.412248019     A.U. after   16 cycles
            NFock= 16  Conv=0.78D-08     -V/T= 2.0000
 KE= 5.764056214080D+02 PE=-2.907869941657D+03 EE= 9.721844385452D+02
 Leave Link  502 at Tue Nov 22 14:58:55 2022, MaxMem= 16106127360 cpu:            1226.8 elap:              38.5
 (Enter /opt/ap/G16/B01/g16/l601.exe)
 Copying SCF densities to generalized density rwf, IOpCl= 0 IROHF=0.

 **********************************************************************

            Population analysis using the SCF Density.

 **********************************************************************

 Orbital symmetries:
       Occupied  (A) (A) (A) (A) (A) (A) (A) (A) (A) (A) (A) (A)
                 (A) (A) (A) (A) (A) (A) (A) (A) (A) (A) (A) (A)
                 (A) (A) (A) (A) (A) (A) (A) (A) (A) (A) (A) (A)
                 (A) (A) (A) (A) (A) (A) (A) (A) (A) (A) (A) (A)
       Virtual   (A) (A) (A) (A) (A) (A) (A) (A) (A) (A) (A) (A)
                 (A) (A) (A) (A) (A) (A) (A) (A) (A) (A) (A) (A)
                 (A) (A) (A) (A) (A) (A) (A) (A) (A) (A) (A) (A)
                 (A) (A) (A) (A) (A) (A) (A) (A) (A) (A) (A) (A)
                 (A) (A) (A) (A) (A) (A) (A) (A) (A) (A) (A) (A)
                 (A) (A) (A) (A) (A) (A) (A) (A) (A) (A) (A) (A)
                 (A) (A) (A) (A) (A) (A) (A) (A) (A) (A) (A) (A)
                 (A) (A) (A) (A) (A) (A) (A) (A) (A) (A) (A) (A)
                 (A) (A) (A) (A) (A) (A) (A) (A) (A) (A) (A) (A)
                 (A) (A) (A) (A) (A) (A) (A) (A) (A) (A) (A) (A)
                 (A) (A) (A) (A) (A) (A) (A) (A) (A) (A) (A) (A)
                 (A) (A) (A) (A) (A) (A) (A) (A) (A) (A) (A) (A)
                 (A) (A) (A) (A) (A) (A) (A) (A) (A) (A) (A) (A)
                 (A) (A) (A) (A) (A) (A) (A) (A) (A) (A) (A) (A)
                 (A) (A) (A) (A) (A) (A) (A) (A) (A) (A) (A) (A)
                 (A) (A) (A) (A) (A) (A) (A) (A) (A) (A) (A) (A)
                 (A) (A) (A) (A) (A) (A) (A) (A) (A) (A) (A) (A)
                 (A) (A) (A) (A) (A) (A) (A) (A) (A) (A) (A) (A)
                 (A) (A) (A) (A) (A) (A) (A) (A) (A) (A) (A) (A)
                 (A) (A) (A) (A) (A) (A) (A) (A) (A) (A) (A) (A)
                 (A) (A) (A) (A) (A) (A) (A) (A) (A) (A) (A) (A)
                 (A) (A) (A) (A) (A) (A) (A) (A) (A) (A) (A) (A)
                 (A) (A) (A) (A) (A) (A) (A) (A) (A) (A) (A) (A)
                 (A) (A) (A) (A) (A) (A) (A) (A) (A) (A) (A) (A)
                 (A) (A) (A) (A) (A) (A) (A) (A) (A) (A) (A) (A)
                 (A) (A) (A) (A) (A) (A) (A) (A) (A) (A) (A) (A)
                 (A) (A) (A) (A) (A) (A) (A) (A) (A) (A) (A) (A)
                 (A) (A) (A) (A)
 The electronic state is 1-A.
 Alpha  occ. eigenvalues --  -19.24291 -10.38516 -10.30730 -10.30685 -10.29077
 Alpha  occ. eigenvalues --  -10.28733 -10.28709 -10.28549 -10.28533 -10.28493
 Alpha  occ. eigenvalues --  -10.28336 -10.28330 -10.28135 -10.27999  -1.15183
 Alpha  occ. eigenvalues --   -0.97941  -0.97414  -0.89141  -0.87437  -0.87293
 Alpha  occ. eigenvalues --   -0.86838  -0.76828  -0.73980  -0.73513  -0.72589
 Alpha  occ. eigenvalues --   -0.68080  -0.65491  -0.63014  -0.60335  -0.56976
 Alpha  occ. eigenvalues --   -0.56310  -0.55681  -0.54353  -0.54058  -0.53852
 Alpha  occ. eigenvalues --   -0.52481  -0.49163  -0.47200  -0.46727  -0.46070
 Alpha  occ. eigenvalues --   -0.45980  -0.44853  -0.44356  -0.35242  -0.34696
 Alpha  occ. eigenvalues --   -0.34260  -0.34212  -0.32821
 Alpha virt. eigenvalues --   -0.00029   0.03616   0.04117   0.04344   0.04416
 Alpha virt. eigenvalues --    0.04773   0.04930   0.05623   0.05842   0.07001
 Alpha virt. eigenvalues --    0.07393   0.08089   0.09070   0.09132   0.10310
 Alpha virt. eigenvalues --    0.11620   0.11848   0.12003   0.13363   0.14186
 Alpha virt. eigenvalues --    0.15003   0.15347   0.15706   0.16096   0.16529
 Alpha virt. eigenvalues --    0.16904   0.17012   0.17264   0.17559   0.17868
 Alpha virt. eigenvalues --    0.17991   0.18451   0.18662   0.18795   0.19048
 Alpha virt. eigenvalues --    0.19876   0.20195   0.20354   0.20992   0.21474
 Alpha virt. eigenvalues --    0.21547   0.22062   0.22827   0.23462   0.23614
 Alpha virt. eigenvalues --    0.23996   0.24559   0.24974   0.25225   0.25462
 Alpha virt. eigenvalues --    0.25754   0.26710   0.27343   0.27507   0.28114
 Alpha virt. eigenvalues --    0.28646   0.29683   0.30012   0.30528   0.31000
 Alpha virt. eigenvalues --    0.31453   0.31832   0.32519   0.33091   0.33342
 Alpha virt. eigenvalues --    0.34086   0.34928   0.35129   0.35584   0.36430
 Alpha virt. eigenvalues --    0.37469   0.37567   0.37711   0.38122   0.38666
 Alpha virt. eigenvalues --    0.38903   0.39226   0.40840   0.41114   0.41982
 Alpha virt. eigenvalues --    0.42267   0.43041   0.43361   0.44323   0.44876
 Alpha virt. eigenvalues --    0.45527   0.45935   0.46781   0.48548   0.49520
 Alpha virt. eigenvalues --    0.52112   0.56223   0.57020   0.57748   0.60076
 Alpha virt. eigenvalues --    0.61027   0.62319   0.62552   0.62916   0.63748
 Alpha virt. eigenvalues --    0.63953   0.64396   0.65222   0.65502   0.66007
 Alpha virt. eigenvalues --    0.66137   0.67164   0.68393   0.68410   0.69099
 Alpha virt. eigenvalues --    0.70332   0.71807   0.71869   0.74403   0.75136
 Alpha virt. eigenvalues --    0.75228   0.76735   0.77319   0.77890   0.78591
 Alpha virt. eigenvalues --    0.79295   0.80642   0.80943   0.81497   0.82788
 Alpha virt. eigenvalues --    0.83167   0.83875   0.84383   0.86146   0.87367
 Alpha virt. eigenvalues --    0.88524   0.89833   0.92336   0.93396   0.93865
 Alpha virt. eigenvalues --    0.94152   0.94525   0.94992   0.95227   0.95976
 Alpha virt. eigenvalues --    0.96468   0.97241   0.99753   1.00198   1.01443
 Alpha virt. eigenvalues --    1.01955   1.02767   1.03549   1.04496   1.05133
 Alpha virt. eigenvalues --    1.06623   1.09797   1.10778   1.12658   1.13729
 Alpha virt. eigenvalues --    1.14408   1.15600   1.16313   1.17034   1.17839
 Alpha virt. eigenvalues --    1.19150   1.20498   1.21643   1.23096   1.23967
 Alpha virt. eigenvalues --    1.27846   1.31754   1.33991   1.36928   1.39221
 Alpha virt. eigenvalues --    1.41989   1.43742   1.45520   1.48885   1.55308
 Alpha virt. eigenvalues --    1.55909   1.59063   1.59599   1.60592   1.61674
 Alpha virt. eigenvalues --    1.62085   1.63718   1.65445   1.66410   1.67109
 Alpha virt. eigenvalues --    1.68087   1.68978   1.69103   1.69718   1.73674
 Alpha virt. eigenvalues --    1.76097   1.76433   1.76648   1.76988   1.78275
 Alpha virt. eigenvalues --    1.78515   1.82235   1.84135   1.86286   1.89774
 Alpha virt. eigenvalues --    1.90062   1.90826   1.91911   1.92166   1.94302
 Alpha virt. eigenvalues --    1.95066   1.95935   1.97232   1.99938   2.01483
 Alpha virt. eigenvalues --    2.01912   2.03464   2.04669   2.04993   2.05152
 Alpha virt. eigenvalues --    2.05584   2.07423   2.07685   2.08563   2.09925
 Alpha virt. eigenvalues --    2.10351   2.15393   2.16640   2.18465   2.20869
 Alpha virt. eigenvalues --    2.20979   2.26548   2.26703   2.27279   2.30582
 Alpha virt. eigenvalues --    2.32652   2.42554   2.43226   2.47181   2.47691
 Alpha virt. eigenvalues --    2.49790   2.49961   2.50079   2.51658   2.54008
 Alpha virt. eigenvalues --    2.58980   2.59610   2.59899   2.66616   2.68255
 Alpha virt. eigenvalues --    2.72969   2.76814   2.78369   2.81246   2.81622
 Alpha virt. eigenvalues --    2.83144   2.83732   2.84704   2.87973   2.88159
 Alpha virt. eigenvalues --    2.91652   2.92087   2.93538   2.94953   2.96673
 Alpha virt. eigenvalues --    2.97069   2.97303   2.98646   2.99505   3.00305
 Alpha virt. eigenvalues --    3.00863   3.01292   3.02216   3.03130   3.04695
 Alpha virt. eigenvalues --    3.05579   3.10544   3.13128   3.14996   3.18404
 Alpha virt. eigenvalues --    3.19554   3.21798   3.22865   3.25383   3.26000
 Alpha virt. eigenvalues --    3.27928   3.30585   3.32976   3.36733   3.44761
 Alpha virt. eigenvalues --    3.48764   3.50410   3.51500   3.52860   3.64405
 Alpha virt. eigenvalues --    3.69208   3.70672   3.71456   3.76105   3.76886
 Alpha virt. eigenvalues --    3.83503   3.89024   3.90904   3.99431   4.29489
 Alpha virt. eigenvalues --    4.36726   4.37239   4.39059   4.40746   4.41637
 Alpha virt. eigenvalues --    4.42807   4.50149   4.51344   4.52422   4.95134
 Alpha virt. eigenvalues --    4.95265   5.24061   5.35062   5.85124  23.89012
 Alpha virt. eigenvalues --   23.96175  23.98450  24.17148  24.19587  24.24029
 Alpha virt. eigenvalues --   24.24831  24.30053  24.31494  24.33839  24.34268
 Alpha virt. eigenvalues --   24.43450  24.44341  50.13256
          Condensed to atoms (all electrons):
               1          2          3          4          5          6
     1  C   13.094581  -0.920283   0.509500  -0.754425   0.026828  -4.364289
     2  C   -0.920283   9.645909  -4.197725   0.348547   0.449999   0.703051
     3  C    0.509500  -4.197725  15.442766  -0.480563   0.068235  -6.756815
     4  C   -0.754425   0.348547  -0.480563   5.981640  -0.064516   0.635116
     5  H    0.026828   0.449999   0.068235  -0.064516   0.484822  -0.180605
     6  C   -4.364289   0.703051  -6.756815   0.635116  -0.180605  22.231094
     7  C   -0.715584   0.827435  -1.688879   0.077755   0.005786   0.924771
     8  H    0.034547  -0.068442   0.641537  -0.016823  -0.001191  -0.170749
     9  C   -0.317915  -0.744081   1.268619   0.396421   0.000173  -1.017712
    10  H   -0.015531  -0.058823  -0.034204   0.466784  -0.010163   0.036514
    11  C   -1.244163   0.016517   2.364829  -0.379676   0.075725  -6.873518
    12  O    0.331547   0.026252  -0.086613   0.001208  -0.001056   0.189496
    13  H    0.009906   0.027011  -0.144036   0.013123   0.001671   0.039353
    14  H    0.036710  -0.007483   0.043309  -0.080021  -0.000182  -0.028444
    15  C    1.330420  -0.780450   0.639014   0.010779  -0.058753  -1.011902
    16  C   -1.316875   0.547463  -0.599288   0.035155   0.012476   0.780055
    17  C   -0.216779   0.040148  -0.526391   0.099153  -0.021376   1.563246
    18  H    0.035433  -0.005720   0.013601  -0.024841  -0.006238   0.012448
    19  C   -0.386380   0.245963  -0.187934   0.000233   0.001531  -0.160429
    20  H   -0.010603   0.006021  -0.046158   0.002106  -0.001389   0.069534
    21  C    0.062196  -0.118187   0.101812   0.005477  -0.001527   0.108037
    22  H   -0.015853   0.010860  -0.007966   0.001978   0.000497  -0.001122
    23  H   -0.001998   0.003394   0.002243  -0.000333   0.000372  -0.011583
    24  H    0.004033  -0.004434   0.003111  -0.000365  -0.000147  -0.003040
               7          8          9         10         11         12
     1  C   -0.715584   0.034547  -0.317915  -0.015531  -1.244163   0.331547
     2  C    0.827435  -0.068442  -0.744081  -0.058823   0.016517   0.026252
     3  C   -1.688879   0.641537   1.268619  -0.034204   2.364829  -0.086613
     4  C    0.077755  -0.016823   0.396421   0.466784  -0.379676   0.001208
     5  H    0.005786  -0.001191   0.000173  -0.010163   0.075725  -0.001056
     6  C    0.924771  -0.170749  -1.017712   0.036514  -6.873518   0.189496
     7  C    6.774852  -0.187443  -0.136848   0.025082  -0.107543  -0.039959
     8  H   -0.187443   0.510430   0.035581  -0.000050   0.064320  -0.004930
     9  C   -0.136848   0.035581   6.180882  -0.080249   0.318099   0.008554
    10  H    0.025082  -0.000050  -0.080249   0.489255   0.002259   0.000092
    11  C   -0.107543   0.064320   0.318099   0.002259  15.448355  -0.044182
    12  O   -0.039959  -0.004930   0.008554   0.000092  -0.044182   7.874676
    13  H    0.500640  -0.019161  -0.092980   0.000392  -0.001467   0.000056
    14  H   -0.101660   0.002771   0.481119  -0.013484   0.000983   0.000095
    15  C   -0.271312   0.056572   0.059593  -0.008273  -0.572078  -0.078127
    16  C    0.289556  -0.074487  -0.063790   0.002716  -0.635635   0.046717
    17  C    0.068791  -0.017992  -0.074280   0.003638  -2.567545  -0.055849
    18  H    0.003576  -0.001068   0.013143  -0.002709  -0.098292  -0.003839
    19  C    0.047561  -0.012127  -0.007024   0.000438  -0.430535   0.017338
    20  H   -0.005680  -0.000705  -0.001001  -0.000066   0.000315  -0.019014
    21  C   -0.004727   0.003245  -0.002763   0.000531  -0.348779   0.002195
    22  H   -0.000219  -0.000120  -0.000185   0.000113   0.059841   0.000380
    23  H    0.000781  -0.000323   0.000126   0.000003  -0.012152   0.002441
    24  H   -0.000148   0.000167   0.000090  -0.000006   0.014929  -0.000059
              13         14         15         16         17         18
     1  C    0.009906   0.036710   1.330420  -1.316875  -0.216779   0.035433
     2  C    0.027011  -0.007483  -0.780450   0.547463   0.040148  -0.005720
     3  C   -0.144036   0.043309   0.639014  -0.599288  -0.526391   0.013601
     4  C    0.013123  -0.080021   0.010779   0.035155   0.099153  -0.024841
     5  H    0.001671  -0.000182  -0.058753   0.012476  -0.021376  -0.006238
     6  C    0.039353  -0.028444  -1.011902   0.780055   1.563246   0.012448
     7  C    0.500640  -0.101660  -0.271312   0.289556   0.068791   0.003576
     8  H   -0.019161   0.002771   0.056572  -0.074487  -0.017992  -0.001068
     9  C   -0.092980   0.481119   0.059593  -0.063790  -0.074280   0.013143
    10  H    0.000392  -0.013484  -0.008273   0.002716   0.003638  -0.002709
    11  C   -0.001467   0.000983  -0.572078  -0.635635  -2.567545  -0.098292
    12  O    0.000056   0.000095  -0.078127   0.046717  -0.055849  -0.003839
    13  H    0.490835  -0.014393  -0.016572   0.011465   0.002164  -0.000894
    14  H   -0.014393   0.496753   0.004296  -0.003398  -0.001874   0.000017
    15  C   -0.016572   0.004296  13.835300  -4.722276  -1.848531   0.597894
    16  C    0.011465  -0.003398  -4.722276  10.193081   0.851779  -0.081132
    17  C    0.002164  -0.001874  -1.848531   0.851779   8.302197  -0.056351
    18  H   -0.000894   0.000017   0.597894  -0.081132  -0.056351   0.519798
    19  C    0.001316  -0.000423  -0.272052   0.822991  -0.311516   0.011053
    20  H   -0.000155   0.000045   0.049035   0.378391   0.044859   0.000382
    21  C   -0.000104  -0.000087   0.087104  -0.599996   0.599214   0.001805
    22  H    0.000026   0.000024  -0.121791   0.046966   0.418779  -0.017999
    23  H    0.000030  -0.000002  -0.025562  -0.039065   0.002511  -0.001431
    24  H   -0.000009   0.000001  -0.018509  -0.028279  -0.052470   0.000337
              19         20         21         22         23         24
     1  C   -0.386380  -0.010603   0.062196  -0.015853  -0.001998   0.004033
     2  C    0.245963   0.006021  -0.118187   0.010860   0.003394  -0.004434
     3  C   -0.187934  -0.046158   0.101812  -0.007966   0.002243   0.003111
     4  C    0.000233   0.002106   0.005477   0.001978  -0.000333  -0.000365
     5  H    0.001531  -0.001389  -0.001527   0.000497   0.000372  -0.000147
     6  C   -0.160429   0.069534   0.108037  -0.001122  -0.011583  -0.003040
     7  C    0.047561  -0.005680  -0.004727  -0.000219   0.000781  -0.000148
     8  H   -0.012127  -0.000705   0.003245  -0.000120  -0.000323   0.000167
     9  C   -0.007024  -0.001001  -0.002763  -0.000185   0.000126   0.000090
    10  H    0.000438  -0.000066   0.000531   0.000113   0.000003  -0.000006
    11  C   -0.430535   0.000315  -0.348779   0.059841  -0.012152   0.014929
    12  O    0.017338  -0.019014   0.002195   0.000380   0.002441  -0.000059
    13  H    0.001316  -0.000155  -0.000104   0.000026   0.000030  -0.000009
    14  H   -0.000423   0.000045  -0.000087   0.000024  -0.000002   0.000001
    15  C   -0.272052   0.049035   0.087104  -0.121791  -0.025562  -0.018509
    16  C    0.822991   0.378391  -0.599996   0.046966  -0.039065  -0.028279
    17  C   -0.311516   0.044859   0.599214   0.418779   0.002511  -0.052470
    18  H    0.011053   0.000382   0.001805  -0.017999  -0.001431   0.000337
    19  C    6.496050  -0.148884   0.299086   0.009035   0.499244  -0.082908
    20  H   -0.148884   0.466918   0.003543  -0.000075  -0.015876   0.002246
    21  C    0.299086   0.003543   5.696337  -0.074411  -0.071379   0.519589
    22  H    0.009035  -0.000075  -0.074411   0.488239   0.001781  -0.014935
    23  H    0.499244  -0.015876  -0.071379   0.001781   0.486490  -0.017770
    24  H   -0.082908   0.002246   0.519589  -0.014935  -0.017770   0.500020
 Mulliken charges:
               1
     1  C    0.804977
     2  C    0.007057
     3  C   -0.342003
     4  C   -0.273911
     5  H    0.219030
     6  C   -0.712505
     7  C   -0.286584
     8  H    0.226439
     9  C   -0.223574
    10  H    0.195741
    11  C    0.949394
    12  O   -0.167418
    13  H    0.191784
    14  H    0.185329
    15  C   -0.863817
    16  C    0.145412
    17  C   -0.245524
    18  H    0.091027
    19  C   -0.451628
    20  H    0.226210
    21  C   -0.268209
    22  H    0.216159
    23  H    0.198059
    24  H    0.178555
 Sum of Mulliken charges =  -0.00000
 Mulliken charges with hydrogens summed into heavy atoms:
               1
     1  C    0.804977
     2  C    0.226087
     3  C   -0.115563
     4  C   -0.078170
     6  C   -0.712505
     7  C   -0.094800
     9  C   -0.038245
    11  C    0.949394
    12  O   -0.167418
    15  C   -0.772790
    16  C    0.371621
    17  C   -0.029366
    19  C   -0.253569
    21  C   -0.089655
 Electronic spatial extent (au):  <R**2>=           3007.9921
 Charge=             -0.0000 electrons
 Dipole moment (field-independent basis, Debye):
    X=              0.2785    Y=             -3.0196    Z=              1.4688  Tot=              3.3695
 Quadrupole moment (field-independent basis, Debye-Ang):
   XX=            -66.6093   YY=            -81.7219   ZZ=            -81.1386
   XY=              1.9983   XZ=             -0.0998   YZ=              7.5572
 Traceless Quadrupole moment (field-independent basis, Debye-Ang):
   XX=              9.8807   YY=             -5.2320   ZZ=             -4.6487
   XY=              1.9983   XZ=             -0.0998   YZ=              7.5572
 Octapole moment (field-independent basis, Debye-Ang**2):
  XXX=             17.0323  YYY=            -18.6408  ZZZ=             -2.7089  XYY=              9.0440
  XXY=            -13.4962  XXZ=             21.3068  XZZ=            -13.5407  YZZ=              0.4506
  YYZ=              8.1736  XYZ=             -6.7920
 Hexadecapole moment (field-independent basis, Debye-Ang**3):
 XXXX=          -2814.8972 YYYY=           -688.2044 ZZZZ=           -313.0418 XXXY=             54.2110
 XXXZ=             -3.6985 YYYX=             -3.0491 YYYZ=             29.3481 ZZZX=            -14.5121
 ZZZY=             11.9369 XXYY=           -580.8984 XXZZ=           -574.9882 YYZZ=           -172.4146
 XXYZ=             17.5869 YYXZ=             10.2424 ZZXY=              2.9651
 N-N= 7.828676336849D+02 E-N=-2.907869941272D+03  KE= 5.764056214080D+02
 No NMR shielding tensors so no spin-rotation constants.
 Leave Link  601 at Tue Nov 22 14:58:55 2022, MaxMem= 16106127360 cpu:               6.1 elap:               0.2
 (Enter /opt/ap/G16/B01/g16/l9999.exe)
 1\1\GINC-N19\SP\RwB97XD\6-311++G(d,p)\C13H10O1\ROOT\22-Nov-2022\0\\#P 
 wB97XD/6-311++G(d,p) scf=maxcycle=512\\_conf003.gjf nmol_natom 1_24\\0
 ,1\C\C,1,1.39746343\C,1,1.39996263,2,119.28066518\C,2,1.39288453,1,120
 .37436646,3,-0.51002981,0\H,2,0.95014703,1,119.82324024,3,179.45634896
 ,0\C,1,1.49653039,2,122.77761373,4,174.46828757,0\C,3,1.3870125,1,120.
 10017821,2,-0.37315804,0\H,3,0.9501092,1,119.95246451,2,179.5923884,0\
 C,7,1.38720039,3,120.16568731,1,1.0745106,0\H,4,0.95011919,2,120.18755
 644,1,-179.31195299,0\C,6,1.49516902,1,120.70972921,2,-75.,0\O,6,1.221
 50059,1,119.67074267,2,105.,0\H,7,0.94956661,3,119.91274826,1,-178.886
 36029,0\H,9,0.94992259,7,119.76037934,3,179.10763853,0\C,11,1.39713972
 ,6,122.62585705,1,30.97749054,0\C,11,1.40039562,6,117.74753532,1,-153.
 15467779,0\C,15,1.39455701,11,119.80747484,6,175.4763048,0\H,15,0.9496
 2854,11,120.10535689,6,-4.50802339,0\C,16,1.38466431,11,120.4617377,6,
 -176.88197195,0\H,16,0.9497464,11,119.75779177,6,3.14699974,0\C,17,1.3
 9088945,15,120.3475273,11,0.7973643,0\H,17,0.94984298,15,119.8156451,1
 1,-179.16676483,0\H,19,0.94974749,16,119.98566335,11,-178.40987425,0\H
 ,21,0.94938585,17,120.0744529,15,179.91636093,0\\Version=ES64L-G16RevB
 .01\State=1-A\HF=-576.412248\RMSD=7.801e-09\Dipole=0.3560607,-1.181117
 7,0.4853018\Quadrupole=2.9615281,-6.3091473,3.3476192,5.9842905,1.8285
 687,2.2923393\PG=C01 [X(C13H10O1)]\\@


 NATURE WILL TELL YOU A DIRECT LIE IF SHE CAN.

                                -- CHARLES DARWIN
 Job cpu time:       0 days  0 hours 21 minutes 21.7 seconds.
 Elapsed time:       0 days  0 hours  0 minutes 40.4 seconds.
 File lengths (MBytes):  RWF=     78 Int=      0 D2E=      0 Chk=      9 Scr=      1
 Normal termination of Gaussian 16 at Tue Nov 22 14:58:56 2022.
