 Entering Gaussian System, Link 0=g16
 Input=_conf024.gjf
 Output=_conf024.log
 Initial command:
 /opt/ap/G16/B01/g16/l1.exe "/tmp2/scr/Gau-28239.inp" -scrdir="/tmp2/scr/"
 Entering Link 1 = /opt/ap/G16/B01/g16/l1.exe PID=     28240.
  
 Copyright (c) 1988-2017, Gaussian, Inc.  All Rights Reserved.
  
 This is part of the Gaussian(R) 16 program.  It is based on
 the Gaussian(R) 09 system (copyright 2009, Gaussian, Inc.),
 the Gaussian(R) 03 system (copyright 2003, Gaussian, Inc.),
 the Gaussian(R) 98 system (copyright 1998, Gaussian, Inc.),
 the Gaussian(R) 94 system (copyright 1995, Gaussian, Inc.),
 the Gaussian 92(TM) system (copyright 1992, Gaussian, Inc.),
 the Gaussian 90(TM) system (copyright 1990, Gaussian, Inc.),
 the Gaussian 88(TM) system (copyright 1988, Gaussian, Inc.),
 the Gaussian 86(TM) system (copyright 1986, Carnegie Mellon
 University), and the Gaussian 82(TM) system (copyright 1983,
 Carnegie Mellon University). Gaussian is a federally registered
 trademark of Gaussian, Inc.
  
 This software contains proprietary and confidential information,
 including trade secrets, belonging to Gaussian, Inc.
  
 This software is provided under written license and may be
 used, copied, transmitted, or stored only in accord with that
 written license.
  
 The following legend is applicable only to US Government
 contracts under FAR:
  
                    RESTRICTED RIGHTS LEGEND
  
 Use, reproduction and disclosure by the US Government is
 subject to restrictions as set forth in subparagraphs (a)
 and (c) of the Commercial Computer Software - Restricted
 Rights clause in FAR 52.227-19.
  
 Gaussian, Inc.
 340 Quinnipiac St., Bldg. 40, Wallingford CT 06492
  
  
 ---------------------------------------------------------------
 Warning -- This program may not be used in any manner that
 competes with the business of Gaussian, Inc. or will provide
 assistance to any competitor of Gaussian, Inc.  The licensee
 of this program is prohibited from giving any competitor of
 Gaussian, Inc. access to this program.  By using this program,
 the user acknowledges that Gaussian, Inc. is engaged in the
 business of creating and licensing software in the field of
 computational chemistry and represents and warrants to the
 licensee that it is not a competitor of Gaussian, Inc. and that
 it will not use this program in any manner prohibited above.
 ---------------------------------------------------------------
  

 Cite this work as:
 Gaussian 16, Revision B.01,
 M. J. Frisch, G. W. Trucks, H. B. Schlegel, G. E. Scuseria, 
 M. A. Robb, J. R. Cheeseman, G. Scalmani, V. Barone, 
 G. A. Petersson, H. Nakatsuji, X. Li, M. Caricato, A. V. Marenich, 
 J. Bloino, B. G. Janesko, R. Gomperts, B. Mennucci, H. P. Hratchian, 
 J. V. Ortiz, A. F. Izmaylov, J. L. Sonnenberg, D. Williams-Young, 
 F. Ding, F. Lipparini, F. Egidi, J. Goings, B. Peng, A. Petrone, 
 T. Henderson, D. Ranasinghe, V. G. Zakrzewski, J. Gao, N. Rega, 
 G. Zheng, W. Liang, M. Hada, M. Ehara, K. Toyota, R. Fukuda, 
 J. Hasegawa, M. Ishida, T. Nakajima, Y. Honda, O. Kitao, H. Nakai, 
 T. Vreven, K. Throssell, J. A. Montgomery, Jr., J. E. Peralta, 
 F. Ogliaro, M. J. Bearpark, J. J. Heyd, E. N. Brothers, K. N. Kudin, 
 V. N. Staroverov, T. A. Keith, R. Kobayashi, J. Normand, 
 K. Raghavachari, A. P. Rendell, J. C. Burant, S. S. Iyengar, 
 J. Tomasi, M. Cossi, J. M. Millam, M. Klene, C. Adamo, R. Cammi, 
 J. W. Ochterski, R. L. Martin, K. Morokuma, O. Farkas, 
 J. B. Foresman, and D. J. Fox, Gaussian, Inc., Wallingford CT, 2016.
 
 ******************************************
 Gaussian 16:  ES64L-G16RevB.01 20-Dec-2017
                22-Nov-2022 
 ******************************************
 %nprocshared=32
 Will use up to   32 processors via shared memory.
 %mem=120GB
 %chk=_conf024.chk
 ----------------------------------------
 #P wB97XD/6-311++G(d,p) scf=maxcycle=512
 ----------------------------------------
 1/38=1,172=1/1;
 2/12=2,17=6,18=5,40=1/2;
 3/5=4,6=6,7=1111,11=2,25=1,30=1,74=-58/1,2,3;
 4//1;
 5/5=2,7=512,38=5/2;
 6/7=2,8=2,9=2,10=2,28=1/1;
 99/5=1,9=1/99;
 Leave Link    1 at Tue Nov 22 15:02:20 2022, MaxMem= 16106127360 cpu:               1.4 elap:               0.1
 (Enter /opt/ap/G16/B01/g16/l101.exe)
 ----------------------------
 _conf024.gjf nmol_natom 1_24
 ----------------------------
 Symbolic Z-matrix:
 Charge =  0 Multiplicity = 1
 C
 C                    1     1.39746 
 C                    1     1.39996  2     119.28067 
 C                    2     1.39288  1     120.37437  3    -0.51003  0
 H                    2     0.95015  1     119.82324  3     179.45635  0
 C                    1     1.49653  2     122.77761  4     174.46829  0
 C                    3     1.38701  1     120.10018  2    -0.37316  0
 H                    3     0.95011  1     119.95246  2     179.59239  0
 C                    7     1.3872   3     120.16569  1     1.07451  0
 H                    4     0.95012  2     120.18756  1    -179.31195  0
 C                    6     1.49517  1     120.70973  2     30.      0
 O                    6     1.2215   1     119.67074  2    -150.     0
 H                    7     0.94957  3     119.91275  1    -178.88636  0
 H                    9     0.94992  7     119.76038  3     179.10764  0
 C                    11    1.39714  6     122.62586  1     30.97749  0
 C                    11    1.4004   6     117.74754  1    -153.15468  0
 C                    15    1.39456  11    119.80747  6     175.4763  0
 H                    15    0.94963  11    120.10536  6    -4.50802  0
 C                    16    1.38466  11    120.46174  6    -176.88197  0
 H                    16    0.94975  11    119.75779  6     3.147    0
 C                    17    1.39089  15    120.34753  11    0.79736  0
 H                    17    0.94984  15    119.81565  11   -179.16676  0
 H                    19    0.94975  16    119.98566  11   -178.40987  0
 H                    21    0.94939  17    120.07445  15    179.91636  0
 
 ITRead=  0  0  0  0  0  0  0  0  0  0  0  0  0  0  0  0  0  0  0  0
 ITRead=  0  0  0  0
 MicOpt= -1 -1 -1 -1 -1 -1 -1 -1 -1 -1 -1 -1 -1 -1 -1 -1 -1 -1 -1 -1
 MicOpt= -1 -1 -1 -1
 NAtoms=     24 NQM=       24 NQMF=       0 NMMI=      0 NMMIF=      0
                NMic=       0 NMicF=      0.
                    Isotopes and Nuclear Properties:
 (Nuclear quadrupole moments (NQMom) in fm**2, nuclear magnetic moments (NMagM)
  in nuclear magnetons)

  Atom         1           2           3           4           5           6           7           8           9          10
 IAtWgt=          12          12          12          12           1          12          12           1          12           1
 AtmWgt=  12.0000000  12.0000000  12.0000000  12.0000000   1.0078250  12.0000000  12.0000000   1.0078250  12.0000000   1.0078250
 NucSpn=           0           0           0           0           1           0           0           1           0           1
 AtZEff=  -0.0000000  -0.0000000  -0.0000000  -0.0000000  -0.0000000  -0.0000000  -0.0000000  -0.0000000  -0.0000000  -0.0000000
 NQMom=    0.0000000   0.0000000   0.0000000   0.0000000   0.0000000   0.0000000   0.0000000   0.0000000   0.0000000   0.0000000
 NMagM=    0.0000000   0.0000000   0.0000000   0.0000000   2.7928460   0.0000000   0.0000000   2.7928460   0.0000000   2.7928460
 AtZNuc=   6.0000000   6.0000000   6.0000000   6.0000000   1.0000000   6.0000000   6.0000000   1.0000000   6.0000000   1.0000000

  Atom        11          12          13          14          15          16          17          18          19          20
 IAtWgt=          12          16           1           1          12          12          12           1          12           1
 AtmWgt=  12.0000000  15.9949146   1.0078250   1.0078250  12.0000000  12.0000000  12.0000000   1.0078250  12.0000000   1.0078250
 NucSpn=           0           0           1           1           0           0           0           1           0           1
 AtZEff=  -0.0000000  -0.0000000  -0.0000000  -0.0000000  -0.0000000  -0.0000000  -0.0000000  -0.0000000  -0.0000000  -0.0000000
 NQMom=    0.0000000   0.0000000   0.0000000   0.0000000   0.0000000   0.0000000   0.0000000   0.0000000   0.0000000   0.0000000
 NMagM=    0.0000000   0.0000000   2.7928460   2.7928460   0.0000000   0.0000000   0.0000000   2.7928460   0.0000000   2.7928460
 AtZNuc=   6.0000000   8.0000000   1.0000000   1.0000000   6.0000000   6.0000000   6.0000000   1.0000000   6.0000000   1.0000000

  Atom        21          22          23          24
 IAtWgt=          12           1           1           1
 AtmWgt=  12.0000000   1.0078250   1.0078250   1.0078250
 NucSpn=           0           1           1           1
 AtZEff=  -0.0000000  -0.0000000  -0.0000000  -0.0000000
 NQMom=    0.0000000   0.0000000   0.0000000   0.0000000
 NMagM=    0.0000000   2.7928460   2.7928460   2.7928460
 AtZNuc=   6.0000000   1.0000000   1.0000000   1.0000000
 Leave Link  101 at Tue Nov 22 15:02:21 2022, MaxMem= 16106127360 cpu:               6.5 elap:               0.2
 (Enter /opt/ap/G16/B01/g16/l202.exe)
                          Input orientation:                          
 ---------------------------------------------------------------------
 Center     Atomic      Atomic             Coordinates (Angstroms)
 Number     Number       Type             X           Y           Z
 ---------------------------------------------------------------------
      1          6           0        0.000000    0.000000    0.000000
      2          6           0        0.000000    0.000000    1.397463
      3          6           0        1.221096    0.000000   -0.684705
      4          6           0        1.201650   -0.010697    2.101772
      5          1           0       -0.824276    0.007821    1.869996
      6          6           0       -1.253421   -0.110138   -0.810191
      7          6           0        2.414707    0.007815    0.021719
      8          1           0        1.232246   -0.005856   -1.634731
      9          6           0        2.403895   -0.006831    1.408800
     10          1           0        1.198494   -0.020531    3.051836
     11          6           0       -2.549597    0.421191   -0.287556
     12          8           0       -1.217705   -0.639716   -1.910344
     13          1           0        3.241298    0.023792   -0.445367
     14          1           0        3.224827   -0.014217    1.886678
     15          6           0       -2.621917    1.525020    0.565866
     16          6           0       -3.731118   -0.171276   -0.750265
     17          6           0       -3.866191    2.029543    0.942734
     18          1           0       -1.826175    1.930789    0.888265
     19          6           0       -4.964044    0.318171   -0.353240
     20          1           0       -3.686253   -0.914241   -1.340187
     21          6           0       -5.035213    1.429500    0.486763
     22          1           0       -3.915429    2.787247    1.513401
     23          1           0       -5.760824   -0.102802   -0.653147
     24          1           0       -5.880239    1.775463    0.746715
 ---------------------------------------------------------------------
                    Distance matrix (angstroms):
                    1          2          3          4          5
     1  C    0.000000
     2  C    1.397463   0.000000
     3  C    1.399963   2.413814   0.000000
     4  C    2.421058   1.392885   2.786566   0.000000
     5  H    2.043619   0.950147   3.272630   2.039225   0.000000
     6  C    1.496530   2.541049   2.480142   3.810091   2.716889
     7  C    2.414817   2.779127   1.387013   2.408002   3.729228
     8  H    2.047146   3.273021   0.950109   3.736632   4.063567
     9  C    2.786301   2.403931   2.404542   1.387667   3.260982
    10  H    3.278797   2.042977   3.736665   0.950119   2.342893
    11  C    2.600103   3.084986   3.814872   4.468475   2.793320
    12  O    2.354029   3.582406   2.803422   4.727157   3.855523
    13  H    3.271839   3.728619   2.034469   3.263323   4.678681
    14  H    3.736210   3.261755   3.259932   2.034583   4.049198
    15  C    3.085505   3.145106   4.319532   4.397397   2.689639
    16  C    3.809655   4.308516   4.955608   5.700184   3.917598
    17  C    4.467127   4.390131   5.713850   5.584707   3.768344
    18  H    2.802120   2.705946   3.935485   3.796010   2.380210
    19  C    4.986757   5.273322   6.202182   6.644623   4.709222
    20  H    4.027455   4.681776   5.034636   6.046078   4.398452
    21  C    5.256784   5.312835   6.523588   6.601582   4.654728
    22  H    5.038821   4.807574   6.243741   5.861669   4.172241
    23  H    5.798643   6.115771   6.982747   7.488264   5.545087
    24  H    6.187654   6.176807   7.458564   7.428303   5.472575
                    6          7          8          9         10
     6  C    0.000000
     7  C    3.763130   0.000000
     8  H    2.620930   2.035246   0.000000
     9  C    4.279082   1.387200   3.261263   0.000000
    10  H    4.575496   3.265208   4.686711   2.037829   0.000000
    11  C    1.495169   4.991076   4.037274   5.253370   5.039329
    12  O    1.221501   4.164922   2.545584   4.953104   5.553794
    13  H    4.511488   0.949567   2.334899   2.034727   4.050363
    14  H    5.228480   2.033434   4.046081   0.949923   2.337447
    15  C    2.537727   5.288250   4.694761   5.321267   4.812932
    16  C    2.479176   6.196708   5.044266   6.505918   6.227340
    17  C    3.804937   6.662231   6.064670   6.608934   5.856803
    18  H    2.716281   4.736434   4.412487   4.681753   4.199680
    19  C    3.763108   7.394787   6.335710   7.582673   7.048839
    20  H    2.616515   6.318756   5.010344   6.743160   6.629429
    21  C    4.284219   7.598603   6.770674   7.632399   6.895020
    22  H    4.569487   7.072551   6.649114   6.910258   6.033458
    23  H    4.510144   8.204083   7.062289   8.421607   7.884527
    24  H    5.233249   8.512128   7.709203   8.499517   7.658174
                   11         12         13         14         15
    11  C    0.000000
    12  O    2.352211   0.000000
    13  H    5.806659   4.740159   0.000000
    14  H    6.185535   5.877475   2.332413   0.000000
    15  C    1.397140   3.576242   6.136250   6.188555   0.000000
    16  C    1.400396   2.807573   6.981804   7.440652   2.416598
    17  C    2.415332   4.720113   7.514403   7.439793   1.394557
    18  H    2.045674   3.848369   5.576244   5.503862   0.949629
    19  C    2.417537   4.168594   8.211138   8.496195   2.790484
    20  H    2.045335   2.548367   7.047806   7.680217   3.273506
    21  C    2.791872   4.959954   8.446627   8.501315   2.416481
    22  H    3.272181   5.544711   7.917840   7.679244   2.040640
    23  H    3.274172   4.744339   9.005409   9.338120   3.740125
    24  H    3.741249   5.884919   9.364392   9.349048   3.272933
                   16         17         18         19         20
    16  C    0.000000
    17  C    2.779944   0.000000
    18  H    3.276013   2.043131   0.000000
    19  C    1.384664   2.411145   3.740066   0.000000
    20  H    0.949746   3.729607   4.064490   2.031171   0.000000
    21  C    2.406945   1.390889   3.272678   1.394891   3.263520
    22  H    3.729747   0.949843   2.342925   3.268069   4.679370
    23  H    2.033181   3.268541   4.689659   0.949747   2.331159
    24  H    3.263351   2.039453   4.059507   2.042795   4.050092
                   21         22         23         24
    21  C    0.000000
    22  H    2.037493   0.000000
    23  H    2.043001   4.056081   0.000000
    24  H    0.949386   2.339229   2.345581   0.000000
 Stoichiometry    C13H10O
 Framework group  C1[X(C13H10O)]
 Deg. of freedom    66
 Full point group                 C1      NOp   1
 Largest Abelian subgroup         C1      NOp   1
 Largest concise Abelian subgroup C1      NOp   1
                         Standard orientation:                         
 ---------------------------------------------------------------------
 Center     Atomic      Atomic             Coordinates (Angstroms)
 Number     Number       Type             X           Y           Z
 ---------------------------------------------------------------------
      1          6           0        1.299875    0.323675    0.001457
      2          6           0        1.447752   -0.934758   -0.587934
      3          6           0        2.426444    0.974072    0.518876
      4          6           0        2.703887   -1.531083   -0.669474
      5          1           0        0.687151   -1.386497   -0.934629
      6          6           0        0.000664    1.066351    0.010759
      7          6           0        3.672005    0.367587    0.451363
      8          1           0        2.337782    1.832432    0.916449
      9          6           0        3.810464   -0.875441   -0.148667
     10          1           0        2.802865   -2.382446   -1.079486
     11          6           0       -1.300162    0.329253    0.019012
     12          8           0        0.002428    2.287850    0.011621
     13          1           0        4.431721    0.804158    0.817307
     14          1           0        4.668285   -1.279840   -0.203056
     15          6           0       -1.454097   -0.920272    0.624811
     16          6           0       -2.416309    0.970312   -0.532683
     17          6           0       -2.715177   -1.513035    0.680479
     18          1           0       -0.702304   -1.364645    0.997816
     19          6           0       -3.661748    0.366252   -0.496766
     20          1           0       -2.318082    1.825194   -0.934611
     21          6           0       -3.817150   -0.874409    0.121562
     22          1           0       -2.822049   -2.357095    1.102784
     23          1           0       -4.409795    0.796941   -0.892940
     24          1           0       -4.673686   -1.282027    0.160627
 ---------------------------------------------------------------------
 Rotational constants (GHZ):           1.7632291           0.4106065           0.3514910
 Leave Link  202 at Tue Nov 22 15:02:21 2022, MaxMem= 16106127360 cpu:               2.0 elap:               0.1
 (Enter /opt/ap/G16/B01/g16/l301.exe)
 Standard basis: 6-311++G(d,p) (5D, 7F)
 Ernie: Thresh=  0.10000D-02 Tol=  0.10000D-05 Strict=F.
 There are   392 symmetry adapted cartesian basis functions of A   symmetry.
 There are   378 symmetry adapted basis functions of A   symmetry.
   378 basis functions,   594 primitive gaussians,   392 cartesian basis functions
    48 alpha electrons       48 beta electrons
       nuclear repulsion energy       783.2666078812 Hartrees.
 IExCor= 4639 DFT=T Ex+Corr=wB97XD ExCW=0 ScaHFX=  1.000000
 ScaDFX=  1.000000  1.000000  1.000000  1.000000 ScalE2=  1.000000  1.000000
 IRadAn=      5 IRanWt=     -1 IRanGd=            0 ICorTp=0 IEmpDi=121
 HFx  wShort=  0.000000 wLong=  0.200000 cFull=  0.222036 cShort=  0.000000 cLong=  0.777964
 DFx  wShort=  0.000000 wLong=  0.200000 cFull=  0.000000 cShort=  0.000000 cLong=  1.000000
 NAtoms=   24 NActive=   24 NUniq=   24 SFac= 1.00D+00 NAtFMM=   60 NAOKFM=F Big=F
 Integral buffers will be    131072 words long.
 Raffenetti 2 integral format.
 Two-electron integral symmetry is turned on.
 R6Disp:  Grimme-D2 Dispersion energy=       -0.0140578441 Hartrees.
 Nuclear repulsion after empirical dispersion term =      783.2525500371 Hartrees.
 Leave Link  301 at Tue Nov 22 15:02:21 2022, MaxMem= 16106127360 cpu:               2.8 elap:               0.1
 (Enter /opt/ap/G16/B01/g16/l302.exe)
 NPDir=0 NMtPBC=     1 NCelOv=     1 NCel=       1 NClECP=     1 NCelD=      1
         NCelK=      1 NCelE2=     1 NClLst=     1 CellRange=     0.0.
 One-electron integrals computed using PRISM.
 One-electron integral symmetry used in STVInt
 NBasis=   378 RedAO= T EigKep=  1.39D-06  NBF=   378
 NBsUse=   376 1.00D-06 EigRej=  7.78D-07 NBFU=   376
 Precomputing XC quadrature grid using
 IXCGrd= 4 IRadAn=           5 IRanWt=          -1 IRanGd=           0 AccXCQ= 0.00D+00.
 Generated NRdTot=       0 NPtTot=           0 NUsed=           0 NTot=          32
 NSgBfM=   392   392   392   392   392 MxSgAt=    24 MxSgA2=    24.
 Leave Link  302 at Tue Nov 22 15:02:21 2022, MaxMem= 16106127360 cpu:               8.4 elap:               0.3
 (Enter /opt/ap/G16/B01/g16/l303.exe)
 DipDrv:  MaxL=1.
 Leave Link  303 at Tue Nov 22 15:02:21 2022, MaxMem= 16106127360 cpu:               1.6 elap:               0.1
 (Enter /opt/ap/G16/B01/g16/l401.exe)
 ExpMin= 3.60D-02 ExpMax= 8.59D+03 ExpMxC= 1.30D+03 IAcc=3 IRadAn=         5 AccDes= 0.00D+00
 Harris functional with IExCor= 4639 and IRadAn=       5 diagonalized for initial guess.
 HarFok:  IExCor= 4639 AccDes= 0.00D+00 IRadAn=         5 IDoV= 1 UseB2=F ITyADJ=14
 ICtDFT=  3500011 ScaDFX=  1.000000  1.000000  1.000000  1.000000
 FoFCou: FMM=F IPFlag=           0 FMFlag=      100000 FMFlg1=           0
         NFxFlg=           0 DoJE=T BraDBF=F KetDBF=T FulRan=T
         wScrn=  0.000000 ICntrl=       500 IOpCl=  0 I1Cent=   200000004 NGrid=           0
         NMat0=    1 NMatS0=      1 NMatT0=    0 NMatD0=    1 NMtDS0=    0 NMtDT0=    0
 Petite list used in FoFCou.
 Harris En= -550.906207079707    
 JPrj=0 DoOrth=F DoCkMO=F.
 Leave Link  401 at Tue Nov 22 15:02:22 2022, MaxMem= 16106127360 cpu:              23.1 elap:               0.7
 (Enter /opt/ap/G16/B01/g16/l502.exe)
 Integral symmetry usage will be decided dynamically.
 Closed shell SCF:
 Using DIIS extrapolation, IDIIS=  1040.
 NGot= 16106127360 LenX= 16105803762 LenY= 16105649657
 Requested convergence on RMS density matrix=1.00D-08 within 512 cycles.
 Requested convergence on MAX density matrix=1.00D-06.
 Requested convergence on             energy=1.00D-06.
 No special actions if energy rises.
 Fock matrices will be formed incrementally for  20 cycles.

 Cycle   1  Pass 1  IDiag  1:
 FoFJK:  IHMeth= 1 ICntrl=       0 DoSepK=T KAlg= 0 I1Cent=           0 FoldK=F
 IRaf=         1 NMat=       1 IRICut=       1 DoRegI=T DoRafI=F ISym2E= 0 IDoP0=0 IntGTp=1.
 FoFCou: FMM=F IPFlag=           0 FMFlag=      100000 FMFlg1=           0
         NFxFlg=           0 DoJE=T BraDBF=F KetDBF=F FulRan=T
         wScrn=  0.000000 ICntrl=       500 IOpCl=  0 I1Cent=           0 NGrid=           0
         NMat0=    1 NMatS0=      1 NMatT0=    0 NMatD0=    1 NMtDS0=    0 NMtDT0=    0
 Symmetry not used in FoFCou.
 E= -576.266209354628    
 DIIS: error= 5.26D-02 at cycle   1 NSaved=   1.
 NSaved= 1 IEnMin= 1 EnMin= -576.266209354628     IErMin= 1 ErrMin= 5.26D-02
 ErrMax= 5.26D-02  0.00D+00 EMaxC= 1.00D-01 BMatC= 1.19D+00 BMatP= 1.19D+00
 IDIUse=3 WtCom= 4.74D-01 WtEn= 5.26D-01
 Coeff-Com:  0.100D+01
 Coeff-En:   0.100D+01
 Coeff:      0.100D+01
 Gap=     0.403 Goal=   None    Shift=    0.000
 GapD=    0.403 DampG=2.000 DampE=0.500 DampFc=1.0000 IDamp=-1.
 RMSDP=2.93D-02 MaxDP=4.17D+00              OVMax= 1.39D-01

 Cycle   2  Pass 1  IDiag  1:
 RMSU=  1.76D-02    CP:  7.31D-01
 E= -576.354724676196     Delta-E=       -0.088515321569 Rises=F Damp=F
 DIIS: error= 1.73D-02 at cycle   2 NSaved=   2.
 NSaved= 2 IEnMin= 2 EnMin= -576.354724676196     IErMin= 2 ErrMin= 1.73D-02
 ErrMax= 1.73D-02  0.00D+00 EMaxC= 1.00D-01 BMatC= 7.52D-02 BMatP= 1.19D+00
 IDIUse=3 WtCom= 8.27D-01 WtEn= 1.73D-01
 Coeff-Com:  0.126D+00 0.874D+00
 Coeff-En:   0.145D+00 0.855D+00
 Coeff:      0.129D+00 0.871D+00
 Gap=     0.421 Goal=   None    Shift=    0.000
 RMSDP=1.05D-02 MaxDP=1.60D+00 DE=-8.85D-02 OVMax= 1.61D-01

 Cycle   3  Pass 1  IDiag  1:
 RMSU=  7.02D-03    CP:  6.56D-01  7.50D-01
 E= -576.370442731403     Delta-E=       -0.015718055207 Rises=F Damp=F
 DIIS: error= 1.21D-02 at cycle   3 NSaved=   3.
 NSaved= 3 IEnMin= 3 EnMin= -576.370442731403     IErMin= 3 ErrMin= 1.21D-02
 ErrMax= 1.21D-02  0.00D+00 EMaxC= 1.00D-01 BMatC= 5.61D-02 BMatP= 7.52D-02
 IDIUse=3 WtCom= 8.79D-01 WtEn= 1.21D-01
 Coeff-Com:  0.240D-01 0.467D+00 0.509D+00
 Coeff-En:   0.000D+00 0.435D+00 0.565D+00
 Coeff:      0.211D-01 0.463D+00 0.516D+00
 Gap=     0.348 Goal=   None    Shift=    0.000
 RMSDP=3.26D-03 MaxDP=1.46D-01 DE=-1.57D-02 OVMax= 6.87D-02

 Cycle   4  Pass 1  IDiag  1:
 RMSU=  1.89D-03    CP:  6.44D-01  8.34D-01  7.23D-01
 E= -576.419729434502     Delta-E=       -0.049286703098 Rises=F Damp=F
 DIIS: error= 2.77D-03 at cycle   4 NSaved=   4.
 NSaved= 4 IEnMin= 4 EnMin= -576.419729434502     IErMin= 4 ErrMin= 2.77D-03
 ErrMax= 2.77D-03  0.00D+00 EMaxC= 1.00D-01 BMatC= 9.53D-04 BMatP= 5.61D-02
 IDIUse=3 WtCom= 9.72D-01 WtEn= 2.77D-02
 Coeff-Com:  0.968D-02 0.201D+00 0.243D+00 0.546D+00
 Coeff-En:   0.000D+00 0.000D+00 0.000D+00 0.100D+01
 Coeff:      0.941D-02 0.195D+00 0.236D+00 0.559D+00
 Gap=     0.322 Goal=   None    Shift=    0.000
 RMSDP=5.58D-04 MaxDP=4.17D-02 DE=-4.93D-02 OVMax= 7.04D-03

 Cycle   5  Pass 1  IDiag  1:
 RMSU=  4.10D-04    CP:  6.45D-01  8.53D-01  7.47D-01  9.89D-01
 E= -576.420383754791     Delta-E=       -0.000654320289 Rises=F Damp=F
 DIIS: error= 7.99D-04 at cycle   5 NSaved=   5.
 NSaved= 5 IEnMin= 5 EnMin= -576.420383754791     IErMin= 5 ErrMin= 7.99D-04
 ErrMax= 7.99D-04  0.00D+00 EMaxC= 1.00D-01 BMatC= 8.93D-05 BMatP= 9.53D-04
 IDIUse=3 WtCom= 9.92D-01 WtEn= 7.99D-03
 Coeff-Com: -0.584D-03-0.853D-02-0.614D-03 0.222D+00 0.788D+00
 Coeff-En:   0.000D+00 0.000D+00 0.000D+00 0.000D+00 0.100D+01
 Coeff:     -0.579D-03-0.846D-02-0.609D-03 0.220D+00 0.790D+00
 Gap=     0.324 Goal=   None    Shift=    0.000
 RMSDP=3.73D-04 MaxDP=4.73D-02 DE=-6.54D-04 OVMax= 2.65D-03

 Cycle   6  Pass 1  IDiag  1:
 RMSU=  2.37D-04    CP:  6.43D-01  8.58D-01  7.52D-01  1.06D+00  7.02D-01
 E= -576.420453263562     Delta-E=       -0.000069508772 Rises=F Damp=F
 DIIS: error= 3.65D-04 at cycle   6 NSaved=   6.
 NSaved= 6 IEnMin= 6 EnMin= -576.420453263562     IErMin= 6 ErrMin= 3.65D-04
 ErrMax= 3.65D-04  0.00D+00 EMaxC= 1.00D-01 BMatC= 1.86D-05 BMatP= 8.93D-05
 IDIUse=3 WtCom= 9.96D-01 WtEn= 3.65D-03
 Coeff-Com: -0.122D-02-0.231D-01-0.224D-01 0.654D-01 0.424D+00 0.557D+00
 Coeff-En:   0.000D+00 0.000D+00 0.000D+00 0.000D+00 0.000D+00 0.100D+01
 Coeff:     -0.122D-02-0.230D-01-0.223D-01 0.651D-01 0.423D+00 0.559D+00
 Gap=     0.324 Goal=   None    Shift=    0.000
 RMSDP=8.74D-05 MaxDP=4.40D-03 DE=-6.95D-05 OVMax= 1.27D-03

 Cycle   7  Pass 1  IDiag  1:
 RMSU=  6.64D-05    CP:  6.43D-01  8.58D-01  7.57D-01  1.08D+00  7.85D-01
                    CP:  9.62D-01
 E= -576.420472670094     Delta-E=       -0.000019406532 Rises=F Damp=F
 DIIS: error= 5.36D-05 at cycle   7 NSaved=   7.
 NSaved= 7 IEnMin= 7 EnMin= -576.420472670094     IErMin= 7 ErrMin= 5.36D-05
 ErrMax= 5.36D-05  0.00D+00 EMaxC= 1.00D-01 BMatC= 4.88D-07 BMatP= 1.86D-05
 IDIUse=1 WtCom= 1.00D+00 WtEn= 0.00D+00
 Coeff-Com: -0.229D-03-0.438D-02-0.514D-02-0.105D-01-0.889D-02 0.107D+00
 Coeff-Com:  0.922D+00
 Coeff:     -0.229D-03-0.438D-02-0.514D-02-0.105D-01-0.889D-02 0.107D+00
 Coeff:      0.922D+00
 Gap=     0.324 Goal=   None    Shift=    0.000
 RMSDP=4.14D-05 MaxDP=3.57D-03 DE=-1.94D-05 OVMax= 5.92D-04

 Cycle   8  Pass 1  IDiag  1:
 RMSU=  2.11D-05    CP:  6.43D-01  8.58D-01  7.58D-01  1.09D+00  7.99D-01
                    CP:  1.06D+00  1.05D+00
 E= -576.420473894419     Delta-E=       -0.000001224325 Rises=F Damp=F
 DIIS: error= 2.46D-05 at cycle   8 NSaved=   8.
 NSaved= 8 IEnMin= 8 EnMin= -576.420473894419     IErMin= 8 ErrMin= 2.46D-05
 ErrMax= 2.46D-05  0.00D+00 EMaxC= 1.00D-01 BMatC= 8.36D-08 BMatP= 4.88D-07
 IDIUse=1 WtCom= 1.00D+00 WtEn= 0.00D+00
 Coeff-Com:  0.457D-04 0.652D-03 0.189D-03-0.123D-01-0.545D-01-0.237D-01
 Coeff-Com:  0.313D+00 0.776D+00
 Coeff:      0.457D-04 0.652D-03 0.189D-03-0.123D-01-0.545D-01-0.237D-01
 Coeff:      0.313D+00 0.776D+00
 Gap=     0.324 Goal=   None    Shift=    0.000
 RMSDP=1.86D-05 MaxDP=1.99D-03 DE=-1.22D-06 OVMax= 2.27D-04

 Cycle   9  Pass 1  IDiag  1:
 RMSU=  5.12D-06    CP:  6.43D-01  8.58D-01  7.58D-01  1.09D+00  8.00D-01
                    CP:  1.09D+00  1.05D+00  1.24D+00
 E= -576.420474064096     Delta-E=       -0.000000169677 Rises=F Damp=F
 DIIS: error= 4.77D-06 at cycle   9 NSaved=   9.
 NSaved= 9 IEnMin= 9 EnMin= -576.420474064096     IErMin= 9 ErrMin= 4.77D-06
 ErrMax= 4.77D-06  0.00D+00 EMaxC= 1.00D-01 BMatC= 6.51D-09 BMatP= 8.36D-08
 IDIUse=1 WtCom= 1.00D+00 WtEn= 0.00D+00
 Coeff-Com:  0.402D-04 0.710D-03 0.701D-03-0.828D-03-0.929D-02-0.173D-01
 Coeff-Com: -0.602D-01 0.151D+00 0.935D+00
 Coeff:      0.402D-04 0.710D-03 0.701D-03-0.828D-03-0.929D-02-0.173D-01
 Coeff:     -0.602D-01 0.151D+00 0.935D+00
 Gap=     0.324 Goal=   None    Shift=    0.000
 RMSDP=7.83D-06 MaxDP=1.24D-03 DE=-1.70D-07 OVMax= 1.13D-04

 Cycle  10  Pass 1  IDiag  1:
 RMSU=  1.76D-06    CP:  6.43D-01  8.58D-01  7.58D-01  1.09D+00  7.99D-01
                    CP:  1.10D+00  1.05D+00  1.40D+00  1.26D+00
 E= -576.420474085763     Delta-E=       -0.000000021667 Rises=F Damp=F
 DIIS: error= 2.22D-06 at cycle  10 NSaved=  10.
 NSaved=10 IEnMin=10 EnMin= -576.420474085763     IErMin=10 ErrMin= 2.22D-06
 ErrMax= 2.22D-06  0.00D+00 EMaxC= 1.00D-01 BMatC= 6.37D-10 BMatP= 6.51D-09
 IDIUse=1 WtCom= 1.00D+00 WtEn= 0.00D+00
 Coeff-Com: -0.320D-05-0.203D-04 0.159D-04 0.139D-02 0.493D-02 0.221D-02
 Coeff-Com: -0.284D-01-0.728D-01 0.433D-01 0.105D+01
 Coeff:     -0.320D-05-0.203D-04 0.159D-04 0.139D-02 0.493D-02 0.221D-02
 Coeff:     -0.284D-01-0.728D-01 0.433D-01 0.105D+01
 Gap=     0.324 Goal=   None    Shift=    0.000
 RMSDP=2.29D-06 MaxDP=1.49D-04 DE=-2.17D-08 OVMax= 4.36D-05

 Cycle  11  Pass 1  IDiag  1:
 RMSU=  8.07D-07    CP:  6.43D-01  8.58D-01  7.58D-01  1.09D+00  7.99D-01
                    CP:  1.10D+00  1.04D+00  1.46D+00  1.35D+00  1.23D+00
 E= -576.420474088999     Delta-E=       -0.000000003236 Rises=F Damp=F
 DIIS: error= 1.00D-06 at cycle  11 NSaved=  11.
 NSaved=11 IEnMin=11 EnMin= -576.420474088999     IErMin=11 ErrMin= 1.00D-06
 ErrMax= 1.00D-06  0.00D+00 EMaxC= 1.00D-01 BMatC= 1.30D-10 BMatP= 6.37D-10
 IDIUse=1 WtCom= 1.00D+00 WtEn= 0.00D+00
 Coeff-Com: -0.383D-05-0.623D-04-0.548D-04 0.382D-03 0.166D-02 0.175D-02
 Coeff-Com: -0.435D-05-0.302D-01-0.906D-01 0.194D+00 0.923D+00
 Coeff:     -0.383D-05-0.623D-04-0.548D-04 0.382D-03 0.166D-02 0.175D-02
 Coeff:     -0.435D-05-0.302D-01-0.906D-01 0.194D+00 0.923D+00
 Gap=     0.324 Goal=   None    Shift=    0.000
 RMSDP=6.29D-07 MaxDP=7.73D-05 DE=-3.24D-09 OVMax= 1.92D-05

 Cycle  12  Pass 1  IDiag  1:
 RMSU=  3.63D-07    CP:  6.43D-01  8.58D-01  7.58D-01  1.09D+00  7.99D-01
                    CP:  1.10D+00  1.04D+00  1.46D+00  1.39D+00  1.31D+00
                    CP:  1.26D+00
 E= -576.420474089627     Delta-E=       -0.000000000628 Rises=F Damp=F
 DIIS: error= 4.85D-07 at cycle  12 NSaved=  12.
 NSaved=12 IEnMin=12 EnMin= -576.420474089627     IErMin=12 ErrMin= 4.85D-07
 ErrMax= 4.85D-07  0.00D+00 EMaxC= 1.00D-01 BMatC= 2.75D-11 BMatP= 1.30D-10
 IDIUse=1 WtCom= 1.00D+00 WtEn= 0.00D+00
 Coeff-Com:  0.166D-06-0.694D-05-0.135D-04-0.294D-03-0.105D-02-0.323D-03
 Coeff-Com:  0.813D-02 0.151D-01-0.281D-01-0.232D+00 0.191D+00 0.105D+01
 Coeff:      0.166D-06-0.694D-05-0.135D-04-0.294D-03-0.105D-02-0.323D-03
 Coeff:      0.813D-02 0.151D-01-0.281D-01-0.232D+00 0.191D+00 0.105D+01
 Gap=     0.324 Goal=   None    Shift=    0.000
 RMSDP=3.34D-07 MaxDP=2.15D-05 DE=-6.28D-10 OVMax= 1.19D-05

 Cycle  13  Pass 1  IDiag  1:
 RMSU=  1.26D-07    CP:  6.43D-01  8.58D-01  7.58D-01  1.09D+00  7.99D-01
                    CP:  1.10D+00  1.04D+00  1.45D+00  1.40D+00  1.34D+00
                    CP:  1.42D+00  1.51D+00
 E= -576.420474089778     Delta-E=       -0.000000000151 Rises=F Damp=F
 DIIS: error= 1.60D-07 at cycle  13 NSaved=  13.
 NSaved=13 IEnMin=13 EnMin= -576.420474089778     IErMin=13 ErrMin= 1.60D-07
 ErrMax= 1.60D-07  0.00D+00 EMaxC= 1.00D-01 BMatC= 4.21D-12 BMatP= 2.75D-11
 IDIUse=1 WtCom= 1.00D+00 WtEn= 0.00D+00
 Coeff-Com:  0.529D-06 0.636D-05 0.539D-05-0.141D-03-0.489D-03-0.358D-03
 Coeff-Com:  0.195D-02 0.778D-02 0.391D-02-0.865D-01-0.703D-01 0.236D+00
 Coeff-Com:  0.908D+00
 Coeff:      0.529D-06 0.636D-05 0.539D-05-0.141D-03-0.489D-03-0.358D-03
 Coeff:      0.195D-02 0.778D-02 0.391D-02-0.865D-01-0.703D-01 0.236D+00
 Coeff:      0.908D+00
 Gap=     0.324 Goal=   None    Shift=    0.000
 RMSDP=1.14D-07 MaxDP=4.82D-06 DE=-1.51D-10 OVMax= 4.11D-06

 Cycle  14  Pass 1  IDiag  1:
 RMSU=  4.27D-08    CP:  6.43D-01  8.58D-01  7.58D-01  1.09D+00  7.99D-01
                    CP:  1.10D+00  1.04D+00  1.45D+00  1.40D+00  1.33D+00
                    CP:  1.45D+00  1.67D+00  1.37D+00
 E= -576.420474089798     Delta-E=       -0.000000000021 Rises=F Damp=F
 DIIS: error= 4.23D-08 at cycle  14 NSaved=  14.
 NSaved=14 IEnMin=14 EnMin= -576.420474089798     IErMin=14 ErrMin= 4.23D-08
 ErrMax= 4.23D-08  0.00D+00 EMaxC= 1.00D-01 BMatC= 7.93D-13 BMatP= 4.21D-12
 IDIUse=1 WtCom= 1.00D+00 WtEn= 0.00D+00
 Coeff-Com:  0.714D-07 0.227D-05 0.389D-05 0.925D-05 0.655D-04-0.211D-04
 Coeff-Com: -0.833D-03-0.663D-03 0.501D-02 0.176D-01-0.390D-01-0.137D+00
 Coeff-Com:  0.229D+00 0.926D+00
 Coeff:      0.714D-07 0.227D-05 0.389D-05 0.925D-05 0.655D-04-0.211D-04
 Coeff:     -0.833D-03-0.663D-03 0.501D-02 0.176D-01-0.390D-01-0.137D+00
 Coeff:      0.229D+00 0.926D+00
 Gap=     0.324 Goal=   None    Shift=    0.000
 RMSDP=7.97D-08 MaxDP=8.34D-06 DE=-2.09D-11 OVMax= 1.37D-06

 Cycle  15  Pass 1  IDiag  1:
 RMSU=  1.40D-08    CP:  6.43D-01  8.58D-01  7.58D-01  1.09D+00  7.99D-01
                    CP:  1.10D+00  1.04D+00  1.45D+00  1.40D+00  1.32D+00
                    CP:  1.45D+00  1.73D+00  1.58D+00  1.02D+00
 E= -576.420474089801     Delta-E=       -0.000000000003 Rises=F Damp=F
 DIIS: error= 1.87D-08 at cycle  15 NSaved=  15.
 NSaved=15 IEnMin=15 EnMin= -576.420474089801     IErMin=15 ErrMin= 1.87D-08
 ErrMax= 1.87D-08  0.00D+00 EMaxC= 1.00D-01 BMatC= 1.35D-13 BMatP= 7.93D-13
 IDIUse=1 WtCom= 1.00D+00 WtEn= 0.00D+00
 Coeff-Com: -0.324D-07 0.248D-06 0.114D-05 0.206D-04 0.896D-04 0.404D-04
 Coeff-Com: -0.571D-03-0.119D-02 0.170D-02 0.182D-01-0.578D-02-0.952D-01
 Coeff-Com: -0.887D-02 0.402D+00 0.689D+00
 Coeff:     -0.324D-07 0.248D-06 0.114D-05 0.206D-04 0.896D-04 0.404D-04
 Coeff:     -0.571D-03-0.119D-02 0.170D-02 0.182D-01-0.578D-02-0.952D-01
 Coeff:     -0.887D-02 0.402D+00 0.689D+00
 Gap=     0.324 Goal=   None    Shift=    0.000
 RMSDP=1.94D-08 MaxDP=2.35D-06 DE=-2.96D-12 OVMax= 3.03D-07

 Cycle  16  Pass 1  IDiag  1:
 RMSU=  4.09D-09    CP:  6.43D-01  8.58D-01  7.58D-01  1.09D+00  7.99D-01
                    CP:  1.10D+00  1.04D+00  1.45D+00  1.40D+00  1.32D+00
                    CP:  1.44D+00  1.74D+00  1.59D+00  1.10D+00  1.08D+00
 E= -576.420474089806     Delta-E=       -0.000000000004 Rises=F Damp=F
 DIIS: error= 5.06D-09 at cycle  16 NSaved=  16.
 NSaved=16 IEnMin=16 EnMin= -576.420474089806     IErMin=16 ErrMin= 5.06D-09
 ErrMax= 5.06D-09  0.00D+00 EMaxC= 1.00D-01 BMatC= 5.20D-15 BMatP= 1.35D-13
 IDIUse=1 WtCom= 1.00D+00 WtEn= 0.00D+00
 Coeff-Com: -0.860D-08-0.195D-06-0.313D-06 0.122D-05 0.263D-05 0.973D-05
 Coeff-Com:  0.308D-04-0.631D-04-0.486D-03-0.179D-03 0.548D-02 0.214D-02
 Coeff-Com: -0.242D-01-0.632D-01 0.734D-01 0.101D+01
 Coeff:     -0.860D-08-0.195D-06-0.313D-06 0.122D-05 0.263D-05 0.973D-05
 Coeff:      0.308D-04-0.631D-04-0.486D-03-0.179D-03 0.548D-02 0.214D-02
 Coeff:     -0.242D-01-0.632D-01 0.734D-01 0.101D+01
 Gap=     0.324 Goal=   None    Shift=    0.000
 RMSDP=4.87D-09 MaxDP=3.96D-07 DE=-4.32D-12 OVMax= 7.58D-08

 SCF Done:  E(RwB97XD) =  -576.420474090     A.U. after   16 cycles
            NFock= 16  Conv=0.49D-08     -V/T= 2.0000
 KE= 5.764195797652D+02 PE=-2.908747006819D+03 EE= 9.726544029272D+02
 Leave Link  502 at Tue Nov 22 15:02:59 2022, MaxMem= 16106127360 cpu:            1201.8 elap:              37.6
 (Enter /opt/ap/G16/B01/g16/l601.exe)
 Copying SCF densities to generalized density rwf, IOpCl= 0 IROHF=0.

 **********************************************************************

            Population analysis using the SCF Density.

 **********************************************************************

 Orbital symmetries:
       Occupied  (A) (A) (A) (A) (A) (A) (A) (A) (A) (A) (A) (A)
                 (A) (A) (A) (A) (A) (A) (A) (A) (A) (A) (A) (A)
                 (A) (A) (A) (A) (A) (A) (A) (A) (A) (A) (A) (A)
                 (A) (A) (A) (A) (A) (A) (A) (A) (A) (A) (A) (A)
       Virtual   (A) (A) (A) (A) (A) (A) (A) (A) (A) (A) (A) (A)
                 (A) (A) (A) (A) (A) (A) (A) (A) (A) (A) (A) (A)
                 (A) (A) (A) (A) (A) (A) (A) (A) (A) (A) (A) (A)
                 (A) (A) (A) (A) (A) (A) (A) (A) (A) (A) (A) (A)
                 (A) (A) (A) (A) (A) (A) (A) (A) (A) (A) (A) (A)
                 (A) (A) (A) (A) (A) (A) (A) (A) (A) (A) (A) (A)
                 (A) (A) (A) (A) (A) (A) (A) (A) (A) (A) (A) (A)
                 (A) (A) (A) (A) (A) (A) (A) (A) (A) (A) (A) (A)
                 (A) (A) (A) (A) (A) (A) (A) (A) (A) (A) (A) (A)
                 (A) (A) (A) (A) (A) (A) (A) (A) (A) (A) (A) (A)
                 (A) (A) (A) (A) (A) (A) (A) (A) (A) (A) (A) (A)
                 (A) (A) (A) (A) (A) (A) (A) (A) (A) (A) (A) (A)
                 (A) (A) (A) (A) (A) (A) (A) (A) (A) (A) (A) (A)
                 (A) (A) (A) (A) (A) (A) (A) (A) (A) (A) (A) (A)
                 (A) (A) (A) (A) (A) (A) (A) (A) (A) (A) (A) (A)
                 (A) (A) (A) (A) (A) (A) (A) (A) (A) (A) (A) (A)
                 (A) (A) (A) (A) (A) (A) (A) (A) (A) (A) (A) (A)
                 (A) (A) (A) (A) (A) (A) (A) (A) (A) (A) (A) (A)
                 (A) (A) (A) (A) (A) (A) (A) (A) (A) (A) (A) (A)
                 (A) (A) (A) (A) (A) (A) (A) (A) (A) (A) (A) (A)
                 (A) (A) (A) (A) (A) (A) (A) (A) (A) (A) (A) (A)
                 (A) (A) (A) (A) (A) (A) (A) (A) (A) (A) (A) (A)
                 (A) (A) (A) (A) (A) (A) (A) (A) (A) (A) (A) (A)
                 (A) (A) (A) (A) (A) (A) (A) (A) (A) (A) (A) (A)
                 (A) (A) (A) (A) (A) (A) (A) (A) (A) (A) (A) (A)
                 (A) (A) (A) (A) (A) (A) (A) (A) (A) (A) (A) (A)
                 (A) (A) (A) (A) (A) (A) (A) (A) (A) (A) (A) (A)
                 (A) (A) (A) (A)
 The electronic state is 1-A.
 Alpha  occ. eigenvalues --  -19.23628 -10.38095 -10.30455 -10.30455 -10.28964
 Alpha  occ. eigenvalues --  -10.28930 -10.28634 -10.28508 -10.28458 -10.28410
 Alpha  occ. eigenvalues --  -10.28406 -10.28376 -10.28213 -10.28129  -1.14761
 Alpha  occ. eigenvalues --   -0.97920  -0.97401  -0.89166  -0.87343  -0.87283
 Alpha  occ. eigenvalues --   -0.86730  -0.76785  -0.73723  -0.73690  -0.72412
 Alpha  occ. eigenvalues --   -0.67950  -0.65359  -0.63171  -0.60074  -0.56777
 Alpha  occ. eigenvalues --   -0.56096  -0.55921  -0.54034  -0.53854  -0.53775
 Alpha  occ. eigenvalues --   -0.51937  -0.49819  -0.47237  -0.46686  -0.46114
 Alpha  occ. eigenvalues --   -0.45287  -0.44861  -0.44325  -0.35067  -0.34562
 Alpha  occ. eigenvalues --   -0.34263  -0.34169  -0.33252
 Alpha virt. eigenvalues --   -0.00840   0.03609   0.03663   0.04314   0.04382
 Alpha virt. eigenvalues --    0.04981   0.05120   0.05511   0.06029   0.06830
 Alpha virt. eigenvalues --    0.07606   0.08049   0.08846   0.09890   0.11326
 Alpha virt. eigenvalues --    0.11597   0.11862   0.12922   0.13578   0.14205
 Alpha virt. eigenvalues --    0.14984   0.15037   0.15608   0.15997   0.16644
 Alpha virt. eigenvalues --    0.16924   0.17194   0.17404   0.17820   0.17983
 Alpha virt. eigenvalues --    0.18244   0.18637   0.18753   0.19143   0.19512
 Alpha virt. eigenvalues --    0.19847   0.20449   0.20650   0.20964   0.21308
 Alpha virt. eigenvalues --    0.21545   0.21669   0.22026   0.23077   0.23822
 Alpha virt. eigenvalues --    0.24247   0.24965   0.25255   0.25822   0.26489
 Alpha virt. eigenvalues --    0.26535   0.27055   0.27696   0.28251   0.28930
 Alpha virt. eigenvalues --    0.29560   0.29987   0.30052   0.30285   0.31008
 Alpha virt. eigenvalues --    0.31403   0.32114   0.32802   0.32959   0.33476
 Alpha virt. eigenvalues --    0.33656   0.34141   0.34672   0.35755   0.35934
 Alpha virt. eigenvalues --    0.36706   0.37513   0.38178   0.38324   0.38912
 Alpha virt. eigenvalues --    0.39109   0.40334   0.40792   0.41657   0.41703
 Alpha virt. eigenvalues --    0.42016   0.42491   0.43346   0.43878   0.44578
 Alpha virt. eigenvalues --    0.44981   0.45822   0.46660   0.49587   0.50461
 Alpha virt. eigenvalues --    0.51764   0.57188   0.57312   0.57982   0.60585
 Alpha virt. eigenvalues --    0.61045   0.61693   0.62696   0.63099   0.63710
 Alpha virt. eigenvalues --    0.64229   0.64774   0.65174   0.65422   0.66611
 Alpha virt. eigenvalues --    0.66807   0.66952   0.68871   0.69121   0.70578
 Alpha virt. eigenvalues --    0.71439   0.71910   0.72088   0.74095   0.74623
 Alpha virt. eigenvalues --    0.74941   0.76227   0.76934   0.78173   0.79257
 Alpha virt. eigenvalues --    0.79931   0.80627   0.81714   0.82116   0.82653
 Alpha virt. eigenvalues --    0.83765   0.84658   0.84681   0.85939   0.87028
 Alpha virt. eigenvalues --    0.88162   0.89876   0.92453   0.93093   0.93394
 Alpha virt. eigenvalues --    0.94262   0.94649   0.95336   0.96245   0.96435
 Alpha virt. eigenvalues --    0.97198   0.97813   0.99943   1.00256   1.00369
 Alpha virt. eigenvalues --    1.01961   1.02699   1.04381   1.05143   1.05289
 Alpha virt. eigenvalues --    1.07225   1.07595   1.11265   1.12534   1.12923
 Alpha virt. eigenvalues --    1.13906   1.16363   1.17010   1.17407   1.18579
 Alpha virt. eigenvalues --    1.19240   1.21148   1.22161   1.23939   1.25205
 Alpha virt. eigenvalues --    1.26511   1.29528   1.30748   1.34011   1.37960
 Alpha virt. eigenvalues --    1.40344   1.43721   1.44591   1.46106   1.55512
 Alpha virt. eigenvalues --    1.57551   1.57723   1.58010   1.60733   1.60942
 Alpha virt. eigenvalues --    1.61751   1.63109   1.64331   1.65898   1.66339
 Alpha virt. eigenvalues --    1.67333   1.68349   1.68600   1.70601   1.73113
 Alpha virt. eigenvalues --    1.75623   1.76025   1.76307   1.78002   1.78265
 Alpha virt. eigenvalues --    1.78565   1.80527   1.86912   1.87583   1.88677
 Alpha virt. eigenvalues --    1.90568   1.91540   1.91971   1.93236   1.93955
 Alpha virt. eigenvalues --    1.95750   1.95769   1.97598   2.00407   2.00631
 Alpha virt. eigenvalues --    2.01928   2.02413   2.05311   2.05760   2.06330
 Alpha virt. eigenvalues --    2.06445   2.06490   2.08827   2.09927   2.10351
 Alpha virt. eigenvalues --    2.12903   2.15290   2.16248   2.16656   2.21313
 Alpha virt. eigenvalues --    2.25546   2.26838   2.27681   2.29406   2.29583
 Alpha virt. eigenvalues --    2.31128   2.42322   2.44344   2.46882   2.48387
 Alpha virt. eigenvalues --    2.49122   2.49959   2.50771   2.51316   2.52259
 Alpha virt. eigenvalues --    2.58231   2.59978   2.61510   2.67408   2.68546
 Alpha virt. eigenvalues --    2.69431   2.78236   2.80360   2.82285   2.82377
 Alpha virt. eigenvalues --    2.83667   2.84035   2.87663   2.87761   2.88298
 Alpha virt. eigenvalues --    2.89738   2.92514   2.93462   2.93717   2.96790
 Alpha virt. eigenvalues --    2.96963   2.97415   2.98147   3.00295   3.00637
 Alpha virt. eigenvalues --    3.00808   3.01072   3.02070   3.03531   3.05184
 Alpha virt. eigenvalues --    3.06218   3.08605   3.12315   3.14205   3.15007
 Alpha virt. eigenvalues --    3.19473   3.20387   3.22158   3.24910   3.25739
 Alpha virt. eigenvalues --    3.27345   3.32748   3.33149   3.38333   3.45195
 Alpha virt. eigenvalues --    3.49264   3.49853   3.51439   3.52967   3.65830
 Alpha virt. eigenvalues --    3.69755   3.70192   3.71418   3.75262   3.76309
 Alpha virt. eigenvalues --    3.83479   3.88607   3.91890   3.96221   4.32026
 Alpha virt. eigenvalues --    4.37171   4.37526   4.39674   4.40652   4.42294
 Alpha virt. eigenvalues --    4.42983   4.51145   4.51774   4.59884   4.94511
 Alpha virt. eigenvalues --    4.95877   5.20956   5.35885   5.86305  23.89465
 Alpha virt. eigenvalues --   23.96399  23.99174  24.16859  24.18654  24.24209
 Alpha virt. eigenvalues --   24.24816  24.30252  24.30986  24.34135  24.34388
 Alpha virt. eigenvalues --   24.43567  24.44300  50.15318
          Condensed to atoms (all electrons):
               1          2          3          4          5          6
     1  C   15.506013   0.541490  -0.681618  -1.005948   0.023952  -6.493259
     2  C    0.541490  17.621986  -4.940972  -3.627187   0.829380  -4.018534
     3  C   -0.681618  -4.940972   9.799554   1.172860  -0.087871   0.981795
     4  C   -1.005948  -3.627187   1.172860   8.142083  -0.266309   1.974212
     5  H    0.023952   0.829380  -0.087871  -0.266309   0.534056  -0.237797
     6  C   -6.493259  -4.018534   0.981795   1.974212  -0.237797  23.646002
     7  C   -0.680319  -0.243156   0.704506  -0.225915   0.030864  -0.082135
     8  H    0.066237   0.067811   0.371105   0.001404  -0.000299   0.040094
     9  C   -0.211302   1.491092  -1.020242  -0.179490   0.029899  -0.721729
    10  H    0.055423  -0.215014   0.054907   0.516875  -0.019487   0.055386
    11  C   -1.277926  -0.156485  -0.494732  -0.554704   0.055104  -6.091509
    12  O    0.021293  -0.087936   0.077709  -0.017581  -0.001467   0.235494
    13  H   -0.023059  -0.040328  -0.064080   0.022114   0.000426   0.017133
    14  H    0.025606   0.051156  -0.029962  -0.104230   0.001618  -0.040212
    15  C   -0.123820  -0.563147  -0.005285   0.212158  -0.017419  -3.882132
    16  C   -0.477976   0.039542  -0.116432   0.095554  -0.006896   0.581934
    17  C   -0.602114   0.229214   0.103938   0.118554  -0.019696   2.084769
    18  H    0.058394  -0.026867  -0.006972  -0.014083  -0.011697  -0.229993
    19  C   -0.103029   0.159905  -0.139995   0.045139   0.001389   0.115126
    20  H   -0.056247  -0.040312   0.020138  -0.000393  -0.004130   0.038405
    21  C    0.105384  -0.149564   0.037355  -0.004160  -0.000018  -0.784842
    22  H   -0.023672   0.013762  -0.004693   0.005271  -0.002128   0.054990
    23  H   -0.003833   0.011156  -0.005528   0.000697   0.000322   0.018417
    24  H    0.009123  -0.011527   0.002913  -0.001277  -0.000564  -0.039490
               7          8          9         10         11         12
     1  C   -0.680319   0.066237  -0.211302   0.055423  -1.277926   0.021293
     2  C   -0.243156   0.067811   1.491092  -0.215014  -0.156485  -0.087936
     3  C    0.704506   0.371105  -1.020242   0.054907  -0.494732   0.077709
     4  C   -0.225915   0.001404  -0.179490   0.516875  -0.554704  -0.017581
     5  H    0.030864  -0.000299   0.029899  -0.019487   0.055104  -0.001467
     6  C   -0.082135   0.040094  -0.721729   0.055386  -6.091509   0.235494
     7  C    6.086001  -0.135090   0.519835   0.008333  -0.068644   0.016325
     8  H   -0.135090   0.463185  -0.003005   0.000257  -0.054479  -0.015652
     9  C    0.519835  -0.003005   6.067725  -0.128309   0.102567   0.001589
    10  H    0.008333   0.000257  -0.128309   0.494849  -0.022333   0.000000
    11  C   -0.068644  -0.054479   0.102567  -0.022333  15.149104   0.010914
    12  O    0.016325  -0.015652   0.001589   0.000000   0.010914   7.973083
    13  H    0.486527  -0.013315  -0.054355   0.001315  -0.004579   0.001055
    14  H   -0.076838   0.002292   0.522008  -0.016849   0.009358   0.000049
    15  C    0.169506  -0.040204  -0.163192   0.013886   0.313289  -0.076657
    16  C   -0.156112   0.021414   0.050101  -0.005085  -0.497983   0.072529
    17  C    0.037004   0.000098  -0.001896   0.004934  -0.869586  -0.019330
    18  H    0.003435  -0.004142  -0.002319  -0.001764   0.006497  -0.001198
    19  C   -0.038452   0.004042   0.013826  -0.001765  -0.809395   0.016331
    20  H    0.003818  -0.000683  -0.002008   0.000257   0.072544  -0.014828
    21  C    0.013090  -0.002012  -0.015415   0.002216  -0.222439   0.003029
    22  H   -0.001827   0.000249   0.002322   0.000021   0.056482  -0.000076
    23  H   -0.000879   0.000089   0.000550  -0.000070  -0.024547   0.000914
    24  H    0.000442  -0.000097  -0.000480   0.000066   0.026182   0.000075
              13         14         15         16         17         18
     1  C   -0.023059   0.025606  -0.123820  -0.477976  -0.602114   0.058394
     2  C   -0.040328   0.051156  -0.563147   0.039542   0.229214  -0.026867
     3  C   -0.064080  -0.029962  -0.005285  -0.116432   0.103938  -0.006972
     4  C    0.022114  -0.104230   0.212158   0.095554   0.118554  -0.014083
     5  H    0.000426   0.001618  -0.017419  -0.006896  -0.019696  -0.011697
     6  C    0.017133  -0.040212  -3.882132   0.581934   2.084769  -0.229993
     7  C    0.486527  -0.076838   0.169506  -0.156112   0.037004   0.003435
     8  H   -0.013315   0.002292  -0.040204   0.021414   0.000098  -0.004142
     9  C   -0.054355   0.522008  -0.163192   0.050101  -0.001896  -0.002319
    10  H    0.001315  -0.016849   0.013886  -0.005085   0.004934  -0.001764
    11  C   -0.004579   0.009358   0.313289  -0.497983  -0.869586   0.006497
    12  O    0.001055   0.000049  -0.076657   0.072529  -0.019330  -0.001198
    13  H    0.482259  -0.016855   0.011561  -0.006157   0.000558   0.000405
    14  H   -0.016855   0.499569  -0.011720   0.003247  -0.001180  -0.000578
    15  C    0.011561  -0.011720  17.772238  -4.718671  -3.870059   0.831576
    16  C   -0.006157   0.003247  -4.718671   9.718453   1.081977  -0.077629
    17  C    0.000558  -0.001180  -3.870059   1.081977   8.291111  -0.268577
    18  H    0.000405  -0.000578   0.831576  -0.077629  -0.268577   0.529888
    19  C   -0.000946   0.000460  -0.510179   0.814777  -0.091397   0.022161
    20  H    0.000093  -0.000101   0.075081   0.361018  -0.001408  -0.000145
    21  C    0.000542  -0.000476   1.679556  -0.990777  -0.337417   0.036312
    22  H   -0.000071   0.000066  -0.221520   0.051211   0.526360  -0.019387
    23  H   -0.000021   0.000015  -0.045666  -0.062691   0.025922   0.000401
    24  H    0.000014  -0.000012   0.054270  -0.028289  -0.106373   0.001700
              19         20         21         22         23         24
     1  C   -0.103029  -0.056247   0.105384  -0.023672  -0.003833   0.009123
     2  C    0.159905  -0.040312  -0.149564   0.013762   0.011156  -0.011527
     3  C   -0.139995   0.020138   0.037355  -0.004693  -0.005528   0.002913
     4  C    0.045139  -0.000393  -0.004160   0.005271   0.000697  -0.001277
     5  H    0.001389  -0.004130  -0.000018  -0.002128   0.000322  -0.000564
     6  C    0.115126   0.038405  -0.784842   0.054990   0.018417  -0.039490
     7  C   -0.038452   0.003818   0.013090  -0.001827  -0.000879   0.000442
     8  H    0.004042  -0.000683  -0.002012   0.000249   0.000089  -0.000097
     9  C    0.013826  -0.002008  -0.015415   0.002322   0.000550  -0.000480
    10  H   -0.001765   0.000257   0.002216   0.000021  -0.000070   0.000066
    11  C   -0.809395   0.072544  -0.222439   0.056482  -0.024547   0.026182
    12  O    0.016331  -0.014828   0.003029  -0.000076   0.000914   0.000075
    13  H   -0.000946   0.000093   0.000542  -0.000071  -0.000021   0.000014
    14  H    0.000460  -0.000101  -0.000476   0.000066   0.000015  -0.000012
    15  C   -0.510179   0.075081   1.679556  -0.221520  -0.045666   0.054270
    16  C    0.814777   0.361018  -0.990777   0.051211  -0.062691  -0.028289
    17  C   -0.091397  -0.001408  -0.337417   0.526360   0.025922  -0.106373
    18  H    0.022161  -0.000145   0.036312  -0.019387   0.000401   0.001700
    19  C    6.098532  -0.132407   0.481612   0.012104   0.487293  -0.075281
    20  H   -0.132407   0.462966  -0.002283   0.000247  -0.013457   0.002224
    21  C    0.481612  -0.002283   6.126304  -0.131829  -0.056651   0.517621
    22  H    0.012104   0.000247  -0.131829   0.495690   0.001248  -0.016658
    23  H    0.487293  -0.013457  -0.056651   0.001248   0.482216  -0.015848
    24  H   -0.075281   0.002224   0.517621  -0.016658  -0.015848   0.496210
 Mulliken charges:
               1
     1  C    1.351206
     2  C   -0.935466
     3  C    0.271601
     4  C   -0.305644
     5  H    0.168766
     6  C   -1.222126
     7  C   -0.370319
     8  H    0.230701
     9  C   -0.297774
    10  H    0.201951
    11  C    1.347301
    12  O   -0.195665
    13  H    0.199766
    14  H    0.183568
    15  C   -0.883448
    16  C    0.252941
    17  C   -0.315406
    18  H    0.174582
    19  C   -0.369851
    20  H    0.231609
    21  C   -0.305137
    22  H    0.201837
    23  H    0.199952
    24  H    0.185055
 Sum of Mulliken charges =  -0.00000
 Mulliken charges with hydrogens summed into heavy atoms:
               1
     1  C    1.351206
     2  C   -0.766700
     3  C    0.502301
     4  C   -0.103693
     6  C   -1.222126
     7  C   -0.170553
     9  C   -0.114206
    11  C    1.347301
    12  O   -0.195665
    15  C   -0.708866
    16  C    0.484550
    17  C   -0.113569
    19  C   -0.169900
    21  C   -0.120082
 Electronic spatial extent (au):  <R**2>=           3063.2009
 Charge=             -0.0000 electrons
 Dipole moment (field-independent basis, Debye):
    X=              0.0100    Y=             -3.2557    Z=             -0.0225  Tot=              3.2558
 Quadrupole moment (field-independent basis, Debye-Ang):
   XX=            -63.4866   YY=            -82.4093   ZZ=            -81.7972
   XY=              0.0639   XZ=              2.3939   YZ=             -0.1026
 Traceless Quadrupole moment (field-independent basis, Debye-Ang):
   XX=             12.4111   YY=             -6.5116   ZZ=             -5.8995
   XY=              0.0639   XZ=              2.3939   YZ=             -0.1026
 Octapole moment (field-independent basis, Debye-Ang**2):
  XXX=              0.4092  YYY=            -22.4979  ZZZ=              0.0949  XYY=              0.3006
  XXY=             -5.0987  XXZ=             -0.9857  XZZ=             -0.3259  YZZ=              3.4442
  YYZ=             -0.1407  XYZ=             17.0074
 Hexadecapole moment (field-independent basis, Debye-Ang**3):
 XXXX=          -2846.5050 YYYY=           -747.5337 ZZZZ=           -212.6214 XXXY=              2.6388
 XXXZ=             59.8223 YYYX=             -0.3310 YYYZ=             -0.1151 ZZZX=              5.2609
 ZZZY=             -0.3961 XXYY=           -609.5208 XXZZ=           -609.6190 YYZZ=           -142.7902
 XXYZ=             -0.1222 YYXZ=             -7.6308 ZZXY=             -0.2135
 N-N= 7.832525500371D+02 E-N=-2.908747007059D+03  KE= 5.764195797652D+02
 No NMR shielding tensors so no spin-rotation constants.
 Leave Link  601 at Tue Nov 22 15:03:00 2022, MaxMem= 16106127360 cpu:               4.8 elap:               0.2
 (Enter /opt/ap/G16/B01/g16/l9999.exe)
 1\1\GINC-N13\SP\RwB97XD\6-311++G(d,p)\C13H10O1\ROOT\22-Nov-2022\0\\#P 
 wB97XD/6-311++G(d,p) scf=maxcycle=512\\_conf024.gjf nmol_natom 1_24\\0
 ,1\C\C,1,1.39746343\C,1,1.39996263,2,119.28066518\C,2,1.39288453,1,120
 .37436646,3,-0.51002981,0\H,2,0.95014703,1,119.82324024,3,179.45634896
 ,0\C,1,1.49653039,2,122.77761373,4,174.46828757,0\C,3,1.3870125,1,120.
 10017821,2,-0.37315804,0\H,3,0.9501092,1,119.95246451,2,179.5923884,0\
 C,7,1.38720039,3,120.16568731,1,1.0745106,0\H,4,0.95011919,2,120.18755
 644,1,-179.31195299,0\C,6,1.49516902,1,120.70972921,2,30.,0\O,6,1.2215
 0059,1,119.67074267,2,-150.,0\H,7,0.94956661,3,119.91274826,1,-178.886
 36029,0\H,9,0.94992259,7,119.76037934,3,179.10763853,0\C,11,1.39713972
 ,6,122.62585705,1,30.97749054,0\C,11,1.40039562,6,117.74753532,1,-153.
 15467779,0\C,15,1.39455701,11,119.80747484,6,175.4763048,0\H,15,0.9496
 2854,11,120.10535689,6,-4.50802339,0\C,16,1.38466431,11,120.4617377,6,
 -176.88197195,0\H,16,0.9497464,11,119.75779177,6,3.14699974,0\C,17,1.3
 9088945,15,120.3475273,11,0.7973643,0\H,17,0.94984298,15,119.8156451,1
 1,-179.16676483,0\H,19,0.94974749,16,119.98566335,11,-178.40987425,0\H
 ,21,0.94938585,17,120.0744529,15,179.91636093,0\\Version=ES64L-G16RevB
 .01\State=1-A\HF=-576.4204741\RMSD=4.870e-09\Dipole=-0.0332703,0.54738
 ,1.1576065\Quadrupole=9.3955467,-4.5669424,-4.8286043,-0.6103662,0.695
 9328,-0.0675167\PG=C01 [X(C13H10O1)]\\@


 NO SCIENCE HAS EVER MADE MORE RAPID PROGRESS IN A
 SHORTER TIME THAN CHEMISTRY.
   -- MARTIN HEINRICH KLOPROTH, 1791
 (FIRST PROFESSOR OF CHEMISTRY AT THE UNIVERSITY OF BERLIN)
 Job cpu time:       0 days  0 hours 20 minutes 54.4 seconds.
 Elapsed time:       0 days  0 hours  0 minutes 39.4 seconds.
 File lengths (MBytes):  RWF=     78 Int=      0 D2E=      0 Chk=      9 Scr=      1
 Normal termination of Gaussian 16 at Tue Nov 22 15:03:00 2022.
