 Entering Gaussian System, Link 0=g16
 Input=_conf031.gjf
 Output=_conf031.log
 Initial command:
 /opt/ap/G16/B01/g16/l1.exe "/tmp2/scr/Gau-17510.inp" -scrdir="/tmp2/scr/"
 Entering Link 1 = /opt/ap/G16/B01/g16/l1.exe PID=     17511.
  
 Copyright (c) 1988-2017, Gaussian, Inc.  All Rights Reserved.
  
 This is part of the Gaussian(R) 16 program.  It is based on
 the Gaussian(R) 09 system (copyright 2009, Gaussian, Inc.),
 the Gaussian(R) 03 system (copyright 2003, Gaussian, Inc.),
 the Gaussian(R) 98 system (copyright 1998, Gaussian, Inc.),
 the Gaussian(R) 94 system (copyright 1995, Gaussian, Inc.),
 the Gaussian 92(TM) system (copyright 1992, Gaussian, Inc.),
 the Gaussian 90(TM) system (copyright 1990, Gaussian, Inc.),
 the Gaussian 88(TM) system (copyright 1988, Gaussian, Inc.),
 the Gaussian 86(TM) system (copyright 1986, Carnegie Mellon
 University), and the Gaussian 82(TM) system (copyright 1983,
 Carnegie Mellon University). Gaussian is a federally registered
 trademark of Gaussian, Inc.
  
 This software contains proprietary and confidential information,
 including trade secrets, belonging to Gaussian, Inc.
  
 This software is provided under written license and may be
 used, copied, transmitted, or stored only in accord with that
 written license.
  
 The following legend is applicable only to US Government
 contracts under FAR:
  
                    RESTRICTED RIGHTS LEGEND
  
 Use, reproduction and disclosure by the US Government is
 subject to restrictions as set forth in subparagraphs (a)
 and (c) of the Commercial Computer Software - Restricted
 Rights clause in FAR 52.227-19.
  
 Gaussian, Inc.
 340 Quinnipiac St., Bldg. 40, Wallingford CT 06492
  
  
 ---------------------------------------------------------------
 Warning -- This program may not be used in any manner that
 competes with the business of Gaussian, Inc. or will provide
 assistance to any competitor of Gaussian, Inc.  The licensee
 of this program is prohibited from giving any competitor of
 Gaussian, Inc. access to this program.  By using this program,
 the user acknowledges that Gaussian, Inc. is engaged in the
 business of creating and licensing software in the field of
 computational chemistry and represents and warrants to the
 licensee that it is not a competitor of Gaussian, Inc. and that
 it will not use this program in any manner prohibited above.
 ---------------------------------------------------------------
  

 Cite this work as:
 Gaussian 16, Revision B.01,
 M. J. Frisch, G. W. Trucks, H. B. Schlegel, G. E. Scuseria, 
 M. A. Robb, J. R. Cheeseman, G. Scalmani, V. Barone, 
 G. A. Petersson, H. Nakatsuji, X. Li, M. Caricato, A. V. Marenich, 
 J. Bloino, B. G. Janesko, R. Gomperts, B. Mennucci, H. P. Hratchian, 
 J. V. Ortiz, A. F. Izmaylov, J. L. Sonnenberg, D. Williams-Young, 
 F. Ding, F. Lipparini, F. Egidi, J. Goings, B. Peng, A. Petrone, 
 T. Henderson, D. Ranasinghe, V. G. Zakrzewski, J. Gao, N. Rega, 
 G. Zheng, W. Liang, M. Hada, M. Ehara, K. Toyota, R. Fukuda, 
 J. Hasegawa, M. Ishida, T. Nakajima, Y. Honda, O. Kitao, H. Nakai, 
 T. Vreven, K. Throssell, J. A. Montgomery, Jr., J. E. Peralta, 
 F. Ogliaro, M. J. Bearpark, J. J. Heyd, E. N. Brothers, K. N. Kudin, 
 V. N. Staroverov, T. A. Keith, R. Kobayashi, J. Normand, 
 K. Raghavachari, A. P. Rendell, J. C. Burant, S. S. Iyengar, 
 J. Tomasi, M. Cossi, J. M. Millam, M. Klene, C. Adamo, R. Cammi, 
 J. W. Ochterski, R. L. Martin, K. Morokuma, O. Farkas, 
 J. B. Foresman, and D. J. Fox, Gaussian, Inc., Wallingford CT, 2016.
 
 ******************************************
 Gaussian 16:  ES64L-G16RevB.01 20-Dec-2017
                22-Nov-2022 
 ******************************************
 %nprocshared=32
 Will use up to   32 processors via shared memory.
 %mem=120GB
 %chk=_conf031.chk
 ----------------------------------------
 #P wB97XD/6-311++G(d,p) scf=maxcycle=512
 ----------------------------------------
 1/38=1,172=1/1;
 2/12=2,17=6,18=5,40=1/2;
 3/5=4,6=6,7=1111,11=2,25=1,30=1,74=-58/1,2,3;
 4//1;
 5/5=2,7=512,38=5/2;
 6/7=2,8=2,9=2,10=2,28=1/1;
 99/5=1,9=1/99;
 Leave Link    1 at Tue Nov 22 15:02:59 2022, MaxMem= 16106127360 cpu:               1.3 elap:               0.0
 (Enter /opt/ap/G16/B01/g16/l101.exe)
 ----------------------------
 _conf031.gjf nmol_natom 1_24
 ----------------------------
 Symbolic Z-matrix:
 Charge =  0 Multiplicity = 1
 C
 C                    1     1.39746 
 C                    1     1.39996  2     119.28067 
 C                    2     1.39288  1     120.37437  3    -0.51003  0
 H                    2     0.95015  1     119.82324  3     179.45635  0
 C                    1     1.49653  2     122.77761  4     174.46829  0
 C                    3     1.38701  1     120.10018  2    -0.37316  0
 H                    3     0.95011  1     119.95246  2     179.59239  0
 C                    7     1.3872   3     120.16569  1     1.07451  0
 H                    4     0.95012  2     120.18756  1    -179.31195  0
 C                    6     1.49517  1     120.70973  2     65.      0
 O                    6     1.2215   1     119.67074  2    -115.     0
 H                    7     0.94957  3     119.91275  1    -178.88636  0
 H                    9     0.94992  7     119.76038  3     179.10764  0
 C                    11    1.39714  6     122.62586  1     30.97749  0
 C                    11    1.4004   6     117.74754  1    -153.15468  0
 C                    15    1.39456  11    119.80747  6     175.4763  0
 H                    15    0.94963  11    120.10536  6    -4.50802  0
 C                    16    1.38466  11    120.46174  6    -176.88197  0
 H                    16    0.94975  11    119.75779  6     3.147    0
 C                    17    1.39089  15    120.34753  11    0.79736  0
 H                    17    0.94984  15    119.81565  11   -179.16676  0
 H                    19    0.94975  16    119.98566  11   -178.40987  0
 H                    21    0.94939  17    120.07445  15    179.91636  0
 
 ITRead=  0  0  0  0  0  0  0  0  0  0  0  0  0  0  0  0  0  0  0  0
 ITRead=  0  0  0  0
 MicOpt= -1 -1 -1 -1 -1 -1 -1 -1 -1 -1 -1 -1 -1 -1 -1 -1 -1 -1 -1 -1
 MicOpt= -1 -1 -1 -1
 NAtoms=     24 NQM=       24 NQMF=       0 NMMI=      0 NMMIF=      0
                NMic=       0 NMicF=      0.
                    Isotopes and Nuclear Properties:
 (Nuclear quadrupole moments (NQMom) in fm**2, nuclear magnetic moments (NMagM)
  in nuclear magnetons)

  Atom         1           2           3           4           5           6           7           8           9          10
 IAtWgt=          12          12          12          12           1          12          12           1          12           1
 AtmWgt=  12.0000000  12.0000000  12.0000000  12.0000000   1.0078250  12.0000000  12.0000000   1.0078250  12.0000000   1.0078250
 NucSpn=           0           0           0           0           1           0           0           1           0           1
 AtZEff=  -0.0000000  -0.0000000  -0.0000000  -0.0000000  -0.0000000  -0.0000000  -0.0000000  -0.0000000  -0.0000000  -0.0000000
 NQMom=    0.0000000   0.0000000   0.0000000   0.0000000   0.0000000   0.0000000   0.0000000   0.0000000   0.0000000   0.0000000
 NMagM=    0.0000000   0.0000000   0.0000000   0.0000000   2.7928460   0.0000000   0.0000000   2.7928460   0.0000000   2.7928460
 AtZNuc=   6.0000000   6.0000000   6.0000000   6.0000000   1.0000000   6.0000000   6.0000000   1.0000000   6.0000000   1.0000000

  Atom        11          12          13          14          15          16          17          18          19          20
 IAtWgt=          12          16           1           1          12          12          12           1          12           1
 AtmWgt=  12.0000000  15.9949146   1.0078250   1.0078250  12.0000000  12.0000000  12.0000000   1.0078250  12.0000000   1.0078250
 NucSpn=           0           0           1           1           0           0           0           1           0           1
 AtZEff=  -0.0000000  -0.0000000  -0.0000000  -0.0000000  -0.0000000  -0.0000000  -0.0000000  -0.0000000  -0.0000000  -0.0000000
 NQMom=    0.0000000   0.0000000   0.0000000   0.0000000   0.0000000   0.0000000   0.0000000   0.0000000   0.0000000   0.0000000
 NMagM=    0.0000000   0.0000000   2.7928460   2.7928460   0.0000000   0.0000000   0.0000000   2.7928460   0.0000000   2.7928460
 AtZNuc=   6.0000000   8.0000000   1.0000000   1.0000000   6.0000000   6.0000000   6.0000000   1.0000000   6.0000000   1.0000000

  Atom        21          22          23          24
 IAtWgt=          12           1           1           1
 AtmWgt=  12.0000000   1.0078250   1.0078250   1.0078250
 NucSpn=           0           1           1           1
 AtZEff=  -0.0000000  -0.0000000  -0.0000000  -0.0000000
 NQMom=    0.0000000   0.0000000   0.0000000   0.0000000
 NMagM=    0.0000000   2.7928460   2.7928460   2.7928460
 AtZNuc=   6.0000000   1.0000000   1.0000000   1.0000000
 Leave Link  101 at Tue Nov 22 15:02:59 2022, MaxMem= 16106127360 cpu:               5.3 elap:               0.2
 (Enter /opt/ap/G16/B01/g16/l202.exe)
                          Input orientation:                          
 ---------------------------------------------------------------------
 Center     Atomic      Atomic             Coordinates (Angstroms)
 Number     Number       Type             X           Y           Z
 ---------------------------------------------------------------------
      1          6           0        0.000000    0.000000    0.000000
      2          6           0        0.000000    0.000000    1.397463
      3          6           0        1.221096    0.000000   -0.684705
      4          6           0        1.201650   -0.010697    2.101772
      5          1           0       -0.824276    0.007821    1.869996
      6          6           0       -1.253421   -0.110138   -0.810191
      7          6           0        2.414707    0.007815    0.021719
      8          1           0        1.232246   -0.005856   -1.634731
      9          6           0        2.403895   -0.006831    1.408800
     10          1           0        1.198494   -0.020531    3.051836
     11          6           0       -2.287915    0.968504   -0.766798
     12          8           0       -1.433757   -1.091594   -1.514668
     13          1           0        3.241298    0.023792   -0.445367
     14          1           0        3.224827   -0.014217    1.886678
     15          6           0       -1.967305    2.311573   -0.553788
     16          6           0       -3.614642    0.610702   -1.036763
     17          6           0       -2.967121    3.281615   -0.618395
     18          1           0       -1.071169    2.563335   -0.365770
     19          6           0       -4.607771    1.574813   -1.075247
     20          1           0       -3.834662   -0.299707   -1.194128
     21          6           0       -4.284193    2.917144   -0.877347
     22          1           0       -2.747264    4.196034   -0.485341
     23          1           0       -5.508885    1.321859   -1.236583
     24          1           0       -4.961971    3.580613   -0.919300
 ---------------------------------------------------------------------
                    Distance matrix (angstroms):
                    1          2          3          4          5
     1  C    0.000000
     2  C    1.397463   0.000000
     3  C    1.399963   2.413814   0.000000
     4  C    2.421058   1.392885   2.786566   0.000000
     5  H    2.043619   0.950147   3.272630   2.039225   0.000000
     6  C    1.496530   2.541049   2.480142   3.810091   2.716889
     7  C    2.414817   2.779127   1.387013   2.408002   3.729228
     8  H    2.047146   3.273021   0.950109   3.736632   4.063567
     9  C    2.786301   2.403931   2.404542   1.387667   3.260982
    10  H    3.278797   2.042977   3.736665   0.950119   2.342893
    11  C    2.600103   3.294933   3.641139   4.622185   3.165096
    12  O    2.354029   3.424579   2.988086   4.603514   3.610558
    13  H    3.271839   3.728619   2.034469   3.263323   4.678681
    14  H    3.736210   3.261755   3.259932   2.034583   4.049198
    15  C    3.085505   3.608468   3.940356   4.742068   3.533909
    16  C    3.809655   4.400461   4.886846   5.782146   4.074170
    17  C    4.467127   4.861738   5.321142   5.968022   4.636982
    18  H    2.802120   3.290453   3.453532   4.228488   3.404446
    19  C    4.986757   5.461308   6.050475   6.808573   5.044279
    20  H    4.027455   4.637974   5.090188   6.025854   4.306490
    21  C    5.256784   5.660283   6.233381   6.895062   5.289904
    22  H    5.038821   5.357155   5.778782   6.323263   5.175579
    23  H    5.798643   6.247665   6.880735   7.612594   5.772615
    24  H    6.187654   6.542885   7.148856   7.746909   6.137225
                    6          7          8          9         10
     6  C    0.000000
     7  C    3.763130   0.000000
     8  H    2.620930   2.035246   0.000000
     9  C    4.279082   1.387200   3.261263   0.000000
    10  H    4.575496   3.265208   4.686711   2.037829   0.000000
    11  C    1.495169   4.864086   3.754226   5.262849   5.264523
    12  O    1.221501   4.287174   2.881113   4.944789   5.378557
    13  H    4.511488   0.949567   2.334899   2.034727   4.050363
    14  H    5.228480   2.033434   4.046081   0.949923   2.337447
    15  C    2.537727   4.984028   4.095856   5.322981   5.334933
    16  C    2.479176   6.151171   4.922401   6.525711   6.346761
    17  C    3.804937   6.331792   5.429097   6.615981   6.459653
    18  H    2.716281   4.339603   3.676510   4.672356   4.848480
    19  C    3.763108   7.278325   6.075964   7.604968   7.300044
    20  H    2.616515   6.373967   5.094510   6.766136   6.590812
    21  C    4.284219   7.358517   6.288772   7.648962   7.357192
    22  H    4.569487   6.666650   5.900294   6.912761   6.772004
    23  H    4.510144   8.129781   6.882164   8.448405   8.073504
    24  H    5.233249   8.250199   7.193255   8.517381   8.166363
                   11         12         13         14         15
    11  C    0.000000
    12  O    2.352211   0.000000
    13  H    5.618540   4.923782   0.000000
    14  H    6.196531   5.867904   2.332413   0.000000
    15  C    1.397140   3.576242   5.689924   6.190590   0.000000
    16  C    1.400396   2.807573   6.906383   7.464273   2.416598
    17  C    2.415332   4.720113   7.013403   7.448364   1.394557
    18  H    2.045674   3.848369   5.005295   5.492984   0.949629
    19  C    2.417537   4.168594   8.025603   8.523357   2.790484
    20  H    2.045335   2.548367   7.122815   7.707740   3.273506
    21  C    2.791872   4.959954   8.074101   8.521626   2.416481
    22  H    3.272181   5.544711   7.298772   7.682353   2.040640
    23  H    3.274172   4.744339   8.881255   9.371104   3.740125
    24  H    3.741249   5.884919   8.953726   9.371232   3.272933
                   16         17         18         19         20
    16  C    0.000000
    17  C    2.779944   0.000000
    18  H    3.276013   2.043131   0.000000
    19  C    1.384664   2.411145   3.740066   0.000000
    20  H    0.949746   3.729607   4.064490   2.031171   0.000000
    21  C    2.406945   1.390889   3.272678   1.394891   3.263520
    22  H    3.729747   0.949843   2.342925   3.268069   4.679370
    23  H    2.033181   3.268541   4.689659   0.949747   2.331159
    24  H    3.263351   2.039453   4.059507   2.042795   4.050092
                   21         22         23         24
    21  C    0.000000
    22  H    2.037493   0.000000
    23  H    2.043001   4.056081   0.000000
    24  H    0.949386   2.339229   2.345581   0.000000
 Stoichiometry    C13H10O
 Framework group  C1[X(C13H10O)]
 Deg. of freedom    66
 Full point group                 C1      NOp   1
 Largest Abelian subgroup         C1      NOp   1
 Largest concise Abelian subgroup C1      NOp   1
                         Standard orientation:                         
 ---------------------------------------------------------------------
 Center     Atomic      Atomic             Coordinates (Angstroms)
 Number     Number       Type             X           Y           Z
 ---------------------------------------------------------------------
      1          6           0       -1.288672    0.342083    0.041853
      2          6           0       -1.690465   -0.430709    1.134674
      3          6           0       -2.181186    0.546790   -1.017113
      4          6           0       -2.968722   -0.982570    1.175099
      5          1           0       -1.088237   -0.581029    1.854053
      6          6           0        0.024107    1.059067   -0.004511
      7          6           0       -3.446430   -0.020292   -0.979963
      8          1           0       -1.920027    1.075371   -1.762167
      9          6           0       -3.840695   -0.773780    0.116001
     10          1           0       -3.242493   -1.499429    1.923854
     11          6           0        1.310417    0.296947   -0.015025
     12          8           0        0.045525    2.280021   -0.034095
     13          1           0       -4.043996    0.107150   -1.706840
     14          1           0       -4.713047   -1.148915    0.141084
     15          6           0        1.431174   -0.969064   -0.593500
     16          6           0        2.446966    0.928941    0.504539
     17          6           0        2.679754   -1.587248   -0.654208
     18          1           0        0.665377   -1.407358   -0.944567
     19          6           0        3.680002    0.300227    0.464076
     20          1           0        2.371242    1.794674    0.887671
     21          6           0        3.802199   -0.957245   -0.127154
     22          1           0        2.764009   -2.442805   -1.058095
     23          1           0        4.442153    0.725454    0.838682
     24          1           0        4.650131   -1.382156   -0.169524
 ---------------------------------------------------------------------
 Rotational constants (GHZ):           1.7161434           0.3967107           0.3630524
 Leave Link  202 at Tue Nov 22 15:02:59 2022, MaxMem= 16106127360 cpu:               0.4 elap:               0.0
 (Enter /opt/ap/G16/B01/g16/l301.exe)
 Standard basis: 6-311++G(d,p) (5D, 7F)
 Ernie: Thresh=  0.10000D-02 Tol=  0.10000D-05 Strict=F.
 There are   392 symmetry adapted cartesian basis functions of A   symmetry.
 There are   378 symmetry adapted basis functions of A   symmetry.
   378 basis functions,   594 primitive gaussians,   392 cartesian basis functions
    48 alpha electrons       48 beta electrons
       nuclear repulsion energy       780.9150415371 Hartrees.
 IExCor= 4639 DFT=T Ex+Corr=wB97XD ExCW=0 ScaHFX=  1.000000
 ScaDFX=  1.000000  1.000000  1.000000  1.000000 ScalE2=  1.000000  1.000000
 IRadAn=      5 IRanWt=     -1 IRanGd=            0 ICorTp=0 IEmpDi=121
 HFx  wShort=  0.000000 wLong=  0.200000 cFull=  0.222036 cShort=  0.000000 cLong=  0.777964
 DFx  wShort=  0.000000 wLong=  0.200000 cFull=  0.000000 cShort=  0.000000 cLong=  1.000000
 NAtoms=   24 NActive=   24 NUniq=   24 SFac= 1.00D+00 NAtFMM=   60 NAOKFM=F Big=F
 Integral buffers will be    131072 words long.
 Raffenetti 2 integral format.
 Two-electron integral symmetry is turned on.
 R6Disp:  Grimme-D2 Dispersion energy=       -0.0138741501 Hartrees.
 Nuclear repulsion after empirical dispersion term =      780.9011673871 Hartrees.
 Leave Link  301 at Tue Nov 22 15:02:59 2022, MaxMem= 16106127360 cpu:               1.2 elap:               0.0
 (Enter /opt/ap/G16/B01/g16/l302.exe)
 NPDir=0 NMtPBC=     1 NCelOv=     1 NCel=       1 NClECP=     1 NCelD=      1
         NCelK=      1 NCelE2=     1 NClLst=     1 CellRange=     0.0.
 One-electron integrals computed using PRISM.
 One-electron integral symmetry used in STVInt
 NBasis=   378 RedAO= T EigKep=  1.50D-06  NBF=   378
 NBsUse=   376 1.00D-06 EigRej=  8.14D-07 NBFU=   376
 Precomputing XC quadrature grid using
 IXCGrd= 4 IRadAn=           5 IRanWt=          -1 IRanGd=           0 AccXCQ= 0.00D+00.
 Generated NRdTot=       0 NPtTot=           0 NUsed=           0 NTot=          32
 NSgBfM=   392   392   392   392   392 MxSgAt=    24 MxSgA2=    24.
 Leave Link  302 at Tue Nov 22 15:03:00 2022, MaxMem= 16106127360 cpu:               8.4 elap:               0.3
 (Enter /opt/ap/G16/B01/g16/l303.exe)
 DipDrv:  MaxL=1.
 Leave Link  303 at Tue Nov 22 15:03:00 2022, MaxMem= 16106127360 cpu:               4.0 elap:               0.1
 (Enter /opt/ap/G16/B01/g16/l401.exe)
 ExpMin= 3.60D-02 ExpMax= 8.59D+03 ExpMxC= 1.30D+03 IAcc=3 IRadAn=         5 AccDes= 0.00D+00
 Harris functional with IExCor= 4639 and IRadAn=       5 diagonalized for initial guess.
 HarFok:  IExCor= 4639 AccDes= 0.00D+00 IRadAn=         5 IDoV= 1 UseB2=F ITyADJ=14
 ICtDFT=  3500011 ScaDFX=  1.000000  1.000000  1.000000  1.000000
 FoFCou: FMM=F IPFlag=           0 FMFlag=      100000 FMFlg1=           0
         NFxFlg=           0 DoJE=T BraDBF=F KetDBF=T FulRan=T
         wScrn=  0.000000 ICntrl=       500 IOpCl=  0 I1Cent=   200000004 NGrid=           0
         NMat0=    1 NMatS0=      1 NMatT0=    0 NMatD0=    1 NMtDS0=    0 NMtDT0=    0
 Petite list used in FoFCou.
 Harris En= -550.905041070632    
 JPrj=0 DoOrth=F DoCkMO=F.
 Leave Link  401 at Tue Nov 22 15:03:00 2022, MaxMem= 16106127360 cpu:              23.6 elap:               0.8
 (Enter /opt/ap/G16/B01/g16/l502.exe)
 Integral symmetry usage will be decided dynamically.
 Closed shell SCF:
 Using DIIS extrapolation, IDIIS=  1040.
 NGot= 16106127360 LenX= 16105803762 LenY= 16105649657
 Requested convergence on RMS density matrix=1.00D-08 within 512 cycles.
 Requested convergence on MAX density matrix=1.00D-06.
 Requested convergence on             energy=1.00D-06.
 No special actions if energy rises.
 Fock matrices will be formed incrementally for  20 cycles.

 Cycle   1  Pass 1  IDiag  1:
 FoFJK:  IHMeth= 1 ICntrl=       0 DoSepK=T KAlg= 0 I1Cent=           0 FoldK=F
 IRaf=         1 NMat=       1 IRICut=       1 DoRegI=T DoRafI=F ISym2E= 0 IDoP0=0 IntGTp=1.
 FoFCou: FMM=F IPFlag=           0 FMFlag=      100000 FMFlg1=           0
         NFxFlg=           0 DoJE=T BraDBF=F KetDBF=F FulRan=T
         wScrn=  0.000000 ICntrl=       500 IOpCl=  0 I1Cent=           0 NGrid=           0
         NMat0=    1 NMatS0=      1 NMatT0=    0 NMatD0=    1 NMtDS0=    0 NMtDT0=    0
 Symmetry not used in FoFCou.
 E= -576.258201431886    
 DIIS: error= 5.56D-02 at cycle   1 NSaved=   1.
 NSaved= 1 IEnMin= 1 EnMin= -576.258201431886     IErMin= 1 ErrMin= 5.56D-02
 ErrMax= 5.56D-02  0.00D+00 EMaxC= 1.00D-01 BMatC= 1.20D+00 BMatP= 1.20D+00
 IDIUse=3 WtCom= 4.44D-01 WtEn= 5.56D-01
 Coeff-Com:  0.100D+01
 Coeff-En:   0.100D+01
 Coeff:      0.100D+01
 Gap=     0.414 Goal=   None    Shift=    0.000
 GapD=    0.414 DampG=2.000 DampE=0.500 DampFc=1.0000 IDamp=-1.
 RMSDP=2.90D-02 MaxDP=2.37D+00              OVMax= 1.17D-01

 Cycle   2  Pass 1  IDiag  1:
 RMSU=  1.66D-02    CP:  6.55D-01
 E= -576.347513980180     Delta-E=       -0.089312548293 Rises=F Damp=F
 DIIS: error= 1.45D-02 at cycle   2 NSaved=   2.
 NSaved= 2 IEnMin= 2 EnMin= -576.347513980180     IErMin= 2 ErrMin= 1.45D-02
 ErrMax= 1.45D-02  0.00D+00 EMaxC= 1.00D-01 BMatC= 7.79D-02 BMatP= 1.20D+00
 IDIUse=3 WtCom= 8.55D-01 WtEn= 1.45D-01
 Coeff-Com:  0.128D+00 0.872D+00
 Coeff-En:   0.157D+00 0.843D+00
 Coeff:      0.133D+00 0.867D+00
 Gap=     0.437 Goal=   None    Shift=    0.000
 RMSDP=1.01D-02 MaxDP=9.20D-01 DE=-8.93D-02 OVMax= 1.51D-01

 Cycle   3  Pass 1  IDiag  1:
 RMSU=  8.37D-03    CP:  6.54D-01  6.58D-01
 E= -576.366406365889     Delta-E=       -0.018892385709 Rises=F Damp=F
 DIIS: error= 1.43D-02 at cycle   3 NSaved=   3.
 NSaved= 3 IEnMin= 3 EnMin= -576.366406365889     IErMin= 3 ErrMin= 1.43D-02
 ErrMax= 1.43D-02  0.00D+00 EMaxC= 1.00D-01 BMatC= 5.52D-02 BMatP= 7.79D-02
 IDIUse=3 WtCom= 8.57D-01 WtEn= 1.43D-01
 Coeff-Com:  0.239D-01 0.460D+00 0.516D+00
 Coeff-En:   0.000D+00 0.422D+00 0.578D+00
 Coeff:      0.205D-01 0.455D+00 0.525D+00
 Gap=     0.359 Goal=   None    Shift=    0.000
 RMSDP=5.97D-03 MaxDP=4.76D-01 DE=-1.89D-02 OVMax= 6.87D-02

 Cycle   4  Pass 1  IDiag  1:
 RMSU=  1.63D-03    CP:  6.03D-01  8.22D-01  5.71D-01
 E= -576.415002164277     Delta-E=       -0.048595798388 Rises=F Damp=F
 DIIS: error= 2.01D-03 at cycle   4 NSaved=   4.
 NSaved= 4 IEnMin= 4 EnMin= -576.415002164277     IErMin= 4 ErrMin= 2.01D-03
 ErrMax= 2.01D-03  0.00D+00 EMaxC= 1.00D-01 BMatC= 9.34D-04 BMatP= 5.52D-02
 IDIUse=3 WtCom= 9.80D-01 WtEn= 2.01D-02
 Coeff-Com:  0.944D-02 0.195D+00 0.244D+00 0.552D+00
 Coeff-En:   0.000D+00 0.000D+00 0.000D+00 0.100D+01
 Coeff:      0.926D-02 0.191D+00 0.239D+00 0.561D+00
 Gap=     0.328 Goal=   None    Shift=    0.000
 RMSDP=7.13D-04 MaxDP=5.33D-02 DE=-4.86D-02 OVMax= 6.85D-03

 Cycle   5  Pass 1  IDiag  1:
 RMSU=  4.44D-04    CP:  6.03D-01  8.56D-01  5.66D-01  1.01D+00
 E= -576.415650056848     Delta-E=       -0.000647892572 Rises=F Damp=F
 DIIS: error= 5.79D-04 at cycle   5 NSaved=   5.
 NSaved= 5 IEnMin= 5 EnMin= -576.415650056848     IErMin= 5 ErrMin= 5.79D-04
 ErrMax= 5.79D-04  0.00D+00 EMaxC= 1.00D-01 BMatC= 8.69D-05 BMatP= 9.34D-04
 IDIUse=3 WtCom= 9.94D-01 WtEn= 5.79D-03
 Coeff-Com: -0.524D-03-0.687D-02 0.201D-02 0.223D+00 0.783D+00
 Coeff-En:   0.000D+00 0.000D+00 0.000D+00 0.000D+00 0.100D+01
 Coeff:     -0.521D-03-0.683D-02 0.200D-02 0.222D+00 0.784D+00
 Gap=     0.329 Goal=   None    Shift=    0.000
 RMSDP=4.23D-04 MaxDP=4.26D-02 DE=-6.48D-04 OVMax= 2.97D-03

 Cycle   6  Pass 1  IDiag  1:
 RMSU=  2.56D-04    CP:  5.99D-01  8.57D-01  5.90D-01  1.06D+00  6.97D-01
 E= -576.415716772907     Delta-E=       -0.000066716059 Rises=F Damp=F
 DIIS: error= 2.50D-04 at cycle   6 NSaved=   6.
 NSaved= 6 IEnMin= 6 EnMin= -576.415716772907     IErMin= 6 ErrMin= 2.50D-04
 ErrMax= 2.50D-04  0.00D+00 EMaxC= 1.00D-01 BMatC= 1.94D-05 BMatP= 8.69D-05
 IDIUse=3 WtCom= 9.98D-01 WtEn= 2.50D-03
 Coeff-Com: -0.123D-02-0.230D-01-0.226D-01 0.648D-01 0.426D+00 0.556D+00
 Coeff-En:   0.000D+00 0.000D+00 0.000D+00 0.000D+00 0.000D+00 0.100D+01
 Coeff:     -0.123D-02-0.230D-01-0.226D-01 0.646D-01 0.425D+00 0.557D+00
 Gap=     0.329 Goal=   None    Shift=    0.000
 RMSDP=9.41D-05 MaxDP=5.18D-03 DE=-6.67D-05 OVMax= 1.38D-03

 Cycle   7  Pass 1  IDiag  1:
 RMSU=  8.24D-05    CP:  6.00D-01  8.57D-01  5.87D-01  1.07D+00  7.44D-01
                    CP:  1.02D+00
 E= -576.415736964486     Delta-E=       -0.000020191579 Rises=F Damp=F
 DIIS: error= 5.65D-05 at cycle   7 NSaved=   7.
 NSaved= 7 IEnMin= 7 EnMin= -576.415736964486     IErMin= 7 ErrMin= 5.65D-05
 ErrMax= 5.65D-05  0.00D+00 EMaxC= 1.00D-01 BMatC= 5.22D-07 BMatP= 1.94D-05
 IDIUse=1 WtCom= 1.00D+00 WtEn= 0.00D+00
 Coeff-Com: -0.237D-03-0.456D-02-0.542D-02-0.968D-02-0.736D-02 0.108D+00
 Coeff-Com:  0.920D+00
 Coeff:     -0.237D-03-0.456D-02-0.542D-02-0.968D-02-0.736D-02 0.108D+00
 Coeff:      0.920D+00
 Gap=     0.330 Goal=   None    Shift=    0.000
 RMSDP=4.44D-05 MaxDP=3.69D-03 DE=-2.02D-05 OVMax= 6.49D-04

 Cycle   8  Pass 1  IDiag  1:
 RMSU=  2.06D-05    CP:  5.99D-01  8.57D-01  5.89D-01  1.08D+00  7.33D-01
                    CP:  1.13D+00  1.08D+00
 E= -576.415738319011     Delta-E=       -0.000001354525 Rises=F Damp=F
 DIIS: error= 2.05D-05 at cycle   8 NSaved=   8.
 NSaved= 8 IEnMin= 8 EnMin= -576.415738319011     IErMin= 8 ErrMin= 2.05D-05
 ErrMax= 2.05D-05  0.00D+00 EMaxC= 1.00D-01 BMatC= 9.17D-08 BMatP= 5.22D-07
 IDIUse=1 WtCom= 1.00D+00 WtEn= 0.00D+00
 Coeff-Com:  0.554D-04 0.827D-03 0.370D-03-0.123D-01-0.586D-01-0.290D-01
 Coeff-Com:  0.310D+00 0.789D+00
 Coeff:      0.554D-04 0.827D-03 0.370D-03-0.123D-01-0.586D-01-0.290D-01
 Coeff:      0.310D+00 0.789D+00
 Gap=     0.330 Goal=   None    Shift=    0.000
 RMSDP=1.54D-05 MaxDP=9.36D-04 DE=-1.35D-06 OVMax= 2.60D-04

 Cycle   9  Pass 1  IDiag  1:
 RMSU=  6.38D-06    CP:  5.99D-01  8.58D-01  5.89D-01  1.09D+00  7.32D-01
                    CP:  1.18D+00  1.11D+00  1.17D+00
 E= -576.415738527520     Delta-E=       -0.000000208508 Rises=F Damp=F
 DIIS: error= 5.43D-06 at cycle   9 NSaved=   9.
 NSaved= 9 IEnMin= 9 EnMin= -576.415738527520     IErMin= 9 ErrMin= 5.43D-06
 ErrMax= 5.43D-06  0.00D+00 EMaxC= 1.00D-01 BMatC= 8.00D-09 BMatP= 9.17D-08
 IDIUse=1 WtCom= 1.00D+00 WtEn= 0.00D+00
 Coeff-Com:  0.431D-04 0.768D-03 0.783D-03-0.592D-03-0.950D-02-0.181D-01
 Coeff-Com: -0.709D-01 0.146D+00 0.951D+00
 Coeff:      0.431D-04 0.768D-03 0.783D-03-0.592D-03-0.950D-02-0.181D-01
 Coeff:     -0.709D-01 0.146D+00 0.951D+00
 Gap=     0.330 Goal=   None    Shift=    0.000
 RMSDP=5.49D-06 MaxDP=4.23D-04 DE=-2.09D-07 OVMax= 1.32D-04

 Cycle  10  Pass 1  IDiag  1:
 RMSU=  1.82D-06    CP:  5.99D-01  8.58D-01  5.89D-01  1.09D+00  7.28D-01
                    CP:  1.19D+00  1.11D+00  1.32D+00  1.43D+00
 E= -576.415738556287     Delta-E=       -0.000000028767 Rises=F Damp=F
 DIIS: error= 2.06D-06 at cycle  10 NSaved=  10.
 NSaved=10 IEnMin=10 EnMin= -576.415738556287     IErMin=10 ErrMin= 2.06D-06
 ErrMax= 2.06D-06  0.00D+00 EMaxC= 1.00D-01 BMatC= 8.78D-10 BMatP= 8.00D-09
 IDIUse=1 WtCom= 1.00D+00 WtEn= 0.00D+00
 Coeff-Com: -0.358D-05-0.291D-04 0.146D-04 0.157D-02 0.581D-02 0.272D-02
 Coeff-Com: -0.348D-01-0.762D-01 0.701D-01 0.103D+01
 Coeff:     -0.358D-05-0.291D-04 0.146D-04 0.157D-02 0.581D-02 0.272D-02
 Coeff:     -0.348D-01-0.762D-01 0.701D-01 0.103D+01
 Gap=     0.330 Goal=   None    Shift=    0.000
 RMSDP=2.22D-06 MaxDP=1.44D-04 DE=-2.88D-08 OVMax= 5.18D-05

 Cycle  11  Pass 1  IDiag  1:
 RMSU=  1.00D-06    CP:  5.99D-01  8.58D-01  5.89D-01  1.09D+00  7.28D-01
                    CP:  1.18D+00  1.10D+00  1.36D+00  1.53D+00  1.08D+00
 E= -576.415738560616     Delta-E=       -0.000000004329 Rises=F Damp=F
 DIIS: error= 9.99D-07 at cycle  11 NSaved=  11.
 NSaved=11 IEnMin=11 EnMin= -576.415738560616     IErMin=11 ErrMin= 9.99D-07
 ErrMax= 9.99D-07  0.00D+00 EMaxC= 1.00D-01 BMatC= 1.77D-10 BMatP= 8.78D-10
 IDIUse=1 WtCom= 1.00D+00 WtEn= 0.00D+00
 Coeff-Com: -0.458D-05-0.727D-04-0.651D-04 0.416D-03 0.199D-02 0.208D-02
 Coeff-Com:  0.410D-04-0.322D-01-0.938D-01 0.218D+00 0.904D+00
 Coeff:     -0.458D-05-0.727D-04-0.651D-04 0.416D-03 0.199D-02 0.208D-02
 Coeff:      0.410D-04-0.322D-01-0.938D-01 0.218D+00 0.904D+00
 Gap=     0.330 Goal=   None    Shift=    0.000
 RMSDP=8.03D-07 MaxDP=6.96D-05 DE=-4.33D-09 OVMax= 2.23D-05

 Cycle  12  Pass 1  IDiag  1:
 RMSU=  3.67D-07    CP:  5.99D-01  8.58D-01  5.89D-01  1.09D+00  7.29D-01
                    CP:  1.18D+00  1.10D+00  1.35D+00  1.58D+00  1.15D+00
                    CP:  1.30D+00
 E= -576.415738561451     Delta-E=       -0.000000000835 Rises=F Damp=F
 DIIS: error= 5.41D-07 at cycle  12 NSaved=  12.
 NSaved=12 IEnMin=12 EnMin= -576.415738561451     IErMin=12 ErrMin= 5.41D-07
 ErrMax= 5.41D-07  0.00D+00 EMaxC= 1.00D-01 BMatC= 4.01D-11 BMatP= 1.77D-10
 IDIUse=1 WtCom= 1.00D+00 WtEn= 0.00D+00
 Coeff-Com:  0.170D-07-0.884D-05-0.171D-04-0.313D-03-0.108D-02-0.347D-03
 Coeff-Com:  0.923D-02 0.136D-01-0.385D-01-0.212D+00 0.198D+00 0.103D+01
 Coeff:      0.170D-07-0.884D-05-0.171D-04-0.313D-03-0.108D-02-0.347D-03
 Coeff:      0.923D-02 0.136D-01-0.385D-01-0.212D+00 0.198D+00 0.103D+01
 Gap=     0.330 Goal=   None    Shift=    0.000
 RMSDP=3.88D-07 MaxDP=2.43D-05 DE=-8.35D-10 OVMax= 1.30D-05

 Cycle  13  Pass 1  IDiag  1:
 RMSU=  1.47D-07    CP:  5.99D-01  8.58D-01  5.89D-01  1.09D+00  7.29D-01
                    CP:  1.18D+00  1.10D+00  1.34D+00  1.58D+00  1.15D+00
                    CP:  1.50D+00  1.55D+00
 E= -576.415738561671     Delta-E=       -0.000000000221 Rises=F Damp=F
 DIIS: error= 1.73D-07 at cycle  13 NSaved=  13.
 NSaved=13 IEnMin=13 EnMin= -576.415738561671     IErMin=13 ErrMin= 1.73D-07
 ErrMax= 1.73D-07  0.00D+00 EMaxC= 1.00D-01 BMatC= 7.86D-12 BMatP= 4.01D-11
 IDIUse=1 WtCom= 1.00D+00 WtEn= 0.00D+00
 Coeff-Com:  0.715D-06 0.776D-05 0.493D-05-0.188D-03-0.683D-03-0.486D-03
 Coeff-Com:  0.307D-02 0.992D-02 0.160D-02-0.107D+00-0.697D-01 0.347D+00
 Coeff-Com:  0.816D+00
 Coeff:      0.715D-06 0.776D-05 0.493D-05-0.188D-03-0.683D-03-0.486D-03
 Coeff:      0.307D-02 0.992D-02 0.160D-02-0.107D+00-0.697D-01 0.347D+00
 Coeff:      0.816D+00
 Gap=     0.330 Goal=   None    Shift=    0.000
 RMSDP=1.67D-07 MaxDP=1.03D-05 DE=-2.21D-10 OVMax= 4.38D-06

 Cycle  14  Pass 1  IDiag  1:
 RMSU=  6.39D-08    CP:  5.99D-01  8.58D-01  5.89D-01  1.09D+00  7.29D-01
                    CP:  1.18D+00  1.10D+00  1.34D+00  1.57D+00  1.13D+00
                    CP:  1.56D+00  1.74D+00  1.26D+00
 E= -576.415738561710     Delta-E=       -0.000000000039 Rises=F Damp=F
 DIIS: error= 6.02D-08 at cycle  14 NSaved=  14.
 NSaved=14 IEnMin=14 EnMin= -576.415738561710     IErMin=14 ErrMin= 6.02D-08
 ErrMax= 6.02D-08  0.00D+00 EMaxC= 1.00D-01 BMatC= 1.07D-12 BMatP= 7.86D-12
 IDIUse=1 WtCom= 1.00D+00 WtEn= 0.00D+00
 Coeff-Com:  0.139D-06 0.327D-05 0.496D-05 0.124D-05 0.325D-04-0.576D-04
 Coeff-Com: -0.819D-03-0.567D-04 0.605D-02 0.101D-01-0.436D-01-0.102D+00
 Coeff-Com:  0.167D+00 0.964D+00
 Coeff:      0.139D-06 0.327D-05 0.496D-05 0.124D-05 0.325D-04-0.576D-04
 Coeff:     -0.819D-03-0.567D-04 0.605D-02 0.101D-01-0.436D-01-0.102D+00
 Coeff:      0.167D+00 0.964D+00
 Gap=     0.330 Goal=   None    Shift=    0.000
 RMSDP=6.98D-08 MaxDP=5.38D-06 DE=-3.87D-11 OVMax= 1.86D-06

 Cycle  15  Pass 1  IDiag  1:
 RMSU=  1.65D-08    CP:  5.99D-01  8.58D-01  5.89D-01  1.09D+00  7.29D-01
                    CP:  1.18D+00  1.10D+00  1.34D+00  1.57D+00  1.13D+00
                    CP:  1.57D+00  1.81D+00  1.46D+00  1.13D+00
 E= -576.415738561722     Delta-E=       -0.000000000012 Rises=F Damp=F
 DIIS: error= 1.90D-08 at cycle  15 NSaved=  15.
 NSaved=15 IEnMin=15 EnMin= -576.415738561722     IErMin=15 ErrMin= 1.90D-08
 ErrMax= 1.90D-08  0.00D+00 EMaxC= 1.00D-01 BMatC= 1.89D-13 BMatP= 1.07D-12
 IDIUse=1 WtCom= 1.00D+00 WtEn= 0.00D+00
 Coeff-Com: -0.357D-07 0.401D-06 0.160D-05 0.247D-04 0.104D-03 0.469D-04
 Coeff-Com: -0.696D-03-0.127D-02 0.233D-02 0.184D-01-0.709D-02-0.893D-01
 Coeff-Com: -0.483D-01 0.383D+00 0.743D+00
 Coeff:     -0.357D-07 0.401D-06 0.160D-05 0.247D-04 0.104D-03 0.469D-04
 Coeff:     -0.696D-03-0.127D-02 0.233D-02 0.184D-01-0.709D-02-0.893D-01
 Coeff:     -0.483D-01 0.383D+00 0.743D+00
 Gap=     0.330 Goal=   None    Shift=    0.000
 RMSDP=1.86D-08 MaxDP=1.61D-06 DE=-1.18D-11 OVMax= 4.51D-07

 Cycle  16  Pass 1  IDiag  1:
 RMSU=  6.30D-09    CP:  5.99D-01  8.58D-01  5.89D-01  1.09D+00  7.29D-01
                    CP:  1.18D+00  1.10D+00  1.34D+00  1.57D+00  1.13D+00
                    CP:  1.56D+00  1.84D+00  1.49D+00  1.21D+00  1.04D+00
 E= -576.415738561705     Delta-E=        0.000000000017 Rises=F Damp=F
 DIIS: error= 4.64D-09 at cycle  16 NSaved=  16.
 NSaved=16 IEnMin=15 EnMin= -576.415738561722     IErMin=16 ErrMin= 4.64D-09
 ErrMax= 4.64D-09  0.00D+00 EMaxC= 1.00D-01 BMatC= 5.48D-15 BMatP= 1.89D-13
 IDIUse=1 WtCom= 1.00D+00 WtEn= 0.00D+00
 Coeff-Com: -0.915D-08-0.230D-06-0.323D-06 0.158D-05 0.256D-05 0.110D-04
 Coeff-Com:  0.356D-04-0.875D-04-0.492D-03 0.132D-04 0.404D-02 0.455D-02
 Coeff-Com: -0.189D-01-0.669D-01 0.333D-01 0.104D+01
 Coeff:     -0.915D-08-0.230D-06-0.323D-06 0.158D-05 0.256D-05 0.110D-04
 Coeff:      0.356D-04-0.875D-04-0.492D-03 0.132D-04 0.404D-02 0.455D-02
 Coeff:     -0.189D-01-0.669D-01 0.333D-01 0.104D+01
 Gap=     0.330 Goal=   None    Shift=    0.000
 RMSDP=5.60D-09 MaxDP=3.34D-07 DE= 1.71D-11 OVMax= 1.17D-07

 SCF Done:  E(RwB97XD) =  -576.415738562     A.U. after   16 cycles
            NFock= 16  Conv=0.56D-08     -V/T= 2.0000
 KE= 5.764016506928D+02 PE=-2.904008070052D+03 EE= 9.702895134105D+02
 Leave Link  502 at Tue Nov 22 15:03:38 2022, MaxMem= 16106127360 cpu:            1198.2 elap:              37.5
 (Enter /opt/ap/G16/B01/g16/l601.exe)
 Copying SCF densities to generalized density rwf, IOpCl= 0 IROHF=0.

 **********************************************************************

            Population analysis using the SCF Density.

 **********************************************************************

 Orbital symmetries:
       Occupied  (A) (A) (A) (A) (A) (A) (A) (A) (A) (A) (A) (A)
                 (A) (A) (A) (A) (A) (A) (A) (A) (A) (A) (A) (A)
                 (A) (A) (A) (A) (A) (A) (A) (A) (A) (A) (A) (A)
                 (A) (A) (A) (A) (A) (A) (A) (A) (A) (A) (A) (A)
       Virtual   (A) (A) (A) (A) (A) (A) (A) (A) (A) (A) (A) (A)
                 (A) (A) (A) (A) (A) (A) (A) (A) (A) (A) (A) (A)
                 (A) (A) (A) (A) (A) (A) (A) (A) (A) (A) (A) (A)
                 (A) (A) (A) (A) (A) (A) (A) (A) (A) (A) (A) (A)
                 (A) (A) (A) (A) (A) (A) (A) (A) (A) (A) (A) (A)
                 (A) (A) (A) (A) (A) (A) (A) (A) (A) (A) (A) (A)
                 (A) (A) (A) (A) (A) (A) (A) (A) (A) (A) (A) (A)
                 (A) (A) (A) (A) (A) (A) (A) (A) (A) (A) (A) (A)
                 (A) (A) (A) (A) (A) (A) (A) (A) (A) (A) (A) (A)
                 (A) (A) (A) (A) (A) (A) (A) (A) (A) (A) (A) (A)
                 (A) (A) (A) (A) (A) (A) (A) (A) (A) (A) (A) (A)
                 (A) (A) (A) (A) (A) (A) (A) (A) (A) (A) (A) (A)
                 (A) (A) (A) (A) (A) (A) (A) (A) (A) (A) (A) (A)
                 (A) (A) (A) (A) (A) (A) (A) (A) (A) (A) (A) (A)
                 (A) (A) (A) (A) (A) (A) (A) (A) (A) (A) (A) (A)
                 (A) (A) (A) (A) (A) (A) (A) (A) (A) (A) (A) (A)
                 (A) (A) (A) (A) (A) (A) (A) (A) (A) (A) (A) (A)
                 (A) (A) (A) (A) (A) (A) (A) (A) (A) (A) (A) (A)
                 (A) (A) (A) (A) (A) (A) (A) (A) (A) (A) (A) (A)
                 (A) (A) (A) (A) (A) (A) (A) (A) (A) (A) (A) (A)
                 (A) (A) (A) (A) (A) (A) (A) (A) (A) (A) (A) (A)
                 (A) (A) (A) (A) (A) (A) (A) (A) (A) (A) (A) (A)
                 (A) (A) (A) (A) (A) (A) (A) (A) (A) (A) (A) (A)
                 (A) (A) (A) (A) (A) (A) (A) (A) (A) (A) (A) (A)
                 (A) (A) (A) (A) (A) (A) (A) (A) (A) (A) (A) (A)
                 (A) (A) (A) (A) (A) (A) (A) (A) (A) (A) (A) (A)
                 (A) (A) (A) (A) (A) (A) (A) (A) (A) (A) (A) (A)
                 (A) (A) (A) (A)
 The electronic state is 1-A.
 Alpha  occ. eigenvalues --  -19.24157 -10.38373 -10.30574 -10.30520 -10.29022
 Alpha  occ. eigenvalues --  -10.28726 -10.28699 -10.28476 -10.28467 -10.28429
 Alpha  occ. eigenvalues --  -10.28269 -10.28267 -10.28105 -10.28030  -1.15078
 Alpha  occ. eigenvalues --   -0.97838  -0.97378  -0.89027  -0.87366  -0.87209
 Alpha  occ. eigenvalues --   -0.86818  -0.76760  -0.73866  -0.73412  -0.72548
 Alpha  occ. eigenvalues --   -0.67982  -0.65474  -0.62821  -0.60331  -0.56789
 Alpha  occ. eigenvalues --   -0.56231  -0.55573  -0.54410  -0.53942  -0.53829
 Alpha  occ. eigenvalues --   -0.52289  -0.49200  -0.47116  -0.46564  -0.46293
 Alpha  occ. eigenvalues --   -0.45536  -0.44937  -0.44178  -0.35229  -0.34779
 Alpha  occ. eigenvalues --   -0.34255  -0.33908  -0.33019
 Alpha virt. eigenvalues --   -0.00057   0.03602   0.03860   0.04097   0.04331
 Alpha virt. eigenvalues --    0.05142   0.05155   0.05332   0.05880   0.06826
 Alpha virt. eigenvalues --    0.07420   0.07971   0.08838   0.09742   0.10213
 Alpha virt. eigenvalues --    0.11335   0.11868   0.13276   0.13458   0.14438
 Alpha virt. eigenvalues --    0.14744   0.14879   0.15374   0.15844   0.16500
 Alpha virt. eigenvalues --    0.17005   0.17132   0.17270   0.17681   0.17739
 Alpha virt. eigenvalues --    0.18055   0.18446   0.18710   0.19054   0.19256
 Alpha virt. eigenvalues --    0.19495   0.19921   0.20401   0.20525   0.20659
 Alpha virt. eigenvalues --    0.21532   0.21846   0.22396   0.23227   0.23701
 Alpha virt. eigenvalues --    0.23989   0.24425   0.24774   0.25284   0.26217
 Alpha virt. eigenvalues --    0.26341   0.27433   0.27661   0.27985   0.28170
 Alpha virt. eigenvalues --    0.28565   0.29320   0.30043   0.30231   0.31104
 Alpha virt. eigenvalues --    0.31255   0.31699   0.32421   0.33234   0.33843
 Alpha virt. eigenvalues --    0.34777   0.35109   0.35229   0.35338   0.36178
 Alpha virt. eigenvalues --    0.37061   0.37553   0.37957   0.38541   0.38839
 Alpha virt. eigenvalues --    0.39467   0.39723   0.41192   0.41637   0.42218
 Alpha virt. eigenvalues --    0.42289   0.42977   0.43876   0.44295   0.45082
 Alpha virt. eigenvalues --    0.45797   0.46078   0.46629   0.47592   0.49971
 Alpha virt. eigenvalues --    0.50820   0.56296   0.57338   0.57988   0.61234
 Alpha virt. eigenvalues --    0.61680   0.62070   0.62590   0.63398   0.63715
 Alpha virt. eigenvalues --    0.63950   0.64306   0.65118   0.65304   0.65704
 Alpha virt. eigenvalues --    0.66039   0.66327   0.67806   0.69177   0.70690
 Alpha virt. eigenvalues --    0.71465   0.71938   0.72901   0.73459   0.74432
 Alpha virt. eigenvalues --    0.75248   0.76057   0.76870   0.77337   0.78442
 Alpha virt. eigenvalues --    0.79911   0.80924   0.81189   0.82181   0.82897
 Alpha virt. eigenvalues --    0.83548   0.83939   0.85296   0.87526   0.87857
 Alpha virt. eigenvalues --    0.88537   0.89922   0.92634   0.93314   0.93669
 Alpha virt. eigenvalues --    0.94143   0.94783   0.95196   0.96004   0.96883
 Alpha virt. eigenvalues --    0.97488   0.97756   0.98397   0.99485   1.01753
 Alpha virt. eigenvalues --    1.02427   1.02726   1.03291   1.04480   1.05592
 Alpha virt. eigenvalues --    1.06373   1.08376   1.11572   1.11867   1.13214
 Alpha virt. eigenvalues --    1.14612   1.16245   1.16747   1.17331   1.18136
 Alpha virt. eigenvalues --    1.19455   1.21011   1.21963   1.23007   1.23341
 Alpha virt. eigenvalues --    1.28343   1.29948   1.32906   1.34926   1.39518
 Alpha virt. eigenvalues --    1.41437   1.43481   1.44748   1.47898   1.54544
 Alpha virt. eigenvalues --    1.57323   1.58297   1.59042   1.60465   1.61301
 Alpha virt. eigenvalues --    1.62767   1.63181   1.64268   1.65725   1.66236
 Alpha virt. eigenvalues --    1.68180   1.68758   1.68826   1.69549   1.73680
 Alpha virt. eigenvalues --    1.75039   1.75310   1.75996   1.77015   1.77663
 Alpha virt. eigenvalues --    1.79306   1.84557   1.85832   1.86879   1.88608
 Alpha virt. eigenvalues --    1.89923   1.91407   1.91877   1.92099   1.94421
 Alpha virt. eigenvalues --    1.95246   1.95490   1.98650   2.00771   2.00935
 Alpha virt. eigenvalues --    2.01517   2.02630   2.04703   2.05215   2.05512
 Alpha virt. eigenvalues --    2.05873   2.07804   2.08730   2.09784   2.10804
 Alpha virt. eigenvalues --    2.11610   2.15211   2.15553   2.18188   2.21043
 Alpha virt. eigenvalues --    2.21546   2.26751   2.26885   2.27794   2.30551
 Alpha virt. eigenvalues --    2.32491   2.42473   2.44390   2.47136   2.47877
 Alpha virt. eigenvalues --    2.48694   2.49848   2.50786   2.50946   2.54436
 Alpha virt. eigenvalues --    2.58645   2.59271   2.60274   2.66977   2.68117
 Alpha virt. eigenvalues --    2.70589   2.78085   2.79975   2.81076   2.82618
 Alpha virt. eigenvalues --    2.83333   2.84420   2.85487   2.87811   2.88260
 Alpha virt. eigenvalues --    2.91264   2.92163   2.93138   2.94424   2.95973
 Alpha virt. eigenvalues --    2.96474   2.98037   2.99283   3.00219   3.00544
 Alpha virt. eigenvalues --    3.00730   3.01206   3.02228   3.02978   3.03701
 Alpha virt. eigenvalues --    3.05987   3.08858   3.12866   3.14983   3.18391
 Alpha virt. eigenvalues --    3.19696   3.20212   3.23800   3.25135   3.25287
 Alpha virt. eigenvalues --    3.27828   3.31340   3.31952   3.37332   3.44823
 Alpha virt. eigenvalues --    3.48725   3.49509   3.50931   3.53490   3.65118
 Alpha virt. eigenvalues --    3.70214   3.70517   3.71042   3.75318   3.76787
 Alpha virt. eigenvalues --    3.83375   3.89039   3.91165   3.99894   4.30038
 Alpha virt. eigenvalues --    4.36885   4.37409   4.39184   4.40640   4.41604
 Alpha virt. eigenvalues --    4.42732   4.50842   4.51344   4.52811   4.94985
 Alpha virt. eigenvalues --    4.95512   5.22198   5.35073   5.85728  23.89356
 Alpha virt. eigenvalues --   23.95875  23.98401  24.17251  24.19457  24.24053
 Alpha virt. eigenvalues --   24.24786  24.30167  24.31299  24.34059  24.34148
 Alpha virt. eigenvalues --   24.43247  24.44425  50.14148
          Condensed to atoms (all electrons):
               1          2          3          4          5          6
     1  C   11.820931  -0.579155  -0.506969  -0.542039   0.031003  -1.982678
     2  C   -0.579155  13.387807  -4.155279  -1.522522   0.566902  -2.859277
     3  C   -0.506969  -4.155279   9.800293   0.435839  -0.019836   0.108139
     4  C   -0.542039  -1.522522   0.435839   6.942343  -0.168005   1.183082
     5  H    0.031003   0.566902  -0.019836  -0.168005   0.493370  -0.118781
     6  C   -1.982678  -2.859277   0.108139   1.183082  -0.118781  17.148311
     7  C   -0.656629  -0.088222   0.475806  -0.091760   0.017825   0.212878
     8  H    0.100716   0.064032   0.333098   0.002156  -0.001486  -0.018637
     9  C   -0.421380   0.803955  -0.654185  -0.082645   0.009112  -0.548818
    10  H    0.035578  -0.133883   0.026499   0.480164  -0.014279   0.024433
    11  C   -1.817350   0.852250  -0.095008  -0.352457   0.025625  -5.959203
    12  O    0.128427   0.186823  -0.181408  -0.008309   0.000065   0.264994
    13  H   -0.007353  -0.020454  -0.037001   0.014004   0.001910   0.011699
    14  H    0.027170   0.020892  -0.014839  -0.075172  -0.000551  -0.019701
    15  C   -0.254093   0.487876   0.381840  -0.147069   0.023968  -2.605959
    16  C   -0.266359  -0.489487  -0.060482   0.238252  -0.037666   1.600389
    17  C   -0.215243  -0.206655   0.126455   0.102843  -0.016524   1.036117
    18  H   -0.003037   0.058491  -0.035699  -0.014317   0.000407  -0.114435
    19  C   -0.058901  -0.132363  -0.024230   0.043032  -0.009586   0.179122
    20  H    0.015176  -0.033208   0.033752  -0.010138  -0.000937  -0.042013
    21  C    0.047354   0.040946   0.017263  -0.015093   0.010081  -0.156515
    22  H   -0.003764  -0.009917   0.005231   0.001796  -0.000827   0.017715
    23  H   -0.009971   0.002219  -0.003571   0.001453  -0.000605   0.015498
    24  H    0.003688  -0.000580   0.001535  -0.001065   0.000418  -0.022626
               7          8          9         10         11         12
     1  C   -0.656629   0.100716  -0.421380   0.035578  -1.817350   0.128427
     2  C   -0.088222   0.064032   0.803955  -0.133883   0.852250   0.186823
     3  C    0.475806   0.333098  -0.654185   0.026499  -0.095008  -0.181408
     4  C   -0.091760   0.002156  -0.082645   0.480164  -0.352457  -0.008309
     5  H    0.017825  -0.001486   0.009112  -0.014279   0.025625   0.000065
     6  C    0.212878  -0.018637  -0.548818   0.024433  -5.959203   0.264994
     7  C    5.711909  -0.084155   0.486412   0.004283  -0.172185  -0.033083
     8  H   -0.084155   0.484730  -0.010039   0.000377  -0.035992  -0.010593
     9  C    0.486412  -0.010039   6.100502  -0.094504   0.185396   0.018223
    10  H    0.004283   0.000377  -0.094504   0.489195  -0.004453  -0.000220
    11  C   -0.172185  -0.035992   0.185396  -0.004453  15.429300   0.005364
    12  O   -0.033083  -0.010593   0.018223  -0.000220   0.005364   7.878345
    13  H    0.452114  -0.015194  -0.076371   0.000355  -0.004825  -0.000636
    14  H   -0.066162   0.001887   0.476571  -0.012446   0.003056   0.000215
    15  C    0.168399  -0.062516   0.070101  -0.003973   1.377916   0.030081
    16  C   -0.087184   0.029113  -0.056255   0.002472  -2.030714  -0.053932
    17  C    0.075423  -0.006987  -0.033779   0.003223  -1.691033  -0.012081
    18  H   -0.009858  -0.002056   0.019199  -0.001361   0.025558  -0.000019
    19  C   -0.025816   0.000602  -0.004425   0.000029  -0.780556  -0.016887
    20  H    0.003838  -0.000585   0.001102  -0.000044   0.081148  -0.012278
    21  C    0.014382  -0.001233  -0.001257   0.000135  -0.191749   0.007306
    22  H    0.000026   0.000062  -0.000502   0.000112   0.039558   0.000039
    23  H   -0.000686   0.000043  -0.000008   0.000015  -0.009451   0.000470
    24  H    0.000270  -0.000077   0.000047  -0.000010   0.022564   0.000217
              13         14         15         16         17         18
     1  C   -0.007353   0.027170  -0.254093  -0.266359  -0.215243  -0.003037
     2  C   -0.020454   0.020892   0.487876  -0.489487  -0.206655   0.058491
     3  C   -0.037001  -0.014839   0.381840  -0.060482   0.126455  -0.035699
     4  C    0.014004  -0.075172  -0.147069   0.238252   0.102843  -0.014317
     5  H    0.001910  -0.000551   0.023968  -0.037666  -0.016524   0.000407
     6  C    0.011699  -0.019701  -2.605959   1.600389   1.036117  -0.114435
     7  C    0.452114  -0.066162   0.168399  -0.087184   0.075423  -0.009858
     8  H   -0.015194   0.001887  -0.062516   0.029113  -0.006987  -0.002056
     9  C   -0.076371   0.476571   0.070101  -0.056255  -0.033779   0.019199
    10  H    0.000355  -0.012446  -0.003973   0.002472   0.003223  -0.001361
    11  C   -0.004825   0.003056   1.377916  -2.030714  -1.691033   0.025558
    12  O   -0.000636   0.000215   0.030081  -0.053932  -0.012081  -0.000019
    13  H    0.491135  -0.013784   0.006186  -0.002053   0.002152  -0.001694
    14  H   -0.013784   0.491934  -0.004240   0.000853  -0.001675   0.000226
    15  C    0.006186  -0.004240  12.479095  -4.518683  -1.484742   0.657086
    16  C   -0.002053   0.000853  -4.518683  10.922688   0.772878  -0.098224
    17  C    0.002152  -0.001675  -1.484742   0.772878   7.256652  -0.154356
    18  H   -0.001694   0.000226   0.657086  -0.098224  -0.154356   0.490414
    19  C   -0.000257   0.000099   0.161000   0.265313  -0.179895   0.025735
    20  H   -0.000054   0.000028   0.044765   0.374304   0.005383  -0.000269
    21  C    0.000450  -0.000155  -0.002635  -0.581696   0.618004   0.002733
    22  H    0.000047  -0.000005  -0.134292   0.053639   0.446408  -0.017172
    23  H   -0.000004  -0.000000  -0.015657  -0.066098   0.009938  -0.000417
    24  H    0.000007  -0.000002   0.007246  -0.042223  -0.077287   0.001329
              19         20         21         22         23         24
     1  C   -0.058901   0.015176   0.047354  -0.003764  -0.009971   0.003688
     2  C   -0.132363  -0.033208   0.040946  -0.009917   0.002219  -0.000580
     3  C   -0.024230   0.033752   0.017263   0.005231  -0.003571   0.001535
     4  C    0.043032  -0.010138  -0.015093   0.001796   0.001453  -0.001065
     5  H   -0.009586  -0.000937   0.010081  -0.000827  -0.000605   0.000418
     6  C    0.179122  -0.042013  -0.156515   0.017715   0.015498  -0.022626
     7  C   -0.025816   0.003838   0.014382   0.000026  -0.000686   0.000270
     8  H    0.000602  -0.000585  -0.001233   0.000062   0.000043  -0.000077
     9  C   -0.004425   0.001102  -0.001257  -0.000502  -0.000008   0.000047
    10  H    0.000029  -0.000044   0.000135   0.000112   0.000015  -0.000010
    11  C   -0.780556   0.081148  -0.191749   0.039558  -0.009451   0.022564
    12  O   -0.016887  -0.012278   0.007306   0.000039   0.000470   0.000217
    13  H   -0.000257  -0.000054   0.000450   0.000047  -0.000004   0.000007
    14  H    0.000099   0.000028  -0.000155  -0.000005  -0.000000  -0.000002
    15  C    0.161000   0.044765  -0.002635  -0.134292  -0.015657   0.007246
    16  C    0.265313   0.374304  -0.581696   0.053639  -0.066098  -0.042223
    17  C   -0.179895   0.005383   0.618004   0.446408   0.009938  -0.077287
    18  H    0.025735  -0.000269   0.002733  -0.017172  -0.000417   0.001329
    19  C    6.275424  -0.142823   0.416633  -0.001244   0.485817  -0.060631
    20  H   -0.142823   0.461407  -0.003279   0.000294  -0.013467   0.001817
    21  C    0.416633  -0.003279   5.660578  -0.078738  -0.062902   0.518339
    22  H   -0.001244   0.000294  -0.078738   0.489239   0.001191  -0.015636
    23  H    0.485817  -0.013467  -0.062902   0.001191   0.483902  -0.016637
    24  H   -0.060631   0.001817   0.518339  -0.015636  -0.016637   0.497917
 Mulliken charges:
               1
     1  C    1.114879
     2  C   -0.241189
     3  C    0.042756
     4  C   -0.414372
     5  H    0.208399
     6  C   -1.353733
     7  C   -0.307825
     8  H    0.232733
     9  C   -0.186450
    10  H    0.198303
    11  C    1.097243
    12  O   -0.191121
    13  H    0.199621
    14  H    0.185800
    15  C   -0.661702
    16  C    0.131156
    17  C   -0.375218
    18  H    0.171736
    19  C   -0.415192
    20  H    0.236081
    21  C   -0.258951
    22  H    0.206741
    23  H    0.198928
    24  H    0.181378
 Sum of Mulliken charges =  -0.00000
 Mulliken charges with hydrogens summed into heavy atoms:
               1
     1  C    1.114879
     2  C   -0.032790
     3  C    0.275489
     4  C   -0.216069
     6  C   -1.353733
     7  C   -0.108204
     9  C   -0.000650
    11  C    1.097243
    12  O   -0.191121
    15  C   -0.489966
    16  C    0.367237
    17  C   -0.168477
    19  C   -0.216265
    21  C   -0.077573
 Electronic spatial extent (au):  <R**2>=           3068.8398
 Charge=             -0.0000 electrons
 Dipole moment (field-independent basis, Debye):
    X=              0.2583    Y=             -3.2214    Z=              0.0435  Tot=              3.2321
 Quadrupole moment (field-independent basis, Debye-Ang):
   XX=            -65.1265   YY=            -86.1000   ZZ=            -77.1362
   XY=              1.4664   XZ=              2.4931   YZ=              0.2638
 Traceless Quadrupole moment (field-independent basis, Debye-Ang):
   XX=             10.9944   YY=             -9.9791   ZZ=             -1.0153
   XY=              1.4664   XZ=              2.4931   YZ=              0.2638
 Octapole moment (field-independent basis, Debye-Ang**2):
  XXX=             10.0724  YYY=            -19.3217  ZZZ=              1.0152  XYY=             10.6921
  XXY=            -14.6968  XXZ=              0.1330  XZZ=            -12.6429  YZZ=              2.3662
  YYZ=             -0.7223  XYZ=             16.3540
 Hexadecapole moment (field-independent basis, Debye-Ang**3):
 XXXX=          -2882.8129 YYYY=           -652.5143 ZZZZ=           -326.3111 XXXY=             37.5857
 XXXZ=             62.3707 YYYX=             -8.1793 YYYZ=             12.9696 ZZZX=              7.5172
 ZZZY=            -13.1837 XXYY=           -616.4792 XXZZ=           -591.8585 YYZZ=           -146.3543
 XXYZ=              1.1270 YYXZ=            -10.6088 ZZXY=              7.5058
 N-N= 7.809011673871D+02 E-N=-2.904008069919D+03  KE= 5.764016506928D+02
 No NMR shielding tensors so no spin-rotation constants.
 Leave Link  601 at Tue Nov 22 15:03:38 2022, MaxMem= 16106127360 cpu:               4.6 elap:               0.2
 (Enter /opt/ap/G16/B01/g16/l9999.exe)
 1\1\GINC-N19\SP\RwB97XD\6-311++G(d,p)\C13H10O1\ROOT\22-Nov-2022\0\\#P 
 wB97XD/6-311++G(d,p) scf=maxcycle=512\\_conf031.gjf nmol_natom 1_24\\0
 ,1\C\C,1,1.39746343\C,1,1.39996263,2,119.28066518\C,2,1.39288453,1,120
 .37436646,3,-0.51002981,0\H,2,0.95014703,1,119.82324024,3,179.45634896
 ,0\C,1,1.49653039,2,122.77761373,4,174.46828757,0\C,3,1.3870125,1,120.
 10017821,2,-0.37315804,0\H,3,0.9501092,1,119.95246451,2,179.5923884,0\
 C,7,1.38720039,3,120.16568731,1,1.0745106,0\H,4,0.95011919,2,120.18755
 644,1,-179.31195299,0\C,6,1.49516902,1,120.70972921,2,65.,0\O,6,1.2215
 0059,1,119.67074267,2,-115.,0\H,7,0.94956661,3,119.91274826,1,-178.886
 36029,0\H,9,0.94992259,7,119.76037934,3,179.10763853,0\C,11,1.39713972
 ,6,122.62585705,1,30.97749054,0\C,11,1.40039562,6,117.74753532,1,-153.
 15467779,0\C,15,1.39455701,11,119.80747484,6,175.4763048,0\H,15,0.9496
 2854,11,120.10535689,6,-4.50802339,0\C,16,1.38466431,11,120.4617377,6,
 -176.88197195,0\H,16,0.9497464,11,119.75779177,6,3.14699974,0\C,17,1.3
 9088945,15,120.3475273,11,0.7973643,0\H,17,0.94984298,15,119.8156451,1
 1,-179.16676483,0\H,19,0.94974749,16,119.98566335,11,-178.40987425,0\H
 ,21,0.94938585,17,120.0744529,15,179.91636093,0\\Version=ES64L-G16RevB
 .01\State=1-A\HF=-576.4157386\RMSD=5.599e-09\Dipole=0.0825276,1.068119
 3,0.685024\Quadrupole=7.9354375,-5.2242299,-2.7112076,-2.258032,1.3078
 379,-3.2034025\PG=C01 [X(C13H10O1)]\\@


 IT IS BY LOGIC THAT WE PROVE, BUT BY INTUITION THAT WE DISCOVER.
     -- J.H.POINCARE (1854-1912)
 Job cpu time:       0 days  0 hours 20 minutes 49.1 seconds.
 Elapsed time:       0 days  0 hours  0 minutes 39.2 seconds.
 File lengths (MBytes):  RWF=     78 Int=      0 D2E=      0 Chk=      9 Scr=      1
 Normal termination of Gaussian 16 at Tue Nov 22 15:03:38 2022.
