 Entering Gaussian System, Link 0=g16
 Input=_conf006.gjf
 Output=_conf006.log
 Initial command:
 /opt/ap/G16/B01/g16/l1.exe "/tmp2/scr/Gau-4117.inp" -scrdir="/tmp2/scr/"
 Entering Link 1 = /opt/ap/G16/B01/g16/l1.exe PID=      4118.
  
 Copyright (c) 1988-2017, Gaussian, Inc.  All Rights Reserved.
  
 This is part of the Gaussian(R) 16 program.  It is based on
 the Gaussian(R) 09 system (copyright 2009, Gaussian, Inc.),
 the Gaussian(R) 03 system (copyright 2003, Gaussian, Inc.),
 the Gaussian(R) 98 system (copyright 1998, Gaussian, Inc.),
 the Gaussian(R) 94 system (copyright 1995, Gaussian, Inc.),
 the Gaussian 92(TM) system (copyright 1992, Gaussian, Inc.),
 the Gaussian 90(TM) system (copyright 1990, Gaussian, Inc.),
 the Gaussian 88(TM) system (copyright 1988, Gaussian, Inc.),
 the Gaussian 86(TM) system (copyright 1986, Carnegie Mellon
 University), and the Gaussian 82(TM) system (copyright 1983,
 Carnegie Mellon University). Gaussian is a federally registered
 trademark of Gaussian, Inc.
  
 This software contains proprietary and confidential information,
 including trade secrets, belonging to Gaussian, Inc.
  
 This software is provided under written license and may be
 used, copied, transmitted, or stored only in accord with that
 written license.
  
 The following legend is applicable only to US Government
 contracts under FAR:
  
                    RESTRICTED RIGHTS LEGEND
  
 Use, reproduction and disclosure by the US Government is
 subject to restrictions as set forth in subparagraphs (a)
 and (c) of the Commercial Computer Software - Restricted
 Rights clause in FAR 52.227-19.
  
 Gaussian, Inc.
 340 Quinnipiac St., Bldg. 40, Wallingford CT 06492
  
  
 ---------------------------------------------------------------
 Warning -- This program may not be used in any manner that
 competes with the business of Gaussian, Inc. or will provide
 assistance to any competitor of Gaussian, Inc.  The licensee
 of this program is prohibited from giving any competitor of
 Gaussian, Inc. access to this program.  By using this program,
 the user acknowledges that Gaussian, Inc. is engaged in the
 business of creating and licensing software in the field of
 computational chemistry and represents and warrants to the
 licensee that it is not a competitor of Gaussian, Inc. and that
 it will not use this program in any manner prohibited above.
 ---------------------------------------------------------------
  

 Cite this work as:
 Gaussian 16, Revision B.01,
 M. J. Frisch, G. W. Trucks, H. B. Schlegel, G. E. Scuseria, 
 M. A. Robb, J. R. Cheeseman, G. Scalmani, V. Barone, 
 G. A. Petersson, H. Nakatsuji, X. Li, M. Caricato, A. V. Marenich, 
 J. Bloino, B. G. Janesko, R. Gomperts, B. Mennucci, H. P. Hratchian, 
 J. V. Ortiz, A. F. Izmaylov, J. L. Sonnenberg, D. Williams-Young, 
 F. Ding, F. Lipparini, F. Egidi, J. Goings, B. Peng, A. Petrone, 
 T. Henderson, D. Ranasinghe, V. G. Zakrzewski, J. Gao, N. Rega, 
 G. Zheng, W. Liang, M. Hada, M. Ehara, K. Toyota, R. Fukuda, 
 J. Hasegawa, M. Ishida, T. Nakajima, Y. Honda, O. Kitao, H. Nakai, 
 T. Vreven, K. Throssell, J. A. Montgomery, Jr., J. E. Peralta, 
 F. Ogliaro, M. J. Bearpark, J. J. Heyd, E. N. Brothers, K. N. Kudin, 
 V. N. Staroverov, T. A. Keith, R. Kobayashi, J. Normand, 
 K. Raghavachari, A. P. Rendell, J. C. Burant, S. S. Iyengar, 
 J. Tomasi, M. Cossi, J. M. Millam, M. Klene, C. Adamo, R. Cammi, 
 J. W. Ochterski, R. L. Martin, K. Morokuma, O. Farkas, 
 J. B. Foresman, and D. J. Fox, Gaussian, Inc., Wallingford CT, 2016.
 
 ******************************************
 Gaussian 16:  ES64L-G16RevB.01 20-Dec-2017
                22-Nov-2022 
 ******************************************
 %nprocshared=32
 Will use up to   32 processors via shared memory.
 %mem=120GB
 %chk=_conf006.chk
 ----------------------------------------
 #P wB97XD/6-311++G(d,p) scf=maxcycle=512
 ----------------------------------------
 1/38=1,172=1/1;
 2/12=2,17=6,18=5,40=1/2;
 3/5=4,6=6,7=1111,11=2,25=1,30=1,74=-58/1,2,3;
 4//1;
 5/5=2,7=512,38=5/2;
 6/7=2,8=2,9=2,10=2,28=1/1;
 99/5=1,9=1/99;
 Leave Link    1 at Tue Nov 22 14:58:57 2022, MaxMem= 16106127360 cpu:               1.9 elap:               0.1
 (Enter /opt/ap/G16/B01/g16/l101.exe)
 ----------------------------
 _conf006.gjf nmol_natom 1_24
 ----------------------------
 Symbolic Z-matrix:
 Charge =  0 Multiplicity = 1
 C
 C                    1     1.39746 
 C                    1     1.39996  2     119.28067 
 C                    2     1.39288  1     120.37437  3    -0.51003  0
 H                    2     0.95015  1     119.82324  3     179.45635  0
 C                    1     1.49653  2     122.77761  4     174.46829  0
 C                    3     1.38701  1     120.10018  2    -0.37316  0
 H                    3     0.95011  1     119.95246  2     179.59239  0
 C                    7     1.3872   3     120.16569  1     1.07451  0
 H                    4     0.95012  2     120.18756  1    -179.31195  0
 C                    6     1.49517  1     120.70973  2    -60.      0
 O                    6     1.2215   1     119.67074  2     120.     0
 H                    7     0.94957  3     119.91275  1    -178.88636  0
 H                    9     0.94992  7     119.76038  3     179.10764  0
 C                    11    1.39714  6     122.62586  1     30.97749  0
 C                    11    1.4004   6     117.74754  1    -153.15468  0
 C                    15    1.39456  11    119.80747  6     175.4763  0
 H                    15    0.94963  11    120.10536  6    -4.50802  0
 C                    16    1.38466  11    120.46174  6    -176.88197  0
 H                    16    0.94975  11    119.75779  6     3.147    0
 C                    17    1.39089  15    120.34753  11    0.79736  0
 H                    17    0.94984  15    119.81565  11   -179.16676  0
 H                    19    0.94975  16    119.98566  11   -178.40987  0
 H                    21    0.94939  17    120.07445  15    179.91636  0
 
 ITRead=  0  0  0  0  0  0  0  0  0  0  0  0  0  0  0  0  0  0  0  0
 ITRead=  0  0  0  0
 MicOpt= -1 -1 -1 -1 -1 -1 -1 -1 -1 -1 -1 -1 -1 -1 -1 -1 -1 -1 -1 -1
 MicOpt= -1 -1 -1 -1
 NAtoms=     24 NQM=       24 NQMF=       0 NMMI=      0 NMMIF=      0
                NMic=       0 NMicF=      0.
                    Isotopes and Nuclear Properties:
 (Nuclear quadrupole moments (NQMom) in fm**2, nuclear magnetic moments (NMagM)
  in nuclear magnetons)

  Atom         1           2           3           4           5           6           7           8           9          10
 IAtWgt=          12          12          12          12           1          12          12           1          12           1
 AtmWgt=  12.0000000  12.0000000  12.0000000  12.0000000   1.0078250  12.0000000  12.0000000   1.0078250  12.0000000   1.0078250
 NucSpn=           0           0           0           0           1           0           0           1           0           1
 AtZEff=  -0.0000000  -0.0000000  -0.0000000  -0.0000000  -0.0000000  -0.0000000  -0.0000000  -0.0000000  -0.0000000  -0.0000000
 NQMom=    0.0000000   0.0000000   0.0000000   0.0000000   0.0000000   0.0000000   0.0000000   0.0000000   0.0000000   0.0000000
 NMagM=    0.0000000   0.0000000   0.0000000   0.0000000   2.7928460   0.0000000   0.0000000   2.7928460   0.0000000   2.7928460
 AtZNuc=   6.0000000   6.0000000   6.0000000   6.0000000   1.0000000   6.0000000   6.0000000   1.0000000   6.0000000   1.0000000

  Atom        11          12          13          14          15          16          17          18          19          20
 IAtWgt=          12          16           1           1          12          12          12           1          12           1
 AtmWgt=  12.0000000  15.9949146   1.0078250   1.0078250  12.0000000  12.0000000  12.0000000   1.0078250  12.0000000   1.0078250
 NucSpn=           0           0           1           1           0           0           0           1           0           1
 AtZEff=  -0.0000000  -0.0000000  -0.0000000  -0.0000000  -0.0000000  -0.0000000  -0.0000000  -0.0000000  -0.0000000  -0.0000000
 NQMom=    0.0000000   0.0000000   0.0000000   0.0000000   0.0000000   0.0000000   0.0000000   0.0000000   0.0000000   0.0000000
 NMagM=    0.0000000   0.0000000   2.7928460   2.7928460   0.0000000   0.0000000   0.0000000   2.7928460   0.0000000   2.7928460
 AtZNuc=   6.0000000   8.0000000   1.0000000   1.0000000   6.0000000   6.0000000   6.0000000   1.0000000   6.0000000   1.0000000

  Atom        21          22          23          24
 IAtWgt=          12           1           1           1
 AtmWgt=  12.0000000   1.0078250   1.0078250   1.0078250
 NucSpn=           0           1           1           1
 AtZEff=  -0.0000000  -0.0000000  -0.0000000  -0.0000000
 NQMom=    0.0000000   0.0000000   0.0000000   0.0000000
 NMagM=    0.0000000   2.7928460   2.7928460   2.7928460
 AtZNuc=   6.0000000   1.0000000   1.0000000   1.0000000
 Leave Link  101 at Tue Nov 22 14:58:57 2022, MaxMem= 16106127360 cpu:               5.3 elap:               0.2
 (Enter /opt/ap/G16/B01/g16/l202.exe)
                          Input orientation:                          
 ---------------------------------------------------------------------
 Center     Atomic      Atomic             Coordinates (Angstroms)
 Number     Number       Type             X           Y           Z
 ---------------------------------------------------------------------
      1          6           0        0.000000    0.000000    0.000000
      2          6           0        0.000000    0.000000    1.397463
      3          6           0        1.221096    0.000000   -0.684705
      4          6           0        1.201650   -0.010697    2.101772
      5          1           0       -0.824276    0.007821    1.869996
      6          6           0       -1.253421   -0.110138   -0.810191
      7          6           0        2.414707    0.007815    0.021719
      8          1           0        1.232246   -0.005856   -1.634731
      9          6           0        2.403895   -0.006831    1.408800
     10          1           0        1.198494   -0.020531    3.051836
     11          6           0       -2.142133   -1.305790   -0.683163
     12          8           0       -1.554119    0.786131   -1.583720
     13          1           0        3.241298    0.023792   -0.445367
     14          1           0        3.224827   -0.014217    1.886678
     15          6           0       -2.272638   -2.024204    0.507992
     16          6           0       -2.930591   -1.652374   -1.787392
     17          6           0       -3.188905   -3.072423    0.588492
     18          1           0       -1.739181   -1.799338    1.260756
     19          6           0       -3.821042   -2.709912   -1.709900
     20          1           0       -2.853595   -1.158758   -2.595125
     21          6           0       -3.961410   -3.416885   -0.515661
     22          1           0       -3.286188   -3.553236    1.401853
     23          1           0       -4.336079   -2.953427   -2.469807
     24          1           0       -4.583158   -4.131944   -0.456898
 ---------------------------------------------------------------------
                    Distance matrix (angstroms):
                    1          2          3          4          5
     1  C    0.000000
     2  C    1.397463   0.000000
     3  C    1.399963   2.413814   0.000000
     4  C    2.421058   1.392885   2.786566   0.000000
     5  H    2.043619   0.950147   3.272630   2.039225   0.000000
     6  C    1.496530   2.541049   2.480142   3.810091   2.716889
     7  C    2.414817   2.779127   1.387013   2.408002   3.729228
     8  H    2.047146   3.273021   0.950109   3.736632   4.063567
     9  C    2.786301   2.403931   2.404542   1.387667   3.260982
    10  H    3.278797   2.042977   3.736665   0.950119   2.342893
    11  C    2.600103   3.259268   3.607825   4.540266   3.159263
    12  O    2.354029   3.452642   3.021265   4.670337   3.614774
    13  H    3.271839   3.728619   2.034469   3.263323   4.678681
    14  H    3.736210   3.261755   3.259932   2.034583   4.049198
    15  C    3.085505   3.170716   4.210238   4.320303   2.842874
    16  C    3.809655   4.632710   4.602473   5.907293   4.535339
    17  C    4.467127   4.501481   5.523488   5.562477   4.089209
    18  H    2.802120   2.506204   3.973119   3.543308   2.115195
    19  C    4.986757   5.621361   5.815308   6.858720   5.402068
    20  H    4.027455   5.042468   4.647098   6.310618   5.041463
    21  C    5.256784   5.570271   6.209834   6.716417   5.221263
    22  H    5.038821   4.839890   6.106948   5.760222   4.354457
    23  H    5.798643   6.517675   6.541522   7.760505   6.319465
    24  H    6.187654   6.443366   7.128409   7.549535   6.056508
                    6          7          8          9         10
     6  C    0.000000
     7  C    3.763130   0.000000
     8  H    2.620930   2.035246   0.000000
     9  C    4.279082   1.387200   3.261263   0.000000
    10  H    4.575496   3.265208   4.686711   2.037829   0.000000
    11  C    1.495169   4.794498   3.739217   5.170103   5.173190
    12  O    1.221501   4.351412   2.897184   5.024921   5.451234
    13  H    4.511488   0.949567   2.334899   2.034727   4.050363
    14  H    5.228480   2.033434   4.046081   0.949923   2.337447
    15  C    2.537727   5.131936   4.577029   5.172156   4.747062
    16  C    2.479176   5.882288   4.479234   6.432743   6.567372
    17  C    3.804937   6.419468   5.821780   6.430409   5.884843
    18  H    2.716281   4.696361   4.519934   4.516644   3.873249
    19  C    3.763108   7.019196   5.731779   7.468787   7.423115
    20  H    2.616515   5.996980   4.352658   6.708170   7.042950
    21  C    4.284219   7.257563   6.313596   7.473227   7.133503
    22  H    4.569487   6.861928   6.497768   6.704780   5.942627
    23  H    4.510144   7.781373   6.355451   8.315844   8.349965
    24  H    5.233249   8.144740   7.227089   8.325641   7.914697
                   11         12         13         14         15
    11  C    0.000000
    12  O    2.352211   0.000000
    13  H    5.550285   4.987286   0.000000
    14  H    6.089048   5.960079   2.332413   0.000000
    15  C    1.397140   3.576242   5.958747   6.013563   0.000000
    16  C    1.400396   2.807573   6.534736   7.353334   2.416598
    17  C    2.415332   4.720113   7.211305   7.223148   1.394557
    18  H    2.045674   3.848369   5.571340   5.312233   0.949629
    19  C    2.417537   4.168594   7.677814   8.357417   2.790484
    20  H    2.045335   2.548367   6.570205   7.638308   3.273506
    21  C    2.791872   4.959954   7.982619   8.306106   2.416481
    22  H    3.272181   5.544711   7.669121   7.426509   2.040640
    23  H    3.274172   4.744339   8.389209   9.207889   3.740125
    24  H    3.741249   5.884919   8.859593   9.133053   3.272933
                   16         17         18         19         20
    16  C    0.000000
    17  C    2.779944   0.000000
    18  H    3.276013   2.043131   0.000000
    19  C    1.384664   2.411145   3.740066   0.000000
    20  H    0.949746   3.729607   4.064490   2.031171   0.000000
    21  C    2.406945   1.390889   3.272678   1.394891   3.263520
    22  H    3.729747   0.949843   2.342925   3.268069   4.679370
    23  H    2.033181   3.268541   4.689659   0.949747   2.331159
    24  H    3.263351   2.039453   4.059507   2.042795   4.050092
                   21         22         23         24
    21  C    0.000000
    22  H    2.037493   0.000000
    23  H    2.043001   4.056081   0.000000
    24  H    0.949386   2.339229   2.345581   0.000000
 Stoichiometry    C13H10O
 Framework group  C1[X(C13H10O)]
 Deg. of freedom    66
 Full point group                 C1      NOp   1
 Largest Abelian subgroup         C1      NOp   1
 Largest concise Abelian subgroup C1      NOp   1
                         Standard orientation:                         
 ---------------------------------------------------------------------
 Center     Atomic      Atomic             Coordinates (Angstroms)
 Number     Number       Type             X           Y           Z
 ---------------------------------------------------------------------
      1          6           0        1.310998    0.398170    0.246610
      2          6           0        1.696332   -0.807006    0.839882
      3          6           0        2.160969    1.004906   -0.685761
      4          6           0        2.907978   -1.403832    0.499528
      5          1           0        1.128927   -1.221527    1.479416
      6          6           0       -0.027964    1.024472    0.480128
      7          6           0        3.374645    0.415517   -1.007345
      8          1           0        1.905875    1.821395   -1.099258
      9          6           0        3.741363   -0.788261   -0.423597
     10          1           0        3.162861   -2.228188    0.897270
     11          6           0       -1.284066    0.298043    0.119521
     12          8           0       -0.095931    2.141120    0.970579
     13          1           0        3.956172    0.837414   -1.628236
     14          1           0        4.568184   -1.193201   -0.657571
     15          6           0       -1.388162   -1.094501    0.164099
     16          6           0       -2.414388    1.064456   -0.190463
     17          6           0       -2.614551   -1.706562   -0.093079
     18          1           0       -0.626153   -1.622797    0.369134
     19          6           0       -3.623816    0.450617   -0.469355
     20          1           0       -2.350694    2.011865   -0.209891
     21          6           0       -3.730332   -0.938928   -0.409849
     22          1           0       -2.688221   -2.652616   -0.051162
     23          1           0       -4.380471    0.975880   -0.700854
     24          1           0       -4.563066   -1.359730   -0.585387
 ---------------------------------------------------------------------
 Rotational constants (GHZ):           1.6276928           0.4190247           0.3638297
 Leave Link  202 at Tue Nov 22 14:58:57 2022, MaxMem= 16106127360 cpu:               0.4 elap:               0.0
 (Enter /opt/ap/G16/B01/g16/l301.exe)
 Standard basis: 6-311++G(d,p) (5D, 7F)
 Ernie: Thresh=  0.10000D-02 Tol=  0.10000D-05 Strict=F.
 There are   392 symmetry adapted cartesian basis functions of A   symmetry.
 There are   378 symmetry adapted basis functions of A   symmetry.
   378 basis functions,   594 primitive gaussians,   392 cartesian basis functions
    48 alpha electrons       48 beta electrons
       nuclear repulsion energy       783.5001120261 Hartrees.
 IExCor= 4639 DFT=T Ex+Corr=wB97XD ExCW=0 ScaHFX=  1.000000
 ScaDFX=  1.000000  1.000000  1.000000  1.000000 ScalE2=  1.000000  1.000000
 IRadAn=      5 IRanWt=     -1 IRanGd=            0 ICorTp=0 IEmpDi=121
 HFx  wShort=  0.000000 wLong=  0.200000 cFull=  0.222036 cShort=  0.000000 cLong=  0.777964
 DFx  wShort=  0.000000 wLong=  0.200000 cFull=  0.000000 cShort=  0.000000 cLong=  1.000000
 NAtoms=   24 NActive=   24 NUniq=   24 SFac= 1.00D+00 NAtFMM=   60 NAOKFM=F Big=F
 Integral buffers will be    131072 words long.
 Raffenetti 2 integral format.
 Two-electron integral symmetry is turned on.
 R6Disp:  Grimme-D2 Dispersion energy=       -0.0141274588 Hartrees.
 Nuclear repulsion after empirical dispersion term =      783.4859845673 Hartrees.
 Leave Link  301 at Tue Nov 22 14:58:57 2022, MaxMem= 16106127360 cpu:               1.2 elap:               0.0
 (Enter /opt/ap/G16/B01/g16/l302.exe)
 NPDir=0 NMtPBC=     1 NCelOv=     1 NCel=       1 NClECP=     1 NCelD=      1
         NCelK=      1 NCelE2=     1 NClLst=     1 CellRange=     0.0.
 One-electron integrals computed using PRISM.
 One-electron integral symmetry used in STVInt
 NBasis=   378 RedAO= T EigKep=  1.59D-06  NBF=   378
 NBsUse=   376 1.00D-06 EigRej=  7.93D-07 NBFU=   376
 Precomputing XC quadrature grid using
 IXCGrd= 4 IRadAn=           5 IRanWt=          -1 IRanGd=           0 AccXCQ= 0.00D+00.
 Generated NRdTot=       0 NPtTot=           0 NUsed=           0 NTot=          32
 NSgBfM=   392   392   392   392   392 MxSgAt=    24 MxSgA2=    24.
 Leave Link  302 at Tue Nov 22 14:58:57 2022, MaxMem= 16106127360 cpu:               8.9 elap:               0.3
 (Enter /opt/ap/G16/B01/g16/l303.exe)
 DipDrv:  MaxL=1.
 Leave Link  303 at Tue Nov 22 14:58:57 2022, MaxMem= 16106127360 cpu:               1.9 elap:               0.1
 (Enter /opt/ap/G16/B01/g16/l401.exe)
 ExpMin= 3.60D-02 ExpMax= 8.59D+03 ExpMxC= 1.30D+03 IAcc=3 IRadAn=         5 AccDes= 0.00D+00
 Harris functional with IExCor= 4639 and IRadAn=       5 diagonalized for initial guess.
 HarFok:  IExCor= 4639 AccDes= 0.00D+00 IRadAn=         5 IDoV= 1 UseB2=F ITyADJ=14
 ICtDFT=  3500011 ScaDFX=  1.000000  1.000000  1.000000  1.000000
 FoFCou: FMM=F IPFlag=           0 FMFlag=      100000 FMFlg1=           0
         NFxFlg=           0 DoJE=T BraDBF=F KetDBF=T FulRan=T
         wScrn=  0.000000 ICntrl=       500 IOpCl=  0 I1Cent=   200000004 NGrid=           0
         NMat0=    1 NMatS0=      1 NMatT0=    0 NMatD0=    1 NMtDS0=    0 NMtDT0=    0
 Petite list used in FoFCou.
 Harris En= -550.900705471348    
 JPrj=0 DoOrth=F DoCkMO=F.
 Leave Link  401 at Tue Nov 22 14:58:58 2022, MaxMem= 16106127360 cpu:              23.1 elap:               0.7
 (Enter /opt/ap/G16/B01/g16/l502.exe)
 Integral symmetry usage will be decided dynamically.
 Closed shell SCF:
 Using DIIS extrapolation, IDIIS=  1040.
 NGot= 16106127360 LenX= 16105803762 LenY= 16105649657
 Requested convergence on RMS density matrix=1.00D-08 within 512 cycles.
 Requested convergence on MAX density matrix=1.00D-06.
 Requested convergence on             energy=1.00D-06.
 No special actions if energy rises.
 Fock matrices will be formed incrementally for  20 cycles.

 Cycle   1  Pass 1  IDiag  1:
 FoFJK:  IHMeth= 1 ICntrl=       0 DoSepK=T KAlg= 0 I1Cent=           0 FoldK=F
 IRaf=         1 NMat=       1 IRICut=       1 DoRegI=T DoRafI=F ISym2E= 0 IDoP0=0 IntGTp=1.
 FoFCou: FMM=F IPFlag=           0 FMFlag=      100000 FMFlg1=           0
         NFxFlg=           0 DoJE=T BraDBF=F KetDBF=F FulRan=T
         wScrn=  0.000000 ICntrl=       500 IOpCl=  0 I1Cent=           0 NGrid=           0
         NMat0=    1 NMatS0=      1 NMatT0=    0 NMatD0=    1 NMtDS0=    0 NMtDT0=    0
 Symmetry not used in FoFCou.
 E= -576.255671130331    
 DIIS: error= 4.78D-02 at cycle   1 NSaved=   1.
 NSaved= 1 IEnMin= 1 EnMin= -576.255671130331     IErMin= 1 ErrMin= 4.78D-02
 ErrMax= 4.78D-02  0.00D+00 EMaxC= 1.00D-01 BMatC= 1.20D+00 BMatP= 1.20D+00
 IDIUse=3 WtCom= 5.22D-01 WtEn= 4.78D-01
 Coeff-Com:  0.100D+01
 Coeff-En:   0.100D+01
 Coeff:      0.100D+01
 Gap=     0.413 Goal=   None    Shift=    0.000
 GapD=    0.413 DampG=2.000 DampE=0.500 DampFc=1.0000 IDamp=-1.
 RMSDP=2.53D-02 MaxDP=3.91D+00              OVMax= 1.23D-01

 Cycle   2  Pass 1  IDiag  1:
 RMSU=  1.54D-02    CP:  7.34D-01
 E= -576.346283822004     Delta-E=       -0.090612691673 Rises=F Damp=F
 DIIS: error= 1.15D-02 at cycle   2 NSaved=   2.
 NSaved= 2 IEnMin= 2 EnMin= -576.346283822004     IErMin= 2 ErrMin= 1.15D-02
 ErrMax= 1.15D-02  0.00D+00 EMaxC= 1.00D-01 BMatC= 7.49D-02 BMatP= 1.20D+00
 IDIUse=3 WtCom= 8.85D-01 WtEn= 1.15D-01
 Coeff-Com:  0.126D+00 0.874D+00
 Coeff-En:   0.142D+00 0.858D+00
 Coeff:      0.128D+00 0.872D+00
 Gap=     0.437 Goal=   None    Shift=    0.000
 RMSDP=1.03D-02 MaxDP=1.10D+00 DE=-9.06D-02 OVMax= 1.49D-01

 Cycle   3  Pass 1  IDiag  1:
 RMSU=  5.80D-03    CP:  6.80D-01  5.17D-01
 E= -576.364595697496     Delta-E=       -0.018311875492 Rises=F Damp=F
 DIIS: error= 1.16D-02 at cycle   3 NSaved=   3.
 NSaved= 3 IEnMin= 3 EnMin= -576.364595697496     IErMin= 2 ErrMin= 1.15D-02
 ErrMax= 1.16D-02  0.00D+00 EMaxC= 1.00D-01 BMatC= 5.28D-02 BMatP= 7.49D-02
 IDIUse=3 WtCom= 8.84D-01 WtEn= 1.16D-01
 Coeff-Com:  0.237D-01 0.460D+00 0.516D+00
 Coeff-En:   0.000D+00 0.422D+00 0.578D+00
 Coeff:      0.209D-01 0.456D+00 0.524D+00
 Gap=     0.353 Goal=   None    Shift=    0.000
 RMSDP=4.28D-03 MaxDP=3.35D-01 DE=-1.83D-02 OVMax= 6.11D-02

 Cycle   4  Pass 1  IDiag  1:
 RMSU=  1.57D-03    CP:  6.63D-01  7.16D-01  6.23D-01
 E= -576.411573957497     Delta-E=       -0.046978260001 Rises=F Damp=F
 DIIS: error= 1.62D-03 at cycle   4 NSaved=   4.
 NSaved= 4 IEnMin= 4 EnMin= -576.411573957497     IErMin= 4 ErrMin= 1.62D-03
 ErrMax= 1.62D-03  0.00D+00 EMaxC= 1.00D-01 BMatC= 7.92D-04 BMatP= 5.28D-02
 IDIUse=3 WtCom= 9.84D-01 WtEn= 1.62D-02
 Coeff-Com:  0.919D-02 0.190D+00 0.237D+00 0.564D+00
 Coeff-En:   0.000D+00 0.000D+00 0.000D+00 0.100D+01
 Coeff:      0.904D-02 0.187D+00 0.233D+00 0.571D+00
 Gap=     0.324 Goal=   None    Shift=    0.000
 RMSDP=6.31D-04 MaxDP=4.60D-02 DE=-4.70D-02 OVMax= 6.23D-03

 Cycle   5  Pass 1  IDiag  1:
 RMSU=  4.82D-04    CP:  6.64D-01  7.41D-01  6.43D-01  1.02D+00
 E= -576.412137195054     Delta-E=       -0.000563237557 Rises=F Damp=F
 DIIS: error= 5.42D-04 at cycle   5 NSaved=   5.
 NSaved= 5 IEnMin= 5 EnMin= -576.412137195054     IErMin= 5 ErrMin= 5.42D-04
 ErrMax= 5.42D-04  0.00D+00 EMaxC= 1.00D-01 BMatC= 7.59D-05 BMatP= 7.92D-04
 IDIUse=3 WtCom= 9.95D-01 WtEn= 5.42D-03
 Coeff-Com: -0.574D-03-0.799D-02-0.301D-03 0.222D+00 0.786D+00
 Coeff-En:   0.000D+00 0.000D+00 0.000D+00 0.000D+00 0.100D+01
 Coeff:     -0.571D-03-0.795D-02-0.299D-03 0.221D+00 0.788D+00
 Gap=     0.325 Goal=   None    Shift=    0.000
 RMSDP=3.47D-04 MaxDP=4.19D-02 DE=-5.63D-04 OVMax= 2.49D-03

 Cycle   6  Pass 1  IDiag  1:
 RMSU=  2.35D-04    CP:  6.61D-01  7.45D-01  6.54D-01  1.11D+00  8.72D-01
 E= -576.412194408263     Delta-E=       -0.000057213210 Rises=F Damp=F
 DIIS: error= 2.23D-04 at cycle   6 NSaved=   6.
 NSaved= 6 IEnMin= 6 EnMin= -576.412194408263     IErMin= 6 ErrMin= 2.23D-04
 ErrMax= 2.23D-04  0.00D+00 EMaxC= 1.00D-01 BMatC= 1.83D-05 BMatP= 7.59D-05
 IDIUse=3 WtCom= 9.98D-01 WtEn= 2.23D-03
 Coeff-Com: -0.122D-02-0.229D-01-0.228D-01 0.664D-01 0.434D+00 0.546D+00
 Coeff-En:   0.000D+00 0.000D+00 0.000D+00 0.000D+00 0.000D+00 0.100D+01
 Coeff:     -0.122D-02-0.228D-01-0.227D-01 0.663D-01 0.433D+00 0.547D+00
 Gap=     0.325 Goal=   None    Shift=    0.000
 RMSDP=1.00D-04 MaxDP=5.15D-03 DE=-5.72D-05 OVMax= 1.37D-03

 Cycle   7  Pass 1  IDiag  1:
 RMSU=  6.91D-05    CP:  6.61D-01  7.46D-01  6.55D-01  1.15D+00  9.32D-01
                    CP:  8.89D-01
 E= -576.412212823586     Delta-E=       -0.000018415323 Rises=F Damp=F
 DIIS: error= 5.21D-05 at cycle   7 NSaved=   7.
 NSaved= 7 IEnMin= 7 EnMin= -576.412212823586     IErMin= 7 ErrMin= 5.21D-05
 ErrMax= 5.21D-05  0.00D+00 EMaxC= 1.00D-01 BMatC= 4.97D-07 BMatP= 1.83D-05
 IDIUse=1 WtCom= 1.00D+00 WtEn= 0.00D+00
 Coeff-Com: -0.231D-03-0.446D-02-0.525D-02-0.102D-01-0.727D-02 0.111D+00
 Coeff-Com:  0.916D+00
 Coeff:     -0.231D-03-0.446D-02-0.525D-02-0.102D-01-0.727D-02 0.111D+00
 Coeff:      0.916D+00
 Gap=     0.326 Goal=   None    Shift=    0.000
 RMSDP=4.11D-05 MaxDP=3.31D-03 DE=-1.84D-05 OVMax= 5.42D-04

 Cycle   8  Pass 1  IDiag  1:
 RMSU=  1.48D-05    CP:  6.61D-01  7.47D-01  6.56D-01  1.16D+00  9.41D-01
                    CP:  1.01D+00  1.09D+00
 E= -576.412214013501     Delta-E=       -0.000001189915 Rises=F Damp=F
 DIIS: error= 1.28D-05 at cycle   8 NSaved=   8.
 NSaved= 8 IEnMin= 8 EnMin= -576.412214013501     IErMin= 8 ErrMin= 1.28D-05
 ErrMax= 1.28D-05  0.00D+00 EMaxC= 1.00D-01 BMatC= 8.40D-08 BMatP= 4.97D-07
 IDIUse=1 WtCom= 1.00D+00 WtEn= 0.00D+00
 Coeff-Com:  0.518D-04 0.772D-03 0.369D-03-0.127D-01-0.588D-01-0.229D-01
 Coeff-Com:  0.320D+00 0.774D+00
 Coeff:      0.518D-04 0.772D-03 0.369D-03-0.127D-01-0.588D-01-0.229D-01
 Coeff:      0.320D+00 0.774D+00
 Gap=     0.326 Goal=   None    Shift=    0.000
 RMSDP=1.40D-05 MaxDP=1.32D-03 DE=-1.19D-06 OVMax= 2.22D-04

 Cycle   9  Pass 1  IDiag  1:
 RMSU=  5.80D-06    CP:  6.61D-01  7.47D-01  6.56D-01  1.16D+00  9.39D-01
                    CP:  1.05D+00  1.14D+00  1.27D+00
 E= -576.412214178731     Delta-E=       -0.000000165230 Rises=F Damp=F
 DIIS: error= 5.30D-06 at cycle   9 NSaved=   9.
 NSaved= 9 IEnMin= 9 EnMin= -576.412214178731     IErMin= 9 ErrMin= 5.30D-06
 ErrMax= 5.30D-06  0.00D+00 EMaxC= 1.00D-01 BMatC= 5.94D-09 BMatP= 8.40D-08
 IDIUse=1 WtCom= 1.00D+00 WtEn= 0.00D+00
 Coeff-Com:  0.399D-04 0.707D-03 0.706D-03-0.861D-03-0.102D-01-0.160D-01
 Coeff-Com: -0.579D-01 0.148D+00 0.936D+00
 Coeff:      0.399D-04 0.707D-03 0.706D-03-0.861D-03-0.102D-01-0.160D-01
 Coeff:     -0.579D-01 0.148D+00 0.936D+00
 Gap=     0.326 Goal=   None    Shift=    0.000
 RMSDP=6.98D-06 MaxDP=5.20D-04 DE=-1.65D-07 OVMax= 7.52D-05

 Cycle  10  Pass 1  IDiag  1:
 RMSU=  1.97D-06    CP:  6.61D-01  7.47D-01  6.56D-01  1.16D+00  9.32D-01
                    CP:  1.05D+00  1.15D+00  1.46D+00  1.33D+00
 E= -576.412214194465     Delta-E=       -0.000000015734 Rises=F Damp=F
 DIIS: error= 8.66D-07 at cycle  10 NSaved=  10.
 NSaved=10 IEnMin=10 EnMin= -576.412214194465     IErMin=10 ErrMin= 8.66D-07
 ErrMax= 8.66D-07  0.00D+00 EMaxC= 1.00D-01 BMatC= 4.55D-10 BMatP= 5.94D-09
 IDIUse=1 WtCom= 1.00D+00 WtEn= 0.00D+00
 Coeff-Com: -0.113D-05 0.664D-05 0.311D-04 0.123D-02 0.404D-02 0.147D-02
 Coeff-Com: -0.296D-01-0.534D-01 0.101D+00 0.975D+00
 Coeff:     -0.113D-05 0.664D-05 0.311D-04 0.123D-02 0.404D-02 0.147D-02
 Coeff:     -0.296D-01-0.534D-01 0.101D+00 0.975D+00
 Gap=     0.326 Goal=   None    Shift=    0.000
 RMSDP=2.09D-06 MaxDP=2.01D-04 DE=-1.57D-08 OVMax= 1.48D-05

 Cycle  11  Pass 1  IDiag  1:
 RMSU=  6.92D-07    CP:  6.61D-01  7.47D-01  6.56D-01  1.16D+00  9.30D-01
                    CP:  1.05D+00  1.15D+00  1.51D+00  1.41D+00  1.11D+00
 E= -576.412214195568     Delta-E=       -0.000000001102 Rises=F Damp=F
 DIIS: error= 3.52D-07 at cycle  11 NSaved=  11.
 NSaved=11 IEnMin=11 EnMin= -576.412214195568     IErMin=11 ErrMin= 3.52D-07
 ErrMax= 3.52D-07  0.00D+00 EMaxC= 1.00D-01 BMatC= 7.32D-11 BMatP= 4.55D-10
 IDIUse=1 WtCom= 1.00D+00 WtEn= 0.00D+00
 Coeff-Com: -0.277D-05-0.383D-04-0.321D-04 0.505D-03 0.190D-02 0.146D-02
 Coeff-Com: -0.605D-02-0.293D-01-0.333D-01 0.322D+00 0.743D+00
 Coeff:     -0.277D-05-0.383D-04-0.321D-04 0.505D-03 0.190D-02 0.146D-02
 Coeff:     -0.605D-02-0.293D-01-0.333D-01 0.322D+00 0.743D+00
 Gap=     0.326 Goal=   None    Shift=    0.000
 RMSDP=5.32D-07 MaxDP=5.00D-05 DE=-1.10D-09 OVMax= 4.10D-06

 Cycle  12  Pass 1  IDiag  1:
 RMSU=  1.67D-07    CP:  6.61D-01  7.47D-01  6.56D-01  1.16D+00  9.29D-01
                    CP:  1.05D+00  1.14D+00  1.52D+00  1.45D+00  1.18D+00
                    CP:  1.15D+00
 E= -576.412214195668     Delta-E=       -0.000000000100 Rises=F Damp=F
 DIIS: error= 1.38D-07 at cycle  12 NSaved=  12.
 NSaved=12 IEnMin=12 EnMin= -576.412214195668     IErMin=12 ErrMin= 1.38D-07
 ErrMax= 1.38D-07  0.00D+00 EMaxC= 1.00D-01 BMatC= 6.38D-12 BMatP= 7.32D-11
 IDIUse=1 WtCom= 1.00D+00 WtEn= 0.00D+00
 Coeff-Com: -0.279D-06-0.775D-05-0.111D-04-0.577D-04-0.244D-03 0.495D-04
 Coeff-Com:  0.310D-02 0.211D-02-0.185D-01-0.714D-01 0.112D+00 0.973D+00
 Coeff:     -0.279D-06-0.775D-05-0.111D-04-0.577D-04-0.244D-03 0.495D-04
 Coeff:      0.310D-02 0.211D-02-0.185D-01-0.714D-01 0.112D+00 0.973D+00
 Gap=     0.326 Goal=   None    Shift=    0.000
 RMSDP=2.01D-07 MaxDP=1.68D-05 DE=-1.00D-10 OVMax= 2.16D-06

 Cycle  13  Pass 1  IDiag  1:
 RMSU=  6.56D-08    CP:  6.61D-01  7.47D-01  6.56D-01  1.16D+00  9.29D-01
                    CP:  1.05D+00  1.14D+00  1.52D+00  1.45D+00  1.20D+00
                    CP:  1.23D+00  1.23D+00
 E= -576.412214195692     Delta-E=       -0.000000000024 Rises=F Damp=F
 DIIS: error= 6.29D-08 at cycle  13 NSaved=  13.
 NSaved=13 IEnMin=13 EnMin= -576.412214195692     IErMin=13 ErrMin= 6.29D-08
 ErrMax= 6.29D-08  0.00D+00 EMaxC= 1.00D-01 BMatC= 1.46D-12 BMatP= 6.38D-12
 IDIUse=1 WtCom= 1.00D+00 WtEn= 0.00D+00
 Coeff-Com:  0.205D-06 0.110D-05-0.905D-06-0.781D-04-0.309D-03-0.163D-03
 Coeff-Com:  0.178D-02 0.404D-02-0.285D-02-0.627D-01-0.483D-01 0.384D+00
 Coeff-Com:  0.724D+00
 Coeff:      0.205D-06 0.110D-05-0.905D-06-0.781D-04-0.309D-03-0.163D-03
 Coeff:      0.178D-02 0.404D-02-0.285D-02-0.627D-01-0.483D-01 0.384D+00
 Coeff:      0.724D+00
 Gap=     0.326 Goal=   None    Shift=    0.000
 RMSDP=5.51D-08 MaxDP=7.02D-06 DE=-2.41D-11 OVMax= 8.07D-07

 Cycle  14  Pass 1  IDiag  1:
 RMSU=  2.17D-08    CP:  6.61D-01  7.47D-01  6.56D-01  1.16D+00  9.29D-01
                    CP:  1.05D+00  1.14D+00  1.52D+00  1.45D+00  1.20D+00
                    CP:  1.26D+00  1.26D+00  9.78D-01
 E= -576.412214195684     Delta-E=        0.000000000008 Rises=F Damp=F
 DIIS: error= 2.89D-08 at cycle  14 NSaved=  14.
 NSaved=14 IEnMin=13 EnMin= -576.412214195692     IErMin=14 ErrMin= 2.89D-08
 ErrMax= 2.89D-08  0.00D+00 EMaxC= 1.00D-01 BMatC= 1.46D-13 BMatP= 1.46D-12
 IDIUse=1 WtCom= 1.00D+00 WtEn= 0.00D+00
 Coeff-Com:  0.744D-07 0.136D-05 0.166D-05-0.101D-04-0.296D-04-0.501D-04
 Coeff-Com: -0.629D-04 0.523D-03 0.191D-02-0.338D-02-0.280D-01-0.596D-01
 Coeff-Com:  0.119D+00 0.970D+00
 Coeff:      0.744D-07 0.136D-05 0.166D-05-0.101D-04-0.296D-04-0.501D-04
 Coeff:     -0.629D-04 0.523D-03 0.191D-02-0.338D-02-0.280D-01-0.596D-01
 Coeff:      0.119D+00 0.970D+00
 Gap=     0.326 Goal=   None    Shift=    0.000
 RMSDP=2.50D-08 MaxDP=2.15D-06 DE= 7.50D-12 OVMax= 4.04D-07

 Cycle  15  Pass 1  IDiag  1:
 RMSU=  9.71D-09    CP:  6.61D-01  7.47D-01  6.56D-01  1.16D+00  9.29D-01
                    CP:  1.05D+00  1.14D+00  1.52D+00  1.45D+00  1.20D+00
                    CP:  1.26D+00  1.27D+00  1.15D+00  1.11D+00
 E= -576.412214195680     Delta-E=        0.000000000004 Rises=F Damp=F
 DIIS: error= 1.03D-08 at cycle  15 NSaved=  15.
 NSaved=15 IEnMin=13 EnMin= -576.412214195692     IErMin=15 ErrMin= 1.03D-08
 ErrMax= 1.03D-08  0.00D+00 EMaxC= 1.00D-01 BMatC= 3.68D-14 BMatP= 1.46D-13
 IDIUse=1 WtCom= 1.00D+00 WtEn= 0.00D+00
 Coeff-Com: -0.938D-08 0.342D-06 0.879D-06 0.105D-04 0.461D-04 0.126D-04
 Coeff-Com: -0.332D-03-0.527D-03 0.132D-02 0.106D-01-0.432D-03-0.869D-01
 Coeff-Com: -0.913D-01 0.352D+00 0.815D+00
 Coeff:     -0.938D-08 0.342D-06 0.879D-06 0.105D-04 0.461D-04 0.126D-04
 Coeff:     -0.332D-03-0.527D-03 0.132D-02 0.106D-01-0.432D-03-0.869D-01
 Coeff:     -0.913D-01 0.352D+00 0.815D+00
 Gap=     0.326 Goal=   None    Shift=    0.000
 RMSDP=1.21D-08 MaxDP=1.48D-06 DE= 4.09D-12 OVMax= 1.93D-07

 Cycle  16  Pass 1  IDiag  1:
 RMSU=  3.03D-09    CP:  6.61D-01  7.47D-01  6.56D-01  1.16D+00  9.29D-01
                    CP:  1.05D+00  1.14D+00  1.52D+00  1.45D+00  1.19D+00
                    CP:  1.26D+00  1.27D+00  1.17D+00  1.20D+00  1.36D+00
 E= -576.412214195691     Delta-E=       -0.000000000011 Rises=F Damp=F
 DIIS: error= 4.23D-09 at cycle  16 NSaved=  16.
 NSaved=16 IEnMin=13 EnMin= -576.412214195692     IErMin=16 ErrMin= 4.23D-09
 ErrMax= 4.23D-09  0.00D+00 EMaxC= 1.00D-01 BMatC= 3.11D-15 BMatP= 3.68D-14
 IDIUse=1 WtCom= 1.00D+00 WtEn= 0.00D+00
 Large coefficients: NSaved= 16 BigCof=    0.00 CofMax=   10.00 Det=-9.30D-15
 Inversion failed.  Reducing to 15 matrices.
 Coeff-Com: -0.677D-07-0.105D-06 0.126D-05 0.267D-05 0.686D-05 0.702D-05
 Coeff-Com: -0.712D-04-0.268D-03 0.312D-03 0.391D-02 0.845D-02-0.212D-01
 Coeff-Com: -0.154D+00-0.880D-02 0.117D+01
 Coeff:     -0.677D-07-0.105D-06 0.126D-05 0.267D-05 0.686D-05 0.702D-05
 Coeff:     -0.712D-04-0.268D-03 0.312D-03 0.391D-02 0.845D-02-0.212D-01
 Coeff:     -0.154D+00-0.880D-02 0.117D+01
 Gap=     0.326 Goal=   None    Shift=    0.000
 RMSDP=5.60D-09 MaxDP=7.57D-07 DE=-1.11D-11 OVMax= 1.17D-07

 SCF Done:  E(RwB97XD) =  -576.412214196     A.U. after   16 cycles
            NFock= 16  Conv=0.56D-08     -V/T= 2.0000
 KE= 5.764148029395D+02 PE=-2.909099296305D+03 EE= 9.727862946023D+02
 Leave Link  502 at Tue Nov 22 14:59:37 2022, MaxMem= 16106127360 cpu:            1248.3 elap:              39.2
 (Enter /opt/ap/G16/B01/g16/l601.exe)
 Copying SCF densities to generalized density rwf, IOpCl= 0 IROHF=0.

 **********************************************************************

            Population analysis using the SCF Density.

 **********************************************************************

 Orbital symmetries:
       Occupied  (A) (A) (A) (A) (A) (A) (A) (A) (A) (A) (A) (A)
                 (A) (A) (A) (A) (A) (A) (A) (A) (A) (A) (A) (A)
                 (A) (A) (A) (A) (A) (A) (A) (A) (A) (A) (A) (A)
                 (A) (A) (A) (A) (A) (A) (A) (A) (A) (A) (A) (A)
       Virtual   (A) (A) (A) (A) (A) (A) (A) (A) (A) (A) (A) (A)
                 (A) (A) (A) (A) (A) (A) (A) (A) (A) (A) (A) (A)
                 (A) (A) (A) (A) (A) (A) (A) (A) (A) (A) (A) (A)
                 (A) (A) (A) (A) (A) (A) (A) (A) (A) (A) (A) (A)
                 (A) (A) (A) (A) (A) (A) (A) (A) (A) (A) (A) (A)
                 (A) (A) (A) (A) (A) (A) (A) (A) (A) (A) (A) (A)
                 (A) (A) (A) (A) (A) (A) (A) (A) (A) (A) (A) (A)
                 (A) (A) (A) (A) (A) (A) (A) (A) (A) (A) (A) (A)
                 (A) (A) (A) (A) (A) (A) (A) (A) (A) (A) (A) (A)
                 (A) (A) (A) (A) (A) (A) (A) (A) (A) (A) (A) (A)
                 (A) (A) (A) (A) (A) (A) (A) (A) (A) (A) (A) (A)
                 (A) (A) (A) (A) (A) (A) (A) (A) (A) (A) (A) (A)
                 (A) (A) (A) (A) (A) (A) (A) (A) (A) (A) (A) (A)
                 (A) (A) (A) (A) (A) (A) (A) (A) (A) (A) (A) (A)
                 (A) (A) (A) (A) (A) (A) (A) (A) (A) (A) (A) (A)
                 (A) (A) (A) (A) (A) (A) (A) (A) (A) (A) (A) (A)
                 (A) (A) (A) (A) (A) (A) (A) (A) (A) (A) (A) (A)
                 (A) (A) (A) (A) (A) (A) (A) (A) (A) (A) (A) (A)
                 (A) (A) (A) (A) (A) (A) (A) (A) (A) (A) (A) (A)
                 (A) (A) (A) (A) (A) (A) (A) (A) (A) (A) (A) (A)
                 (A) (A) (A) (A) (A) (A) (A) (A) (A) (A) (A) (A)
                 (A) (A) (A) (A) (A) (A) (A) (A) (A) (A) (A) (A)
                 (A) (A) (A) (A) (A) (A) (A) (A) (A) (A) (A) (A)
                 (A) (A) (A) (A) (A) (A) (A) (A) (A) (A) (A) (A)
                 (A) (A) (A) (A) (A) (A) (A) (A) (A) (A) (A) (A)
                 (A) (A) (A) (A) (A) (A) (A) (A) (A) (A) (A) (A)
                 (A) (A) (A) (A) (A) (A) (A) (A) (A) (A) (A) (A)
                 (A) (A) (A) (A)
 The electronic state is 1-A.
 Alpha  occ. eigenvalues --  -19.24161 -10.38451 -10.30733 -10.30679 -10.29061
 Alpha  occ. eigenvalues --  -10.28825 -10.28704 -10.28532 -10.28531 -10.28517
 Alpha  occ. eigenvalues --  -10.28415 -10.28313 -10.28176 -10.28113  -1.15107
 Alpha  occ. eigenvalues --   -0.97985  -0.97433  -0.89211  -0.87469  -0.87340
 Alpha  occ. eigenvalues --   -0.86804  -0.76862  -0.74137  -0.73505  -0.72552
 Alpha  occ. eigenvalues --   -0.68135  -0.65387  -0.63302  -0.60187  -0.57082
 Alpha  occ. eigenvalues --   -0.56376  -0.55734  -0.54229  -0.54066  -0.53691
 Alpha  occ. eigenvalues --   -0.52509  -0.49368  -0.47243  -0.46887  -0.46058
 Alpha  occ. eigenvalues --   -0.45857  -0.44805  -0.44413  -0.35247  -0.34586
 Alpha  occ. eigenvalues --   -0.34409  -0.34164  -0.32875
 Alpha virt. eigenvalues --   -0.00314   0.03569   0.04023   0.04336   0.04635
 Alpha virt. eigenvalues --    0.04783   0.04914   0.05710   0.05865   0.07115
 Alpha virt. eigenvalues --    0.07459   0.08124   0.09144   0.09453   0.10256
 Alpha virt. eigenvalues --    0.11560   0.11863   0.12223   0.13237   0.14172
 Alpha virt. eigenvalues --    0.15093   0.15474   0.15674   0.16133   0.16599
 Alpha virt. eigenvalues --    0.16900   0.16988   0.17296   0.17536   0.17884
 Alpha virt. eigenvalues --    0.18055   0.18588   0.18833   0.19020   0.19318
 Alpha virt. eigenvalues --    0.19879   0.20100   0.20663   0.21350   0.21416
 Alpha virt. eigenvalues --    0.21763   0.22155   0.22696   0.23387   0.23729
 Alpha virt. eigenvalues --    0.24245   0.24592   0.24784   0.25258   0.25459
 Alpha virt. eigenvalues --    0.25765   0.26926   0.27141   0.27612   0.28350
 Alpha virt. eigenvalues --    0.29092   0.29308   0.29925   0.30579   0.31062
 Alpha virt. eigenvalues --    0.31366   0.32002   0.32516   0.32927   0.33851
 Alpha virt. eigenvalues --    0.33986   0.34679   0.35490   0.35581   0.35792
 Alpha virt. eigenvalues --    0.37019   0.37363   0.37537   0.38167   0.38422
 Alpha virt. eigenvalues --    0.38788   0.39284   0.40638   0.41533   0.41624
 Alpha virt. eigenvalues --    0.42162   0.43007   0.43382   0.44691   0.44842
 Alpha virt. eigenvalues --    0.45486   0.45872   0.47065   0.47730   0.48510
 Alpha virt. eigenvalues --    0.51097   0.56357   0.56908   0.57918   0.59983
 Alpha virt. eigenvalues --    0.61077   0.62348   0.62696   0.63140   0.63625
 Alpha virt. eigenvalues --    0.64198   0.64383   0.65148   0.65456   0.65681
 Alpha virt. eigenvalues --    0.66504   0.67500   0.67969   0.68475   0.69641
 Alpha virt. eigenvalues --    0.70338   0.71747   0.72496   0.73895   0.75114
 Alpha virt. eigenvalues --    0.75184   0.76743   0.77094   0.78071   0.79053
 Alpha virt. eigenvalues --    0.79352   0.80634   0.81023   0.82054   0.82565
 Alpha virt. eigenvalues --    0.83284   0.83882   0.84444   0.86713   0.87674
 Alpha virt. eigenvalues --    0.88833   0.90236   0.92408   0.93279   0.93688
 Alpha virt. eigenvalues --    0.94170   0.94344   0.94908   0.95435   0.95678
 Alpha virt. eigenvalues --    0.96768   0.97089   0.99526   1.00500   1.01643
 Alpha virt. eigenvalues --    1.02122   1.02866   1.03613   1.04479   1.05466
 Alpha virt. eigenvalues --    1.06209   1.08988   1.10797   1.12247   1.13171
 Alpha virt. eigenvalues --    1.13996   1.16261   1.16747   1.17742   1.18574
 Alpha virt. eigenvalues --    1.19132   1.21564   1.22083   1.24001   1.25192
 Alpha virt. eigenvalues --    1.28084   1.30663   1.33258   1.36311   1.39004
 Alpha virt. eigenvalues --    1.40339   1.43873   1.46455   1.48115   1.55381
 Alpha virt. eigenvalues --    1.56450   1.59151   1.59525   1.59702   1.61770
 Alpha virt. eigenvalues --    1.62209   1.64013   1.65202   1.66035   1.66900
 Alpha virt. eigenvalues --    1.68014   1.68563   1.68901   1.69174   1.73465
 Alpha virt. eigenvalues --    1.75731   1.76282   1.76641   1.76843   1.78845
 Alpha virt. eigenvalues --    1.79122   1.81224   1.85697   1.86969   1.89042
 Alpha virt. eigenvalues --    1.89192   1.90916   1.92151   1.92436   1.94353
 Alpha virt. eigenvalues --    1.95723   1.96550   1.97661   1.99787   2.00703
 Alpha virt. eigenvalues --    2.01787   2.03236   2.04655   2.04969   2.05498
 Alpha virt. eigenvalues --    2.06096   2.06969   2.08400   2.09446   2.10428
 Alpha virt. eigenvalues --    2.11705   2.14646   2.15958   2.19416   2.21737
 Alpha virt. eigenvalues --    2.22306   2.25595   2.27407   2.27521   2.30892
 Alpha virt. eigenvalues --    2.31852   2.42590   2.43871   2.47370   2.48248
 Alpha virt. eigenvalues --    2.49472   2.50053   2.50766   2.50979   2.53626
 Alpha virt. eigenvalues --    2.58779   2.59307   2.60856   2.66906   2.68497
 Alpha virt. eigenvalues --    2.73392   2.76939   2.78227   2.81151   2.82536
 Alpha virt. eigenvalues --    2.83117   2.83274   2.84367   2.87703   2.88474
 Alpha virt. eigenvalues --    2.91569   2.91998   2.93780   2.95029   2.95753
 Alpha virt. eigenvalues --    2.97622   2.97903   2.98908   2.99963   3.00374
 Alpha virt. eigenvalues --    3.00455   3.01507   3.01867   3.02622   3.05138
 Alpha virt. eigenvalues --    3.05579   3.10219   3.13003   3.14262   3.17416
 Alpha virt. eigenvalues --    3.19808   3.21878   3.22826   3.25193   3.25986
 Alpha virt. eigenvalues --    3.28122   3.30823   3.33006   3.36594   3.44906
 Alpha virt. eigenvalues --    3.48542   3.50202   3.51653   3.53003   3.64614
 Alpha virt. eigenvalues --    3.69038   3.70759   3.72361   3.75528   3.77173
 Alpha virt. eigenvalues --    3.83475   3.89124   3.90604   3.98662   4.30784
 Alpha virt. eigenvalues --    4.36705   4.37496   4.39089   4.40733   4.42291
 Alpha virt. eigenvalues --    4.42716   4.50671   4.51442   4.53036   4.95170
 Alpha virt. eigenvalues --    4.95634   5.23202   5.35254   5.84585  23.88220
 Alpha virt. eigenvalues --   23.96426  23.98552  24.17135  24.19126  24.24181
 Alpha virt. eigenvalues --   24.24831  24.30152  24.31216  24.33999  24.34139
 Alpha virt. eigenvalues --   24.43583  24.44348  50.13667
          Condensed to atoms (all electrons):
               1          2          3          4          5          6
     1  C   14.428542  -0.783846   0.492458  -0.774824   0.017146  -5.666620
     2  C   -0.783846   9.539314  -3.588041   0.036495   0.406354   0.194932
     3  C    0.492458  -3.588041  14.455066  -0.283316   0.062699  -5.797058
     4  C   -0.774824   0.036495  -0.283316   6.005843  -0.075705   0.618950
     5  H    0.017146   0.406354   0.062699  -0.075705   0.512076  -0.084755
     6  C   -5.666620   0.194932  -5.797058   0.618950  -0.084755  21.233528
     7  C   -0.692478   0.582915  -1.270179  -0.002356   0.009574   0.900536
     8  H    0.108215  -0.003860   0.520531  -0.010763   0.000040  -0.122655
     9  C   -0.250579  -0.684070   0.987372   0.417127  -0.026757  -0.747151
    10  H   -0.013623  -0.068962  -0.020013   0.478060  -0.007967   0.024642
    11  C   -2.077797   0.712865   1.148506   0.041579   0.053799  -4.591172
    12  O    0.220378   0.143215  -0.163687   0.020673  -0.006219   0.204855
    13  H    0.001533   0.012770  -0.114549   0.019355   0.001665   0.031003
    14  H    0.039942  -0.004831   0.025949  -0.087669  -0.000316  -0.027795
    15  C    1.880399  -0.852882   0.863468  -0.171747  -0.055062  -1.044778
    16  C   -1.423418   0.348899  -0.615064   0.069548   0.008548   0.857385
    17  C    0.009339  -0.073796  -0.376044  -0.014826  -0.024350   0.887567
    18  H    0.052859  -0.023479   0.064956  -0.045118  -0.015125  -0.039649
    19  C   -0.576346   0.206090  -0.068991  -0.002119   0.004625  -0.166102
    20  H   -0.026163   0.009963  -0.047193   0.001434  -0.001269   0.052430
    21  C    0.154209  -0.158625   0.099938  -0.005350  -0.001851   0.141879
    22  H   -0.025833   0.016112  -0.012079   0.004762   0.001285   0.005708
    23  H   -0.001123   0.002198   0.004042  -0.000334   0.000495  -0.010076
    24  H    0.005647  -0.005005   0.002309  -0.000487  -0.000105   0.000496
               7          8          9         10         11         12
     1  C   -0.692478   0.108215  -0.250579  -0.013623  -2.077797   0.220378
     2  C    0.582915  -0.003860  -0.684070  -0.068962   0.712865   0.143215
     3  C   -1.270179   0.520531   0.987372  -0.020013   1.148506  -0.163687
     4  C   -0.002356  -0.010763   0.417127   0.478060   0.041579   0.020673
     5  H    0.009574   0.000040  -0.026757  -0.007967   0.053799  -0.006219
     6  C    0.900536  -0.122655  -0.747151   0.024642  -4.591172   0.204855
     7  C    6.655790  -0.171383  -0.054731   0.019202  -0.198131  -0.048200
     8  H   -0.171383   0.493206   0.013098   0.000199  -0.001850  -0.011498
     9  C   -0.054731   0.013098   6.047071  -0.072056   0.238333   0.009605
    10  H    0.019202   0.000199  -0.072056   0.487748   0.003437   0.000240
    11  C   -0.198131  -0.001850   0.238333   0.003437  14.111981  -0.002892
    12  O   -0.048200  -0.011498   0.009605   0.000240  -0.002892   7.926417
    13  H    0.500934  -0.017743  -0.094822   0.000513  -0.004978   0.000154
    14  H   -0.088393   0.002438   0.484827  -0.013945   0.001143   0.000041
    15  C   -0.183160   0.050337   0.084450  -0.012995  -1.309841  -0.099034
    16  C    0.237775  -0.061437  -0.068454   0.002632  -0.345755   0.031627
    17  C    0.086533  -0.011315  -0.079322   0.005668  -2.234669  -0.044441
    18  H    0.004560  -0.002081   0.020492  -0.004186  -0.057956  -0.000477
    19  C    0.036104  -0.006720   0.000483  -0.000181  -0.042327   0.023647
    20  H   -0.002329  -0.001327  -0.001006  -0.000060  -0.001961  -0.018423
    21  C    0.001503   0.000871  -0.005900   0.000936  -0.645344  -0.008326
    22  H   -0.000768   0.000005   0.000190   0.000126   0.071783   0.000343
    23  H    0.000251  -0.000046   0.000236  -0.000006  -0.002115   0.002763
    24  H    0.000230  -0.000001  -0.000097   0.000002   0.003492  -0.000318
              13         14         15         16         17         18
     1  C    0.001533   0.039942   1.880399  -1.423418   0.009339   0.052859
     2  C    0.012770  -0.004831  -0.852882   0.348899  -0.073796  -0.023479
     3  C   -0.114549   0.025949   0.863468  -0.615064  -0.376044   0.064956
     4  C    0.019355  -0.087669  -0.171747   0.069548  -0.014826  -0.045118
     5  H    0.001665  -0.000316  -0.055062   0.008548  -0.024350  -0.015125
     6  C    0.031003  -0.027795  -1.044778   0.857385   0.887567  -0.039649
     7  C    0.500934  -0.088393  -0.183160   0.237775   0.086533   0.004560
     8  H   -0.017743   0.002438   0.050337  -0.061437  -0.011315  -0.002081
     9  C   -0.094822   0.484827   0.084450  -0.068454  -0.079322   0.020492
    10  H    0.000513  -0.013945  -0.012995   0.002632   0.005668  -0.004186
    11  C   -0.004978   0.001143  -1.309841  -0.345755  -2.234669  -0.057956
    12  O    0.000154   0.000041  -0.099034   0.031627  -0.044441  -0.000477
    13  H    0.490464  -0.015526  -0.009699   0.008255   0.002940  -0.000632
    14  H   -0.015526   0.498471   0.003749  -0.003116  -0.002179  -0.000324
    15  C   -0.009699   0.003749  14.106716  -4.618530  -2.042651   0.618557
    16  C    0.008255  -0.003116  -4.618530   9.724984   1.276168  -0.060246
    17  C    0.002940  -0.002179  -2.042651   1.276168   8.478070  -0.123973
    18  H   -0.000632  -0.000324   0.618557  -0.060246  -0.123973   0.620045
    19  C    0.000375  -0.000238  -0.242203   0.616493  -0.546810   0.024684
    20  H   -0.000034   0.000020   0.007676   0.435559   0.049063  -0.002645
    21  C    0.000229  -0.000202   0.218568  -0.652833   0.673097  -0.006351
    22  H   -0.000017   0.000056  -0.117684   0.044935   0.409853  -0.028449
    23  H    0.000003   0.000003  -0.021136  -0.051840  -0.003147  -0.000906
    24  H    0.000010  -0.000006  -0.033738  -0.015205  -0.035687  -0.000122
              19         20         21         22         23         24
     1  C   -0.576346  -0.026163   0.154209  -0.025833  -0.001123   0.005647
     2  C    0.206090   0.009963  -0.158625   0.016112   0.002198  -0.005005
     3  C   -0.068991  -0.047193   0.099938  -0.012079   0.004042   0.002309
     4  C   -0.002119   0.001434  -0.005350   0.004762  -0.000334  -0.000487
     5  H    0.004625  -0.001269  -0.001851   0.001285   0.000495  -0.000105
     6  C   -0.166102   0.052430   0.141879   0.005708  -0.010076   0.000496
     7  C    0.036104  -0.002329   0.001503  -0.000768   0.000251   0.000230
     8  H   -0.006720  -0.001327   0.000871   0.000005  -0.000046  -0.000001
     9  C    0.000483  -0.001006  -0.005900   0.000190   0.000236  -0.000097
    10  H   -0.000181  -0.000060   0.000936   0.000126  -0.000006   0.000002
    11  C   -0.042327  -0.001961  -0.645344   0.071783  -0.002115   0.003492
    12  O    0.023647  -0.018423  -0.008326   0.000343   0.002763  -0.000318
    13  H    0.000375  -0.000034   0.000229  -0.000017   0.000003   0.000010
    14  H   -0.000238   0.000020  -0.000202   0.000056   0.000003  -0.000006
    15  C   -0.242203   0.007676   0.218568  -0.117684  -0.021136  -0.033738
    16  C    0.616493   0.435559  -0.652833   0.044935  -0.051840  -0.015205
    17  C   -0.546810   0.049063   0.673097   0.409853  -0.003147  -0.035687
    18  H    0.024684  -0.002645  -0.006351  -0.028449  -0.000906  -0.000122
    19  C    6.709674  -0.139107   0.180292   0.013525   0.505174  -0.093046
    20  H   -0.139107   0.465224   0.010628   0.000581  -0.015208   0.002188
    21  C    0.180292   0.010628   5.904158  -0.086674  -0.078773   0.523583
    22  H    0.013525   0.000581  -0.086674   0.493675   0.001584  -0.014949
    23  H    0.505174  -0.015208  -0.078773   0.001584   0.485914  -0.017369
    24  H   -0.093046   0.002188   0.523583  -0.014949  -0.017369   0.498963
 Mulliken charges:
               1
     1  C    0.901980
     2  C    0.035274
     3  C   -0.371081
     4  C   -0.239212
     5  H    0.221173
     6  C   -0.856100
     7  C   -0.323799
     8  H    0.233740
     9  C   -0.218339
    10  H    0.190588
    11  C    1.129871
    12  O   -0.180447
    13  H    0.187794
    14  H    0.187901
    15  C   -1.018782
    16  C    0.253088
    17  C   -0.265090
    18  H    0.005564
    19  C   -0.436978
    20  H    0.221960
    21  C   -0.259663
    22  H    0.221928
    23  H    0.199415
    24  H    0.179215
 Sum of Mulliken charges =  -0.00000
 Mulliken charges with hydrogens summed into heavy atoms:
               1
     1  C    0.901980
     2  C    0.256447
     3  C   -0.137341
     4  C   -0.048624
     6  C   -0.856100
     7  C   -0.136005
     9  C   -0.030437
    11  C    1.129871
    12  O   -0.180447
    15  C   -1.013218
    16  C    0.475048
    17  C   -0.043161
    19  C   -0.237563
    21  C   -0.080448
 Electronic spatial extent (au):  <R**2>=           3015.0522
 Charge=             -0.0000 electrons
 Dipole moment (field-independent basis, Debye):
    X=             -0.2001    Y=             -2.9731    Z=             -1.5276  Tot=              3.3486
 Quadrupole moment (field-independent basis, Debye-Ang):
   XX=            -66.0201   YY=            -79.8626   ZZ=            -83.2767
   XY=             -1.2558   XZ=             -0.6396   YZ=             -7.6119
 Traceless Quadrupole moment (field-independent basis, Debye-Ang):
   XX=             10.3664   YY=             -3.4761   ZZ=             -6.8902
   XY=             -1.2558   XZ=             -0.6396   YZ=             -7.6119
 Octapole moment (field-independent basis, Debye-Ang**2):
  XXX=            -13.1428  YYY=            -19.0135  ZZZ=              3.4208  XYY=             -4.4956
  XXY=             -8.6018  XXZ=            -24.6228  XZZ=              7.9986  YZZ=              0.5223
  YYZ=             -8.4017  XYZ=             -6.7117
 Hexadecapole moment (field-independent basis, Debye-Ang**3):
 XXXX=          -2817.2194 YYYY=           -723.6364 ZZZZ=           -266.0577 XXXY=            -34.8135
 XXXZ=            -15.9878 YYYX=             -0.9071 YYYZ=            -34.1484 ZZZX=            -10.8327
 ZZZY=             -6.6741 XXYY=           -580.4357 XXZZ=           -583.1691 YYZZ=           -171.0632
 XXYZ=            -18.0525 YYXZ=              6.6685 ZZXY=              1.0494
 N-N= 7.834859845673D+02 E-N=-2.909099296109D+03  KE= 5.764148029395D+02
 No NMR shielding tensors so no spin-rotation constants.
 Leave Link  601 at Tue Nov 22 14:59:38 2022, MaxMem= 16106127360 cpu:               4.5 elap:               0.2
 (Enter /opt/ap/G16/B01/g16/l9999.exe)
 1\1\GINC-N18\SP\RwB97XD\6-311++G(d,p)\C13H10O1\ROOT\22-Nov-2022\0\\#P 
 wB97XD/6-311++G(d,p) scf=maxcycle=512\\_conf006.gjf nmol_natom 1_24\\0
 ,1\C\C,1,1.39746343\C,1,1.39996263,2,119.28066518\C,2,1.39288453,1,120
 .37436646,3,-0.51002981,0\H,2,0.95014703,1,119.82324024,3,179.45634896
 ,0\C,1,1.49653039,2,122.77761373,4,174.46828757,0\C,3,1.3870125,1,120.
 10017821,2,-0.37315804,0\H,3,0.9501092,1,119.95246451,2,179.5923884,0\
 C,7,1.38720039,3,120.16568731,1,1.0745106,0\H,4,0.95011919,2,120.18755
 644,1,-179.31195299,0\C,6,1.49516902,1,120.70972921,2,-60.,0\O,6,1.221
 50059,1,119.67074267,2,120.,0\H,7,0.94956661,3,119.91274826,1,-178.886
 36029,0\H,9,0.94992259,7,119.76037934,3,179.10763853,0\C,11,1.39713972
 ,6,122.62585705,1,30.97749054,0\C,11,1.40039562,6,117.74753532,1,-153.
 15467779,0\C,15,1.39455701,11,119.80747484,6,175.4763048,0\H,15,0.9496
 2854,11,120.10535689,6,-4.50802339,0\C,16,1.38466431,11,120.4617377,6,
 -176.88197195,0\H,16,0.9497464,11,119.75779177,6,3.14699974,0\C,17,1.3
 9088945,15,120.3475273,11,0.7973643,0\H,17,0.94984298,15,119.8156451,1
 1,-179.16676483,0\H,19,0.94974749,16,119.98566335,11,-178.40987425,0\H
 ,21,0.94938585,17,120.0744529,15,179.91636093,0\\Version=ES64L-G16RevB
 .01\State=1-A\HF=-576.4122142\RMSD=5.597e-09\Dipole=0.2333137,-1.07029
 23,0.7319205\Quadrupole=4.6454576,-6.8626983,2.2172408,5.7572704,0.962
 3184,2.9012253\PG=C01 [X(C13H10O1)]\\@


 THERE ARE TWO THINGS THAT EVERYBODY THINKS THEY CAN DO BETTER THAN
 ANYONE ELSE - PUNCH THE FIRE, AND EDIT A DAILY PAPER.
 -- UNCLE ESEK, "CENTURY MAGAZINE", 1885
 Job cpu time:       0 days  0 hours 21 minutes 37.6 seconds.
 Elapsed time:       0 days  0 hours  0 minutes 40.8 seconds.
 File lengths (MBytes):  RWF=     78 Int=      0 D2E=      0 Chk=      9 Scr=      1
 Normal termination of Gaussian 16 at Tue Nov 22 14:59:38 2022.
