 Entering Gaussian System, Link 0=g16
 Input=_conf011.gjf
 Output=_conf011.log
 Initial command:
 /opt/ap/G16/B01/g16/l1.exe "/tmp2/scr/Gau-15648.inp" -scrdir="/tmp2/scr/"
 Entering Link 1 = /opt/ap/G16/B01/g16/l1.exe PID=     15649.
  
 Copyright (c) 1988-2017, Gaussian, Inc.  All Rights Reserved.
  
 This is part of the Gaussian(R) 16 program.  It is based on
 the Gaussian(R) 09 system (copyright 2009, Gaussian, Inc.),
 the Gaussian(R) 03 system (copyright 2003, Gaussian, Inc.),
 the Gaussian(R) 98 system (copyright 1998, Gaussian, Inc.),
 the Gaussian(R) 94 system (copyright 1995, Gaussian, Inc.),
 the Gaussian 92(TM) system (copyright 1992, Gaussian, Inc.),
 the Gaussian 90(TM) system (copyright 1990, Gaussian, Inc.),
 the Gaussian 88(TM) system (copyright 1988, Gaussian, Inc.),
 the Gaussian 86(TM) system (copyright 1986, Carnegie Mellon
 University), and the Gaussian 82(TM) system (copyright 1983,
 Carnegie Mellon University). Gaussian is a federally registered
 trademark of Gaussian, Inc.
  
 This software contains proprietary and confidential information,
 including trade secrets, belonging to Gaussian, Inc.
  
 This software is provided under written license and may be
 used, copied, transmitted, or stored only in accord with that
 written license.
  
 The following legend is applicable only to US Government
 contracts under FAR:
  
                    RESTRICTED RIGHTS LEGEND
  
 Use, reproduction and disclosure by the US Government is
 subject to restrictions as set forth in subparagraphs (a)
 and (c) of the Commercial Computer Software - Restricted
 Rights clause in FAR 52.227-19.
  
 Gaussian, Inc.
 340 Quinnipiac St., Bldg. 40, Wallingford CT 06492
  
  
 ---------------------------------------------------------------
 Warning -- This program may not be used in any manner that
 competes with the business of Gaussian, Inc. or will provide
 assistance to any competitor of Gaussian, Inc.  The licensee
 of this program is prohibited from giving any competitor of
 Gaussian, Inc. access to this program.  By using this program,
 the user acknowledges that Gaussian, Inc. is engaged in the
 business of creating and licensing software in the field of
 computational chemistry and represents and warrants to the
 licensee that it is not a competitor of Gaussian, Inc. and that
 it will not use this program in any manner prohibited above.
 ---------------------------------------------------------------
  

 Cite this work as:
 Gaussian 16, Revision B.01,
 M. J. Frisch, G. W. Trucks, H. B. Schlegel, G. E. Scuseria, 
 M. A. Robb, J. R. Cheeseman, G. Scalmani, V. Barone, 
 G. A. Petersson, H. Nakatsuji, X. Li, M. Caricato, A. V. Marenich, 
 J. Bloino, B. G. Janesko, R. Gomperts, B. Mennucci, H. P. Hratchian, 
 J. V. Ortiz, A. F. Izmaylov, J. L. Sonnenberg, D. Williams-Young, 
 F. Ding, F. Lipparini, F. Egidi, J. Goings, B. Peng, A. Petrone, 
 T. Henderson, D. Ranasinghe, V. G. Zakrzewski, J. Gao, N. Rega, 
 G. Zheng, W. Liang, M. Hada, M. Ehara, K. Toyota, R. Fukuda, 
 J. Hasegawa, M. Ishida, T. Nakajima, Y. Honda, O. Kitao, H. Nakai, 
 T. Vreven, K. Throssell, J. A. Montgomery, Jr., J. E. Peralta, 
 F. Ogliaro, M. J. Bearpark, J. J. Heyd, E. N. Brothers, K. N. Kudin, 
 V. N. Staroverov, T. A. Keith, R. Kobayashi, J. Normand, 
 K. Raghavachari, A. P. Rendell, J. C. Burant, S. S. Iyengar, 
 J. Tomasi, M. Cossi, J. M. Millam, M. Klene, C. Adamo, R. Cammi, 
 J. W. Ochterski, R. L. Martin, K. Morokuma, O. Farkas, 
 J. B. Foresman, and D. J. Fox, Gaussian, Inc., Wallingford CT, 2016.
 
 ******************************************
 Gaussian 16:  ES64L-G16RevB.01 20-Dec-2017
                22-Nov-2022 
 ******************************************
 %nprocshared=32
 Will use up to   32 processors via shared memory.
 %mem=120GB
 %chk=_conf011.chk
 ----------------------------------------
 #P wB97XD/6-311++G(d,p) scf=maxcycle=512
 ----------------------------------------
 1/38=1,172=1/1;
 2/12=2,17=6,18=5,40=1/2;
 3/5=4,6=6,7=1111,11=2,25=1,30=1,74=-58/1,2,3;
 4//1;
 5/5=2,7=512,38=5/2;
 6/7=2,8=2,9=2,10=2,28=1/1;
 99/5=1,9=1/99;
 Leave Link    1 at Tue Nov 22 14:59:37 2022, MaxMem= 16106127360 cpu:               1.5 elap:               0.1
 (Enter /opt/ap/G16/B01/g16/l101.exe)
 ----------------------------
 _conf011.gjf nmol_natom 1_24
 ----------------------------
 Symbolic Z-matrix:
 Charge =  0 Multiplicity = 1
 C
 C                    1     1.39746 
 C                    1     1.39996  2     119.28067 
 C                    2     1.39288  1     120.37437  3    -0.51003  0
 H                    2     0.95015  1     119.82324  3     179.45635  0
 C                    1     1.49653  2     122.77761  4     174.46829  0
 C                    3     1.38701  1     120.10018  2    -0.37316  0
 H                    3     0.95011  1     119.95246  2     179.59239  0
 C                    7     1.3872   3     120.16569  1     1.07451  0
 H                    4     0.95012  2     120.18756  1    -179.31195  0
 C                    6     1.49517  1     120.70973  2    -35.      0
 O                    6     1.2215   1     119.67074  2     145.     0
 H                    7     0.94957  3     119.91275  1    -178.88636  0
 H                    9     0.94992  7     119.76038  3     179.10764  0
 C                    11    1.39714  6     122.62586  1     30.97749  0
 C                    11    1.4004   6     117.74754  1    -153.15468  0
 C                    15    1.39456  11    119.80747  6     175.4763  0
 H                    15    0.94963  11    120.10536  6    -4.50802  0
 C                    16    1.38466  11    120.46174  6    -176.88197  0
 H                    16    0.94975  11    119.75779  6     3.147    0
 C                    17    1.39089  15    120.34753  11    0.79736  0
 H                    17    0.94984  15    119.81565  11   -179.16676  0
 H                    19    0.94975  16    119.98566  11   -178.40987  0
 H                    21    0.94939  17    120.07445  15    179.91636  0
 
 ITRead=  0  0  0  0  0  0  0  0  0  0  0  0  0  0  0  0  0  0  0  0
 ITRead=  0  0  0  0
 MicOpt= -1 -1 -1 -1 -1 -1 -1 -1 -1 -1 -1 -1 -1 -1 -1 -1 -1 -1 -1 -1
 MicOpt= -1 -1 -1 -1
 NAtoms=     24 NQM=       24 NQMF=       0 NMMI=      0 NMMIF=      0
                NMic=       0 NMicF=      0.
                    Isotopes and Nuclear Properties:
 (Nuclear quadrupole moments (NQMom) in fm**2, nuclear magnetic moments (NMagM)
  in nuclear magnetons)

  Atom         1           2           3           4           5           6           7           8           9          10
 IAtWgt=          12          12          12          12           1          12          12           1          12           1
 AtmWgt=  12.0000000  12.0000000  12.0000000  12.0000000   1.0078250  12.0000000  12.0000000   1.0078250  12.0000000   1.0078250
 NucSpn=           0           0           0           0           1           0           0           1           0           1
 AtZEff=  -0.0000000  -0.0000000  -0.0000000  -0.0000000  -0.0000000  -0.0000000  -0.0000000  -0.0000000  -0.0000000  -0.0000000
 NQMom=    0.0000000   0.0000000   0.0000000   0.0000000   0.0000000   0.0000000   0.0000000   0.0000000   0.0000000   0.0000000
 NMagM=    0.0000000   0.0000000   0.0000000   0.0000000   2.7928460   0.0000000   0.0000000   2.7928460   0.0000000   2.7928460
 AtZNuc=   6.0000000   6.0000000   6.0000000   6.0000000   1.0000000   6.0000000   6.0000000   1.0000000   6.0000000   1.0000000

  Atom        11          12          13          14          15          16          17          18          19          20
 IAtWgt=          12          16           1           1          12          12          12           1          12           1
 AtmWgt=  12.0000000  15.9949146   1.0078250   1.0078250  12.0000000  12.0000000  12.0000000   1.0078250  12.0000000   1.0078250
 NucSpn=           0           0           1           1           0           0           0           1           0           1
 AtZEff=  -0.0000000  -0.0000000  -0.0000000  -0.0000000  -0.0000000  -0.0000000  -0.0000000  -0.0000000  -0.0000000  -0.0000000
 NQMom=    0.0000000   0.0000000   0.0000000   0.0000000   0.0000000   0.0000000   0.0000000   0.0000000   0.0000000   0.0000000
 NMagM=    0.0000000   0.0000000   2.7928460   2.7928460   0.0000000   0.0000000   0.0000000   2.7928460   0.0000000   2.7928460
 AtZNuc=   6.0000000   8.0000000   1.0000000   1.0000000   6.0000000   6.0000000   6.0000000   1.0000000   6.0000000   1.0000000

  Atom        21          22          23          24
 IAtWgt=          12           1           1           1
 AtmWgt=  12.0000000   1.0078250   1.0078250   1.0078250
 NucSpn=           0           1           1           1
 AtZEff=  -0.0000000  -0.0000000  -0.0000000  -0.0000000
 NQMom=    0.0000000   0.0000000   0.0000000   0.0000000
 NMagM=    0.0000000   2.7928460   2.7928460   2.7928460
 AtZNuc=   6.0000000   1.0000000   1.0000000   1.0000000
 Leave Link  101 at Tue Nov 22 14:59:37 2022, MaxMem= 16106127360 cpu:               5.2 elap:               0.2
 (Enter /opt/ap/G16/B01/g16/l202.exe)
                          Input orientation:                          
 ---------------------------------------------------------------------
 Center     Atomic      Atomic             Coordinates (Angstroms)
 Number     Number       Type             X           Y           Z
 ---------------------------------------------------------------------
      1          6           0        0.000000    0.000000    0.000000
      2          6           0        0.000000    0.000000    1.397463
      3          6           0        1.221096    0.000000   -0.684705
      4          6           0        1.201650   -0.010697    2.101772
      5          1           0       -0.824276    0.007821    1.869996
      6          6           0       -1.253421   -0.110138   -0.810191
      7          6           0        2.414707    0.007815    0.021719
      8          1           0        1.232246   -0.005856   -1.634731
      9          6           0        2.403895   -0.006831    1.408800
     10          1           0        1.198494   -0.020531    3.051836
     11          6           0       -2.396299   -0.950733   -0.338218
     12          8           0       -1.344272    0.492986   -1.868516
     13          1           0        3.241298    0.023792   -0.445367
     14          1           0        3.224827   -0.014217    1.886678
     15          6           0       -2.678118   -1.147024    1.016052
     16          6           0       -3.256570   -1.484157   -1.305947
     17          6           0       -3.813726   -1.864423    1.390915
     18          1           0       -2.098267   -0.792823    1.679460
     19          6           0       -4.369305   -2.216840   -0.928730
     20          1           0       -3.075131   -1.342635   -2.227397
     21          6           0       -4.657992   -2.399453    0.423688
     22          1           0       -4.011817   -1.987798    2.311643
     23          1           0       -4.935707   -2.594616   -1.590919
     24          1           0       -5.429415   -2.888198    0.683243
 ---------------------------------------------------------------------
                    Distance matrix (angstroms):
                    1          2          3          4          5
     1  C    0.000000
     2  C    1.397463   0.000000
     3  C    1.399963   2.413814   0.000000
     4  C    2.421058   1.392885   2.786566   0.000000
     5  H    2.043619   0.950147   3.272630   2.039225   0.000000
     6  C    1.496530   2.541049   2.480142   3.810091   2.716889
     7  C    2.414817   2.779127   1.387013   2.408002   3.729228
     8  H    2.047146   3.273021   0.950109   3.736632   4.063567
     9  C    2.786301   2.403931   2.404542   1.387667   3.260982
    10  H    3.278797   2.042977   3.736665   0.950119   2.342893
    11  C    2.600103   3.107850   3.756260   4.447747   2.875116
    12  O    2.354029   3.566052   2.868023   4.743269   3.805556
    13  H    3.271839   3.728619   2.034469   3.263323   4.678681
    14  H    3.736210   3.261755   3.259932   2.034583   4.049198
    15  C    3.085505   2.938274   4.405917   4.186003   2.345126
    16  C    3.809655   4.485131   4.757957   5.801669   4.269505
    17  C    4.467127   4.245070   5.756188   5.394034   3.559723
    18  H    2.802120   2.260711   4.151627   3.417531   1.516703
    19  C    4.986757   5.423687   6.018846   6.714652   5.034801
    20  H    4.027455   4.939505   4.758165   6.229496   4.866077
    21  C    5.256784   5.329400   6.445897   6.546566   4.752279
    22  H    5.038821   4.569655   6.349238   5.579714   3.786551
    23  H    5.798643   6.326426   6.742364   7.614444   5.971137
    24  H    6.187654   6.191151   7.378500   7.366360   5.567999
                    6          7          8          9         10
     6  C    0.000000
     7  C    3.763130   0.000000
     8  H    2.620930   2.035246   0.000000
     9  C    4.279082   1.387200   3.261263   0.000000
    10  H    4.575496   3.265208   4.686711   2.037829   0.000000
    11  C    1.495169   4.918755   3.967376   5.194697   5.027949
    12  O    1.221501   4.235363   2.634757   5.003935   5.562303
    13  H    4.511488   0.949567   2.334899   2.034727   4.050363
    14  H    5.228480   2.033434   4.046081   0.949923   2.337447
    15  C    2.537727   5.315940   4.860026   5.223135   4.521229
    16  C    2.479176   6.012659   4.737398   6.449280   6.401568
    17  C    3.804937   6.646303   6.170140   6.489204   5.592936
    18  H    2.716281   4.874019   4.763978   4.578264   3.653558
    19  C    3.763108   7.202448   6.063353   7.498294   7.188119
    20  H    2.616515   6.084452   4.548816   6.710143   6.919691
    21  C    4.284219   7.481951   6.682911   7.520993   6.845792
    22  H    4.569487   7.108195   6.855812   6.775007   5.618306
    23  H    4.510144   7.962527   6.689337   8.340545   8.112306
    24  H    5.233249   8.387774   7.619621   8.377914   7.600192
                   11         12         13         14         15
    11  C    0.000000
    12  O    2.352211   0.000000
    13  H    5.722209   4.824204   0.000000
    14  H    6.117539   5.935942   2.332413   0.000000
    15  C    1.397140   3.576242   6.208545   6.073384   0.000000
    16  C    1.400396   2.807573   6.725831   7.373066   2.416598
    17  C    2.415332   4.720113   7.530647   7.294537   1.394557
    18  H    2.045674   3.848369   5.804541   5.383725   0.949629
    19  C    2.417537   4.168594   7.948292   8.393385   2.790484
    20  H    2.045335   2.548367   6.703732   7.640666   3.273506
    21  C    2.791872   4.959954   8.308198   8.364720   2.416481
    22  H    3.272181   5.544711   8.015939   7.512965   2.040640
    23  H    3.274172   4.744339   8.662087   9.238315   3.740125
    24  H    3.741249   5.884919   9.216003   9.198040   3.272933
                   16         17         18         19         20
    16  C    0.000000
    17  C    2.779944   0.000000
    18  H    3.276013   2.043131   0.000000
    19  C    1.384664   2.411145   3.740066   0.000000
    20  H    0.949746   3.729607   4.064490   2.031171   0.000000
    21  C    2.406945   1.390889   3.272678   1.394891   3.263520
    22  H    3.729747   0.949843   2.342925   3.268069   4.679370
    23  H    2.033181   3.268541   4.689659   0.949747   2.331159
    24  H    3.263351   2.039453   4.059507   2.042795   4.050092
                   21         22         23         24
    21  C    0.000000
    22  H    2.037493   0.000000
    23  H    2.043001   4.056081   0.000000
    24  H    0.949386   2.339229   2.345581   0.000000
 Stoichiometry    C13H10O
 Framework group  C1[X(C13H10O)]
 Deg. of freedom    66
 Full point group                 C1      NOp   1
 Largest Abelian subgroup         C1      NOp   1
 Largest concise Abelian subgroup C1      NOp   1
                         Standard orientation:                         
 ---------------------------------------------------------------------
 Center     Atomic      Atomic             Coordinates (Angstroms)
 Number     Number       Type             X           Y           Z
 ---------------------------------------------------------------------
      1          6           0        1.312395    0.359521    0.208807
      2          6           0        1.500966   -0.999850    0.472349
      3          6           0        2.364066    1.102884   -0.340096
      4          6           0        2.718400   -1.611257    0.182240
      5          1           0        0.794974   -1.509953    0.852020
      6          6           0       -0.006796    1.043690    0.385586
      7          6           0        3.580224    0.493041   -0.610013
      8          1           0        2.244429    2.026413   -0.528478
      9          6           0        3.752541   -0.860183   -0.358185
     10          1           0        2.840473   -2.537817    0.353447
     11          6           0       -1.284947    0.324695    0.094200
     12          8           0       -0.040243    2.201957    0.772060
     13          1           0        4.296794    1.003300   -0.967560
     14          1           0        4.583789   -1.274700   -0.557071
     15          6           0       -1.429540   -1.054294    0.265906
     16          6           0       -2.393541    1.092577   -0.283273
     17          6           0       -2.674258   -1.650883    0.067037
     18          1           0       -0.682534   -1.583886    0.517517
     19          6           0       -3.621439    0.491736   -0.503621
     20          1           0       -2.302251    2.031969   -0.389230
     21          6           0       -3.768306   -0.882834   -0.317321
     22          1           0       -2.775395   -2.586580    0.195276
     23          1           0       -4.363282    1.015737   -0.781313
     24          1           0       -4.613641   -1.293190   -0.452787
 ---------------------------------------------------------------------
 Rotational constants (GHZ):           1.6878694           0.4236744           0.3538682
 Leave Link  202 at Tue Nov 22 14:59:37 2022, MaxMem= 16106127360 cpu:               0.4 elap:               0.0
 (Enter /opt/ap/G16/B01/g16/l301.exe)
 Standard basis: 6-311++G(d,p) (5D, 7F)
 Ernie: Thresh=  0.10000D-02 Tol=  0.10000D-05 Strict=F.
 There are   392 symmetry adapted cartesian basis functions of A   symmetry.
 There are   378 symmetry adapted basis functions of A   symmetry.
   378 basis functions,   594 primitive gaussians,   392 cartesian basis functions
    48 alpha electrons       48 beta electrons
       nuclear repulsion energy       784.9178754636 Hartrees.
 IExCor= 4639 DFT=T Ex+Corr=wB97XD ExCW=0 ScaHFX=  1.000000
 ScaDFX=  1.000000  1.000000  1.000000  1.000000 ScalE2=  1.000000  1.000000
 IRadAn=      5 IRanWt=     -1 IRanGd=            0 ICorTp=0 IEmpDi=121
 HFx  wShort=  0.000000 wLong=  0.200000 cFull=  0.222036 cShort=  0.000000 cLong=  0.777964
 DFx  wShort=  0.000000 wLong=  0.200000 cFull=  0.000000 cShort=  0.000000 cLong=  1.000000
 NAtoms=   24 NActive=   24 NUniq=   24 SFac= 1.00D+00 NAtFMM=   60 NAOKFM=F Big=F
 Integral buffers will be    131072 words long.
 Raffenetti 2 integral format.
 Two-electron integral symmetry is turned on.
 R6Disp:  Grimme-D2 Dispersion energy=       -0.0138635750 Hartrees.
 Nuclear repulsion after empirical dispersion term =      784.9040118887 Hartrees.
 Leave Link  301 at Tue Nov 22 14:59:37 2022, MaxMem= 16106127360 cpu:               1.2 elap:               0.0
 (Enter /opt/ap/G16/B01/g16/l302.exe)
 NPDir=0 NMtPBC=     1 NCelOv=     1 NCel=       1 NClECP=     1 NCelD=      1
         NCelK=      1 NCelE2=     1 NClLst=     1 CellRange=     0.0.
 One-electron integrals computed using PRISM.
 One-electron integral symmetry used in STVInt
 NBasis=   378 RedAO= T EigKep=  2.30D-06  NBF=   378
 NBsUse=   375 1.00D-06 EigRej=  9.24D-07 NBFU=   375
 Precomputing XC quadrature grid using
 IXCGrd= 4 IRadAn=           5 IRanWt=          -1 IRanGd=           0 AccXCQ= 0.00D+00.
 Generated NRdTot=       0 NPtTot=           0 NUsed=           0 NTot=          32
 NSgBfM=   392   392   392   392   392 MxSgAt=    24 MxSgA2=    24.
 Leave Link  302 at Tue Nov 22 14:59:38 2022, MaxMem= 16106127360 cpu:              10.8 elap:               0.3
 (Enter /opt/ap/G16/B01/g16/l303.exe)
 DipDrv:  MaxL=1.
 Leave Link  303 at Tue Nov 22 14:59:38 2022, MaxMem= 16106127360 cpu:               1.7 elap:               0.1
 (Enter /opt/ap/G16/B01/g16/l401.exe)
 ExpMin= 3.60D-02 ExpMax= 8.59D+03 ExpMxC= 1.30D+03 IAcc=3 IRadAn=         5 AccDes= 0.00D+00
 Harris functional with IExCor= 4639 and IRadAn=       5 diagonalized for initial guess.
 HarFok:  IExCor= 4639 AccDes= 0.00D+00 IRadAn=         5 IDoV= 1 UseB2=F ITyADJ=14
 ICtDFT=  3500011 ScaDFX=  1.000000  1.000000  1.000000  1.000000
 FoFCou: FMM=F IPFlag=           0 FMFlag=      100000 FMFlg1=           0
         NFxFlg=           0 DoJE=T BraDBF=F KetDBF=T FulRan=T
         wScrn=  0.000000 ICntrl=       500 IOpCl=  0 I1Cent=   200000004 NGrid=           0
         NMat0=    1 NMatS0=      1 NMatT0=    0 NMatD0=    1 NMtDS0=    0 NMtDT0=    0
 Petite list used in FoFCou.
 Harris En= -550.890084177254    
 JPrj=0 DoOrth=F DoCkMO=F.
 Leave Link  401 at Tue Nov 22 14:59:39 2022, MaxMem= 16106127360 cpu:              22.9 elap:               0.7
 (Enter /opt/ap/G16/B01/g16/l502.exe)
 Integral symmetry usage will be decided dynamically.
 Closed shell SCF:
 Using DIIS extrapolation, IDIIS=  1040.
 NGot= 16106127360 LenX= 16105803762 LenY= 16105649657
 Requested convergence on RMS density matrix=1.00D-08 within 512 cycles.
 Requested convergence on MAX density matrix=1.00D-06.
 Requested convergence on             energy=1.00D-06.
 No special actions if energy rises.
 Fock matrices will be formed incrementally for  20 cycles.

 Cycle   1  Pass 1  IDiag  1:
 FoFJK:  IHMeth= 1 ICntrl=       0 DoSepK=T KAlg= 0 I1Cent=           0 FoldK=F
 IRaf=         1 NMat=       1 IRICut=       1 DoRegI=T DoRafI=F ISym2E= 0 IDoP0=0 IntGTp=1.
 FoFCou: FMM=F IPFlag=           0 FMFlag=      100000 FMFlg1=           0
         NFxFlg=           0 DoJE=T BraDBF=F KetDBF=F FulRan=T
         wScrn=  0.000000 ICntrl=       500 IOpCl=  0 I1Cent=           0 NGrid=           0
         NMat0=    1 NMatS0=      1 NMatT0=    0 NMatD0=    1 NMtDS0=    0 NMtDT0=    0
 Symmetry not used in FoFCou.
 E= -576.251123355420    
 DIIS: error= 5.56D-02 at cycle   1 NSaved=   1.
 NSaved= 1 IEnMin= 1 EnMin= -576.251123355420     IErMin= 1 ErrMin= 5.56D-02
 ErrMax= 5.56D-02  0.00D+00 EMaxC= 1.00D-01 BMatC= 1.19D+00 BMatP= 1.19D+00
 IDIUse=3 WtCom= 4.44D-01 WtEn= 5.56D-01
 Coeff-Com:  0.100D+01
 Coeff-En:   0.100D+01
 Coeff:      0.100D+01
 Gap=     0.404 Goal=   None    Shift=    0.000
 GapD=    0.404 DampG=2.000 DampE=0.500 DampFc=1.0000 IDamp=-1.
 RMSDP=3.69D-02 MaxDP=6.85D+00              OVMax= 1.29D-01

 Cycle   2  Pass 1  IDiag  1:
 RMSU=  1.12D-02    CP:  5.62D-01
 E= -576.340624926542     Delta-E=       -0.089501571122 Rises=F Damp=F
 DIIS: error= 1.24D-02 at cycle   2 NSaved=   2.
 NSaved= 2 IEnMin= 2 EnMin= -576.340624926542     IErMin= 2 ErrMin= 1.24D-02
 ErrMax= 1.24D-02  0.00D+00 EMaxC= 1.00D-01 BMatC= 7.49D-02 BMatP= 1.19D+00
 IDIUse=3 WtCom= 8.76D-01 WtEn= 1.24D-01
 Coeff-Com:  0.126D+00 0.874D+00
 Coeff-En:   0.143D+00 0.857D+00
 Coeff:      0.128D+00 0.872D+00
 Gap=     0.422 Goal=   None    Shift=    0.000
 RMSDP=8.40D-03 MaxDP=6.77D-01 DE=-8.95D-02 OVMax= 1.59D-01

 Cycle   3  Pass 1  IDiag  1:
 RMSU=  6.23D-03    CP:  5.94D-01  5.54D-01
 E= -576.357406931714     Delta-E=       -0.016782005172 Rises=F Damp=F
 DIIS: error= 1.15D-02 at cycle   3 NSaved=   3.
 NSaved= 3 IEnMin= 3 EnMin= -576.357406931714     IErMin= 3 ErrMin= 1.15D-02
 ErrMax= 1.15D-02  0.00D+00 EMaxC= 1.00D-01 BMatC= 5.46D-02 BMatP= 7.49D-02
 IDIUse=3 WtCom= 8.85D-01 WtEn= 1.15D-01
 Coeff-Com:  0.238D-01 0.464D+00 0.512D+00
 Coeff-En:   0.000D+00 0.429D+00 0.571D+00
 Coeff:      0.211D-01 0.460D+00 0.519D+00
 Gap=     0.347 Goal=   None    Shift=    0.000
 RMSDP=6.28D-03 MaxDP=8.82D-01 DE=-1.68D-02 OVMax= 6.10D-02

 Cycle   4  Pass 1  IDiag  1:
 RMSU=  1.72D-03    CP:  5.39D-01  7.93D-01  5.09D-01
 E= -576.405660731773     Delta-E=       -0.048253800059 Rises=F Damp=F
 DIIS: error= 1.82D-03 at cycle   4 NSaved=   4.
 NSaved= 4 IEnMin= 4 EnMin= -576.405660731773     IErMin= 4 ErrMin= 1.82D-03
 ErrMax= 1.82D-03  0.00D+00 EMaxC= 1.00D-01 BMatC= 8.75D-04 BMatP= 5.46D-02
 IDIUse=3 WtCom= 9.82D-01 WtEn= 1.82D-02
 Coeff-Com:  0.946D-02 0.196D+00 0.240D+00 0.554D+00
 Coeff-En:   0.000D+00 0.000D+00 0.000D+00 0.100D+01
 Coeff:      0.929D-02 0.193D+00 0.236D+00 0.562D+00
 Gap=     0.320 Goal=   None    Shift=    0.000
 RMSDP=5.17D-04 MaxDP=7.30D-02 DE=-4.83D-02 OVMax= 6.43D-03

 Cycle   5  Pass 1  IDiag  1:
 RMSU=  3.49D-04    CP:  5.36D-01  8.18D-01  5.14D-01  9.51D-01
 E= -576.406270836218     Delta-E=       -0.000610104444 Rises=F Damp=F
 DIIS: error= 4.67D-04 at cycle   5 NSaved=   5.
 NSaved= 5 IEnMin= 5 EnMin= -576.406270836218     IErMin= 5 ErrMin= 4.67D-04
 ErrMax= 4.67D-04  0.00D+00 EMaxC= 1.00D-01 BMatC= 8.01D-05 BMatP= 8.75D-04
 IDIUse=3 WtCom= 9.95D-01 WtEn= 4.67D-03
 Coeff-Com: -0.584D-03-0.837D-02-0.642D-03 0.218D+00 0.792D+00
 Coeff-En:   0.000D+00 0.000D+00 0.000D+00 0.000D+00 0.100D+01
 Coeff:     -0.581D-03-0.834D-02-0.639D-03 0.217D+00 0.793D+00
 Gap=     0.321 Goal=   None    Shift=    0.000
 RMSDP=3.90D-04 MaxDP=5.03D-02 DE=-6.10D-04 OVMax= 2.33D-03

 Cycle   6  Pass 1  IDiag  1:
 RMSU=  2.44D-04    CP:  5.33D-01  8.18D-01  5.33D-01  9.86D-01  7.25D-01
 E= -576.406332400174     Delta-E=       -0.000061563957 Rises=F Damp=F
 DIIS: error= 2.30D-04 at cycle   6 NSaved=   6.
 NSaved= 6 IEnMin= 6 EnMin= -576.406332400174     IErMin= 6 ErrMin= 2.30D-04
 ErrMax= 2.30D-04  0.00D+00 EMaxC= 1.00D-01 BMatC= 1.85D-05 BMatP= 8.01D-05
 IDIUse=3 WtCom= 9.98D-01 WtEn= 2.30D-03
 Coeff-Com: -0.122D-02-0.231D-01-0.226D-01 0.642D-01 0.432D+00 0.551D+00
 Coeff-En:   0.000D+00 0.000D+00 0.000D+00 0.000D+00 0.000D+00 0.100D+01
 Coeff:     -0.122D-02-0.230D-01-0.226D-01 0.641D-01 0.431D+00 0.552D+00
 Gap=     0.321 Goal=   None    Shift=    0.000
 RMSDP=1.03D-04 MaxDP=1.08D-02 DE=-6.16D-05 OVMax= 1.26D-03

 Cycle   7  Pass 1  IDiag  1:
 RMSU=  6.58D-05    CP:  5.33D-01  8.22D-01  5.29D-01  1.02D+00  7.65D-01
                    CP:  8.91D-01
 E= -576.406351422916     Delta-E=       -0.000019022742 Rises=F Damp=F
 DIIS: error= 5.31D-05 at cycle   7 NSaved=   7.
 NSaved= 7 IEnMin= 7 EnMin= -576.406351422916     IErMin= 7 ErrMin= 5.31D-05
 ErrMax= 5.31D-05  0.00D+00 EMaxC= 1.00D-01 BMatC= 4.72D-07 BMatP= 1.85D-05
 IDIUse=1 WtCom= 1.00D+00 WtEn= 0.00D+00
 Coeff-Com: -0.223D-03-0.428D-02-0.506D-02-0.108D-01-0.105D-01 0.105D+00
 Coeff-Com:  0.926D+00
 Coeff:     -0.223D-03-0.428D-02-0.506D-02-0.108D-01-0.105D-01 0.105D+00
 Coeff:      0.926D+00
 Gap=     0.321 Goal=   None    Shift=    0.000
 RMSDP=3.96D-05 MaxDP=4.42D-03 DE=-1.90D-05 OVMax= 5.36D-04

 Cycle   8  Pass 1  IDiag  1:
 RMSU=  1.33D-05    CP:  5.32D-01  8.22D-01  5.31D-01  1.02D+00  7.54D-01
                    CP:  1.01D+00  1.06D+00
 E= -576.406352584067     Delta-E=       -0.000001161151 Rises=F Damp=F
 DIIS: error= 1.40D-05 at cycle   8 NSaved=   8.
 NSaved= 8 IEnMin= 8 EnMin= -576.406352584067     IErMin= 8 ErrMin= 1.40D-05
 ErrMax= 1.40D-05  0.00D+00 EMaxC= 1.00D-01 BMatC= 8.03D-08 BMatP= 4.72D-07
 IDIUse=1 WtCom= 1.00D+00 WtEn= 0.00D+00
 Coeff-Com:  0.453D-04 0.646D-03 0.198D-03-0.122D-01-0.555D-01-0.219D-01
 Coeff-Com:  0.322D+00 0.767D+00
 Coeff:      0.453D-04 0.646D-03 0.198D-03-0.122D-01-0.555D-01-0.219D-01
 Coeff:      0.322D+00 0.767D+00
 Gap=     0.321 Goal=   None    Shift=    0.000
 RMSDP=1.06D-05 MaxDP=1.26D-03 DE=-1.16D-06 OVMax= 1.80D-04

 Cycle   9  Pass 1  IDiag  1:
 RMSU=  3.95D-06    CP:  5.32D-01  8.22D-01  5.31D-01  1.02D+00  7.52D-01
                    CP:  1.04D+00  1.08D+00  1.18D+00
 E= -576.406352734537     Delta-E=       -0.000000150470 Rises=F Damp=F
 DIIS: error= 5.10D-06 at cycle   9 NSaved=   9.
 NSaved= 9 IEnMin= 9 EnMin= -576.406352734537     IErMin= 9 ErrMin= 5.10D-06
 ErrMax= 5.10D-06  0.00D+00 EMaxC= 1.00D-01 BMatC= 5.52D-09 BMatP= 8.03D-08
 IDIUse=1 WtCom= 1.00D+00 WtEn= 0.00D+00
 Coeff-Com:  0.380D-04 0.670D-03 0.652D-03-0.867D-03-0.955D-02-0.158D-01
 Coeff-Com: -0.549D-01 0.152D+00 0.927D+00
 Coeff:      0.380D-04 0.670D-03 0.652D-03-0.867D-03-0.955D-02-0.158D-01
 Coeff:     -0.549D-01 0.152D+00 0.927D+00
 Gap=     0.321 Goal=   None    Shift=    0.000
 RMSDP=4.19D-06 MaxDP=5.01D-04 DE=-1.50D-07 OVMax= 7.54D-05

 Cycle  10  Pass 1  IDiag  1:
 RMSU=  2.04D-06    CP:  5.32D-01  8.22D-01  5.31D-01  1.02D+00  7.48D-01
                    CP:  1.04D+00  1.10D+00  1.33D+00  1.29D+00
 E= -576.406352748952     Delta-E=       -0.000000014415 Rises=F Damp=F
 DIIS: error= 1.07D-06 at cycle  10 NSaved=  10.
 NSaved=10 IEnMin=10 EnMin= -576.406352748952     IErMin=10 ErrMin= 1.07D-06
 ErrMax= 1.07D-06  0.00D+00 EMaxC= 1.00D-01 BMatC= 3.96D-10 BMatP= 5.52D-09
 IDIUse=1 WtCom= 1.00D+00 WtEn= 0.00D+00
 Coeff-Com: -0.146D-05 0.353D-05 0.257D-04 0.114D-02 0.383D-02 0.143D-02
 Coeff-Com: -0.264D-01-0.537D-01 0.795D-01 0.994D+00
 Coeff:     -0.146D-05 0.353D-05 0.257D-04 0.114D-02 0.383D-02 0.143D-02
 Coeff:     -0.264D-01-0.537D-01 0.795D-01 0.994D+00
 Gap=     0.321 Goal=   None    Shift=    0.000
 RMSDP=1.23D-06 MaxDP=1.05D-04 DE=-1.44D-08 OVMax= 1.68D-05

 Cycle  11  Pass 1  IDiag  1:
 RMSU=  6.59D-07    CP:  5.32D-01  8.22D-01  5.31D-01  1.02D+00  7.48D-01
                    CP:  1.04D+00  1.09D+00  1.36D+00  1.33D+00  1.10D+00
 E= -576.406352749989     Delta-E=       -0.000000001037 Rises=F Damp=F
 DIIS: error= 3.02D-07 at cycle  11 NSaved=  11.
 NSaved=11 IEnMin=11 EnMin= -576.406352749989     IErMin=11 ErrMin= 3.02D-07
 ErrMax= 3.02D-07  0.00D+00 EMaxC= 1.00D-01 BMatC= 6.89D-11 BMatP= 3.96D-10
 IDIUse=1 WtCom= 1.00D+00 WtEn= 0.00D+00
 Coeff-Com: -0.261D-05-0.362D-04-0.304D-04 0.476D-03 0.178D-02 0.136D-02
 Coeff-Com: -0.558D-02-0.293D-01-0.371D-01 0.322D+00 0.746D+00
 Coeff:     -0.261D-05-0.362D-04-0.304D-04 0.476D-03 0.178D-02 0.136D-02
 Coeff:     -0.558D-02-0.293D-01-0.371D-01 0.322D+00 0.746D+00
 Gap=     0.321 Goal=   None    Shift=    0.000
 RMSDP=3.35D-07 MaxDP=3.01D-05 DE=-1.04D-09 OVMax= 4.70D-06

 Cycle  12  Pass 1  IDiag  1:
 RMSU=  1.48D-07    CP:  5.32D-01  8.22D-01  5.31D-01  1.02D+00  7.48D-01
                    CP:  1.04D+00  1.09D+00  1.36D+00  1.36D+00  1.15D+00
                    CP:  1.13D+00
 E= -576.406352750119     Delta-E=       -0.000000000130 Rises=F Damp=F
 DIIS: error= 1.62D-07 at cycle  12 NSaved=  12.
 NSaved=12 IEnMin=12 EnMin= -576.406352750119     IErMin=12 ErrMin= 1.62D-07
 ErrMax= 1.62D-07  0.00D+00 EMaxC= 1.00D-01 BMatC= 6.24D-12 BMatP= 6.89D-11
 IDIUse=1 WtCom= 1.00D+00 WtEn= 0.00D+00
 Coeff-Com: -0.649D-07-0.557D-05-0.969D-05-0.942D-04-0.397D-03-0.725D-04
 Coeff-Com:  0.358D-02 0.486D-02-0.157D-01-0.108D+00 0.757D-01 0.104D+01
 Coeff:     -0.649D-07-0.557D-05-0.969D-05-0.942D-04-0.397D-03-0.725D-04
 Coeff:      0.358D-02 0.486D-02-0.157D-01-0.108D+00 0.757D-01 0.104D+01
 Gap=     0.321 Goal=   None    Shift=    0.000
 RMSDP=1.41D-07 MaxDP=7.34D-06 DE=-1.30D-10 OVMax= 2.73D-06

 Cycle  13  Pass 1  IDiag  1:
 RMSU=  6.86D-08    CP:  5.32D-01  8.22D-01  5.31D-01  1.02D+00  7.48D-01
                    CP:  1.04D+00  1.09D+00  1.35D+00  1.36D+00  1.18D+00
                    CP:  1.24D+00  1.28D+00
 E= -576.406352750137     Delta-E=       -0.000000000019 Rises=F Damp=F
 DIIS: error= 8.08D-08 at cycle  13 NSaved=  13.
 NSaved=13 IEnMin=13 EnMin= -576.406352750137     IErMin=13 ErrMin= 8.08D-08
 ErrMax= 8.08D-08  0.00D+00 EMaxC= 1.00D-01 BMatC= 1.41D-12 BMatP= 6.24D-12
 IDIUse=1 WtCom= 1.00D+00 WtEn= 0.00D+00
 Coeff-Com:  0.244D-06 0.185D-05 0.110D-06-0.818D-04-0.320D-03-0.190D-03
 Coeff-Com:  0.169D-02 0.460D-02-0.122D-02-0.696D-01-0.628D-01 0.362D+00
 Coeff-Com:  0.765D+00
 Coeff:      0.244D-06 0.185D-05 0.110D-06-0.818D-04-0.320D-03-0.190D-03
 Coeff:      0.169D-02 0.460D-02-0.122D-02-0.696D-01-0.628D-01 0.362D+00
 Coeff:      0.765D+00
 Gap=     0.321 Goal=   None    Shift=    0.000
 RMSDP=4.42D-08 MaxDP=2.30D-06 DE=-1.86D-11 OVMax= 1.03D-06

 Cycle  14  Pass 1  IDiag  1:
 RMSU=  2.31D-08    CP:  5.32D-01  8.22D-01  5.31D-01  1.02D+00  7.48D-01
                    CP:  1.04D+00  1.09D+00  1.35D+00  1.36D+00  1.17D+00
                    CP:  1.28D+00  1.36D+00  1.12D+00
 E= -576.406352750141     Delta-E=       -0.000000000004 Rises=F Damp=F
 DIIS: error= 3.05D-08 at cycle  14 NSaved=  14.
 NSaved=14 IEnMin=14 EnMin= -576.406352750141     IErMin=14 ErrMin= 3.05D-08
 ErrMax= 3.05D-08  0.00D+00 EMaxC= 1.00D-01 BMatC= 2.26D-13 BMatP= 1.41D-12
 IDIUse=1 WtCom= 1.00D+00 WtEn= 0.00D+00
 Coeff-Com:  0.633D-07 0.162D-05 0.242D-05-0.193D-05 0.101D-04-0.370D-04
 Coeff-Com: -0.354D-03 0.566D-04 0.298D-02 0.608D-02-0.317D-01-0.137D+00
 Coeff-Com:  0.140D+00 0.102D+01
 Coeff:      0.633D-07 0.162D-05 0.242D-05-0.193D-05 0.101D-04-0.370D-04
 Coeff:     -0.354D-03 0.566D-04 0.298D-02 0.608D-02-0.317D-01-0.137D+00
 Coeff:      0.140D+00 0.102D+01
 Gap=     0.321 Goal=   None    Shift=    0.000
 RMSDP=2.96D-08 MaxDP=3.48D-06 DE=-3.64D-12 OVMax= 6.71D-07

 Cycle  15  Pass 1  IDiag  1:
 RMSU=  9.19D-09    CP:  5.32D-01  8.22D-01  5.31D-01  1.02D+00  7.48D-01
                    CP:  1.04D+00  1.09D+00  1.35D+00  1.36D+00  1.17D+00
                    CP:  1.28D+00  1.39D+00  1.43D+00  1.11D+00
 E= -576.406352750152     Delta-E=       -0.000000000011 Rises=F Damp=F
 DIIS: error= 1.40D-08 at cycle  15 NSaved=  15.
 NSaved=15 IEnMin=15 EnMin= -576.406352750152     IErMin=15 ErrMin= 1.40D-08
 ErrMax= 1.40D-08  0.00D+00 EMaxC= 1.00D-01 BMatC= 5.19D-14 BMatP= 2.26D-13
 IDIUse=1 WtCom= 1.00D+00 WtEn= 0.00D+00
 Coeff-Com: -0.164D-07 0.315D-06 0.967D-06 0.133D-04 0.602D-04 0.220D-04
 Coeff-Com: -0.410D-03-0.745D-03 0.143D-02 0.147D-01 0.117D-02-0.112D+00
 Coeff-Com: -0.779D-01 0.387D+00 0.786D+00
 Coeff:     -0.164D-07 0.315D-06 0.967D-06 0.133D-04 0.602D-04 0.220D-04
 Coeff:     -0.410D-03-0.745D-03 0.143D-02 0.147D-01 0.117D-02-0.112D+00
 Coeff:     -0.779D-01 0.387D+00 0.786D+00
 Gap=     0.321 Goal=   None    Shift=    0.000
 RMSDP=8.05D-09 MaxDP=9.35D-07 DE=-1.11D-11 OVMax= 2.47D-07

 SCF Done:  E(RwB97XD) =  -576.406352750     A.U. after   15 cycles
            NFock= 15  Conv=0.80D-08     -V/T= 1.9999
 KE= 5.764625683549D+02 PE=-2.911957668558D+03 EE= 9.741847355645D+02
 Leave Link  502 at Tue Nov 22 15:00:15 2022, MaxMem= 16106127360 cpu:            1162.6 elap:              36.5
 (Enter /opt/ap/G16/B01/g16/l601.exe)
 Copying SCF densities to generalized density rwf, IOpCl= 0 IROHF=0.

 **********************************************************************

            Population analysis using the SCF Density.

 **********************************************************************

 Orbital symmetries:
       Occupied  (A) (A) (A) (A) (A) (A) (A) (A) (A) (A) (A) (A)
                 (A) (A) (A) (A) (A) (A) (A) (A) (A) (A) (A) (A)
                 (A) (A) (A) (A) (A) (A) (A) (A) (A) (A) (A) (A)
                 (A) (A) (A) (A) (A) (A) (A) (A) (A) (A) (A) (A)
       Virtual   (A) (A) (A) (A) (A) (A) (A) (A) (A) (A) (A) (A)
                 (A) (A) (A) (A) (A) (A) (A) (A) (A) (A) (A) (A)
                 (A) (A) (A) (A) (A) (A) (A) (A) (A) (A) (A) (A)
                 (A) (A) (A) (A) (A) (A) (A) (A) (A) (A) (A) (A)
                 (A) (A) (A) (A) (A) (A) (A) (A) (A) (A) (A) (A)
                 (A) (A) (A) (A) (A) (A) (A) (A) (A) (A) (A) (A)
                 (A) (A) (A) (A) (A) (A) (A) (A) (A) (A) (A) (A)
                 (A) (A) (A) (A) (A) (A) (A) (A) (A) (A) (A) (A)
                 (A) (A) (A) (A) (A) (A) (A) (A) (A) (A) (A) (A)
                 (A) (A) (A) (A) (A) (A) (A) (A) (A) (A) (A) (A)
                 (A) (A) (A) (A) (A) (A) (A) (A) (A) (A) (A) (A)
                 (A) (A) (A) (A) (A) (A) (A) (A) (A) (A) (A) (A)
                 (A) (A) (A) (A) (A) (A) (A) (A) (A) (A) (A) (A)
                 (A) (A) (A) (A) (A) (A) (A) (A) (A) (A) (A) (A)
                 (A) (A) (A) (A) (A) (A) (A) (A) (A) (A) (A) (A)
                 (A) (A) (A) (A) (A) (A) (A) (A) (A) (A) (A) (A)
                 (A) (A) (A) (A) (A) (A) (A) (A) (A) (A) (A) (A)
                 (A) (A) (A) (A) (A) (A) (A) (A) (A) (A) (A) (A)
                 (A) (A) (A) (A) (A) (A) (A) (A) (A) (A) (A) (A)
                 (A) (A) (A) (A) (A) (A) (A) (A) (A) (A) (A) (A)
                 (A) (A) (A) (A) (A) (A) (A) (A) (A) (A) (A) (A)
                 (A) (A) (A) (A) (A) (A) (A) (A) (A) (A) (A) (A)
                 (A) (A) (A) (A) (A) (A) (A) (A) (A) (A) (A) (A)
                 (A) (A) (A) (A) (A) (A) (A) (A) (A) (A) (A) (A)
                 (A) (A) (A) (A) (A) (A) (A) (A) (A) (A) (A) (A)
                 (A) (A) (A) (A) (A) (A) (A) (A) (A) (A) (A) (A)
                 (A) (A) (A) (A) (A) (A) (A) (A) (A) (A) (A) (A)
                 (A) (A) (A)
 The electronic state is 1-A.
 Alpha  occ. eigenvalues --  -19.23886 -10.38295 -10.30664 -10.30637 -10.28938
 Alpha  occ. eigenvalues --  -10.28910 -10.28635 -10.28540 -10.28503 -10.28499
 Alpha  occ. eigenvalues --  -10.28441 -10.28404 -10.28265 -10.28195  -1.14949
 Alpha  occ. eigenvalues --   -0.98096  -0.97425  -0.89440  -0.87558  -0.87343
 Alpha  occ. eigenvalues --   -0.86679  -0.76964  -0.74708  -0.73352  -0.72442
 Alpha  occ. eigenvalues --   -0.68260  -0.65080  -0.64102  -0.59772  -0.57439
 Alpha  occ. eigenvalues --   -0.56410  -0.55795  -0.54587  -0.53739  -0.52902
 Alpha  occ. eigenvalues --   -0.52349  -0.49959  -0.47605  -0.46906  -0.46068
 Alpha  occ. eigenvalues --   -0.45495  -0.44890  -0.44000  -0.35155  -0.34926
 Alpha  occ. eigenvalues --   -0.34297  -0.33933  -0.33097
 Alpha virt. eigenvalues --   -0.00968   0.03413   0.03739   0.04314   0.04842
 Alpha virt. eigenvalues --    0.04912   0.05190   0.05775   0.05959   0.07520
 Alpha virt. eigenvalues --    0.07705   0.08433   0.09369   0.10158   0.10527
 Alpha virt. eigenvalues --    0.11436   0.11737   0.12651   0.13269   0.14365
 Alpha virt. eigenvalues --    0.15075   0.15231   0.15957   0.16234   0.16788
 Alpha virt. eigenvalues --    0.16914   0.17138   0.17391   0.17621   0.18183
 Alpha virt. eigenvalues --    0.18369   0.18757   0.19358   0.19742   0.19829
 Alpha virt. eigenvalues --    0.20022   0.20224   0.20377   0.20991   0.21561
 Alpha virt. eigenvalues --    0.22286   0.22522   0.22963   0.23516   0.24022
 Alpha virt. eigenvalues --    0.24238   0.24575   0.25212   0.25562   0.26016
 Alpha virt. eigenvalues --    0.26170   0.27189   0.27366   0.28728   0.28765
 Alpha virt. eigenvalues --    0.29358   0.29772   0.30850   0.31101   0.31226
 Alpha virt. eigenvalues --    0.32343   0.32634   0.33294   0.33675   0.34171
 Alpha virt. eigenvalues --    0.34729   0.34903   0.35292   0.35754   0.35922
 Alpha virt. eigenvalues --    0.36606   0.36937   0.38212   0.38540   0.38934
 Alpha virt. eigenvalues --    0.39084   0.40766   0.41056   0.41947   0.42348
 Alpha virt. eigenvalues --    0.43008   0.43124   0.44092   0.44418   0.45654
 Alpha virt. eigenvalues --    0.46054   0.46972   0.47404   0.49035   0.51850
 Alpha virt. eigenvalues --    0.56289   0.57724   0.57908   0.58937   0.61155
 Alpha virt. eigenvalues --    0.61517   0.62753   0.63163   0.63629   0.63884
 Alpha virt. eigenvalues --    0.64566   0.65006   0.65188   0.65304   0.66219
 Alpha virt. eigenvalues --    0.67387   0.68108   0.68222   0.69007   0.70418
 Alpha virt. eigenvalues --    0.72020   0.72554   0.73606   0.73838   0.75148
 Alpha virt. eigenvalues --    0.75830   0.76589   0.77194   0.78347   0.80292
 Alpha virt. eigenvalues --    0.81075   0.81217   0.82600   0.82928   0.83519
 Alpha virt. eigenvalues --    0.83744   0.85317   0.86113   0.87369   0.90103
 Alpha virt. eigenvalues --    0.90517   0.92206   0.92926   0.93785   0.94110
 Alpha virt. eigenvalues --    0.94627   0.95256   0.95351   0.95950   0.97042
 Alpha virt. eigenvalues --    0.97731   0.99211   1.01102   1.01259   1.02082
 Alpha virt. eigenvalues --    1.02594   1.03393   1.04786   1.05197   1.07212
 Alpha virt. eigenvalues --    1.08882   1.11007   1.11960   1.13096   1.13609
 Alpha virt. eigenvalues --    1.15855   1.16850   1.17755   1.17857   1.19265
 Alpha virt. eigenvalues --    1.19958   1.22149   1.25338   1.27902   1.28481
 Alpha virt. eigenvalues --    1.29461   1.31062   1.36249   1.37518   1.39268
 Alpha virt. eigenvalues --    1.44515   1.45381   1.46702   1.54093   1.56691
 Alpha virt. eigenvalues --    1.58008   1.58244   1.59550   1.60416   1.61985
 Alpha virt. eigenvalues --    1.62573   1.64537   1.65536   1.67046   1.68120
 Alpha virt. eigenvalues --    1.68312   1.68568   1.68813   1.71498   1.73976
 Alpha virt. eigenvalues --    1.75660   1.76367   1.76597   1.78510   1.80827
 Alpha virt. eigenvalues --    1.81737   1.85383   1.87396   1.88714   1.89968
 Alpha virt. eigenvalues --    1.90926   1.92016   1.93491   1.94199   1.95452
 Alpha virt. eigenvalues --    1.96777   1.98970   2.00441   2.01099   2.01505
 Alpha virt. eigenvalues --    2.03037   2.05033   2.05168   2.05485   2.06171
 Alpha virt. eigenvalues --    2.06856   2.08355   2.09315   2.10582   2.11263
 Alpha virt. eigenvalues --    2.14674   2.17548   2.19070   2.21207   2.24921
 Alpha virt. eigenvalues --    2.26237   2.27534   2.28693   2.31056   2.34030
 Alpha virt. eigenvalues --    2.42855   2.44447   2.47623   2.48198   2.48495
 Alpha virt. eigenvalues --    2.50082   2.51016   2.51091   2.55262   2.58683
 Alpha virt. eigenvalues --    2.59562   2.60494   2.65840   2.69157   2.75050
 Alpha virt. eigenvalues --    2.76042   2.77938   2.79669   2.80957   2.82511
 Alpha virt. eigenvalues --    2.83648   2.84799   2.85644   2.91460   2.91944
 Alpha virt. eigenvalues --    2.92487   2.92904   2.94278   2.96222   2.97464
 Alpha virt. eigenvalues --    2.98041   2.98864   2.99702   3.00439   3.00604
 Alpha virt. eigenvalues --    3.01815   3.02609   3.04680   3.05248   3.06542
 Alpha virt. eigenvalues --    3.09624   3.13140   3.14852   3.19611   3.20592
 Alpha virt. eigenvalues --    3.20943   3.23342   3.25376   3.25633   3.30386
 Alpha virt. eigenvalues --    3.31138   3.34948   3.36839   3.45036   3.48627
 Alpha virt. eigenvalues --    3.50258   3.51889   3.53246   3.66480   3.68709
 Alpha virt. eigenvalues --    3.70567   3.72499   3.74490   3.76899   3.83949
 Alpha virt. eigenvalues --    3.88288   3.93457   3.95884   4.31194   4.36527
 Alpha virt. eigenvalues --    4.37737   4.39513   4.40318   4.40995   4.47757
 Alpha virt. eigenvalues --    4.50366   4.53163   4.59098   4.95275   4.95763
 Alpha virt. eigenvalues --    5.20702   5.35438   5.84914  23.86720  23.96849
 Alpha virt. eigenvalues --   23.98722  24.17074  24.18137  24.23854  24.25384
 Alpha virt. eigenvalues --   24.30100  24.31401  24.33958  24.34415  24.43633
 Alpha virt. eigenvalues --   24.44202  50.14795
          Condensed to atoms (all electrons):
               1          2          3          4          5          6
     1  C   15.168639   1.730903  -1.107276  -0.947397  -0.015949  -8.586134
     2  C    1.730903   9.218192  -1.589551  -0.956964   0.404159  -2.190589
     3  C   -1.107276  -1.589551   8.127833   0.761790  -0.006713  -0.837481
     4  C   -0.947397  -0.956964   0.761790   6.570030  -0.016669   0.471622
     5  H   -0.015949   0.404159  -0.006713  -0.016669   0.703920   0.166078
     6  C   -8.586134  -2.190589  -0.837481   0.471622   0.166078  23.622591
     7  C   -0.691122   0.376258   0.050774  -0.417053   0.031010   0.343130
     8  H    0.063502   0.044355   0.389935   0.014223   0.001802   0.004468
     9  C   -0.024009  -0.315991  -0.155830   0.583049  -0.052625  -0.151883
    10  H    0.024602  -0.081395   0.013947   0.443692  -0.022063   0.010987
    11  C    0.382478  -0.142858   1.137072   0.154571  -0.231112  -7.395169
    12  O    0.085654   0.015492   0.023361   0.002593  -0.016346   0.105901
    13  H   -0.013437   0.001469  -0.062491   0.002853   0.000514   0.006754
    14  H    0.042665  -0.014900   0.004382  -0.069028  -0.001572  -0.025042
    15  C   -1.327013   1.018100  -0.891415  -0.049673  -0.074023   0.821654
    16  C    0.446616  -0.745998   0.316652  -0.086597   0.009838  -0.227566
    17  C    0.024757  -0.224670  -0.235767  -0.176265   0.102965   0.545183
    18  H    0.014598  -0.000352   0.071039  -0.072736  -0.153525  -0.187557
    19  C   -0.390953  -0.021833   0.196789   0.011508  -0.028623   0.123650
    20  H   -0.054826   0.003503  -0.026122  -0.001241  -0.000301   0.025689
    21  C   -0.122557   0.030138  -0.060942  -0.007808   0.024902   0.286049
    22  H   -0.000824  -0.000124  -0.001685   0.003982   0.009819   0.005429
    23  H    0.007678  -0.002419   0.005890  -0.000196   0.000490   0.001218
    24  H   -0.001818  -0.000886  -0.001645  -0.000272   0.000318  -0.007948
               7          8          9         10         11         12
     1  C   -0.691122   0.063502  -0.024009   0.024602   0.382478   0.085654
     2  C    0.376258   0.044355  -0.315991  -0.081395  -0.142858   0.015492
     3  C    0.050774   0.389935  -0.155830   0.013947   1.137072   0.023361
     4  C   -0.417053   0.014223   0.583049   0.443692   0.154571   0.002593
     5  H    0.031010   0.001802  -0.052625  -0.022063  -0.231112  -0.016346
     6  C    0.343130   0.004468  -0.151883   0.010987  -7.395169   0.105901
     7  C    6.251459  -0.104113   0.261002  -0.001312  -0.301442  -0.021514
     8  H   -0.104113   0.465063  -0.004054   0.000586  -0.054973  -0.007450
     9  C    0.261002  -0.004054   5.576513  -0.068404   0.148464   0.010155
    10  H   -0.001312   0.000586  -0.068404   0.492898   0.000305   0.000441
    11  C   -0.301442  -0.054973   0.148464   0.000305  13.579655   0.131275
    12  O   -0.021514  -0.007450   0.010155   0.000441   0.131275   8.001744
    13  H    0.481660  -0.014486  -0.073625   0.000150   0.001771   0.000463
    14  H   -0.084383   0.000998   0.493196  -0.013009   0.004197   0.000150
    15  C    0.057321   0.004434   0.030757  -0.002979   0.642714  -0.080182
    16  C    0.103279  -0.012328  -0.029435  -0.000216  -1.071862  -0.010861
    17  C    0.028667  -0.002661  -0.034804  -0.000614  -1.817025  -0.023131
    18  H    0.018261  -0.003428   0.003256   0.004666   0.245568   0.003457
    19  C    0.020955  -0.000200   0.003415  -0.000162  -0.253294  -0.000935
    20  H   -0.000654  -0.001175  -0.000286  -0.000058   0.047716  -0.014120
    21  C    0.004588  -0.000430  -0.005127   0.000539  -0.266803  -0.006577
    22  H   -0.001716   0.000067   0.001450  -0.000426   0.018073   0.000287
    23  H    0.000223   0.000045   0.000069  -0.000008  -0.006796   0.001530
    24  H    0.000217  -0.000055  -0.000128   0.000014   0.026047  -0.000207
              13         14         15         16         17         18
     1  C   -0.013437   0.042665  -1.327013   0.446616   0.024757   0.014598
     2  C    0.001469  -0.014900   1.018100  -0.745998  -0.224670  -0.000352
     3  C   -0.062491   0.004382  -0.891415   0.316652  -0.235767   0.071039
     4  C    0.002853  -0.069028  -0.049673  -0.086597  -0.176265  -0.072736
     5  H    0.000514  -0.001572  -0.074023   0.009838   0.102965  -0.153525
     6  C    0.006754  -0.025042   0.821654  -0.227566   0.545183  -0.187557
     7  C    0.481660  -0.084383   0.057321   0.103279   0.028667   0.018261
     8  H   -0.014486   0.000998   0.004434  -0.012328  -0.002661  -0.003428
     9  C   -0.073625   0.493196   0.030757  -0.029435  -0.034804   0.003256
    10  H    0.000150  -0.013009  -0.002979  -0.000216  -0.000614   0.004666
    11  C    0.001771   0.004197   0.642714  -1.071862  -1.817025   0.245568
    12  O    0.000463   0.000150  -0.080182  -0.010861  -0.023131   0.003457
    13  H    0.487168  -0.015687  -0.002656   0.003294   0.000194   0.000779
    14  H   -0.015687   0.497441  -0.000673  -0.000920  -0.000661  -0.000814
    15  C   -0.002656  -0.000673   8.802568  -1.875840  -1.136695   0.599252
    16  C    0.003294  -0.000920  -1.875840   8.117580   1.284282  -0.013476
    17  C    0.000194  -0.000661  -1.136695   1.284282   7.645855  -0.302791
    18  H    0.000779  -0.000814   0.599252  -0.013476  -0.302791   0.857091
    19  C    0.000121  -0.000068   0.651522  -0.408830  -0.761731   0.128125
    20  H   -0.000016  -0.000022   0.031515   0.413755   0.035384  -0.003592
    21  C    0.000113  -0.000186  -0.488659  -0.245881   0.871246  -0.096651
    22  H   -0.000047   0.000085  -0.065761   0.019486   0.412878  -0.043383
    23  H    0.000006   0.000005   0.001822  -0.056633  -0.011135   0.000638
    24  H    0.000009  -0.000008  -0.035367   0.009191  -0.044926  -0.004198
              19         20         21         22         23         24
     1  C   -0.390953  -0.054826  -0.122557  -0.000824   0.007678  -0.001818
     2  C   -0.021833   0.003503   0.030138  -0.000124  -0.002419  -0.000886
     3  C    0.196789  -0.026122  -0.060942  -0.001685   0.005890  -0.001645
     4  C    0.011508  -0.001241  -0.007808   0.003982  -0.000196  -0.000272
     5  H   -0.028623  -0.000301   0.024902   0.009819   0.000490   0.000318
     6  C    0.123650   0.025689   0.286049   0.005429   0.001218  -0.007948
     7  C    0.020955  -0.000654   0.004588  -0.001716   0.000223   0.000217
     8  H   -0.000200  -0.001175  -0.000430   0.000067   0.000045  -0.000055
     9  C    0.003415  -0.000286  -0.005127   0.001450   0.000069  -0.000128
    10  H   -0.000162  -0.000058   0.000539  -0.000426  -0.000008   0.000014
    11  C   -0.253294   0.047716  -0.266803   0.018073  -0.006796   0.026047
    12  O   -0.000935  -0.014120  -0.006577   0.000287   0.001530  -0.000207
    13  H    0.000121  -0.000016   0.000113  -0.000047   0.000006   0.000009
    14  H   -0.000068  -0.000022  -0.000186   0.000085   0.000005  -0.000008
    15  C    0.651522   0.031515  -0.488659  -0.065761   0.001822  -0.035367
    16  C   -0.408830   0.413755  -0.245881   0.019486  -0.056633   0.009191
    17  C   -0.761731   0.035384   0.871246   0.412878  -0.011135  -0.044926
    18  H    0.128125  -0.003592  -0.096651  -0.043383   0.000638  -0.004198
    19  C    6.753883  -0.148842   0.215209  -0.004311   0.478010  -0.094919
    20  H   -0.148842   0.464928   0.018600   0.000592  -0.014157   0.002272
    21  C    0.215209   0.018600   5.660192  -0.056824  -0.073618   0.502524
    22  H   -0.004311   0.000592  -0.056824   0.497486   0.000358  -0.012521
    23  H    0.478010  -0.014157  -0.073618   0.000358   0.481663  -0.014834
    24  H   -0.094919   0.002272   0.502524  -0.012521  -0.014834   0.498440
 Mulliken charges:
               1
     1  C    1.291221
     2  C   -0.554037
     3  C   -0.122547
     4  C   -0.218013
     5  H    0.163705
     6  C   -0.931035
     7  C   -0.405495
     8  H    0.215876
     9  C   -0.195123
    10  H    0.197819
    11  C    1.021428
    12  O   -0.201181
    13  H    0.195127
    14  H    0.183854
    15  C   -0.630723
    16  C    0.062470
    17  C   -0.178535
    18  H   -0.064226
    19  C   -0.468485
    20  H    0.221459
    21  C   -0.182036
    22  H    0.217628
    23  H    0.200150
    24  H    0.180701
 Sum of Mulliken charges =  -0.00000
 Mulliken charges with hydrogens summed into heavy atoms:
               1
     1  C    1.291221
     2  C   -0.390332
     3  C    0.093328
     4  C   -0.020194
     6  C   -0.931035
     7  C   -0.210368
     9  C   -0.011269
    11  C    1.021428
    12  O   -0.201181
    15  C   -0.694949
    16  C    0.283928
    17  C    0.039093
    19  C   -0.268335
    21  C   -0.001335
 Electronic spatial extent (au):  <R**2>=           3029.2147
 Charge=             -0.0000 electrons
 Dipole moment (field-independent basis, Debye):
    X=             -0.0194    Y=             -3.0352    Z=             -1.2781  Tot=              3.2934
 Quadrupole moment (field-independent basis, Debye-Ang):
   XX=            -64.6025   YY=            -78.8700   ZZ=            -84.9838
   XY=             -0.1388   XZ=             -0.5274   YZ=             -6.2528
 Traceless Quadrupole moment (field-independent basis, Debye-Ang):
   XX=             11.5496   YY=             -2.7179   ZZ=             -8.8317
   XY=             -0.1388   XZ=             -0.5274   YZ=             -6.2528
 Octapole moment (field-independent basis, Debye-Ang**2):
  XXX=             -4.1238  YYY=            -21.7197  ZZZ=              3.6763  XYY=             -0.0392
  XXY=             -2.5695  XXZ=            -22.9360  XZZ=              1.3359  YZZ=              2.3748
  YYZ=             -7.1916  XYZ=             -0.9993
 Hexadecapole moment (field-independent basis, Debye-Ang**3):
 XXXX=          -2815.6020 YYYY=           -771.0437 ZZZZ=           -184.2903 XXXY=             -4.1818
 XXXZ=            -12.2592 YYYX=             -0.8141 YYYZ=            -33.2656 ZZZX=             -2.4828
 ZZZY=              1.4967 XXYY=           -586.4741 XXZZ=           -598.6057 YYZZ=           -168.9634
 XXYZ=            -15.3242 YYXZ=             -0.2775 ZZXY=             -0.0887
 N-N= 7.849040118887D+02 E-N=-2.911957668506D+03  KE= 5.764625683549D+02
 No NMR shielding tensors so no spin-rotation constants.
 Leave Link  601 at Tue Nov 22 15:00:15 2022, MaxMem= 16106127360 cpu:               4.8 elap:               0.2
 (Enter /opt/ap/G16/B01/g16/l9999.exe)
 1\1\GINC-N19\SP\RwB97XD\6-311++G(d,p)\C13H10O1\ROOT\22-Nov-2022\0\\#P 
 wB97XD/6-311++G(d,p) scf=maxcycle=512\\_conf011.gjf nmol_natom 1_24\\0
 ,1\C\C,1,1.39746343\C,1,1.39996263,2,119.28066518\C,2,1.39288453,1,120
 .37436646,3,-0.51002981,0\H,2,0.95014703,1,119.82324024,3,179.45634896
 ,0\C,1,1.49653039,2,122.77761373,4,174.46828757,0\C,3,1.3870125,1,120.
 10017821,2,-0.37315804,0\H,3,0.9501092,1,119.95246451,2,179.5923884,0\
 C,7,1.38720039,3,120.16568731,1,1.0745106,0\H,4,0.95011919,2,120.18755
 644,1,-179.31195299,0\C,6,1.49516902,1,120.70972921,2,-35.,0\O,6,1.221
 50059,1,119.67074267,2,145.,0\H,7,0.94956661,3,119.91274826,1,-178.886
 36029,0\H,9,0.94992259,7,119.76037934,3,179.10763853,0\C,11,1.39713972
 ,6,122.62585705,1,30.97749054,0\C,11,1.40039562,6,117.74753532,1,-153.
 15467779,0\C,15,1.39455701,11,119.80747484,6,175.4763048,0\H,15,0.9496
 2854,11,120.10535689,6,-4.50802339,0\C,16,1.38466431,11,120.4617377,6,
 -176.88197195,0\H,16,0.9497464,11,119.75779177,6,3.14699974,0\C,17,1.3
 9088945,15,120.3475273,11,0.7973643,0\H,17,0.94984298,15,119.8156451,1
 1,-179.16676483,0\H,19,0.94974749,16,119.98566335,11,-178.40987425,0\H
 ,21,0.94938585,17,120.0744529,15,179.91636093,0\\Version=ES64L-G16RevB
 .01\State=1-A\HF=-576.4063528\RMSD=8.048e-09\Dipole=0.0901072,-0.73143
 13,1.065719\Quadrupole=7.1963033,-6.9198282,-0.2764751,4.4096916,0.067
 7757,3.5941123\PG=C01 [X(C13H10O1)]\\@


 MYSTERY IS THE WISDOM OF BLOCKHEADS... HORACE WALPOLE 
 Job cpu time:       0 days  0 hours 20 minutes 13.1 seconds.
 Elapsed time:       0 days  0 hours  0 minutes 38.2 seconds.
 File lengths (MBytes):  RWF=     78 Int=      0 D2E=      0 Chk=      9 Scr=      1
 Normal termination of Gaussian 16 at Tue Nov 22 15:00:15 2022.
