 Entering Gaussian System, Link 0=g16
 Input=_conf033.gjf
 Output=_conf033.log
 Initial command:
 /opt/ap/G16/B01/g16/l1.exe "/tmp2/scr/Gau-14582.inp" -scrdir="/tmp2/scr/"
 Entering Link 1 = /opt/ap/G16/B01/g16/l1.exe PID=     14583.
  
 Copyright (c) 1988-2017, Gaussian, Inc.  All Rights Reserved.
  
 This is part of the Gaussian(R) 16 program.  It is based on
 the Gaussian(R) 09 system (copyright 2009, Gaussian, Inc.),
 the Gaussian(R) 03 system (copyright 2003, Gaussian, Inc.),
 the Gaussian(R) 98 system (copyright 1998, Gaussian, Inc.),
 the Gaussian(R) 94 system (copyright 1995, Gaussian, Inc.),
 the Gaussian 92(TM) system (copyright 1992, Gaussian, Inc.),
 the Gaussian 90(TM) system (copyright 1990, Gaussian, Inc.),
 the Gaussian 88(TM) system (copyright 1988, Gaussian, Inc.),
 the Gaussian 86(TM) system (copyright 1986, Carnegie Mellon
 University), and the Gaussian 82(TM) system (copyright 1983,
 Carnegie Mellon University). Gaussian is a federally registered
 trademark of Gaussian, Inc.
  
 This software contains proprietary and confidential information,
 including trade secrets, belonging to Gaussian, Inc.
  
 This software is provided under written license and may be
 used, copied, transmitted, or stored only in accord with that
 written license.
  
 The following legend is applicable only to US Government
 contracts under FAR:
  
                    RESTRICTED RIGHTS LEGEND
  
 Use, reproduction and disclosure by the US Government is
 subject to restrictions as set forth in subparagraphs (a)
 and (c) of the Commercial Computer Software - Restricted
 Rights clause in FAR 52.227-19.
  
 Gaussian, Inc.
 340 Quinnipiac St., Bldg. 40, Wallingford CT 06492
  
  
 ---------------------------------------------------------------
 Warning -- This program may not be used in any manner that
 competes with the business of Gaussian, Inc. or will provide
 assistance to any competitor of Gaussian, Inc.  The licensee
 of this program is prohibited from giving any competitor of
 Gaussian, Inc. access to this program.  By using this program,
 the user acknowledges that Gaussian, Inc. is engaged in the
 business of creating and licensing software in the field of
 computational chemistry and represents and warrants to the
 licensee that it is not a competitor of Gaussian, Inc. and that
 it will not use this program in any manner prohibited above.
 ---------------------------------------------------------------
  

 Cite this work as:
 Gaussian 16, Revision B.01,
 M. J. Frisch, G. W. Trucks, H. B. Schlegel, G. E. Scuseria, 
 M. A. Robb, J. R. Cheeseman, G. Scalmani, V. Barone, 
 G. A. Petersson, H. Nakatsuji, X. Li, M. Caricato, A. V. Marenich, 
 J. Bloino, B. G. Janesko, R. Gomperts, B. Mennucci, H. P. Hratchian, 
 J. V. Ortiz, A. F. Izmaylov, J. L. Sonnenberg, D. Williams-Young, 
 F. Ding, F. Lipparini, F. Egidi, J. Goings, B. Peng, A. Petrone, 
 T. Henderson, D. Ranasinghe, V. G. Zakrzewski, J. Gao, N. Rega, 
 G. Zheng, W. Liang, M. Hada, M. Ehara, K. Toyota, R. Fukuda, 
 J. Hasegawa, M. Ishida, T. Nakajima, Y. Honda, O. Kitao, H. Nakai, 
 T. Vreven, K. Throssell, J. A. Montgomery, Jr., J. E. Peralta, 
 F. Ogliaro, M. J. Bearpark, J. J. Heyd, E. N. Brothers, K. N. Kudin, 
 V. N. Staroverov, T. A. Keith, R. Kobayashi, J. Normand, 
 K. Raghavachari, A. P. Rendell, J. C. Burant, S. S. Iyengar, 
 J. Tomasi, M. Cossi, J. M. Millam, M. Klene, C. Adamo, R. Cammi, 
 J. W. Ochterski, R. L. Martin, K. Morokuma, O. Farkas, 
 J. B. Foresman, and D. J. Fox, Gaussian, Inc., Wallingford CT, 2016.
 
 ******************************************
 Gaussian 16:  ES64L-G16RevB.01 20-Dec-2017
                22-Nov-2022 
 ******************************************
 %nprocshared=32
 Will use up to   32 processors via shared memory.
 %mem=120GB
 %chk=_conf033.chk
 ----------------------------------------
 #P wB97XD/6-311++G(d,p) scf=maxcycle=512
 ----------------------------------------
 1/38=1,172=1/1;
 2/12=2,17=6,18=5,40=1/2;
 3/5=4,6=6,7=1111,11=2,25=1,30=1,74=-58/1,2,3;
 4//1;
 5/5=2,7=512,38=5/2;
 6/7=2,8=2,9=2,10=2,28=1/1;
 99/5=1,9=1/99;
 Leave Link    1 at Tue Nov 22 15:03:35 2022, MaxMem= 16106127360 cpu:               1.6 elap:               0.1
 (Enter /opt/ap/G16/B01/g16/l101.exe)
 ----------------------------
 _conf033.gjf nmol_natom 1_24
 ----------------------------
 Symbolic Z-matrix:
 Charge =  0 Multiplicity = 1
 C
 C                    1     1.39746 
 C                    1     1.39996  2     119.28067 
 C                    2     1.39288  1     120.37437  3    -0.51003  0
 H                    2     0.95015  1     119.82324  3     179.45635  0
 C                    1     1.49653  2     122.77761  4     174.46829  0
 C                    3     1.38701  1     120.10018  2    -0.37316  0
 H                    3     0.95011  1     119.95246  2     179.59239  0
 C                    7     1.3872   3     120.16569  1     1.07451  0
 H                    4     0.95012  2     120.18756  1    -179.31195  0
 C                    6     1.49517  1     120.70973  2     75.      0
 O                    6     1.2215   1     119.67074  2    -105.     0
 H                    7     0.94957  3     119.91275  1    -178.88636  0
 H                    9     0.94992  7     119.76038  3     179.10764  0
 C                    11    1.39714  6     122.62586  1     30.97749  0
 C                    11    1.4004   6     117.74754  1    -153.15468  0
 C                    15    1.39456  11    119.80747  6     175.4763  0
 H                    15    0.94963  11    120.10536  6    -4.50802  0
 C                    16    1.38466  11    120.46174  6    -176.88197  0
 H                    16    0.94975  11    119.75779  6     3.147    0
 C                    17    1.39089  15    120.34753  11    0.79736  0
 H                    17    0.94984  15    119.81565  11   -179.16676  0
 H                    19    0.94975  16    119.98566  11   -178.40987  0
 H                    21    0.94939  17    120.07445  15    179.91636  0
 
 ITRead=  0  0  0  0  0  0  0  0  0  0  0  0  0  0  0  0  0  0  0  0
 ITRead=  0  0  0  0
 MicOpt= -1 -1 -1 -1 -1 -1 -1 -1 -1 -1 -1 -1 -1 -1 -1 -1 -1 -1 -1 -1
 MicOpt= -1 -1 -1 -1
 NAtoms=     24 NQM=       24 NQMF=       0 NMMI=      0 NMMIF=      0
                NMic=       0 NMicF=      0.
                    Isotopes and Nuclear Properties:
 (Nuclear quadrupole moments (NQMom) in fm**2, nuclear magnetic moments (NMagM)
  in nuclear magnetons)

  Atom         1           2           3           4           5           6           7           8           9          10
 IAtWgt=          12          12          12          12           1          12          12           1          12           1
 AtmWgt=  12.0000000  12.0000000  12.0000000  12.0000000   1.0078250  12.0000000  12.0000000   1.0078250  12.0000000   1.0078250
 NucSpn=           0           0           0           0           1           0           0           1           0           1
 AtZEff=  -0.0000000  -0.0000000  -0.0000000  -0.0000000  -0.0000000  -0.0000000  -0.0000000  -0.0000000  -0.0000000  -0.0000000
 NQMom=    0.0000000   0.0000000   0.0000000   0.0000000   0.0000000   0.0000000   0.0000000   0.0000000   0.0000000   0.0000000
 NMagM=    0.0000000   0.0000000   0.0000000   0.0000000   2.7928460   0.0000000   0.0000000   2.7928460   0.0000000   2.7928460
 AtZNuc=   6.0000000   6.0000000   6.0000000   6.0000000   1.0000000   6.0000000   6.0000000   1.0000000   6.0000000   1.0000000

  Atom        11          12          13          14          15          16          17          18          19          20
 IAtWgt=          12          16           1           1          12          12          12           1          12           1
 AtmWgt=  12.0000000  15.9949146   1.0078250   1.0078250  12.0000000  12.0000000  12.0000000   1.0078250  12.0000000   1.0078250
 NucSpn=           0           0           1           1           0           0           0           1           0           1
 AtZEff=  -0.0000000  -0.0000000  -0.0000000  -0.0000000  -0.0000000  -0.0000000  -0.0000000  -0.0000000  -0.0000000  -0.0000000
 NQMom=    0.0000000   0.0000000   0.0000000   0.0000000   0.0000000   0.0000000   0.0000000   0.0000000   0.0000000   0.0000000
 NMagM=    0.0000000   0.0000000   2.7928460   2.7928460   0.0000000   0.0000000   0.0000000   2.7928460   0.0000000   2.7928460
 AtZNuc=   6.0000000   8.0000000   1.0000000   1.0000000   6.0000000   6.0000000   6.0000000   1.0000000   6.0000000   1.0000000

  Atom        21          22          23          24
 IAtWgt=          12           1           1           1
 AtmWgt=  12.0000000   1.0078250   1.0078250   1.0078250
 NucSpn=           0           1           1           1
 AtZEff=  -0.0000000  -0.0000000  -0.0000000  -0.0000000
 NQMom=    0.0000000   0.0000000   0.0000000   0.0000000
 NMagM=    0.0000000   2.7928460   2.7928460   2.7928460
 AtZNuc=   6.0000000   1.0000000   1.0000000   1.0000000
 Leave Link  101 at Tue Nov 22 15:03:35 2022, MaxMem= 16106127360 cpu:               5.3 elap:               0.2
 (Enter /opt/ap/G16/B01/g16/l202.exe)
                          Input orientation:                          
 ---------------------------------------------------------------------
 Center     Atomic      Atomic             Coordinates (Angstroms)
 Number     Number       Type             X           Y           Z
 ---------------------------------------------------------------------
      1          6           0        0.000000    0.000000    0.000000
      2          6           0        0.000000    0.000000    1.397463
      3          6           0        1.221096    0.000000   -0.684705
      4          6           0        1.201650   -0.010697    2.101772
      5          1           0       -0.824276    0.007821    1.869996
      6          6           0       -1.253421   -0.110138   -0.810191
      7          6           0        2.414707    0.007815    0.021719
      8          1           0        1.232246   -0.005856   -1.634731
      9          6           0        2.403895   -0.006831    1.408800
     10          1           0        1.198494   -0.020531    3.051836
     11          6           0       -2.181066    1.054827   -0.943835
     12          8           0       -1.521975   -1.162865   -1.368501
     13          1           0        3.241298    0.023792   -0.445367
     14          1           0        3.224827   -0.014217    1.886678
     15          6           0       -1.735646    2.378871   -0.921328
     16          6           0       -3.534158    0.786487   -1.185174
     17          6           0       -2.638446    3.417876   -1.145402
     18          1           0       -0.820778    2.570882   -0.754167
     19          6           0       -4.431018    1.822843   -1.382413
     20          1           0       -3.838693   -0.112671   -1.213318
     21          6           0       -3.982624    3.143678   -1.374690
     22          1           0       -2.333549    4.317447   -1.141891
     23          1           0       -5.351112    1.634019   -1.523104
     24          1           0       -4.594088    3.854077   -1.525616
 ---------------------------------------------------------------------
                    Distance matrix (angstroms):
                    1          2          3          4          5
     1  C    0.000000
     2  C    1.397463   0.000000
     3  C    1.399963   2.413814   0.000000
     4  C    2.421058   1.392885   2.786566   0.000000
     5  H    2.043619   0.950147   3.272630   2.039225   0.000000
     6  C    1.496530   2.541049   2.480142   3.810091   2.716889
     7  C    2.414817   2.779127   1.387013   2.408002   3.729228
     8  H    2.047146   3.273021   0.950109   3.736632   4.063567
     9  C    2.786301   2.403931   2.404542   1.387667   3.260982
    10  H    3.278797   2.042977   3.736665   0.950119   2.342893
    11  C    2.600103   3.369182   3.571346   4.674808   3.294654
    12  O    2.354029   3.364405   3.056839   4.559431   3.513567
    13  H    3.271839   3.728619   2.034469   3.263323   4.678681
    14  H    3.736210   3.261755   3.259932   2.034583   4.049198
    15  C    3.085505   3.748105   3.802280   4.845294   3.774118
    16  C    3.809655   4.447342   4.845768   5.819570   4.157384
    17  C    4.467127   5.010932   5.175923   6.086509   4.900236
    18  H    2.802120   3.451467   3.283824   4.348695   3.668177
    19  C    4.986757   5.539350   5.979627   6.872290   5.184695
    20  H    4.027455   4.643752   5.088574   6.033678   4.313705
    21  C    5.256784   5.781768   6.118618   6.993752   5.507880
    22  H    5.038821   5.525769   5.611137   6.461564   5.470122
    23  H    5.798643   6.311428   6.823990   7.667040   5.886415
    24  H    6.187654   6.671128   7.026905   7.853980   6.366737
                    6          7          8          9         10
     6  C    0.000000
     7  C    3.763130   0.000000
     8  H    2.620930   2.035246   0.000000
     9  C    4.279082   1.387200   3.261263   0.000000
    10  H    4.575496   3.265208   4.686711   2.037829   0.000000
    11  C    1.495169   4.811409   3.640479   5.261546   5.342584
    12  O    1.221501   4.335973   2.999212   4.945934   5.314626
    13  H    4.511488   0.949567   2.334899   2.034727   4.050363
    14  H    5.228480   2.033434   4.046081   0.949923   2.337447
    15  C    2.537727   4.872029   3.873532   5.315718   5.491115
    16  C    2.479176   6.119797   4.852681   6.528286   6.403243
    17  C    3.804937   6.206854   5.190727   6.608915   6.645416
    18  H    2.716281   4.199961   3.410260   4.660637   5.027777
    19  C    3.763108   7.220101   5.956540   7.606222   7.399459
    20  H    2.616515   6.375330   5.089540   6.771750   6.601006
    21  C    4.284219   7.260127   6.097709   7.645989   7.513344
    22  H    4.569487   6.517119   5.625721   6.902809   6.991475
    23  H    4.510144   8.083251   6.785444   8.451542   8.158734
    24  H    5.233249   8.143168   6.989789   8.514057   8.337845
                   11         12         13         14         15
    11  C    0.000000
    12  O    2.352211   0.000000
    13  H    5.541979   4.994907   0.000000
    14  H    6.195026   5.869217   2.332413   0.000000
    15  C    1.397140   3.576242   5.526563   6.182076   0.000000
    16  C    1.400396   2.807573   6.858266   7.467348   2.416598
    17  C    2.415332   4.720113   6.825045   7.439808   1.394557
    18  H    2.045674   3.848369   4.804527   5.479390   0.949629
    19  C    2.417537   4.168594   7.935936   8.524888   2.790484
    20  H    2.045335   2.548367   7.122825   7.714466   3.273506
    21  C    2.791872   4.959954   7.923533   8.517991   2.416481
    22  H    3.272181   5.544711   7.071035   7.670142   2.040640
    23  H    3.274172   4.744339   8.808169   9.374968   3.740125
    24  H    3.741249   5.884919   8.788133   9.367117   3.272933
                   16         17         18         19         20
    16  C    0.000000
    17  C    2.779944   0.000000
    18  H    3.276013   2.043131   0.000000
    19  C    1.384664   2.411145   3.740066   0.000000
    20  H    0.949746   3.729607   4.064490   2.031171   0.000000
    21  C    2.406945   1.390889   3.272678   1.394891   3.263520
    22  H    3.729747   0.949843   2.342925   3.268069   4.679370
    23  H    2.033181   3.268541   4.689659   0.949747   2.331159
    24  H    3.263351   2.039453   4.059507   2.042795   4.050092
                   21         22         23         24
    21  C    0.000000
    22  H    2.037493   0.000000
    23  H    2.043001   4.056081   0.000000
    24  H    0.949386   2.339229   2.345581   0.000000
 Stoichiometry    C13H10O
 Framework group  C1[X(C13H10O)]
 Deg. of freedom    66
 Full point group                 C1      NOp   1
 Largest Abelian subgroup         C1      NOp   1
 Largest concise Abelian subgroup C1      NOp   1
                         Standard orientation:                         
 ---------------------------------------------------------------------
 Center     Atomic      Atomic             Coordinates (Angstroms)
 Number     Number       Type             X           Y           Z
 ---------------------------------------------------------------------
      1          6           0       -1.287209    0.353887    0.007799
      2          6           0       -1.783073   -0.099338    1.233201
      3          6           0       -2.087561    0.248312   -1.135961
      4          6           0       -3.063737   -0.640477    1.318033
      5          1           0       -1.243510   -0.038519    2.012914
      6          6           0        0.029390    1.052865   -0.124863
      7          6           0       -3.355080   -0.308148   -1.049064
      8          1           0       -1.762212    0.558744   -1.972912
      9          6           0       -3.843582   -0.741819    0.174709
     10          1           0       -3.401886   -0.938833    2.154314
     11          6           0        1.311607    0.288374   -0.041171
     12          8           0        0.057341    2.260917   -0.303448
     13          1           0       -3.889520   -0.392942   -1.829359
     14          1           0       -4.717358   -1.110373    0.229798
     15          6           0        1.425651   -1.039474   -0.460471
     16          6           0        2.451466    0.973110    0.398107
     17          6           0        2.670914   -1.667045   -0.444219
     18          1           0        0.657557   -1.513332   -0.755911
     19          6           0        3.681127    0.337645    0.435728
     20          1           0        2.380334    1.879572    0.672489
     21          6           0        3.796658   -0.983295    0.002725
     22          1           0        2.750634   -2.565990   -0.740438
     23          1           0        4.445502    0.801431    0.756124
     24          1           0        4.642310   -1.414683    0.013252
 ---------------------------------------------------------------------
 Rotational constants (GHZ):           1.7040596           0.3947296           0.3655291
 Leave Link  202 at Tue Nov 22 15:03:35 2022, MaxMem= 16106127360 cpu:               0.3 elap:               0.0
 (Enter /opt/ap/G16/B01/g16/l301.exe)
 Standard basis: 6-311++G(d,p) (5D, 7F)
 Ernie: Thresh=  0.10000D-02 Tol=  0.10000D-05 Strict=F.
 There are   392 symmetry adapted cartesian basis functions of A   symmetry.
 There are   378 symmetry adapted basis functions of A   symmetry.
   378 basis functions,   594 primitive gaussians,   392 cartesian basis functions
    48 alpha electrons       48 beta electrons
       nuclear repulsion energy       780.6409697034 Hartrees.
 IExCor= 4639 DFT=T Ex+Corr=wB97XD ExCW=0 ScaHFX=  1.000000
 ScaDFX=  1.000000  1.000000  1.000000  1.000000 ScalE2=  1.000000  1.000000
 IRadAn=      5 IRanWt=     -1 IRanGd=            0 ICorTp=0 IEmpDi=121
 HFx  wShort=  0.000000 wLong=  0.200000 cFull=  0.222036 cShort=  0.000000 cLong=  0.777964
 DFx  wShort=  0.000000 wLong=  0.200000 cFull=  0.000000 cShort=  0.000000 cLong=  1.000000
 NAtoms=   24 NActive=   24 NUniq=   24 SFac= 1.00D+00 NAtFMM=   60 NAOKFM=F Big=F
 Integral buffers will be    131072 words long.
 Raffenetti 2 integral format.
 Two-electron integral symmetry is turned on.
 R6Disp:  Grimme-D2 Dispersion energy=       -0.0138560421 Hartrees.
 Nuclear repulsion after empirical dispersion term =      780.6271136612 Hartrees.
 Leave Link  301 at Tue Nov 22 15:03:35 2022, MaxMem= 16106127360 cpu:               1.2 elap:               0.0
 (Enter /opt/ap/G16/B01/g16/l302.exe)
 NPDir=0 NMtPBC=     1 NCelOv=     1 NCel=       1 NClECP=     1 NCelD=      1
         NCelK=      1 NCelE2=     1 NClLst=     1 CellRange=     0.0.
 One-electron integrals computed using PRISM.
 One-electron integral symmetry used in STVInt
 NBasis=   378 RedAO= T EigKep=  1.54D-06  NBF=   378
 NBsUse=   376 1.00D-06 EigRej=  8.28D-07 NBFU=   376
 Precomputing XC quadrature grid using
 IXCGrd= 4 IRadAn=           5 IRanWt=          -1 IRanGd=           0 AccXCQ= 0.00D+00.
 Generated NRdTot=       0 NPtTot=           0 NUsed=           0 NTot=          32
 NSgBfM=   392   392   392   392   392 MxSgAt=    24 MxSgA2=    24.
 Leave Link  302 at Tue Nov 22 15:03:37 2022, MaxMem= 16106127360 cpu:              52.9 elap:               1.7
 (Enter /opt/ap/G16/B01/g16/l303.exe)
 DipDrv:  MaxL=1.
 Leave Link  303 at Tue Nov 22 15:03:37 2022, MaxMem= 16106127360 cpu:               1.6 elap:               0.1
 (Enter /opt/ap/G16/B01/g16/l401.exe)
 ExpMin= 3.60D-02 ExpMax= 8.59D+03 ExpMxC= 1.30D+03 IAcc=3 IRadAn=         5 AccDes= 0.00D+00
 Harris functional with IExCor= 4639 and IRadAn=       5 diagonalized for initial guess.
 HarFok:  IExCor= 4639 AccDes= 0.00D+00 IRadAn=         5 IDoV= 1 UseB2=F ITyADJ=14
 ICtDFT=  3500011 ScaDFX=  1.000000  1.000000  1.000000  1.000000
 FoFCou: FMM=F IPFlag=           0 FMFlag=      100000 FMFlg1=           0
         NFxFlg=           0 DoJE=T BraDBF=F KetDBF=T FulRan=T
         wScrn=  0.000000 ICntrl=       500 IOpCl=  0 I1Cent=   200000004 NGrid=           0
         NMat0=    1 NMatS0=      1 NMatT0=    0 NMatD0=    1 NMtDS0=    0 NMtDT0=    0
 Petite list used in FoFCou.
 Harris En= -550.904081950505    
 JPrj=0 DoOrth=F DoCkMO=F.
 Leave Link  401 at Tue Nov 22 15:03:38 2022, MaxMem= 16106127360 cpu:              24.5 elap:               0.8
 (Enter /opt/ap/G16/B01/g16/l502.exe)
 Integral symmetry usage will be decided dynamically.
 Closed shell SCF:
 Using DIIS extrapolation, IDIIS=  1040.
 NGot= 16106127360 LenX= 16105803762 LenY= 16105649657
 Requested convergence on RMS density matrix=1.00D-08 within 512 cycles.
 Requested convergence on MAX density matrix=1.00D-06.
 Requested convergence on             energy=1.00D-06.
 No special actions if energy rises.
 Fock matrices will be formed incrementally for  20 cycles.

 Cycle   1  Pass 1  IDiag  1:
 FoFJK:  IHMeth= 1 ICntrl=       0 DoSepK=T KAlg= 0 I1Cent=           0 FoldK=F
 IRaf=         1 NMat=       1 IRICut=       1 DoRegI=T DoRafI=F ISym2E= 0 IDoP0=0 IntGTp=1.
 FoFCou: FMM=F IPFlag=           0 FMFlag=      100000 FMFlg1=           0
         NFxFlg=           0 DoJE=T BraDBF=F KetDBF=F FulRan=T
         wScrn=  0.000000 ICntrl=       500 IOpCl=  0 I1Cent=           0 NGrid=           0
         NMat0=    1 NMatS0=      1 NMatT0=    0 NMatD0=    1 NMtDS0=    0 NMtDT0=    0
 Symmetry not used in FoFCou.
 E= -576.255866619343    
 DIIS: error= 5.24D-02 at cycle   1 NSaved=   1.
 NSaved= 1 IEnMin= 1 EnMin= -576.255866619343     IErMin= 1 ErrMin= 5.24D-02
 ErrMax= 5.24D-02  0.00D+00 EMaxC= 1.00D-01 BMatC= 1.20D+00 BMatP= 1.20D+00
 IDIUse=3 WtCom= 4.76D-01 WtEn= 5.24D-01
 Coeff-Com:  0.100D+01
 Coeff-En:   0.100D+01
 Coeff:      0.100D+01
 Gap=     0.419 Goal=   None    Shift=    0.000
 GapD=    0.419 DampG=2.000 DampE=0.500 DampFc=1.0000 IDamp=-1.
 RMSDP=2.62D-02 MaxDP=2.00D+00              OVMax= 1.14D-01

 Cycle   2  Pass 1  IDiag  1:
 RMSU=  1.74D-02    CP:  7.10D-01
 E= -576.345803321439     Delta-E=       -0.089936702096 Rises=F Damp=F
 DIIS: error= 1.28D-02 at cycle   2 NSaved=   2.
 NSaved= 2 IEnMin= 2 EnMin= -576.345803321439     IErMin= 2 ErrMin= 1.28D-02
 ErrMax= 1.28D-02  0.00D+00 EMaxC= 1.00D-01 BMatC= 7.79D-02 BMatP= 1.20D+00
 IDIUse=3 WtCom= 8.72D-01 WtEn= 1.28D-01
 Coeff-Com:  0.129D+00 0.871D+00
 Coeff-En:   0.156D+00 0.844D+00
 Coeff:      0.132D+00 0.868D+00
 Gap=     0.440 Goal=   None    Shift=    0.000
 RMSDP=1.12D-02 MaxDP=9.42D-01 DE=-8.99D-02 OVMax= 1.46D-01

 Cycle   3  Pass 1  IDiag  1:
 RMSU=  8.40D-03    CP:  6.87D-01  5.80D-01
 E= -576.365259553093     Delta-E=       -0.019456231654 Rises=F Damp=F
 DIIS: error= 1.24D-02 at cycle   3 NSaved=   3.
 NSaved= 3 IEnMin= 3 EnMin= -576.365259553093     IErMin= 3 ErrMin= 1.24D-02
 ErrMax= 1.24D-02  0.00D+00 EMaxC= 1.00D-01 BMatC= 5.46D-02 BMatP= 7.79D-02
 IDIUse=3 WtCom= 8.76D-01 WtEn= 1.24D-01
 Coeff-Com:  0.238D-01 0.459D+00 0.517D+00
 Coeff-En:   0.000D+00 0.419D+00 0.581D+00
 Coeff:      0.209D-01 0.454D+00 0.525D+00
 Gap=     0.361 Goal=   None    Shift=    0.000
 RMSDP=5.73D-03 MaxDP=3.69D-01 DE=-1.95D-02 OVMax= 6.62D-02

 Cycle   4  Pass 1  IDiag  1:
 RMSU=  1.57D-03    CP:  6.44D-01  7.74D-01  6.14D-01
 E= -576.413361491966     Delta-E=       -0.048101938873 Rises=F Damp=F
 DIIS: error= 1.84D-03 at cycle   4 NSaved=   4.
 NSaved= 4 IEnMin= 4 EnMin= -576.413361491966     IErMin= 4 ErrMin= 1.84D-03
 ErrMax= 1.84D-03  0.00D+00 EMaxC= 1.00D-01 BMatC= 8.91D-04 BMatP= 5.46D-02
 IDIUse=3 WtCom= 9.82D-01 WtEn= 1.84D-02
 Coeff-Com:  0.935D-02 0.193D+00 0.242D+00 0.556D+00
 Coeff-En:   0.000D+00 0.000D+00 0.000D+00 0.100D+01
 Coeff:      0.918D-02 0.189D+00 0.238D+00 0.564D+00
 Gap=     0.329 Goal=   None    Shift=    0.000
 RMSDP=8.30D-04 MaxDP=5.87D-02 DE=-4.81D-02 OVMax= 6.70D-03

 Cycle   5  Pass 1  IDiag  1:
 RMSU=  4.64D-04    CP:  6.45D-01  8.14D-01  6.20D-01  9.92D-01
 E= -576.413983458557     Delta-E=       -0.000621966592 Rises=F Damp=F
 DIIS: error= 6.01D-04 at cycle   5 NSaved=   5.
 NSaved= 5 IEnMin= 5 EnMin= -576.413983458557     IErMin= 5 ErrMin= 6.01D-04
 ErrMax= 6.01D-04  0.00D+00 EMaxC= 1.00D-01 BMatC= 8.48D-05 BMatP= 8.91D-04
 IDIUse=3 WtCom= 9.94D-01 WtEn= 6.01D-03
 Coeff-Com: -0.494D-03-0.622D-02 0.242D-02 0.224D+00 0.780D+00
 Coeff-En:   0.000D+00 0.000D+00 0.000D+00 0.000D+00 0.100D+01
 Coeff:     -0.491D-03-0.619D-02 0.241D-02 0.223D+00 0.781D+00
 Gap=     0.330 Goal=   None    Shift=    0.000
 RMSDP=4.06D-04 MaxDP=4.25D-02 DE=-6.22D-04 OVMax= 2.96D-03

 Cycle   6  Pass 1  IDiag  1:
 RMSU=  2.35D-04    CP:  6.42D-01  8.11D-01  6.41D-01  1.04D+00  7.56D-01
 E= -576.414047730605     Delta-E=       -0.000064272047 Rises=F Damp=F
 DIIS: error= 2.63D-04 at cycle   6 NSaved=   6.
 NSaved= 6 IEnMin= 6 EnMin= -576.414047730605     IErMin= 6 ErrMin= 2.63D-04
 ErrMax= 2.63D-04  0.00D+00 EMaxC= 1.00D-01 BMatC= 1.95D-05 BMatP= 8.48D-05
 IDIUse=3 WtCom= 9.97D-01 WtEn= 2.63D-03
 Coeff-Com: -0.123D-02-0.229D-01-0.227D-01 0.651D-01 0.427D+00 0.555D+00
 Coeff-En:   0.000D+00 0.000D+00 0.000D+00 0.000D+00 0.000D+00 0.100D+01
 Coeff:     -0.122D-02-0.228D-01-0.226D-01 0.650D-01 0.426D+00 0.556D+00
 Gap=     0.330 Goal=   None    Shift=    0.000
 RMSDP=1.08D-04 MaxDP=9.00D-03 DE=-6.43D-05 OVMax= 1.39D-03

 Cycle   7  Pass 1  IDiag  1:
 RMSU=  8.92D-05    CP:  6.42D-01  8.11D-01  6.38D-01  1.06D+00  8.45D-01
                    CP:  1.04D+00
 E= -576.414067761297     Delta-E=       -0.000020030692 Rises=F Damp=F
 DIIS: error= 6.16D-05 at cycle   7 NSaved=   7.
 NSaved= 7 IEnMin= 7 EnMin= -576.414067761297     IErMin= 7 ErrMin= 6.16D-05
 ErrMax= 6.16D-05  0.00D+00 EMaxC= 1.00D-01 BMatC= 5.24D-07 BMatP= 1.95D-05
 IDIUse=1 WtCom= 1.00D+00 WtEn= 0.00D+00
 Coeff-Com: -0.241D-03-0.464D-02-0.548D-02-0.934D-02-0.579D-02 0.109D+00
 Coeff-Com:  0.916D+00
 Coeff:     -0.241D-03-0.464D-02-0.548D-02-0.934D-02-0.579D-02 0.109D+00
 Coeff:      0.916D+00
 Gap=     0.330 Goal=   None    Shift=    0.000
 RMSDP=4.44D-05 MaxDP=3.16D-03 DE=-2.00D-05 OVMax= 5.94D-04

 Cycle   8  Pass 1  IDiag  1:
 RMSU=  2.38D-05    CP:  6.42D-01  8.11D-01  6.40D-01  1.06D+00  8.39D-01
                    CP:  1.15D+00  1.07D+00
 E= -576.414069087694     Delta-E=       -0.000001326397 Rises=F Damp=F
 DIIS: error= 1.83D-05 at cycle   8 NSaved=   8.
 NSaved= 8 IEnMin= 8 EnMin= -576.414069087694     IErMin= 8 ErrMin= 1.83D-05
 ErrMax= 1.83D-05  0.00D+00 EMaxC= 1.00D-01 BMatC= 9.13D-08 BMatP= 5.24D-07
 IDIUse=1 WtCom= 1.00D+00 WtEn= 0.00D+00
 Coeff-Com:  0.554D-04 0.829D-03 0.411D-03-0.123D-01-0.591D-01-0.290D-01
 Coeff-Com:  0.310D+00 0.789D+00
 Coeff:      0.554D-04 0.829D-03 0.411D-03-0.123D-01-0.591D-01-0.290D-01
 Coeff:      0.310D+00 0.789D+00
 Gap=     0.330 Goal=   None    Shift=    0.000
 RMSDP=1.47D-05 MaxDP=1.01D-03 DE=-1.33D-06 OVMax= 2.31D-04

 Cycle   9  Pass 1  IDiag  1:
 RMSU=  6.98D-06    CP:  6.42D-01  8.12D-01  6.41D-01  1.07D+00  8.38D-01
                    CP:  1.20D+00  1.10D+00  1.18D+00
 E= -576.414069291536     Delta-E=       -0.000000203841 Rises=F Damp=F
 DIIS: error= 5.93D-06 at cycle   9 NSaved=   9.
 NSaved= 9 IEnMin= 9 EnMin= -576.414069291536     IErMin= 9 ErrMin= 5.93D-06
 ErrMax= 5.93D-06  0.00D+00 EMaxC= 1.00D-01 BMatC= 7.72D-09 BMatP= 9.13D-08
 IDIUse=1 WtCom= 1.00D+00 WtEn= 0.00D+00
 Coeff-Com:  0.428D-04 0.763D-03 0.783D-03-0.637D-03-0.988D-02-0.180D-01
 Coeff-Com: -0.683D-01 0.146D+00 0.949D+00
 Coeff:      0.428D-04 0.763D-03 0.783D-03-0.637D-03-0.988D-02-0.180D-01
 Coeff:     -0.683D-01 0.146D+00 0.949D+00
 Gap=     0.331 Goal=   None    Shift=    0.000
 RMSDP=6.28D-06 MaxDP=4.55D-04 DE=-2.04D-07 OVMax= 1.15D-04

 Cycle  10  Pass 1  IDiag  1:
 RMSU=  1.82D-06    CP:  6.42D-01  8.11D-01  6.41D-01  1.07D+00  8.35D-01
                    CP:  1.21D+00  1.10D+00  1.33D+00  1.45D+00
 E= -576.414069317677     Delta-E=       -0.000000026142 Rises=F Damp=F
 DIIS: error= 1.72D-06 at cycle  10 NSaved=  10.
 NSaved=10 IEnMin=10 EnMin= -576.414069317677     IErMin=10 ErrMin= 1.72D-06
 ErrMax= 1.72D-06  0.00D+00 EMaxC= 1.00D-01 BMatC= 8.19D-10 BMatP= 7.72D-09
 IDIUse=1 WtCom= 1.00D+00 WtEn= 0.00D+00
 Coeff-Com: -0.276D-05-0.176D-04 0.215D-04 0.152D-02 0.550D-02 0.244D-02
 Coeff-Com: -0.352D-01-0.713D-01 0.872D-01 0.101D+01
 Coeff:     -0.276D-05-0.176D-04 0.215D-04 0.152D-02 0.550D-02 0.244D-02
 Coeff:     -0.352D-01-0.713D-01 0.872D-01 0.101D+01
 Gap=     0.331 Goal=   None    Shift=    0.000
 RMSDP=2.22D-06 MaxDP=1.44D-04 DE=-2.61D-08 OVMax= 4.48D-05

 Cycle  11  Pass 1  IDiag  1:
 RMSU=  1.07D-06    CP:  6.42D-01  8.11D-01  6.41D-01  1.07D+00  8.34D-01
                    CP:  1.20D+00  1.09D+00  1.37D+00  1.56D+00  1.07D+00
 E= -576.414069321260     Delta-E=       -0.000000003583 Rises=F Damp=F
 DIIS: error= 9.22D-07 at cycle  11 NSaved=  11.
 NSaved=11 IEnMin=11 EnMin= -576.414069321260     IErMin=11 ErrMin= 9.22D-07
 ErrMax= 9.22D-07  0.00D+00 EMaxC= 1.00D-01 BMatC= 1.61D-10 BMatP= 8.19D-10
 IDIUse=1 WtCom= 1.00D+00 WtEn= 0.00D+00
 Coeff-Com: -0.432D-05-0.670D-04-0.602D-04 0.449D-03 0.206D-02 0.203D-02
 Coeff-Com: -0.145D-02-0.322D-01-0.815D-01 0.240D+00 0.871D+00
 Coeff:     -0.432D-05-0.670D-04-0.602D-04 0.449D-03 0.206D-02 0.203D-02
 Coeff:     -0.145D-02-0.322D-01-0.815D-01 0.240D+00 0.871D+00
 Gap=     0.331 Goal=   None    Shift=    0.000
 RMSDP=7.05D-07 MaxDP=6.45D-05 DE=-3.58D-09 OVMax= 1.91D-05

 Cycle  12  Pass 1  IDiag  1:
 RMSU=  2.95D-07    CP:  6.42D-01  8.11D-01  6.41D-01  1.07D+00  8.34D-01
                    CP:  1.20D+00  1.09D+00  1.37D+00  1.60D+00  1.15D+00
                    CP:  1.29D+00
 E= -576.414069321934     Delta-E=       -0.000000000674 Rises=F Damp=F
 DIIS: error= 4.86D-07 at cycle  12 NSaved=  12.
 NSaved=12 IEnMin=12 EnMin= -576.414069321934     IErMin=12 ErrMin= 4.86D-07
 ErrMax= 4.86D-07  0.00D+00 EMaxC= 1.00D-01 BMatC= 3.46D-11 BMatP= 1.61D-10
 IDIUse=1 WtCom= 1.00D+00 WtEn= 0.00D+00
 Coeff-Com: -0.109D-06-0.963D-05-0.171D-04-0.274D-03-0.939D-03-0.268D-03
 Coeff-Com:  0.847D-02 0.115D-01-0.379D-01-0.192D+00 0.173D+00 0.104D+01
 Coeff:     -0.109D-06-0.963D-05-0.171D-04-0.274D-03-0.939D-03-0.268D-03
 Coeff:      0.847D-02 0.115D-01-0.379D-01-0.192D+00 0.173D+00 0.104D+01
 Gap=     0.331 Goal=   None    Shift=    0.000
 RMSDP=3.69D-07 MaxDP=2.70D-05 DE=-6.74D-10 OVMax= 1.20D-05

 Cycle  13  Pass 1  IDiag  1:
 RMSU=  1.52D-07    CP:  6.42D-01  8.11D-01  6.40D-01  1.07D+00  8.35D-01
                    CP:  1.20D+00  1.09D+00  1.36D+00  1.60D+00  1.16D+00
                    CP:  1.46D+00  1.55D+00
 E= -576.414069322134     Delta-E=       -0.000000000200 Rises=F Damp=F
 DIIS: error= 1.86D-07 at cycle  13 NSaved=  13.
 NSaved=13 IEnMin=13 EnMin= -576.414069322134     IErMin=13 ErrMin= 1.86D-07
 ErrMax= 1.86D-07  0.00D+00 EMaxC= 1.00D-01 BMatC= 7.61D-12 BMatP= 3.46D-11
 IDIUse=1 WtCom= 1.00D+00 WtEn= 0.00D+00
 Coeff-Com:  0.688D-06 0.727D-05 0.435D-05-0.185D-03-0.677D-03-0.477D-03
 Coeff-Com:  0.312D-02 0.970D-02 0.927D-03-0.108D+00-0.853D-01 0.365D+00
 Coeff-Com:  0.816D+00
 Coeff:      0.688D-06 0.727D-05 0.435D-05-0.185D-03-0.677D-03-0.477D-03
 Coeff:      0.312D-02 0.970D-02 0.927D-03-0.108D+00-0.853D-01 0.365D+00
 Coeff:      0.816D+00
 Gap=     0.331 Goal=   None    Shift=    0.000
 RMSDP=1.75D-07 MaxDP=1.44D-05 DE=-2.00D-10 OVMax= 4.06D-06

 Cycle  14  Pass 1  IDiag  1:
 RMSU=  6.19D-08    CP:  6.42D-01  8.11D-01  6.40D-01  1.07D+00  8.35D-01
                    CP:  1.20D+00  1.09D+00  1.36D+00  1.59D+00  1.15D+00
                    CP:  1.52D+00  1.76D+00  1.35D+00
 E= -576.414069322163     Delta-E=       -0.000000000029 Rises=F Damp=F
 DIIS: error= 6.32D-08 at cycle  14 NSaved=  14.
 NSaved=14 IEnMin=14 EnMin= -576.414069322163     IErMin=14 ErrMin= 6.32D-08
 ErrMax= 6.32D-08  0.00D+00 EMaxC= 1.00D-01 BMatC= 1.01D-12 BMatP= 7.61D-12
 IDIUse=1 WtCom= 1.00D+00 WtEn= 0.00D+00
 Coeff-Com:  0.143D-06 0.327D-05 0.482D-05 0.586D-06 0.288D-04-0.614D-04
 Coeff-Com: -0.801D-03 0.170D-04 0.606D-02 0.984D-02-0.443D-01-0.111D+00
 Coeff-Com:  0.145D+00 0.996D+00
 Coeff:      0.143D-06 0.327D-05 0.482D-05 0.586D-06 0.288D-04-0.614D-04
 Coeff:     -0.801D-03 0.170D-04 0.606D-02 0.984D-02-0.443D-01-0.111D+00
 Coeff:      0.145D+00 0.996D+00
 Gap=     0.331 Goal=   None    Shift=    0.000
 RMSDP=7.30D-08 MaxDP=5.96D-06 DE=-2.89D-11 OVMax= 1.92D-06

 Cycle  15  Pass 1  IDiag  1:
 RMSU=  1.73D-08    CP:  6.42D-01  8.11D-01  6.40D-01  1.07D+00  8.35D-01
                    CP:  1.20D+00  1.09D+00  1.36D+00  1.59D+00  1.14D+00
                    CP:  1.52D+00  1.85D+00  1.58D+00  1.17D+00
 E= -576.414069322159     Delta-E=        0.000000000004 Rises=F Damp=F
 DIIS: error= 2.16D-08 at cycle  15 NSaved=  15.
 NSaved=15 IEnMin=14 EnMin= -576.414069322163     IErMin=15 ErrMin= 2.16D-08
 ErrMax= 2.16D-08  0.00D+00 EMaxC= 1.00D-01 BMatC= 1.92D-13 BMatP= 1.01D-12
 IDIUse=1 WtCom= 1.00D+00 WtEn= 0.00D+00
 Coeff-Com: -0.381D-07 0.390D-06 0.154D-05 0.258D-04 0.108D-03 0.485D-04
 Coeff-Com: -0.718D-03-0.130D-02 0.237D-02 0.194D-01-0.423D-02-0.959D-01
 Coeff-Com: -0.666D-01 0.388D+00 0.759D+00
 Coeff:     -0.381D-07 0.390D-06 0.154D-05 0.258D-04 0.108D-03 0.485D-04
 Coeff:     -0.718D-03-0.130D-02 0.237D-02 0.194D-01-0.423D-02-0.959D-01
 Coeff:     -0.666D-01 0.388D+00 0.759D+00
 Gap=     0.331 Goal=   None    Shift=    0.000
 RMSDP=2.12D-08 MaxDP=1.89D-06 DE= 4.32D-12 OVMax= 4.99D-07

 Cycle  16  Pass 1  IDiag  1:
 RMSU=  6.79D-09    CP:  6.42D-01  8.11D-01  6.40D-01  1.07D+00  8.35D-01
                    CP:  1.20D+00  1.09D+00  1.36D+00  1.59D+00  1.14D+00
                    CP:  1.51D+00  1.87D+00  1.63D+00  1.27D+00  1.06D+00
 E= -576.414069322170     Delta-E=       -0.000000000011 Rises=F Damp=F
 DIIS: error= 4.50D-09 at cycle  16 NSaved=  16.
 NSaved=16 IEnMin=16 EnMin= -576.414069322170     IErMin=16 ErrMin= 4.50D-09
 ErrMax= 4.50D-09  0.00D+00 EMaxC= 1.00D-01 BMatC= 6.49D-15 BMatP= 1.92D-13
 IDIUse=1 WtCom= 1.00D+00 WtEn= 0.00D+00
 Coeff-Com: -0.103D-07-0.259D-06-0.363D-06 0.170D-05 0.284D-05 0.118D-04
 Coeff-Com:  0.371D-04-0.972D-04-0.532D-03 0.964D-05 0.427D-02 0.625D-02
 Coeff-Com: -0.188D-01-0.759D-01 0.293D-01 0.106D+01
 Coeff:     -0.103D-07-0.259D-06-0.363D-06 0.170D-05 0.284D-05 0.118D-04
 Coeff:      0.371D-04-0.972D-04-0.532D-03 0.964D-05 0.427D-02 0.625D-02
 Coeff:     -0.188D-01-0.759D-01 0.293D-01 0.106D+01
 Gap=     0.331 Goal=   None    Shift=    0.000
 RMSDP=6.27D-09 MaxDP=3.82D-07 DE=-1.11D-11 OVMax= 1.42D-07

 SCF Done:  E(RwB97XD) =  -576.414069322     A.U. after   16 cycles
            NFock= 16  Conv=0.63D-08     -V/T= 2.0000
 KE= 5.764001724205D+02 PE=-2.903441620972D+03 EE= 9.700002655683D+02
 Leave Link  502 at Tue Nov 22 15:04:16 2022, MaxMem= 16106127360 cpu:            1205.3 elap:              37.8
 (Enter /opt/ap/G16/B01/g16/l601.exe)
 Copying SCF densities to generalized density rwf, IOpCl= 0 IROHF=0.

 **********************************************************************

            Population analysis using the SCF Density.

 **********************************************************************

 Orbital symmetries:
       Occupied  (A) (A) (A) (A) (A) (A) (A) (A) (A) (A) (A) (A)
                 (A) (A) (A) (A) (A) (A) (A) (A) (A) (A) (A) (A)
                 (A) (A) (A) (A) (A) (A) (A) (A) (A) (A) (A) (A)
                 (A) (A) (A) (A) (A) (A) (A) (A) (A) (A) (A) (A)
       Virtual   (A) (A) (A) (A) (A) (A) (A) (A) (A) (A) (A) (A)
                 (A) (A) (A) (A) (A) (A) (A) (A) (A) (A) (A) (A)
                 (A) (A) (A) (A) (A) (A) (A) (A) (A) (A) (A) (A)
                 (A) (A) (A) (A) (A) (A) (A) (A) (A) (A) (A) (A)
                 (A) (A) (A) (A) (A) (A) (A) (A) (A) (A) (A) (A)
                 (A) (A) (A) (A) (A) (A) (A) (A) (A) (A) (A) (A)
                 (A) (A) (A) (A) (A) (A) (A) (A) (A) (A) (A) (A)
                 (A) (A) (A) (A) (A) (A) (A) (A) (A) (A) (A) (A)
                 (A) (A) (A) (A) (A) (A) (A) (A) (A) (A) (A) (A)
                 (A) (A) (A) (A) (A) (A) (A) (A) (A) (A) (A) (A)
                 (A) (A) (A) (A) (A) (A) (A) (A) (A) (A) (A) (A)
                 (A) (A) (A) (A) (A) (A) (A) (A) (A) (A) (A) (A)
                 (A) (A) (A) (A) (A) (A) (A) (A) (A) (A) (A) (A)
                 (A) (A) (A) (A) (A) (A) (A) (A) (A) (A) (A) (A)
                 (A) (A) (A) (A) (A) (A) (A) (A) (A) (A) (A) (A)
                 (A) (A) (A) (A) (A) (A) (A) (A) (A) (A) (A) (A)
                 (A) (A) (A) (A) (A) (A) (A) (A) (A) (A) (A) (A)
                 (A) (A) (A) (A) (A) (A) (A) (A) (A) (A) (A) (A)
                 (A) (A) (A) (A) (A) (A) (A) (A) (A) (A) (A) (A)
                 (A) (A) (A) (A) (A) (A) (A) (A) (A) (A) (A) (A)
                 (A) (A) (A) (A) (A) (A) (A) (A) (A) (A) (A) (A)
                 (A) (A) (A) (A) (A) (A) (A) (A) (A) (A) (A) (A)
                 (A) (A) (A) (A) (A) (A) (A) (A) (A) (A) (A) (A)
                 (A) (A) (A) (A) (A) (A) (A) (A) (A) (A) (A) (A)
                 (A) (A) (A) (A) (A) (A) (A) (A) (A) (A) (A) (A)
                 (A) (A) (A) (A) (A) (A) (A) (A) (A) (A) (A) (A)
                 (A) (A) (A) (A) (A) (A) (A) (A) (A) (A) (A) (A)
                 (A) (A) (A) (A)
 The electronic state is 1-A.
 Alpha  occ. eigenvalues --  -19.24298 -10.38465 -10.30614 -10.30559 -10.29047
 Alpha  occ. eigenvalues --  -10.28719 -10.28666 -10.28501 -10.28495 -10.28431
 Alpha  occ. eigenvalues --  -10.28291 -10.28232 -10.28057 -10.27979  -1.15172
 Alpha  occ. eigenvalues --   -0.97846  -0.97371  -0.89032  -0.87385  -0.87194
 Alpha  occ. eigenvalues --   -0.86833  -0.76775  -0.73894  -0.73397  -0.72576
 Alpha  occ. eigenvalues --   -0.68005  -0.65484  -0.62813  -0.60366  -0.56826
 Alpha  occ. eigenvalues --   -0.56275  -0.55497  -0.54521  -0.53965  -0.53812
 Alpha  occ. eigenvalues --   -0.52388  -0.49121  -0.47135  -0.46558  -0.46294
 Alpha  occ. eigenvalues --   -0.45618  -0.44956  -0.44161  -0.35215  -0.34799
 Alpha  occ. eigenvalues --   -0.34263  -0.33915  -0.32981
 Alpha virt. eigenvalues --    0.00071   0.03621   0.03900   0.04229   0.04336
 Alpha virt. eigenvalues --    0.05032   0.05078   0.05398   0.05847   0.06877
 Alpha virt. eigenvalues --    0.07378   0.07948   0.08864   0.09433   0.10180
 Alpha virt. eigenvalues --    0.11367   0.11882   0.12948   0.13466   0.14451
 Alpha virt. eigenvalues --    0.14742   0.15094   0.15382   0.15846   0.16496
 Alpha virt. eigenvalues --    0.17002   0.17117   0.17282   0.17633   0.17788
 Alpha virt. eigenvalues --    0.18032   0.18484   0.18710   0.18959   0.19035
 Alpha virt. eigenvalues --    0.19427   0.19902   0.20371   0.20557   0.20741
 Alpha virt. eigenvalues --    0.21585   0.21826   0.22511   0.23299   0.23733
 Alpha virt. eigenvalues --    0.23976   0.24426   0.24569   0.25383   0.26093
 Alpha virt. eigenvalues --    0.26158   0.27110   0.27598   0.27989   0.28090
 Alpha virt. eigenvalues --    0.28559   0.29264   0.30087   0.30301   0.30911
 Alpha virt. eigenvalues --    0.31257   0.31370   0.32398   0.32995   0.33688
 Alpha virt. eigenvalues --    0.34531   0.35085   0.35251   0.35608   0.36602
 Alpha virt. eigenvalues --    0.37245   0.37695   0.37887   0.38550   0.38850
 Alpha virt. eigenvalues --    0.39336   0.39499   0.41047   0.41113   0.42307
 Alpha virt. eigenvalues --    0.42461   0.43077   0.43862   0.44453   0.45103
 Alpha virt. eigenvalues --    0.45708   0.46154   0.46725   0.47316   0.50625
 Alpha virt. eigenvalues --    0.51584   0.55883   0.57419   0.57880   0.60899
 Alpha virt. eigenvalues --    0.61460   0.62018   0.62787   0.63299   0.63535
 Alpha virt. eigenvalues --    0.64059   0.64488   0.64894   0.65318   0.65695
 Alpha virt. eigenvalues --    0.66075   0.66264   0.68103   0.68868   0.70302
 Alpha virt. eigenvalues --    0.71246   0.71638   0.73171   0.73835   0.74968
 Alpha virt. eigenvalues --    0.75520   0.75931   0.76335   0.77077   0.78436
 Alpha virt. eigenvalues --    0.80154   0.80303   0.81198   0.81980   0.83034
 Alpha virt. eigenvalues --    0.83637   0.84170   0.84797   0.87647   0.88102
 Alpha virt. eigenvalues --    0.88476   0.90029   0.92412   0.93214   0.93927
 Alpha virt. eigenvalues --    0.94134   0.94615   0.95029   0.95749   0.96615
 Alpha virt. eigenvalues --    0.97057   0.97635   0.98800   0.99484   1.01534
 Alpha virt. eigenvalues --    1.02138   1.02677   1.03164   1.04866   1.06182
 Alpha virt. eigenvalues --    1.06882   1.08913   1.11092   1.12252   1.13391
 Alpha virt. eigenvalues --    1.14659   1.16022   1.16809   1.17394   1.18004
 Alpha virt. eigenvalues --    1.18986   1.21293   1.21953   1.22890   1.23297
 Alpha virt. eigenvalues --    1.28629   1.30629   1.32715   1.35384   1.39829
 Alpha virt. eigenvalues --    1.42034   1.43407   1.44737   1.48752   1.54917
 Alpha virt. eigenvalues --    1.57172   1.58480   1.59401   1.60564   1.61297
 Alpha virt. eigenvalues --    1.62821   1.63356   1.64293   1.65534   1.66745
 Alpha virt. eigenvalues --    1.68167   1.68709   1.68934   1.69254   1.73960
 Alpha virt. eigenvalues --    1.74898   1.75385   1.75922   1.76985   1.77726
 Alpha virt. eigenvalues --    1.79876   1.83867   1.85208   1.86596   1.88574
 Alpha virt. eigenvalues --    1.90166   1.91391   1.91989   1.92357   1.94468
 Alpha virt. eigenvalues --    1.94989   1.95220   1.97750   2.00606   2.01046
 Alpha virt. eigenvalues --    2.02186   2.03175   2.04294   2.04917   2.05336
 Alpha virt. eigenvalues --    2.05594   2.07698   2.08982   2.09942   2.10693
 Alpha virt. eigenvalues --    2.11586   2.15807   2.16072   2.17510   2.20865
 Alpha virt. eigenvalues --    2.21445   2.26511   2.26897   2.27700   2.30610
 Alpha virt. eigenvalues --    2.32816   2.42606   2.43862   2.47212   2.47635
 Alpha virt. eigenvalues --    2.48488   2.49797   2.50486   2.51014   2.54343
 Alpha virt. eigenvalues --    2.58644   2.59495   2.60381   2.66751   2.68431
 Alpha virt. eigenvalues --    2.70922   2.78218   2.79577   2.81092   2.82623
 Alpha virt. eigenvalues --    2.83401   2.84149   2.85188   2.87782   2.88311
 Alpha virt. eigenvalues --    2.91387   2.91856   2.92980   2.94567   2.95949
 Alpha virt. eigenvalues --    2.96533   2.97991   2.99179   2.99881   3.00330
 Alpha virt. eigenvalues --    3.00694   3.01114   3.02248   3.02636   3.03435
 Alpha virt. eigenvalues --    3.05857   3.09563   3.13135   3.15075   3.18384
 Alpha virt. eigenvalues --    3.19590   3.20678   3.24039   3.25431   3.25575
 Alpha virt. eigenvalues --    3.28026   3.30613   3.32044   3.37388   3.44732
 Alpha virt. eigenvalues --    3.48889   3.49394   3.51168   3.53417   3.64796
 Alpha virt. eigenvalues --    3.70097   3.70778   3.70953   3.75446   3.76857
 Alpha virt. eigenvalues --    3.83400   3.89033   3.91172   4.00523   4.29385
 Alpha virt. eigenvalues --    4.36815   4.37404   4.39019   4.40777   4.41536
 Alpha virt. eigenvalues --    4.42694   4.50793   4.51092   4.52434   4.94936
 Alpha virt. eigenvalues --    4.95477   5.22507   5.34966   5.85678  23.89312
 Alpha virt. eigenvalues --   23.95739  23.98438  24.17224  24.19736  24.24088
 Alpha virt. eigenvalues --   24.24704  24.30151  24.31489  24.34054  24.34148
 Alpha virt. eigenvalues --   24.43244  24.44460  50.14007
          Condensed to atoms (all electrons):
               1          2          3          4          5          6
     1  C   11.141068  -0.720365  -0.414588  -0.432766   0.005307  -1.447292
     2  C   -0.720365  13.156770  -3.966667  -1.350816   0.554085  -3.315134
     3  C   -0.414588  -3.966667   9.541804   0.456429  -0.019287   0.191293
     4  C   -0.432766  -1.350816   0.456429   6.760813  -0.148618   0.960661
     5  H    0.005307   0.554085  -0.019287  -0.148618   0.495564  -0.107775
     6  C   -1.447292  -3.315134   0.191293   0.960661  -0.107775  17.609197
     7  C   -0.696262  -0.248218   0.513567  -0.031903   0.010740   0.301632
     8  H    0.099151   0.064049   0.343573   0.004134  -0.001760  -0.024864
     9  C   -0.498202   0.938584  -0.699917  -0.126634   0.011728  -0.610416
    10  H    0.035191  -0.130616   0.024046   0.475051  -0.013439   0.020206
    11  C   -1.745316   1.319270  -0.172839  -0.230773   0.028763  -6.583006
    12  O    0.174969   0.206108  -0.210646  -0.008784   0.000508   0.283956
    13  H   -0.009890  -0.029856  -0.028426   0.018520   0.001709   0.011888
    14  H    0.025803   0.021377  -0.013281  -0.070513  -0.000658  -0.014141
    15  C    0.024915   0.615145   0.342962  -0.238873   0.031953  -3.047200
    16  C   -0.392484  -0.489086  -0.041425   0.271148  -0.041227   1.631843
    17  C   -0.189899  -0.407173   0.186052   0.086861  -0.020077   1.433421
    18  H    0.009538   0.079516  -0.047792  -0.012814   0.000107  -0.119990
    19  C   -0.077129  -0.176948   0.019544   0.040932  -0.009224   0.259241
    20  H    0.014378  -0.031350   0.028810  -0.010986  -0.000460  -0.045947
    21  C    0.044564   0.076340  -0.000985  -0.014117   0.009314  -0.186267
    22  H   -0.006360  -0.013266   0.007341   0.001489  -0.000597   0.020667
    23  H   -0.009015   0.000468  -0.002226   0.001423  -0.000623   0.015067
    24  H    0.002874   0.001582   0.000498  -0.000787   0.000392  -0.022364
               7          8          9         10         11         12
     1  C   -0.696262   0.099151  -0.498202   0.035191  -1.745316   0.174969
     2  C   -0.248218   0.064049   0.938584  -0.130616   1.319270   0.206108
     3  C    0.513567   0.343573  -0.699917   0.024046  -0.172839  -0.210646
     4  C   -0.031903   0.004134  -0.126634   0.475051  -0.230773  -0.008784
     5  H    0.010740  -0.001760   0.011728  -0.013439   0.028763   0.000508
     6  C    0.301632  -0.024864  -0.610416   0.020206  -6.583006   0.283956
     7  C    5.771108  -0.082031   0.446971   0.006081  -0.234803  -0.043424
     8  H   -0.082031   0.490365  -0.009454   0.000453  -0.041061  -0.007386
     9  C    0.446971  -0.009454   6.229075  -0.090326   0.183620   0.020152
    10  H    0.006081   0.000453  -0.090326   0.489148   0.000297  -0.000432
    11  C   -0.234803  -0.041061   0.183620   0.000297  15.704658  -0.046007
    12  O   -0.043424  -0.007386   0.020152  -0.000432  -0.046007   7.858840
    13  H    0.453379  -0.015336  -0.086617   0.000467   0.001513  -0.000758
    14  H   -0.069042   0.001535   0.471084  -0.012046  -0.000193   0.000337
    15  C    0.162688  -0.057439   0.122682  -0.008220   1.371767   0.034657
    16  C   -0.059156   0.021826  -0.080477   0.004571  -1.844106  -0.037183
    17  C    0.099940  -0.002934  -0.045192   0.002396  -1.941568  -0.018115
    18  H   -0.013515  -0.001972   0.022973  -0.001066  -0.002090  -0.000063
    19  C   -0.019332  -0.001118  -0.009472   0.000501  -0.797576  -0.015026
    20  H    0.003640  -0.000567   0.001422  -0.000138   0.076368  -0.012560
    21  C    0.014791  -0.001044   0.001567  -0.000122  -0.134640   0.010443
    22  H    0.000534   0.000069  -0.001089   0.000097   0.042141  -0.000076
    23  H   -0.000603   0.000034  -0.000131   0.000030  -0.012710   0.000537
    24  H    0.000210  -0.000102   0.000148  -0.000014   0.020017   0.000288
              13         14         15         16         17         18
     1  C   -0.009890   0.025803   0.024915  -0.392484  -0.189899   0.009538
     2  C   -0.029856   0.021377   0.615145  -0.489086  -0.407173   0.079516
     3  C   -0.028426  -0.013281   0.342962  -0.041425   0.186052  -0.047792
     4  C    0.018520  -0.070513  -0.238873   0.271148   0.086861  -0.012814
     5  H    0.001709  -0.000658   0.031953  -0.041227  -0.020077   0.000107
     6  C    0.011888  -0.014141  -3.047200   1.631843   1.433421  -0.119990
     7  C    0.453379  -0.069042   0.162688  -0.059156   0.099940  -0.013515
     8  H   -0.015336   0.001535  -0.057439   0.021826  -0.002934  -0.001972
     9  C   -0.086617   0.471084   0.122682  -0.080477  -0.045192   0.022973
    10  H    0.000467  -0.012046  -0.008220   0.004571   0.002396  -0.001066
    11  C    0.001513  -0.000193   1.371767  -1.844106  -1.941568  -0.002090
    12  O   -0.000758   0.000337   0.034657  -0.037183  -0.018115  -0.000063
    13  H    0.494563  -0.013764   0.001496   0.000232   0.001649  -0.002196
    14  H   -0.013764   0.491512  -0.001377  -0.000287  -0.001391   0.000285
    15  C    0.001496  -0.001377  13.263955  -4.200637  -2.364055   0.678309
    16  C    0.000232  -0.000287  -4.200637  10.189359   0.945354  -0.101420
    17  C    0.001649  -0.001391  -2.364055   0.945354   7.829235  -0.148620
    18  H   -0.002196   0.000285   0.678309  -0.101420  -0.148620   0.487095
    19  C    0.000136  -0.000048  -0.132936   0.521935  -0.008901   0.012171
    20  H   -0.000103   0.000058   0.060809   0.363835   0.004662   0.000367
    21  C    0.000389  -0.000099   0.135092  -0.641575   0.517754   0.011365
    22  H    0.000089  -0.000012  -0.158620   0.053180   0.459699  -0.017611
    23  H    0.000005  -0.000004  -0.028110  -0.052347   0.016547  -0.001060
    24  H    0.000005  -0.000001   0.013934  -0.044609  -0.082109   0.001891
              19         20         21         22         23         24
     1  C   -0.077129   0.014378   0.044564  -0.006360  -0.009015   0.002874
     2  C   -0.176948  -0.031350   0.076340  -0.013266   0.000468   0.001582
     3  C    0.019544   0.028810  -0.000985   0.007341  -0.002226   0.000498
     4  C    0.040932  -0.010986  -0.014117   0.001489   0.001423  -0.000787
     5  H   -0.009224  -0.000460   0.009314  -0.000597  -0.000623   0.000392
     6  C    0.259241  -0.045947  -0.186267   0.020667   0.015067  -0.022364
     7  C   -0.019332   0.003640   0.014791   0.000534  -0.000603   0.000210
     8  H   -0.001118  -0.000567  -0.001044   0.000069   0.000034  -0.000102
     9  C   -0.009472   0.001422   0.001567  -0.001089  -0.000131   0.000148
    10  H    0.000501  -0.000138  -0.000122   0.000097   0.000030  -0.000014
    11  C   -0.797576   0.076368  -0.134640   0.042141  -0.012710   0.020017
    12  O   -0.015026  -0.012560   0.010443  -0.000076   0.000537   0.000288
    13  H    0.000136  -0.000103   0.000389   0.000089   0.000005   0.000005
    14  H   -0.000048   0.000058  -0.000099  -0.000012  -0.000004  -0.000001
    15  C   -0.132936   0.060809   0.135092  -0.158620  -0.028110   0.013934
    16  C    0.521935   0.363835  -0.641575   0.053180  -0.052347  -0.044609
    17  C   -0.008901   0.004662   0.517754   0.459699   0.016547  -0.082109
    18  H    0.012171   0.000367   0.011365  -0.017611  -0.001060   0.001891
    19  C    6.170488  -0.133935   0.335111   0.006297   0.488136  -0.066713
    20  H   -0.133935   0.462295  -0.000947   0.000061  -0.013859   0.001778
    21  C    0.335111  -0.000947   5.713692  -0.077044  -0.069930   0.527083
    22  H    0.006297   0.000061  -0.077044   0.489073   0.001660  -0.016309
    23  H    0.488136  -0.013859  -0.069930   0.001660   0.485170  -0.017152
    24  H   -0.066713   0.001778   0.527083  -0.016309  -0.017152   0.499527
 Mulliken charges:
               1
     1  C    1.061813
     2  C   -0.153801
     3  C   -0.037842
     4  C   -0.399076
     5  H    0.213575
     6  C   -1.214676
     7  C   -0.286992
     8  H    0.221877
     9  C   -0.192080
    10  H    0.197885
    11  C    1.038274
    12  O   -0.190335
    13  H    0.200907
    14  H    0.184865
    15  C   -0.622897
    16  C    0.022735
    17  C   -0.353537
    18  H    0.166591
    19  C   -0.406136
    20  H    0.232371
    21  C   -0.270734
    22  H    0.208585
    23  H    0.198693
    24  H    0.179934
 Sum of Mulliken charges =  -0.00000
 Mulliken charges with hydrogens summed into heavy atoms:
               1
     1  C    1.061813
     2  C    0.059774
     3  C    0.184035
     4  C   -0.201192
     6  C   -1.214676
     7  C   -0.086085
     9  C   -0.007215
    11  C    1.038274
    12  O   -0.190335
    15  C   -0.456306
    16  C    0.255106
    17  C   -0.144951
    19  C   -0.207443
    21  C   -0.090800
 Electronic spatial extent (au):  <R**2>=           3068.0219
 Charge=              0.0000 electrons
 Dipole moment (field-independent basis, Debye):
    X=              0.3225    Y=             -3.1739    Z=              0.4416  Tot=              3.2207
 Quadrupole moment (field-independent basis, Debye-Ang):
   XX=            -65.5022   YY=            -86.4108   ZZ=            -76.6205
   XY=              2.0085   XZ=              1.8826   YZ=              2.4686
 Traceless Quadrupole moment (field-independent basis, Debye-Ang):
   XX=             10.6756   YY=            -10.2330   ZZ=             -0.4426
   XY=              2.0085   XZ=              1.8826   YZ=              2.4686
 Octapole moment (field-independent basis, Debye-Ang**2):
  XXX=             12.4551  YYY=            -18.8138  ZZZ=              0.2190  XYY=             15.7555
  XXY=            -16.4216  XXZ=              4.5193  XZZ=            -18.1559  YZZ=              2.5612
  YYZ=              1.5560  XYZ=              9.9742
 Hexadecapole moment (field-independent basis, Debye-Ang**3):
 XXXX=          -2888.0712 YYYY=           -625.1364 ZZZZ=           -336.3937 XXXY=             51.7082
 XXXZ=             47.0885 YYYX=            -13.6311 YYYZ=             20.9052 ZZZX=              1.4968
 ZZZY=            -10.0089 XXYY=           -615.5891 XXZZ=           -588.7081 YYZZ=           -158.5219
 XXYZ=              7.0451 YYXZ=             -4.6674 ZZXY=             12.4491
 N-N= 7.806271136612D+02 E-N=-2.903441620752D+03  KE= 5.764001724205D+02
 No NMR shielding tensors so no spin-rotation constants.
 Leave Link  601 at Tue Nov 22 15:04:16 2022, MaxMem= 16106127360 cpu:              20.0 elap:               0.7
 (Enter /opt/ap/G16/B01/g16/l9999.exe)
 1\1\GINC-N17\SP\RwB97XD\6-311++G(d,p)\C13H10O1\ROOT\22-Nov-2022\0\\#P 
 wB97XD/6-311++G(d,p) scf=maxcycle=512\\_conf033.gjf nmol_natom 1_24\\0
 ,1\C\C,1,1.39746343\C,1,1.39996263,2,119.28066518\C,2,1.39288453,1,120
 .37436646,3,-0.51002981,0\H,2,0.95014703,1,119.82324024,3,179.45634896
 ,0\C,1,1.49653039,2,122.77761373,4,174.46828757,0\C,3,1.3870125,1,120.
 10017821,2,-0.37315804,0\H,3,0.9501092,1,119.95246451,2,179.5923884,0\
 C,7,1.38720039,3,120.16568731,1,1.0745106,0\H,4,0.95011919,2,120.18755
 644,1,-179.31195299,0\C,6,1.49516902,1,120.70972921,2,75.,0\O,6,1.2215
 0059,1,119.67074267,2,-105.,0\H,7,0.94956661,3,119.91274826,1,-178.886
 36029,0\H,9,0.94992259,7,119.76037934,3,179.10763853,0\C,11,1.39713972
 ,6,122.62585705,1,30.97749054,0\C,11,1.40039562,6,117.74753532,1,-153.
 15467779,0\C,15,1.39455701,11,119.80747484,6,175.4763048,0\H,15,0.9496
 2854,11,120.10535689,6,-4.50802339,0\C,16,1.38466431,11,120.4617377,6,
 -176.88197195,0\H,16,0.9497464,11,119.75779177,6,3.14699974,0\C,17,1.3
 9088945,15,120.3475273,11,0.7973643,0\H,17,0.94984298,15,119.8156451,1
 1,-179.16676483,0\H,19,0.94974749,16,119.98566335,11,-178.40987425,0\H
 ,21,0.94938585,17,120.0744529,15,179.91636093,0\\Version=ES64L-G16RevB
 .01\State=1-A\HF=-576.4140693\RMSD=6.273e-09\Dipole=0.1493431,1.149255
 9,0.5123133\Quadrupole=7.3683893,-5.7432448,-1.6251446,-2.6357855,1.43
 40001,-3.753275\PG=C01 [X(C13H10O1)]\\@


 WHERE THERE IS MUCH DESIRE TO LEARN, THERE OF NECESSITY WILL BE
 MUCH ARGUING, MUCH WRITING, MANY OPINIONS; FOR OPINION IN GOOD MEN
 IS BUT KNOWLEDGE IN THE MAKING. -- JOHN MILTON.
 Job cpu time:       0 days  0 hours 21 minutes 54.8 seconds.
 Elapsed time:       0 days  0 hours  0 minutes 41.3 seconds.
 File lengths (MBytes):  RWF=     78 Int=      0 D2E=      0 Chk=      9 Scr=      1
 Normal termination of Gaussian 16 at Tue Nov 22 15:04:17 2022.
