 Entering Gaussian System, Link 0=g16
 Input=_conf030.gjf
 Output=_conf030.log
 Initial command:
 /opt/ap/G16/B01/g16/l1.exe "/tmp2/scr/Gau-6299.inp" -scrdir="/tmp2/scr/"
 Entering Link 1 = /opt/ap/G16/B01/g16/l1.exe PID=      6300.
  
 Copyright (c) 1988-2017, Gaussian, Inc.  All Rights Reserved.
  
 This is part of the Gaussian(R) 16 program.  It is based on
 the Gaussian(R) 09 system (copyright 2009, Gaussian, Inc.),
 the Gaussian(R) 03 system (copyright 2003, Gaussian, Inc.),
 the Gaussian(R) 98 system (copyright 1998, Gaussian, Inc.),
 the Gaussian(R) 94 system (copyright 1995, Gaussian, Inc.),
 the Gaussian 92(TM) system (copyright 1992, Gaussian, Inc.),
 the Gaussian 90(TM) system (copyright 1990, Gaussian, Inc.),
 the Gaussian 88(TM) system (copyright 1988, Gaussian, Inc.),
 the Gaussian 86(TM) system (copyright 1986, Carnegie Mellon
 University), and the Gaussian 82(TM) system (copyright 1983,
 Carnegie Mellon University). Gaussian is a federally registered
 trademark of Gaussian, Inc.
  
 This software contains proprietary and confidential information,
 including trade secrets, belonging to Gaussian, Inc.
  
 This software is provided under written license and may be
 used, copied, transmitted, or stored only in accord with that
 written license.
  
 The following legend is applicable only to US Government
 contracts under FAR:
  
                    RESTRICTED RIGHTS LEGEND
  
 Use, reproduction and disclosure by the US Government is
 subject to restrictions as set forth in subparagraphs (a)
 and (c) of the Commercial Computer Software - Restricted
 Rights clause in FAR 52.227-19.
  
 Gaussian, Inc.
 340 Quinnipiac St., Bldg. 40, Wallingford CT 06492
  
  
 ---------------------------------------------------------------
 Warning -- This program may not be used in any manner that
 competes with the business of Gaussian, Inc. or will provide
 assistance to any competitor of Gaussian, Inc.  The licensee
 of this program is prohibited from giving any competitor of
 Gaussian, Inc. access to this program.  By using this program,
 the user acknowledges that Gaussian, Inc. is engaged in the
 business of creating and licensing software in the field of
 computational chemistry and represents and warrants to the
 licensee that it is not a competitor of Gaussian, Inc. and that
 it will not use this program in any manner prohibited above.
 ---------------------------------------------------------------
  

 Cite this work as:
 Gaussian 16, Revision B.01,
 M. J. Frisch, G. W. Trucks, H. B. Schlegel, G. E. Scuseria, 
 M. A. Robb, J. R. Cheeseman, G. Scalmani, V. Barone, 
 G. A. Petersson, H. Nakatsuji, X. Li, M. Caricato, A. V. Marenich, 
 J. Bloino, B. G. Janesko, R. Gomperts, B. Mennucci, H. P. Hratchian, 
 J. V. Ortiz, A. F. Izmaylov, J. L. Sonnenberg, D. Williams-Young, 
 F. Ding, F. Lipparini, F. Egidi, J. Goings, B. Peng, A. Petrone, 
 T. Henderson, D. Ranasinghe, V. G. Zakrzewski, J. Gao, N. Rega, 
 G. Zheng, W. Liang, M. Hada, M. Ehara, K. Toyota, R. Fukuda, 
 J. Hasegawa, M. Ishida, T. Nakajima, Y. Honda, O. Kitao, H. Nakai, 
 T. Vreven, K. Throssell, J. A. Montgomery, Jr., J. E. Peralta, 
 F. Ogliaro, M. J. Bearpark, J. J. Heyd, E. N. Brothers, K. N. Kudin, 
 V. N. Staroverov, T. A. Keith, R. Kobayashi, J. Normand, 
 K. Raghavachari, A. P. Rendell, J. C. Burant, S. S. Iyengar, 
 J. Tomasi, M. Cossi, J. M. Millam, M. Klene, C. Adamo, R. Cammi, 
 J. W. Ochterski, R. L. Martin, K. Morokuma, O. Farkas, 
 J. B. Foresman, and D. J. Fox, Gaussian, Inc., Wallingford CT, 2016.
 
 ******************************************
 Gaussian 16:  ES64L-G16RevB.01 20-Dec-2017
                22-Nov-2022 
 ******************************************
 %nprocshared=32
 Will use up to   32 processors via shared memory.
 %mem=120GB
 %chk=_conf030.chk
 ----------------------------------------
 #P wB97XD/6-311++G(d,p) scf=maxcycle=512
 ----------------------------------------
 1/38=1,172=1/1;
 2/12=2,17=6,18=5,40=1/2;
 3/5=4,6=6,7=1111,11=2,25=1,30=1,74=-58/1,2,3;
 4//1;
 5/5=2,7=512,38=5/2;
 6/7=2,8=2,9=2,10=2,28=1/1;
 99/5=1,9=1/99;
 Leave Link    1 at Tue Nov 22 15:02:55 2022, MaxMem= 16106127360 cpu:               1.8 elap:               0.1
 (Enter /opt/ap/G16/B01/g16/l101.exe)
 ----------------------------
 _conf030.gjf nmol_natom 1_24
 ----------------------------
 Symbolic Z-matrix:
 Charge =  0 Multiplicity = 1
 C
 C                    1     1.39746 
 C                    1     1.39996  2     119.28067 
 C                    2     1.39288  1     120.37437  3    -0.51003  0
 H                    2     0.95015  1     119.82324  3     179.45635  0
 C                    1     1.49653  2     122.77761  4     174.46829  0
 C                    3     1.38701  1     120.10018  2    -0.37316  0
 H                    3     0.95011  1     119.95246  2     179.59239  0
 C                    7     1.3872   3     120.16569  1     1.07451  0
 H                    4     0.95012  2     120.18756  1    -179.31195  0
 C                    6     1.49517  1     120.70973  2     60.      0
 O                    6     1.2215   1     119.67074  2    -120.     0
 H                    7     0.94957  3     119.91275  1    -178.88636  0
 H                    9     0.94992  7     119.76038  3     179.10764  0
 C                    11    1.39714  6     122.62586  1     30.97749  0
 C                    11    1.4004   6     117.74754  1    -153.15468  0
 C                    15    1.39456  11    119.80747  6     175.4763  0
 H                    15    0.94963  11    120.10536  6    -4.50802  0
 C                    16    1.38466  11    120.46174  6    -176.88197  0
 H                    16    0.94975  11    119.75779  6     3.147    0
 C                    17    1.39089  15    120.34753  11    0.79736  0
 H                    17    0.94984  15    119.81565  11   -179.16676  0
 H                    19    0.94975  16    119.98566  11   -178.40987  0
 H                    21    0.94939  17    120.07445  15    179.91636  0
 
 ITRead=  0  0  0  0  0  0  0  0  0  0  0  0  0  0  0  0  0  0  0  0
 ITRead=  0  0  0  0
 MicOpt= -1 -1 -1 -1 -1 -1 -1 -1 -1 -1 -1 -1 -1 -1 -1 -1 -1 -1 -1 -1
 MicOpt= -1 -1 -1 -1
 NAtoms=     24 NQM=       24 NQMF=       0 NMMI=      0 NMMIF=      0
                NMic=       0 NMicF=      0.
                    Isotopes and Nuclear Properties:
 (Nuclear quadrupole moments (NQMom) in fm**2, nuclear magnetic moments (NMagM)
  in nuclear magnetons)

  Atom         1           2           3           4           5           6           7           8           9          10
 IAtWgt=          12          12          12          12           1          12          12           1          12           1
 AtmWgt=  12.0000000  12.0000000  12.0000000  12.0000000   1.0078250  12.0000000  12.0000000   1.0078250  12.0000000   1.0078250
 NucSpn=           0           0           0           0           1           0           0           1           0           1
 AtZEff=  -0.0000000  -0.0000000  -0.0000000  -0.0000000  -0.0000000  -0.0000000  -0.0000000  -0.0000000  -0.0000000  -0.0000000
 NQMom=    0.0000000   0.0000000   0.0000000   0.0000000   0.0000000   0.0000000   0.0000000   0.0000000   0.0000000   0.0000000
 NMagM=    0.0000000   0.0000000   0.0000000   0.0000000   2.7928460   0.0000000   0.0000000   2.7928460   0.0000000   2.7928460
 AtZNuc=   6.0000000   6.0000000   6.0000000   6.0000000   1.0000000   6.0000000   6.0000000   1.0000000   6.0000000   1.0000000

  Atom        11          12          13          14          15          16          17          18          19          20
 IAtWgt=          12          16           1           1          12          12          12           1          12           1
 AtmWgt=  12.0000000  15.9949146   1.0078250   1.0078250  12.0000000  12.0000000  12.0000000   1.0078250  12.0000000   1.0078250
 NucSpn=           0           0           1           1           0           0           0           1           0           1
 AtZEff=  -0.0000000  -0.0000000  -0.0000000  -0.0000000  -0.0000000  -0.0000000  -0.0000000  -0.0000000  -0.0000000  -0.0000000
 NQMom=    0.0000000   0.0000000   0.0000000   0.0000000   0.0000000   0.0000000   0.0000000   0.0000000   0.0000000   0.0000000
 NMagM=    0.0000000   0.0000000   2.7928460   2.7928460   0.0000000   0.0000000   0.0000000   2.7928460   0.0000000   2.7928460
 AtZNuc=   6.0000000   8.0000000   1.0000000   1.0000000   6.0000000   6.0000000   6.0000000   1.0000000   6.0000000   1.0000000

  Atom        21          22          23          24
 IAtWgt=          12           1           1           1
 AtmWgt=  12.0000000   1.0078250   1.0078250   1.0078250
 NucSpn=           0           1           1           1
 AtZEff=  -0.0000000  -0.0000000  -0.0000000  -0.0000000
 NQMom=    0.0000000   0.0000000   0.0000000   0.0000000
 NMagM=    0.0000000   2.7928460   2.7928460   2.7928460
 AtZNuc=   6.0000000   1.0000000   1.0000000   1.0000000
 Leave Link  101 at Tue Nov 22 15:02:55 2022, MaxMem= 16106127360 cpu:               5.2 elap:               0.2
 (Enter /opt/ap/G16/B01/g16/l202.exe)
                          Input orientation:                          
 ---------------------------------------------------------------------
 Center     Atomic      Atomic             Coordinates (Angstroms)
 Number     Number       Type             X           Y           Z
 ---------------------------------------------------------------------
      1          6           0        0.000000    0.000000    0.000000
      2          6           0        0.000000    0.000000    1.397463
      3          6           0        1.221096    0.000000   -0.684705
      4          6           0        1.201650   -0.010697    2.101772
      5          1           0       -0.824276    0.007821    1.869996
      6          6           0       -1.253421   -0.110138   -0.810191
      7          6           0        2.414707    0.007815    0.021719
      8          1           0        1.232246   -0.005856   -1.634731
      9          6           0        2.403895   -0.006831    1.408800
     10          1           0        1.198494   -0.020531    3.051836
     11          6           0       -2.337029    0.912206   -0.683163
     12          8           0       -1.393207   -1.045113   -1.583720
     13          1           0        3.241298    0.023792   -0.445367
     14          1           0        3.224827   -0.014217    1.886678
     15          6           0       -2.078106    2.249878   -0.373985
     16          6           0       -3.647647    0.512512   -0.972354
     17          6           0       -3.122856    3.173545   -0.362772
     18          1           0       -1.193277    2.529485   -0.172258
     19          6           0       -4.685227    1.428684   -0.935553
     20          1           0       -3.825954   -0.393421   -1.194859
     21          6           0       -4.423427    2.766863   -0.641513
     22          1           0       -2.945097    4.085236   -0.164218
     23          1           0       -5.574753    1.145711   -1.110734
     24          1           0       -5.131927    3.398737   -0.631643
 ---------------------------------------------------------------------
                    Distance matrix (angstroms):
                    1          2          3          4          5
     1  C    0.000000
     2  C    1.397463   0.000000
     3  C    1.399963   2.413814   0.000000
     4  C    2.421058   1.392885   2.786566   0.000000
     5  H    2.043619   0.950147   3.272630   2.039225   0.000000
     6  C    1.496530   2.541049   2.480142   3.810091   2.716889
     7  C    2.414817   2.779127   1.387013   2.408002   3.729228
     8  H    2.047146   3.273021   0.950109   3.736632   4.063567
     9  C    2.786301   2.403931   2.404542   1.387667   3.260982
    10  H    3.278797   2.042977   3.736665   0.950119   2.342893
    11  C    2.600103   3.259268   3.673196   4.596722   3.102411
    12  O    2.354029   3.452642   2.955515   4.624516   3.655202
    13  H    3.271839   3.728619   2.034469   3.263323   4.678681
    14  H    3.736210   3.261755   3.259932   2.034583   4.049198
    15  C    3.085505   3.538150   4.005400   4.690028   3.410917
    16  C    3.809655   4.379958   4.904087   5.765386   4.037956
    17  C    4.467127   4.787698   5.389336   5.908868   4.504501
    18  H    2.802120   3.207215   3.534132   4.166463   3.265846
    19  C    4.986757   5.425445   6.081834   6.778826   4.979648
    20  H    4.027455   4.638194   5.088001   6.024206   4.308643
    21  C    5.256784   5.601756   6.286337   6.847039   5.184002
    22  H    5.038821   5.272722   5.858090   6.253550   5.026054
    23  H    5.798643   6.219452   6.904905   7.587958   5.722463
    24  H    6.187654   6.481154   7.205215   7.694803   6.025974
                    6          7          8          9         10
     6  C    0.000000
     7  C    3.763130   0.000000
     8  H    2.620930   2.035246   0.000000
     9  C    4.279082   1.387200   3.261263   0.000000
    10  H    4.575496   3.265208   4.686711   2.037829   0.000000
    11  C    1.495169   4.888125   3.806316   5.262821   5.226866
    12  O    1.221501   4.264540   2.824121   4.944814   5.408794
    13  H    4.511488   0.949567   2.334899   2.034727   4.050363
    14  H    5.228480   2.033434   4.046081   0.949923   2.337447
    15  C    2.537727   5.036744   4.199553   5.325353   5.256150
    16  C    2.479176   6.164012   4.951849   6.523861   6.321655
    17  C    3.804937   6.390171   5.540161   6.618023   6.366768
    18  H    2.716281   4.406131   3.801308   4.676781   4.755831
    19  C    3.763108   7.303718   6.128885   7.603442   7.253803
    20  H    2.616515   6.370785   5.092061   6.763099   6.589275
    21  C    4.284219   7.403533   6.376605   7.649149   7.281236
    22  H    4.569487   6.737019   6.029065   6.916003   6.661056
    23  H    4.510144   8.149155   6.923577   8.446018   8.035172
    24  H    5.233249   8.299211   7.286984   8.517623   8.082923
                   11         12         13         14         15
    11  C    0.000000
    12  O    2.352211   0.000000
    13  H    5.653632   4.890505   0.000000
    14  H    6.196497   5.867934   2.332413   0.000000
    15  C    1.397140   3.576242   5.766854   6.193369   0.000000
    16  C    1.400396   2.807573   6.926336   7.462065   2.416598
    17  C    2.415332   4.720113   7.101424   7.450834   1.394557
    18  H    2.045674   3.848369   5.100837   5.498116   0.949629
    19  C    2.417537   4.168594   8.064973   8.521497   2.790484
    20  H    2.045335   2.548367   7.119119   7.704102   3.273506
    21  C    2.791872   4.959954   8.143152   8.521852   2.416481
    22  H    3.272181   5.544711   7.405798   7.686329   2.040640
    23  H    3.274172   4.744339   8.912024   9.368166   3.740125
    24  H    3.741249   5.884919   9.029720   9.371528   3.272933
                   16         17         18         19         20
    16  C    0.000000
    17  C    2.779944   0.000000
    18  H    3.276013   2.043131   0.000000
    19  C    1.384664   2.411145   3.740066   0.000000
    20  H    0.949746   3.729607   4.064490   2.031171   0.000000
    21  C    2.406945   1.390889   3.272678   1.394891   3.263520
    22  H    3.729747   0.949843   2.342925   3.268069   4.679370
    23  H    2.033181   3.268541   4.689659   0.949747   2.331159
    24  H    3.263351   2.039453   4.059507   2.042795   4.050092
                   21         22         23         24
    21  C    0.000000
    22  H    2.037493   0.000000
    23  H    2.043001   4.056081   0.000000
    24  H    0.949386   2.339229   2.345581   0.000000
 Stoichiometry    C13H10O
 Framework group  C1[X(C13H10O)]
 Deg. of freedom    66
 Full point group                 C1      NOp   1
 Largest Abelian subgroup         C1      NOp   1
 Largest concise Abelian subgroup C1      NOp   1
                         Standard orientation:                         
 ---------------------------------------------------------------------
 Center     Atomic      Atomic             Coordinates (Angstroms)
 Number     Number       Type             X           Y           Z
 ---------------------------------------------------------------------
      1          6           0       -1.289810    0.336667    0.047987
      2          6           0       -1.647186   -0.553727    1.064050
      3          6           0       -2.224970    0.654455   -0.944174
      4          6           0       -2.923395   -1.110883    1.095614
      5          1           0       -1.016000   -0.780809    1.736966
      6          6           0        0.020857    1.058701    0.027400
      7          6           0       -3.488329    0.082577   -0.918084
      8          1           0       -1.994079    1.263160   -1.636182
      9          6           0       -3.838031   -0.788954    0.102929
     10          1           0       -3.166718   -1.708390    1.793113
     11          6           0        1.309438    0.301203   -0.008468
     12          8           0        0.038657    2.280006    0.040024
     13          1           0       -4.115197    0.287769   -1.601173
     14          1           0       -4.709086   -1.167434    0.122147
     15          6           0        1.434340   -0.943707   -0.630238
     16          6           0        2.443763    0.918228    0.533469
     17          6           0        2.684796   -1.555732   -0.711327
     18          1           0        0.670080   -1.371873   -0.996809
     19          6           0        3.678693    0.294934    0.472238
     20          1           0        2.365212    1.769982    0.946219
     21          6           0        3.805018   -0.940998   -0.161984
     22          1           0        2.771861   -2.396574   -1.144462
     23          1           0        4.439330    0.709216    0.861879
     24          1           0        4.654239   -1.361684   -0.218370
 ---------------------------------------------------------------------
 Rotational constants (GHZ):           1.7231534           0.3983159           0.3613918
 Leave Link  202 at Tue Nov 22 15:02:55 2022, MaxMem= 16106127360 cpu:               0.3 elap:               0.0
 (Enter /opt/ap/G16/B01/g16/l301.exe)
 Standard basis: 6-311++G(d,p) (5D, 7F)
 Ernie: Thresh=  0.10000D-02 Tol=  0.10000D-05 Strict=F.
 There are   392 symmetry adapted cartesian basis functions of A   symmetry.
 There are   378 symmetry adapted basis functions of A   symmetry.
   378 basis functions,   594 primitive gaussians,   392 cartesian basis functions
    48 alpha electrons       48 beta electrons
       nuclear repulsion energy       781.1382642127 Hartrees.
 IExCor= 4639 DFT=T Ex+Corr=wB97XD ExCW=0 ScaHFX=  1.000000
 ScaDFX=  1.000000  1.000000  1.000000  1.000000 ScalE2=  1.000000  1.000000
 IRadAn=      5 IRanWt=     -1 IRanGd=            0 ICorTp=0 IEmpDi=121
 HFx  wShort=  0.000000 wLong=  0.200000 cFull=  0.222036 cShort=  0.000000 cLong=  0.777964
 DFx  wShort=  0.000000 wLong=  0.200000 cFull=  0.000000 cShort=  0.000000 cLong=  1.000000
 NAtoms=   24 NActive=   24 NUniq=   24 SFac= 1.00D+00 NAtFMM=   60 NAOKFM=F Big=F
 Integral buffers will be    131072 words long.
 Raffenetti 2 integral format.
 Two-electron integral symmetry is turned on.
 R6Disp:  Grimme-D2 Dispersion energy=       -0.0138992094 Hartrees.
 Nuclear repulsion after empirical dispersion term =      781.1243650032 Hartrees.
 Leave Link  301 at Tue Nov 22 15:02:55 2022, MaxMem= 16106127360 cpu:               1.2 elap:               0.0
 (Enter /opt/ap/G16/B01/g16/l302.exe)
 NPDir=0 NMtPBC=     1 NCelOv=     1 NCel=       1 NClECP=     1 NCelD=      1
         NCelK=      1 NCelE2=     1 NClLst=     1 CellRange=     0.0.
 One-electron integrals computed using PRISM.
 One-electron integral symmetry used in STVInt
 NBasis=   378 RedAO= T EigKep=  1.48D-06  NBF=   378
 NBsUse=   376 1.00D-06 EigRej=  8.23D-07 NBFU=   376
 Precomputing XC quadrature grid using
 IXCGrd= 4 IRadAn=           5 IRanWt=          -1 IRanGd=           0 AccXCQ= 0.00D+00.
 Generated NRdTot=       0 NPtTot=           0 NUsed=           0 NTot=          32
 NSgBfM=   392   392   392   392   392 MxSgAt=    24 MxSgA2=    24.
 Leave Link  302 at Tue Nov 22 15:02:55 2022, MaxMem= 16106127360 cpu:               8.5 elap:               0.3
 (Enter /opt/ap/G16/B01/g16/l303.exe)
 DipDrv:  MaxL=1.
 Leave Link  303 at Tue Nov 22 15:02:56 2022, MaxMem= 16106127360 cpu:               1.6 elap:               0.1
 (Enter /opt/ap/G16/B01/g16/l401.exe)
 ExpMin= 3.60D-02 ExpMax= 8.59D+03 ExpMxC= 1.30D+03 IAcc=3 IRadAn=         5 AccDes= 0.00D+00
 Harris functional with IExCor= 4639 and IRadAn=       5 diagonalized for initial guess.
 HarFok:  IExCor= 4639 AccDes= 0.00D+00 IRadAn=         5 IDoV= 1 UseB2=F ITyADJ=14
 ICtDFT=  3500011 ScaDFX=  1.000000  1.000000  1.000000  1.000000
 FoFCou: FMM=F IPFlag=           0 FMFlag=      100000 FMFlg1=           0
         NFxFlg=           0 DoJE=T BraDBF=F KetDBF=T FulRan=T
         wScrn=  0.000000 ICntrl=       500 IOpCl=  0 I1Cent=   200000004 NGrid=           0
         NMat0=    1 NMatS0=      1 NMatT0=    0 NMatD0=    1 NMtDS0=    0 NMtDT0=    0
 Petite list used in FoFCou.
 Harris En= -550.905549934407    
 JPrj=0 DoOrth=F DoCkMO=F.
 Leave Link  401 at Tue Nov 22 15:02:56 2022, MaxMem= 16106127360 cpu:              22.6 elap:               0.7
 (Enter /opt/ap/G16/B01/g16/l502.exe)
 Integral symmetry usage will be decided dynamically.
 Closed shell SCF:
 Using DIIS extrapolation, IDIIS=  1040.
 NGot= 16106127360 LenX= 16105803762 LenY= 16105649657
 Requested convergence on RMS density matrix=1.00D-08 within 512 cycles.
 Requested convergence on MAX density matrix=1.00D-06.
 Requested convergence on             energy=1.00D-06.
 No special actions if energy rises.
 Fock matrices will be formed incrementally for  20 cycles.

 Cycle   1  Pass 1  IDiag  1:
 FoFJK:  IHMeth= 1 ICntrl=       0 DoSepK=T KAlg= 0 I1Cent=           0 FoldK=F
 IRaf=         1 NMat=       1 IRICut=       1 DoRegI=T DoRafI=F ISym2E= 0 IDoP0=0 IntGTp=1.
 FoFCou: FMM=F IPFlag=           0 FMFlag=      100000 FMFlg1=           0
         NFxFlg=           0 DoJE=T BraDBF=F KetDBF=F FulRan=T
         wScrn=  0.000000 ICntrl=       500 IOpCl=  0 I1Cent=           0 NGrid=           0
         NMat0=    1 NMatS0=      1 NMatT0=    0 NMatD0=    1 NMtDS0=    0 NMtDT0=    0
 Symmetry not used in FoFCou.
 E= -576.259554301901    
 DIIS: error= 5.73D-02 at cycle   1 NSaved=   1.
 NSaved= 1 IEnMin= 1 EnMin= -576.259554301901     IErMin= 1 ErrMin= 5.73D-02
 ErrMax= 5.73D-02  0.00D+00 EMaxC= 1.00D-01 BMatC= 1.20D+00 BMatP= 1.20D+00
 IDIUse=3 WtCom= 4.27D-01 WtEn= 5.73D-01
 Coeff-Com:  0.100D+01
 Coeff-En:   0.100D+01
 Coeff:      0.100D+01
 Gap=     0.411 Goal=   None    Shift=    0.000
 GapD=    0.411 DampG=2.000 DampE=0.500 DampFc=1.0000 IDamp=-1.
 RMSDP=3.05D-02 MaxDP=2.60D+00              OVMax= 1.21D-01

 Cycle   2  Pass 1  IDiag  1:
 RMSU=  1.66D-02    CP:  6.37D-01
 E= -576.348588389290     Delta-E=       -0.089034087389 Rises=F Damp=F
 DIIS: error= 1.31D-02 at cycle   2 NSaved=   2.
 NSaved= 2 IEnMin= 2 EnMin= -576.348588389290     IErMin= 2 ErrMin= 1.31D-02
 ErrMax= 1.31D-02  0.00D+00 EMaxC= 1.00D-01 BMatC= 7.78D-02 BMatP= 1.20D+00
 IDIUse=3 WtCom= 8.69D-01 WtEn= 1.31D-01
 Coeff-Com:  0.128D+00 0.872D+00
 Coeff-En:   0.157D+00 0.843D+00
 Coeff:      0.132D+00 0.868D+00
 Gap=     0.435 Goal=   None    Shift=    0.000
 RMSDP=9.96D-03 MaxDP=9.55D-01 DE=-8.90D-02 OVMax= 1.53D-01

 Cycle   3  Pass 1  IDiag  1:
 RMSU=  8.60D-03    CP:  6.40D-01  6.97D-01
 E= -576.366957468354     Delta-E=       -0.018369079064 Rises=F Damp=F
 DIIS: error= 1.17D-02 at cycle   3 NSaved=   3.
 NSaved= 3 IEnMin= 3 EnMin= -576.366957468354     IErMin= 3 ErrMin= 1.17D-02
 ErrMax= 1.17D-02  0.00D+00 EMaxC= 1.00D-01 BMatC= 5.57D-02 BMatP= 7.78D-02
 IDIUse=3 WtCom= 8.83D-01 WtEn= 1.17D-01
 Coeff-Com:  0.239D-01 0.462D+00 0.515D+00
 Coeff-En:   0.000D+00 0.425D+00 0.575D+00
 Coeff:      0.211D-01 0.457D+00 0.522D+00
 Gap=     0.357 Goal=   None    Shift=    0.000
 RMSDP=5.90D-03 MaxDP=5.12D-01 DE=-1.84D-02 OVMax= 6.94D-02

 Cycle   4  Pass 1  IDiag  1:
 RMSU=  1.58D-03    CP:  5.90D-01  8.37D-01  5.57D-01
 E= -576.415942261759     Delta-E=       -0.048984793405 Rises=F Damp=F
 DIIS: error= 2.22D-03 at cycle   4 NSaved=   4.
 NSaved= 4 IEnMin= 4 EnMin= -576.415942261759     IErMin= 4 ErrMin= 2.22D-03
 ErrMax= 2.22D-03  0.00D+00 EMaxC= 1.00D-01 BMatC= 9.26D-04 BMatP= 5.57D-02
 IDIUse=3 WtCom= 9.78D-01 WtEn= 2.22D-02
 Coeff-Com:  0.949D-02 0.196D+00 0.243D+00 0.552D+00
 Coeff-En:   0.000D+00 0.000D+00 0.000D+00 0.100D+01
 Coeff:      0.928D-02 0.192D+00 0.237D+00 0.562D+00
 Gap=     0.327 Goal=   None    Shift=    0.000
 RMSDP=6.52D-04 MaxDP=4.95D-02 DE=-4.90D-02 OVMax= 6.89D-03

 Cycle   5  Pass 1  IDiag  1:
 RMSU=  4.23D-04    CP:  5.89D-01  8.66D-01  5.48D-01  1.01D+00
 E= -576.416583468097     Delta-E=       -0.000641206338 Rises=F Damp=F
 DIIS: error= 6.55D-04 at cycle   5 NSaved=   5.
 NSaved= 5 IEnMin= 5 EnMin= -576.416583468097     IErMin= 5 ErrMin= 6.55D-04
 ErrMax= 6.55D-04  0.00D+00 EMaxC= 1.00D-01 BMatC= 8.87D-05 BMatP= 9.26D-04
 IDIUse=3 WtCom= 9.93D-01 WtEn= 6.55D-03
 Coeff-Com: -0.528D-03-0.709D-02 0.119D-02 0.224D+00 0.782D+00
 Coeff-En:   0.000D+00 0.000D+00 0.000D+00 0.000D+00 0.100D+01
 Coeff:     -0.525D-03-0.704D-02 0.118D-02 0.223D+00 0.784D+00
 Gap=     0.329 Goal=   None    Shift=    0.000
 RMSDP=4.13D-04 MaxDP=4.15D-02 DE=-6.41D-04 OVMax= 2.95D-03

 Cycle   6  Pass 1  IDiag  1:
 RMSU=  2.58D-04    CP:  5.87D-01  8.69D-01  5.70D-01  1.05D+00  6.61D-01
 E= -576.416651777654     Delta-E=       -0.000068309556 Rises=F Damp=F
 DIIS: error= 3.22D-04 at cycle   6 NSaved=   6.
 NSaved= 6 IEnMin= 6 EnMin= -576.416651777654     IErMin= 6 ErrMin= 3.22D-04
 ErrMax= 3.22D-04  0.00D+00 EMaxC= 1.00D-01 BMatC= 1.94D-05 BMatP= 8.87D-05
 IDIUse=3 WtCom= 9.97D-01 WtEn= 3.22D-03
 Coeff-Com: -0.123D-02-0.230D-01-0.227D-01 0.654D-01 0.425D+00 0.557D+00
 Coeff-En:   0.000D+00 0.000D+00 0.000D+00 0.000D+00 0.000D+00 0.100D+01
 Coeff:     -0.123D-02-0.230D-01-0.227D-01 0.652D-01 0.423D+00 0.558D+00
 Gap=     0.329 Goal=   None    Shift=    0.000
 RMSDP=8.92D-05 MaxDP=4.10D-03 DE=-6.83D-05 OVMax= 1.36D-03

 Cycle   7  Pass 1  IDiag  1:
 RMSU=  7.73D-05    CP:  5.87D-01  8.69D-01  5.68D-01  1.08D+00  7.11D-01
                    CP:  1.01D+00
 E= -576.416671981401     Delta-E=       -0.000020203747 Rises=F Damp=F
 DIIS: error= 5.63D-05 at cycle   7 NSaved=   7.
 NSaved= 7 IEnMin= 7 EnMin= -576.416671981401     IErMin= 7 ErrMin= 5.63D-05
 ErrMax= 5.63D-05  0.00D+00 EMaxC= 1.00D-01 BMatC= 5.22D-07 BMatP= 1.94D-05
 IDIUse=1 WtCom= 1.00D+00 WtEn= 0.00D+00
 Coeff-Com: -0.236D-03-0.452D-02-0.535D-02-0.991D-02-0.814D-02 0.108D+00
 Coeff-Com:  0.921D+00
 Coeff:     -0.236D-03-0.452D-02-0.535D-02-0.991D-02-0.814D-02 0.108D+00
 Coeff:      0.921D+00
 Gap=     0.329 Goal=   None    Shift=    0.000
 RMSDP=4.36D-05 MaxDP=3.45D-03 DE=-2.02D-05 OVMax= 6.61D-04

 Cycle   8  Pass 1  IDiag  1:
 RMSU=  1.98D-05    CP:  5.87D-01  8.70D-01  5.70D-01  1.09D+00  7.00D-01
                    CP:  1.12D+00  1.08D+00
 E= -576.416673340797     Delta-E=       -0.000001359397 Rises=F Damp=F
 DIIS: error= 2.43D-05 at cycle   8 NSaved=   8.
 NSaved= 8 IEnMin= 8 EnMin= -576.416673340797     IErMin= 8 ErrMin= 2.43D-05
 ErrMax= 2.43D-05  0.00D+00 EMaxC= 1.00D-01 BMatC= 9.12D-08 BMatP= 5.22D-07
 IDIUse=1 WtCom= 1.00D+00 WtEn= 0.00D+00
 Coeff-Com:  0.543D-04 0.810D-03 0.373D-03-0.124D-01-0.581D-01-0.285D-01
 Coeff-Com:  0.309D+00 0.788D+00
 Coeff:      0.543D-04 0.810D-03 0.373D-03-0.124D-01-0.581D-01-0.285D-01
 Coeff:      0.309D+00 0.788D+00
 Gap=     0.329 Goal=   None    Shift=    0.000
 RMSDP=1.57D-05 MaxDP=1.05D-03 DE=-1.36D-06 OVMax= 2.65D-04

 Cycle   9  Pass 1  IDiag  1:
 RMSU=  6.26D-06    CP:  5.87D-01  8.70D-01  5.70D-01  1.09D+00  6.98D-01
                    CP:  1.16D+00  1.11D+00  1.19D+00
 E= -576.416673548235     Delta-E=       -0.000000207438 Rises=F Damp=F
 DIIS: error= 5.50D-06 at cycle   9 NSaved=   9.
 NSaved= 9 IEnMin= 9 EnMin= -576.416673548235     IErMin= 9 ErrMin= 5.50D-06
 ErrMax= 5.50D-06  0.00D+00 EMaxC= 1.00D-01 BMatC= 8.01D-09 BMatP= 9.12D-08
 IDIUse=1 WtCom= 1.00D+00 WtEn= 0.00D+00
 Coeff-Com:  0.430D-04 0.766D-03 0.779D-03-0.595D-03-0.931D-02-0.182D-01
 Coeff-Com: -0.712D-01 0.146D+00 0.951D+00
 Coeff:      0.430D-04 0.766D-03 0.779D-03-0.595D-03-0.931D-02-0.182D-01
 Coeff:     -0.712D-01 0.146D+00 0.951D+00
 Gap=     0.329 Goal=   None    Shift=    0.000
 RMSDP=5.52D-06 MaxDP=5.63D-04 DE=-2.07D-07 OVMax= 1.36D-04

 Cycle  10  Pass 1  IDiag  1:
 RMSU=  1.80D-06    CP:  5.87D-01  8.70D-01  5.70D-01  1.09D+00  6.95D-01
                    CP:  1.17D+00  1.11D+00  1.34D+00  1.41D+00
 E= -576.416673577451     Delta-E=       -0.000000029215 Rises=F Damp=F
 DIIS: error= 2.42D-06 at cycle  10 NSaved=  10.
 NSaved=10 IEnMin=10 EnMin= -576.416673577451     IErMin=10 ErrMin= 2.42D-06
 ErrMax= 2.42D-06  0.00D+00 EMaxC= 1.00D-01 BMatC= 8.84D-10 BMatP= 8.01D-09
 IDIUse=1 WtCom= 1.00D+00 WtEn= 0.00D+00
 Coeff-Com: -0.376D-05-0.315D-04 0.896D-05 0.159D-02 0.585D-02 0.276D-02
 Coeff-Com: -0.342D-01-0.777D-01 0.628D-01 0.104D+01
 Coeff:     -0.376D-05-0.315D-04 0.896D-05 0.159D-02 0.585D-02 0.276D-02
 Coeff:     -0.342D-01-0.777D-01 0.628D-01 0.104D+01
 Gap=     0.329 Goal=   None    Shift=    0.000
 RMSDP=2.26D-06 MaxDP=1.42D-04 DE=-2.92D-08 OVMax= 5.33D-05

 Cycle  11  Pass 1  IDiag  1:
 RMSU=  9.52D-07    CP:  5.87D-01  8.70D-01  5.69D-01  1.09D+00  6.95D-01
                    CP:  1.17D+00  1.11D+00  1.38D+00  1.51D+00  1.10D+00
 E= -576.416673581991     Delta-E=       -0.000000004541 Rises=F Damp=F
 DIIS: error= 1.20D-06 at cycle  11 NSaved=  11.
 NSaved=11 IEnMin=11 EnMin= -576.416673581991     IErMin=11 ErrMin= 1.20D-06
 ErrMax= 1.20D-06  0.00D+00 EMaxC= 1.00D-01 BMatC= 1.79D-10 BMatP= 8.84D-10
 IDIUse=1 WtCom= 1.00D+00 WtEn= 0.00D+00
 Coeff-Com: -0.459D-05-0.737D-04-0.669D-04 0.404D-03 0.193D-02 0.207D-02
 Coeff-Com:  0.599D-03-0.320D-01-0.978D-01 0.208D+00 0.917D+00
 Coeff:     -0.459D-05-0.737D-04-0.669D-04 0.404D-03 0.193D-02 0.207D-02
 Coeff:      0.599D-03-0.320D-01-0.978D-01 0.208D+00 0.917D+00
 Gap=     0.329 Goal=   None    Shift=    0.000
 RMSDP=8.20D-07 MaxDP=6.95D-05 DE=-4.54D-09 OVMax= 2.30D-05

 Cycle  12  Pass 1  IDiag  1:
 RMSU=  3.98D-07    CP:  5.87D-01  8.70D-01  5.69D-01  1.09D+00  6.96D-01
                    CP:  1.17D+00  1.10D+00  1.37D+00  1.56D+00  1.17D+00
                    CP:  1.30D+00
 E= -576.416673582852     Delta-E=       -0.000000000861 Rises=F Damp=F
 DIIS: error= 6.25D-07 at cycle  12 NSaved=  12.
 NSaved=12 IEnMin=12 EnMin= -576.416673582852     IErMin=12 ErrMin= 6.25D-07
 ErrMax= 6.25D-07  0.00D+00 EMaxC= 1.00D-01 BMatC= 4.10D-11 BMatP= 1.79D-10
 IDIUse=1 WtCom= 1.00D+00 WtEn= 0.00D+00
 Coeff-Com:  0.455D-07-0.874D-05-0.162D-04-0.325D-03-0.112D-02-0.360D-03
 Coeff-Com:  0.937D-02 0.143D-01-0.382D-01-0.218D+00 0.208D+00 0.103D+01
 Coeff:      0.455D-07-0.874D-05-0.162D-04-0.325D-03-0.112D-02-0.360D-03
 Coeff:      0.937D-02 0.143D-01-0.382D-01-0.218D+00 0.208D+00 0.103D+01
 Gap=     0.329 Goal=   None    Shift=    0.000
 RMSDP=3.74D-07 MaxDP=2.01D-05 DE=-8.61D-10 OVMax= 1.36D-05

 Cycle  13  Pass 1  IDiag  1:
 RMSU=  1.38D-07    CP:  5.87D-01  8.70D-01  5.69D-01  1.09D+00  6.96D-01
                    CP:  1.17D+00  1.10D+00  1.36D+00  1.56D+00  1.17D+00
                    CP:  1.50D+00  1.54D+00
 E= -576.416673583089     Delta-E=       -0.000000000236 Rises=F Damp=F
 DIIS: error= 2.01D-07 at cycle  13 NSaved=  13.
 NSaved=13 IEnMin=13 EnMin= -576.416673583089     IErMin=13 ErrMin= 2.01D-07
 ErrMax= 2.01D-07  0.00D+00 EMaxC= 1.00D-01 BMatC= 7.63D-12 BMatP= 4.10D-11
 IDIUse=1 WtCom= 1.00D+00 WtEn= 0.00D+00
 Coeff-Com:  0.698D-06 0.766D-05 0.553D-05-0.186D-03-0.668D-03-0.476D-03
 Coeff-Com:  0.298D-02 0.983D-02 0.190D-02-0.105D+00-0.635D-01 0.336D+00
 Coeff-Com:  0.820D+00
 Coeff:      0.698D-06 0.766D-05 0.553D-05-0.186D-03-0.668D-03-0.476D-03
 Coeff:      0.298D-02 0.983D-02 0.190D-02-0.105D+00-0.635D-01 0.336D+00
 Coeff:      0.820D+00
 Gap=     0.329 Goal=   None    Shift=    0.000
 RMSDP=1.58D-07 MaxDP=1.03D-05 DE=-2.36D-10 OVMax= 4.43D-06

 Cycle  14  Pass 1  IDiag  1:
 RMSU=  6.31D-08    CP:  5.87D-01  8.70D-01  5.69D-01  1.09D+00  6.96D-01
                    CP:  1.17D+00  1.10D+00  1.36D+00  1.56D+00  1.15D+00
                    CP:  1.56D+00  1.71D+00  1.24D+00
 E= -576.416673583106     Delta-E=       -0.000000000018 Rises=F Damp=F
 DIIS: error= 6.53D-08 at cycle  14 NSaved=  14.
 NSaved=14 IEnMin=14 EnMin= -576.416673583106     IErMin=14 ErrMin= 6.53D-08
 ErrMax= 6.53D-08  0.00D+00 EMaxC= 1.00D-01 BMatC= 1.08D-12 BMatP= 7.63D-12
 IDIUse=1 WtCom= 1.00D+00 WtEn= 0.00D+00
 Coeff-Com:  0.135D-06 0.321D-05 0.494D-05 0.159D-05 0.345D-04-0.558D-04
 Coeff-Com: -0.818D-03-0.932D-04 0.598D-02 0.103D-01-0.433D-01-0.101D+00
 Coeff-Com:  0.178D+00 0.951D+00
 Coeff:      0.135D-06 0.321D-05 0.494D-05 0.159D-05 0.345D-04-0.558D-04
 Coeff:     -0.818D-03-0.932D-04 0.598D-02 0.103D-01-0.433D-01-0.101D+00
 Coeff:      0.178D+00 0.951D+00
 Gap=     0.329 Goal=   None    Shift=    0.000
 RMSDP=6.84D-08 MaxDP=5.22D-06 DE=-1.77D-11 OVMax= 1.80D-06

 Cycle  15  Pass 1  IDiag  1:
 RMSU=  1.62D-08    CP:  5.87D-01  8.70D-01  5.69D-01  1.09D+00  6.96D-01
                    CP:  1.17D+00  1.10D+00  1.36D+00  1.56D+00  1.14D+00
                    CP:  1.57D+00  1.78D+00  1.43D+00  1.10D+00
 E= -576.416673583115     Delta-E=       -0.000000000009 Rises=F Damp=F
 DIIS: error= 1.73D-08 at cycle  15 NSaved=  15.
 NSaved=15 IEnMin=15 EnMin= -576.416673583115     IErMin=15 ErrMin= 1.73D-08
 ErrMax= 1.73D-08  0.00D+00 EMaxC= 1.00D-01 BMatC= 1.85D-13 BMatP= 1.08D-12
 IDIUse=1 WtCom= 1.00D+00 WtEn= 0.00D+00
 Coeff-Com: -0.329D-07 0.415D-06 0.153D-05 0.242D-04 0.102D-03 0.451D-04
 Coeff-Com: -0.678D-03-0.125D-02 0.229D-02 0.180D-01-0.801D-02-0.873D-01
 Coeff-Com: -0.404D-01 0.382D+00 0.735D+00
 Coeff:     -0.329D-07 0.415D-06 0.153D-05 0.242D-04 0.102D-03 0.451D-04
 Coeff:     -0.678D-03-0.125D-02 0.229D-02 0.180D-01-0.801D-02-0.873D-01
 Coeff:     -0.404D-01 0.382D+00 0.735D+00
 Gap=     0.329 Goal=   None    Shift=    0.000
 RMSDP=1.77D-08 MaxDP=1.48D-06 DE=-8.87D-12 OVMax= 4.23D-07

 Cycle  16  Pass 1  IDiag  1:
 RMSU=  5.79D-09    CP:  5.87D-01  8.70D-01  5.69D-01  1.09D+00  6.96D-01
                    CP:  1.17D+00  1.10D+00  1.36D+00  1.56D+00  1.14D+00
                    CP:  1.57D+00  1.80D+00  1.46D+00  1.18D+00  1.05D+00
 E= -576.416673583133     Delta-E=       -0.000000000018 Rises=F Damp=F
 DIIS: error= 4.37D-09 at cycle  16 NSaved=  16.
 NSaved=16 IEnMin=16 EnMin= -576.416673583133     IErMin=16 ErrMin= 4.37D-09
 ErrMax= 4.37D-09  0.00D+00 EMaxC= 1.00D-01 BMatC= 5.05D-15 BMatP= 1.85D-13
 IDIUse=1 WtCom= 1.00D+00 WtEn= 0.00D+00
 Coeff-Com: -0.867D-08-0.216D-06-0.311D-06 0.153D-05 0.251D-05 0.107D-04
 Coeff-Com:  0.343D-04-0.839D-04-0.477D-03 0.181D-04 0.403D-02 0.388D-02
 Coeff-Com: -0.192D-01-0.635D-01 0.355D-01 0.104D+01
 Coeff:     -0.867D-08-0.216D-06-0.311D-06 0.153D-05 0.251D-05 0.107D-04
 Coeff:      0.343D-04-0.839D-04-0.477D-03 0.181D-04 0.403D-02 0.388D-02
 Coeff:     -0.192D-01-0.635D-01 0.355D-01 0.104D+01
 Gap=     0.329 Goal=   None    Shift=    0.000
 RMSDP=5.15D-09 MaxDP=2.93D-07 DE=-1.82D-11 OVMax= 1.06D-07

 SCF Done:  E(RwB97XD) =  -576.416673583     A.U. after   16 cycles
            NFock= 16  Conv=0.52D-08     -V/T= 2.0000
 KE= 5.764027907865D+02 PE=-2.904462882035D+03 EE= 9.705190526620D+02
 Leave Link  502 at Tue Nov 22 15:03:34 2022, MaxMem= 16106127360 cpu:            1202.9 elap:              37.7
 (Enter /opt/ap/G16/B01/g16/l601.exe)
 Copying SCF densities to generalized density rwf, IOpCl= 0 IROHF=0.

 **********************************************************************

            Population analysis using the SCF Density.

 **********************************************************************

 Orbital symmetries:
       Occupied  (A) (A) (A) (A) (A) (A) (A) (A) (A) (A) (A) (A)
                 (A) (A) (A) (A) (A) (A) (A) (A) (A) (A) (A) (A)
                 (A) (A) (A) (A) (A) (A) (A) (A) (A) (A) (A) (A)
                 (A) (A) (A) (A) (A) (A) (A) (A) (A) (A) (A) (A)
       Virtual   (A) (A) (A) (A) (A) (A) (A) (A) (A) (A) (A) (A)
                 (A) (A) (A) (A) (A) (A) (A) (A) (A) (A) (A) (A)
                 (A) (A) (A) (A) (A) (A) (A) (A) (A) (A) (A) (A)
                 (A) (A) (A) (A) (A) (A) (A) (A) (A) (A) (A) (A)
                 (A) (A) (A) (A) (A) (A) (A) (A) (A) (A) (A) (A)
                 (A) (A) (A) (A) (A) (A) (A) (A) (A) (A) (A) (A)
                 (A) (A) (A) (A) (A) (A) (A) (A) (A) (A) (A) (A)
                 (A) (A) (A) (A) (A) (A) (A) (A) (A) (A) (A) (A)
                 (A) (A) (A) (A) (A) (A) (A) (A) (A) (A) (A) (A)
                 (A) (A) (A) (A) (A) (A) (A) (A) (A) (A) (A) (A)
                 (A) (A) (A) (A) (A) (A) (A) (A) (A) (A) (A) (A)
                 (A) (A) (A) (A) (A) (A) (A) (A) (A) (A) (A) (A)
                 (A) (A) (A) (A) (A) (A) (A) (A) (A) (A) (A) (A)
                 (A) (A) (A) (A) (A) (A) (A) (A) (A) (A) (A) (A)
                 (A) (A) (A) (A) (A) (A) (A) (A) (A) (A) (A) (A)
                 (A) (A) (A) (A) (A) (A) (A) (A) (A) (A) (A) (A)
                 (A) (A) (A) (A) (A) (A) (A) (A) (A) (A) (A) (A)
                 (A) (A) (A) (A) (A) (A) (A) (A) (A) (A) (A) (A)
                 (A) (A) (A) (A) (A) (A) (A) (A) (A) (A) (A) (A)
                 (A) (A) (A) (A) (A) (A) (A) (A) (A) (A) (A) (A)
                 (A) (A) (A) (A) (A) (A) (A) (A) (A) (A) (A) (A)
                 (A) (A) (A) (A) (A) (A) (A) (A) (A) (A) (A) (A)
                 (A) (A) (A) (A) (A) (A) (A) (A) (A) (A) (A) (A)
                 (A) (A) (A) (A) (A) (A) (A) (A) (A) (A) (A) (A)
                 (A) (A) (A) (A) (A) (A) (A) (A) (A) (A) (A) (A)
                 (A) (A) (A) (A) (A) (A) (A) (A) (A) (A) (A) (A)
                 (A) (A) (A) (A) (A) (A) (A) (A) (A) (A) (A) (A)
                 (A) (A) (A) (A)
 The electronic state is 1-A.
 Alpha  occ. eigenvalues --  -19.24076 -10.38323 -10.30554 -10.30502 -10.29008
 Alpha  occ. eigenvalues --  -10.28760 -10.28688 -10.28468 -10.28449 -10.28430
 Alpha  occ. eigenvalues --  -10.28292 -10.28255 -10.28156 -10.28043  -1.15025
 Alpha  occ. eigenvalues --   -0.97840  -0.97383  -0.89031  -0.87358  -0.87218
 Alpha  occ. eigenvalues --   -0.86809  -0.76756  -0.73851  -0.73428  -0.72531
 Alpha  occ. eigenvalues --   -0.67972  -0.65467  -0.62838  -0.60308  -0.56772
 Alpha  occ. eigenvalues --   -0.56210  -0.55617  -0.54340  -0.53931  -0.53842
 Alpha  occ. eigenvalues --   -0.52235  -0.49257  -0.47112  -0.46580  -0.46278
 Alpha  occ. eigenvalues --   -0.45495  -0.44924  -0.44195  -0.35232  -0.34760
 Alpha  occ. eigenvalues --   -0.34249  -0.33925  -0.33039
 Alpha virt. eigenvalues --   -0.00143   0.03598   0.03822   0.04073   0.04328
 Alpha virt. eigenvalues --    0.05177   0.05199   0.05303   0.05901   0.06808
 Alpha virt. eigenvalues --    0.07440   0.07988   0.08834   0.09832   0.10321
 Alpha virt. eigenvalues --    0.11329   0.11858   0.13380   0.13453   0.14435
 Alpha virt. eigenvalues --    0.14734   0.14816   0.15381   0.15840   0.16506
 Alpha virt. eigenvalues --    0.17007   0.17125   0.17275   0.17710   0.17723
 Alpha virt. eigenvalues --    0.18079   0.18435   0.18711   0.19067   0.19371
 Alpha virt. eigenvalues --    0.19589   0.19958   0.20375   0.20583   0.20648
 Alpha virt. eigenvalues --    0.21527   0.21793   0.22336   0.23196   0.23707
 Alpha virt. eigenvalues --    0.24015   0.24502   0.24880   0.25255   0.26284
 Alpha virt. eigenvalues --    0.26426   0.27425   0.27715   0.28055   0.28280
 Alpha virt. eigenvalues --    0.28465   0.29447   0.30054   0.30259   0.31147
 Alpha virt. eigenvalues --    0.31342   0.31821   0.32407   0.33223   0.33871
 Alpha virt. eigenvalues --    0.34771   0.35033   0.35068   0.35407   0.35996
 Alpha virt. eigenvalues --    0.36949   0.37457   0.38043   0.38347   0.38909
 Alpha virt. eigenvalues --    0.39456   0.39851   0.41270   0.41798   0.42106
 Alpha virt. eigenvalues --    0.42224   0.42758   0.43958   0.44281   0.44954
 Alpha virt. eigenvalues --    0.45764   0.45906   0.46563   0.47613   0.49908
 Alpha virt. eigenvalues --    0.50907   0.56517   0.57332   0.57997   0.61313
 Alpha virt. eigenvalues --    0.61865   0.62090   0.62554   0.63503   0.63761
 Alpha virt. eigenvalues --    0.63923   0.64298   0.65261   0.65303   0.65691
 Alpha virt. eigenvalues --    0.66080   0.66308   0.67900   0.69288   0.70876
 Alpha virt. eigenvalues --    0.71519   0.71636   0.72833   0.73332   0.74254
 Alpha virt. eigenvalues --    0.75164   0.76132   0.76856   0.77895   0.78440
 Alpha virt. eigenvalues --    0.79526   0.80792   0.81313   0.82235   0.82913
 Alpha virt. eigenvalues --    0.83541   0.83900   0.85297   0.87051   0.87974
 Alpha virt. eigenvalues --    0.88658   0.89682   0.92605   0.93349   0.93562
 Alpha virt. eigenvalues --    0.94185   0.94856   0.95207   0.96352   0.96886
 Alpha virt. eigenvalues --    0.97813   0.97817   0.98193   0.99535   1.01971
 Alpha virt. eigenvalues --    1.02444   1.02841   1.03464   1.04334   1.05461
 Alpha virt. eigenvalues --    1.06287   1.08164   1.11348   1.12033   1.13103
 Alpha virt. eigenvalues --    1.14458   1.16390   1.16720   1.17265   1.18150
 Alpha virt. eigenvalues --    1.19585   1.21131   1.21671   1.22832   1.23417
 Alpha virt. eigenvalues --    1.28190   1.29777   1.32819   1.34783   1.39348
 Alpha virt. eigenvalues --    1.41087   1.43449   1.44761   1.47414   1.54448
 Alpha virt. eigenvalues --    1.57298   1.58429   1.58843   1.60356   1.61448
 Alpha virt. eigenvalues --    1.62698   1.63154   1.64324   1.65609   1.66349
 Alpha virt. eigenvalues --    1.68181   1.68718   1.68726   1.69816   1.73585
 Alpha virt. eigenvalues --    1.75052   1.75477   1.76035   1.77024   1.77730
 Alpha virt. eigenvalues --    1.79059   1.84716   1.85990   1.86959   1.88747
 Alpha virt. eigenvalues --    1.89932   1.91434   1.91790   1.92142   1.94400
 Alpha virt. eigenvalues --    1.95376   1.95581   1.98986   2.00744   2.00940
 Alpha virt. eigenvalues --    2.01360   2.02241   2.04956   2.05382   2.05564
 Alpha virt. eigenvalues --    2.06022   2.07608   2.08463   2.09812   2.10928
 Alpha virt. eigenvalues --    2.11655   2.14948   2.15343   2.18642   2.21016
 Alpha virt. eigenvalues --    2.21797   2.26836   2.26957   2.27938   2.30515
 Alpha virt. eigenvalues --    2.32229   2.42411   2.44599   2.47110   2.48014
 Alpha virt. eigenvalues --    2.48753   2.49881   2.50801   2.51046   2.54278
 Alpha virt. eigenvalues --    2.58561   2.59226   2.60234   2.67045   2.67970
 Alpha virt. eigenvalues --    2.70606   2.78020   2.80176   2.81134   2.82706
 Alpha virt. eigenvalues --    2.83331   2.84412   2.85692   2.87853   2.88211
 Alpha virt. eigenvalues --    2.91134   2.92268   2.93175   2.94240   2.96101
 Alpha virt. eigenvalues --    2.96526   2.97904   2.98877   3.00436   3.00655
 Alpha virt. eigenvalues --    3.00782   3.01210   3.02152   3.02999   3.03883
 Alpha virt. eigenvalues --    3.06037   3.08629   3.12759   3.14931   3.18166
 Alpha virt. eigenvalues --    3.19707   3.20237   3.23247   3.25170   3.25285
 Alpha virt. eigenvalues --    3.27709   3.31733   3.31981   3.37325   3.44888
 Alpha virt. eigenvalues --    3.48647   3.49693   3.50901   3.53514   3.65315
 Alpha virt. eigenvalues --    3.70302   3.70327   3.71179   3.75321   3.76741
 Alpha virt. eigenvalues --    3.83337   3.88993   3.91190   3.99493   4.30422
 Alpha virt. eigenvalues --    4.36900   4.37408   4.39300   4.40569   4.41661
 Alpha virt. eigenvalues --    4.42668   4.50825   4.51558   4.53237   4.94984
 Alpha virt. eigenvalues --    4.95563   5.22076   5.35131   5.85775  23.89414
 Alpha virt. eigenvalues --   23.95934  23.98399  24.17241  24.19346  24.24028
 Alpha virt. eigenvalues --   24.24845  24.30175  24.31210  24.34039  24.34181
 Alpha virt. eigenvalues --   24.43258  24.44392  50.14227
          Condensed to atoms (all electrons):
               1          2          3          4          5          6
     1  C   12.247186  -0.418149  -0.577988  -0.588502   0.044054  -2.478671
     2  C   -0.418149  13.714309  -4.247284  -1.709766   0.584473  -2.687628
     3  C   -0.577988  -4.247284   9.904523   0.435852  -0.021113  -0.016654
     4  C   -0.588502  -1.709766   0.435852   7.087711  -0.183862   1.342054
     5  H    0.044054   0.584473  -0.021113  -0.183862   0.493819  -0.137798
     6  C   -2.478671  -2.687628  -0.016654   1.342054  -0.137798  17.268338
     7  C   -0.639264  -0.066334   0.478889  -0.101636   0.019371   0.193402
     8  H    0.096337   0.069984   0.326274   0.000024  -0.001306  -0.018207
     9  C   -0.380813   0.798029  -0.635422  -0.091225   0.011103  -0.551351
    10  H    0.038591  -0.143771   0.028987   0.487964  -0.015292   0.029301
    11  C   -1.746309   0.587997   0.001914  -0.429663   0.033470  -5.697337
    12  O    0.109979   0.164767  -0.155004  -0.009255  -0.000138   0.258215
    13  H   -0.005205  -0.018765  -0.041463   0.013926   0.001868   0.012108
    14  H    0.026251   0.025114  -0.016549  -0.081601  -0.000227  -0.023792
    15  C   -0.322956   0.297922   0.399180  -0.093755   0.018809  -2.322210
    16  C   -0.270144  -0.435604  -0.059564   0.221251  -0.035972   1.562220
    17  C   -0.246589  -0.121531   0.100448   0.107053  -0.015583   0.857870
    18  H    0.000052   0.044221  -0.028215  -0.014701   0.000581  -0.104876
    19  C   -0.072346  -0.086162  -0.052059   0.045194  -0.009056   0.065345
    20  H    0.012469  -0.036112   0.036028  -0.009301  -0.001335  -0.030741
    21  C    0.057829   0.010282   0.030825  -0.015711   0.009829  -0.134897
    22  H   -0.004292  -0.007445   0.003858   0.002040  -0.001001   0.016128
    23  H   -0.010522   0.003650  -0.004277   0.001444  -0.000540   0.013904
    24  H    0.004779  -0.002198   0.002152  -0.001240   0.000408  -0.022343
               7          8          9         10         11         12
     1  C   -0.639264   0.096337  -0.380813   0.038591  -1.746309   0.109979
     2  C   -0.066334   0.069984   0.798029  -0.143771   0.587997   0.164767
     3  C    0.478889   0.326274  -0.635422   0.028987   0.001914  -0.155004
     4  C   -0.101636   0.000024  -0.091225   0.487964  -0.429663  -0.009255
     5  H    0.019371  -0.001306   0.011103  -0.015292   0.033470  -0.000138
     6  C    0.193402  -0.018207  -0.551351   0.029301  -5.697337   0.258215
     7  C    5.700492  -0.085531   0.496824   0.004329  -0.162392  -0.028527
     8  H   -0.085531   0.481040  -0.009567   0.000351  -0.029593  -0.010990
     9  C    0.496824  -0.009567   6.045371  -0.099942   0.196417   0.017445
    10  H    0.004329   0.000351  -0.099942   0.489742  -0.007975  -0.000148
    11  C   -0.162392  -0.029593   0.196417  -0.007975  15.216680   0.021231
    12  O   -0.028527  -0.010990   0.017445  -0.000148   0.021231   7.888544
    13  H    0.453258  -0.014812  -0.072527   0.000394  -0.008066  -0.000672
    14  H   -0.065020   0.001938   0.482515  -0.012975   0.005300   0.000195
    15  C    0.165098  -0.062488   0.036224  -0.002063   1.231068   0.019531
    16  C   -0.095281   0.030428  -0.041093   0.001682  -2.027736  -0.053230
    17  C    0.069182  -0.008403  -0.029479   0.003773  -1.546405  -0.010099
    18  H   -0.008911  -0.002046   0.016493  -0.001567   0.032737  -0.000456
    19  C   -0.028385   0.001063  -0.001537  -0.000207  -0.699159  -0.015497
    20  H    0.003968  -0.000590   0.000822   0.000004   0.078558  -0.012537
    21  C    0.014239  -0.001204  -0.003075   0.000331  -0.223280   0.005637
    22  H   -0.000198   0.000063  -0.000132   0.000116   0.039128   0.000116
    23  H   -0.000724   0.000046   0.000068   0.000005  -0.006267   0.000485
    24  H    0.000291  -0.000065  -0.000014  -0.000005   0.024373   0.000176
              13         14         15         16         17         18
     1  C   -0.005205   0.026251  -0.322956  -0.270144  -0.246589   0.000052
     2  C   -0.018765   0.025114   0.297922  -0.435604  -0.121531   0.044221
     3  C   -0.041463  -0.016549   0.399180  -0.059564   0.100448  -0.028215
     4  C    0.013926  -0.081601  -0.093755   0.221251   0.107053  -0.014701
     5  H    0.001868  -0.000227   0.018809  -0.035972  -0.015583   0.000581
     6  C    0.012108  -0.023792  -2.322210   1.562220   0.857870  -0.104876
     7  C    0.453258  -0.065020   0.165098  -0.095281   0.069182  -0.008911
     8  H   -0.014812   0.001938  -0.062488   0.030428  -0.008403  -0.002046
     9  C   -0.072527   0.482515   0.036224  -0.041093  -0.029479   0.016493
    10  H    0.000394  -0.012975  -0.002063   0.001682   0.003773  -0.001567
    11  C   -0.008066   0.005300   1.231068  -2.027736  -1.546405   0.032737
    12  O   -0.000672   0.000195   0.019531  -0.053230  -0.010099  -0.000456
    13  H    0.489589  -0.013935   0.007626  -0.002846   0.002288  -0.001455
    14  H   -0.013935   0.492429  -0.005391   0.001182  -0.001831   0.000219
    15  C    0.007626  -0.005391  12.348538  -4.792769  -1.081025   0.637736
    16  C   -0.002846   0.001182  -4.792769  11.311177   0.703011  -0.093422
    17  C    0.002288  -0.001831  -1.081025   0.703011   6.995461  -0.155396
    18  H   -0.001455   0.000219   0.637736  -0.093422  -0.155396   0.492645
    19  C   -0.000388   0.000146   0.377727   0.093887  -0.277967   0.034040
    20  H   -0.000034   0.000011   0.036629   0.380325   0.007773  -0.000662
    21  C    0.000451  -0.000177  -0.061145  -0.544422   0.651872  -0.002485
    22  H    0.000028  -0.000001  -0.124160   0.054323   0.441178  -0.016761
    23  H   -0.000008   0.000001  -0.007385  -0.074879   0.006182  -0.000058
    24  H    0.000008  -0.000002   0.003502  -0.039863  -0.075458   0.000964
              19         20         21         22         23         24
     1  C   -0.072346   0.012469   0.057829  -0.004292  -0.010522   0.004779
     2  C   -0.086162  -0.036112   0.010282  -0.007445   0.003650  -0.002198
     3  C   -0.052059   0.036028   0.030825   0.003858  -0.004277   0.002152
     4  C    0.045194  -0.009301  -0.015711   0.002040   0.001444  -0.001240
     5  H   -0.009056  -0.001335   0.009829  -0.001001  -0.000540   0.000408
     6  C    0.065345  -0.030741  -0.134897   0.016128   0.013904  -0.022343
     7  C   -0.028385   0.003968   0.014239  -0.000198  -0.000724   0.000291
     8  H    0.001063  -0.000590  -0.001204   0.000063   0.000046  -0.000065
     9  C   -0.001537   0.000822  -0.003075  -0.000132   0.000068  -0.000014
    10  H   -0.000207   0.000004   0.000331   0.000116   0.000005  -0.000005
    11  C   -0.699159   0.078558  -0.223280   0.039128  -0.006267   0.024373
    12  O   -0.015497  -0.012537   0.005637   0.000116   0.000485   0.000176
    13  H   -0.000388  -0.000034   0.000451   0.000028  -0.000008   0.000008
    14  H    0.000146   0.000011  -0.000177  -0.000001   0.000001  -0.000002
    15  C    0.377727   0.036629  -0.061145  -0.124160  -0.007385   0.003502
    16  C    0.093887   0.380325  -0.544422   0.054323  -0.074879  -0.039863
    17  C   -0.277967   0.007773   0.651872   0.441178   0.006182  -0.075458
    18  H    0.034040  -0.000662  -0.002485  -0.016761  -0.000058   0.000964
    19  C    6.330914  -0.147950   0.443738  -0.004420   0.486001  -0.060893
    20  H   -0.147950   0.461106  -0.004782   0.000411  -0.013211   0.001853
    21  C    0.443738  -0.004782   5.644756  -0.079962  -0.060675   0.515833
    22  H   -0.004420   0.000411  -0.079962   0.489190   0.000995  -0.015394
    23  H    0.486001  -0.013211  -0.060675   0.000995   0.483272  -0.016558
    24  H   -0.060893   0.001853   0.515833  -0.015394  -0.016558   0.497869
 Mulliken charges:
               1
     1  C    1.124223
     2  C   -0.319997
     3  C    0.106663
     4  C   -0.414295
     5  H    0.205437
     6  C   -1.392380
     7  C   -0.317139
     8  H    0.237255
     9  C   -0.185134
    10  H    0.198375
    11  C    1.115311
    12  O   -0.189765
    13  H    0.198632
    14  H    0.186199
    15  C   -0.704246
    16  C    0.207340
    17  C   -0.376325
    18  H    0.171322
    19  C   -0.422030
    20  H    0.237297
    21  C   -0.253807
    22  H    0.206190
    23  H    0.199052
    24  H    0.181823
 Sum of Mulliken charges =  -0.00000
 Mulliken charges with hydrogens summed into heavy atoms:
               1
     1  C    1.124223
     2  C   -0.114560
     3  C    0.343918
     4  C   -0.215920
     6  C   -1.392380
     7  C   -0.118507
     9  C    0.001065
    11  C    1.115311
    12  O   -0.189765
    15  C   -0.532924
    16  C    0.444636
    17  C   -0.170134
    19  C   -0.222978
    21  C   -0.071984
 Electronic spatial extent (au):  <R**2>=           3068.8328
 Charge=             -0.0000 electrons
 Dipole moment (field-independent basis, Debye):
    X=              0.2195    Y=             -3.2298    Z=             -0.0683  Tot=              3.2380
 Quadrupole moment (field-independent basis, Debye-Ang):
   XX=            -64.8982   YY=            -85.6120   ZZ=            -77.7549
   XY=              1.1871   XZ=              2.6645   YZ=             -0.3514
 Traceless Quadrupole moment (field-independent basis, Debye-Ang):
   XX=             11.1902   YY=             -9.5236   ZZ=             -1.6665
   XY=              1.1871   XZ=              2.6645   YZ=             -0.3514
 Octapole moment (field-independent basis, Debye-Ang**2):
  XXX=              8.6162  YYY=            -19.5741  ZZZ=              1.1062  XYY=              8.1440
  XXY=            -13.3576  XXZ=             -1.1117  XZZ=             -9.8249  YZZ=              2.2727
  YYZ=             -1.2294  XYZ=             17.9463
 Hexadecapole moment (field-independent basis, Debye-Ang**3):
 XXXX=          -2878.8515 YYYY=           -667.5785 ZZZZ=           -315.0562 XXXY=             30.3168
 XXXZ=             66.6113 YYYX=             -5.4431 YYYZ=              8.3669 ZZZX=              8.4369
 ZZZY=            -11.4838 XXYY=           -615.9736 XXZZ=           -594.4396 YYZZ=           -142.4718
 XXYZ=             -0.5662 YYXZ=            -11.4466 ZZXY=              4.9601
 N-N= 7.811243650032D+02 E-N=-2.904462881955D+03  KE= 5.764027907865D+02
 No NMR shielding tensors so no spin-rotation constants.
 Leave Link  601 at Tue Nov 22 15:03:35 2022, MaxMem= 16106127360 cpu:              17.8 elap:               0.6
 (Enter /opt/ap/G16/B01/g16/l9999.exe)
 1\1\GINC-N18\SP\RwB97XD\6-311++G(d,p)\C13H10O1\ROOT\22-Nov-2022\0\\#P 
 wB97XD/6-311++G(d,p) scf=maxcycle=512\\_conf030.gjf nmol_natom 1_24\\0
 ,1\C\C,1,1.39746343\C,1,1.39996263,2,119.28066518\C,2,1.39288453,1,120
 .37436646,3,-0.51002981,0\H,2,0.95014703,1,119.82324024,3,179.45634896
 ,0\C,1,1.49653039,2,122.77761373,4,174.46828757,0\C,3,1.3870125,1,120.
 10017821,2,-0.37315804,0\H,3,0.9501092,1,119.95246451,2,179.5923884,0\
 C,7,1.38720039,3,120.16568731,1,1.0745106,0\H,4,0.95011919,2,120.18755
 644,1,-179.31195299,0\C,6,1.49516902,1,120.70972921,2,60.,0\O,6,1.2215
 0059,1,119.67074267,2,-120.,0\H,7,0.94956661,3,119.91274826,1,-178.886
 36029,0\H,9,0.94992259,7,119.76037934,3,179.10763853,0\C,11,1.39713972
 ,6,122.62585705,1,30.97749054,0\C,11,1.40039562,6,117.74753532,1,-153.
 15467779,0\C,15,1.39455701,11,119.80747484,6,175.4763048,0\H,15,0.9496
 2854,11,120.10535689,6,-4.50802339,0\C,16,1.38466431,11,120.4617377,6,
 -176.88197195,0\H,16,0.9497464,11,119.75779177,6,3.14699974,0\C,17,1.3
 9088945,15,120.3475273,11,0.7973643,0\H,17,0.94984298,15,119.8156451,1
 1,-179.16676483,0\H,19,0.94974749,16,119.98566335,11,-178.40987425,0\H
 ,21,0.94938585,17,120.0744529,15,179.91636093,0\\Version=ES64L-G16RevB
 .01\State=1-A\HF=-576.4166736\RMSD=5.153e-09\Dipole=0.0556597,1.014853
 7,0.7679985\Quadrupole=8.2016842,-5.0093162,-3.1923679,-2.0622345,1.24
 12058,-2.8539489\PG=C01 [X(C13H10O1)]\\@


 IF YOU WISH TO UNDERSTAND THE FRAGRANCE OF THE ROSE, 
 OR THE TENACITY OF THE OAK; 
 IF YOU ARE NOT SATISFIED UNTIL YOU KNOW THE SECRET PATHS 
 BY WHICH THE SUNSHINE AND THE AIR ACHIEVE THESE WONDERS; 
 IF YOU WISH TO SEE THE PATTERN WHICH UNDERLIES ONE LARGE FIELD OF 
 HUMAN EXPERIENCE AND HUMAN MEASUREMENT, THEN TAKE UP CHEMISTRY.

                                         -- C. A. COULSON, 1973.
 Job cpu time:       0 days  0 hours 21 minutes  4.1 seconds.
 Elapsed time:       0 days  0 hours  0 minutes 39.7 seconds.
 File lengths (MBytes):  RWF=     78 Int=      0 D2E=      0 Chk=      9 Scr=      1
 Normal termination of Gaussian 16 at Tue Nov 22 15:03:35 2022.
