 Entering Gaussian System, Link 0=g16
 Input=_conf021.gjf
 Output=_conf021.log
 Initial command:
 /opt/ap/G16/B01/g16/l1.exe "/tmp2/scr/Gau-13617.inp" -scrdir="/tmp2/scr/"
 Entering Link 1 = /opt/ap/G16/B01/g16/l1.exe PID=     13618.
  
 Copyright (c) 1988-2017, Gaussian, Inc.  All Rights Reserved.
  
 This is part of the Gaussian(R) 16 program.  It is based on
 the Gaussian(R) 09 system (copyright 2009, Gaussian, Inc.),
 the Gaussian(R) 03 system (copyright 2003, Gaussian, Inc.),
 the Gaussian(R) 98 system (copyright 1998, Gaussian, Inc.),
 the Gaussian(R) 94 system (copyright 1995, Gaussian, Inc.),
 the Gaussian 92(TM) system (copyright 1992, Gaussian, Inc.),
 the Gaussian 90(TM) system (copyright 1990, Gaussian, Inc.),
 the Gaussian 88(TM) system (copyright 1988, Gaussian, Inc.),
 the Gaussian 86(TM) system (copyright 1986, Carnegie Mellon
 University), and the Gaussian 82(TM) system (copyright 1983,
 Carnegie Mellon University). Gaussian is a federally registered
 trademark of Gaussian, Inc.
  
 This software contains proprietary and confidential information,
 including trade secrets, belonging to Gaussian, Inc.
  
 This software is provided under written license and may be
 used, copied, transmitted, or stored only in accord with that
 written license.
  
 The following legend is applicable only to US Government
 contracts under FAR:
  
                    RESTRICTED RIGHTS LEGEND
  
 Use, reproduction and disclosure by the US Government is
 subject to restrictions as set forth in subparagraphs (a)
 and (c) of the Commercial Computer Software - Restricted
 Rights clause in FAR 52.227-19.
  
 Gaussian, Inc.
 340 Quinnipiac St., Bldg. 40, Wallingford CT 06492
  
  
 ---------------------------------------------------------------
 Warning -- This program may not be used in any manner that
 competes with the business of Gaussian, Inc. or will provide
 assistance to any competitor of Gaussian, Inc.  The licensee
 of this program is prohibited from giving any competitor of
 Gaussian, Inc. access to this program.  By using this program,
 the user acknowledges that Gaussian, Inc. is engaged in the
 business of creating and licensing software in the field of
 computational chemistry and represents and warrants to the
 licensee that it is not a competitor of Gaussian, Inc. and that
 it will not use this program in any manner prohibited above.
 ---------------------------------------------------------------
  

 Cite this work as:
 Gaussian 16, Revision B.01,
 M. J. Frisch, G. W. Trucks, H. B. Schlegel, G. E. Scuseria, 
 M. A. Robb, J. R. Cheeseman, G. Scalmani, V. Barone, 
 G. A. Petersson, H. Nakatsuji, X. Li, M. Caricato, A. V. Marenich, 
 J. Bloino, B. G. Janesko, R. Gomperts, B. Mennucci, H. P. Hratchian, 
 J. V. Ortiz, A. F. Izmaylov, J. L. Sonnenberg, D. Williams-Young, 
 F. Ding, F. Lipparini, F. Egidi, J. Goings, B. Peng, A. Petrone, 
 T. Henderson, D. Ranasinghe, V. G. Zakrzewski, J. Gao, N. Rega, 
 G. Zheng, W. Liang, M. Hada, M. Ehara, K. Toyota, R. Fukuda, 
 J. Hasegawa, M. Ishida, T. Nakajima, Y. Honda, O. Kitao, H. Nakai, 
 T. Vreven, K. Throssell, J. A. Montgomery, Jr., J. E. Peralta, 
 F. Ogliaro, M. J. Bearpark, J. J. Heyd, E. N. Brothers, K. N. Kudin, 
 V. N. Staroverov, T. A. Keith, R. Kobayashi, J. Normand, 
 K. Raghavachari, A. P. Rendell, J. C. Burant, S. S. Iyengar, 
 J. Tomasi, M. Cossi, J. M. Millam, M. Klene, C. Adamo, R. Cammi, 
 J. W. Ochterski, R. L. Martin, K. Morokuma, O. Farkas, 
 J. B. Foresman, and D. J. Fox, Gaussian, Inc., Wallingford CT, 2016.
 
 ******************************************
 Gaussian 16:  ES64L-G16RevB.01 20-Dec-2017
                22-Nov-2022 
 ******************************************
 %nprocshared=32
 Will use up to   32 processors via shared memory.
 %mem=120GB
 %chk=_conf021.chk
 ----------------------------------------
 #P wB97XD/6-311++G(d,p) scf=maxcycle=512
 ----------------------------------------
 1/38=1,172=1/1;
 2/12=2,17=6,18=5,40=1/2;
 3/5=4,6=6,7=1111,11=2,25=1,30=1,74=-58/1,2,3;
 4//1;
 5/5=2,7=512,38=5/2;
 6/7=2,8=2,9=2,10=2,28=1/1;
 99/5=1,9=1/99;
 Leave Link    1 at Tue Nov 22 15:01:35 2022, MaxMem= 16106127360 cpu:               1.8 elap:               0.1
 (Enter /opt/ap/G16/B01/g16/l101.exe)
 ----------------------------
 _conf021.gjf nmol_natom 1_24
 ----------------------------
 Symbolic Z-matrix:
 Charge =  0 Multiplicity = 1
 C
 C                    1     1.39746 
 C                    1     1.39996  2     119.28067 
 C                    2     1.39288  1     120.37437  3    -0.51003  0
 H                    2     0.95015  1     119.82324  3     179.45635  0
 C                    1     1.49653  2     122.77761  4     174.46829  0
 C                    3     1.38701  1     120.10018  2    -0.37316  0
 H                    3     0.95011  1     119.95246  2     179.59239  0
 C                    7     1.3872   3     120.16569  1     1.07451  0
 H                    4     0.95012  2     120.18756  1    -179.31195  0
 C                    6     1.49517  1     120.70973  2     15.      0
 O                    6     1.2215   1     119.67074  2    -165.     0
 H                    7     0.94957  3     119.91275  1    -178.88636  0
 H                    9     0.94992  7     119.76038  3     179.10764  0
 C                    11    1.39714  6     122.62586  1     30.97749  0
 C                    11    1.4004   6     117.74754  1    -153.15468  0
 C                    15    1.39456  11    119.80747  6     175.4763  0
 H                    15    0.94963  11    120.10536  6    -4.50802  0
 C                    16    1.38466  11    120.46174  6    -176.88197  0
 H                    16    0.94975  11    119.75779  6     3.147    0
 C                    17    1.39089  15    120.34753  11    0.79736  0
 H                    17    0.94984  15    119.81565  11   -179.16676  0
 H                    19    0.94975  16    119.98566  11   -178.40987  0
 H                    21    0.94939  17    120.07445  15    179.91636  0
 
 ITRead=  0  0  0  0  0  0  0  0  0  0  0  0  0  0  0  0  0  0  0  0
 ITRead=  0  0  0  0
 MicOpt= -1 -1 -1 -1 -1 -1 -1 -1 -1 -1 -1 -1 -1 -1 -1 -1 -1 -1 -1 -1
 MicOpt= -1 -1 -1 -1
 NAtoms=     24 NQM=       24 NQMF=       0 NMMI=      0 NMMIF=      0
                NMic=       0 NMicF=      0.
                    Isotopes and Nuclear Properties:
 (Nuclear quadrupole moments (NQMom) in fm**2, nuclear magnetic moments (NMagM)
  in nuclear magnetons)

  Atom         1           2           3           4           5           6           7           8           9          10
 IAtWgt=          12          12          12          12           1          12          12           1          12           1
 AtmWgt=  12.0000000  12.0000000  12.0000000  12.0000000   1.0078250  12.0000000  12.0000000   1.0078250  12.0000000   1.0078250
 NucSpn=           0           0           0           0           1           0           0           1           0           1
 AtZEff=  -0.0000000  -0.0000000  -0.0000000  -0.0000000  -0.0000000  -0.0000000  -0.0000000  -0.0000000  -0.0000000  -0.0000000
 NQMom=    0.0000000   0.0000000   0.0000000   0.0000000   0.0000000   0.0000000   0.0000000   0.0000000   0.0000000   0.0000000
 NMagM=    0.0000000   0.0000000   0.0000000   0.0000000   2.7928460   0.0000000   0.0000000   2.7928460   0.0000000   2.7928460
 AtZNuc=   6.0000000   6.0000000   6.0000000   6.0000000   1.0000000   6.0000000   6.0000000   1.0000000   6.0000000   1.0000000

  Atom        11          12          13          14          15          16          17          18          19          20
 IAtWgt=          12          16           1           1          12          12          12           1          12           1
 AtmWgt=  12.0000000  15.9949146   1.0078250   1.0078250  12.0000000  12.0000000  12.0000000   1.0078250  12.0000000   1.0078250
 NucSpn=           0           0           1           1           0           0           0           1           0           1
 AtZEff=  -0.0000000  -0.0000000  -0.0000000  -0.0000000  -0.0000000  -0.0000000  -0.0000000  -0.0000000  -0.0000000  -0.0000000
 NQMom=    0.0000000   0.0000000   0.0000000   0.0000000   0.0000000   0.0000000   0.0000000   0.0000000   0.0000000   0.0000000
 NMagM=    0.0000000   0.0000000   2.7928460   2.7928460   0.0000000   0.0000000   0.0000000   2.7928460   0.0000000   2.7928460
 AtZNuc=   6.0000000   8.0000000   1.0000000   1.0000000   6.0000000   6.0000000   6.0000000   1.0000000   6.0000000   1.0000000

  Atom        21          22          23          24
 IAtWgt=          12           1           1           1
 AtmWgt=  12.0000000   1.0078250   1.0078250   1.0078250
 NucSpn=           0           1           1           1
 AtZEff=  -0.0000000  -0.0000000  -0.0000000  -0.0000000
 NQMom=    0.0000000   0.0000000   0.0000000   0.0000000
 NMagM=    0.0000000   2.7928460   2.7928460   2.7928460
 AtZNuc=   6.0000000   1.0000000   1.0000000   1.0000000
 Leave Link  101 at Tue Nov 22 15:01:35 2022, MaxMem= 16106127360 cpu:               5.2 elap:               0.2
 (Enter /opt/ap/G16/B01/g16/l202.exe)
                          Input orientation:                          
 ---------------------------------------------------------------------
 Center     Atomic      Atomic             Coordinates (Angstroms)
 Number     Number       Type             X           Y           Z
 ---------------------------------------------------------------------
      1          6           0        0.000000    0.000000    0.000000
      2          6           0        0.000000    0.000000    1.397463
      3          6           0        1.221096    0.000000   -0.684705
      4          6           0        1.201650   -0.010697    2.101772
      5          1           0       -0.824276    0.007821    1.869996
      6          6           0       -1.253421   -0.110138   -0.810191
      7          6           0        2.414707    0.007815    0.021719
      8          1           0        1.232246   -0.005856   -1.634731
      9          6           0        2.403895   -0.006831    1.408800
     10          1           0        1.198494   -0.020531    3.051836
     11          6           0       -2.591716    0.106258   -0.179582
     12          8           0       -1.182930   -0.379698   -1.999490
     13          1           0        3.241298    0.023792   -0.445367
     14          1           0        3.224827   -0.014217    1.886678
     15          6           0       -2.786209    0.978553    0.894324
     16          6           0       -3.695410   -0.534491   -0.756131
     17          6           0       -4.074459    1.207833    1.376642
     18          1           0       -2.043442    1.414290    1.294605
     19          6           0       -4.969653   -0.322503   -0.257469
     20          1           0       -3.568810   -1.118817   -1.494069
     21          6           0       -5.164504    0.560092    0.804972
     22          1           0       -4.208087    1.809926    2.099020
     23          1           0       -5.710572   -0.777922   -0.639113
     24          1           0       -6.039715    0.718152    1.137168
 ---------------------------------------------------------------------
                    Distance matrix (angstroms):
                    1          2          3          4          5
     1  C    0.000000
     2  C    1.397463   0.000000
     3  C    1.399963   2.413814   0.000000
     4  C    2.421058   1.392885   2.786566   0.000000
     5  H    2.043619   0.950147   3.272630   2.039225   0.000000
     6  C    1.496530   2.541049   2.480142   3.810091   2.716889
     7  C    2.414817   2.779127   1.387013   2.408002   3.729228
     8  H    2.047146   3.273021   0.950109   3.736632   4.063567
     9  C    2.786301   2.403931   2.404542   1.387667   3.260982
    10  H    3.278797   2.042977   3.736665   0.950119   2.342893
    11  C    2.600103   3.035681   3.847593   4.428079   2.708193
    12  O    2.354029   3.617014   2.766255   4.758438   3.905346
    13  H    3.271839   3.728619   2.034469   3.263323   4.678681
    14  H    3.736210   3.261755   3.259932   2.034583   4.049198
    15  C    3.085505   2.995609   4.416943   4.282471   2.396546
    16  C    3.809655   4.310418   4.945990   5.694134   3.928620
    17  C    4.467127   4.249766   5.809554   5.463328   3.499588
    18  H    2.802120   2.487258   4.071252   3.634932   1.948229
    19  C    4.986757   5.247881   6.213848   6.614243   4.671121
    20  H    4.027455   4.727485   4.984979   6.075795   4.485389
    21  C    5.256784   5.228465   6.580936   6.521917   4.502983
    22  H    5.038821   4.634221   6.364038   5.707882   3.840600
    23  H    5.798643   6.112564   6.975332   7.475286   5.548776
    24  H    6.187654   6.087829   7.520262   7.341597   5.314359
                    6          7          8          9         10
     6  C    0.000000
     7  C    3.763130   0.000000
     8  H    2.620930   2.035246   0.000000
     9  C    4.279082   1.387200   3.261263   0.000000
    10  H    4.575496   3.265208   4.686711   2.037829   0.000000
    11  C    1.495169   5.011436   4.093008   5.243269   4.982352
    12  O    1.221501   4.144688   2.471008   4.961933   5.596076
    13  H    4.511488   0.949567   2.334899   2.034727   4.050363
    14  H    5.228480   2.033434   4.046081   0.949923   2.337447
    15  C    2.537727   5.362210   4.849036   5.307809   4.640138
    16  C    2.479176   6.183258   5.033208   6.493602   6.222143
    17  C    3.804937   6.736849   6.221135   6.591321   5.667379
    18  H    2.716281   4.844947   4.618220   4.670271   3.956858
    19  C    3.763108   7.397014   6.360869   7.566062   7.006334
    20  H    2.616515   6.274503   4.930375   6.733228   6.678223
    21  C    4.284219   7.639563   6.869559   7.613584   6.772980
    22  H    4.569487   7.171066   6.843623   6.891684   5.787015
    23  H    4.510144   8.189886   7.056207   8.404350   7.869685
    24  H    5.233249   8.557223   7.815947   8.479029   7.523515
                   11         12         13         14         15
    11  C    0.000000
    12  O    2.352211   0.000000
    13  H    5.839648   4.706580   0.000000
    14  H    6.173826   5.887631   2.332413   0.000000
    15  C    1.397140   3.576242   6.247974   6.172756   0.000000
    16  C    1.400396   2.807573   6.966073   7.425955   2.416598
    17  C    2.415332   4.720113   7.631643   7.418431   1.394557
    18  H    2.045674   3.848369   5.734934   5.490523   0.949629
    19  C    2.417537   4.168594   8.220397   8.475961   2.790484
    20  H    2.045335   2.548367   6.984475   7.668318   3.273506
    21  C    2.791872   4.959954   8.515190   8.478254   2.416481
    22  H    3.272181   5.544711   8.072020   7.656422   2.040640
    23  H    3.274172   4.744339   8.989786   9.316878   3.740125
    24  H    3.741249   5.884919   9.440538   9.323620   3.272933
                   16         17         18         19         20
    16  C    0.000000
    17  C    2.779944   0.000000
    18  H    3.276013   2.043131   0.000000
    19  C    1.384664   2.411145   3.740066   0.000000
    20  H    0.949746   3.729607   4.064490   2.031171   0.000000
    21  C    2.406945   1.390889   3.272678   1.394891   3.263520
    22  H    3.729747   0.949843   2.342925   3.268069   4.679370
    23  H    2.033181   3.268541   4.689659   0.949747   2.331159
    24  H    3.263351   2.039453   4.059507   2.042795   4.050092
                   21         22         23         24
    21  C    0.000000
    22  H    2.037493   0.000000
    23  H    2.043001   4.056081   0.000000
    24  H    0.949386   2.339229   2.345581   0.000000
 Stoichiometry    C13H10O
 Framework group  C1[X(C13H10O)]
 Deg. of freedom    66
 Full point group                 C1      NOp   1
 Largest Abelian subgroup         C1      NOp   1
 Largest concise Abelian subgroup C1      NOp   1
                         Standard orientation:                         
 ---------------------------------------------------------------------
 Center     Atomic      Atomic             Coordinates (Angstroms)
 Number     Number       Type             X           Y           Z
 ---------------------------------------------------------------------
      1          6           0       -1.305105    0.325265   -0.049457
      2          6           0       -1.396587   -1.013324    0.341330
      3          6           0       -2.477370    1.041433   -0.319262
      4          6           0       -2.640908   -1.625586    0.471444
      5          1           0       -0.605578   -1.508873    0.518854
      6          6           0       -0.008009    1.070578   -0.090105
      7          6           0       -3.712935    0.421511   -0.205774
      8          1           0       -2.426571    1.953642   -0.580033
      9          6           0       -3.793658   -0.903523    0.196833
     10          1           0       -2.700424   -2.532997    0.746744
     11          6           0        1.294921    0.339215   -0.035208
     12          8           0       -0.013254    2.289518   -0.168975
     13          1           0       -4.505475    0.905224   -0.404721
     14          1           0       -4.643531   -1.318634    0.284880
     15          6           0        1.460027   -0.945845   -0.558046
     16          6           0        2.402211    1.018244    0.488180
     17          6           0        2.723396   -1.536338   -0.560171
     18          1           0        0.714252   -1.415858   -0.911179
     19          6           0        3.649725    0.417681    0.506292
     20          1           0        2.296499    1.896665    0.833462
     21          6           0        3.816430   -0.859329   -0.029596
     22          1           0        2.837978   -2.405228   -0.926372
     23          1           0        4.391501    0.875501    0.883373
     24          1           0        4.674552   -1.265475   -0.031971
 ---------------------------------------------------------------------
 Rotational constants (GHZ):           1.7700580           0.4162724           0.3485941
 Leave Link  202 at Tue Nov 22 15:01:35 2022, MaxMem= 16106127360 cpu:               0.2 elap:               0.0
 (Enter /opt/ap/G16/B01/g16/l301.exe)
 Standard basis: 6-311++G(d,p) (5D, 7F)
 Ernie: Thresh=  0.10000D-02 Tol=  0.10000D-05 Strict=F.
 There are   392 symmetry adapted cartesian basis functions of A   symmetry.
 There are   378 symmetry adapted basis functions of A   symmetry.
   378 basis functions,   594 primitive gaussians,   392 cartesian basis functions
    48 alpha electrons       48 beta electrons
       nuclear repulsion energy       784.4269963189 Hartrees.
 IExCor= 4639 DFT=T Ex+Corr=wB97XD ExCW=0 ScaHFX=  1.000000
 ScaDFX=  1.000000  1.000000  1.000000  1.000000 ScalE2=  1.000000  1.000000
 IRadAn=      5 IRanWt=     -1 IRanGd=            0 ICorTp=0 IEmpDi=121
 HFx  wShort=  0.000000 wLong=  0.200000 cFull=  0.222036 cShort=  0.000000 cLong=  0.777964
 DFx  wShort=  0.000000 wLong=  0.200000 cFull=  0.000000 cShort=  0.000000 cLong=  1.000000
 NAtoms=   24 NActive=   24 NUniq=   24 SFac= 1.00D+00 NAtFMM=   60 NAOKFM=F Big=F
 Integral buffers will be    131072 words long.
 Raffenetti 2 integral format.
 Two-electron integral symmetry is turned on.
 R6Disp:  Grimme-D2 Dispersion energy=       -0.0139058210 Hartrees.
 Nuclear repulsion after empirical dispersion term =      784.4130904979 Hartrees.
 Leave Link  301 at Tue Nov 22 15:01:35 2022, MaxMem= 16106127360 cpu:               1.2 elap:               0.0
 (Enter /opt/ap/G16/B01/g16/l302.exe)
 NPDir=0 NMtPBC=     1 NCelOv=     1 NCel=       1 NClECP=     1 NCelD=      1
         NCelK=      1 NCelE2=     1 NClLst=     1 CellRange=     0.0.
 One-electron integrals computed using PRISM.
 One-electron integral symmetry used in STVInt
 NBasis=   378 RedAO= T EigKep=  1.03D-06  NBF=   378
 NBsUse=   376 1.00D-06 EigRej=  6.77D-07 NBFU=   376
 Precomputing XC quadrature grid using
 IXCGrd= 4 IRadAn=           5 IRanWt=          -1 IRanGd=           0 AccXCQ= 0.00D+00.
 Generated NRdTot=       0 NPtTot=           0 NUsed=           0 NTot=          32
 NSgBfM=   392   392   392   392   392 MxSgAt=    24 MxSgA2=    24.
 Leave Link  302 at Tue Nov 22 15:01:35 2022, MaxMem= 16106127360 cpu:               8.6 elap:               0.3
 (Enter /opt/ap/G16/B01/g16/l303.exe)
 DipDrv:  MaxL=1.
 Leave Link  303 at Tue Nov 22 15:01:35 2022, MaxMem= 16106127360 cpu:               1.6 elap:               0.1
 (Enter /opt/ap/G16/B01/g16/l401.exe)
 ExpMin= 3.60D-02 ExpMax= 8.59D+03 ExpMxC= 1.30D+03 IAcc=3 IRadAn=         5 AccDes= 0.00D+00
 Harris functional with IExCor= 4639 and IRadAn=       5 diagonalized for initial guess.
 HarFok:  IExCor= 4639 AccDes= 0.00D+00 IRadAn=         5 IDoV= 1 UseB2=F ITyADJ=14
 ICtDFT=  3500011 ScaDFX=  1.000000  1.000000  1.000000  1.000000
 FoFCou: FMM=F IPFlag=           0 FMFlag=      100000 FMFlg1=           0
         NFxFlg=           0 DoJE=T BraDBF=F KetDBF=T FulRan=T
         wScrn=  0.000000 ICntrl=       500 IOpCl=  0 I1Cent=   200000004 NGrid=           0
         NMat0=    1 NMatS0=      1 NMatT0=    0 NMatD0=    1 NMtDS0=    0 NMtDT0=    0
 Petite list used in FoFCou.
 Harris En= -550.901845221568    
 JPrj=0 DoOrth=F DoCkMO=F.
 Leave Link  401 at Tue Nov 22 15:01:36 2022, MaxMem= 16106127360 cpu:              22.6 elap:               0.7
 (Enter /opt/ap/G16/B01/g16/l502.exe)
 Integral symmetry usage will be decided dynamically.
 Closed shell SCF:
 Using DIIS extrapolation, IDIIS=  1040.
 NGot= 16106127360 LenX= 16105803762 LenY= 16105649657
 Requested convergence on RMS density matrix=1.00D-08 within 512 cycles.
 Requested convergence on MAX density matrix=1.00D-06.
 Requested convergence on             energy=1.00D-06.
 No special actions if energy rises.
 Fock matrices will be formed incrementally for  20 cycles.

 Cycle   1  Pass 1  IDiag  1:
 FoFJK:  IHMeth= 1 ICntrl=       0 DoSepK=T KAlg= 0 I1Cent=           0 FoldK=F
 IRaf=         1 NMat=       1 IRICut=       1 DoRegI=T DoRafI=F ISym2E= 0 IDoP0=0 IntGTp=1.
 FoFCou: FMM=F IPFlag=           0 FMFlag=      100000 FMFlg1=           0
         NFxFlg=           0 DoJE=T BraDBF=F KetDBF=F FulRan=T
         wScrn=  0.000000 ICntrl=       500 IOpCl=  0 I1Cent=           0 NGrid=           0
         NMat0=    1 NMatS0=      1 NMatT0=    0 NMatD0=    1 NMtDS0=    0 NMtDT0=    0
 Symmetry not used in FoFCou.
 E= -576.264447558773    
 DIIS: error= 4.96D-02 at cycle   1 NSaved=   1.
 NSaved= 1 IEnMin= 1 EnMin= -576.264447558773     IErMin= 1 ErrMin= 4.96D-02
 ErrMax= 4.96D-02  0.00D+00 EMaxC= 1.00D-01 BMatC= 1.19D+00 BMatP= 1.19D+00
 IDIUse=3 WtCom= 5.04D-01 WtEn= 4.96D-01
 Coeff-Com:  0.100D+01
 Coeff-En:   0.100D+01
 Coeff:      0.100D+01
 Gap=     0.402 Goal=   None    Shift=    0.000
 GapD=    0.402 DampG=2.000 DampE=0.500 DampFc=1.0000 IDamp=-1.
 RMSDP=3.47D-02 MaxDP=3.36D+00              OVMax= 1.37D-01

 Cycle   2  Pass 1  IDiag  1:
 RMSU=  1.82D-02    CP:  6.78D-01
 E= -576.353210186941     Delta-E=       -0.088762628168 Rises=F Damp=F
 DIIS: error= 1.71D-02 at cycle   2 NSaved=   2.
 NSaved= 2 IEnMin= 2 EnMin= -576.353210186941     IErMin= 2 ErrMin= 1.71D-02
 ErrMax= 1.71D-02  0.00D+00 EMaxC= 1.00D-01 BMatC= 7.42D-02 BMatP= 1.19D+00
 IDIUse=3 WtCom= 8.29D-01 WtEn= 1.71D-01
 Coeff-Com:  0.125D+00 0.875D+00
 Coeff-En:   0.139D+00 0.861D+00
 Coeff:      0.127D+00 0.873D+00
 Gap=     0.415 Goal=   None    Shift=    0.000
 RMSDP=9.37D-03 MaxDP=8.10D-01 DE=-8.88D-02 OVMax= 1.63D-01

 Cycle   3  Pass 1  IDiag  1:
 RMSU=  6.72D-03    CP:  6.40D-01  6.97D-01
 E= -576.368169949205     Delta-E=       -0.014959762264 Rises=F Damp=F
 DIIS: error= 1.50D-02 at cycle   3 NSaved=   3.
 NSaved= 3 IEnMin= 3 EnMin= -576.368169949205     IErMin= 3 ErrMin= 1.50D-02
 ErrMax= 1.50D-02  0.00D+00 EMaxC= 1.00D-01 BMatC= 5.60D-02 BMatP= 7.42D-02
 IDIUse=3 WtCom= 8.50D-01 WtEn= 1.50D-01
 Coeff-Com:  0.240D-01 0.468D+00 0.508D+00
 Coeff-En:   0.000D+00 0.437D+00 0.563D+00
 Coeff:      0.204D-01 0.463D+00 0.516D+00
 Gap=     0.345 Goal=   None    Shift=    0.000
 RMSDP=4.88D-03 MaxDP=3.11D-01 DE=-1.50D-02 OVMax= 6.45D-02

 Cycle   4  Pass 1  IDiag  1:
 RMSU=  2.38D-03    CP:  6.11D-01  8.04D-01  5.93D-01
 E= -576.417285209272     Delta-E=       -0.049115260066 Rises=F Damp=F
 DIIS: error= 2.68D-03 at cycle   4 NSaved=   4.
 NSaved= 4 IEnMin= 4 EnMin= -576.417285209272     IErMin= 4 ErrMin= 2.68D-03
 ErrMax= 2.68D-03  0.00D+00 EMaxC= 1.00D-01 BMatC= 9.68D-04 BMatP= 5.60D-02
 IDIUse=3 WtCom= 9.73D-01 WtEn= 2.68D-02
 Coeff-Com:  0.970D-02 0.202D+00 0.244D+00 0.544D+00
 Coeff-En:   0.000D+00 0.000D+00 0.000D+00 0.100D+01
 Coeff:      0.944D-02 0.197D+00 0.238D+00 0.556D+00
 Gap=     0.321 Goal=   None    Shift=    0.000
 RMSDP=6.18D-04 MaxDP=6.04D-02 DE=-4.91D-02 OVMax= 7.01D-03

 Cycle   5  Pass 1  IDiag  1:
 RMSU=  4.53D-04    CP:  6.12D-01  8.25D-01  6.13D-01  9.71D-01
 E= -576.417950015712     Delta-E=       -0.000664806440 Rises=F Damp=F
 DIIS: error= 7.58D-04 at cycle   5 NSaved=   5.
 NSaved= 5 IEnMin= 5 EnMin= -576.417950015712     IErMin= 5 ErrMin= 7.58D-04
 ErrMax= 7.58D-04  0.00D+00 EMaxC= 1.00D-01 BMatC= 8.69D-05 BMatP= 9.68D-04
 IDIUse=3 WtCom= 9.92D-01 WtEn= 7.58D-03
 Coeff-Com: -0.597D-03-0.874D-02-0.453D-03 0.218D+00 0.792D+00
 Coeff-En:   0.000D+00 0.000D+00 0.000D+00 0.000D+00 0.100D+01
 Coeff:     -0.592D-03-0.868D-02-0.450D-03 0.217D+00 0.793D+00
 Gap=     0.323 Goal=   None    Shift=    0.000
 RMSDP=4.12D-04 MaxDP=3.57D-02 DE=-6.65D-04 OVMax= 2.70D-03

 Cycle   6  Pass 1  IDiag  1:
 RMSU=  2.64D-04    CP:  6.09D-01  8.29D-01  6.10D-01  1.02D+00  6.40D-01
 E= -576.418017606652     Delta-E=       -0.000067590940 Rises=F Damp=F
 DIIS: error= 3.44D-04 at cycle   6 NSaved=   6.
 NSaved= 6 IEnMin= 6 EnMin= -576.418017606652     IErMin= 6 ErrMin= 3.44D-04
 ErrMax= 3.44D-04  0.00D+00 EMaxC= 1.00D-01 BMatC= 1.84D-05 BMatP= 8.69D-05
 IDIUse=3 WtCom= 9.97D-01 WtEn= 3.44D-03
 Coeff-Com: -0.122D-02-0.231D-01-0.221D-01 0.642D-01 0.426D+00 0.556D+00
 Coeff-En:   0.000D+00 0.000D+00 0.000D+00 0.000D+00 0.000D+00 0.100D+01
 Coeff:     -0.122D-02-0.230D-01-0.221D-01 0.640D-01 0.425D+00 0.558D+00
 Gap=     0.323 Goal=   None    Shift=    0.000
 RMSDP=9.46D-05 MaxDP=6.39D-03 DE=-6.76D-05 OVMax= 1.36D-03

 Cycle   7  Pass 1  IDiag  1:
 RMSU=  8.12D-05    CP:  6.10D-01  8.30D-01  6.11D-01  1.03D+00  7.02D-01
                    CP:  9.93D-01
 E= -576.418036734268     Delta-E=       -0.000019127616 Rises=F Damp=F
 DIIS: error= 5.16D-05 at cycle   7 NSaved=   7.
 NSaved= 7 IEnMin= 7 EnMin= -576.418036734268     IErMin= 7 ErrMin= 5.16D-05
 ErrMax= 5.16D-05  0.00D+00 EMaxC= 1.00D-01 BMatC= 4.72D-07 BMatP= 1.84D-05
 IDIUse=1 WtCom= 1.00D+00 WtEn= 0.00D+00
 Coeff-Com: -0.225D-03-0.432D-02-0.507D-02-0.106D-01-0.903D-02 0.106D+00
 Coeff-Com:  0.923D+00
 Coeff:     -0.225D-03-0.432D-02-0.507D-02-0.106D-01-0.903D-02 0.106D+00
 Coeff:      0.923D+00
 Gap=     0.323 Goal=   None    Shift=    0.000
 RMSDP=3.89D-05 MaxDP=2.91D-03 DE=-1.91D-05 OVMax= 5.29D-04

 Cycle   8  Pass 1  IDiag  1:
 RMSU=  1.98D-05    CP:  6.10D-01  8.31D-01  6.10D-01  1.04D+00  7.05D-01
                    CP:  1.08D+00  1.05D+00
 E= -576.418037891393     Delta-E=       -0.000001157125 Rises=F Damp=F
 DIIS: error= 2.21D-05 at cycle   8 NSaved=   8.
 NSaved= 8 IEnMin= 8 EnMin= -576.418037891393     IErMin= 8 ErrMin= 2.21D-05
 ErrMax= 2.21D-05  0.00D+00 EMaxC= 1.00D-01 BMatC= 8.09D-08 BMatP= 4.72D-07
 IDIUse=1 WtCom= 1.00D+00 WtEn= 0.00D+00
 Coeff-Com:  0.430D-04 0.596D-03 0.109D-03-0.121D-01-0.535D-01-0.221D-01
 Coeff-Com:  0.318D+00 0.769D+00
 Coeff:      0.430D-04 0.596D-03 0.109D-03-0.121D-01-0.535D-01-0.221D-01
 Coeff:      0.318D+00 0.769D+00
 Gap=     0.323 Goal=   None    Shift=    0.000
 RMSDP=1.66D-05 MaxDP=1.48D-03 DE=-1.16D-06 OVMax= 2.00D-04

 Cycle   9  Pass 1  IDiag  1:
 RMSU=  5.22D-06    CP:  6.10D-01  8.31D-01  6.10D-01  1.04D+00  7.02D-01
                    CP:  1.11D+00  1.06D+00  1.24D+00
 E= -576.418038044642     Delta-E=       -0.000000153249 Rises=F Damp=F
 DIIS: error= 4.04D-06 at cycle   9 NSaved=   9.
 NSaved= 9 IEnMin= 9 EnMin= -576.418038044642     IErMin= 9 ErrMin= 4.04D-06
 ErrMax= 4.04D-06  0.00D+00 EMaxC= 1.00D-01 BMatC= 5.72D-09 BMatP= 8.09D-08
 IDIUse=1 WtCom= 1.00D+00 WtEn= 0.00D+00
 Coeff-Com:  0.388D-04 0.682D-03 0.664D-03-0.928D-03-0.941D-02-0.168D-01
 Coeff-Com: -0.542D-01 0.151D+00 0.928D+00
 Coeff:      0.388D-04 0.682D-03 0.664D-03-0.928D-03-0.941D-02-0.168D-01
 Coeff:     -0.542D-01 0.151D+00 0.928D+00
 Gap=     0.323 Goal=   None    Shift=    0.000
 RMSDP=6.84D-06 MaxDP=5.31D-04 DE=-1.53D-07 OVMax= 9.17D-05

 Cycle  10  Pass 1  IDiag  1:
 RMSU=  2.21D-06    CP:  6.10D-01  8.31D-01  6.10D-01  1.04D+00  6.99D-01
                    CP:  1.12D+00  1.06D+00  1.39D+00  1.35D+00
 E= -576.418038062053     Delta-E=       -0.000000017411 Rises=F Damp=F
 DIIS: error= 1.84D-06 at cycle  10 NSaved=  10.
 NSaved=10 IEnMin=10 EnMin= -576.418038062053     IErMin=10 ErrMin= 1.84D-06
 ErrMax= 1.84D-06  0.00D+00 EMaxC= 1.00D-01 BMatC= 4.91D-10 BMatP= 5.72D-09
 IDIUse=1 WtCom= 1.00D+00 WtEn= 0.00D+00
 Coeff-Com: -0.250D-05-0.889D-05 0.258D-04 0.123D-02 0.434D-02 0.179D-02
 Coeff-Com: -0.259D-01-0.663D-01 0.474D-01 0.104D+01
 Coeff:     -0.250D-05-0.889D-05 0.258D-04 0.123D-02 0.434D-02 0.179D-02
 Coeff:     -0.259D-01-0.663D-01 0.474D-01 0.104D+01
 Gap=     0.323 Goal=   None    Shift=    0.000
 RMSDP=1.98D-06 MaxDP=1.13D-04 DE=-1.74D-08 OVMax= 3.20D-05

 Cycle  11  Pass 1  IDiag  1:
 RMSU=  8.07D-07    CP:  6.10D-01  8.31D-01  6.10D-01  1.04D+00  6.99D-01
                    CP:  1.11D+00  1.05D+00  1.43D+00  1.48D+00  1.20D+00
 E= -576.418038064229     Delta-E=       -0.000000002177 Rises=F Damp=F
 DIIS: error= 8.84D-07 at cycle  11 NSaved=  11.
 NSaved=11 IEnMin=11 EnMin= -576.418038064229     IErMin=11 ErrMin= 8.84D-07
 ErrMax= 8.84D-07  0.00D+00 EMaxC= 1.00D-01 BMatC= 9.87D-11 BMatP= 4.91D-10
 IDIUse=1 WtCom= 1.00D+00 WtEn= 0.00D+00
 Coeff-Com: -0.326D-05-0.511D-04-0.423D-04 0.402D-03 0.164D-02 0.155D-02
 Coeff-Com: -0.187D-02-0.299D-01-0.732D-01 0.229D+00 0.873D+00
 Coeff:     -0.326D-05-0.511D-04-0.423D-04 0.402D-03 0.164D-02 0.155D-02
 Coeff:     -0.187D-02-0.299D-01-0.732D-01 0.229D+00 0.873D+00
 Gap=     0.323 Goal=   None    Shift=    0.000
 RMSDP=5.35D-07 MaxDP=2.83D-05 DE=-2.18D-09 OVMax= 1.35D-05

 Cycle  12  Pass 1  IDiag  1:
 RMSU=  3.41D-07    CP:  6.10D-01  8.31D-01  6.10D-01  1.04D+00  6.99D-01
                    CP:  1.11D+00  1.05D+00  1.43D+00  1.52D+00  1.23D+00
                    CP:  1.22D+00
 E= -576.418038064610     Delta-E=       -0.000000000380 Rises=F Damp=F
 DIIS: error= 4.67D-07 at cycle  12 NSaved=  12.
 NSaved=12 IEnMin=12 EnMin= -576.418038064610     IErMin=12 ErrMin= 4.67D-07
 ErrMax= 4.67D-07  0.00D+00 EMaxC= 1.00D-01 BMatC= 1.82D-11 BMatP= 9.87D-11
 IDIUse=1 WtCom= 1.00D+00 WtEn= 0.00D+00
 Coeff-Com:  0.177D-06-0.573D-05-0.121D-04-0.241D-03-0.893D-03-0.270D-03
 Coeff-Com:  0.682D-02 0.132D-01-0.221D-01-0.216D+00 0.144D+00 0.107D+01
 Coeff:      0.177D-06-0.573D-05-0.121D-04-0.241D-03-0.893D-03-0.270D-03
 Coeff:      0.682D-02 0.132D-01-0.221D-01-0.216D+00 0.144D+00 0.107D+01
 Gap=     0.323 Goal=   None    Shift=    0.000
 RMSDP=2.80D-07 MaxDP=1.68D-05 DE=-3.80D-10 OVMax= 9.05D-06

 Cycle  13  Pass 1  IDiag  1:
 RMSU=  1.14D-07    CP:  6.10D-01  8.31D-01  6.10D-01  1.04D+00  6.99D-01
                    CP:  1.11D+00  1.05D+00  1.42D+00  1.53D+00  1.24D+00
                    CP:  1.38D+00  1.46D+00
 E= -576.418038064729     Delta-E=       -0.000000000119 Rises=F Damp=F
 DIIS: error= 1.74D-07 at cycle  13 NSaved=  13.
 NSaved=13 IEnMin=13 EnMin= -576.418038064729     IErMin=13 ErrMin= 1.74D-07
 ErrMax= 1.74D-07  0.00D+00 EMaxC= 1.00D-01 BMatC= 2.86D-12 BMatP= 1.82D-11
 IDIUse=1 WtCom= 1.00D+00 WtEn= 0.00D+00
 Coeff-Com:  0.438D-06 0.558D-05 0.471D-05-0.112D-03-0.390D-03-0.296D-03
 Coeff-Com:  0.143D-02 0.633D-02 0.430D-02-0.735D-01-0.892D-01 0.174D+00
 Coeff-Com:  0.978D+00
 Coeff:      0.438D-06 0.558D-05 0.471D-05-0.112D-03-0.390D-03-0.296D-03
 Coeff:      0.143D-02 0.633D-02 0.430D-02-0.735D-01-0.892D-01 0.174D+00
 Coeff:      0.978D+00
 Gap=     0.323 Goal=   None    Shift=    0.000
 RMSDP=1.12D-07 MaxDP=9.50D-06 DE=-1.19D-10 OVMax= 3.54D-06

 Cycle  14  Pass 1  IDiag  1:
 RMSU=  4.12D-08    CP:  6.10D-01  8.31D-01  6.10D-01  1.04D+00  6.99D-01
                    CP:  1.11D+00  1.05D+00  1.43D+00  1.53D+00  1.23D+00
                    CP:  1.43D+00  1.57D+00  1.54D+00
 E= -576.418038064761     Delta-E=       -0.000000000033 Rises=F Damp=F
 DIIS: error= 4.84D-08 at cycle  14 NSaved=  14.
 NSaved=14 IEnMin=14 EnMin= -576.418038064761     IErMin=14 ErrMin= 4.84D-08
 ErrMax= 4.84D-08  0.00D+00 EMaxC= 1.00D-01 BMatC= 5.51D-13 BMatP= 2.86D-12
 IDIUse=1 WtCom= 1.00D+00 WtEn= 0.00D+00
 Coeff-Com:  0.248D-07 0.161D-05 0.318D-05 0.174D-04 0.956D-04 0.757D-05
 Coeff-Com: -0.892D-03-0.116D-02 0.435D-02 0.251D-01-0.316D-01-0.181D+00
 Coeff-Com:  0.203D+00 0.981D+00
 Coeff:      0.248D-07 0.161D-05 0.318D-05 0.174D-04 0.956D-04 0.757D-05
 Coeff:     -0.892D-03-0.116D-02 0.435D-02 0.251D-01-0.316D-01-0.181D+00
 Coeff:      0.203D+00 0.981D+00
 Gap=     0.323 Goal=   None    Shift=    0.000
 RMSDP=6.57D-08 MaxDP=6.88D-06 DE=-3.27D-11 OVMax= 1.28D-06

 Cycle  15  Pass 1  IDiag  1:
 RMSU=  1.54D-08    CP:  6.10D-01  8.31D-01  6.10D-01  1.04D+00  6.99D-01
                    CP:  1.11D+00  1.05D+00  1.43D+00  1.53D+00  1.22D+00
                    CP:  1.43D+00  1.63D+00  1.78D+00  1.26D+00
 E= -576.418038064746     Delta-E=        0.000000000015 Rises=F Damp=F
 DIIS: error= 1.61D-08 at cycle  15 NSaved=  15.
 NSaved=15 IEnMin=14 EnMin= -576.418038064761     IErMin=15 ErrMin= 1.61D-08
 ErrMax= 1.61D-08  0.00D+00 EMaxC= 1.00D-01 BMatC= 9.20D-14 BMatP= 5.51D-13
 IDIUse=1 WtCom= 1.00D+00 WtEn= 0.00D+00
 Coeff-Com: -0.351D-07 0.100D-06 0.856D-06 0.187D-04 0.825D-04 0.396D-04
 Coeff-Com: -0.503D-03-0.112D-02 0.127D-02 0.181D-01-0.511D-03-0.101D+00
 Coeff-Com: -0.144D-01 0.407D+00 0.691D+00
 Coeff:     -0.351D-07 0.100D-06 0.856D-06 0.187D-04 0.825D-04 0.396D-04
 Coeff:     -0.503D-03-0.112D-02 0.127D-02 0.181D-01-0.511D-03-0.101D+00
 Coeff:     -0.144D-01 0.407D+00 0.691D+00
 Gap=     0.323 Goal=   None    Shift=    0.000
 RMSDP=1.44D-08 MaxDP=1.44D-06 DE= 1.50D-11 OVMax= 2.70D-07

 Cycle  16  Pass 1  IDiag  1:
 RMSU=  4.27D-09    CP:  6.10D-01  8.31D-01  6.10D-01  1.04D+00  6.99D-01
                    CP:  1.11D+00  1.05D+00  1.43D+00  1.53D+00  1.22D+00
                    CP:  1.42D+00  1.65D+00  1.79D+00  1.34D+00  1.04D+00
 E= -576.418038064744     Delta-E=        0.000000000003 Rises=F Damp=F
 DIIS: error= 5.99D-09 at cycle  16 NSaved=  16.
 NSaved=16 IEnMin=14 EnMin= -576.418038064761     IErMin=16 ErrMin= 5.99D-09
 ErrMax= 5.99D-09  0.00D+00 EMaxC= 1.00D-01 BMatC= 7.65D-15 BMatP= 9.20D-14
 IDIUse=1 WtCom= 1.00D+00 WtEn= 0.00D+00
 Coeff-Com: -0.967D-08-0.218D-06-0.359D-06 0.116D-05 0.264D-05 0.987D-05
 Coeff-Com:  0.325D-04-0.564D-04-0.535D-03-0.383D-03 0.703D-02 0.325D-02
 Coeff-Com: -0.308D-01-0.769D-01 0.152D+00 0.946D+00
 Coeff:     -0.967D-08-0.218D-06-0.359D-06 0.116D-05 0.264D-05 0.987D-05
 Coeff:      0.325D-04-0.564D-04-0.535D-03-0.383D-03 0.703D-02 0.325D-02
 Coeff:     -0.308D-01-0.769D-01 0.152D+00 0.946D+00
 Gap=     0.323 Goal=   None    Shift=    0.000
 RMSDP=5.76D-09 MaxDP=4.46D-07 DE= 2.73D-12 OVMax= 8.81D-08

 SCF Done:  E(RwB97XD) =  -576.418038065     A.U. after   16 cycles
            NFock= 16  Conv=0.58D-08     -V/T= 2.0000
 KE= 5.764398402957D+02 PE=-2.911061773416D+03 EE= 9.737908045579D+02
 Leave Link  502 at Tue Nov 22 15:02:15 2022, MaxMem= 16106127360 cpu:            1235.1 elap:              38.8
 (Enter /opt/ap/G16/B01/g16/l601.exe)
 Copying SCF densities to generalized density rwf, IOpCl= 0 IROHF=0.

 **********************************************************************

            Population analysis using the SCF Density.

 **********************************************************************

 Orbital symmetries:
       Occupied  (A) (A) (A) (A) (A) (A) (A) (A) (A) (A) (A) (A)
                 (A) (A) (A) (A) (A) (A) (A) (A) (A) (A) (A) (A)
                 (A) (A) (A) (A) (A) (A) (A) (A) (A) (A) (A) (A)
                 (A) (A) (A) (A) (A) (A) (A) (A) (A) (A) (A) (A)
       Virtual   (A) (A) (A) (A) (A) (A) (A) (A) (A) (A) (A) (A)
                 (A) (A) (A) (A) (A) (A) (A) (A) (A) (A) (A) (A)
                 (A) (A) (A) (A) (A) (A) (A) (A) (A) (A) (A) (A)
                 (A) (A) (A) (A) (A) (A) (A) (A) (A) (A) (A) (A)
                 (A) (A) (A) (A) (A) (A) (A) (A) (A) (A) (A) (A)
                 (A) (A) (A) (A) (A) (A) (A) (A) (A) (A) (A) (A)
                 (A) (A) (A) (A) (A) (A) (A) (A) (A) (A) (A) (A)
                 (A) (A) (A) (A) (A) (A) (A) (A) (A) (A) (A) (A)
                 (A) (A) (A) (A) (A) (A) (A) (A) (A) (A) (A) (A)
                 (A) (A) (A) (A) (A) (A) (A) (A) (A) (A) (A) (A)
                 (A) (A) (A) (A) (A) (A) (A) (A) (A) (A) (A) (A)
                 (A) (A) (A) (A) (A) (A) (A) (A) (A) (A) (A) (A)
                 (A) (A) (A) (A) (A) (A) (A) (A) (A) (A) (A) (A)
                 (A) (A) (A) (A) (A) (A) (A) (A) (A) (A) (A) (A)
                 (A) (A) (A) (A) (A) (A) (A) (A) (A) (A) (A) (A)
                 (A) (A) (A) (A) (A) (A) (A) (A) (A) (A) (A) (A)
                 (A) (A) (A) (A) (A) (A) (A) (A) (A) (A) (A) (A)
                 (A) (A) (A) (A) (A) (A) (A) (A) (A) (A) (A) (A)
                 (A) (A) (A) (A) (A) (A) (A) (A) (A) (A) (A) (A)
                 (A) (A) (A) (A) (A) (A) (A) (A) (A) (A) (A) (A)
                 (A) (A) (A) (A) (A) (A) (A) (A) (A) (A) (A) (A)
                 (A) (A) (A) (A) (A) (A) (A) (A) (A) (A) (A) (A)
                 (A) (A) (A) (A) (A) (A) (A) (A) (A) (A) (A) (A)
                 (A) (A) (A) (A) (A) (A) (A) (A) (A) (A) (A) (A)
                 (A) (A) (A) (A) (A) (A) (A) (A) (A) (A) (A) (A)
                 (A) (A) (A) (A) (A) (A) (A) (A) (A) (A) (A) (A)
                 (A) (A) (A) (A) (A) (A) (A) (A) (A) (A) (A) (A)
                 (A) (A) (A) (A)
 The electronic state is 1-A.
 Alpha  occ. eigenvalues --  -19.23543 -10.38078 -10.30481 -10.30443 -10.28969
 Alpha  occ. eigenvalues --  -10.28934 -10.28626 -10.28592 -10.28480 -10.28447
 Alpha  occ. eigenvalues --  -10.28381 -10.28376 -10.28215 -10.28159  -1.14728
 Alpha  occ. eigenvalues --   -0.97995  -0.97404  -0.89303  -0.87356  -0.87334
 Alpha  occ. eigenvalues --   -0.86671  -0.76839  -0.74078  -0.73547  -0.72360
 Alpha  occ. eigenvalues --   -0.68000  -0.65222  -0.63548  -0.59879  -0.56948
 Alpha  occ. eigenvalues --   -0.56077  -0.56033  -0.54231  -0.53792  -0.53363
 Alpha  occ. eigenvalues --   -0.51865  -0.50160  -0.47415  -0.46725  -0.46046
 Alpha  occ. eigenvalues --   -0.45211  -0.44885  -0.44287  -0.34956  -0.34511
 Alpha  occ. eigenvalues --   -0.34390  -0.34064  -0.33433
 Alpha virt. eigenvalues --   -0.01160   0.03612   0.03876   0.04307   0.04519
 Alpha virt. eigenvalues --    0.04679   0.05042   0.05658   0.06053   0.06981
 Alpha virt. eigenvalues --    0.07618   0.08032   0.08854   0.09841   0.11552
 Alpha virt. eigenvalues --    0.11852   0.11906   0.12652   0.13319   0.14147
 Alpha virt. eigenvalues --    0.15006   0.15275   0.15833   0.16164   0.16793
 Alpha virt. eigenvalues --    0.16911   0.17255   0.17468   0.17981   0.18088
 Alpha virt. eigenvalues --    0.18242   0.18761   0.18909   0.19092   0.19645
 Alpha virt. eigenvalues --    0.19981   0.20460   0.20637   0.21188   0.21573
 Alpha virt. eigenvalues --    0.21721   0.22069   0.22337   0.23023   0.23776
 Alpha virt. eigenvalues --    0.24358   0.24847   0.25015   0.26112   0.26514
 Alpha virt. eigenvalues --    0.26662   0.27127   0.27695   0.27967   0.28934
 Alpha virt. eigenvalues --    0.29867   0.30073   0.30158   0.30648   0.30944
 Alpha virt. eigenvalues --    0.31768   0.32464   0.32709   0.32830   0.33253
 Alpha virt. eigenvalues --    0.33865   0.34322   0.34689   0.35668   0.36206
 Alpha virt. eigenvalues --    0.36770   0.37189   0.37724   0.38352   0.38768
 Alpha virt. eigenvalues --    0.39429   0.40504   0.41080   0.41426   0.41614
 Alpha virt. eigenvalues --    0.42202   0.42406   0.42768   0.43990   0.44328
 Alpha virt. eigenvalues --    0.44547   0.45632   0.45990   0.49397   0.50083
 Alpha virt. eigenvalues --    0.52532   0.57032   0.57407   0.58538   0.59778
 Alpha virt. eigenvalues --    0.61514   0.61623   0.62771   0.63571   0.63630
 Alpha virt. eigenvalues --    0.64489   0.64605   0.65162   0.65468   0.66448
 Alpha virt. eigenvalues --    0.66814   0.67748   0.68304   0.69789   0.70766
 Alpha virt. eigenvalues --    0.71158   0.71732   0.73507   0.74238   0.74536
 Alpha virt. eigenvalues --    0.74811   0.76683   0.77378   0.77620   0.78516
 Alpha virt. eigenvalues --    0.80579   0.81440   0.81653   0.82523   0.83251
 Alpha virt. eigenvalues --    0.84093   0.85246   0.85583   0.86551   0.88534
 Alpha virt. eigenvalues --    0.89424   0.90406   0.92154   0.92618   0.93498
 Alpha virt. eigenvalues --    0.94507   0.95065   0.95272   0.95775   0.96548
 Alpha virt. eigenvalues --    0.96915   0.99102   1.00560   1.01036   1.01858
 Alpha virt. eigenvalues --    1.02277   1.02894   1.03897   1.05059   1.06032
 Alpha virt. eigenvalues --    1.08655   1.10545   1.11663   1.12621   1.12969
 Alpha virt. eigenvalues --    1.13986   1.16611   1.16813   1.18023   1.19240
 Alpha virt. eigenvalues --    1.20274   1.20920   1.22293   1.25058   1.25731
 Alpha virt. eigenvalues --    1.26532   1.28672   1.30307   1.32547   1.38135
 Alpha virt. eigenvalues --    1.40304   1.44360   1.44982   1.46891   1.55507
 Alpha virt. eigenvalues --    1.56958   1.57687   1.58528   1.60869   1.61177
 Alpha virt. eigenvalues --    1.62157   1.62837   1.63811   1.66295   1.66770
 Alpha virt. eigenvalues --    1.68424   1.68545   1.69190   1.69514   1.73716
 Alpha virt. eigenvalues --    1.74920   1.76383   1.76453   1.78590   1.79297
 Alpha virt. eigenvalues --    1.79619   1.81092   1.86351   1.87644   1.88686
 Alpha virt. eigenvalues --    1.88785   1.91414   1.92281   1.93343   1.94708
 Alpha virt. eigenvalues --    1.95229   1.96617   1.97203   2.00745   2.01187
 Alpha virt. eigenvalues --    2.01791   2.02772   2.04883   2.05372   2.05859
 Alpha virt. eigenvalues --    2.06171   2.06643   2.09179   2.10403   2.11848
 Alpha virt. eigenvalues --    2.15231   2.15606   2.15912   2.18381   2.21380
 Alpha virt. eigenvalues --    2.24521   2.26636   2.28326   2.28629   2.29788
 Alpha virt. eigenvalues --    2.33427   2.42139   2.43447   2.47522   2.48045
 Alpha virt. eigenvalues --    2.49592   2.50506   2.50736   2.51544   2.51752
 Alpha virt. eigenvalues --    2.58544   2.60563   2.61955   2.67569   2.69397
 Alpha virt. eigenvalues --    2.72196   2.78096   2.80036   2.81975   2.82705
 Alpha virt. eigenvalues --    2.83481   2.83960   2.86706   2.88111   2.88357
 Alpha virt. eigenvalues --    2.90083   2.92536   2.93589   2.94055   2.96632
 Alpha virt. eigenvalues --    2.97230   2.97863   2.98793   3.00210   3.00523
 Alpha virt. eigenvalues --    3.00913   3.01120   3.02412   3.03908   3.05012
 Alpha virt. eigenvalues --    3.07128   3.07670   3.12244   3.13639   3.14301
 Alpha virt. eigenvalues --    3.20045   3.20720   3.23113   3.24857   3.26168
 Alpha virt. eigenvalues --    3.27913   3.32036   3.33684   3.39920   3.45348
 Alpha virt. eigenvalues --    3.49410   3.49940   3.51767   3.52419   3.65651
 Alpha virt. eigenvalues --    3.69334   3.69860   3.72982   3.75159   3.76768
 Alpha virt. eigenvalues --    3.83274   3.88856   3.91892   3.96744   4.32551
 Alpha virt. eigenvalues --    4.36458   4.38199   4.39505   4.40762   4.42738
 Alpha virt. eigenvalues --    4.46058   4.51382   4.52628   4.63248   4.94570
 Alpha virt. eigenvalues --    4.96182   5.19999   5.36462   5.87128  23.89063
 Alpha virt. eigenvalues --   23.96462  24.00195  24.16813  24.18254  24.24107
 Alpha virt. eigenvalues --   24.24915  24.30115  24.31314  24.33909  24.34620
 Alpha virt. eigenvalues --   24.43964  24.44763  50.16561
          Condensed to atoms (all electrons):
               1          2          3          4          5          6
     1  C   17.502484   0.510876  -2.117670  -1.287271   0.000388  -6.048630
     2  C    0.510876  15.565086  -5.822585  -2.061144   0.754706  -2.594710
     3  C   -2.117670  -5.822585  13.260278   0.777421  -0.091575   2.590445
     4  C   -1.287271  -2.061144   0.777421   7.806499  -0.212776   0.213003
     5  H    0.000388   0.754706  -0.091575  -0.212776   0.589503  -0.081276
     6  C   -6.048630  -2.594710   2.590445   0.213003  -0.081276  18.294001
     7  C    0.057108   0.467207  -0.915340  -0.252656   0.066073  -1.168719
     8  H    0.024782   0.010599   0.506157   0.009774  -0.001000   0.060797
     9  C   -0.546090   0.510876  -0.285133   0.328473  -0.024394  -0.031390
    10  H    0.048691  -0.151404   0.055376   0.454094  -0.016956   0.023483
    11  C   -2.362120  -0.519503  -1.230597  -0.166099   0.044944  -1.738739
    12  O    0.037640  -0.185330   0.116041  -0.015282  -0.001636   0.409915
    13  H   -0.026707  -0.013728  -0.082782   0.002786   0.000712   0.014396
    14  H    0.030515   0.008065  -0.003692  -0.082254  -0.000632  -0.023649
    15  C   -0.835528  -0.527528  -0.213874   0.681287  -0.122405  -1.410660
    16  C    0.476191   0.944909  -0.936551  -0.040313   0.050126  -3.601209
    17  C   -0.770345   0.314806   0.237100  -0.022695  -0.024667   1.988216
    18  H    0.071612  -0.095231  -0.042282   0.032051  -0.040255  -0.143265
    19  C   -0.126046  -0.036518   0.078767   0.004327   0.005060   1.136523
    20  H   -0.060726   0.001228  -0.021026   0.003162  -0.002887  -0.032896
    21  C   -0.024281   0.058298  -0.102657   0.057922  -0.004698  -0.967940
    22  H   -0.015384   0.009697  -0.000668   0.000063  -0.002136   0.031214
    23  H    0.001538   0.003862  -0.001415   0.000275   0.000048   0.021560
    24  H    0.001200  -0.005574  -0.000009   0.000284  -0.000787  -0.026065
               7          8          9         10         11         12
     1  C    0.057108   0.024782  -0.546090   0.048691  -2.362120   0.037640
     2  C    0.467207   0.010599   0.510876  -0.151404  -0.519503  -0.185330
     3  C   -0.915340   0.506157  -0.285133   0.055376  -1.230597   0.116041
     4  C   -0.252656   0.009774   0.328473   0.454094  -0.166099  -0.015282
     5  H    0.066073  -0.001000  -0.024394  -0.016956   0.044944  -0.001636
     6  C   -1.168719   0.060797  -0.031390   0.023483  -1.738739   0.409915
     7  C    7.555979  -0.182034   0.138487  -0.000470   0.098027   0.079158
     8  H   -0.182034   0.454645   0.012240   0.000638  -0.067426  -0.015715
     9  C    0.138487   0.012240   6.029302  -0.089677  -0.102292  -0.012939
    10  H   -0.000470   0.000638  -0.089677   0.489411  -0.017612   0.000252
    11  C    0.098027  -0.067426  -0.102292  -0.017612  14.387660  -0.235365
    12  O    0.079158  -0.015715  -0.012939   0.000252  -0.235365   8.002969
    13  H    0.487791  -0.012853  -0.045263   0.000490   0.003757   0.002660
    14  H   -0.084869   0.001777   0.507745  -0.014646   0.003931  -0.000211
    15  C    0.218320  -0.019358  -0.194448   0.021875  -1.401211  -0.104327
    16  C   -0.122655  -0.002139   0.061739  -0.009923  -1.216646   0.139582
    17  C   -0.080854   0.008587   0.066614   0.000734   0.247115  -0.032282
    18  H    0.022106  -0.003988  -0.016646  -0.000045  -0.066354  -0.002752
    19  C   -0.046592   0.003471   0.019257  -0.001562  -0.193211   0.019396
    20  H    0.005308  -0.000754  -0.002187   0.000128   0.104055  -0.010959
    21  C    0.020056  -0.001989  -0.014725   0.001868  -1.023738   0.010581
    22  H   -0.002769   0.000131   0.002809  -0.000010   0.057160  -0.000292
    23  H   -0.000899   0.000011   0.000426  -0.000048   0.006887   0.000185
    24  H    0.000538  -0.000063  -0.000406   0.000049   0.024824   0.000171
              13         14         15         16         17         18
     1  C   -0.026707   0.030515  -0.835528   0.476191  -0.770345   0.071612
     2  C   -0.013728   0.008065  -0.527528   0.944909   0.314806  -0.095231
     3  C   -0.082782  -0.003692  -0.213874  -0.936551   0.237100  -0.042282
     4  C    0.002786  -0.082254   0.681287  -0.040313  -0.022695   0.032051
     5  H    0.000712  -0.000632  -0.122405   0.050126  -0.024667  -0.040255
     6  C    0.014396  -0.023649  -1.410660  -3.601209   1.988216  -0.143265
     7  C    0.487791  -0.084869   0.218320  -0.122655  -0.080854   0.022106
     8  H   -0.012853   0.001777  -0.019358  -0.002139   0.008587  -0.003988
     9  C   -0.045263   0.507745  -0.194448   0.061739   0.066614  -0.016646
    10  H    0.000490  -0.014646   0.021875  -0.009923   0.000734  -0.000045
    11  C    0.003757   0.003931  -1.401211  -1.216646   0.247115  -0.066354
    12  O    0.002660  -0.000211  -0.104327   0.139582  -0.032282  -0.002752
    13  H    0.478599  -0.015405   0.007222  -0.004324  -0.001105   0.000749
    14  H   -0.015405   0.499561  -0.011184   0.003696   0.000567  -0.000734
    15  C    0.007222  -0.011184  16.252750  -2.063012  -4.197181   0.747725
    16  C   -0.004324   0.003696  -2.063012  12.701436  -0.865207   0.052563
    17  C   -0.001105   0.000567  -4.197181  -0.865207   9.150297  -0.249666
    18  H    0.000749  -0.000734   0.747725   0.052563  -0.249666   0.566602
    19  C   -0.000848   0.000375  -1.803321  -0.476025   0.934425  -0.019340
    20  H    0.000075  -0.000084   0.088407   0.365478  -0.016220   0.000999
    21  C    0.000281  -0.000334   2.122789   0.605327  -1.016033   0.030853
    22  H   -0.000040   0.000052  -0.180002  -0.000566   0.523278  -0.014063
    23  H   -0.000009   0.000010  -0.061056  -0.091518   0.039014   0.001026
    24  H    0.000005  -0.000008   0.022668  -0.018647  -0.051844  -0.000406
              19         20         21         22         23         24
     1  C   -0.126046  -0.060726  -0.024281  -0.015384   0.001538   0.001200
     2  C   -0.036518   0.001228   0.058298   0.009697   0.003862  -0.005574
     3  C    0.078767  -0.021026  -0.102657  -0.000668  -0.001415  -0.000009
     4  C    0.004327   0.003162   0.057922   0.000063   0.000275   0.000284
     5  H    0.005060  -0.002887  -0.004698  -0.002136   0.000048  -0.000787
     6  C    1.136523  -0.032896  -0.967940   0.031214   0.021560  -0.026065
     7  C   -0.046592   0.005308   0.020056  -0.002769  -0.000899   0.000538
     8  H    0.003471  -0.000754  -0.001989   0.000131   0.000011  -0.000063
     9  C    0.019257  -0.002187  -0.014725   0.002809   0.000426  -0.000406
    10  H   -0.001562   0.000128   0.001868  -0.000010  -0.000048   0.000049
    11  C   -0.193211   0.104055  -1.023738   0.057160   0.006887   0.024824
    12  O    0.019396  -0.010959   0.010581  -0.000292   0.000185   0.000171
    13  H   -0.000848   0.000075   0.000281  -0.000040  -0.000009   0.000005
    14  H    0.000375  -0.000084  -0.000334   0.000052   0.000010  -0.000008
    15  C   -1.803321   0.088407   2.122789  -0.180002  -0.061056   0.022668
    16  C   -0.476025   0.365478   0.605327  -0.000566  -0.091518  -0.018647
    17  C    0.934425  -0.016220  -1.016033   0.523278   0.039014  -0.051844
    18  H   -0.019340   0.000999   0.030853  -0.014063   0.001026  -0.000406
    19  C    6.573215  -0.099295  -0.212635   0.026047   0.505498  -0.032805
    20  H   -0.099295   0.452805   0.010540   0.000227  -0.014445   0.001266
    21  C   -0.212635   0.010540   6.596748  -0.114188  -0.083586   0.442484
    22  H    0.026047   0.000227  -0.114188   0.490205   0.000691  -0.010642
    23  H    0.505498  -0.014445  -0.083586   0.000691   0.489196  -0.012503
    24  H   -0.032805   0.001266   0.442484  -0.010642  -0.012503   0.477846
 Mulliken charges:
               1
     1  C    1.457774
     2  C   -1.146960
     3  C    0.246270
     4  C   -0.230927
     5  H    0.116523
     6  C   -0.914403
     7  C   -0.358300
     8  H    0.213711
     9  C   -0.312378
    10  H    0.205263
    11  C    1.362550
    12  O   -0.201462
    13  H    0.203540
    14  H    0.181410
    15  C   -1.017949
    16  C    0.047690
    17  C   -0.182656
    18  H    0.168740
    19  C   -0.258162
    20  H    0.227803
    21  C   -0.390942
    22  H    0.199188
    23  H    0.195250
    24  H    0.188425
 Sum of Mulliken charges =  -0.00000
 Mulliken charges with hydrogens summed into heavy atoms:
               1
     1  C    1.457774
     2  C   -1.030437
     3  C    0.459981
     4  C   -0.025664
     6  C   -0.914403
     7  C   -0.154759
     9  C   -0.130968
    11  C    1.362550
    12  O   -0.201462
    15  C   -0.849209
    16  C    0.275493
    17  C    0.016533
    19  C   -0.062913
    21  C   -0.202517
 Electronic spatial extent (au):  <R**2>=           3057.2581
 Charge=             -0.0000 electrons
 Dipole moment (field-independent basis, Debye):
    X=             -0.0714    Y=             -3.2337    Z=              0.2932  Tot=              3.2477
 Quadrupole moment (field-independent basis, Debye-Ang):
   XX=            -63.1323   YY=            -81.1107   ZZ=            -83.3416
   XY=             -0.3980   XZ=              1.7598   YZ=              1.4462
 Traceless Quadrupole moment (field-independent basis, Debye-Ang):
   XX=             12.7292   YY=             -5.2492   ZZ=             -7.4801
   XY=             -0.3980   XZ=              1.7598   YZ=              1.4462
 Octapole moment (field-independent basis, Debye-Ang**2):
  XXX=             -3.0007  YYY=            -23.6186  ZZZ=             -1.0623  XYY=             -1.5822
  XXY=             -2.2648  XXZ=              5.6742  XZZ=              2.1162  YZZ=              4.1769
  YYZ=              1.8610  XYZ=             13.7449
 Hexadecapole moment (field-independent basis, Debye-Ang**3):
 XXXX=          -2831.8592 YYYY=           -773.4549 ZZZZ=           -170.2286 XXXY=            -11.3084
 XXXZ=             44.0177 YYYX=             -0.2399 YYYZ=              6.1433 ZZZX=              3.8615
 ZZZY=              1.1291 XXYY=           -605.0120 XXZZ=           -613.3925 YYZZ=           -149.2962
 XXYZ=              3.4360 YYXZ=             -5.8087 ZZXY=              1.2553
 N-N= 7.844130904979D+02 E-N=-2.911061773688D+03  KE= 5.764398402957D+02
 No NMR shielding tensors so no spin-rotation constants.
 Leave Link  601 at Tue Nov 22 15:02:15 2022, MaxMem= 16106127360 cpu:               4.6 elap:               0.2
 (Enter /opt/ap/G16/B01/g16/l9999.exe)
 1\1\GINC-N17\SP\RwB97XD\6-311++G(d,p)\C13H10O1\ROOT\22-Nov-2022\0\\#P 
 wB97XD/6-311++G(d,p) scf=maxcycle=512\\_conf021.gjf nmol_natom 1_24\\0
 ,1\C\C,1,1.39746343\C,1,1.39996263,2,119.28066518\C,2,1.39288453,1,120
 .37436646,3,-0.51002981,0\H,2,0.95014703,1,119.82324024,3,179.45634896
 ,0\C,1,1.49653039,2,122.77761373,4,174.46828757,0\C,3,1.3870125,1,120.
 10017821,2,-0.37315804,0\H,3,0.9501092,1,119.95246451,2,179.5923884,0\
 C,7,1.38720039,3,120.16568731,1,1.0745106,0\H,4,0.95011919,2,120.18755
 644,1,-179.31195299,0\C,6,1.49516902,1,120.70972921,2,15.,0\O,6,1.2215
 0059,1,119.67074267,2,-165.,0\H,7,0.94956661,3,119.91274826,1,-178.886
 36029,0\H,9,0.94992259,7,119.76037934,3,179.10763853,0\C,11,1.39713972
 ,6,122.62585705,1,30.97749054,0\C,11,1.40039562,6,117.74753532,1,-153.
 15467779,0\C,15,1.39455701,11,119.80747484,6,175.4763048,0\H,15,0.9496
 2854,11,120.10535689,6,-4.50802339,0\C,16,1.38466431,11,120.4617377,6,
 -176.88197195,0\H,16,0.9497464,11,119.75779177,6,3.14699974,0\C,17,1.3
 9088945,15,120.3475273,11,0.7973643,0\H,17,0.94984298,15,119.8156451,1
 1,-179.16676483,0\H,19,0.94974749,16,119.98566335,11,-178.40987425,0\H
 ,21,0.94938585,17,120.0744529,15,179.91636093,0\\Version=ES64L-G16RevB
 .01\State=1-A\HF=-576.4180381\RMSD=5.755e-09\Dipole=-0.0422242,0.2481,
 1.2527297\Quadrupole=9.5590572,-4.9229942,-4.636063,0.3931681,0.342116
 4,1.4116916\PG=C01 [X(C13H10O1)]\\@


 REPARTEE - WHAT YOU THINK OF AFTER YOU BECOME A DEPARTEE.
 Job cpu time:       0 days  0 hours 21 minutes 22.8 seconds.
 Elapsed time:       0 days  0 hours  0 minutes 40.3 seconds.
 File lengths (MBytes):  RWF=     78 Int=      0 D2E=      0 Chk=      9 Scr=      1
 Normal termination of Gaussian 16 at Tue Nov 22 15:02:15 2022.
