 Entering Gaussian System, Link 0=g16
 Input=_conf001.gjf
 Output=_conf001.log
 Initial command:
 /opt/ap/G16/B01/g16/l1.exe "/tmp2/scr/Gau-11886.inp" -scrdir="/tmp2/scr/"
 Entering Link 1 = /opt/ap/G16/B01/g16/l1.exe PID=     11887.
  
 Copyright (c) 1988-2017, Gaussian, Inc.  All Rights Reserved.
  
 This is part of the Gaussian(R) 16 program.  It is based on
 the Gaussian(R) 09 system (copyright 2009, Gaussian, Inc.),
 the Gaussian(R) 03 system (copyright 2003, Gaussian, Inc.),
 the Gaussian(R) 98 system (copyright 1998, Gaussian, Inc.),
 the Gaussian(R) 94 system (copyright 1995, Gaussian, Inc.),
 the Gaussian 92(TM) system (copyright 1992, Gaussian, Inc.),
 the Gaussian 90(TM) system (copyright 1990, Gaussian, Inc.),
 the Gaussian 88(TM) system (copyright 1988, Gaussian, Inc.),
 the Gaussian 86(TM) system (copyright 1986, Carnegie Mellon
 University), and the Gaussian 82(TM) system (copyright 1983,
 Carnegie Mellon University). Gaussian is a federally registered
 trademark of Gaussian, Inc.
  
 This software contains proprietary and confidential information,
 including trade secrets, belonging to Gaussian, Inc.
  
 This software is provided under written license and may be
 used, copied, transmitted, or stored only in accord with that
 written license.
  
 The following legend is applicable only to US Government
 contracts under FAR:
  
                    RESTRICTED RIGHTS LEGEND
  
 Use, reproduction and disclosure by the US Government is
 subject to restrictions as set forth in subparagraphs (a)
 and (c) of the Commercial Computer Software - Restricted
 Rights clause in FAR 52.227-19.
  
 Gaussian, Inc.
 340 Quinnipiac St., Bldg. 40, Wallingford CT 06492
  
  
 ---------------------------------------------------------------
 Warning -- This program may not be used in any manner that
 competes with the business of Gaussian, Inc. or will provide
 assistance to any competitor of Gaussian, Inc.  The licensee
 of this program is prohibited from giving any competitor of
 Gaussian, Inc. access to this program.  By using this program,
 the user acknowledges that Gaussian, Inc. is engaged in the
 business of creating and licensing software in the field of
 computational chemistry and represents and warrants to the
 licensee that it is not a competitor of Gaussian, Inc. and that
 it will not use this program in any manner prohibited above.
 ---------------------------------------------------------------
  

 Cite this work as:
 Gaussian 16, Revision B.01,
 M. J. Frisch, G. W. Trucks, H. B. Schlegel, G. E. Scuseria, 
 M. A. Robb, J. R. Cheeseman, G. Scalmani, V. Barone, 
 G. A. Petersson, H. Nakatsuji, X. Li, M. Caricato, A. V. Marenich, 
 J. Bloino, B. G. Janesko, R. Gomperts, B. Mennucci, H. P. Hratchian, 
 J. V. Ortiz, A. F. Izmaylov, J. L. Sonnenberg, D. Williams-Young, 
 F. Ding, F. Lipparini, F. Egidi, J. Goings, B. Peng, A. Petrone, 
 T. Henderson, D. Ranasinghe, V. G. Zakrzewski, J. Gao, N. Rega, 
 G. Zheng, W. Liang, M. Hada, M. Ehara, K. Toyota, R. Fukuda, 
 J. Hasegawa, M. Ishida, T. Nakajima, Y. Honda, O. Kitao, H. Nakai, 
 T. Vreven, K. Throssell, J. A. Montgomery, Jr., J. E. Peralta, 
 F. Ogliaro, M. J. Bearpark, J. J. Heyd, E. N. Brothers, K. N. Kudin, 
 V. N. Staroverov, T. A. Keith, R. Kobayashi, J. Normand, 
 K. Raghavachari, A. P. Rendell, J. C. Burant, S. S. Iyengar, 
 J. Tomasi, M. Cossi, J. M. Millam, M. Klene, C. Adamo, R. Cammi, 
 J. W. Ochterski, R. L. Martin, K. Morokuma, O. Farkas, 
 J. B. Foresman, and D. J. Fox, Gaussian, Inc., Wallingford CT, 2016.
 
 ******************************************
 Gaussian 16:  ES64L-G16RevB.01 20-Dec-2017
                22-Nov-2022 
 ******************************************
 %nprocshared=32
 Will use up to   32 processors via shared memory.
 %mem=120GB
 %chk=_conf001.chk
 ----------------------------------------
 #P wB97XD/6-311++G(d,p) scf=maxcycle=512
 ----------------------------------------
 1/38=1,172=1/1;
 2/12=2,17=6,18=5,40=1/2;
 3/5=4,6=6,7=1111,11=2,25=1,30=1,74=-58/1,2,3;
 4//1;
 5/5=2,7=512,38=5/2;
 6/7=2,8=2,9=2,10=2,28=1/1;
 99/5=1,9=1/99;
 Leave Link    1 at Tue Nov 22 14:58:15 2022, MaxMem= 16106127360 cpu:               2.4 elap:               0.1
 (Enter /opt/ap/G16/B01/g16/l101.exe)
 ----------------------------
 _conf001.gjf nmol_natom 1_24
 ----------------------------
 Symbolic Z-matrix:
 Charge =  0 Multiplicity = 1
 C
 C                    1     1.39746 
 C                    1     1.39996  2     119.28067 
 C                    2     1.39288  1     120.37437  3    -0.51003  0
 H                    2     0.95015  1     119.82324  3     179.45635  0
 C                    1     1.49653  2     122.77761  4     174.46829  0
 C                    3     1.38701  1     120.10018  2    -0.37316  0
 H                    3     0.95011  1     119.95246  2     179.59239  0
 C                    7     1.3872   3     120.16569  1     1.07451  0
 H                    4     0.95012  2     120.18756  1    -179.31195  0
 C                    6     1.49517  1     120.70973  2    -85.      0
 O                    6     1.2215   1     119.67074  2     95.      0
 H                    7     0.94957  3     119.91275  1    -178.88636  0
 H                    9     0.94992  7     119.76038  3     179.10764  0
 C                    11    1.39714  6     122.62586  1     30.97749  0
 C                    11    1.4004   6     117.74754  1    -153.15468  0
 C                    15    1.39456  11    119.80747  6     175.4763  0
 H                    15    0.94963  11    120.10536  6    -4.50802  0
 C                    16    1.38466  11    120.46174  6    -176.88197  0
 H                    16    0.94975  11    119.75779  6     3.147    0
 C                    17    1.39089  15    120.34753  11    0.79736  0
 H                    17    0.94984  15    119.81565  11   -179.16676  0
 H                    19    0.94975  16    119.98566  11   -178.40987  0
 H                    21    0.94939  17    120.07445  15    179.91636  0
 
 ITRead=  0  0  0  0  0  0  0  0  0  0  0  0  0  0  0  0  0  0  0  0
 ITRead=  0  0  0  0
 MicOpt= -1 -1 -1 -1 -1 -1 -1 -1 -1 -1 -1 -1 -1 -1 -1 -1 -1 -1 -1 -1
 MicOpt= -1 -1 -1 -1
 NAtoms=     24 NQM=       24 NQMF=       0 NMMI=      0 NMMIF=      0
                NMic=       0 NMicF=      0.
                    Isotopes and Nuclear Properties:
 (Nuclear quadrupole moments (NQMom) in fm**2, nuclear magnetic moments (NMagM)
  in nuclear magnetons)

  Atom         1           2           3           4           5           6           7           8           9          10
 IAtWgt=          12          12          12          12           1          12          12           1          12           1
 AtmWgt=  12.0000000  12.0000000  12.0000000  12.0000000   1.0078250  12.0000000  12.0000000   1.0078250  12.0000000   1.0078250
 NucSpn=           0           0           0           0           1           0           0           1           0           1
 AtZEff=  -0.0000000  -0.0000000  -0.0000000  -0.0000000  -0.0000000  -0.0000000  -0.0000000  -0.0000000  -0.0000000  -0.0000000
 NQMom=    0.0000000   0.0000000   0.0000000   0.0000000   0.0000000   0.0000000   0.0000000   0.0000000   0.0000000   0.0000000
 NMagM=    0.0000000   0.0000000   0.0000000   0.0000000   2.7928460   0.0000000   0.0000000   2.7928460   0.0000000   2.7928460
 AtZNuc=   6.0000000   6.0000000   6.0000000   6.0000000   1.0000000   6.0000000   6.0000000   1.0000000   6.0000000   1.0000000

  Atom        11          12          13          14          15          16          17          18          19          20
 IAtWgt=          12          16           1           1          12          12          12           1          12           1
 AtmWgt=  12.0000000  15.9949146   1.0078250   1.0078250  12.0000000  12.0000000  12.0000000   1.0078250  12.0000000   1.0078250
 NucSpn=           0           0           1           1           0           0           0           1           0           1
 AtZEff=  -0.0000000  -0.0000000  -0.0000000  -0.0000000  -0.0000000  -0.0000000  -0.0000000  -0.0000000  -0.0000000  -0.0000000
 NQMom=    0.0000000   0.0000000   0.0000000   0.0000000   0.0000000   0.0000000   0.0000000   0.0000000   0.0000000   0.0000000
 NMagM=    0.0000000   0.0000000   2.7928460   2.7928460   0.0000000   0.0000000   0.0000000   2.7928460   0.0000000   2.7928460
 AtZNuc=   6.0000000   8.0000000   1.0000000   1.0000000   6.0000000   6.0000000   6.0000000   1.0000000   6.0000000   1.0000000

  Atom        21          22          23          24
 IAtWgt=          12           1           1           1
 AtmWgt=  12.0000000   1.0078250   1.0078250   1.0078250
 NucSpn=           0           1           1           1
 AtZEff=  -0.0000000  -0.0000000  -0.0000000  -0.0000000
 NQMom=    0.0000000   0.0000000   0.0000000   0.0000000
 NMagM=    0.0000000   2.7928460   2.7928460   2.7928460
 AtZNuc=   6.0000000   1.0000000   1.0000000   1.0000000
 Leave Link  101 at Tue Nov 22 14:58:15 2022, MaxMem= 16106127360 cpu:               6.2 elap:               0.2
 (Enter /opt/ap/G16/B01/g16/l202.exe)
                          Input orientation:                          
 ---------------------------------------------------------------------
 Center     Atomic      Atomic             Coordinates (Angstroms)
 Number     Number       Type             X           Y           Z
 ---------------------------------------------------------------------
      1          6           0        0.000000    0.000000    0.000000
      2          6           0        0.000000    0.000000    1.397463
      3          6           0        1.221096    0.000000   -0.684705
      4          6           0        1.201650   -0.010697    2.101772
      5          1           0       -0.824276    0.007821    1.869996
      6          6           0       -1.253421   -0.110138   -0.810191
      7          6           0        2.414707    0.007815    0.021719
      8          1           0        1.232246   -0.005856   -1.634731
      9          6           0        2.403895   -0.006831    1.408800
     10          1           0        1.198494   -0.020531    3.051836
     11          6           0       -1.841274   -1.447330   -1.129371
     12          8           0       -1.802517    0.902991   -1.215316
     13          1           0        3.241298    0.023792   -0.445367
     14          1           0        3.224827   -0.014217    1.886678
     15          6           0       -1.720254   -2.546591   -0.275569
     16          6           0       -2.611640   -1.559832   -2.293410
     17          6           0       -2.371196   -3.740257   -0.585773
     18          1           0       -1.196475   -2.481187    0.513843
     19          6           0       -3.235631   -2.754839   -2.609463
     20          1           0       -2.706322   -0.811259   -2.870205
     21          6           0       -3.126523   -3.847119   -1.748801
     22          1           0       -2.298674   -4.483950    0.000625
     23          1           0       -3.737872   -2.830333   -3.412006
     24          1           0       -3.567084   -4.661971   -1.956780
 ---------------------------------------------------------------------
                    Distance matrix (angstroms):
                    1          2          3          4          5
     1  C    0.000000
     2  C    1.397463   0.000000
     3  C    1.399963   2.413814   0.000000
     4  C    2.421058   1.392885   2.786566   0.000000
     5  H    2.043619   0.950147   3.272630   2.039225   0.000000
     6  C    1.496530   2.541049   2.480142   3.810091   2.716889
     7  C    2.414817   2.779127   1.387013   2.408002   3.729228
     8  H    2.047146   3.273021   0.950109   3.736632   4.063567
     9  C    2.786301   2.403931   2.404542   1.387667   3.260982
    10  H    3.278797   2.042977   3.736665   0.950119   2.342893
    11  C    2.600103   3.445279   3.416226   4.665146   3.485392
    12  O    2.354029   3.300163   3.199871   4.567595   3.358190
    13  H    3.271839   3.728619   2.034469   3.263323   4.678681
    14  H    3.736210   3.261755   3.259932   2.034583   4.049198
    15  C    3.085505   3.499062   3.912040   4.540929   3.454164
    16  C    3.809655   4.782916   4.439693   6.021514   4.794389
    17  C    4.467127   4.852352   5.186894   5.822177   4.740449
    18  H    2.802120   2.892858   3.665713   3.791548   2.858819
    19  C    4.986757   5.840711   5.581778   7.029617   5.788997
    20  H    4.027455   5.118136   4.567183   6.374457   5.165510
    21  C    5.256784   5.871495   5.902069   6.948247   5.766854
    22  H    5.038821   5.228850   5.741452   6.056161   5.083740
    23  H    5.798643   6.716656   6.327742   7.921551   6.666612
    24  H    6.187654   6.760845   6.802854   7.800451   6.631303
                    6          7          8          9         10
     6  C    0.000000
     7  C    3.763130   0.000000
     8  H    2.620930   2.035246   0.000000
     9  C    4.279082   1.387200   3.261263   0.000000
    10  H    4.575496   3.265208   4.686711   2.037829   0.000000
    11  C    1.495169   4.642825   3.432165   5.151583   5.362689
    12  O    1.221501   4.485150   3.195575   5.040601   5.297881
    13  H    4.511488   0.949567   2.334899   2.034727   4.050363
    14  H    5.228480   2.033434   4.046081   0.949923   2.337447
    15  C    2.537727   4.869422   4.125519   5.127971   5.096243
    16  C    2.479176   5.751652   4.198114   6.424466   6.742271
    17  C    3.804937   6.109170   5.294417   6.381088   6.309615
    18  H    2.716281   4.413383   4.079499   4.459377   4.269907
    19  C    3.763108   6.817749   5.335628   7.449982   7.693387
    20  H    2.616515   5.937933   4.205637   6.713516   7.137465
    21  C    4.284219   6.978574   5.810953   7.436651   7.509638
    22  H    4.569487   6.510942   5.932546   6.643922   6.439113
    23  H    4.510144   7.596037   5.986522   8.302628   8.604879
    24  H    5.233249   7.842397   6.694527   8.285533   8.327060
                   11         12         13         14         15
    11  C    0.000000
    12  O    2.352211   0.000000
    13  H    5.335222   5.177440   0.000000
    14  H    6.067598   5.978113   2.332413   0.000000
    15  C    1.397140   3.576242   5.590411   5.961716   0.000000
    16  C    1.400396   2.807573   6.338771   7.343461   2.416598
    17  C    2.415332   4.720113   6.759280   7.163230   1.394557
    18  H    2.045674   3.848369   5.185444   5.245810   0.949629
    19  C    2.417537   4.168594   7.372565   8.334496   2.790484
    20  H    2.045335   2.548367   6.476985   7.644720   3.273506
    21  C    2.791872   4.959954   7.565186   8.261205   2.416481
    22  H    3.272181   5.544711   7.156112   7.351515   2.040640
    23  H    3.274172   4.744339   8.102826   9.191613   3.740125
    24  H    3.741249   5.884919   8.402072   9.083163   3.272933
                   16         17         18         19         20
    16  C    0.000000
    17  C    2.779944   0.000000
    18  H    3.276013   2.043131   0.000000
    19  C    1.384664   2.411145   3.740066   0.000000
    20  H    0.949746   3.729607   4.064490   2.031171   0.000000
    21  C    2.406945   1.390889   3.272678   1.394891   3.263520
    22  H    3.729747   0.949843   2.342925   3.268069   4.679370
    23  H    2.033181   3.268541   4.689659   0.949747   2.331159
    24  H    3.263351   2.039453   4.059507   2.042795   4.050092
                   21         22         23         24
    21  C    0.000000
    22  H    2.037493   0.000000
    23  H    2.043001   4.056081   0.000000
    24  H    0.949386   2.339229   2.345581   0.000000
 Stoichiometry    C13H10O
 Framework group  C1[X(C13H10O)]
 Deg. of freedom    66
 Full point group                 C1      NOp   1
 Largest Abelian subgroup         C1      NOp   1
 Largest concise Abelian subgroup C1      NOp   1
                         Standard orientation:                         
 ---------------------------------------------------------------------
 Center     Atomic      Atomic             Coordinates (Angstroms)
 Number     Number       Type             X           Y           Z
 ---------------------------------------------------------------------
      1          6           0       -1.310935    0.463988   -0.192088
      2          6           0       -1.944655   -0.340758   -1.142712
      3          6           0       -1.905722    0.638595    1.063155
      4          6           0       -3.149623   -0.971063   -0.841224
      5          1           0       -1.551712   -0.458338   -1.999772
      6          6           0        0.040207    1.068214   -0.413292
      7          6           0       -3.114847    0.023282    1.351615
      8          1           0       -1.480274    1.179002    1.718642
      9          6           0       -3.728598   -0.785220    0.406121
     10          1           0       -3.573252   -1.525443   -1.486149
     11          6           0        1.282269    0.291360   -0.114444
     12          8           0        0.129818    2.208275   -0.842588
     13          1           0       -3.523749    0.156287    2.198247
     14          1           0       -4.550269   -1.213997    0.614351
     15          6           0        1.349166   -1.098751   -0.237379
     16          6           0        2.436919    1.010562    0.218181
     17          6           0        2.562928   -1.754960   -0.034992
     18          1           0        0.570513   -1.595417   -0.458326
     19          6           0        3.634016    0.351803    0.442435
     20          1           0        2.398362    1.956742    0.290817
     21          6           0        3.703180   -1.034549    0.304721
     22          1           0        2.611145   -2.698792   -0.130173
     23          1           0        4.407647    0.844109    0.689723
     24          1           0        4.527218   -1.485369    0.442767
 ---------------------------------------------------------------------
 Rotational constants (GHZ):           1.5983848           0.4120531           0.3738904
 Leave Link  202 at Tue Nov 22 14:58:15 2022, MaxMem= 16106127360 cpu:               0.3 elap:               0.0
 (Enter /opt/ap/G16/B01/g16/l301.exe)
 Standard basis: 6-311++G(d,p) (5D, 7F)
 Ernie: Thresh=  0.10000D-02 Tol=  0.10000D-05 Strict=F.
 There are   392 symmetry adapted cartesian basis functions of A   symmetry.
 There are   378 symmetry adapted basis functions of A   symmetry.
   378 basis functions,   594 primitive gaussians,   392 cartesian basis functions
    48 alpha electrons       48 beta electrons
       nuclear repulsion energy       782.6965655028 Hartrees.
 IExCor= 4639 DFT=T Ex+Corr=wB97XD ExCW=0 ScaHFX=  1.000000
 ScaDFX=  1.000000  1.000000  1.000000  1.000000 ScalE2=  1.000000  1.000000
 IRadAn=      5 IRanWt=     -1 IRanGd=            0 ICorTp=0 IEmpDi=121
 HFx  wShort=  0.000000 wLong=  0.200000 cFull=  0.222036 cShort=  0.000000 cLong=  0.777964
 DFx  wShort=  0.000000 wLong=  0.200000 cFull=  0.000000 cShort=  0.000000 cLong=  1.000000
 NAtoms=   24 NActive=   24 NUniq=   24 SFac= 1.00D+00 NAtFMM=   60 NAOKFM=F Big=F
 Integral buffers will be    131072 words long.
 Raffenetti 2 integral format.
 Two-electron integral symmetry is turned on.
 R6Disp:  Grimme-D2 Dispersion energy=       -0.0140838723 Hartrees.
 Nuclear repulsion after empirical dispersion term =      782.6824816305 Hartrees.
 Leave Link  301 at Tue Nov 22 14:58:15 2022, MaxMem= 16106127360 cpu:               1.5 elap:               0.1
 (Enter /opt/ap/G16/B01/g16/l302.exe)
 NPDir=0 NMtPBC=     1 NCelOv=     1 NCel=       1 NClECP=     1 NCelD=      1
         NCelK=      1 NCelE2=     1 NClLst=     1 CellRange=     0.0.
 One-electron integrals computed using PRISM.
 One-electron integral symmetry used in STVInt
 NBasis=   378 RedAO= T EigKep=  2.00D-06  NBF=   378
 NBsUse=   376 1.00D-06 EigRej=  8.78D-07 NBFU=   376
 Precomputing XC quadrature grid using
 IXCGrd= 4 IRadAn=           5 IRanWt=          -1 IRanGd=           0 AccXCQ= 0.00D+00.
 Generated NRdTot=       0 NPtTot=           0 NUsed=           0 NTot=          32
 NSgBfM=   392   392   392   392   392 MxSgAt=    24 MxSgA2=    24.
 Leave Link  302 at Tue Nov 22 14:58:15 2022, MaxMem= 16106127360 cpu:               9.5 elap:               0.3
 (Enter /opt/ap/G16/B01/g16/l303.exe)
 DipDrv:  MaxL=1.
 Leave Link  303 at Tue Nov 22 14:58:16 2022, MaxMem= 16106127360 cpu:               1.8 elap:               0.1
 (Enter /opt/ap/G16/B01/g16/l401.exe)
 ExpMin= 3.60D-02 ExpMax= 8.59D+03 ExpMxC= 1.30D+03 IAcc=3 IRadAn=         5 AccDes= 0.00D+00
 Harris functional with IExCor= 4639 and IRadAn=       5 diagonalized for initial guess.
 HarFok:  IExCor= 4639 AccDes= 0.00D+00 IRadAn=         5 IDoV= 1 UseB2=F ITyADJ=14
 ICtDFT=  3500011 ScaDFX=  1.000000  1.000000  1.000000  1.000000
 FoFCou: FMM=F IPFlag=           0 FMFlag=      100000 FMFlg1=           0
         NFxFlg=           0 DoJE=T BraDBF=F KetDBF=T FulRan=T
         wScrn=  0.000000 ICntrl=       500 IOpCl=  0 I1Cent=   200000004 NGrid=           0
         NMat0=    1 NMatS0=      1 NMatT0=    0 NMatD0=    1 NMtDS0=    0 NMtDT0=    0
 Petite list used in FoFCou.
 Harris En= -550.902311370913    
 JPrj=0 DoOrth=F DoCkMO=F.
 Leave Link  401 at Tue Nov 22 14:58:16 2022, MaxMem= 16106127360 cpu:              23.5 elap:               0.8
 (Enter /opt/ap/G16/B01/g16/l502.exe)
 Integral symmetry usage will be decided dynamically.
 Closed shell SCF:
 Using DIIS extrapolation, IDIIS=  1040.
 NGot= 16106127360 LenX= 16105803762 LenY= 16105649657
 Requested convergence on RMS density matrix=1.00D-08 within 512 cycles.
 Requested convergence on MAX density matrix=1.00D-06.
 Requested convergence on             energy=1.00D-06.
 No special actions if energy rises.
 Fock matrices will be formed incrementally for  20 cycles.

 Cycle   1  Pass 1  IDiag  1:
 FoFJK:  IHMeth= 1 ICntrl=       0 DoSepK=T KAlg= 0 I1Cent=           0 FoldK=F
 IRaf=         1 NMat=       1 IRICut=       1 DoRegI=T DoRafI=F ISym2E= 0 IDoP0=0 IntGTp=1.
 FoFCou: FMM=F IPFlag=           0 FMFlag=      100000 FMFlg1=           0
         NFxFlg=           0 DoJE=T BraDBF=F KetDBF=F FulRan=T
         wScrn=  0.000000 ICntrl=       500 IOpCl=  0 I1Cent=           0 NGrid=           0
         NMat0=    1 NMatS0=      1 NMatT0=    0 NMatD0=    1 NMtDS0=    0 NMtDT0=    0
 Symmetry not used in FoFCou.
 E= -576.254779100383    
 DIIS: error= 4.82D-02 at cycle   1 NSaved=   1.
 NSaved= 1 IEnMin= 1 EnMin= -576.254779100383     IErMin= 1 ErrMin= 4.82D-02
 ErrMax= 4.82D-02  0.00D+00 EMaxC= 1.00D-01 BMatC= 1.20D+00 BMatP= 1.20D+00
 IDIUse=3 WtCom= 5.18D-01 WtEn= 4.82D-01
 Coeff-Com:  0.100D+01
 Coeff-En:   0.100D+01
 Coeff:      0.100D+01
 Gap=     0.422 Goal=   None    Shift=    0.000
 GapD=    0.422 DampG=2.000 DampE=0.500 DampFc=1.0000 IDamp=-1.
 RMSDP=2.56D-02 MaxDP=3.85D+00              OVMax= 1.15D-01

 Cycle   2  Pass 1  IDiag  1:
 RMSU=  1.79D-02    CP:  7.60D-01
 E= -576.345874152789     Delta-E=       -0.091095052406 Rises=F Damp=F
 DIIS: error= 1.15D-02 at cycle   2 NSaved=   2.
 NSaved= 2 IEnMin= 2 EnMin= -576.345874152789     IErMin= 2 ErrMin= 1.15D-02
 ErrMax= 1.15D-02  0.00D+00 EMaxC= 1.00D-01 BMatC= 7.54D-02 BMatP= 1.20D+00
 IDIUse=3 WtCom= 8.85D-01 WtEn= 1.15D-01
 Coeff-Com:  0.126D+00 0.874D+00
 Coeff-En:   0.143D+00 0.857D+00
 Coeff:      0.128D+00 0.872D+00
 Gap=     0.442 Goal=   None    Shift=    0.000
 RMSDP=1.18D-02 MaxDP=1.16D+00 DE=-9.11D-02 OVMax= 1.40D-01

 Cycle   3  Pass 1  IDiag  1:
 RMSU=  6.41D-03    CP:  7.13D-01  4.87D-01
 E= -576.364972033208     Delta-E=       -0.019097880418 Rises=F Damp=F
 DIIS: error= 1.13D-02 at cycle   3 NSaved=   3.
 NSaved= 3 IEnMin= 3 EnMin= -576.364972033208     IErMin= 3 ErrMin= 1.13D-02
 ErrMax= 1.13D-02  0.00D+00 EMaxC= 1.00D-01 BMatC= 5.24D-02 BMatP= 7.54D-02
 IDIUse=3 WtCom= 8.87D-01 WtEn= 1.13D-01
 Coeff-Com:  0.237D-01 0.458D+00 0.518D+00
 Coeff-En:   0.000D+00 0.418D+00 0.582D+00
 Coeff:      0.210D-01 0.454D+00 0.525D+00
 Gap=     0.359 Goal=   None    Shift=    0.000
 RMSDP=4.98D-03 MaxDP=4.88D-01 DE=-1.91D-02 OVMax= 6.02D-02

 Cycle   4  Pass 1  IDiag  1:
 RMSU=  1.44D-03    CP:  6.90D-01  6.95D-01  6.29D-01
 E= -576.411578027636     Delta-E=       -0.046605994428 Rises=F Damp=F
 DIIS: error= 1.53D-03 at cycle   4 NSaved=   4.
 NSaved= 4 IEnMin= 4 EnMin= -576.411578027636     IErMin= 4 ErrMin= 1.53D-03
 ErrMax= 1.53D-03  0.00D+00 EMaxC= 1.00D-01 BMatC= 7.89D-04 BMatP= 5.24D-02
 IDIUse=3 WtCom= 9.85D-01 WtEn= 1.53D-02
 Coeff-Com:  0.914D-02 0.189D+00 0.237D+00 0.565D+00
 Coeff-En:   0.000D+00 0.000D+00 0.000D+00 0.100D+01
 Coeff:      0.900D-02 0.186D+00 0.234D+00 0.571D+00
 Gap=     0.327 Goal=   None    Shift=    0.000
 RMSDP=7.28D-04 MaxDP=4.74D-02 DE=-4.66D-02 OVMax= 6.30D-03

 Cycle   5  Pass 1  IDiag  1:
 RMSU=  4.49D-04    CP:  6.92D-01  7.23D-01  6.64D-01  9.63D-01
 E= -576.412140443901     Delta-E=       -0.000562416266 Rises=F Damp=F
 DIIS: error= 5.07D-04 at cycle   5 NSaved=   5.
 NSaved= 5 IEnMin= 5 EnMin= -576.412140443901     IErMin= 5 ErrMin= 5.07D-04
 ErrMax= 5.07D-04  0.00D+00 EMaxC= 1.00D-01 BMatC= 7.57D-05 BMatP= 7.89D-04
 IDIUse=3 WtCom= 9.95D-01 WtEn= 5.07D-03
 Coeff-Com: -0.529D-03-0.695D-02 0.101D-02 0.223D+00 0.783D+00
 Coeff-En:   0.000D+00 0.000D+00 0.000D+00 0.000D+00 0.100D+01
 Coeff:     -0.527D-03-0.692D-02 0.101D-02 0.222D+00 0.784D+00
 Gap=     0.329 Goal=   None    Shift=    0.000
 RMSDP=3.64D-04 MaxDP=4.01D-02 DE=-5.62D-04 OVMax= 2.64D-03

 Cycle   6  Pass 1  IDiag  1:
 RMSU=  1.74D-04    CP:  6.89D-01  7.20D-01  6.77D-01  1.08D+00  9.30D-01
 E= -576.412196895428     Delta-E=       -0.000056451526 Rises=F Damp=F
 DIIS: error= 2.13D-04 at cycle   6 NSaved=   6.
 NSaved= 6 IEnMin= 6 EnMin= -576.412196895428     IErMin= 6 ErrMin= 2.13D-04
 ErrMax= 2.13D-04  0.00D+00 EMaxC= 1.00D-01 BMatC= 1.85D-05 BMatP= 7.57D-05
 IDIUse=3 WtCom= 9.98D-01 WtEn= 2.13D-03
 EnCoef did     3 forward-backward iterations
 Coeff-Com: -0.122D-02-0.228D-01-0.227D-01 0.661D-01 0.434D+00 0.546D+00
 Coeff-En:   0.000D+00 0.000D+00 0.000D+00 0.000D+00 0.117D-02 0.999D+00
 Coeff:     -0.121D-02-0.227D-01-0.227D-01 0.660D-01 0.433D+00 0.547D+00
 Gap=     0.329 Goal=   None    Shift=    0.000
 RMSDP=1.11D-04 MaxDP=8.95D-03 DE=-5.65D-05 OVMax= 1.29D-03

 Cycle   7  Pass 1  IDiag  1:
 RMSU=  7.01D-05    CP:  6.89D-01  7.19D-01  6.84D-01  1.11D+00  1.04D+00
                    CP:  1.05D+00
 E= -576.412215467853     Delta-E=       -0.000018572426 Rises=F Damp=F
 DIIS: error= 4.90D-05 at cycle   7 NSaved=   7.
 NSaved= 7 IEnMin= 7 EnMin= -576.412215467853     IErMin= 7 ErrMin= 4.90D-05
 ErrMax= 4.90D-05  0.00D+00 EMaxC= 1.00D-01 BMatC= 4.99D-07 BMatP= 1.85D-05
 IDIUse=1 WtCom= 1.00D+00 WtEn= 0.00D+00
 Coeff-Com: -0.238D-03-0.460D-02-0.538D-02-0.942D-02-0.455D-02 0.111D+00
 Coeff-Com:  0.913D+00
 Coeff:     -0.238D-03-0.460D-02-0.538D-02-0.942D-02-0.455D-02 0.111D+00
 Coeff:      0.913D+00
 Gap=     0.329 Goal=   None    Shift=    0.000
 RMSDP=4.46D-05 MaxDP=4.54D-03 DE=-1.86D-05 OVMax= 5.33D-04

 Cycle   8  Pass 1  IDiag  1:
 RMSU=  2.30D-05    CP:  6.89D-01  7.19D-01  6.86D-01  1.12D+00  1.04D+00
                    CP:  1.22D+00  1.05D+00
 E= -576.412216665508     Delta-E=       -0.000001197655 Rises=F Damp=F
 DIIS: error= 1.34D-05 at cycle   8 NSaved=   8.
 NSaved= 8 IEnMin= 8 EnMin= -576.412216665508     IErMin= 8 ErrMin= 1.34D-05
 ErrMax= 1.34D-05  0.00D+00 EMaxC= 1.00D-01 BMatC= 8.66D-08 BMatP= 4.99D-07
 IDIUse=1 WtCom= 1.00D+00 WtEn= 0.00D+00
 Coeff-Com:  0.542D-04 0.820D-03 0.452D-03-0.125D-01-0.598D-01-0.257D-01
 Coeff-Com:  0.319D+00 0.778D+00
 Coeff:      0.542D-04 0.820D-03 0.452D-03-0.125D-01-0.598D-01-0.257D-01
 Coeff:      0.319D+00 0.778D+00
 Gap=     0.329 Goal=   None    Shift=    0.000
 RMSDP=1.34D-05 MaxDP=9.65D-04 DE=-1.20D-06 OVMax= 2.16D-04

 Cycle   9  Pass 1  IDiag  1:
 RMSU=  7.11D-06    CP:  6.89D-01  7.20D-01  6.86D-01  1.12D+00  1.04D+00
                    CP:  1.27D+00  1.06D+00  1.25D+00
 E= -576.412216843272     Delta-E=       -0.000000177764 Rises=F Damp=F
 DIIS: error= 4.58D-06 at cycle   9 NSaved=   9.
 NSaved= 9 IEnMin= 9 EnMin= -576.412216843272     IErMin= 9 ErrMin= 4.58D-06
 ErrMax= 4.58D-06  0.00D+00 EMaxC= 1.00D-01 BMatC= 6.41D-09 BMatP= 8.66D-08
 IDIUse=1 WtCom= 1.00D+00 WtEn= 0.00D+00
 Coeff-Com:  0.407D-04 0.726D-03 0.745D-03-0.735D-03-0.102D-01-0.165D-01
 Coeff-Com: -0.623D-01 0.141D+00 0.947D+00
 Coeff:      0.407D-04 0.726D-03 0.745D-03-0.735D-03-0.102D-01-0.165D-01
 Coeff:     -0.623D-01 0.141D+00 0.947D+00
 Gap=     0.329 Goal=   None    Shift=    0.000
 RMSDP=8.32D-06 MaxDP=6.82D-04 DE=-1.78D-07 OVMax= 8.26D-05

 Cycle  10  Pass 1  IDiag  1:
 RMSU=  2.03D-06    CP:  6.89D-01  7.20D-01  6.86D-01  1.12D+00  1.03D+00
                    CP:  1.29D+00  1.05D+00  1.46D+00  1.35D+00
 E= -576.412216862229     Delta-E=       -0.000000018957 Rises=F Damp=F
 DIIS: error= 1.15D-06 at cycle  10 NSaved=  10.
 NSaved=10 IEnMin=10 EnMin= -576.412216862229     IErMin=10 ErrMin= 1.15D-06
 ErrMax= 1.15D-06  0.00D+00 EMaxC= 1.00D-01 BMatC= 5.81D-10 BMatP= 6.41D-09
 IDIUse=1 WtCom= 1.00D+00 WtEn= 0.00D+00
 Coeff-Com: -0.165D-05-0.277D-05 0.279D-04 0.135D-02 0.462D-02 0.186D-02
 Coeff-Com: -0.326D-01-0.601D-01 0.101D+00 0.984D+00
 Coeff:     -0.165D-05-0.277D-05 0.279D-04 0.135D-02 0.462D-02 0.186D-02
 Coeff:     -0.326D-01-0.601D-01 0.101D+00 0.984D+00
 Gap=     0.329 Goal=   None    Shift=    0.000
 RMSDP=2.62D-06 MaxDP=2.61D-04 DE=-1.90D-08 OVMax= 2.08D-05

 Cycle  11  Pass 1  IDiag  1:
 RMSU=  7.74D-07    CP:  6.89D-01  7.20D-01  6.85D-01  1.12D+00  1.03D+00
                    CP:  1.29D+00  1.04D+00  1.50D+00  1.42D+00  1.02D+00
 E= -576.412216864067     Delta-E=       -0.000000001838 Rises=F Damp=F
 DIIS: error= 6.44D-07 at cycle  11 NSaved=  11.
 NSaved=11 IEnMin=11 EnMin= -576.412216864067     IErMin=11 ErrMin= 6.44D-07
 ErrMax= 6.44D-07  0.00D+00 EMaxC= 1.00D-01 BMatC= 1.12D-10 BMatP= 5.81D-10
 IDIUse=1 WtCom= 1.00D+00 WtEn= 0.00D+00
 Coeff-Com: -0.355D-05-0.521D-04-0.447D-04 0.511D-03 0.211D-02 0.180D-02
 Coeff-Com: -0.481D-02-0.319D-01-0.528D-01 0.309D+00 0.776D+00
 Coeff:     -0.355D-05-0.521D-04-0.447D-04 0.511D-03 0.211D-02 0.180D-02
 Coeff:     -0.481D-02-0.319D-01-0.528D-01 0.309D+00 0.776D+00
 Gap=     0.329 Goal=   None    Shift=    0.000
 RMSDP=6.65D-07 MaxDP=5.61D-05 DE=-1.84D-09 OVMax= 8.14D-06

 Cycle  12  Pass 1  IDiag  1:
 RMSU=  1.77D-07    CP:  6.89D-01  7.20D-01  6.85D-01  1.12D+00  1.03D+00
                    CP:  1.28D+00  1.04D+00  1.50D+00  1.44D+00  1.11D+00
                    CP:  1.21D+00
 E= -576.412216864365     Delta-E=       -0.000000000297 Rises=F Damp=F
 DIIS: error= 3.74D-07 at cycle  12 NSaved=  12.
 NSaved=12 IEnMin=12 EnMin= -576.412216864365     IErMin=12 ErrMin= 3.74D-07
 ErrMax= 3.74D-07  0.00D+00 EMaxC= 1.00D-01 BMatC= 1.78D-11 BMatP= 1.12D-10
 IDIUse=1 WtCom= 1.00D+00 WtEn= 0.00D+00
 Coeff-Com: -0.254D-06-0.917D-05-0.141D-04-0.156D-03-0.553D-03-0.621D-04
 Coeff-Com:  0.573D-02 0.595D-02-0.296D-01-0.132D+00 0.132D+00 0.102D+01
 Coeff:     -0.254D-06-0.917D-05-0.141D-04-0.156D-03-0.553D-03-0.621D-04
 Coeff:      0.573D-02 0.595D-02-0.296D-01-0.132D+00 0.132D+00 0.102D+01
 Gap=     0.329 Goal=   None    Shift=    0.000
 RMSDP=3.56D-07 MaxDP=3.08D-05 DE=-2.97D-10 OVMax= 6.54D-06

 Cycle  13  Pass 1  IDiag  1:
 RMSU=  1.25D-07    CP:  6.89D-01  7.20D-01  6.85D-01  1.12D+00  1.03D+00
                    CP:  1.28D+00  1.04D+00  1.49D+00  1.44D+00  1.13D+00
                    CP:  1.37D+00  1.39D+00
 E= -576.412216864452     Delta-E=       -0.000000000088 Rises=F Damp=F
 DIIS: error= 1.75D-07 at cycle  13 NSaved=  13.
 NSaved=13 IEnMin=13 EnMin= -576.412216864452     IErMin=13 ErrMin= 1.75D-07
 ErrMax= 1.75D-07  0.00D+00 EMaxC= 1.00D-01 BMatC= 4.64D-12 BMatP= 1.78D-11
 IDIUse=1 WtCom= 1.00D+00 WtEn= 0.00D+00
 Coeff-Com:  0.506D-06 0.477D-05 0.192D-05-0.150D-03-0.562D-03-0.349D-03
 Coeff-Com:  0.285D-02 0.772D-02-0.123D-02-0.100D+00-0.875D-01 0.382D+00
 Coeff-Com:  0.798D+00
 Coeff:      0.506D-06 0.477D-05 0.192D-05-0.150D-03-0.562D-03-0.349D-03
 Coeff:      0.285D-02 0.772D-02-0.123D-02-0.100D+00-0.875D-01 0.382D+00
 Coeff:      0.798D+00
 Gap=     0.329 Goal=   None    Shift=    0.000
 RMSDP=1.75D-07 MaxDP=1.40D-05 DE=-8.75D-11 OVMax= 2.76D-06

 Cycle  14  Pass 1  IDiag  1:
 RMSU=  6.97D-08    CP:  6.89D-01  7.20D-01  6.85D-01  1.12D+00  1.03D+00
                    CP:  1.28D+00  1.04D+00  1.49D+00  1.43D+00  1.12D+00
                    CP:  1.44D+00  1.59D+00  1.22D+00
 E= -576.412216864480     Delta-E=       -0.000000000028 Rises=F Damp=F
 DIIS: error= 7.79D-08 at cycle  14 NSaved=  14.
 NSaved=14 IEnMin=14 EnMin= -576.412216864480     IErMin=14 ErrMin= 7.79D-08
 ErrMax= 7.79D-08  0.00D+00 EMaxC= 1.00D-01 BMatC= 6.82D-13 BMatP= 4.64D-12
 IDIUse=1 WtCom= 1.00D+00 WtEn= 0.00D+00
 Coeff-Com:  0.121D-06 0.278D-05 0.384D-05-0.329D-06 0.201D-04-0.592D-04
 Coeff-Com: -0.661D-03 0.112D-03 0.517D-02 0.854D-02-0.407D-01-0.146D+00
 Coeff-Com:  0.104D+00 0.107D+01
 Coeff:      0.121D-06 0.278D-05 0.384D-05-0.329D-06 0.201D-04-0.592D-04
 Coeff:     -0.661D-03 0.112D-03 0.517D-02 0.854D-02-0.407D-01-0.146D+00
 Coeff:      0.104D+00 0.107D+01
 Gap=     0.329 Goal=   None    Shift=    0.000
 RMSDP=8.72D-08 MaxDP=8.79D-06 DE=-2.75D-11 OVMax= 1.65D-06

 Cycle  15  Pass 1  IDiag  1:
 RMSU=  1.80D-08    CP:  6.89D-01  7.20D-01  6.85D-01  1.12D+00  1.03D+00
                    CP:  1.28D+00  1.04D+00  1.49D+00  1.43D+00  1.11D+00
                    CP:  1.46D+00  1.67D+00  1.50D+00  1.36D+00
 E= -576.412216864470     Delta-E=        0.000000000010 Rises=F Damp=F
 DIIS: error= 2.11D-08 at cycle  15 NSaved=  15.
 NSaved=15 IEnMin=14 EnMin= -576.412216864480     IErMin=15 ErrMin= 2.11D-08
 ErrMax= 2.11D-08  0.00D+00 EMaxC= 1.00D-01 BMatC= 1.49D-13 BMatP= 6.82D-13
 IDIUse=1 WtCom= 1.00D+00 WtEn= 0.00D+00
 Coeff-Com: -0.391D-07 0.342D-06 0.132D-05 0.249D-04 0.104D-03 0.420D-04
 Coeff-Com: -0.697D-03-0.122D-02 0.222D-02 0.207D-01 0.138D-02-0.118D+00
 Coeff-Com: -0.108D+00 0.396D+00 0.806D+00
 Coeff:     -0.391D-07 0.342D-06 0.132D-05 0.249D-04 0.104D-03 0.420D-04
 Coeff:     -0.697D-03-0.122D-02 0.222D-02 0.207D-01 0.138D-02-0.118D+00
 Coeff:     -0.108D+00 0.396D+00 0.806D+00
 Gap=     0.329 Goal=   None    Shift=    0.000
 RMSDP=2.53D-08 MaxDP=2.21D-06 DE= 1.00D-11 OVMax= 5.37D-07

 Cycle  16  Pass 1  IDiag  1:
 RMSU=  6.54D-09    CP:  6.89D-01  7.20D-01  6.85D-01  1.12D+00  1.03D+00
                    CP:  1.28D+00  1.04D+00  1.49D+00  1.43D+00  1.11D+00
                    CP:  1.46D+00  1.70D+00  1.57D+00  1.52D+00  1.17D+00
 E= -576.412216864481     Delta-E=       -0.000000000011 Rises=F Damp=F
 DIIS: error= 5.65D-09 at cycle  16 NSaved=  16.
 NSaved=16 IEnMin=16 EnMin= -576.412216864481     IErMin=16 ErrMin= 5.65D-09
 ErrMax= 5.65D-09  0.00D+00 EMaxC= 1.00D-01 BMatC= 8.33D-15 BMatP= 1.49D-13
 IDIUse=1 WtCom= 1.00D+00 WtEn= 0.00D+00
 Coeff-Com: -0.147D-07-0.323D-06-0.403D-06 0.273D-05 0.763D-05 0.147D-04
 Coeff-Com:  0.124D-04-0.154D-03-0.522D-03 0.790D-03 0.537D-02 0.852D-02
 Coeff-Com: -0.247D-01-0.989D-01 0.442D-01 0.107D+01
 Coeff:     -0.147D-07-0.323D-06-0.403D-06 0.273D-05 0.763D-05 0.147D-04
 Coeff:      0.124D-04-0.154D-03-0.522D-03 0.790D-03 0.537D-02 0.852D-02
 Coeff:     -0.247D-01-0.989D-01 0.442D-01 0.107D+01
 Gap=     0.329 Goal=   None    Shift=    0.000
 RMSDP=7.40D-09 MaxDP=6.55D-07 DE=-1.09D-11 OVMax= 1.81D-07

 SCF Done:  E(RwB97XD) =  -576.412216864     A.U. after   16 cycles
            NFock= 16  Conv=0.74D-08     -V/T= 2.0000
 KE= 5.764033505253D+02 PE=-2.907508536816D+03 EE= 9.720104877955D+02
 Leave Link  502 at Tue Nov 22 14:58:55 2022, MaxMem= 16106127360 cpu:            1227.2 elap:              38.5
 (Enter /opt/ap/G16/B01/g16/l601.exe)
 Copying SCF densities to generalized density rwf, IOpCl= 0 IROHF=0.

 **********************************************************************

            Population analysis using the SCF Density.

 **********************************************************************

 Orbital symmetries:
       Occupied  (A) (A) (A) (A) (A) (A) (A) (A) (A) (A) (A) (A)
                 (A) (A) (A) (A) (A) (A) (A) (A) (A) (A) (A) (A)
                 (A) (A) (A) (A) (A) (A) (A) (A) (A) (A) (A) (A)
                 (A) (A) (A) (A) (A) (A) (A) (A) (A) (A) (A) (A)
       Virtual   (A) (A) (A) (A) (A) (A) (A) (A) (A) (A) (A) (A)
                 (A) (A) (A) (A) (A) (A) (A) (A) (A) (A) (A) (A)
                 (A) (A) (A) (A) (A) (A) (A) (A) (A) (A) (A) (A)
                 (A) (A) (A) (A) (A) (A) (A) (A) (A) (A) (A) (A)
                 (A) (A) (A) (A) (A) (A) (A) (A) (A) (A) (A) (A)
                 (A) (A) (A) (A) (A) (A) (A) (A) (A) (A) (A) (A)
                 (A) (A) (A) (A) (A) (A) (A) (A) (A) (A) (A) (A)
                 (A) (A) (A) (A) (A) (A) (A) (A) (A) (A) (A) (A)
                 (A) (A) (A) (A) (A) (A) (A) (A) (A) (A) (A) (A)
                 (A) (A) (A) (A) (A) (A) (A) (A) (A) (A) (A) (A)
                 (A) (A) (A) (A) (A) (A) (A) (A) (A) (A) (A) (A)
                 (A) (A) (A) (A) (A) (A) (A) (A) (A) (A) (A) (A)
                 (A) (A) (A) (A) (A) (A) (A) (A) (A) (A) (A) (A)
                 (A) (A) (A) (A) (A) (A) (A) (A) (A) (A) (A) (A)
                 (A) (A) (A) (A) (A) (A) (A) (A) (A) (A) (A) (A)
                 (A) (A) (A) (A) (A) (A) (A) (A) (A) (A) (A) (A)
                 (A) (A) (A) (A) (A) (A) (A) (A) (A) (A) (A) (A)
                 (A) (A) (A) (A) (A) (A) (A) (A) (A) (A) (A) (A)
                 (A) (A) (A) (A) (A) (A) (A) (A) (A) (A) (A) (A)
                 (A) (A) (A) (A) (A) (A) (A) (A) (A) (A) (A) (A)
                 (A) (A) (A) (A) (A) (A) (A) (A) (A) (A) (A) (A)
                 (A) (A) (A) (A) (A) (A) (A) (A) (A) (A) (A) (A)
                 (A) (A) (A) (A) (A) (A) (A) (A) (A) (A) (A) (A)
                 (A) (A) (A) (A) (A) (A) (A) (A) (A) (A) (A) (A)
                 (A) (A) (A) (A) (A) (A) (A) (A) (A) (A) (A) (A)
                 (A) (A) (A) (A) (A) (A) (A) (A) (A) (A) (A) (A)
                 (A) (A) (A) (A) (A) (A) (A) (A) (A) (A) (A) (A)
                 (A) (A) (A) (A)
 The electronic state is 1-A.
 Alpha  occ. eigenvalues --  -19.24320 -10.38523 -10.30713 -10.30674 -10.29074
 Alpha  occ. eigenvalues --  -10.28739 -10.28665 -10.28553 -10.28525 -10.28483
 Alpha  occ. eigenvalues --  -10.28329 -10.28297 -10.28128 -10.27966  -1.15196
 Alpha  occ. eigenvalues --   -0.97924  -0.97402  -0.89119  -0.87425  -0.87260
 Alpha  occ. eigenvalues --   -0.86848  -0.76814  -0.73931  -0.73490  -0.72604
 Alpha  occ. eigenvalues --   -0.68052  -0.65524  -0.62905  -0.60388  -0.56929
 Alpha  occ. eigenvalues --   -0.56262  -0.55658  -0.54494  -0.54012  -0.53865
 Alpha  occ. eigenvalues --   -0.52437  -0.49092  -0.47199  -0.46626  -0.46178
 Alpha  occ. eigenvalues --   -0.45926  -0.44872  -0.44312  -0.35228  -0.34794
 Alpha  occ. eigenvalues --   -0.34287  -0.34090  -0.32816
 Alpha virt. eigenvalues --    0.00075   0.03629   0.04049   0.04337   0.04363
 Alpha virt. eigenvalues --    0.04812   0.04953   0.05551   0.05842   0.06945
 Alpha virt. eigenvalues --    0.07370   0.08066   0.09043   0.09088   0.10309
 Alpha virt. eigenvalues --    0.11569   0.11730   0.12182   0.13452   0.14214
 Alpha virt. eigenvalues --    0.14936   0.15304   0.15699   0.16053   0.16512
 Alpha virt. eigenvalues --    0.16942   0.17023   0.17248   0.17584   0.17823
 Alpha virt. eigenvalues --    0.18079   0.18391   0.18680   0.18691   0.18948
 Alpha virt. eigenvalues --    0.19794   0.20027   0.20364   0.20754   0.21299
 Alpha virt. eigenvalues --    0.21639   0.21971   0.22755   0.23475   0.23672
 Alpha virt. eigenvalues --    0.23978   0.24544   0.24886   0.25420   0.25571
 Alpha virt. eigenvalues --    0.25916   0.26429   0.27490   0.27618   0.28088
 Alpha virt. eigenvalues --    0.28361   0.29767   0.30116   0.30698   0.30932
 Alpha virt. eigenvalues --    0.31476   0.31797   0.32378   0.32992   0.33436
 Alpha virt. eigenvalues --    0.34168   0.34859   0.35010   0.35372   0.36792
 Alpha virt. eigenvalues --    0.37386   0.37506   0.37842   0.38208   0.38524
 Alpha virt. eigenvalues --    0.39014   0.39430   0.40749   0.41179   0.42055
 Alpha virt. eigenvalues --    0.42475   0.42942   0.43497   0.44378   0.44927
 Alpha virt. eigenvalues --    0.45604   0.45836   0.46484   0.48319   0.50087
 Alpha virt. eigenvalues --    0.53143   0.56049   0.57528   0.57671   0.59950
 Alpha virt. eigenvalues --    0.60886   0.62197   0.62671   0.62935   0.63589
 Alpha virt. eigenvalues --    0.63809   0.64734   0.65171   0.65439   0.65975
 Alpha virt. eigenvalues --    0.66208   0.66742   0.68155   0.68767   0.69129
 Alpha virt. eigenvalues --    0.70314   0.70741   0.72146   0.74614   0.74926
 Alpha virt. eigenvalues --    0.75088   0.76371   0.76916   0.77645   0.78270
 Alpha virt. eigenvalues --    0.79017   0.79804   0.80976   0.82086   0.83020
 Alpha virt. eigenvalues --    0.83606   0.83879   0.84378   0.86681   0.87632
 Alpha virt. eigenvalues --    0.88298   0.89158   0.92168   0.93350   0.94081
 Alpha virt. eigenvalues --    0.94311   0.94421   0.95213   0.95416   0.96009
 Alpha virt. eigenvalues --    0.96372   0.97768   0.99649   0.99959   1.00730
 Alpha virt. eigenvalues --    1.01922   1.02389   1.03085   1.04839   1.05300
 Alpha virt. eigenvalues --    1.07566   1.09216   1.10515   1.12422   1.13385
 Alpha virt. eigenvalues --    1.14422   1.15817   1.16436   1.17169   1.17718
 Alpha virt. eigenvalues --    1.18669   1.20483   1.21586   1.22948   1.23380
 Alpha virt. eigenvalues --    1.27605   1.31944   1.33904   1.37105   1.39263
 Alpha virt. eigenvalues --    1.42767   1.44023   1.44997   1.49121   1.54943
 Alpha virt. eigenvalues --    1.56112   1.58719   1.59471   1.60839   1.61890
 Alpha virt. eigenvalues --    1.62276   1.63521   1.65368   1.66589   1.67139
 Alpha virt. eigenvalues --    1.68112   1.69031   1.69272   1.69790   1.73487
 Alpha virt. eigenvalues --    1.75786   1.76054   1.76339   1.76712   1.78169
 Alpha virt. eigenvalues --    1.78890   1.82620   1.83799   1.86006   1.89937
 Alpha virt. eigenvalues --    1.90622   1.91119   1.91537   1.92464   1.93896
 Alpha virt. eigenvalues --    1.94804   1.95499   1.96951   2.00133   2.01486
 Alpha virt. eigenvalues --    2.02454   2.03162   2.04208   2.04708   2.05070
 Alpha virt. eigenvalues --    2.05480   2.07308   2.08411   2.08974   2.10168
 Alpha virt. eigenvalues --    2.10559   2.15710   2.16404   2.17961   2.20586
 Alpha virt. eigenvalues --    2.20933   2.26213   2.26965   2.27381   2.30645
 Alpha virt. eigenvalues --    2.32936   2.42631   2.42901   2.47043   2.47637
 Alpha virt. eigenvalues --    2.49303   2.49868   2.50044   2.51590   2.54159
 Alpha virt. eigenvalues --    2.58830   2.59359   2.59948   2.66661   2.67712
 Alpha virt. eigenvalues --    2.72640   2.77465   2.78544   2.81247   2.81749
 Alpha virt. eigenvalues --    2.83270   2.84016   2.84399   2.87821   2.88162
 Alpha virt. eigenvalues --    2.91547   2.91858   2.93154   2.94755   2.96471
 Alpha virt. eigenvalues --    2.97056   2.97144   2.98904   2.99160   3.00276
 Alpha virt. eigenvalues --    3.00726   3.01267   3.01889   3.03132   3.03888
 Alpha virt. eigenvalues --    3.05828   3.10477   3.13168   3.15202   3.18443
 Alpha virt. eigenvalues --    3.19666   3.21363   3.23162   3.25561   3.25975
 Alpha virt. eigenvalues --    3.27796   3.30288   3.32573   3.37115   3.44726
 Alpha virt. eigenvalues --    3.48739   3.50282   3.51184   3.53090   3.64397
 Alpha virt. eigenvalues --    3.69368   3.70692   3.71310   3.75961   3.76776
 Alpha virt. eigenvalues --    3.83441   3.89030   3.90910   3.99876   4.29232
 Alpha virt. eigenvalues --    4.36701   4.37295   4.38973   4.40732   4.41527
 Alpha virt. eigenvalues --    4.42648   4.50321   4.51243   4.52249   4.94957
 Alpha virt. eigenvalues --    4.95296   5.23987   5.34877   5.85565  23.89216
 Alpha virt. eigenvalues --   23.96174  23.98548  24.17144  24.19723  24.24018
 Alpha virt. eigenvalues --   24.24745  24.30057  24.31583  24.33873  24.34204
 Alpha virt. eigenvalues --   24.43391  24.44292  50.13210
          Condensed to atoms (all electrons):
               1          2          3          4          5          6
     1  C   12.323222  -0.889044   0.351951  -0.703222   0.013096  -3.465924
     2  C   -0.889044  10.240895  -4.992272   0.416014   0.474990   1.070747
     3  C    0.351951  -4.992272  15.283569  -0.232018   0.022064  -6.110702
     4  C   -0.703222   0.416014  -0.232018   5.836176  -0.058835   0.408542
     5  H    0.013096   0.474990   0.022064  -0.058835   0.485654  -0.124602
     6  C   -3.465924   1.070747  -6.110702   0.408542  -0.124602  21.282886
     7  C   -0.757335   0.978937  -1.654725  -0.030015   0.012515   0.827072
     8  H   -0.006300  -0.090843   0.666890  -0.005590  -0.002329  -0.174081
     9  C   -0.291030  -0.762500   1.169328   0.479543   0.001499  -0.961694
    10  H   -0.016664  -0.045867  -0.033505   0.455214  -0.012346   0.032248
    11  C   -1.113867  -0.583879   2.672026  -0.438060   0.040347  -7.447871
    12  O    0.366369  -0.108747   0.033127  -0.020210  -0.000232   0.209628
    13  H    0.015699   0.033895  -0.154847   0.004856   0.001564   0.040031
    14  H    0.033409  -0.008082   0.038474  -0.071598   0.000131  -0.025209
    15  C    0.829293  -0.693894   0.695571   0.107786  -0.072762  -1.324948
    16  C   -1.035483   0.619700  -0.680435   0.005287   0.022126   0.950650
    17  C   -0.255213   0.160855  -0.531044   0.124034  -0.010191   1.559314
    18  H    0.037871  -0.041101   0.032978  -0.022105  -0.003679   0.006695
    19  C   -0.265024   0.246185  -0.276831  -0.001818   0.000353  -0.026813
    20  H    0.000489   0.009693  -0.041787   0.002767  -0.000985   0.059084
    21  C    0.018558  -0.095548   0.108298   0.012263  -0.002490   0.055810
    22  H   -0.012373   0.012085  -0.009980   0.001234   0.000391   0.002407
    23  H   -0.002615   0.003175  -0.000207  -0.000392   0.000245  -0.006519
    24  H    0.002349  -0.003929   0.004018  -0.000060  -0.000172  -0.009042
               7          8          9         10         11         12
     1  C   -0.757335  -0.006300  -0.291030  -0.016664  -1.113867   0.366369
     2  C    0.978937  -0.090843  -0.762500  -0.045867  -0.583879  -0.108747
     3  C   -1.654725   0.666890   1.169328  -0.033505   2.672026   0.033127
     4  C   -0.030015  -0.005590   0.479543   0.455214  -0.438060  -0.020210
     5  H    0.012515  -0.002329   0.001499  -0.012346   0.040347  -0.000232
     6  C    0.827072  -0.174081  -0.961694   0.032248  -7.447871   0.209628
     7  C    6.675968  -0.172254  -0.093425   0.024072  -0.010297  -0.030037
     8  H   -0.172254   0.510916   0.037360   0.000277   0.087819  -0.000324
     9  C   -0.093425   0.037360   6.133806  -0.084885   0.274634   0.009917
    10  H    0.024072   0.000277  -0.084885   0.491129   0.004717  -0.000092
    11  C   -0.010297   0.087819   0.274634   0.004717  16.003463  -0.074675
    12  O   -0.030037  -0.000324   0.009917  -0.000092  -0.074675   7.852841
    13  H    0.494480  -0.017812  -0.088920   0.000299   0.000982  -0.000097
    14  H   -0.094801   0.001721   0.476197  -0.013130  -0.000045   0.000210
    15  C   -0.291839   0.048997   0.066531  -0.003749  -0.054522  -0.063341
    16  C    0.292918  -0.068791  -0.063119   0.001857  -1.002243   0.045282
    17  C    0.036465  -0.021649  -0.052119   0.001386  -2.356659  -0.048604
    18  H    0.000754  -0.000720   0.012305  -0.002282  -0.092552  -0.004670
    19  C    0.049286  -0.014636  -0.011519   0.000628  -0.709380   0.007603
    20  H   -0.008178  -0.000809  -0.000544  -0.000087   0.010875  -0.018478
    21  C   -0.007753   0.005184  -0.000997   0.000421  -0.222357   0.007931
    22  H    0.000269  -0.000232  -0.000387   0.000103   0.051332   0.000297
    23  H    0.001074  -0.000466   0.000010   0.000009  -0.017827   0.001884
    24  H   -0.000363   0.000272   0.000169  -0.000003   0.020826   0.000124
              13         14         15         16         17         18
     1  C    0.015699   0.033409   0.829293  -1.035483  -0.255213   0.037871
     2  C    0.033895  -0.008082  -0.693894   0.619700   0.160855  -0.041101
     3  C   -0.154847   0.038474   0.695571  -0.680435  -0.531044   0.032978
     4  C    0.004856  -0.071598   0.107786   0.005287   0.124034  -0.022105
     5  H    0.001564   0.000131  -0.072762   0.022126  -0.010191  -0.003679
     6  C    0.040031  -0.025209  -1.324948   0.950650   1.559314   0.006695
     7  C    0.494480  -0.094801  -0.291839   0.292918   0.036465   0.000754
     8  H   -0.017812   0.001721   0.048997  -0.068791  -0.021649  -0.000720
     9  C   -0.088920   0.476197   0.066531  -0.063119  -0.052119   0.012305
    10  H    0.000299  -0.013130  -0.003749   0.001857   0.001386  -0.002282
    11  C    0.000982  -0.000045  -0.054522  -1.002243  -2.356659  -0.092552
    12  O   -0.000097   0.000210  -0.063341   0.045282  -0.048604  -0.004670
    13  H    0.490309  -0.013060  -0.018094   0.011700   0.001473  -0.000942
    14  H   -0.013060   0.494728   0.002874  -0.002737  -0.001270   0.000104
    15  C   -0.018094   0.002874  13.567292  -4.706076  -1.664259   0.607974
    16  C    0.011700  -0.002737  -4.706076  10.357124   0.735279  -0.090295
    17  C    0.001473  -0.001270  -1.664259   0.735279   7.850446  -0.059190
    18  H   -0.000942   0.000104   0.607974  -0.090295  -0.059190   0.492954
    19  C    0.001688  -0.000420  -0.224439   0.773590  -0.164833   0.007972
    20  H   -0.000191   0.000052   0.069452   0.349837   0.036511   0.001110
    21  C   -0.000255  -0.000096   0.058968  -0.558555   0.540273   0.005650
    22  H    0.000051   0.000016  -0.137558   0.047636   0.435272  -0.015889
    23  H    0.000042  -0.000003  -0.028853  -0.036078   0.009271  -0.001619
    24  H   -0.000020   0.000001  -0.006205  -0.031873  -0.066415   0.001180
              19         20         21         22         23         24
     1  C   -0.265024   0.000489   0.018558  -0.012373  -0.002615   0.002349
     2  C    0.246185   0.009693  -0.095548   0.012085   0.003175  -0.003929
     3  C   -0.276831  -0.041787   0.108298  -0.009980  -0.000207   0.004018
     4  C   -0.001818   0.002767   0.012263   0.001234  -0.000392  -0.000060
     5  H    0.000353  -0.000985  -0.002490   0.000391   0.000245  -0.000172
     6  C   -0.026813   0.059084   0.055810   0.002407  -0.006519  -0.009042
     7  C    0.049286  -0.008178  -0.007753   0.000269   0.001074  -0.000363
     8  H   -0.014636  -0.000809   0.005184  -0.000232  -0.000466   0.000272
     9  C   -0.011519  -0.000544  -0.000997  -0.000387   0.000010   0.000169
    10  H    0.000628  -0.000087   0.000421   0.000103   0.000009  -0.000003
    11  C   -0.709380   0.010875  -0.222357   0.051332  -0.017827   0.020826
    12  O    0.007603  -0.018478   0.007931   0.000297   0.001884   0.000124
    13  H    0.001688  -0.000191  -0.000255   0.000051   0.000042  -0.000020
    14  H   -0.000420   0.000052  -0.000096   0.000016  -0.000003   0.000001
    15  C   -0.224439   0.069452   0.058968  -0.137558  -0.028853  -0.006205
    16  C    0.773590   0.349837  -0.558555   0.047636  -0.036078  -0.031873
    17  C   -0.164833   0.036511   0.540273   0.435272   0.009271  -0.066415
    18  H    0.007972   0.001110   0.005650  -0.015889  -0.001619   0.001180
    19  C    6.462878  -0.146250   0.302998   0.008585   0.495713  -0.081724
    20  H   -0.146250   0.466509  -0.002862  -0.000170  -0.015222   0.001887
    21  C    0.302998  -0.002862   5.664599  -0.069855  -0.070290   0.522990
    22  H    0.008585  -0.000170  -0.069855   0.486847   0.001848  -0.015579
    23  H    0.495713  -0.015222  -0.070290   0.001848   0.486105  -0.017747
    24  H   -0.081724   0.001887   0.522990  -0.015579  -0.017747   0.501352
 Mulliken charges:
               1
     1  C    0.821788
     2  C    0.048534
     3  C   -0.359940
     4  C   -0.269793
     5  H    0.213651
     6  C   -0.827709
     7  C   -0.242788
     8  H    0.217400
     9  C   -0.250161
    10  H    0.200248
    11  C    0.957214
    12  O   -0.165703
    13  H    0.197168
    14  H    0.182532
    15  C   -0.764199
    16  C    0.062698
    17  C   -0.259134
    18  H    0.127496
    19  C   -0.433792
    20  H    0.227296
    21  C   -0.272884
    22  H    0.213648
    23  H    0.198463
    24  H    0.177966
 Sum of Mulliken charges =  -0.00000
 Mulliken charges with hydrogens summed into heavy atoms:
               1
     1  C    0.821788
     2  C    0.262185
     3  C   -0.142540
     4  C   -0.069545
     6  C   -0.827709
     7  C   -0.045620
     9  C   -0.067629
    11  C    0.957214
    12  O   -0.165703
    15  C   -0.636702
    16  C    0.289994
    17  C   -0.045485
    19  C   -0.235329
    21  C   -0.094919
 Electronic spatial extent (au):  <R**2>=           3004.1758
 Charge=              0.0000 electrons
 Dipole moment (field-independent basis, Debye):
    X=              0.2946    Y=             -3.1227    Z=              1.2653  Tot=              3.3822
 Quadrupole moment (field-independent basis, Debye-Ang):
   XX=            -66.7671   YY=            -83.6149   ZZ=            -79.2081
   XY=              2.3513   XZ=              0.5691   YZ=              6.7539
 Traceless Quadrupole moment (field-independent basis, Debye-Ang):
   XX=              9.7629   YY=             -7.0849   ZZ=             -2.6780
   XY=              2.3513   XZ=              0.5691   YZ=              6.7539
 Octapole moment (field-independent basis, Debye-Ang**2):
  XXX=             18.1765  YYY=            -19.6616  ZZZ=             -1.9405  XYY=             12.4215
  XXY=            -16.7723  XXZ=             16.8264  XZZ=            -17.2612  YZZ=              1.2245
  YYZ=              7.0802  XYZ=             -3.7486
 Hexadecapole moment (field-independent basis, Debye-Ang**3):
 XXXX=          -2810.7814 YYYY=           -669.1199 ZZZZ=           -332.8522 XXXY=             63.3363
 XXXZ=             12.2611 YYYX=             -8.2225 YYYZ=             26.2463 ZZZX=            -13.2769
 ZZZY=             10.3418 XXYY=           -583.6637 XXZZ=           -570.0928 YYZZ=           -174.1186
 XXYZ=             15.6711 YYXZ=              9.4304 ZZXY=              8.4795
 N-N= 7.826824816305D+02 E-N=-2.907508536340D+03  KE= 5.764033505253D+02
 No NMR shielding tensors so no spin-rotation constants.
 Leave Link  601 at Tue Nov 22 14:58:56 2022, MaxMem= 16106127360 cpu:              17.8 elap:               0.6
 (Enter /opt/ap/G16/B01/g16/l9999.exe)
 1\1\GINC-N17\SP\RwB97XD\6-311++G(d,p)\C13H10O1\ROOT\22-Nov-2022\0\\#P 
 wB97XD/6-311++G(d,p) scf=maxcycle=512\\_conf001.gjf nmol_natom 1_24\\0
 ,1\C\C,1,1.39746343\C,1,1.39996263,2,119.28066518\C,2,1.39288453,1,120
 .37436646,3,-0.51002981,0\H,2,0.95014703,1,119.82324024,3,179.45634896
 ,0\C,1,1.49653039,2,122.77761373,4,174.46828757,0\C,3,1.3870125,1,120.
 10017821,2,-0.37315804,0\H,3,0.9501092,1,119.95246451,2,179.5923884,0\
 C,7,1.38720039,3,120.16568731,1,1.0745106,0\H,4,0.95011919,2,120.18755
 644,1,-179.31195299,0\C,6,1.49516902,1,120.70972921,2,-85.,0\O,6,1.221
 50059,1,119.67074267,2,95.,0\H,7,0.94956661,3,119.91274826,1,-178.8863
 6029,0\H,9,0.94992259,7,119.76037934,3,179.10763853,0\C,11,1.39713972,
 6,122.62585705,1,30.97749054,0\C,11,1.40039562,6,117.74753532,1,-153.1
 5467779,0\C,15,1.39455701,11,119.80747484,6,175.4763048,0\H,15,0.94962
 854,11,120.10535689,6,-4.50802339,0\C,16,1.38466431,11,120.4617377,6,-
 176.88197195,0\H,16,0.9497464,11,119.75779177,6,3.14699974,0\C,17,1.39
 088945,15,120.3475273,11,0.7973643,0\H,17,0.94984298,15,119.8156451,11
 ,-179.16676483,0\H,19,0.94974749,16,119.98566335,11,-178.40987425,0\H,
 21,0.94938585,17,120.0744529,15,179.91636093,0\\Version=ES64L-G16RevB.
 01\State=1-A\HF=-576.4122169\RMSD=7.401e-09\Dipole=0.4569734,-1.209042
 3,0.3162937\Quadrupole=1.8793487,-5.8119565,3.9326078,5.858442,2.49352
 29,1.9285918\PG=C01 [X(C13H10O1)]\\@


 NATURE WILL TELL YOU A DIRECT LIE IF SHE CAN.

                                -- CHARLES DARWIN
 Job cpu time:       0 days  0 hours 21 minutes 32.2 seconds.
 Elapsed time:       0 days  0 hours  0 minutes 40.7 seconds.
 File lengths (MBytes):  RWF=     78 Int=      0 D2E=      0 Chk=      9 Scr=      1
 Normal termination of Gaussian 16 at Tue Nov 22 14:58:56 2022.
