 Entering Gaussian System, Link 0=g16
 Input=_conf015.gjf
 Output=_conf015.log
 Initial command:
 /opt/ap/G16/B01/g16/l1.exe "/tmp2/scr/Gau-16081.inp" -scrdir="/tmp2/scr/"
 Entering Link 1 = /opt/ap/G16/B01/g16/l1.exe PID=     16082.
  
 Copyright (c) 1988-2017, Gaussian, Inc.  All Rights Reserved.
  
 This is part of the Gaussian(R) 16 program.  It is based on
 the Gaussian(R) 09 system (copyright 2009, Gaussian, Inc.),
 the Gaussian(R) 03 system (copyright 2003, Gaussian, Inc.),
 the Gaussian(R) 98 system (copyright 1998, Gaussian, Inc.),
 the Gaussian(R) 94 system (copyright 1995, Gaussian, Inc.),
 the Gaussian 92(TM) system (copyright 1992, Gaussian, Inc.),
 the Gaussian 90(TM) system (copyright 1990, Gaussian, Inc.),
 the Gaussian 88(TM) system (copyright 1988, Gaussian, Inc.),
 the Gaussian 86(TM) system (copyright 1986, Carnegie Mellon
 University), and the Gaussian 82(TM) system (copyright 1983,
 Carnegie Mellon University). Gaussian is a federally registered
 trademark of Gaussian, Inc.
  
 This software contains proprietary and confidential information,
 including trade secrets, belonging to Gaussian, Inc.
  
 This software is provided under written license and may be
 used, copied, transmitted, or stored only in accord with that
 written license.
  
 The following legend is applicable only to US Government
 contracts under FAR:
  
                    RESTRICTED RIGHTS LEGEND
  
 Use, reproduction and disclosure by the US Government is
 subject to restrictions as set forth in subparagraphs (a)
 and (c) of the Commercial Computer Software - Restricted
 Rights clause in FAR 52.227-19.
  
 Gaussian, Inc.
 340 Quinnipiac St., Bldg. 40, Wallingford CT 06492
  
  
 ---------------------------------------------------------------
 Warning -- This program may not be used in any manner that
 competes with the business of Gaussian, Inc. or will provide
 assistance to any competitor of Gaussian, Inc.  The licensee
 of this program is prohibited from giving any competitor of
 Gaussian, Inc. access to this program.  By using this program,
 the user acknowledges that Gaussian, Inc. is engaged in the
 business of creating and licensing software in the field of
 computational chemistry and represents and warrants to the
 licensee that it is not a competitor of Gaussian, Inc. and that
 it will not use this program in any manner prohibited above.
 ---------------------------------------------------------------
  

 Cite this work as:
 Gaussian 16, Revision B.01,
 M. J. Frisch, G. W. Trucks, H. B. Schlegel, G. E. Scuseria, 
 M. A. Robb, J. R. Cheeseman, G. Scalmani, V. Barone, 
 G. A. Petersson, H. Nakatsuji, X. Li, M. Caricato, A. V. Marenich, 
 J. Bloino, B. G. Janesko, R. Gomperts, B. Mennucci, H. P. Hratchian, 
 J. V. Ortiz, A. F. Izmaylov, J. L. Sonnenberg, D. Williams-Young, 
 F. Ding, F. Lipparini, F. Egidi, J. Goings, B. Peng, A. Petrone, 
 T. Henderson, D. Ranasinghe, V. G. Zakrzewski, J. Gao, N. Rega, 
 G. Zheng, W. Liang, M. Hada, M. Ehara, K. Toyota, R. Fukuda, 
 J. Hasegawa, M. Ishida, T. Nakajima, Y. Honda, O. Kitao, H. Nakai, 
 T. Vreven, K. Throssell, J. A. Montgomery, Jr., J. E. Peralta, 
 F. Ogliaro, M. J. Bearpark, J. J. Heyd, E. N. Brothers, K. N. Kudin, 
 V. N. Staroverov, T. A. Keith, R. Kobayashi, J. Normand, 
 K. Raghavachari, A. P. Rendell, J. C. Burant, S. S. Iyengar, 
 J. Tomasi, M. Cossi, J. M. Millam, M. Klene, C. Adamo, R. Cammi, 
 J. W. Ochterski, R. L. Martin, K. Morokuma, O. Farkas, 
 J. B. Foresman, and D. J. Fox, Gaussian, Inc., Wallingford CT, 2016.
 
 ******************************************
 Gaussian 16:  ES64L-G16RevB.01 20-Dec-2017
                22-Nov-2022 
 ******************************************
 %nprocshared=32
 Will use up to   32 processors via shared memory.
 %mem=120GB
 %chk=_conf015.chk
 ----------------------------------------
 #P wB97XD/6-311++G(d,p) scf=maxcycle=512
 ----------------------------------------
 1/38=1,172=1/1;
 2/12=2,17=6,18=5,40=1/2;
 3/5=4,6=6,7=1111,11=2,25=1,30=1,74=-58/1,2,3;
 4//1;
 5/5=2,7=512,38=5/2;
 6/7=2,8=2,9=2,10=2,28=1/1;
 99/5=1,9=1/99;
 Leave Link    1 at Tue Nov 22 15:00:15 2022, MaxMem= 16106127360 cpu:               1.5 elap:               0.1
 (Enter /opt/ap/G16/B01/g16/l101.exe)
 ----------------------------
 _conf015.gjf nmol_natom 1_24
 ----------------------------
 Symbolic Z-matrix:
 Charge =  0 Multiplicity = 1
 C
 C                    1     1.39746 
 C                    1     1.39996  2     119.28067 
 C                    2     1.39288  1     120.37437  3    -0.51003  0
 H                    2     0.95015  1     119.82324  3     179.45635  0
 C                    1     1.49653  2     122.77761  4     174.46829  0
 C                    3     1.38701  1     120.10018  2    -0.37316  0
 H                    3     0.95011  1     119.95246  2     179.59239  0
 C                    7     1.3872   3     120.16569  1     1.07451  0
 H                    4     0.95012  2     120.18756  1    -179.31195  0
 C                    6     1.49517  1     120.70973  2    -15.      0
 O                    6     1.2215   1     119.67074  2     165.     0
 H                    7     0.94957  3     119.91275  1    -178.88636  0
 H                    9     0.94992  7     119.76038  3     179.10764  0
 C                    11    1.39714  6     122.62586  1     30.97749  0
 C                    11    1.4004   6     117.74754  1    -153.15468  0
 C                    15    1.39456  11    119.80747  6     175.4763  0
 H                    15    0.94963  11    120.10536  6    -4.50802  0
 C                    16    1.38466  11    120.46174  6    -176.88197  0
 H                    16    0.94975  11    119.75779  6     3.147    0
 C                    17    1.39089  15    120.34753  11    0.79736  0
 H                    17    0.94984  15    119.81565  11   -179.16676  0
 H                    19    0.94975  16    119.98566  11   -178.40987  0
 H                    21    0.94939  17    120.07445  15    179.91636  0
 
 ITRead=  0  0  0  0  0  0  0  0  0  0  0  0  0  0  0  0  0  0  0  0
 ITRead=  0  0  0  0
 MicOpt= -1 -1 -1 -1 -1 -1 -1 -1 -1 -1 -1 -1 -1 -1 -1 -1 -1 -1 -1 -1
 MicOpt= -1 -1 -1 -1
 NAtoms=     24 NQM=       24 NQMF=       0 NMMI=      0 NMMIF=      0
                NMic=       0 NMicF=      0.
                    Isotopes and Nuclear Properties:
 (Nuclear quadrupole moments (NQMom) in fm**2, nuclear magnetic moments (NMagM)
  in nuclear magnetons)

  Atom         1           2           3           4           5           6           7           8           9          10
 IAtWgt=          12          12          12          12           1          12          12           1          12           1
 AtmWgt=  12.0000000  12.0000000  12.0000000  12.0000000   1.0078250  12.0000000  12.0000000   1.0078250  12.0000000   1.0078250
 NucSpn=           0           0           0           0           1           0           0           1           0           1
 AtZEff=  -0.0000000  -0.0000000  -0.0000000  -0.0000000  -0.0000000  -0.0000000  -0.0000000  -0.0000000  -0.0000000  -0.0000000
 NQMom=    0.0000000   0.0000000   0.0000000   0.0000000   0.0000000   0.0000000   0.0000000   0.0000000   0.0000000   0.0000000
 NMagM=    0.0000000   0.0000000   0.0000000   0.0000000   2.7928460   0.0000000   0.0000000   2.7928460   0.0000000   2.7928460
 AtZNuc=   6.0000000   6.0000000   6.0000000   6.0000000   1.0000000   6.0000000   6.0000000   1.0000000   6.0000000   1.0000000

  Atom        11          12          13          14          15          16          17          18          19          20
 IAtWgt=          12          16           1           1          12          12          12           1          12           1
 AtmWgt=  12.0000000  15.9949146   1.0078250   1.0078250  12.0000000  12.0000000  12.0000000   1.0078250  12.0000000   1.0078250
 NucSpn=           0           0           1           1           0           0           0           1           0           1
 AtZEff=  -0.0000000  -0.0000000  -0.0000000  -0.0000000  -0.0000000  -0.0000000  -0.0000000  -0.0000000  -0.0000000  -0.0000000
 NQMom=    0.0000000   0.0000000   0.0000000   0.0000000   0.0000000   0.0000000   0.0000000   0.0000000   0.0000000   0.0000000
 NMagM=    0.0000000   0.0000000   2.7928460   2.7928460   0.0000000   0.0000000   0.0000000   2.7928460   0.0000000   2.7928460
 AtZNuc=   6.0000000   8.0000000   1.0000000   1.0000000   6.0000000   6.0000000   6.0000000   1.0000000   6.0000000   1.0000000

  Atom        21          22          23          24
 IAtWgt=          12           1           1           1
 AtmWgt=  12.0000000   1.0078250   1.0078250   1.0078250
 NucSpn=           0           1           1           1
 AtZEff=  -0.0000000  -0.0000000  -0.0000000  -0.0000000
 NQMom=    0.0000000   0.0000000   0.0000000   0.0000000
 NMagM=    0.0000000   2.7928460   2.7928460   2.7928460
 AtZNuc=   6.0000000   1.0000000   1.0000000   1.0000000
 Leave Link  101 at Tue Nov 22 15:00:16 2022, MaxMem= 16106127360 cpu:               5.3 elap:               0.2
 (Enter /opt/ap/G16/B01/g16/l202.exe)
                          Input orientation:                          
 ---------------------------------------------------------------------
 Center     Atomic      Atomic             Coordinates (Angstroms)
 Number     Number       Type             X           Y           Z
 ---------------------------------------------------------------------
      1          6           0        0.000000    0.000000    0.000000
      2          6           0        0.000000    0.000000    1.397463
      3          6           0        1.221096    0.000000   -0.684705
      4          6           0        1.201650   -0.010697    2.101772
      5          1           0       -0.824276    0.007821    1.869996
      6          6           0       -1.253421   -0.110138   -0.810191
      7          6           0        2.414707    0.007815    0.021719
      8          1           0        1.232246   -0.005856   -1.634731
      9          6           0        2.403895   -0.006831    1.408800
     10          1           0        1.198494   -0.020531    3.051836
     11          6           0       -2.533470   -0.556609   -0.179582
     12          8           0       -1.231019    0.167584   -1.999490
     13          1           0        3.241298    0.023792   -0.445367
     14          1           0        3.224827   -0.014217    1.886678
     15          6           0       -2.844346   -0.298793    1.157910
     16          6           0       -3.481112   -1.181485   -0.999712
     17          6           0       -4.094198   -0.658827    1.660936
     18          1           0       -2.206590    0.120585    1.722874
     19          6           0       -4.711384   -1.559357   -0.488889
     20          1           0       -3.278212   -1.347545   -1.912550
     21          6           0       -5.026426   -1.287974    0.842584
     22          1           0       -4.310025   -0.472896    2.567054
     23          1           0       -5.340383   -2.002984   -1.045284
     24          1           0       -5.875711   -1.532456    1.189392
 ---------------------------------------------------------------------
                    Distance matrix (angstroms):
                    1          2          3          4          5
     1  C    0.000000
     2  C    1.397463   0.000000
     3  C    1.399963   2.413814   0.000000
     4  C    2.421058   1.392885   2.786566   0.000000
     5  H    2.043619   0.950147   3.272630   2.039225   0.000000
     6  C    1.496530   2.541049   2.480142   3.810091   2.716889
     7  C    2.414817   2.779127   1.387013   2.408002   3.729228
     8  H    2.047146   3.273021   0.950109   3.736632   4.063567
     9  C    2.786301   2.403931   2.404542   1.387667   3.260982
    10  H    3.278797   2.042977   3.736665   0.950119   2.342893
    11  C    2.600103   3.035681   3.829063   4.410637   2.727764
    12  O    2.354029   3.617014   2.787402   4.771794   3.894084
    13  H    3.271839   3.728619   2.034469   3.263323   4.678681
    14  H    3.736210   3.261755   3.259932   2.034583   4.049198
    15  C    3.085505   2.870012   4.473514   4.164608   2.163738
    16  C    3.809655   4.388678   4.858590   5.737439   4.087597
    17  C    4.467127   4.155229   5.847088   5.353542   3.343728
    18  H    2.802120   2.233713   4.190466   3.431749   1.394688
    19  C    4.986757   5.309149   6.137121   6.638813   4.809366
    20  H    4.027455   4.849612   4.854611   6.162070   4.708128
    21  C    5.256784   5.218402   6.559193   6.481197   4.515830
    22  H    5.038821   4.490867   6.433573   5.550556   3.587119
    23  H    5.798643   6.204728   6.869859   7.528039   5.739113
    24  H    6.187654   6.075829   7.498355   7.296384   5.324723
                    6          7          8          9         10
     6  C    0.000000
     7  C    3.763130   0.000000
     8  H    2.620930   2.035246   0.000000
     9  C    4.279082   1.387200   3.261263   0.000000
    10  H    4.575496   3.265208   4.686711   2.037829   0.000000
    11  C    1.495169   4.984331   4.074482   5.215629   4.965581
    12  O    1.221501   4.171586   2.496158   4.985926   5.608370
    13  H    4.511488   0.949567   2.334899   2.034727   4.050363
    14  H    5.228480   2.033434   4.046081   0.949923   2.337447
    15  C    2.537727   5.389117   4.950077   5.262340   4.473135
    16  C    2.479176   6.100691   4.899091   6.466378   6.297743
    17  C    3.804937   6.745168   6.297523   6.535586   5.509502
    18  H    2.716281   4.925752   4.807815   4.622926   3.657957
    19  C    3.763108   7.314227   6.249244   7.525872   7.059134
    20  H    2.616515   6.163418   4.713973   6.716786   6.815202
    21  C    4.284219   7.597588   6.852144   7.561190   6.725833
    22  H    4.569487   7.206375   6.970645   6.829018   5.548281
    23  H    4.510144   8.082279   6.894593   8.365464   7.967021
    24  H    5.233249   8.512751   7.799309   8.421849   7.469872
                   11         12         13         14         15
    11  C    0.000000
    12  O    2.352211   0.000000
    13  H    5.809944   4.736834   0.000000
    14  H    6.141792   5.915228   2.332413   0.000000
    15  C    1.397140   3.576242   6.301557   6.119392   0.000000
    16  C    1.400396   2.807573   6.852064   7.393469   2.416598
    17  C    2.415332   4.720113   7.662375   7.350824   1.394557
    18  H    2.045674   3.848369   5.864309   5.435559   0.949629
    19  C    2.417537   4.168594   8.108847   8.426994   2.790484
    20  H    2.045335   2.548367   6.821818   7.648622   3.273506
    21  C    2.791872   4.959954   8.469640   8.414022   2.416481
    22  H    3.272181   5.544711   8.145174   7.579399   2.040640
    23  H    3.274172   4.744339   8.838154   9.269004   3.740125
    24  H    3.741249   5.884919   9.392241   9.252624   3.272933
                   16         17         18         19         20
    16  C    0.000000
    17  C    2.779944   0.000000
    18  H    3.276013   2.043131   0.000000
    19  C    1.384664   2.411145   3.740066   0.000000
    20  H    0.949746   3.729607   4.064490   2.031171   0.000000
    21  C    2.406945   1.390889   3.272678   1.394891   3.263520
    22  H    3.729747   0.949843   2.342925   3.268069   4.679370
    23  H    2.033181   3.268541   4.689659   0.949747   2.331159
    24  H    3.263351   2.039453   4.059507   2.042795   4.050092
                   21         22         23         24
    21  C    0.000000
    22  H    2.037493   0.000000
    23  H    2.043001   4.056081   0.000000
    24  H    0.949386   2.339229   2.345581   0.000000
 Stoichiometry    C13H10O
 Framework group  C1[X(C13H10O)]
 Deg. of freedom    66
 Full point group                 C1      NOp   1
 Largest Abelian subgroup         C1      NOp   1
 Largest concise Abelian subgroup C1      NOp   1
                         Standard orientation:                         
 ---------------------------------------------------------------------
 Center     Atomic      Atomic             Coordinates (Angstroms)
 Number     Number       Type             X           Y           Z
 ---------------------------------------------------------------------
      1          6           0       -1.311670    0.340031   -0.151354
      2          6           0       -1.408361   -1.054081   -0.154196
      3          6           0       -2.461656    1.105681    0.074935
      4          6           0       -2.633423   -1.675586    0.076200
      5          1           0       -0.634237   -1.581113   -0.314657
      6          6           0       -0.006333    1.061882   -0.272302
      7          6           0       -3.682381    0.481795    0.285651
      8          1           0       -2.405782    2.054095    0.084677
      9          6           0       -3.765063   -0.902906    0.295234
     10          1           0       -2.694259   -2.623729    0.083353
     11          6           0        1.287176    0.339632   -0.070507
     12          8           0        0.003001    2.253937   -0.538728
     13          1           0       -4.463521    1.003901    0.423136
     14          1           0       -4.601748   -1.324225    0.452718
     15          6           0        1.452133   -1.011879   -0.383888
     16          6           0        2.387869    1.084492    0.370814
     17          6           0        2.708989   -1.603536   -0.261229
     18          1           0        0.710687   -1.526173   -0.679780
     19          6           0        3.628261    0.486119    0.514596
     20          1           0        2.282561    2.006417    0.573259
     21          6           0        3.795229   -0.859468    0.187124
     22          1           0        2.823790   -2.519337   -0.485572
     23          1           0        4.364981    0.992100    0.835918
     24          1           0        4.648897   -1.266488    0.270300
 ---------------------------------------------------------------------
 Rotational constants (GHZ):           1.7366196           0.4233209           0.3489992
 Leave Link  202 at Tue Nov 22 15:00:16 2022, MaxMem= 16106127360 cpu:               0.3 elap:               0.0
 (Enter /opt/ap/G16/B01/g16/l301.exe)
 Standard basis: 6-311++G(d,p) (5D, 7F)
 Ernie: Thresh=  0.10000D-02 Tol=  0.10000D-05 Strict=F.
 There are   392 symmetry adapted cartesian basis functions of A   symmetry.
 There are   378 symmetry adapted basis functions of A   symmetry.
   378 basis functions,   594 primitive gaussians,   392 cartesian basis functions
    48 alpha electrons       48 beta electrons
       nuclear repulsion energy       785.5327930501 Hartrees.
 IExCor= 4639 DFT=T Ex+Corr=wB97XD ExCW=0 ScaHFX=  1.000000
 ScaDFX=  1.000000  1.000000  1.000000  1.000000 ScalE2=  1.000000  1.000000
 IRadAn=      5 IRanWt=     -1 IRanGd=            0 ICorTp=0 IEmpDi=121
 HFx  wShort=  0.000000 wLong=  0.200000 cFull=  0.222036 cShort=  0.000000 cLong=  0.777964
 DFx  wShort=  0.000000 wLong=  0.200000 cFull=  0.000000 cShort=  0.000000 cLong=  1.000000
 NAtoms=   24 NActive=   24 NUniq=   24 SFac= 1.00D+00 NAtFMM=   60 NAOKFM=F Big=F
 Integral buffers will be    131072 words long.
 Raffenetti 2 integral format.
 Two-electron integral symmetry is turned on.
 R6Disp:  Grimme-D2 Dispersion energy=       -0.0137828783 Hartrees.
 Nuclear repulsion after empirical dispersion term =      785.5190101718 Hartrees.
 Leave Link  301 at Tue Nov 22 15:00:16 2022, MaxMem= 16106127360 cpu:               1.2 elap:               0.0
 (Enter /opt/ap/G16/B01/g16/l302.exe)
 NPDir=0 NMtPBC=     1 NCelOv=     1 NCel=       1 NClECP=     1 NCelD=      1
         NCelK=      1 NCelE2=     1 NClLst=     1 CellRange=     0.0.
 One-electron integrals computed using PRISM.
 One-electron integral symmetry used in STVInt
 NBasis=   378 RedAO= T EigKep=  1.03D-06  NBF=   378
 NBsUse=   376 1.00D-06 EigRej=  7.11D-07 NBFU=   376
 Precomputing XC quadrature grid using
 IXCGrd= 4 IRadAn=           5 IRanWt=          -1 IRanGd=           0 AccXCQ= 0.00D+00.
 Generated NRdTot=       0 NPtTot=           0 NUsed=           0 NTot=          32
 NSgBfM=   392   392   392   392   392 MxSgAt=    24 MxSgA2=    24.
 Leave Link  302 at Tue Nov 22 15:00:16 2022, MaxMem= 16106127360 cpu:               8.3 elap:               0.3
 (Enter /opt/ap/G16/B01/g16/l303.exe)
 DipDrv:  MaxL=1.
 Leave Link  303 at Tue Nov 22 15:00:16 2022, MaxMem= 16106127360 cpu:               1.7 elap:               0.1
 (Enter /opt/ap/G16/B01/g16/l401.exe)
 ExpMin= 3.60D-02 ExpMax= 8.59D+03 ExpMxC= 1.30D+03 IAcc=3 IRadAn=         5 AccDes= 0.00D+00
 Harris functional with IExCor= 4639 and IRadAn=       5 diagonalized for initial guess.
 HarFok:  IExCor= 4639 AccDes= 0.00D+00 IRadAn=         5 IDoV= 1 UseB2=F ITyADJ=14
 ICtDFT=  3500011 ScaDFX=  1.000000  1.000000  1.000000  1.000000
 FoFCou: FMM=F IPFlag=           0 FMFlag=      100000 FMFlg1=           0
         NFxFlg=           0 DoJE=T BraDBF=F KetDBF=T FulRan=T
         wScrn=  0.000000 ICntrl=       500 IOpCl=  0 I1Cent=   200000004 NGrid=           0
         NMat0=    1 NMatS0=      1 NMatT0=    0 NMatD0=    1 NMtDS0=    0 NMtDT0=    0
 Petite list used in FoFCou.
 Harris En= -550.884599990154    
 JPrj=0 DoOrth=F DoCkMO=F.
 Leave Link  401 at Tue Nov 22 15:00:17 2022, MaxMem= 16106127360 cpu:              22.8 elap:               0.7
 (Enter /opt/ap/G16/B01/g16/l502.exe)
 Integral symmetry usage will be decided dynamically.
 Closed shell SCF:
 Using DIIS extrapolation, IDIIS=  1040.
 NGot= 16106127360 LenX= 16105803762 LenY= 16105649657
 Requested convergence on RMS density matrix=1.00D-08 within 512 cycles.
 Requested convergence on MAX density matrix=1.00D-06.
 Requested convergence on             energy=1.00D-06.
 No special actions if energy rises.
 Fock matrices will be formed incrementally for  20 cycles.

 Cycle   1  Pass 1  IDiag  1:
 FoFJK:  IHMeth= 1 ICntrl=       0 DoSepK=T KAlg= 0 I1Cent=           0 FoldK=F
 IRaf=         1 NMat=       1 IRICut=       1 DoRegI=T DoRafI=F ISym2E= 0 IDoP0=0 IntGTp=1.
 FoFCou: FMM=F IPFlag=           0 FMFlag=      100000 FMFlg1=           0
         NFxFlg=           0 DoJE=T BraDBF=F KetDBF=F FulRan=T
         wScrn=  0.000000 ICntrl=       500 IOpCl=  0 I1Cent=           0 NGrid=           0
         NMat0=    1 NMatS0=      1 NMatT0=    0 NMatD0=    1 NMtDS0=    0 NMtDT0=    0
 Symmetry not used in FoFCou.
 E= -576.249130461853    
 DIIS: error= 5.47D-02 at cycle   1 NSaved=   1.
 NSaved= 1 IEnMin= 1 EnMin= -576.249130461853     IErMin= 1 ErrMin= 5.47D-02
 ErrMax= 5.47D-02  0.00D+00 EMaxC= 1.00D-01 BMatC= 1.19D+00 BMatP= 1.19D+00
 IDIUse=3 WtCom= 4.53D-01 WtEn= 5.47D-01
 Coeff-Com:  0.100D+01
 Coeff-En:   0.100D+01
 Coeff:      0.100D+01
 Gap=     0.401 Goal=   None    Shift=    0.000
 GapD=    0.401 DampG=2.000 DampE=0.500 DampFc=1.0000 IDamp=-1.
 RMSDP=4.81D-02 MaxDP=6.97D+00              OVMax= 1.32D-01

 Cycle   2  Pass 1  IDiag  1:
 RMSU=  2.10D-02    CP:  6.36D-01
 E= -576.338131373591     Delta-E=       -0.089000911738 Rises=F Damp=F
 DIIS: error= 1.38D-02 at cycle   2 NSaved=   2.
 NSaved= 2 IEnMin= 2 EnMin= -576.338131373591     IErMin= 2 ErrMin= 1.38D-02
 ErrMax= 1.38D-02  0.00D+00 EMaxC= 1.00D-01 BMatC= 7.48D-02 BMatP= 1.19D+00
 IDIUse=3 WtCom= 8.62D-01 WtEn= 1.38D-01
 Coeff-Com:  0.125D+00 0.875D+00
 Coeff-En:   0.142D+00 0.858D+00
 Coeff:      0.128D+00 0.872D+00
 Gap=     0.414 Goal=   None    Shift=    0.000
 RMSDP=1.73D-02 MaxDP=1.22D+00 DE=-8.90D-02 OVMax= 1.64D-01

 Cycle   3  Pass 1  IDiag  1:
 RMSU=  1.15D-02    CP:  6.55D-01  3.92D-01
 E= -576.353768126037     Delta-E=       -0.015636752446 Rises=F Damp=F
 DIIS: error= 1.41D-02 at cycle   3 NSaved=   3.
 NSaved= 3 IEnMin= 3 EnMin= -576.353768126037     IErMin= 2 ErrMin= 1.38D-02
 ErrMax= 1.41D-02  0.00D+00 EMaxC= 1.00D-01 BMatC= 5.58D-02 BMatP= 7.48D-02
 IDIUse=3 WtCom= 8.59D-01 WtEn= 1.41D-01
 Coeff-Com:  0.240D-01 0.467D+00 0.509D+00
 Coeff-En:   0.000D+00 0.435D+00 0.565D+00
 Coeff:      0.206D-01 0.462D+00 0.517D+00
 Gap=     0.344 Goal=   None    Shift=    0.000
 RMSDP=1.11D-02 MaxDP=1.08D+00 DE=-1.56D-02 OVMax= 6.35D-02

 Cycle   4  Pass 1  IDiag  1:
 RMSU=  2.72D-03    CP:  6.00D-01  6.67D-01  4.52D-01
 E= -576.402772999139     Delta-E=       -0.049004873102 Rises=F Damp=F
 DIIS: error= 2.04D-03 at cycle   4 NSaved=   4.
 NSaved= 4 IEnMin= 4 EnMin= -576.402772999139     IErMin= 4 ErrMin= 2.04D-03
 ErrMax= 2.04D-03  0.00D+00 EMaxC= 1.00D-01 BMatC= 9.64D-04 BMatP= 5.58D-02
 IDIUse=3 WtCom= 9.80D-01 WtEn= 2.04D-02
 Coeff-Com:  0.966D-02 0.201D+00 0.244D+00 0.545D+00
 Coeff-En:   0.000D+00 0.000D+00 0.000D+00 0.100D+01
 Coeff:      0.946D-02 0.197D+00 0.239D+00 0.554D+00
 Gap=     0.319 Goal=   None    Shift=    0.000
 RMSDP=7.45D-04 MaxDP=4.78D-02 DE=-4.90D-02 OVMax= 6.70D-03

 Cycle   5  Pass 1  IDiag  1:
 RMSU=  6.04D-04    CP:  6.01D-01  6.87D-01  4.48D-01  9.84D-01
 E= -576.403437686511     Delta-E=       -0.000664687372 Rises=F Damp=F
 DIIS: error= 4.95D-04 at cycle   5 NSaved=   5.
 NSaved= 5 IEnMin= 5 EnMin= -576.403437686511     IErMin= 5 ErrMin= 4.95D-04
 ErrMax= 4.95D-04  0.00D+00 EMaxC= 1.00D-01 BMatC= 8.28D-05 BMatP= 9.64D-04
 IDIUse=3 WtCom= 9.95D-01 WtEn= 4.95D-03
 Coeff-Com: -0.589D-03-0.851D-02-0.168D-03 0.213D+00 0.796D+00
 Coeff-En:   0.000D+00 0.000D+00 0.000D+00 0.000D+00 0.100D+01
 Coeff:     -0.586D-03-0.847D-02-0.167D-03 0.212D+00 0.797D+00
 Gap=     0.320 Goal=   None    Shift=    0.000
 RMSDP=7.02D-04 MaxDP=1.04D-01 DE=-6.65D-04 OVMax= 2.48D-03

 Cycle   6  Pass 1  IDiag  1:
 RMSU=  3.06D-04    CP:  5.97D-01  6.84D-01  4.67D-01  1.02D+00  5.52D-01
 E= -576.403502204279     Delta-E=       -0.000064517768 Rises=F Damp=F
 DIIS: error= 2.70D-04 at cycle   6 NSaved=   6.
 NSaved= 6 IEnMin= 6 EnMin= -576.403502204279     IErMin= 6 ErrMin= 2.70D-04
 ErrMax= 2.70D-04  0.00D+00 EMaxC= 1.00D-01 BMatC= 1.86D-05 BMatP= 8.28D-05
 IDIUse=3 WtCom= 9.97D-01 WtEn= 2.70D-03
 Coeff-Com: -0.122D-02-0.231D-01-0.223D-01 0.620D-01 0.431D+00 0.554D+00
 Coeff-En:   0.000D+00 0.000D+00 0.000D+00 0.000D+00 0.000D+00 0.100D+01
 Coeff:     -0.122D-02-0.231D-01-0.222D-01 0.619D-01 0.429D+00 0.555D+00
 Gap=     0.320 Goal=   None    Shift=    0.000
 RMSDP=1.67D-04 MaxDP=1.81D-02 DE=-6.45D-05 OVMax= 1.28D-03

 Cycle   7  Pass 1  IDiag  1:
 RMSU=  9.55D-05    CP:  5.97D-01  6.88D-01  4.62D-01  1.04D+00  6.21D-01
                    CP:  9.58D-01
 E= -576.403521563201     Delta-E=       -0.000019358922 Rises=F Damp=F
 DIIS: error= 5.50D-05 at cycle   7 NSaved=   7.
 NSaved= 7 IEnMin= 7 EnMin= -576.403521563201     IErMin= 7 ErrMin= 5.50D-05
 ErrMax= 5.50D-05  0.00D+00 EMaxC= 1.00D-01 BMatC= 4.59D-07 BMatP= 1.86D-05
 IDIUse=1 WtCom= 1.00D+00 WtEn= 0.00D+00
 Coeff-Com: -0.219D-03-0.421D-02-0.498D-02-0.109D-01-0.111D-01 0.102D+00
 Coeff-Com:  0.929D+00
 Coeff:     -0.219D-03-0.421D-02-0.498D-02-0.109D-01-0.111D-01 0.102D+00
 Coeff:      0.929D+00
 Gap=     0.320 Goal=   None    Shift=    0.000
 RMSDP=6.27D-05 MaxDP=7.57D-03 DE=-1.94D-05 OVMax= 5.06D-04

 Cycle   8  Pass 1  IDiag  1:
 RMSU=  2.44D-05    CP:  5.97D-01  6.88D-01  4.64D-01  1.05D+00  5.96D-01
                    CP:  1.07D+00  1.04D+00
 E= -576.403522698675     Delta-E=       -0.000001135474 Rises=F Damp=F
 DIIS: error= 1.59D-05 at cycle   8 NSaved=   8.
 NSaved= 8 IEnMin= 8 EnMin= -576.403522698675     IErMin= 8 ErrMin= 1.59D-05
 ErrMax= 1.59D-05  0.00D+00 EMaxC= 1.00D-01 BMatC= 7.87D-08 BMatP= 4.59D-07
 IDIUse=1 WtCom= 1.00D+00 WtEn= 0.00D+00
 Coeff-Com:  0.417D-04 0.571D-03 0.844D-04-0.118D-01-0.535D-01-0.217D-01
 Coeff-Com:  0.322D+00 0.764D+00
 Coeff:      0.417D-04 0.571D-03 0.844D-04-0.118D-01-0.535D-01-0.217D-01
 Coeff:      0.322D+00 0.764D+00
 Gap=     0.320 Goal=   None    Shift=    0.000
 RMSDP=1.48D-05 MaxDP=1.39D-03 DE=-1.14D-06 OVMax= 1.66D-04

 Cycle   9  Pass 1  IDiag  1:
 RMSU=  5.97D-06    CP:  5.97D-01  6.88D-01  4.65D-01  1.05D+00  5.90D-01
                    CP:  1.09D+00  1.07D+00  1.19D+00
 E= -576.403522842162     Delta-E=       -0.000000143487 Rises=F Damp=F
 DIIS: error= 4.21D-06 at cycle   9 NSaved=   9.
 NSaved= 9 IEnMin= 9 EnMin= -576.403522842162     IErMin= 9 ErrMin= 4.21D-06
 ErrMax= 4.21D-06  0.00D+00 EMaxC= 1.00D-01 BMatC= 5.30D-09 BMatP= 7.87D-08
 IDIUse=1 WtCom= 1.00D+00 WtEn= 0.00D+00
 Coeff-Com:  0.372D-04 0.652D-03 0.630D-03-0.869D-03-0.920D-02-0.160D-01
 Coeff-Com: -0.528D-01 0.153D+00 0.925D+00
 Coeff:      0.372D-04 0.652D-03 0.630D-03-0.869D-03-0.920D-02-0.160D-01
 Coeff:     -0.528D-01 0.153D+00 0.925D+00
 Gap=     0.320 Goal=   None    Shift=    0.000
 RMSDP=6.92D-06 MaxDP=4.40D-04 DE=-1.43D-07 OVMax= 6.92D-05

 Cycle  10  Pass 1  IDiag  1:
 RMSU=  2.81D-06    CP:  5.97D-01  6.88D-01  4.65D-01  1.05D+00  5.87D-01
                    CP:  1.09D+00  1.08D+00  1.36D+00  1.31D+00
 E= -576.403522856513     Delta-E=       -0.000000014351 Rises=F Damp=F
 DIIS: error= 1.16D-06 at cycle  10 NSaved=  10.
 NSaved=10 IEnMin=10 EnMin= -576.403522856513     IErMin=10 ErrMin= 1.16D-06
 ErrMax= 1.16D-06  0.00D+00 EMaxC= 1.00D-01 BMatC= 3.84D-10 BMatP= 5.30D-09
 IDIUse=1 WtCom= 1.00D+00 WtEn= 0.00D+00
 Coeff-Com: -0.186D-05-0.812D-06 0.267D-04 0.110D-02 0.386D-02 0.147D-02
 Coeff-Com: -0.247D-01-0.575D-01 0.608D-01 0.102D+01
 Coeff:     -0.186D-05-0.812D-06 0.267D-04 0.110D-02 0.386D-02 0.147D-02
 Coeff:     -0.247D-01-0.575D-01 0.608D-01 0.102D+01
 Gap=     0.320 Goal=   None    Shift=    0.000
 RMSDP=1.78D-06 MaxDP=1.15D-04 DE=-1.44D-08 OVMax= 1.74D-05

 Cycle  11  Pass 1  IDiag  1:
 RMSU=  9.85D-07    CP:  5.97D-01  6.88D-01  4.65D-01  1.05D+00  5.88D-01
                    CP:  1.09D+00  1.07D+00  1.38D+00  1.35D+00  1.24D+00
 E= -576.403522857769     Delta-E=       -0.000000001256 Rises=F Damp=F
 DIIS: error= 3.46D-07 at cycle  11 NSaved=  11.
 NSaved=11 IEnMin=11 EnMin= -576.403522857769     IErMin=11 ErrMin= 3.46D-07
 ErrMax= 3.46D-07  0.00D+00 EMaxC= 1.00D-01 BMatC= 7.27D-11 BMatP= 3.84D-10
 IDIUse=1 WtCom= 1.00D+00 WtEn= 0.00D+00
 Coeff-Com: -0.268D-05-0.386D-04-0.309D-04 0.436D-03 0.170D-02 0.135D-02
 Coeff-Com: -0.444D-02-0.298D-01-0.482D-01 0.299D+00 0.780D+00
 Coeff:     -0.268D-05-0.386D-04-0.309D-04 0.436D-03 0.170D-02 0.135D-02
 Coeff:     -0.444D-02-0.298D-01-0.482D-01 0.299D+00 0.780D+00
 Gap=     0.320 Goal=   None    Shift=    0.000
 RMSDP=5.43D-07 MaxDP=2.96D-05 DE=-1.26D-09 OVMax= 6.83D-06

 Cycle  12  Pass 1  IDiag  1:
 RMSU=  2.57D-07    CP:  5.97D-01  6.88D-01  4.65D-01  1.05D+00  5.88D-01
                    CP:  1.09D+00  1.07D+00  1.38D+00  1.38D+00  1.32D+00
                    CP:  1.11D+00
 E= -576.403522857957     Delta-E=       -0.000000000189 Rises=F Damp=F
 DIIS: error= 1.97D-07 at cycle  12 NSaved=  12.
 NSaved=12 IEnMin=12 EnMin= -576.403522857957     IErMin=12 ErrMin= 1.97D-07
 ErrMax= 1.97D-07  0.00D+00 EMaxC= 1.00D-01 BMatC= 8.65D-12 BMatP= 7.27D-11
 IDIUse=1 WtCom= 1.00D+00 WtEn= 0.00D+00
 Coeff-Com:  0.110D-06-0.446D-05-0.970D-05-0.149D-03-0.609D-03-0.182D-03
 Coeff-Com:  0.473D-02 0.859D-02-0.159D-01-0.160D+00 0.776D-01 0.109D+01
 Coeff:      0.110D-06-0.446D-05-0.970D-05-0.149D-03-0.609D-03-0.182D-03
 Coeff:      0.473D-02 0.859D-02-0.159D-01-0.160D+00 0.776D-01 0.109D+01
 Gap=     0.320 Goal=   None    Shift=    0.000
 RMSDP=4.02D-07 MaxDP=3.52D-05 DE=-1.89D-10 OVMax= 5.35D-06

 Cycle  13  Pass 1  IDiag  1:
 RMSU=  1.21D-07    CP:  5.97D-01  6.88D-01  4.65D-01  1.05D+00  5.88D-01
                    CP:  1.09D+00  1.07D+00  1.38D+00  1.38D+00  1.36D+00
                    CP:  1.22D+00  1.29D+00
 E= -576.403522858014     Delta-E=       -0.000000000056 Rises=F Damp=F
 DIIS: error= 9.15D-08 at cycle  13 NSaved=  13.
 NSaved=13 IEnMin=13 EnMin= -576.403522858014     IErMin=13 ErrMin= 9.15D-08
 ErrMax= 9.15D-08  0.00D+00 EMaxC= 1.00D-01 BMatC= 1.62D-12 BMatP= 8.65D-12
 IDIUse=1 WtCom= 1.00D+00 WtEn= 0.00D+00
 Coeff-Com:  0.305D-06 0.339D-05 0.220D-05-0.858D-04-0.321D-03-0.221D-03
 Coeff-Com:  0.140D-02 0.502D-02 0.161D-02-0.685D-01-0.796D-01 0.228D+00
 Coeff-Com:  0.913D+00
 Coeff:      0.305D-06 0.339D-05 0.220D-05-0.858D-04-0.321D-03-0.221D-03
 Coeff:      0.140D-02 0.502D-02 0.161D-02-0.685D-01-0.796D-01 0.228D+00
 Coeff:      0.913D+00
 Gap=     0.320 Goal=   None    Shift=    0.000
 RMSDP=1.28D-07 MaxDP=1.07D-05 DE=-5.64D-11 OVMax= 2.21D-06

 Cycle  14  Pass 1  IDiag  1:
 RMSU=  3.68D-08    CP:  5.97D-01  6.88D-01  4.65D-01  1.05D+00  5.88D-01
                    CP:  1.09D+00  1.07D+00  1.38D+00  1.37D+00  1.36D+00
                    CP:  1.25D+00  1.30D+00  1.42D+00
 E= -576.403522858021     Delta-E=       -0.000000000007 Rises=F Damp=F
 DIIS: error= 3.67D-08 at cycle  14 NSaved=  14.
 NSaved=14 IEnMin=14 EnMin= -576.403522858021     IErMin=14 ErrMin= 3.67D-08
 ErrMax= 3.67D-08  0.00D+00 EMaxC= 1.00D-01 BMatC= 3.78D-13 BMatP= 1.62D-12
 IDIUse=1 WtCom= 1.00D+00 WtEn= 0.00D+00
 Coeff-Com:  0.438D-07 0.174D-05 0.303D-05 0.802D-05 0.573D-04-0.139D-04
 Coeff-Com: -0.671D-03-0.591D-03 0.391D-02 0.183D-01-0.330D-01-0.196D+00
 Coeff-Com:  0.232D+00 0.976D+00
 Coeff:      0.438D-07 0.174D-05 0.303D-05 0.802D-05 0.573D-04-0.139D-04
 Coeff:     -0.671D-03-0.591D-03 0.391D-02 0.183D-01-0.330D-01-0.196D+00
 Coeff:      0.232D+00 0.976D+00
 Gap=     0.320 Goal=   None    Shift=    0.000
 RMSDP=4.85D-08 MaxDP=4.99D-06 DE=-6.82D-12 OVMax= 1.11D-06

 Cycle  15  Pass 1  IDiag  1:
 RMSU=  1.59D-08    CP:  5.97D-01  6.88D-01  4.65D-01  1.05D+00  5.88D-01
                    CP:  1.09D+00  1.07D+00  1.38D+00  1.37D+00  1.36D+00
                    CP:  1.25D+00  1.34D+00  1.64D+00  1.08D+00
 E= -576.403522858010     Delta-E=        0.000000000010 Rises=F Damp=F
 DIIS: error= 1.39D-08 at cycle  15 NSaved=  15.
 NSaved=15 IEnMin=14 EnMin= -576.403522858021     IErMin=15 ErrMin= 1.39D-08
 ErrMax= 1.39D-08  0.00D+00 EMaxC= 1.00D-01 BMatC= 7.31D-14 BMatP= 3.78D-13
 IDIUse=1 WtCom= 1.00D+00 WtEn= 0.00D+00
 Coeff-Com: -0.280D-07 0.170D-06 0.886D-06 0.162D-04 0.738D-04 0.339D-04
 Coeff-Com: -0.467D-03-0.984D-03 0.130D-02 0.180D-01 0.286D-02-0.117D+00
 Coeff-Com: -0.422D-01 0.379D+00 0.760D+00
 Coeff:     -0.280D-07 0.170D-06 0.886D-06 0.162D-04 0.738D-04 0.339D-04
 Coeff:     -0.467D-03-0.984D-03 0.130D-02 0.180D-01 0.286D-02-0.117D+00
 Coeff:     -0.422D-01 0.379D+00 0.760D+00
 Gap=     0.320 Goal=   None    Shift=    0.000
 RMSDP=1.63D-08 MaxDP=1.42D-06 DE= 1.05D-11 OVMax= 3.09D-07

 Cycle  16  Pass 1  IDiag  1:
 RMSU=  5.56D-09    CP:  5.97D-01  6.88D-01  4.65D-01  1.05D+00  5.88D-01
                    CP:  1.09D+00  1.07D+00  1.38D+00  1.37D+00  1.36D+00
                    CP:  1.25D+00  1.34D+00  1.66D+00  1.22D+00  1.29D+00
 E= -576.403522858024     Delta-E=       -0.000000000014 Rises=F Damp=F
 DIIS: error= 4.19D-09 at cycle  16 NSaved=  16.
 NSaved=16 IEnMin=16 EnMin= -576.403522858024     IErMin=16 ErrMin= 4.19D-09
 ErrMax= 4.19D-09  0.00D+00 EMaxC= 1.00D-01 BMatC= 6.96D-15 BMatP= 7.31D-14
 IDIUse=1 WtCom= 1.00D+00 WtEn= 0.00D+00
 Coeff-Com: -0.101D-07-0.244D-06-0.373D-06 0.134D-05 0.343D-05 0.107D-04
 Coeff-Com:  0.306D-04-0.747D-04-0.544D-03-0.271D-03 0.817D-02 0.744D-02
 Coeff-Com: -0.455D-01-0.102D+00 0.145D+00 0.988D+00
 Coeff:     -0.101D-07-0.244D-06-0.373D-06 0.134D-05 0.343D-05 0.107D-04
 Coeff:      0.306D-04-0.747D-04-0.544D-03-0.271D-03 0.817D-02 0.744D-02
 Coeff:     -0.455D-01-0.102D+00 0.145D+00 0.988D+00
 Gap=     0.320 Goal=   None    Shift=    0.000
 RMSDP=7.08D-09 MaxDP=4.98D-07 DE=-1.41D-11 OVMax= 1.37D-07

 SCF Done:  E(RwB97XD) =  -576.403522858     A.U. after   16 cycles
            NFock= 16  Conv=0.71D-08     -V/T= 1.9998
 KE= 5.764906898525D+02 PE=-2.913231635833D+03 EE= 9.748184129510D+02
 Leave Link  502 at Tue Nov 22 15:00:56 2022, MaxMem= 16106127360 cpu:            1256.6 elap:              39.6
 (Enter /opt/ap/G16/B01/g16/l601.exe)
 Copying SCF densities to generalized density rwf, IOpCl= 0 IROHF=0.

 **********************************************************************

            Population analysis using the SCF Density.

 **********************************************************************

 Orbital symmetries:
       Occupied  (A) (A) (A) (A) (A) (A) (A) (A) (A) (A) (A) (A)
                 (A) (A) (A) (A) (A) (A) (A) (A) (A) (A) (A) (A)
                 (A) (A) (A) (A) (A) (A) (A) (A) (A) (A) (A) (A)
                 (A) (A) (A) (A) (A) (A) (A) (A) (A) (A) (A) (A)
       Virtual   (A) (A) (A) (A) (A) (A) (A) (A) (A) (A) (A) (A)
                 (A) (A) (A) (A) (A) (A) (A) (A) (A) (A) (A) (A)
                 (A) (A) (A) (A) (A) (A) (A) (A) (A) (A) (A) (A)
                 (A) (A) (A) (A) (A) (A) (A) (A) (A) (A) (A) (A)
                 (A) (A) (A) (A) (A) (A) (A) (A) (A) (A) (A) (A)
                 (A) (A) (A) (A) (A) (A) (A) (A) (A) (A) (A) (A)
                 (A) (A) (A) (A) (A) (A) (A) (A) (A) (A) (A) (A)
                 (A) (A) (A) (A) (A) (A) (A) (A) (A) (A) (A) (A)
                 (A) (A) (A) (A) (A) (A) (A) (A) (A) (A) (A) (A)
                 (A) (A) (A) (A) (A) (A) (A) (A) (A) (A) (A) (A)
                 (A) (A) (A) (A) (A) (A) (A) (A) (A) (A) (A) (A)
                 (A) (A) (A) (A) (A) (A) (A) (A) (A) (A) (A) (A)
                 (A) (A) (A) (A) (A) (A) (A) (A) (A) (A) (A) (A)
                 (A) (A) (A) (A) (A) (A) (A) (A) (A) (A) (A) (A)
                 (A) (A) (A) (A) (A) (A) (A) (A) (A) (A) (A) (A)
                 (A) (A) (A) (A) (A) (A) (A) (A) (A) (A) (A) (A)
                 (A) (A) (A) (A) (A) (A) (A) (A) (A) (A) (A) (A)
                 (A) (A) (A) (A) (A) (A) (A) (A) (A) (A) (A) (A)
                 (A) (A) (A) (A) (A) (A) (A) (A) (A) (A) (A) (A)
                 (A) (A) (A) (A) (A) (A) (A) (A) (A) (A) (A) (A)
                 (A) (A) (A) (A) (A) (A) (A) (A) (A) (A) (A) (A)
                 (A) (A) (A) (A) (A) (A) (A) (A) (A) (A) (A) (A)
                 (A) (A) (A) (A) (A) (A) (A) (A) (A) (A) (A) (A)
                 (A) (A) (A) (A) (A) (A) (A) (A) (A) (A) (A) (A)
                 (A) (A) (A) (A) (A) (A) (A) (A) (A) (A) (A) (A)
                 (A) (A) (A) (A) (A) (A) (A) (A) (A) (A) (A) (A)
                 (A) (A) (A) (A) (A) (A) (A) (A) (A) (A) (A) (A)
                 (A) (A) (A) (A)
 The electronic state is 1-A.
 Alpha  occ. eigenvalues --  -19.23697 -10.38190 -10.30601 -10.30537 -10.28926
 Alpha  occ. eigenvalues --  -10.28783 -10.28626 -10.28544 -10.28508 -10.28444
 Alpha  occ. eigenvalues --  -10.28435 -10.28416 -10.28251 -10.28178  -1.14844
 Alpha  occ. eigenvalues --   -0.98127  -0.97404  -0.89559  -0.87534  -0.87332
 Alpha  occ. eigenvalues --   -0.86596  -0.76999  -0.74934  -0.73297  -0.72352
 Alpha  occ. eigenvalues --   -0.68248  -0.64951  -0.64387  -0.59576  -0.57534
 Alpha  occ. eigenvalues --   -0.56323  -0.55859  -0.54623  -0.53657  -0.52602
 Alpha  occ. eigenvalues --   -0.51960  -0.50411  -0.47746  -0.46820  -0.46026
 Alpha  occ. eigenvalues --   -0.45276  -0.44947  -0.43728  -0.35134  -0.34886
 Alpha  occ. eigenvalues --   -0.34135  -0.33933  -0.33360
 Alpha virt. eigenvalues --   -0.01327   0.03454   0.03709   0.04289   0.04703
 Alpha virt. eigenvalues --    0.04905   0.05233   0.05767   0.06001   0.07541
 Alpha virt. eigenvalues --    0.07862   0.08457   0.09239   0.09951   0.11298
 Alpha virt. eigenvalues --    0.11616   0.11969   0.12718   0.13009   0.14422
 Alpha virt. eigenvalues --    0.15036   0.15205   0.15991   0.16192   0.16817
 Alpha virt. eigenvalues --    0.16929   0.17177   0.17377   0.17745   0.18309
 Alpha virt. eigenvalues --    0.18463   0.18727   0.19342   0.19485   0.19884
 Alpha virt. eigenvalues --    0.20128   0.20379   0.20875   0.21132   0.21659
 Alpha virt. eigenvalues --    0.22118   0.22484   0.22825   0.23525   0.23779
 Alpha virt. eigenvalues --    0.24316   0.24556   0.25231   0.25844   0.26193
 Alpha virt. eigenvalues --    0.26882   0.27259   0.27548   0.28239   0.28729
 Alpha virt. eigenvalues --    0.29293   0.30227   0.31006   0.31105   0.31369
 Alpha virt. eigenvalues --    0.31752   0.32228   0.32754   0.33644   0.33934
 Alpha virt. eigenvalues --    0.34290   0.34911   0.35038   0.35741   0.36138
 Alpha virt. eigenvalues --    0.36608   0.36710   0.37747   0.38266   0.38487
 Alpha virt. eigenvalues --    0.38766   0.39441   0.41013   0.41572   0.42103
 Alpha virt. eigenvalues --    0.42380   0.42828   0.43715   0.44577   0.44665
 Alpha virt. eigenvalues --    0.45026   0.46107   0.48216   0.48793   0.50193
 Alpha virt. eigenvalues --    0.52160   0.56603   0.57807   0.58395   0.59003
 Alpha virt. eigenvalues --    0.61365   0.61875   0.62922   0.63170   0.63579
 Alpha virt. eigenvalues --    0.64015   0.64643   0.65159   0.65246   0.65670
 Alpha virt. eigenvalues --    0.66881   0.67259   0.68191   0.68682   0.69623
 Alpha virt. eigenvalues --    0.70089   0.71719   0.73570   0.74221   0.74527
 Alpha virt. eigenvalues --    0.75296   0.75665   0.76892   0.77471   0.79063
 Alpha virt. eigenvalues --    0.80429   0.81073   0.81578   0.82740   0.83382
 Alpha virt. eigenvalues --    0.84071   0.85241   0.86372   0.88217   0.89353
 Alpha virt. eigenvalues --    0.90724   0.91593   0.93048   0.93552   0.94238
 Alpha virt. eigenvalues --    0.94771   0.94961   0.95044   0.95858   0.97466
 Alpha virt. eigenvalues --    0.97845   0.98229   0.99758   1.01327   1.01795
 Alpha virt. eigenvalues --    1.02717   1.03199   1.03951   1.04839   1.07165
 Alpha virt. eigenvalues --    1.08954   1.09578   1.10235   1.11942   1.13076
 Alpha virt. eigenvalues --    1.14214   1.15644   1.16542   1.17272   1.18406
 Alpha virt. eigenvalues --    1.18710   1.21946   1.22696   1.23894   1.26953
 Alpha virt. eigenvalues --    1.27943   1.29317   1.31870   1.33585   1.36590
 Alpha virt. eigenvalues --    1.39567   1.43581   1.45664   1.47624   1.55343
 Alpha virt. eigenvalues --    1.57543   1.58248   1.58533   1.59901   1.60329
 Alpha virt. eigenvalues --    1.61583   1.62801   1.64268   1.65735   1.66368
 Alpha virt. eigenvalues --    1.68155   1.68253   1.68559   1.69132   1.71599
 Alpha virt. eigenvalues --    1.74532   1.75725   1.76471   1.76909   1.79161
 Alpha virt. eigenvalues --    1.81777   1.83216   1.85263   1.87767   1.88874
 Alpha virt. eigenvalues --    1.89183   1.91339   1.91908   1.93465   1.94696
 Alpha virt. eigenvalues --    1.95582   1.96820   2.00374   2.00501   2.00949
 Alpha virt. eigenvalues --    2.01942   2.03046   2.04601   2.05072   2.05447
 Alpha virt. eigenvalues --    2.06370   2.06743   2.08779   2.08999   2.11123
 Alpha virt. eigenvalues --    2.11355   2.15716   2.18269   2.19740   2.22686
 Alpha virt. eigenvalues --    2.24705   2.26640   2.27833   2.30173   2.31747
 Alpha virt. eigenvalues --    2.34312   2.42660   2.43637   2.47525   2.48335
 Alpha virt. eigenvalues --    2.48675   2.50597   2.51002   2.51749   2.54951
 Alpha virt. eigenvalues --    2.57661   2.59197   2.61418   2.65952   2.70047
 Alpha virt. eigenvalues --    2.74991   2.76322   2.77357   2.78953   2.81125
 Alpha virt. eigenvalues --    2.83061   2.84424   2.85620   2.86310   2.91273
 Alpha virt. eigenvalues --    2.91517   2.92424   2.93487   2.94010   2.96197
 Alpha virt. eigenvalues --    2.97790   2.98238   2.99183   2.99865   3.00282
 Alpha virt. eigenvalues --    3.00786   3.02241   3.02697   3.05113   3.06596
 Alpha virt. eigenvalues --    3.07012   3.09172   3.12820   3.13801   3.19890
 Alpha virt. eigenvalues --    3.20716   3.21532   3.24344   3.25310   3.26123
 Alpha virt. eigenvalues --    3.31487   3.32521   3.37760   3.40475   3.45290
 Alpha virt. eigenvalues --    3.48768   3.50849   3.51321   3.55822   3.68244
 Alpha virt. eigenvalues --    3.69410   3.70631   3.72707   3.74943   3.76844
 Alpha virt. eigenvalues --    3.84051   3.88573   3.95071   3.95609   4.31728
 Alpha virt. eigenvalues --    4.37004   4.38034   4.39741   4.40601   4.41824
 Alpha virt. eigenvalues --    4.48319   4.50457   4.55435   4.64469   4.95139
 Alpha virt. eigenvalues --    4.95978   5.20103   5.35916   5.86393  23.87394
 Alpha virt. eigenvalues --   23.96634  23.99840  24.17068  24.17982  24.23715
 Alpha virt. eigenvalues --   24.25735  24.30015  24.31814  24.33868  24.34880
 Alpha virt. eigenvalues --   24.43587  24.44891  50.16229
          Condensed to atoms (all electrons):
               1          2          3          4          5          6
     1  C   20.333361  -0.873169  -3.101246  -0.844435  -0.163868 -11.407467
     2  C   -0.873169  16.950314  -6.124326  -2.496697   1.395046  -2.383679
     3  C   -3.101246  -6.124326  11.579503   1.963022  -0.368771   3.831257
     4  C   -0.844435  -2.496697   1.963022   8.273296  -0.397914  -0.604500
     5  H   -0.163868   1.395046  -0.368771  -0.397914   1.011516  -0.253674
     6  C  -11.407467  -2.383679   3.831257  -0.604500  -0.253674  30.738654
     7  C   -0.347951   0.448535  -0.279576  -0.674430   0.120291  -0.304111
     8  H    0.009728  -0.008898   0.492907   0.030104  -0.003125   0.057654
     9  C   -0.870403   0.500281  -0.315046   0.506820  -0.016709   0.371606
    10  H    0.096211  -0.211705   0.077115   0.456769  -0.060662   0.013382
    11  C    0.210677   1.665852  -1.697228   0.393394   0.344823 -11.229089
    12  O    0.255025  -0.206812   0.030540  -0.008753   0.001764  -0.096940
    13  H   -0.019396  -0.013842  -0.059912  -0.003292  -0.000452   0.005908
    14  H    0.029350   0.017556  -0.007157  -0.060400  -0.003370  -0.015163
    15  C    1.221794  -2.296901   0.511055   0.018350  -0.380443  -1.385320
    16  C    1.246282   1.130297  -0.959281  -0.297907   0.226458  -3.453964
    17  C   -1.198482   0.265855  -0.028726  -0.282964  -0.054486   2.736133
    18  H    0.051522  -0.557616   0.190255   0.122440  -0.303434   0.248878
    19  C   -0.540118  -0.028906   0.179316   0.010832   0.001391   1.525313
    20  H   -0.030358   0.010266  -0.028235  -0.003861  -0.001783  -0.082057
    21  C    0.348409  -0.029821  -0.077764  -0.008609  -0.016379  -0.945653
    22  H   -0.002725   0.007372  -0.002589  -0.006441   0.012403   0.018115
    23  H   -0.002209  -0.000686   0.003855   0.000297   0.000792   0.041270
    24  H    0.003899   0.000786  -0.002336   0.000489  -0.001119  -0.045443
               7          8          9         10         11         12
     1  C   -0.347951   0.009728  -0.870403   0.096211   0.210677   0.255025
     2  C    0.448535  -0.008898   0.500281  -0.211705   1.665852  -0.206812
     3  C   -0.279576   0.492907  -0.315046   0.077115  -1.697228   0.030540
     4  C   -0.674430   0.030104   0.506820   0.456769   0.393394  -0.008753
     5  H    0.120291  -0.003125  -0.016709  -0.060662   0.344823   0.001764
     6  C   -0.304111   0.057654   0.371606   0.013382 -11.229089  -0.096940
     7  C    6.966506  -0.131037  -0.013915  -0.006062  -0.017503   0.085866
     8  H   -0.131037   0.452265   0.016767   0.000846  -0.086161  -0.016090
     9  C   -0.013915   0.016767   5.993299  -0.084627  -0.067948  -0.022430
    10  H   -0.006062   0.000846  -0.084627   0.500082  -0.027455   0.000661
    11  C   -0.017503  -0.086161  -0.067948  -0.027455  18.193456   0.091289
    12  O    0.085866  -0.016090  -0.022430   0.000661   0.091289   8.033129
    13  H    0.485437  -0.013857  -0.075010   0.000834   0.015373   0.003434
    14  H   -0.099271   0.001481   0.495302  -0.012483   0.000179  -0.000495
    15  C    0.147265   0.005660  -0.172109   0.034698  -0.436616   0.026558
    16  C    0.015127  -0.018997   0.026911  -0.012939  -0.259082   0.102536
    17  C   -0.050907   0.003107   0.053307  -0.007461  -1.492720  -0.044767
    18  H   -0.022239  -0.000408  -0.004950   0.021060  -0.353540  -0.012138
    19  C    0.006375  -0.001489   0.006550  -0.001029  -0.741506  -0.041662
    20  H    0.002228  -0.001161  -0.001034  -0.000024   0.116707  -0.008266
    21  C    0.003719  -0.000280  -0.007122   0.001723  -0.084098   0.026393
    22  H    0.000070  -0.000103   0.000308  -0.000627   0.009815  -0.000084
    23  H    0.000045  -0.000006   0.000113  -0.000034  -0.006465  -0.000287
    24  H    0.000065  -0.000027  -0.000101   0.000056   0.042036   0.000532
              13         14         15         16         17         18
     1  C   -0.019396   0.029350   1.221794   1.246282  -1.198482   0.051522
     2  C   -0.013842   0.017556  -2.296901   1.130297   0.265855  -0.557616
     3  C   -0.059912  -0.007157   0.511055  -0.959281  -0.028726   0.190255
     4  C   -0.003292  -0.060400   0.018350  -0.297907  -0.282964   0.122440
     5  H   -0.000452  -0.003370  -0.380443   0.226458  -0.054486  -0.303434
     6  C    0.005908  -0.015163  -1.385320  -3.453964   2.736133   0.248878
     7  C    0.485437  -0.099271   0.147265   0.015127  -0.050907  -0.022239
     8  H   -0.013857   0.001481   0.005660  -0.018997   0.003107  -0.000408
     9  C   -0.075010   0.495302  -0.172109   0.026911   0.053307  -0.004950
    10  H    0.000834  -0.012483   0.034698  -0.012939  -0.007461   0.021060
    11  C    0.015373   0.000179  -0.436616  -0.259082  -1.492720  -0.353540
    12  O    0.003434  -0.000495   0.026558   0.102536  -0.044767  -0.012138
    13  H    0.482673  -0.015253  -0.000497   0.002368  -0.001730   0.000793
    14  H   -0.015253   0.495730  -0.006358   0.001130   0.001254  -0.000247
    15  C   -0.000497  -0.006358  16.279626  -4.183928  -3.837778   0.766295
    16  C    0.002368   0.001130  -4.183928  11.967396   0.688620  -0.211122
    17  C   -0.001730   0.001254  -3.837778   0.688620   8.954773   0.030058
    18  H    0.000793  -0.000247   0.766295  -0.211122   0.030058   0.875837
    19  C   -0.000060   0.000044  -0.441541  -0.646417   0.310438   0.054602
    20  H    0.000087  -0.000051   0.061717   0.380574   0.004528   0.000402
    21  C    0.000065  -0.000069   0.874148   0.181860  -0.170294  -0.033280
    22  H    0.000000   0.000008  -0.114885   0.020981   0.455692  -0.029795
    23  H    0.000004   0.000006  -0.032841  -0.083401   0.024602   0.000277
    24  H    0.000002  -0.000004   0.041569   0.001097  -0.093677  -0.002128
              19         20         21         22         23         24
     1  C   -0.540118  -0.030358   0.348409  -0.002725  -0.002209   0.003899
     2  C   -0.028906   0.010266  -0.029821   0.007372  -0.000686   0.000786
     3  C    0.179316  -0.028235  -0.077764  -0.002589   0.003855  -0.002336
     4  C    0.010832  -0.003861  -0.008609  -0.006441   0.000297   0.000489
     5  H    0.001391  -0.001783  -0.016379   0.012403   0.000792  -0.001119
     6  C    1.525313  -0.082057  -0.945653   0.018115   0.041270  -0.045443
     7  C    0.006375   0.002228   0.003719   0.000070   0.000045   0.000065
     8  H   -0.001489  -0.001161  -0.000280  -0.000103  -0.000006  -0.000027
     9  C    0.006550  -0.001034  -0.007122   0.000308   0.000113  -0.000101
    10  H   -0.001029  -0.000024   0.001723  -0.000627  -0.000034   0.000056
    11  C   -0.741506   0.116707  -0.084098   0.009815  -0.006465   0.042036
    12  O   -0.041662  -0.008266   0.026393  -0.000084  -0.000287   0.000532
    13  H   -0.000060   0.000087   0.000065   0.000000   0.000004   0.000002
    14  H    0.000044  -0.000051  -0.000069   0.000008   0.000006  -0.000004
    15  C   -0.441541   0.061717   0.874148  -0.114885  -0.032841   0.041569
    16  C   -0.646417   0.380574   0.181860   0.020981  -0.083401   0.001097
    17  C    0.310438   0.004528  -0.170294   0.455692   0.024602  -0.093677
    18  H    0.054602   0.000402  -0.033280  -0.029795   0.000277  -0.002128
    19  C    6.616686  -0.102221  -0.189561   0.005105   0.509248  -0.088246
    20  H   -0.102221   0.460976   0.017847   0.000215  -0.015111   0.001540
    21  C   -0.189561   0.017847   5.965763  -0.048909  -0.107506   0.489548
    22  H    0.005105   0.000215  -0.048909   0.485215   0.000586  -0.011223
    23  H    0.509248  -0.015111  -0.107506   0.000586   0.491045  -0.016087
    24  H   -0.088246   0.001540   0.489548  -0.011223  -0.016087   0.491175
 Mulliken charges:
               1
     1  C    1.595568
     2  C   -1.159102
     3  C    0.193368
     4  C   -0.085613
     5  H   -0.088296
     6  C   -1.381109
     7  C   -0.334524
     8  H    0.211118
     9  C   -0.319860
    10  H    0.221670
    11  C    1.415809
    12  O   -0.199003
    13  H    0.206321
    14  H    0.178279
    15  C   -0.699519
    16  C    0.135402
    17  C   -0.264376
    18  H    0.168478
    19  C   -0.403144
    20  H    0.217075
    21  C   -0.190132
    22  H    0.201497
    23  H    0.192494
    24  H    0.187598
 Sum of Mulliken charges =  -0.00000
 Mulliken charges with hydrogens summed into heavy atoms:
               1
     1  C    1.595568
     2  C   -1.247398
     3  C    0.404486
     4  C    0.136057
     6  C   -1.381109
     7  C   -0.128203
     9  C   -0.141581
    11  C    1.415809
    12  O   -0.199003
    15  C   -0.531041
    16  C    0.352476
    17  C   -0.062879
    19  C   -0.210650
    21  C   -0.002534
 Electronic spatial extent (au):  <R**2>=           3041.2443
 Charge=             -0.0000 electrons
 Dipole moment (field-independent basis, Debye):
    X=             -0.0434    Y=             -3.1171    Z=              0.9144  Tot=              3.2487
 Quadrupole moment (field-independent basis, Debye-Ang):
   XX=            -63.6388   YY=            -79.2598   ZZ=            -85.0324
   XY=             -0.3999   XZ=              0.2326   YZ=              4.4778
 Traceless Quadrupole moment (field-independent basis, Debye-Ang):
   XX=             12.3382   YY=             -3.2828   ZZ=             -9.0554
   XY=             -0.3999   XZ=              0.2326   YZ=              4.4778
 Octapole moment (field-independent basis, Debye-Ang**2):
  XXX=             -1.2269  YYY=            -23.4748  ZZZ=             -2.9720  XYY=             -1.4541
  XXY=             -0.4852  XXZ=             17.0339  XZZ=              1.6403  YZZ=              3.8348
  YYZ=              5.3638  XYZ=              5.1523
 Hexadecapole moment (field-independent basis, Debye-Ang**3):
 XXXX=          -2817.0972 YYYY=           -788.0505 ZZZZ=           -148.0551 XXXY=            -10.6158
 XXXZ=              6.4287 YYYX=             -0.5162 YYYZ=             24.2294 ZZZX=              1.5637
 ZZZY=             -2.1225 XXYY=           -593.9653 XXZZ=           -609.1146 YYZZ=           -163.0991
 XXYZ=             11.0025 YYXZ=             -3.3181 ZZXY=              1.9936
 N-N= 7.855190101718D+02 E-N=-2.913231635930D+03  KE= 5.764906898525D+02
 No NMR shielding tensors so no spin-rotation constants.
 Leave Link  601 at Tue Nov 22 15:00:57 2022, MaxMem= 16106127360 cpu:               4.6 elap:               0.2
 (Enter /opt/ap/G16/B01/g16/l9999.exe)
 1\1\GINC-N19\SP\RwB97XD\6-311++G(d,p)\C13H10O1\ROOT\22-Nov-2022\0\\#P 
 wB97XD/6-311++G(d,p) scf=maxcycle=512\\_conf015.gjf nmol_natom 1_24\\0
 ,1\C\C,1,1.39746343\C,1,1.39996263,2,119.28066518\C,2,1.39288453,1,120
 .37436646,3,-0.51002981,0\H,2,0.95014703,1,119.82324024,3,179.45634896
 ,0\C,1,1.49653039,2,122.77761373,4,174.46828757,0\C,3,1.3870125,1,120.
 10017821,2,-0.37315804,0\H,3,0.9501092,1,119.95246451,2,179.5923884,0\
 C,7,1.38720039,3,120.16568731,1,1.0745106,0\H,4,0.95011919,2,120.18755
 644,1,-179.31195299,0\C,6,1.49516902,1,120.70972921,2,-15.,0\O,6,1.221
 50059,1,119.67074267,2,165.,0\H,7,0.94956661,3,119.91274826,1,-178.886
 36029,0\H,9,0.94992259,7,119.76037934,3,179.10763853,0\C,11,1.39713972
 ,6,122.62585705,1,30.97749054,0\C,11,1.40039562,6,117.74753532,1,-153.
 15467779,0\C,15,1.39455701,11,119.80747484,6,175.4763048,0\H,15,0.9496
 2854,11,120.10535689,6,-4.50802339,0\C,16,1.38466431,11,120.4617377,6,
 -176.88197195,0\H,16,0.9497464,11,119.75779177,6,3.14699974,0\C,17,1.3
 9088945,15,120.3475273,11,0.7973643,0\H,17,0.94984298,15,119.8156451,1
 1,-179.16676483,0\H,19,0.94974749,16,119.98566335,11,-178.40987425,0\H
 ,21,0.94938585,17,120.0744529,15,179.91636093,0\\Version=ES64L-G16RevB
 .01\State=1-A\HF=-576.4035229\RMSD=7.078e-09\Dipole=0.0000736,-0.36852
 18,1.2238669\Quadrupole=8.6403725,-6.2277911,-2.4125814,2.8242937,-0.1
 138699,3.3608368\PG=C01 [X(C13H10O1)]\\@


 YOU SHOULDN'T LET PEOPLE DRIVE YOU CRAZY
 WHEN YOU KNOW IT'S WITHIN WALKING DISTANCE.
 Job cpu time:       0 days  0 hours 21 minutes 44.3 seconds.
 Elapsed time:       0 days  0 hours  0 minutes 41.1 seconds.
 File lengths (MBytes):  RWF=     78 Int=      0 D2E=      0 Chk=      9 Scr=      1
 Normal termination of Gaussian 16 at Tue Nov 22 15:00:57 2022.
