 Entering Gaussian System, Link 0=g16
 Input=_conf009.gjf
 Output=_conf009.log
 Initial command:
 /opt/ap/G16/B01/g16/l1.exe "/tmp2/scr/Gau-12544.inp" -scrdir="/tmp2/scr/"
 Entering Link 1 = /opt/ap/G16/B01/g16/l1.exe PID=     12545.
  
 Copyright (c) 1988-2017, Gaussian, Inc.  All Rights Reserved.
  
 This is part of the Gaussian(R) 16 program.  It is based on
 the Gaussian(R) 09 system (copyright 2009, Gaussian, Inc.),
 the Gaussian(R) 03 system (copyright 2003, Gaussian, Inc.),
 the Gaussian(R) 98 system (copyright 1998, Gaussian, Inc.),
 the Gaussian(R) 94 system (copyright 1995, Gaussian, Inc.),
 the Gaussian 92(TM) system (copyright 1992, Gaussian, Inc.),
 the Gaussian 90(TM) system (copyright 1990, Gaussian, Inc.),
 the Gaussian 88(TM) system (copyright 1988, Gaussian, Inc.),
 the Gaussian 86(TM) system (copyright 1986, Carnegie Mellon
 University), and the Gaussian 82(TM) system (copyright 1983,
 Carnegie Mellon University). Gaussian is a federally registered
 trademark of Gaussian, Inc.
  
 This software contains proprietary and confidential information,
 including trade secrets, belonging to Gaussian, Inc.
  
 This software is provided under written license and may be
 used, copied, transmitted, or stored only in accord with that
 written license.
  
 The following legend is applicable only to US Government
 contracts under FAR:
  
                    RESTRICTED RIGHTS LEGEND
  
 Use, reproduction and disclosure by the US Government is
 subject to restrictions as set forth in subparagraphs (a)
 and (c) of the Commercial Computer Software - Restricted
 Rights clause in FAR 52.227-19.
  
 Gaussian, Inc.
 340 Quinnipiac St., Bldg. 40, Wallingford CT 06492
  
  
 ---------------------------------------------------------------
 Warning -- This program may not be used in any manner that
 competes with the business of Gaussian, Inc. or will provide
 assistance to any competitor of Gaussian, Inc.  The licensee
 of this program is prohibited from giving any competitor of
 Gaussian, Inc. access to this program.  By using this program,
 the user acknowledges that Gaussian, Inc. is engaged in the
 business of creating and licensing software in the field of
 computational chemistry and represents and warrants to the
 licensee that it is not a competitor of Gaussian, Inc. and that
 it will not use this program in any manner prohibited above.
 ---------------------------------------------------------------
  

 Cite this work as:
 Gaussian 16, Revision B.01,
 M. J. Frisch, G. W. Trucks, H. B. Schlegel, G. E. Scuseria, 
 M. A. Robb, J. R. Cheeseman, G. Scalmani, V. Barone, 
 G. A. Petersson, H. Nakatsuji, X. Li, M. Caricato, A. V. Marenich, 
 J. Bloino, B. G. Janesko, R. Gomperts, B. Mennucci, H. P. Hratchian, 
 J. V. Ortiz, A. F. Izmaylov, J. L. Sonnenberg, D. Williams-Young, 
 F. Ding, F. Lipparini, F. Egidi, J. Goings, B. Peng, A. Petrone, 
 T. Henderson, D. Ranasinghe, V. G. Zakrzewski, J. Gao, N. Rega, 
 G. Zheng, W. Liang, M. Hada, M. Ehara, K. Toyota, R. Fukuda, 
 J. Hasegawa, M. Ishida, T. Nakajima, Y. Honda, O. Kitao, H. Nakai, 
 T. Vreven, K. Throssell, J. A. Montgomery, Jr., J. E. Peralta, 
 F. Ogliaro, M. J. Bearpark, J. J. Heyd, E. N. Brothers, K. N. Kudin, 
 V. N. Staroverov, T. A. Keith, R. Kobayashi, J. Normand, 
 K. Raghavachari, A. P. Rendell, J. C. Burant, S. S. Iyengar, 
 J. Tomasi, M. Cossi, J. M. Millam, M. Klene, C. Adamo, R. Cammi, 
 J. W. Ochterski, R. L. Martin, K. Morokuma, O. Farkas, 
 J. B. Foresman, and D. J. Fox, Gaussian, Inc., Wallingford CT, 2016.
 
 ******************************************
 Gaussian 16:  ES64L-G16RevB.01 20-Dec-2017
                22-Nov-2022 
 ******************************************
 %nprocshared=32
 Will use up to   32 processors via shared memory.
 %mem=120GB
 %chk=_conf009.chk
 ----------------------------------------
 #P wB97XD/6-311++G(d,p) scf=maxcycle=512
 ----------------------------------------
 1/38=1,172=1/1;
 2/12=2,17=6,18=5,40=1/2;
 3/5=4,6=6,7=1111,11=2,25=1,30=1,74=-58/1,2,3;
 4//1;
 5/5=2,7=512,38=5/2;
 6/7=2,8=2,9=2,10=2,28=1/1;
 99/5=1,9=1/99;
 Leave Link    1 at Tue Nov 22 14:59:36 2022, MaxMem= 16106127360 cpu:               2.0 elap:               0.1
 (Enter /opt/ap/G16/B01/g16/l101.exe)
 ----------------------------
 _conf009.gjf nmol_natom 1_24
 ----------------------------
 Symbolic Z-matrix:
 Charge =  0 Multiplicity = 1
 C
 C                    1     1.39746 
 C                    1     1.39996  2     119.28067 
 C                    2     1.39288  1     120.37437  3    -0.51003  0
 H                    2     0.95015  1     119.82324  3     179.45635  0
 C                    1     1.49653  2     122.77761  4     174.46829  0
 C                    3     1.38701  1     120.10018  2    -0.37316  0
 H                    3     0.95011  1     119.95246  2     179.59239  0
 C                    7     1.3872   3     120.16569  1     1.07451  0
 H                    4     0.95012  2     120.18756  1    -179.31195  0
 C                    6     1.49517  1     120.70973  2    -45.      0
 O                    6     1.2215   1     119.67074  2     135.     0
 H                    7     0.94957  3     119.91275  1    -178.88636  0
 H                    9     0.94992  7     119.76038  3     179.10764  0
 C                    11    1.39714  6     122.62586  1     30.97749  0
 C                    11    1.4004   6     117.74754  1    -153.15468  0
 C                    15    1.39456  11    119.80747  6     175.4763  0
 H                    15    0.94963  11    120.10536  6    -4.50802  0
 C                    16    1.38466  11    120.46174  6    -176.88197  0
 H                    16    0.94975  11    119.75779  6     3.147    0
 C                    17    1.39089  15    120.34753  11    0.79736  0
 H                    17    0.94984  15    119.81565  11   -179.16676  0
 H                    19    0.94975  16    119.98566  11   -178.40987  0
 H                    21    0.94939  17    120.07445  15    179.91636  0
 
 ITRead=  0  0  0  0  0  0  0  0  0  0  0  0  0  0  0  0  0  0  0  0
 ITRead=  0  0  0  0
 MicOpt= -1 -1 -1 -1 -1 -1 -1 -1 -1 -1 -1 -1 -1 -1 -1 -1 -1 -1 -1 -1
 MicOpt= -1 -1 -1 -1
 NAtoms=     24 NQM=       24 NQMF=       0 NMMI=      0 NMMIF=      0
                NMic=       0 NMicF=      0.
                    Isotopes and Nuclear Properties:
 (Nuclear quadrupole moments (NQMom) in fm**2, nuclear magnetic moments (NMagM)
  in nuclear magnetons)

  Atom         1           2           3           4           5           6           7           8           9          10
 IAtWgt=          12          12          12          12           1          12          12           1          12           1
 AtmWgt=  12.0000000  12.0000000  12.0000000  12.0000000   1.0078250  12.0000000  12.0000000   1.0078250  12.0000000   1.0078250
 NucSpn=           0           0           0           0           1           0           0           1           0           1
 AtZEff=  -0.0000000  -0.0000000  -0.0000000  -0.0000000  -0.0000000  -0.0000000  -0.0000000  -0.0000000  -0.0000000  -0.0000000
 NQMom=    0.0000000   0.0000000   0.0000000   0.0000000   0.0000000   0.0000000   0.0000000   0.0000000   0.0000000   0.0000000
 NMagM=    0.0000000   0.0000000   0.0000000   0.0000000   2.7928460   0.0000000   0.0000000   2.7928460   0.0000000   2.7928460
 AtZNuc=   6.0000000   6.0000000   6.0000000   6.0000000   1.0000000   6.0000000   6.0000000   1.0000000   6.0000000   1.0000000

  Atom        11          12          13          14          15          16          17          18          19          20
 IAtWgt=          12          16           1           1          12          12          12           1          12           1
 AtmWgt=  12.0000000  15.9949146   1.0078250   1.0078250  12.0000000  12.0000000  12.0000000   1.0078250  12.0000000   1.0078250
 NucSpn=           0           0           1           1           0           0           0           1           0           1
 AtZEff=  -0.0000000  -0.0000000  -0.0000000  -0.0000000  -0.0000000  -0.0000000  -0.0000000  -0.0000000  -0.0000000  -0.0000000
 NQMom=    0.0000000   0.0000000   0.0000000   0.0000000   0.0000000   0.0000000   0.0000000   0.0000000   0.0000000   0.0000000
 NMagM=    0.0000000   0.0000000   2.7928460   2.7928460   0.0000000   0.0000000   0.0000000   2.7928460   0.0000000   2.7928460
 AtZNuc=   6.0000000   8.0000000   1.0000000   1.0000000   6.0000000   6.0000000   6.0000000   1.0000000   6.0000000   1.0000000

  Atom        21          22          23          24
 IAtWgt=          12           1           1           1
 AtmWgt=  12.0000000   1.0078250   1.0078250   1.0078250
 NucSpn=           0           1           1           1
 AtZEff=  -0.0000000  -0.0000000  -0.0000000  -0.0000000
 NQMom=    0.0000000   0.0000000   0.0000000   0.0000000
 NMagM=    0.0000000   2.7928460   2.7928460   2.7928460
 AtZNuc=   6.0000000   1.0000000   1.0000000   1.0000000
 Leave Link  101 at Tue Nov 22 14:59:36 2022, MaxMem= 16106127360 cpu:               6.6 elap:               0.2
 (Enter /opt/ap/G16/B01/g16/l202.exe)
                          Input orientation:                          
 ---------------------------------------------------------------------
 Center     Atomic      Atomic             Coordinates (Angstroms)
 Number     Number       Type             X           Y           Z
 ---------------------------------------------------------------------
      1          6           0        0.000000    0.000000    0.000000
      2          6           0        0.000000    0.000000    1.397463
      3          6           0        1.221096    0.000000   -0.684705
      4          6           0        1.201650   -0.010697    2.101772
      5          1           0       -0.824276    0.007821    1.869996
      6          6           0       -1.253421   -0.110138   -0.810191
      7          6           0        2.414707    0.007815    0.021719
      8          1           0        1.232246   -0.005856   -1.634731
      9          6           0        2.403895   -0.006831    1.408800
     10          1           0        1.198494   -0.020531    3.051836
     11          6           0       -2.303596   -1.114902   -0.459318
     12          8           0       -1.420810    0.628528   -1.768532
     13          1           0        3.241298    0.023792   -0.445367
     14          1           0        3.224827   -0.014217    1.886678
     15          6           0       -2.539231   -1.531128    0.853401
     16          6           0       -3.129353   -1.581785   -1.489490
     17          6           0       -3.595546   -2.399801    1.126156
     18          1           0       -1.981928   -1.223308    1.557997
     19          6           0       -4.161428   -2.463681   -1.216773
     20          1           0       -2.980032   -1.291717   -2.381444
     21          6           0       -4.405210   -2.866820    0.096151
     22          1           0       -3.763146   -2.673473    2.020144
     23          1           0       -4.703125   -2.793619   -1.923686
     24          1           0       -5.122541   -3.459015    0.286085
 ---------------------------------------------------------------------
                    Distance matrix (angstroms):
                    1          2          3          4          5
     1  C    0.000000
     2  C    1.397463   0.000000
     3  C    1.399963   2.413814   0.000000
     4  C    2.421058   1.392885   2.786566   0.000000
     5  H    2.043619   0.950147   3.272630   2.039225   0.000000
     6  C    1.496530   2.541049   2.480142   3.810091   2.716889
     7  C    2.414817   2.779127   1.387013   2.408002   3.729228
     8  H    2.047146   3.273021   0.950109   3.736632   4.063567
     9  C    2.786301   2.403931   2.404542   1.387667   3.260982
    10  H    3.278797   2.042977   3.736665   0.950119   2.342893
    11  C    2.600103   3.161835   3.703681   4.479420   2.979027
    12  O    2.354029   3.526652   2.923935   4.718597   3.738986
    13  H    3.271839   3.728619   2.034469   3.263323   4.678681
    14  H    3.736210   3.261755   3.259932   2.034583   4.049198
    15  C    3.085505   3.014639   4.341679   4.226621   2.518512
    16  C    3.809655   4.541959   4.698523   5.841495   4.373371
    17  C    4.467127   4.331351   5.677878   5.447268   3.745648
    18  H    2.802120   2.334586   4.097018   3.449824   1.718483
    19  C    4.986757   5.497403   5.943432   6.767014   5.174268
    20  H    4.027455   4.982897   4.711361   6.263122   4.940731
    21  C    5.256784   5.414605   6.362681   6.604304   4.922721
    22  H    5.038821   4.657946   6.269477   5.634380   3.981061
    23  H    5.798643   6.399510   6.666016   7.669116   6.106190
    24  H    6.187654   6.280157   7.290332   7.428527   5.744807
                    6          7          8          9         10
     6  C    0.000000
     7  C    3.763130   0.000000
     8  H    2.620930   2.035246   0.000000
     9  C    4.279082   1.387200   3.261263   0.000000
    10  H    4.575496   3.265208   4.686711   2.037829   0.000000
    11  C    1.495169   4.873836   3.887641   5.184414   5.078433
    12  O    1.221501   4.278022   2.731126   5.012732   5.524308
    13  H    4.511488   0.949567   2.334899   2.034727   4.050363
    14  H    5.228480   2.033434   4.046081   0.949923   2.337447
    15  C    2.537727   5.253717   4.768783   5.202542   4.591906
    16  C    2.479176   5.962145   4.639847   6.441847   6.464627
    17  C    3.804937   6.568069   6.054836   6.465251   5.687880
    18  H    2.716281   4.817283   4.691120   4.553847   3.713935
    19  C    3.763108   7.133562   5.941995   7.485533   7.274529
    20  H    2.616515   6.047080   4.467023   6.708468   6.971120
    21  C    4.284219   7.401374   6.554538   7.501099   6.945425
    22  H    4.569487   7.024876   6.740047   6.746637   5.720171
    23  H    4.510144   7.892792   6.563820   8.329548   8.202130
    24  H    5.233249   8.300537   7.483125   8.356153   7.708958
                   11         12         13         14         15
    11  C    0.000000
    12  O    2.352211   0.000000
    13  H    5.660624   4.883822   0.000000
    14  H    6.105626   5.946060   2.332413   0.000000
    15  C    1.397140   3.576242   6.125283   6.049219   0.000000
    16  C    1.400396   2.807573   6.652312   7.364196   2.416598
    17  C    2.415332   4.720113   7.421989   7.265459   1.394557
    18  H    2.045674   3.848369   5.731563   5.355393   0.949629
    19  C    2.417537   4.168594   7.847480   8.377831   2.790484
    20  H    2.045335   2.548367   6.647097   7.638661   3.273506
    21  C    2.791872   4.959954   8.192555   8.340312   2.416481
    22  H    3.272181   5.544711   7.900394   7.478050   2.040640
    23  H    3.274172   4.744339   8.557867   9.224770   3.740125
    24  H    3.741249   5.884919   9.089487   9.170992   3.272933
                   16         17         18         19         20
    16  C    0.000000
    17  C    2.779944   0.000000
    18  H    3.276013   2.043131   0.000000
    19  C    1.384664   2.411145   3.740066   0.000000
    20  H    0.949746   3.729607   4.064490   2.031171   0.000000
    21  C    2.406945   1.390889   3.272678   1.394891   3.263520
    22  H    3.729747   0.949843   2.342925   3.268069   4.679370
    23  H    2.033181   3.268541   4.689659   0.949747   2.331159
    24  H    3.263351   2.039453   4.059507   2.042795   4.050092
                   21         22         23         24
    21  C    0.000000
    22  H    2.037493   0.000000
    23  H    2.043001   4.056081   0.000000
    24  H    0.949386   2.339229   2.345581   0.000000
 Stoichiometry    C13H10O
 Framework group  C1[X(C13H10O)]
 Deg. of freedom    66
 Full point group                 C1      NOp   1
 Largest Abelian subgroup         C1      NOp   1
 Largest concise Abelian subgroup C1      NOp   1
                         Standard orientation:                         
 ---------------------------------------------------------------------
 Center     Atomic      Atomic             Coordinates (Angstroms)
 Number     Number       Type             X           Y           Z
 ---------------------------------------------------------------------
      1          6           0        1.311960    0.372722    0.230094
      2          6           0        1.569961   -0.943011    0.624031
      3          6           0        2.292080    1.080925   -0.475390
      4          6           0        2.784832   -1.547158    0.309034
      5          1           0        0.913235   -1.428197    1.109915
      6          6           0       -0.015346    1.033635    0.432715
      7          6           0        3.507100    0.480532   -0.770445
      8          1           0        2.124561    1.974019   -0.752929
      9          6           0        3.747815   -0.830864   -0.387533
     10          1           0        2.953633   -2.445095    0.569691
     11          6           0       -1.284493    0.314120    0.105463
     12          8           0       -0.062924    2.173140    0.870127
     13          1           0        4.175985    0.968633   -1.235233
     14          1           0        4.577144   -1.240533   -0.603723
     15          6           0       -1.414024   -1.072661    0.215287
     16          6           0       -2.400601    1.085632   -0.241205
     17          6           0       -2.651378   -1.673639   -0.013993
     18          1           0       -0.661810   -1.604565    0.445603
     19          6           0       -3.621028    0.481550   -0.492076
     20          1           0       -2.319602    2.029763   -0.305042
     21          6           0       -3.752925   -0.901491   -0.367484
     22          1           0       -2.742328   -2.615177    0.072235
     23          1           0       -4.367944    1.009084   -0.748679
     24          1           0       -4.593200   -1.314804   -0.523833
 ---------------------------------------------------------------------
 Rotational constants (GHZ):           1.6618750           0.4224292           0.3574655
 Leave Link  202 at Tue Nov 22 14:59:36 2022, MaxMem= 16106127360 cpu:               0.3 elap:               0.0
 (Enter /opt/ap/G16/B01/g16/l301.exe)
 Standard basis: 6-311++G(d,p) (5D, 7F)
 Ernie: Thresh=  0.10000D-02 Tol=  0.10000D-05 Strict=F.
 There are   392 symmetry adapted cartesian basis functions of A   symmetry.
 There are   378 symmetry adapted basis functions of A   symmetry.
   378 basis functions,   594 primitive gaussians,   392 cartesian basis functions
    48 alpha electrons       48 beta electrons
       nuclear repulsion energy       784.3568407375 Hartrees.
 IExCor= 4639 DFT=T Ex+Corr=wB97XD ExCW=0 ScaHFX=  1.000000
 ScaDFX=  1.000000  1.000000  1.000000  1.000000 ScalE2=  1.000000  1.000000
 IRadAn=      5 IRanWt=     -1 IRanGd=            0 ICorTp=0 IEmpDi=121
 HFx  wShort=  0.000000 wLong=  0.200000 cFull=  0.222036 cShort=  0.000000 cLong=  0.777964
 DFx  wShort=  0.000000 wLong=  0.200000 cFull=  0.000000 cShort=  0.000000 cLong=  1.000000
 NAtoms=   24 NActive=   24 NUniq=   24 SFac= 1.00D+00 NAtFMM=   60 NAOKFM=F Big=F
 Integral buffers will be    131072 words long.
 Raffenetti 2 integral format.
 Two-electron integral symmetry is turned on.
 R6Disp:  Grimme-D2 Dispersion energy=       -0.0139509912 Hartrees.
 Nuclear repulsion after empirical dispersion term =      784.3428897463 Hartrees.
 Leave Link  301 at Tue Nov 22 14:59:36 2022, MaxMem= 16106127360 cpu:               1.2 elap:               0.0
 (Enter /opt/ap/G16/B01/g16/l302.exe)
 NPDir=0 NMtPBC=     1 NCelOv=     1 NCel=       1 NClECP=     1 NCelD=      1
         NCelK=      1 NCelE2=     1 NClLst=     1 CellRange=     0.0.
 One-electron integrals computed using PRISM.
 One-electron integral symmetry used in STVInt
 NBasis=   378 RedAO= T EigKep=  1.23D-06  NBF=   378
 NBsUse=   376 1.00D-06 EigRej=  7.93D-07 NBFU=   376
 Precomputing XC quadrature grid using
 IXCGrd= 4 IRadAn=           5 IRanWt=          -1 IRanGd=           0 AccXCQ= 0.00D+00.
 Generated NRdTot=       0 NPtTot=           0 NUsed=           0 NTot=          32
 NSgBfM=   392   392   392   392   392 MxSgAt=    24 MxSgA2=    24.
 Leave Link  302 at Tue Nov 22 14:59:36 2022, MaxMem= 16106127360 cpu:               8.4 elap:               0.3
 (Enter /opt/ap/G16/B01/g16/l303.exe)
 DipDrv:  MaxL=1.
 Leave Link  303 at Tue Nov 22 14:59:36 2022, MaxMem= 16106127360 cpu:               1.6 elap:               0.1
 (Enter /opt/ap/G16/B01/g16/l401.exe)
 ExpMin= 3.60D-02 ExpMax= 8.59D+03 ExpMxC= 1.30D+03 IAcc=3 IRadAn=         5 AccDes= 0.00D+00
 Harris functional with IExCor= 4639 and IRadAn=       5 diagonalized for initial guess.
 HarFok:  IExCor= 4639 AccDes= 0.00D+00 IRadAn=         5 IDoV= 1 UseB2=F ITyADJ=14
 ICtDFT=  3500011 ScaDFX=  1.000000  1.000000  1.000000  1.000000
 FoFCou: FMM=F IPFlag=           0 FMFlag=      100000 FMFlg1=           0
         NFxFlg=           0 DoJE=T BraDBF=F KetDBF=T FulRan=T
         wScrn=  0.000000 ICntrl=       500 IOpCl=  0 I1Cent=   200000004 NGrid=           0
         NMat0=    1 NMatS0=      1 NMatT0=    0 NMatD0=    1 NMtDS0=    0 NMtDT0=    0
 Petite list used in FoFCou.
 Harris En= -550.895789767230    
 JPrj=0 DoOrth=F DoCkMO=F.
 Leave Link  401 at Tue Nov 22 14:59:37 2022, MaxMem= 16106127360 cpu:              22.6 elap:               0.7
 (Enter /opt/ap/G16/B01/g16/l502.exe)
 Integral symmetry usage will be decided dynamically.
 Closed shell SCF:
 Using DIIS extrapolation, IDIIS=  1040.
 NGot= 16106127360 LenX= 16105803762 LenY= 16105649657
 Requested convergence on RMS density matrix=1.00D-08 within 512 cycles.
 Requested convergence on MAX density matrix=1.00D-06.
 Requested convergence on             energy=1.00D-06.
 No special actions if energy rises.
 Fock matrices will be formed incrementally for  20 cycles.

 Cycle   1  Pass 1  IDiag  1:
 FoFJK:  IHMeth= 1 ICntrl=       0 DoSepK=T KAlg= 0 I1Cent=           0 FoldK=F
 IRaf=         1 NMat=       1 IRICut=       1 DoRegI=T DoRafI=F ISym2E= 0 IDoP0=0 IntGTp=1.
 FoFCou: FMM=F IPFlag=           0 FMFlag=      100000 FMFlg1=           0
         NFxFlg=           0 DoJE=T BraDBF=F KetDBF=F FulRan=T
         wScrn=  0.000000 ICntrl=       500 IOpCl=  0 I1Cent=           0 NGrid=           0
         NMat0=    1 NMatS0=      1 NMatT0=    0 NMatD0=    1 NMtDS0=    0 NMtDT0=    0
 Symmetry not used in FoFCou.
 E= -576.254162991622    
 DIIS: error= 5.10D-02 at cycle   1 NSaved=   1.
 NSaved= 1 IEnMin= 1 EnMin= -576.254162991622     IErMin= 1 ErrMin= 5.10D-02
 ErrMax= 5.10D-02  0.00D+00 EMaxC= 1.00D-01 BMatC= 1.20D+00 BMatP= 1.20D+00
 IDIUse=3 WtCom= 4.90D-01 WtEn= 5.10D-01
 Coeff-Com:  0.100D+01
 Coeff-En:   0.100D+01
 Coeff:      0.100D+01
 Gap=     0.407 Goal=   None    Shift=    0.000
 GapD=    0.407 DampG=2.000 DampE=0.500 DampFc=1.0000 IDamp=-1.
 RMSDP=3.30D-02 MaxDP=5.82D+00              OVMax= 1.27D-01

 Cycle   2  Pass 1  IDiag  1:
 RMSU=  1.44D-02    CP:  6.48D-01
 E= -576.344084854721     Delta-E=       -0.089921863099 Rises=F Damp=F
 DIIS: error= 1.24D-02 at cycle   2 NSaved=   2.
 NSaved= 2 IEnMin= 2 EnMin= -576.344084854721     IErMin= 2 ErrMin= 1.24D-02
 ErrMax= 1.24D-02  0.00D+00 EMaxC= 1.00D-01 BMatC= 7.48D-02 BMatP= 1.20D+00
 IDIUse=3 WtCom= 8.76D-01 WtEn= 1.24D-01
 Coeff-Com:  0.126D+00 0.874D+00
 Coeff-En:   0.143D+00 0.857D+00
 Coeff:      0.128D+00 0.872D+00
 Gap=     0.429 Goal=   None    Shift=    0.000
 RMSDP=8.23D-03 MaxDP=4.45D-01 DE=-8.99D-02 OVMax= 1.55D-01

 Cycle   3  Pass 1  IDiag  1:
 RMSU=  6.58D-03    CP:  6.57D-01  6.60D-01
 E= -576.361514229287     Delta-E=       -0.017429374565 Rises=F Damp=F
 DIIS: error= 1.26D-02 at cycle   3 NSaved=   3.
 NSaved= 3 IEnMin= 3 EnMin= -576.361514229287     IErMin= 2 ErrMin= 1.24D-02
 ErrMax= 1.26D-02  0.00D+00 EMaxC= 1.00D-01 BMatC= 5.38D-02 BMatP= 7.48D-02
 IDIUse=3 WtCom= 8.74D-01 WtEn= 1.26D-01
 Coeff-Com:  0.238D-01 0.462D+00 0.514D+00
 Coeff-En:   0.000D+00 0.426D+00 0.574D+00
 Coeff:      0.208D-01 0.458D+00 0.522D+00
 Gap=     0.349 Goal=   None    Shift=    0.000
 RMSDP=5.82D-03 MaxDP=7.85D-01 DE=-1.74D-02 OVMax= 5.78D-02

 Cycle   4  Pass 1  IDiag  1:
 RMSU=  2.01D-03    CP:  6.09D-01  7.91D-01  5.33D-01
 E= -576.409220565543     Delta-E=       -0.047706336256 Rises=F Damp=F
 DIIS: error= 1.73D-03 at cycle   4 NSaved=   4.
 NSaved= 4 IEnMin= 4 EnMin= -576.409220565543     IErMin= 4 ErrMin= 1.73D-03
 ErrMax= 1.73D-03  0.00D+00 EMaxC= 1.00D-01 BMatC= 8.41D-04 BMatP= 5.38D-02
 IDIUse=3 WtCom= 9.83D-01 WtEn= 1.73D-02
 Coeff-Com:  0.934D-02 0.194D+00 0.239D+00 0.558D+00
 Coeff-En:   0.000D+00 0.000D+00 0.000D+00 0.100D+01
 Coeff:      0.918D-02 0.190D+00 0.235D+00 0.566D+00
 Gap=     0.321 Goal=   None    Shift=    0.000
 RMSDP=5.75D-04 MaxDP=5.89D-02 DE=-4.77D-02 OVMax= 6.34D-03

 Cycle   5  Pass 1  IDiag  1:
 RMSU=  4.51D-04    CP:  6.06D-01  8.08D-01  5.34D-01  1.01D+00
 E= -576.409811829152     Delta-E=       -0.000591263609 Rises=F Damp=F
 DIIS: error= 4.71D-04 at cycle   5 NSaved=   5.
 NSaved= 5 IEnMin= 5 EnMin= -576.409811829152     IErMin= 5 ErrMin= 4.71D-04
 ErrMax= 4.71D-04  0.00D+00 EMaxC= 1.00D-01 BMatC= 7.83D-05 BMatP= 8.41D-04
 IDIUse=3 WtCom= 9.95D-01 WtEn= 4.71D-03
 Coeff-Com: -0.589D-03-0.839D-02-0.549D-03 0.220D+00 0.790D+00
 Coeff-En:   0.000D+00 0.000D+00 0.000D+00 0.000D+00 0.100D+01
 Coeff:     -0.586D-03-0.835D-02-0.546D-03 0.219D+00 0.791D+00
 Gap=     0.323 Goal=   None    Shift=    0.000
 RMSDP=3.29D-04 MaxDP=3.49D-02 DE=-5.91D-04 OVMax= 2.35D-03

 Cycle   6  Pass 1  IDiag  1:
 RMSU=  2.61D-04    CP:  6.04D-01  8.15D-01  5.50D-01  1.03D+00  8.84D-01
 E= -576.409871527613     Delta-E=       -0.000059698462 Rises=F Damp=F
 DIIS: error= 2.21D-04 at cycle   6 NSaved=   6.
 NSaved= 6 IEnMin= 6 EnMin= -576.409871527613     IErMin= 6 ErrMin= 2.21D-04
 ErrMax= 2.21D-04  0.00D+00 EMaxC= 1.00D-01 BMatC= 1.84D-05 BMatP= 7.83D-05
 IDIUse=3 WtCom= 9.98D-01 WtEn= 2.21D-03
 Coeff-Com: -0.122D-02-0.230D-01-0.227D-01 0.654D-01 0.433D+00 0.549D+00
 Coeff-En:   0.000D+00 0.000D+00 0.000D+00 0.000D+00 0.000D+00 0.100D+01
 Coeff:     -0.122D-02-0.230D-01-0.227D-01 0.652D-01 0.432D+00 0.550D+00
 Gap=     0.323 Goal=   None    Shift=    0.000
 RMSDP=9.87D-05 MaxDP=6.16D-03 DE=-5.97D-05 OVMax= 1.26D-03

 Cycle   7  Pass 1  IDiag  1:
 RMSU=  7.27D-05    CP:  6.04D-01  8.16D-01  5.48D-01  1.05D+00  8.96D-01
                    CP:  8.87D-01
 E= -576.409890272136     Delta-E=       -0.000018744522 Rises=F Damp=F
 DIIS: error= 4.81D-05 at cycle   7 NSaved=   7.
 NSaved= 7 IEnMin= 7 EnMin= -576.409890272136     IErMin= 7 ErrMin= 4.81D-05
 ErrMax= 4.81D-05  0.00D+00 EMaxC= 1.00D-01 BMatC= 4.84D-07 BMatP= 1.84D-05
 IDIUse=1 WtCom= 1.00D+00 WtEn= 0.00D+00
 Coeff-Com: -0.225D-03-0.434D-02-0.514D-02-0.106D-01-0.940D-02 0.108D+00
 Coeff-Com:  0.922D+00
 Coeff:     -0.225D-03-0.434D-02-0.514D-02-0.106D-01-0.940D-02 0.108D+00
 Coeff:      0.922D+00
 Gap=     0.323 Goal=   None    Shift=    0.000
 RMSDP=3.99D-05 MaxDP=2.35D-03 DE=-1.87D-05 OVMax= 5.23D-04

 Cycle   8  Pass 1  IDiag  1:
 RMSU=  1.51D-05    CP:  6.04D-01  8.17D-01  5.49D-01  1.05D+00  9.04D-01
                    CP:  1.01D+00  1.07D+00
 E= -576.409891450138     Delta-E=       -0.000001178003 Rises=F Damp=F
 DIIS: error= 1.31D-05 at cycle   8 NSaved=   8.
 NSaved= 8 IEnMin= 8 EnMin= -576.409891450138     IErMin= 8 ErrMin= 1.31D-05
 ErrMax= 1.31D-05  0.00D+00 EMaxC= 1.00D-01 BMatC= 8.20D-08 BMatP= 4.84D-07
 IDIUse=1 WtCom= 1.00D+00 WtEn= 0.00D+00
 Coeff-Com:  0.484D-04 0.704D-03 0.260D-03-0.125D-01-0.570D-01-0.221D-01
 Coeff-Com:  0.321D+00 0.770D+00
 Coeff:      0.484D-04 0.704D-03 0.260D-03-0.125D-01-0.570D-01-0.221D-01
 Coeff:      0.321D+00 0.770D+00
 Gap=     0.323 Goal=   None    Shift=    0.000
 RMSDP=1.16D-05 MaxDP=8.15D-04 DE=-1.18D-06 OVMax= 1.77D-04

 Cycle   9  Pass 1  IDiag  1:
 RMSU=  4.92D-06    CP:  6.04D-01  8.17D-01  5.49D-01  1.05D+00  9.04D-01
                    CP:  1.04D+00  1.11D+00  1.18D+00
 E= -576.409891606845     Delta-E=       -0.000000156706 Rises=F Damp=F
 DIIS: error= 5.16D-06 at cycle   9 NSaved=   9.
 NSaved= 9 IEnMin= 9 EnMin= -576.409891606845     IErMin= 9 ErrMin= 5.16D-06
 ErrMax= 5.16D-06  0.00D+00 EMaxC= 1.00D-01 BMatC= 5.70D-09 BMatP= 8.20D-08
 IDIUse=1 WtCom= 1.00D+00 WtEn= 0.00D+00
 Coeff-Com:  0.389D-04 0.686D-03 0.673D-03-0.876D-03-0.987D-02-0.158D-01
 Coeff-Com: -0.561D-01 0.151D+00 0.930D+00
 Coeff:      0.389D-04 0.686D-03 0.673D-03-0.876D-03-0.987D-02-0.158D-01
 Coeff:     -0.561D-01 0.151D+00 0.930D+00
 Gap=     0.323 Goal=   None    Shift=    0.000
 RMSDP=7.08D-06 MaxDP=6.77D-04 DE=-1.57D-07 OVMax= 7.34D-05

 Cycle  10  Pass 1  IDiag  1:
 RMSU=  2.25D-06    CP:  6.04D-01  8.17D-01  5.50D-01  1.05D+00  8.99D-01
                    CP:  1.04D+00  1.12D+00  1.32D+00  1.31D+00
 E= -576.409891621712     Delta-E=       -0.000000014868 Rises=F Damp=F
 DIIS: error= 7.61D-07 at cycle  10 NSaved=  10.
 NSaved=10 IEnMin=10 EnMin= -576.409891621712     IErMin=10 ErrMin= 7.61D-07
 ErrMax= 7.61D-07  0.00D+00 EMaxC= 1.00D-01 BMatC= 4.16D-10 BMatP= 5.70D-09
 IDIUse=1 WtCom= 1.00D+00 WtEn= 0.00D+00
 Coeff-Com: -0.131D-05 0.513D-05 0.284D-04 0.118D-02 0.389D-02 0.143D-02
 Coeff-Com: -0.276D-01-0.530D-01 0.893D-01 0.985D+00
 Coeff:     -0.131D-05 0.513D-05 0.284D-04 0.118D-02 0.389D-02 0.143D-02
 Coeff:     -0.276D-01-0.530D-01 0.893D-01 0.985D+00
 Gap=     0.323 Goal=   None    Shift=    0.000
 RMSDP=1.54D-06 MaxDP=1.01D-04 DE=-1.49D-08 OVMax= 1.55D-05

 Cycle  11  Pass 1  IDiag  1:
 RMSU=  7.57D-07    CP:  6.04D-01  8.17D-01  5.50D-01  1.05D+00  8.98D-01
                    CP:  1.04D+00  1.11D+00  1.36D+00  1.37D+00  1.08D+00
 E= -576.409891622733     Delta-E=       -0.000000001021 Rises=F Damp=F
 DIIS: error= 2.71D-07 at cycle  11 NSaved=  11.
 NSaved=11 IEnMin=11 EnMin= -576.409891622733     IErMin=11 ErrMin= 2.71D-07
 ErrMax= 2.71D-07  0.00D+00 EMaxC= 1.00D-01 BMatC= 6.90D-11 BMatP= 4.16D-10
 IDIUse=1 WtCom= 1.00D+00 WtEn= 0.00D+00
 Coeff-Com: -0.264D-05-0.364D-04-0.302D-04 0.491D-03 0.183D-02 0.138D-02
 Coeff-Com: -0.592D-02-0.291D-01-0.338D-01 0.325D+00 0.740D+00
 Coeff:     -0.264D-05-0.364D-04-0.302D-04 0.491D-03 0.183D-02 0.138D-02
 Coeff:     -0.592D-02-0.291D-01-0.338D-01 0.325D+00 0.740D+00
 Gap=     0.323 Goal=   None    Shift=    0.000
 RMSDP=4.32D-07 MaxDP=4.26D-05 DE=-1.02D-09 OVMax= 4.27D-06

 Cycle  12  Pass 1  IDiag  1:
 RMSU=  2.16D-07    CP:  6.04D-01  8.17D-01  5.50D-01  1.05D+00  8.98D-01
                    CP:  1.04D+00  1.11D+00  1.36D+00  1.40D+00  1.13D+00
                    CP:  1.11D+00
 E= -576.409891622836     Delta-E=       -0.000000000103 Rises=F Damp=F
 DIIS: error= 1.58D-07 at cycle  12 NSaved=  12.
 NSaved=12 IEnMin=12 EnMin= -576.409891622836     IErMin=12 ErrMin= 1.58D-07
 ErrMax= 1.58D-07  0.00D+00 EMaxC= 1.00D-01 BMatC= 5.78D-12 BMatP= 6.90D-11
 IDIUse=1 WtCom= 1.00D+00 WtEn= 0.00D+00
 Coeff-Com: -0.159D-06-0.638D-05-0.102D-04-0.715D-04-0.309D-03-0.138D-04
 Coeff-Com:  0.318D-02 0.333D-02-0.163D-01-0.866D-01 0.882D-01 0.101D+01
 Coeff:     -0.159D-06-0.638D-05-0.102D-04-0.715D-04-0.309D-03-0.138D-04
 Coeff:      0.318D-02 0.333D-02-0.163D-01-0.866D-01 0.882D-01 0.101D+01
 Gap=     0.323 Goal=   None    Shift=    0.000
 RMSDP=1.57D-07 MaxDP=8.85D-06 DE=-1.03D-10 OVMax= 2.30D-06

 Cycle  13  Pass 1  IDiag  1:
 RMSU=  7.48D-08    CP:  6.04D-01  8.17D-01  5.50D-01  1.05D+00  8.98D-01
                    CP:  1.04D+00  1.11D+00  1.36D+00  1.40D+00  1.14D+00
                    CP:  1.21D+00  1.14D+00
 E= -576.409891622869     Delta-E=       -0.000000000033 Rises=F Damp=F
 DIIS: error= 6.52D-08 at cycle  13 NSaved=  13.
 NSaved=13 IEnMin=13 EnMin= -576.409891622869     IErMin=13 ErrMin= 6.52D-08
 ErrMax= 6.52D-08  0.00D+00 EMaxC= 1.00D-01 BMatC= 1.34D-12 BMatP= 5.78D-12
 IDIUse=1 WtCom= 1.00D+00 WtEn= 0.00D+00
 Coeff-Com:  0.214D-06 0.133D-05-0.608D-06-0.767D-04-0.304D-03-0.170D-03
 Coeff-Com:  0.169D-02 0.418D-02-0.210D-02-0.649D-01-0.547D-01 0.384D+00
 Coeff-Com:  0.732D+00
 Coeff:      0.214D-06 0.133D-05-0.608D-06-0.767D-04-0.304D-03-0.170D-03
 Coeff:      0.169D-02 0.418D-02-0.210D-02-0.649D-01-0.547D-01 0.384D+00
 Coeff:      0.732D+00
 Gap=     0.323 Goal=   None    Shift=    0.000
 RMSDP=4.80D-08 MaxDP=3.05D-06 DE=-3.30D-11 OVMax= 7.45D-07

 Cycle  14  Pass 1  IDiag  1:
 RMSU=  2.63D-08    CP:  6.04D-01  8.17D-01  5.50D-01  1.05D+00  8.98D-01
                    CP:  1.04D+00  1.11D+00  1.36D+00  1.40D+00  1.14D+00
                    CP:  1.26D+00  1.19D+00  1.00D+00
 E= -576.409891622864     Delta-E=        0.000000000005 Rises=F Damp=F
 DIIS: error= 3.03D-08 at cycle  14 NSaved=  14.
 NSaved=14 IEnMin=13 EnMin= -576.409891622869     IErMin=14 ErrMin= 3.03D-08
 ErrMax= 3.03D-08  0.00D+00 EMaxC= 1.00D-01 BMatC= 1.62D-13 BMatP= 1.34D-12
 IDIUse=1 WtCom= 1.00D+00 WtEn= 0.00D+00
 Coeff-Com:  0.668D-07 0.143D-05 0.195D-05-0.607D-05-0.109D-04-0.436D-04
 Coeff-Com: -0.190D-03 0.305D-03 0.234D-02 0.749D-03-0.294D-01-0.937D-01
 Coeff-Com:  0.115D+00 0.100D+01
 Coeff:      0.668D-07 0.143D-05 0.195D-05-0.607D-05-0.109D-04-0.436D-04
 Coeff:     -0.190D-03 0.305D-03 0.234D-02 0.749D-03-0.294D-01-0.937D-01
 Coeff:      0.115D+00 0.100D+01
 Gap=     0.323 Goal=   None    Shift=    0.000
 RMSDP=2.63D-08 MaxDP=2.46D-06 DE= 4.77D-12 OVMax= 4.74D-07

 Cycle  15  Pass 1  IDiag  1:
 RMSU=  9.31D-09    CP:  6.04D-01  8.17D-01  5.50D-01  1.05D+00  8.98D-01
                    CP:  1.04D+00  1.11D+00  1.36D+00  1.40D+00  1.14D+00
                    CP:  1.26D+00  1.19D+00  1.23D+00  1.11D+00
 E= -576.409891622858     Delta-E=        0.000000000007 Rises=F Damp=F
 DIIS: error= 1.18D-08 at cycle  15 NSaved=  15.
 NSaved=15 IEnMin=13 EnMin= -576.409891622869     IErMin=15 ErrMin= 1.18D-08
 ErrMax= 1.18D-08  0.00D+00 EMaxC= 1.00D-01 BMatC= 3.98D-14 BMatP= 1.62D-13
 IDIUse=1 WtCom= 1.00D+00 WtEn= 0.00D+00
 Coeff-Com: -0.116D-07 0.332D-06 0.921D-06 0.113D-04 0.506D-04 0.156D-04
 Coeff-Com: -0.356D-03-0.602D-03 0.135D-02 0.121D-01 0.166D-03-0.980D-01
 Coeff-Com: -0.877D-01 0.375D+00 0.798D+00
 Coeff:     -0.116D-07 0.332D-06 0.921D-06 0.113D-04 0.506D-04 0.156D-04
 Coeff:     -0.356D-03-0.602D-03 0.135D-02 0.121D-01 0.166D-03-0.980D-01
 Coeff:     -0.877D-01 0.375D+00 0.798D+00
 Gap=     0.323 Goal=   None    Shift=    0.000
 RMSDP=8.19D-09 MaxDP=8.44D-07 DE= 6.59D-12 OVMax= 1.75D-07

 SCF Done:  E(RwB97XD) =  -576.409891623     A.U. after   15 cycles
            NFock= 15  Conv=0.82D-08     -V/T= 2.0000
 KE= 5.764383158436D+02 PE=-2.910819981538D+03 EE= 9.736288843257D+02
 Leave Link  502 at Tue Nov 22 15:00:13 2022, MaxMem= 16106127360 cpu:            1141.6 elap:              35.8
 (Enter /opt/ap/G16/B01/g16/l601.exe)
 Copying SCF densities to generalized density rwf, IOpCl= 0 IROHF=0.

 **********************************************************************

            Population analysis using the SCF Density.

 **********************************************************************

 Orbital symmetries:
       Occupied  (A) (A) (A) (A) (A) (A) (A) (A) (A) (A) (A) (A)
                 (A) (A) (A) (A) (A) (A) (A) (A) (A) (A) (A) (A)
                 (A) (A) (A) (A) (A) (A) (A) (A) (A) (A) (A) (A)
                 (A) (A) (A) (A) (A) (A) (A) (A) (A) (A) (A) (A)
       Virtual   (A) (A) (A) (A) (A) (A) (A) (A) (A) (A) (A) (A)
                 (A) (A) (A) (A) (A) (A) (A) (A) (A) (A) (A) (A)
                 (A) (A) (A) (A) (A) (A) (A) (A) (A) (A) (A) (A)
                 (A) (A) (A) (A) (A) (A) (A) (A) (A) (A) (A) (A)
                 (A) (A) (A) (A) (A) (A) (A) (A) (A) (A) (A) (A)
                 (A) (A) (A) (A) (A) (A) (A) (A) (A) (A) (A) (A)
                 (A) (A) (A) (A) (A) (A) (A) (A) (A) (A) (A) (A)
                 (A) (A) (A) (A) (A) (A) (A) (A) (A) (A) (A) (A)
                 (A) (A) (A) (A) (A) (A) (A) (A) (A) (A) (A) (A)
                 (A) (A) (A) (A) (A) (A) (A) (A) (A) (A) (A) (A)
                 (A) (A) (A) (A) (A) (A) (A) (A) (A) (A) (A) (A)
                 (A) (A) (A) (A) (A) (A) (A) (A) (A) (A) (A) (A)
                 (A) (A) (A) (A) (A) (A) (A) (A) (A) (A) (A) (A)
                 (A) (A) (A) (A) (A) (A) (A) (A) (A) (A) (A) (A)
                 (A) (A) (A) (A) (A) (A) (A) (A) (A) (A) (A) (A)
                 (A) (A) (A) (A) (A) (A) (A) (A) (A) (A) (A) (A)
                 (A) (A) (A) (A) (A) (A) (A) (A) (A) (A) (A) (A)
                 (A) (A) (A) (A) (A) (A) (A) (A) (A) (A) (A) (A)
                 (A) (A) (A) (A) (A) (A) (A) (A) (A) (A) (A) (A)
                 (A) (A) (A) (A) (A) (A) (A) (A) (A) (A) (A) (A)
                 (A) (A) (A) (A) (A) (A) (A) (A) (A) (A) (A) (A)
                 (A) (A) (A) (A) (A) (A) (A) (A) (A) (A) (A) (A)
                 (A) (A) (A) (A) (A) (A) (A) (A) (A) (A) (A) (A)
                 (A) (A) (A) (A) (A) (A) (A) (A) (A) (A) (A) (A)
                 (A) (A) (A) (A) (A) (A) (A) (A) (A) (A) (A) (A)
                 (A) (A) (A) (A) (A) (A) (A) (A) (A) (A) (A) (A)
                 (A) (A) (A) (A) (A) (A) (A) (A) (A) (A) (A) (A)
                 (A) (A) (A) (A)
 The electronic state is 1-A.
 Alpha  occ. eigenvalues --  -19.23993 -10.38357 -10.30706 -10.30654 -10.28994
 Alpha  occ. eigenvalues --  -10.28922 -10.28659 -10.28556 -10.28514 -10.28482
 Alpha  occ. eigenvalues --  -10.28469 -10.28312 -10.28281 -10.28182  -1.15009
 Alpha  occ. eigenvalues --   -0.98051  -0.97435  -0.89335  -0.87529  -0.87348
 Alpha  occ. eigenvalues --   -0.86737  -0.76917  -0.74444  -0.73422  -0.72492
 Alpha  occ. eigenvalues --   -0.68209  -0.65210  -0.63758  -0.59950  -0.57275
 Alpha  occ. eigenvalues --   -0.56415  -0.55775  -0.54459  -0.53847  -0.53245
 Alpha  occ. eigenvalues --   -0.52471  -0.49693  -0.47437  -0.46935  -0.46077
 Alpha  occ. eigenvalues --   -0.45636  -0.44833  -0.44255  -0.35209  -0.34771
 Alpha  occ. eigenvalues --   -0.34367  -0.34017  -0.32989
 Alpha virt. eigenvalues --   -0.00703   0.03486   0.03819   0.04328   0.04807
 Alpha virt. eigenvalues --    0.04913   0.04992   0.05759   0.05917   0.07369
 Alpha virt. eigenvalues --    0.07522   0.08224   0.09154   0.10026   0.10188
 Alpha virt. eigenvalues --    0.11588   0.11721   0.12569   0.13158   0.14262
 Alpha virt. eigenvalues --    0.15142   0.15383   0.15836   0.16209   0.16714
 Alpha virt. eigenvalues --    0.16896   0.17058   0.17316   0.17589   0.17998
 Alpha virt. eigenvalues --    0.18241   0.18673   0.19162   0.19448   0.19685
 Alpha virt. eigenvalues --    0.19824   0.20162   0.20667   0.21099   0.21559
 Alpha virt. eigenvalues --    0.21939   0.22218   0.22756   0.23465   0.23741
 Alpha virt. eigenvalues --    0.24411   0.24557   0.24916   0.25419   0.25739
 Alpha virt. eigenvalues --    0.25836   0.26992   0.27185   0.28073   0.28745
 Alpha virt. eigenvalues --    0.28981   0.29170   0.30418   0.31044   0.31120
 Alpha virt. eigenvalues --    0.31747   0.32453   0.32746   0.33439   0.33836
 Alpha virt. eigenvalues --    0.34305   0.34618   0.35140   0.35393   0.35744
 Alpha virt. eigenvalues --    0.36587   0.36851   0.37132   0.38219   0.38439
 Alpha virt. eigenvalues --    0.38966   0.39147   0.40845   0.41177   0.41838
 Alpha virt. eigenvalues --    0.42452   0.43181   0.43339   0.44536   0.45126
 Alpha virt. eigenvalues --    0.45609   0.46304   0.46508   0.47258   0.47970
 Alpha virt. eigenvalues --    0.50893   0.56387   0.57365   0.58026   0.59430
 Alpha virt. eigenvalues --    0.61030   0.62271   0.62746   0.63381   0.63710
 Alpha virt. eigenvalues --    0.63932   0.64346   0.65223   0.65380   0.65447
 Alpha virt. eigenvalues --    0.66694   0.67501   0.67815   0.68387   0.69539
 Alpha virt. eigenvalues --    0.71082   0.71505   0.72527   0.73666   0.74046
 Alpha virt. eigenvalues --    0.75374   0.75933   0.77235   0.77364   0.78629
 Alpha virt. eigenvalues --    0.80225   0.80512   0.81254   0.82513   0.82849
 Alpha virt. eigenvalues --    0.83505   0.83819   0.85000   0.87129   0.88006
 Alpha virt. eigenvalues --    0.89329   0.90733   0.91475   0.93345   0.93819
 Alpha virt. eigenvalues --    0.93893   0.94412   0.95085   0.95237   0.95905
 Alpha virt. eigenvalues --    0.97104   0.97525   0.99380   1.00553   1.01374
 Alpha virt. eigenvalues --    1.01872   1.02625   1.03726   1.04168   1.05612
 Alpha virt. eigenvalues --    1.06862   1.07736   1.11044   1.11948   1.13098
 Alpha virt. eigenvalues --    1.13688   1.16576   1.17014   1.17518   1.17902
 Alpha virt. eigenvalues --    1.19567   1.20646   1.22337   1.25223   1.26533
 Alpha virt. eigenvalues --    1.28607   1.29917   1.31686   1.36134   1.38615
 Alpha virt. eigenvalues --    1.39084   1.44720   1.46042   1.47256   1.54803
 Alpha virt. eigenvalues --    1.56829   1.58322   1.59215   1.59512   1.60991
 Alpha virt. eigenvalues --    1.61985   1.62511   1.64787   1.65367   1.66636
 Alpha virt. eigenvalues --    1.68168   1.68236   1.68629   1.69176   1.72457
 Alpha virt. eigenvalues --    1.74053   1.75605   1.76484   1.76544   1.78631
 Alpha virt. eigenvalues --    1.80140   1.81002   1.86191   1.87204   1.88556
 Alpha virt. eigenvalues --    1.89158   1.91027   1.92158   1.93461   1.93857
 Alpha virt. eigenvalues --    1.96356   1.96458   1.99231   1.99947   2.00996
 Alpha virt. eigenvalues --    2.01339   2.02796   2.04729   2.05145   2.05740
 Alpha virt. eigenvalues --    2.06346   2.07149   2.09205   2.09586   2.10749
 Alpha virt. eigenvalues --    2.11095   2.14587   2.16122   2.18829   2.20772
 Alpha virt. eigenvalues --    2.24222   2.26160   2.27637   2.28287   2.30736
 Alpha virt. eigenvalues --    2.33105   2.42749   2.44357   2.47405   2.48580
 Alpha virt. eigenvalues --    2.49033   2.50093   2.50702   2.51100   2.53442
 Alpha virt. eigenvalues --    2.58978   2.59866   2.61075   2.66705   2.69052
 Alpha virt. eigenvalues --    2.74345   2.76962   2.78538   2.80855   2.81535
 Alpha virt. eigenvalues --    2.82565   2.83880   2.84418   2.86551   2.91023
 Alpha virt. eigenvalues --    2.91649   2.92407   2.94086   2.95002   2.96091
 Alpha virt. eigenvalues --    2.97453   2.98313   2.98809   3.00350   3.00454
 Alpha virt. eigenvalues --    3.00719   3.01698   3.02084   3.03042   3.04987
 Alpha virt. eigenvalues --    3.06084   3.10134   3.13738   3.15317   3.16771
 Alpha virt. eigenvalues --    3.20104   3.21295   3.22283   3.25166   3.25853
 Alpha virt. eigenvalues --    3.28803   3.31187   3.32229   3.36711   3.45039
 Alpha virt. eigenvalues --    3.48853   3.49792   3.51618   3.52696   3.65300
 Alpha virt. eigenvalues --    3.69189   3.71396   3.71963   3.74682   3.77359
 Alpha virt. eigenvalues --    3.83328   3.88556   3.91491   3.97302   4.31618
 Alpha virt. eigenvalues --    4.36850   4.37708   4.39197   4.40597   4.41925
 Alpha virt. eigenvalues --    4.44013   4.51278   4.51574   4.55338   4.95166
 Alpha virt. eigenvalues --    4.95860   5.21638   5.35329   5.84620  23.87538
 Alpha virt. eigenvalues --   23.96452  23.98659  24.17095  24.18486  24.24260
 Alpha virt. eigenvalues --   24.24976  24.30187  24.31161  24.34048  24.34125
 Alpha virt. eigenvalues --   24.43877  24.44138  50.14298
          Condensed to atoms (all electrons):
               1          2          3          4          5          6
     1  C   16.396941  -0.693444   0.446549  -1.073390  -0.076949  -7.797919
     2  C   -0.693444  11.091576  -4.372694  -0.314623   0.474734   0.367031
     3  C    0.446549  -4.372694  13.081313   0.109346  -0.055052  -4.094318
     4  C   -1.073390  -0.314623   0.109346   6.219553  -0.030112   0.711278
     5  H   -0.076949   0.474734  -0.055052  -0.030112   0.608200   0.097321
     6  C   -7.797919   0.367031  -4.094318   0.711278   0.097321  21.535696
     7  C   -0.823250   0.593657  -0.575917  -0.218214   0.037745   0.615649
     8  H    0.104106   0.020971   0.438626   0.004258  -0.000163  -0.055345
     9  C   -0.091882  -0.659533   0.497775   0.499115  -0.062321  -0.361659
    10  H   -0.017084  -0.079292  -0.007341   0.483010  -0.011623   0.012025
    11  C   -2.172108   0.780215   0.541818   0.311735   0.005759  -4.190868
    12  O    0.108539   0.120821  -0.096993   0.014620  -0.012510   0.187454
    13  H   -0.011203   0.007494  -0.083043   0.011217   0.001942   0.018791
    14  H    0.044383  -0.012605   0.010581  -0.083065  -0.001181  -0.027503
    15  C    2.114527  -1.484993   1.284731  -0.357927  -0.169432  -1.613013
    16  C   -0.812135   0.163175  -0.543494   0.054735   0.032480   0.791849
    17  C   -0.386190   0.301489  -0.489400  -0.051572   0.041397   0.615745
    18  H    0.231265  -0.187398   0.213753  -0.112815  -0.079304  -0.203480
    19  C   -0.702002   0.184435  -0.042136   0.011476   0.004340   0.304421
    20  H   -0.045500   0.016525  -0.037924   0.001199  -0.000586   0.024632
    21  C    0.271184  -0.225047   0.124885  -0.023952  -0.009763  -0.010508
    22  H   -0.047396   0.030924  -0.019876   0.010566   0.007341   0.025452
    23  H    0.000095   0.000413   0.003278  -0.000252   0.000728   0.003432
    24  H    0.007859  -0.006375   0.002570  -0.000749  -0.000413  -0.009870
               7          8          9         10         11         12
     1  C   -0.823250   0.104106  -0.091882  -0.017084  -2.172108   0.108539
     2  C    0.593657   0.020971  -0.659533  -0.079292   0.780215   0.120821
     3  C   -0.575917   0.438626   0.497775  -0.007341   0.541818  -0.096993
     4  C   -0.218214   0.004258   0.499115   0.483010   0.311735   0.014620
     5  H    0.037745  -0.000163  -0.062321  -0.011623   0.005759  -0.012510
     6  C    0.615649  -0.055345  -0.361659   0.012025  -4.190868   0.187454
     7  C    6.390946  -0.125518   0.109125   0.010575  -0.179837  -0.042764
     8  H   -0.125518   0.473022   0.000094   0.000645  -0.048010  -0.010841
     9  C    0.109125   0.000094   5.773928  -0.054065   0.109445   0.013129
    10  H    0.010575   0.000645  -0.054065   0.487938   0.010420   0.000287
    11  C   -0.179837  -0.048010   0.109445   0.010420  13.700254   0.071920
    12  O   -0.042764  -0.010841   0.013129   0.000287   0.071920   7.978596
    13  H    0.489622  -0.014978  -0.083396   0.000131  -0.002124   0.000073
    14  H   -0.077337   0.001293   0.490895  -0.013470   0.001081   0.000176
    15  C   -0.102851   0.031743   0.134101  -0.016038  -2.177343  -0.147713
    16  C    0.153295  -0.031908  -0.064947   0.001572  -0.440394   0.031282
    17  C    0.057333  -0.006399  -0.043183   0.000685  -0.776451  -0.023065
    18  H    0.001989  -0.002019   0.013499  -0.001815  -0.120564   0.001622
    19  C    0.031101  -0.004313  -0.003838   0.000230  -0.089439   0.030561
    20  H   -0.002067  -0.001434   0.000090  -0.000116   0.027890  -0.017488
    21  C    0.000343   0.000978  -0.001537   0.000046  -0.831333  -0.016009
    22  H   -0.000717  -0.000016   0.001071   0.000011   0.096586   0.000483
    23  H    0.000239   0.000020   0.000040   0.000003  -0.002744   0.002495
    24  H    0.000229  -0.000032  -0.000079  -0.000009   0.006504  -0.000474
              13         14         15         16         17         18
     1  C   -0.011203   0.044383   2.114527  -0.812135  -0.386190   0.231265
     2  C    0.007494  -0.012605  -1.484993   0.163175   0.301489  -0.187398
     3  C   -0.083043   0.010581   1.284731  -0.543494  -0.489400   0.213753
     4  C    0.011217  -0.083065  -0.357927   0.054735  -0.051572  -0.112815
     5  H    0.001942  -0.001181  -0.169432   0.032480   0.041397  -0.079304
     6  C    0.018791  -0.027503  -1.613013   0.791849   0.615745  -0.203480
     7  C    0.489622  -0.077337  -0.102851   0.153295   0.057333   0.001989
     8  H   -0.014978   0.001293   0.031743  -0.031908  -0.006399  -0.002019
     9  C   -0.083396   0.490895   0.134101  -0.064947  -0.043183   0.013499
    10  H    0.000131  -0.013470  -0.016038   0.001572   0.000685  -0.001815
    11  C   -0.002124   0.001081  -2.177343  -0.440394  -0.776451  -0.120564
    12  O    0.000073   0.000176  -0.147713   0.031282  -0.023065   0.001622
    13  H    0.488518  -0.015612  -0.005712   0.005176   0.001604  -0.000149
    14  H   -0.015612   0.498078   0.003234  -0.002212  -0.001171  -0.000633
    15  C   -0.005712   0.003234  15.476409  -3.914812  -3.146626   0.914165
    16  C    0.005176  -0.002212  -3.914812   8.770333   1.648981  -0.093583
    17  C    0.001604  -0.001171  -3.146626   1.648981   8.408189  -0.300281
    18  H   -0.000149  -0.000633   0.914165  -0.093583  -0.300281   0.805874
    19  C    0.000266  -0.000302  -0.532666   0.267156  -0.285261   0.026648
    20  H   -0.000010   0.000007  -0.020279   0.441122   0.044881  -0.004413
    21  C    0.000122  -0.000050   1.131829  -0.646964   0.146951   0.032174
    22  H   -0.000032   0.000062  -0.194577   0.043724   0.462217  -0.051213
    23  H    0.000002   0.000003  -0.031197  -0.049839   0.003771  -0.001298
    24  H    0.000011  -0.000006   0.001031  -0.012254  -0.040663   0.000910
              19         20         21         22         23         24
     1  C   -0.702002  -0.045500   0.271184  -0.047396   0.000095   0.007859
     2  C    0.184435   0.016525  -0.225047   0.030924   0.000413  -0.006375
     3  C   -0.042136  -0.037924   0.124885  -0.019876   0.003278   0.002570
     4  C    0.011476   0.001199  -0.023952   0.010566  -0.000252  -0.000749
     5  H    0.004340  -0.000586  -0.009763   0.007341   0.000728  -0.000413
     6  C    0.304421   0.024632  -0.010508   0.025452   0.003432  -0.009870
     7  C    0.031101  -0.002067   0.000343  -0.000717   0.000239   0.000229
     8  H   -0.004313  -0.001434   0.000978  -0.000016   0.000020  -0.000032
     9  C   -0.003838   0.000090  -0.001537   0.001071   0.000040  -0.000079
    10  H    0.000230  -0.000116   0.000046   0.000011   0.000003  -0.000009
    11  C   -0.089439   0.027890  -0.831333   0.096586  -0.002744   0.006504
    12  O    0.030561  -0.017488  -0.016009   0.000483   0.002495  -0.000474
    13  H    0.000266  -0.000010   0.000122  -0.000032   0.000002   0.000011
    14  H   -0.000302   0.000007  -0.000050   0.000062   0.000003  -0.000006
    15  C   -0.532666  -0.020279   1.131829  -0.194577  -0.031197   0.001031
    16  C    0.267156   0.441122  -0.646964   0.043724  -0.049839  -0.012254
    17  C   -0.285261   0.044881   0.146951   0.462217   0.003771  -0.040663
    18  H    0.026648  -0.004413   0.032174  -0.051213  -0.001298   0.000910
    19  C    6.826139  -0.100139  -0.015957   0.018322   0.495463  -0.099890
    20  H   -0.100139   0.460100   0.006446   0.001187  -0.013052   0.001454
    21  C   -0.015957   0.006446   6.066534  -0.100292  -0.083489   0.505213
    22  H    0.018322   0.001187  -0.100292   0.502453   0.001240  -0.014207
    23  H    0.495463  -0.013052  -0.083489   0.001240   0.483513  -0.015513
    24  H   -0.099890   0.001454   0.505213  -0.014207  -0.015513   0.495765
 Mulliken charges:
               1
     1  C    1.025003
     2  C   -0.117456
     3  C   -0.337037
     4  C   -0.175440
     5  H    0.197420
     6  C   -0.946294
     7  C   -0.343378
     8  H    0.225219
     9  C   -0.215870
    10  H    0.193274
    11  C    1.367587
    12  O   -0.194203
    13  H    0.191289
    14  H    0.185354
    15  C   -1.176595
    16  C    0.207663
    17  C   -0.182982
    18  H   -0.082934
    19  C   -0.324615
    20  H    0.217473
    21  C   -0.321803
    22  H    0.226685
    23  H    0.202650
    24  H    0.178988
 Sum of Mulliken charges =  -0.00000
 Mulliken charges with hydrogens summed into heavy atoms:
               1
     1  C    1.025003
     2  C    0.079964
     3  C   -0.111818
     4  C    0.017834
     6  C   -0.946294
     7  C   -0.152089
     9  C   -0.030517
    11  C    1.367587
    12  O   -0.194203
    15  C   -1.259529
    16  C    0.425137
    17  C    0.043703
    19  C   -0.121965
    21  C   -0.142815
 Electronic spatial extent (au):  <R**2>=           3023.3076
 Charge=              0.0000 electrons
 Dipole moment (field-independent basis, Debye):
    X=             -0.0844    Y=             -2.9996    Z=             -1.4147  Tot=              3.3175
 Quadrupole moment (field-independent basis, Debye-Ang):
   XX=            -65.1823   YY=            -79.0268   ZZ=            -84.5410
   XY=             -0.5370   XZ=             -0.7072   YZ=             -6.9450
 Traceless Quadrupole moment (field-independent basis, Debye-Ang):
   XX=             11.0678   YY=             -2.7768   ZZ=             -8.2910
   XY=             -0.5370   XZ=             -0.7072   YZ=             -6.9450
 Octapole moment (field-independent basis, Debye-Ang**2):
  XXX=             -7.7098  YYY=            -20.5506  ZZZ=              3.7301  XYY=             -1.3937
  XXY=             -4.5738  XXZ=            -24.5461  XZZ=              3.5964  YZZ=              1.5269
  YYZ=             -7.8536  XYZ=             -3.7423
 Hexadecapole moment (field-independent basis, Debye-Ang**3):
 XXXX=          -2816.4381 YYYY=           -755.1356 ZZZZ=           -214.2519 XXXY=            -15.2705
 XXXZ=            -16.9098 YYYX=             -1.3810 YYYZ=            -35.1884 ZZZX=             -5.5696
 ZZZY=             -0.8463 XXYY=           -583.3596 XXZZ=           -592.3351 YYZZ=           -170.3186
 XXYZ=            -16.8294 YYXZ=              2.1597 ZZXY=              0.9769
 N-N= 7.843428897463D+02 E-N=-2.910819981659D+03  KE= 5.764383158436D+02
 No NMR shielding tensors so no spin-rotation constants.
 Leave Link  601 at Tue Nov 22 15:00:14 2022, MaxMem= 16106127360 cpu:              22.1 elap:               0.7
 (Enter /opt/ap/G16/B01/g16/l9999.exe)
 1\1\GINC-N17\SP\RwB97XD\6-311++G(d,p)\C13H10O1\ROOT\22-Nov-2022\0\\#P 
 wB97XD/6-311++G(d,p) scf=maxcycle=512\\_conf009.gjf nmol_natom 1_24\\0
 ,1\C\C,1,1.39746343\C,1,1.39996263,2,119.28066518\C,2,1.39288453,1,120
 .37436646,3,-0.51002981,0\H,2,0.95014703,1,119.82324024,3,179.45634896
 ,0\C,1,1.49653039,2,122.77761373,4,174.46828757,0\C,3,1.3870125,1,120.
 10017821,2,-0.37315804,0\H,3,0.9501092,1,119.95246451,2,179.5923884,0\
 C,7,1.38720039,3,120.16568731,1,1.0745106,0\H,4,0.95011919,2,120.18755
 644,1,-179.31195299,0\C,6,1.49516902,1,120.70972921,2,-45.,0\O,6,1.221
 50059,1,119.67074267,2,135.,0\H,7,0.94956661,3,119.91274826,1,-178.886
 36029,0\H,9,0.94992259,7,119.76037934,3,179.10763853,0\C,11,1.39713972
 ,6,122.62585705,1,30.97749054,0\C,11,1.40039562,6,117.74753532,1,-153.
 15467779,0\C,15,1.39455701,11,119.80747484,6,175.4763048,0\H,15,0.9496
 2854,11,120.10535689,6,-4.50802339,0\C,16,1.38466431,11,120.4617377,6,
 -176.88197195,0\H,16,0.9497464,11,119.75779177,6,3.14699974,0\C,17,1.3
 9088945,15,120.3475273,11,0.7973643,0\H,17,0.94984298,15,119.8156451,1
 1,-179.16676483,0\H,19,0.94974749,16,119.98566335,11,-178.40987425,0\H
 ,21,0.94938585,17,120.0744529,15,179.91636093,0\\Version=ES64L-G16RevB
 .01\State=1-A\HF=-576.4098916\RMSD=8.195e-09\Dipole=0.1420716,-0.88573
 75,0.9480698\Quadrupole=6.2535356,-7.0390577,0.7855221,5.0673575,0.334
 2861,3.4140632\PG=C01 [X(C13H10O1)]\\@


 MODELS ARE TO BE USED, NOT BELIEVED.

    -- PARAPHRASED BY H. THIEL IN "PRINCIPLES OF ECONOMETRICS"
 Job cpu time:       0 days  0 hours 20 minutes  8.1 seconds.
 Elapsed time:       0 days  0 hours  0 minutes 37.9 seconds.
 File lengths (MBytes):  RWF=     78 Int=      0 D2E=      0 Chk=      9 Scr=      1
 Normal termination of Gaussian 16 at Tue Nov 22 15:00:14 2022.
