 Entering Gaussian System, Link 0=g16
 Input=_conf000.gjf
 Output=_conf000.log
 Initial command:
 /opt/ap/G16/B01/g16/l1.exe "/tmp2/scr/Gau-26185.inp" -scrdir="/tmp2/scr/"
 Entering Link 1 = /opt/ap/G16/B01/g16/l1.exe PID=     26186.
  
 Copyright (c) 1988-2017, Gaussian, Inc.  All Rights Reserved.
  
 This is part of the Gaussian(R) 16 program.  It is based on
 the Gaussian(R) 09 system (copyright 2009, Gaussian, Inc.),
 the Gaussian(R) 03 system (copyright 2003, Gaussian, Inc.),
 the Gaussian(R) 98 system (copyright 1998, Gaussian, Inc.),
 the Gaussian(R) 94 system (copyright 1995, Gaussian, Inc.),
 the Gaussian 92(TM) system (copyright 1992, Gaussian, Inc.),
 the Gaussian 90(TM) system (copyright 1990, Gaussian, Inc.),
 the Gaussian 88(TM) system (copyright 1988, Gaussian, Inc.),
 the Gaussian 86(TM) system (copyright 1986, Carnegie Mellon
 University), and the Gaussian 82(TM) system (copyright 1983,
 Carnegie Mellon University). Gaussian is a federally registered
 trademark of Gaussian, Inc.
  
 This software contains proprietary and confidential information,
 including trade secrets, belonging to Gaussian, Inc.
  
 This software is provided under written license and may be
 used, copied, transmitted, or stored only in accord with that
 written license.
  
 The following legend is applicable only to US Government
 contracts under FAR:
  
                    RESTRICTED RIGHTS LEGEND
  
 Use, reproduction and disclosure by the US Government is
 subject to restrictions as set forth in subparagraphs (a)
 and (c) of the Commercial Computer Software - Restricted
 Rights clause in FAR 52.227-19.
  
 Gaussian, Inc.
 340 Quinnipiac St., Bldg. 40, Wallingford CT 06492
  
  
 ---------------------------------------------------------------
 Warning -- This program may not be used in any manner that
 competes with the business of Gaussian, Inc. or will provide
 assistance to any competitor of Gaussian, Inc.  The licensee
 of this program is prohibited from giving any competitor of
 Gaussian, Inc. access to this program.  By using this program,
 the user acknowledges that Gaussian, Inc. is engaged in the
 business of creating and licensing software in the field of
 computational chemistry and represents and warrants to the
 licensee that it is not a competitor of Gaussian, Inc. and that
 it will not use this program in any manner prohibited above.
 ---------------------------------------------------------------
  

 Cite this work as:
 Gaussian 16, Revision B.01,
 M. J. Frisch, G. W. Trucks, H. B. Schlegel, G. E. Scuseria, 
 M. A. Robb, J. R. Cheeseman, G. Scalmani, V. Barone, 
 G. A. Petersson, H. Nakatsuji, X. Li, M. Caricato, A. V. Marenich, 
 J. Bloino, B. G. Janesko, R. Gomperts, B. Mennucci, H. P. Hratchian, 
 J. V. Ortiz, A. F. Izmaylov, J. L. Sonnenberg, D. Williams-Young, 
 F. Ding, F. Lipparini, F. Egidi, J. Goings, B. Peng, A. Petrone, 
 T. Henderson, D. Ranasinghe, V. G. Zakrzewski, J. Gao, N. Rega, 
 G. Zheng, W. Liang, M. Hada, M. Ehara, K. Toyota, R. Fukuda, 
 J. Hasegawa, M. Ishida, T. Nakajima, Y. Honda, O. Kitao, H. Nakai, 
 T. Vreven, K. Throssell, J. A. Montgomery, Jr., J. E. Peralta, 
 F. Ogliaro, M. J. Bearpark, J. J. Heyd, E. N. Brothers, K. N. Kudin, 
 V. N. Staroverov, T. A. Keith, R. Kobayashi, J. Normand, 
 K. Raghavachari, A. P. Rendell, J. C. Burant, S. S. Iyengar, 
 J. Tomasi, M. Cossi, J. M. Millam, M. Klene, C. Adamo, R. Cammi, 
 J. W. Ochterski, R. L. Martin, K. Morokuma, O. Farkas, 
 J. B. Foresman, and D. J. Fox, Gaussian, Inc., Wallingford CT, 2016.
 
 ******************************************
 Gaussian 16:  ES64L-G16RevB.01 20-Dec-2017
                22-Nov-2022 
 ******************************************
 %nprocshared=32
 Will use up to   32 processors via shared memory.
 %mem=120GB
 %chk=_conf000.chk
 ----------------------------------------
 #P wB97XD/6-311++G(d,p) scf=maxcycle=512
 ----------------------------------------
 1/38=1,172=1/1;
 2/12=2,17=6,18=5,40=1/2;
 3/5=4,6=6,7=1111,11=2,25=1,30=1,74=-58/1,2,3;
 4//1;
 5/5=2,7=512,38=5/2;
 6/7=2,8=2,9=2,10=2,28=1/1;
 99/5=1,9=1/99;
 Leave Link    1 at Tue Nov 22 14:58:15 2022, MaxMem= 16106127360 cpu:               2.1 elap:               0.1
 (Enter /opt/ap/G16/B01/g16/l101.exe)
 ----------------------------
 _conf000.gjf nmol_natom 1_24
 ----------------------------
 Symbolic Z-matrix:
 Charge =  0 Multiplicity = 1
 C
 C                    1     1.39746 
 C                    1     1.39996  2     119.28067 
 C                    2     1.39288  1     120.37437  3    -0.51003  0
 H                    2     0.95015  1     119.82324  3     179.45635  0
 C                    1     1.49653  2     122.77761  4     174.46829  0
 C                    3     1.38701  1     120.10018  2    -0.37316  0
 H                    3     0.95011  1     119.95246  2     179.59239  0
 C                    7     1.3872   3     120.16569  1     1.07451  0
 H                    4     0.95012  2     120.18756  1    -179.31195  0
 C                    6     1.49517  1     120.70973  2    -90.      0
 O                    6     1.2215   1     119.67074  2     90.      0
 H                    7     0.94957  3     119.91275  1    -178.88636  0
 H                    9     0.94992  7     119.76038  3     179.10764  0
 C                    11    1.39714  6     122.62586  1     30.97749  0
 C                    11    1.4004   6     117.74754  1    -153.15468  0
 C                    15    1.39456  11    119.80747  6     175.4763  0
 H                    15    0.94963  11    120.10536  6    -4.50802  0
 C                    16    1.38466  11    120.46174  6    -176.88197  0
 H                    16    0.94975  11    119.75779  6     3.147    0
 C                    17    1.39089  15    120.34753  11    0.79736  0
 H                    17    0.94984  15    119.81565  11   -179.16676  0
 H                    19    0.94975  16    119.98566  11   -178.40987  0
 H                    21    0.94939  17    120.07445  15    179.91636  0
 
 ITRead=  0  0  0  0  0  0  0  0  0  0  0  0  0  0  0  0  0  0  0  0
 ITRead=  0  0  0  0
 MicOpt= -1 -1 -1 -1 -1 -1 -1 -1 -1 -1 -1 -1 -1 -1 -1 -1 -1 -1 -1 -1
 MicOpt= -1 -1 -1 -1
 NAtoms=     24 NQM=       24 NQMF=       0 NMMI=      0 NMMIF=      0
                NMic=       0 NMicF=      0.
                    Isotopes and Nuclear Properties:
 (Nuclear quadrupole moments (NQMom) in fm**2, nuclear magnetic moments (NMagM)
  in nuclear magnetons)

  Atom         1           2           3           4           5           6           7           8           9          10
 IAtWgt=          12          12          12          12           1          12          12           1          12           1
 AtmWgt=  12.0000000  12.0000000  12.0000000  12.0000000   1.0078250  12.0000000  12.0000000   1.0078250  12.0000000   1.0078250
 NucSpn=           0           0           0           0           1           0           0           1           0           1
 AtZEff=  -0.0000000  -0.0000000  -0.0000000  -0.0000000  -0.0000000  -0.0000000  -0.0000000  -0.0000000  -0.0000000  -0.0000000
 NQMom=    0.0000000   0.0000000   0.0000000   0.0000000   0.0000000   0.0000000   0.0000000   0.0000000   0.0000000   0.0000000
 NMagM=    0.0000000   0.0000000   0.0000000   0.0000000   2.7928460   0.0000000   0.0000000   2.7928460   0.0000000   2.7928460
 AtZNuc=   6.0000000   6.0000000   6.0000000   6.0000000   1.0000000   6.0000000   6.0000000   1.0000000   6.0000000   1.0000000

  Atom        11          12          13          14          15          16          17          18          19          20
 IAtWgt=          12          16           1           1          12          12          12           1          12           1
 AtmWgt=  12.0000000  15.9949146   1.0078250   1.0078250  12.0000000  12.0000000  12.0000000   1.0078250  12.0000000   1.0078250
 NucSpn=           0           0           1           1           0           0           0           1           0           1
 AtZEff=  -0.0000000  -0.0000000  -0.0000000  -0.0000000  -0.0000000  -0.0000000  -0.0000000  -0.0000000  -0.0000000  -0.0000000
 NQMom=    0.0000000   0.0000000   0.0000000   0.0000000   0.0000000   0.0000000   0.0000000   0.0000000   0.0000000   0.0000000
 NMagM=    0.0000000   0.0000000   2.7928460   2.7928460   0.0000000   0.0000000   0.0000000   2.7928460   0.0000000   2.7928460
 AtZNuc=   6.0000000   8.0000000   1.0000000   1.0000000   6.0000000   6.0000000   6.0000000   1.0000000   6.0000000   1.0000000

  Atom        21          22          23          24
 IAtWgt=          12           1           1           1
 AtmWgt=  12.0000000   1.0078250   1.0078250   1.0078250
 NucSpn=           0           1           1           1
 AtZEff=  -0.0000000  -0.0000000  -0.0000000  -0.0000000
 NQMom=    0.0000000   0.0000000   0.0000000   0.0000000
 NMagM=    0.0000000   2.7928460   2.7928460   2.7928460
 AtZNuc=   6.0000000   1.0000000   1.0000000   1.0000000
 Leave Link  101 at Tue Nov 22 14:58:15 2022, MaxMem= 16106127360 cpu:               6.5 elap:               0.2
 (Enter /opt/ap/G16/B01/g16/l202.exe)
                          Input orientation:                          
 ---------------------------------------------------------------------
 Center     Atomic      Atomic             Coordinates (Angstroms)
 Number     Number       Type             X           Y           Z
 ---------------------------------------------------------------------
      1          6           0        0.000000    0.000000    0.000000
      2          6           0        0.000000    0.000000    1.397463
      3          6           0        1.221096    0.000000   -0.684705
      4          6           0        1.201650   -0.010697    2.101772
      5          1           0       -0.824276    0.007821    1.869996
      6          6           0       -1.253421   -0.110138   -0.810191
      7          6           0        2.414707    0.007815    0.021719
      8          1           0        1.232246   -0.005856   -1.634731
      9          6           0        2.403895   -0.006831    1.408800
     10          1           0        1.198494   -0.020531    3.051836
     11          6           0       -1.780423   -1.446894   -1.223571
     12          8           0       -1.852757    0.902631   -1.137543
     13          1           0        3.241298    0.023792   -0.445367
     14          1           0        3.224827   -0.014217    1.886678
     15          6           0       -1.600981   -2.598452   -0.453042
     16          6           0       -2.554108   -1.510705   -2.389096
     17          6           0       -2.197666   -3.795870   -0.846675
     18          1           0       -1.074442   -2.565963    0.336575
     19          6           0       -3.123857   -2.707754   -2.788786
     20          1           0       -2.688522   -0.727437   -2.909137
     21          6           0       -2.956585   -3.853423   -2.010850
     22          1           0       -2.085538   -4.576026   -0.316595
     23          1           0       -3.628516   -2.748316   -3.592338
     24          1           0       -3.360082   -4.670931   -2.275810
 ---------------------------------------------------------------------
                    Distance matrix (angstroms):
                    1          2          3          4          5
     1  C    0.000000
     2  C    1.397463   0.000000
     3  C    1.399963   2.413814   0.000000
     4  C    2.421058   1.392885   2.786566   0.000000
     5  H    2.043619   0.950147   3.272630   2.039225   0.000000
     6  C    1.496530   2.541049   2.480142   3.810091   2.716889
     7  C    2.414817   2.779127   1.387013   2.408002   3.729228
     8  H    2.047146   3.273021   0.950109   3.736632   4.063567
     9  C    2.786301   2.403931   2.404542   1.387667   3.260982
    10  H    3.278797   2.042977   3.736665   0.950119   2.342893
    11  C    2.600103   3.483278   3.375351   4.691836   3.549728
    12  O    2.354029   3.267064   3.235487   4.544968   3.302082
    13  H    3.271839   3.728619   2.034469   3.263323   4.678681
    14  H    3.736210   3.261755   3.259932   2.034583   4.049198
    15  C    3.085505   3.569238   3.843142   4.591110   3.576652
    16  C    3.809655   4.810792   4.409006   6.043478   4.841291
    17  C    4.467127   4.926918   5.111046   5.880155   4.871814
    18  H    2.802120   2.977260   3.591194   3.850442   3.006382
    19  C    4.986757   5.883460   5.535134   7.064113   5.862310
    20  H    4.027455   5.128755   4.556575   6.384072   5.182291
    21  C    5.256784   5.933537   5.836141   6.997937   5.875110
    22  H    5.038821   5.312954   5.657680   6.123425   5.232936
    23  H    5.798643   6.754072   6.286994   7.952858   6.730315
    24  H    6.187654   6.826469   6.733231   7.854324   6.746017
                    6          7          8          9         10
     6  C    0.000000
     7  C    3.763130   0.000000
     8  H    2.620930   2.035246   0.000000
     9  C    4.279082   1.387200   3.261263   0.000000
    10  H    4.575496   3.265208   4.686711   2.037829   0.000000
    11  C    1.495169   4.611512   3.364791   5.148948   5.402551
    12  O    1.221501   4.511744   3.254195   5.042823   5.264338
    13  H    4.511488   0.949567   2.334899   2.034727   4.050363
    14  H    5.228480   2.033434   4.046081   0.949923   2.337447
    15  C    2.537727   4.810798   4.018098   5.120740   5.173674
    16  C    2.479176   5.727743   4.143683   6.423973   6.775424
    17  C    3.804937   6.041201   5.171995   6.373252   6.401989
    18  H    2.716281   4.347140   3.970013   4.449455   4.360975
    19  C    3.763108   6.778565   5.254306   7.447869   7.747048
    20  H    2.616515   5.930722   4.185357   6.715397   7.151350
    21  C    4.284219   6.920352   5.700135   7.431353   7.588578
    22  H    4.569487   6.432593   5.799277   6.633968   6.548566
    23  H    4.510144   7.561627   5.914415   8.301632   8.653662
    24  H    5.233249   7.779299   6.577490   8.279710   8.413717
                   11         12         13         14         15
    11  C    0.000000
    12  O    2.352211   0.000000
    13  H    5.290198   5.215444   0.000000
    14  H    6.064548   5.980668   2.332413   0.000000
    15  C    1.397140   3.576242   5.506713   5.953233   0.000000
    16  C    1.400396   2.807573   6.302339   7.342874   2.416598
    17  C    2.415332   4.720113   6.658317   7.153709   1.394557
    18  H    2.045674   3.848369   5.093513   5.234304   0.949629
    19  C    2.417537   4.168594   7.312192   8.331921   2.790484
    20  H    2.045335   2.548367   6.465081   7.646975   3.273506
    21  C    2.791872   4.959954   7.476449   8.254701   2.416481
    22  H    3.272181   5.544711   7.039182   7.339243   2.040640
    23  H    3.274172   4.744339   8.048748   9.190387   3.740125
    24  H    3.741249   5.884919   8.304767   9.075920   3.272933
                   16         17         18         19         20
    16  C    0.000000
    17  C    2.779944   0.000000
    18  H    3.276013   2.043131   0.000000
    19  C    1.384664   2.411145   3.740066   0.000000
    20  H    0.949746   3.729607   4.064490   2.031171   0.000000
    21  C    2.406945   1.390889   3.272678   1.394891   3.263520
    22  H    3.729747   0.949843   2.342925   3.268069   4.679370
    23  H    2.033181   3.268541   4.689659   0.949747   2.331159
    24  H    3.263351   2.039453   4.059507   2.042795   4.050092
                   21         22         23         24
    21  C    0.000000
    22  H    2.037493   0.000000
    23  H    2.043001   4.056081   0.000000
    24  H    0.949386   2.339229   2.345581   0.000000
 Stoichiometry    C13H10O
 Framework group  C1[X(C13H10O)]
 Deg. of freedom    66
 Full point group                 C1      NOp   1
 Largest Abelian subgroup         C1      NOp   1
 Largest concise Abelian subgroup C1      NOp   1
                         Standard orientation:                         
 ---------------------------------------------------------------------
 Center     Atomic      Atomic             Coordinates (Angstroms)
 Number     Number       Type             X           Y           Z
 ---------------------------------------------------------------------
      1          6           0       -1.311402    0.479729   -0.159820
      2          6           0       -1.996362   -0.190342   -1.177041
      3          6           0       -1.853028    0.501908    1.130934
      4          6           0       -3.199556   -0.838304   -0.907606
      5          1           0       -1.639675   -0.203692   -2.057595
      6          6           0        0.040530    1.089820   -0.359001
      7          6           0       -3.060623   -0.129485    1.389511
      8          1           0       -1.392496    0.949716    1.830995
      9          6           0       -3.725497   -0.804184    0.376077
     10          1           0       -3.658104   -1.301330   -1.599030
     11          6           0        1.281596    0.295976   -0.103861
     12          8           0        0.131616    2.248749   -0.734036
     13          1           0       -3.433389   -0.099314    2.262329
     14          1           0       -4.545836   -1.245343    0.562556
     15          6           0        1.343450   -1.086902   -0.293128
     16          6           0        2.440184    0.995136    0.256637
     17          6           0        2.556117   -1.755565   -0.128453
     18          1           0        0.562121   -1.570199   -0.533429
     19          6           0        3.636288    0.322934    0.443118
     20          1           0        2.405004    1.936896    0.374398
     21          6           0        3.700346   -1.055492    0.239256
     22          1           0        2.600850   -2.693936   -0.268672
     23          1           0        4.412712    0.800637    0.709549
     24          1           0        4.523626   -1.514792    0.351446
 ---------------------------------------------------------------------
 Rotational constants (GHZ):           1.5977977           0.4112096           0.3750733
 Leave Link  202 at Tue Nov 22 14:58:15 2022, MaxMem= 16106127360 cpu:               0.4 elap:               0.0
 (Enter /opt/ap/G16/B01/g16/l301.exe)
 Standard basis: 6-311++G(d,p) (5D, 7F)
 Ernie: Thresh=  0.10000D-02 Tol=  0.10000D-05 Strict=F.
 There are   392 symmetry adapted cartesian basis functions of A   symmetry.
 There are   378 symmetry adapted basis functions of A   symmetry.
   378 basis functions,   594 primitive gaussians,   392 cartesian basis functions
    48 alpha electrons       48 beta electrons
       nuclear repulsion energy       782.6837190365 Hartrees.
 IExCor= 4639 DFT=T Ex+Corr=wB97XD ExCW=0 ScaHFX=  1.000000
 ScaDFX=  1.000000  1.000000  1.000000  1.000000 ScalE2=  1.000000  1.000000
 IRadAn=      5 IRanWt=     -1 IRanGd=            0 ICorTp=0 IEmpDi=121
 HFx  wShort=  0.000000 wLong=  0.200000 cFull=  0.222036 cShort=  0.000000 cLong=  0.777964
 DFx  wShort=  0.000000 wLong=  0.200000 cFull=  0.000000 cShort=  0.000000 cLong=  1.000000
 NAtoms=   24 NActive=   24 NUniq=   24 SFac= 1.00D+00 NAtFMM=   60 NAOKFM=F Big=F
 Integral buffers will be    131072 words long.
 Raffenetti 2 integral format.
 Two-electron integral symmetry is turned on.
 R6Disp:  Grimme-D2 Dispersion energy=       -0.0140613909 Hartrees.
 Nuclear repulsion after empirical dispersion term =      782.6696576457 Hartrees.
 Leave Link  301 at Tue Nov 22 14:58:15 2022, MaxMem= 16106127360 cpu:               1.4 elap:               0.0
 (Enter /opt/ap/G16/B01/g16/l302.exe)
 NPDir=0 NMtPBC=     1 NCelOv=     1 NCel=       1 NClECP=     1 NCelD=      1
         NCelK=      1 NCelE2=     1 NClLst=     1 CellRange=     0.0.
 One-electron integrals computed using PRISM.
 One-electron integral symmetry used in STVInt
 NBasis=   378 RedAO= T EigKep=  2.04D-06  NBF=   378
 NBsUse=   376 1.00D-06 EigRej=  8.80D-07 NBFU=   376
 Precomputing XC quadrature grid using
 IXCGrd= 4 IRadAn=           5 IRanWt=          -1 IRanGd=           0 AccXCQ= 0.00D+00.
 Generated NRdTot=       0 NPtTot=           0 NUsed=           0 NTot=          32
 NSgBfM=   392   392   392   392   392 MxSgAt=    24 MxSgA2=    24.
 Leave Link  302 at Tue Nov 22 14:58:15 2022, MaxMem= 16106127360 cpu:               9.5 elap:               0.3
 (Enter /opt/ap/G16/B01/g16/l303.exe)
 DipDrv:  MaxL=1.
 Leave Link  303 at Tue Nov 22 14:58:15 2022, MaxMem= 16106127360 cpu:               1.8 elap:               0.1
 (Enter /opt/ap/G16/B01/g16/l401.exe)
 ExpMin= 3.60D-02 ExpMax= 8.59D+03 ExpMxC= 1.30D+03 IAcc=3 IRadAn=         5 AccDes= 0.00D+00
 Harris functional with IExCor= 4639 and IRadAn=       5 diagonalized for initial guess.
 HarFok:  IExCor= 4639 AccDes= 0.00D+00 IRadAn=         5 IDoV= 1 UseB2=F ITyADJ=14
 ICtDFT=  3500011 ScaDFX=  1.000000  1.000000  1.000000  1.000000
 FoFCou: FMM=F IPFlag=           0 FMFlag=      100000 FMFlg1=           0
         NFxFlg=           0 DoJE=T BraDBF=F KetDBF=T FulRan=T
         wScrn=  0.000000 ICntrl=       500 IOpCl=  0 I1Cent=   200000004 NGrid=           0
         NMat0=    1 NMatS0=      1 NMatT0=    0 NMatD0=    1 NMtDS0=    0 NMtDT0=    0
 Petite list used in FoFCou.
 Harris En= -550.902467122086    
 JPrj=0 DoOrth=F DoCkMO=F.
 Leave Link  401 at Tue Nov 22 14:58:16 2022, MaxMem= 16106127360 cpu:              23.4 elap:               0.7
 (Enter /opt/ap/G16/B01/g16/l502.exe)
 Integral symmetry usage will be decided dynamically.
 Closed shell SCF:
 Using DIIS extrapolation, IDIIS=  1040.
 NGot= 16106127360 LenX= 16105803762 LenY= 16105649657
 Requested convergence on RMS density matrix=1.00D-08 within 512 cycles.
 Requested convergence on MAX density matrix=1.00D-06.
 Requested convergence on             energy=1.00D-06.
 No special actions if energy rises.
 Fock matrices will be formed incrementally for  20 cycles.

 Cycle   1  Pass 1  IDiag  1:
 FoFJK:  IHMeth= 1 ICntrl=       0 DoSepK=T KAlg= 0 I1Cent=           0 FoldK=F
 IRaf=         1 NMat=       1 IRICut=       1 DoRegI=T DoRafI=F ISym2E= 0 IDoP0=0 IntGTp=1.
 FoFCou: FMM=F IPFlag=           0 FMFlag=      100000 FMFlg1=           0
         NFxFlg=           0 DoJE=T BraDBF=F KetDBF=F FulRan=T
         wScrn=  0.000000 ICntrl=       500 IOpCl=  0 I1Cent=           0 NGrid=           0
         NMat0=    1 NMatS0=      1 NMatT0=    0 NMatD0=    1 NMtDS0=    0 NMtDT0=    0
 Symmetry not used in FoFCou.
 E= -576.254933537589    
 DIIS: error= 5.08D-02 at cycle   1 NSaved=   1.
 NSaved= 1 IEnMin= 1 EnMin= -576.254933537589     IErMin= 1 ErrMin= 5.08D-02
 ErrMax= 5.08D-02  0.00D+00 EMaxC= 1.00D-01 BMatC= 1.20D+00 BMatP= 1.20D+00
 IDIUse=3 WtCom= 4.92D-01 WtEn= 5.08D-01
 Coeff-Com:  0.100D+01
 Coeff-En:   0.100D+01
 Coeff:      0.100D+01
 Gap=     0.422 Goal=   None    Shift=    0.000
 GapD=    0.422 DampG=2.000 DampE=0.500 DampFc=1.0000 IDamp=-1.
 RMSDP=2.69D-02 MaxDP=3.52D+00              OVMax= 1.14D-01

 Cycle   2  Pass 1  IDiag  1:
 RMSU=  1.97D-02    CP:  7.54D-01
 E= -576.345928365954     Delta-E=       -0.090994828365 Rises=F Damp=F
 DIIS: error= 1.10D-02 at cycle   2 NSaved=   2.
 NSaved= 2 IEnMin= 2 EnMin= -576.345928365954     IErMin= 2 ErrMin= 1.10D-02
 ErrMax= 1.10D-02  0.00D+00 EMaxC= 1.00D-01 BMatC= 7.56D-02 BMatP= 1.20D+00
 IDIUse=3 WtCom= 8.90D-01 WtEn= 1.10D-01
 Coeff-Com:  0.127D+00 0.873D+00
 Coeff-En:   0.144D+00 0.856D+00
 Coeff:      0.128D+00 0.872D+00
 Gap=     0.442 Goal=   None    Shift=    0.000
 RMSDP=1.29D-02 MaxDP=1.07D+00 DE=-9.10D-02 OVMax= 1.40D-01

 Cycle   3  Pass 1  IDiag  1:
 RMSU=  6.87D-03    CP:  7.01D-01  4.79D-01
 E= -576.364983852817     Delta-E=       -0.019055486864 Rises=F Damp=F
 DIIS: error= 1.09D-02 at cycle   3 NSaved=   3.
 NSaved= 3 IEnMin= 3 EnMin= -576.364983852817     IErMin= 3 ErrMin= 1.09D-02
 ErrMax= 1.09D-02  0.00D+00 EMaxC= 1.00D-01 BMatC= 5.26D-02 BMatP= 7.56D-02
 IDIUse=3 WtCom= 8.91D-01 WtEn= 1.09D-01
 Coeff-Com:  0.237D-01 0.458D+00 0.518D+00
 Coeff-En:   0.000D+00 0.418D+00 0.582D+00
 Coeff:      0.211D-01 0.454D+00 0.525D+00
 Gap=     0.359 Goal=   None    Shift=    0.000
 RMSDP=5.38D-03 MaxDP=3.83D-01 DE=-1.91D-02 OVMax= 6.14D-02

 Cycle   4  Pass 1  IDiag  1:
 RMSU=  1.40D-03    CP:  6.79D-01  6.90D-01  6.12D-01
 E= -576.411731070203     Delta-E=       -0.046747217386 Rises=F Damp=F
 DIIS: error= 1.54D-03 at cycle   4 NSaved=   4.
 NSaved= 4 IEnMin= 4 EnMin= -576.411731070203     IErMin= 4 ErrMin= 1.54D-03
 ErrMax= 1.54D-03  0.00D+00 EMaxC= 1.00D-01 BMatC= 7.94D-04 BMatP= 5.26D-02
 IDIUse=3 WtCom= 9.85D-01 WtEn= 1.54D-02
 Coeff-Com:  0.916D-02 0.189D+00 0.237D+00 0.564D+00
 Coeff-En:   0.000D+00 0.000D+00 0.000D+00 0.100D+01
 Coeff:      0.902D-02 0.186D+00 0.234D+00 0.571D+00
 Gap=     0.327 Goal=   None    Shift=    0.000
 RMSDP=7.73D-04 MaxDP=4.64D-02 DE=-4.67D-02 OVMax= 6.35D-03

 Cycle   5  Pass 1  IDiag  1:
 RMSU=  4.52D-04    CP:  6.81D-01  7.19D-01  6.40D-01  9.51D-01
 E= -576.412296418749     Delta-E=       -0.000565348546 Rises=F Damp=F
 DIIS: error= 5.34D-04 at cycle   5 NSaved=   5.
 NSaved= 5 IEnMin= 5 EnMin= -576.412296418749     IErMin= 5 ErrMin= 5.34D-04
 ErrMax= 5.34D-04  0.00D+00 EMaxC= 1.00D-01 BMatC= 7.65D-05 BMatP= 7.94D-04
 IDIUse=3 WtCom= 9.95D-01 WtEn= 5.34D-03
 Coeff-Com: -0.523D-03-0.684D-02 0.110D-02 0.223D+00 0.783D+00
 Coeff-En:   0.000D+00 0.000D+00 0.000D+00 0.000D+00 0.100D+01
 Coeff:     -0.520D-03-0.681D-02 0.109D-02 0.222D+00 0.784D+00
 Gap=     0.329 Goal=   None    Shift=    0.000
 RMSDP=3.67D-04 MaxDP=3.81D-02 DE=-5.65D-04 OVMax= 2.68D-03

 Cycle   6  Pass 1  IDiag  1:
 RMSU=  1.76D-04    CP:  6.77D-01  7.15D-01  6.53D-01  1.06D+00  9.15D-01
 E= -576.412353471259     Delta-E=       -0.000057052509 Rises=F Damp=F
 DIIS: error= 2.22D-04 at cycle   6 NSaved=   6.
 NSaved= 6 IEnMin= 6 EnMin= -576.412353471259     IErMin= 6 ErrMin= 2.22D-04
 ErrMax= 2.22D-04  0.00D+00 EMaxC= 1.00D-01 BMatC= 1.86D-05 BMatP= 7.65D-05
 IDIUse=3 WtCom= 9.98D-01 WtEn= 2.22D-03
 EnCoef did    14 forward-backward iterations
 Coeff-Com: -0.122D-02-0.228D-01-0.227D-01 0.660D-01 0.434D+00 0.547D+00
 Coeff-En:   0.000D+00 0.000D+00 0.000D+00 0.000D+00 0.167D-02 0.998D+00
 Coeff:     -0.121D-02-0.227D-01-0.227D-01 0.658D-01 0.433D+00 0.548D+00
 Gap=     0.329 Goal=   None    Shift=    0.000
 RMSDP=1.15D-04 MaxDP=8.77D-03 DE=-5.71D-05 OVMax= 1.31D-03

 Cycle   7  Pass 1  IDiag  1:
 RMSU=  7.45D-05    CP:  6.78D-01  7.15D-01  6.59D-01  1.09D+00  1.05D+00
                    CP:  1.06D+00
 E= -576.412372195252     Delta-E=       -0.000018723993 Rises=F Damp=F
 DIIS: error= 5.37D-05 at cycle   7 NSaved=   7.
 NSaved= 7 IEnMin= 7 EnMin= -576.412372195252     IErMin= 7 ErrMin= 5.37D-05
 ErrMax= 5.37D-05  0.00D+00 EMaxC= 1.00D-01 BMatC= 4.99D-07 BMatP= 1.86D-05
 IDIUse=1 WtCom= 1.00D+00 WtEn= 0.00D+00
 Coeff-Com: -0.238D-03-0.460D-02-0.537D-02-0.940D-02-0.460D-02 0.111D+00
 Coeff-Com:  0.913D+00
 Coeff:     -0.238D-03-0.460D-02-0.537D-02-0.940D-02-0.460D-02 0.111D+00
 Coeff:      0.913D+00
 Gap=     0.329 Goal=   None    Shift=    0.000
 RMSDP=4.39D-05 MaxDP=4.00D-03 DE=-1.87D-05 OVMax= 5.15D-04

 Cycle   8  Pass 1  IDiag  1:
 RMSU=  2.34D-05    CP:  6.77D-01  7.15D-01  6.61D-01  1.10D+00  1.06D+00
                    CP:  1.21D+00  9.92D-01
 E= -576.412373403505     Delta-E=       -0.000001208253 Rises=F Damp=F
 DIIS: error= 1.42D-05 at cycle   8 NSaved=   8.
 NSaved= 8 IEnMin= 8 EnMin= -576.412373403505     IErMin= 8 ErrMin= 1.42D-05
 ErrMax= 1.42D-05  0.00D+00 EMaxC= 1.00D-01 BMatC= 8.73D-08 BMatP= 4.99D-07
 IDIUse=1 WtCom= 1.00D+00 WtEn= 0.00D+00
 Coeff-Com:  0.545D-04 0.825D-03 0.460D-03-0.125D-01-0.598D-01-0.263D-01
 Coeff-Com:  0.319D+00 0.779D+00
 Coeff:      0.545D-04 0.825D-03 0.460D-03-0.125D-01-0.598D-01-0.263D-01
 Coeff:      0.319D+00 0.779D+00
 Gap=     0.329 Goal=   None    Shift=    0.000
 RMSDP=1.32D-05 MaxDP=8.02D-04 DE=-1.21D-06 OVMax= 2.07D-04

 Cycle   9  Pass 1  IDiag  1:
 RMSU=  7.29D-06    CP:  6.77D-01  7.15D-01  6.61D-01  1.10D+00  1.06D+00
                    CP:  1.26D+00  9.86D-01  1.23D+00
 E= -576.412373585107     Delta-E=       -0.000000181602 Rises=F Damp=F
 DIIS: error= 5.20D-06 at cycle   9 NSaved=   9.
 NSaved= 9 IEnMin= 9 EnMin= -576.412373585107     IErMin= 9 ErrMin= 5.20D-06
 ErrMax= 5.20D-06  0.00D+00 EMaxC= 1.00D-01 BMatC= 6.59D-09 BMatP= 8.73D-08
 IDIUse=1 WtCom= 1.00D+00 WtEn= 0.00D+00
 Coeff-Com:  0.409D-04 0.731D-03 0.751D-03-0.690D-03-0.100D-01-0.166D-01
 Coeff-Com: -0.641D-01 0.139D+00 0.950D+00
 Coeff:      0.409D-04 0.731D-03 0.751D-03-0.690D-03-0.100D-01-0.166D-01
 Coeff:     -0.641D-01 0.139D+00 0.950D+00
 Gap=     0.329 Goal=   None    Shift=    0.000
 RMSDP=7.96D-06 MaxDP=6.06D-04 DE=-1.82D-07 OVMax= 8.02D-05

 Cycle  10  Pass 1  IDiag  1:
 RMSU=  2.05D-06    CP:  6.77D-01  7.15D-01  6.61D-01  1.10D+00  1.05D+00
                    CP:  1.28D+00  9.62D-01  1.43D+00  1.36D+00
 E= -576.412373605442     Delta-E=       -0.000000020336 Rises=F Damp=F
 DIIS: error= 1.27D-06 at cycle  10 NSaved=  10.
 NSaved=10 IEnMin=10 EnMin= -576.412373605442     IErMin=10 ErrMin= 1.27D-06
 ErrMax= 1.27D-06  0.00D+00 EMaxC= 1.00D-01 BMatC= 6.24D-10 BMatP= 6.59D-09
 IDIUse=1 WtCom= 1.00D+00 WtEn= 0.00D+00
 Coeff-Com: -0.199D-05-0.807D-05 0.235D-04 0.138D-02 0.484D-02 0.202D-02
 Coeff-Com: -0.331D-01-0.628D-01 0.955D-01 0.992D+00
 Coeff:     -0.199D-05-0.807D-05 0.235D-04 0.138D-02 0.484D-02 0.202D-02
 Coeff:     -0.331D-01-0.628D-01 0.955D-01 0.992D+00
 Gap=     0.329 Goal=   None    Shift=    0.000
 RMSDP=2.51D-06 MaxDP=1.97D-04 DE=-2.03D-08 OVMax= 2.67D-05

 Cycle  11  Pass 1  IDiag  1:
 RMSU=  8.51D-07    CP:  6.77D-01  7.15D-01  6.61D-01  1.10D+00  1.05D+00
                    CP:  1.27D+00  9.49D-01  1.47D+00  1.44D+00  1.00D+00
 E= -576.412373607648     Delta-E=       -0.000000002206 Rises=F Damp=F
 DIIS: error= 7.54D-07 at cycle  11 NSaved=  11.
 NSaved=11 IEnMin=11 EnMin= -576.412373607648     IErMin=11 ErrMin= 7.54D-07
 ErrMax= 7.54D-07  0.00D+00 EMaxC= 1.00D-01 BMatC= 1.27D-10 BMatP= 6.24D-10
 IDIUse=1 WtCom= 1.00D+00 WtEn= 0.00D+00
 Coeff-Com: -0.383D-05-0.571D-04-0.497D-04 0.509D-03 0.217D-02 0.190D-02
 Coeff-Com: -0.421D-02-0.327D-01-0.607D-01 0.304D+00 0.789D+00
 Coeff:     -0.383D-05-0.571D-04-0.497D-04 0.509D-03 0.217D-02 0.190D-02
 Coeff:     -0.421D-02-0.327D-01-0.607D-01 0.304D+00 0.789D+00
 Gap=     0.329 Goal=   None    Shift=    0.000
 RMSDP=6.47D-07 MaxDP=5.40D-05 DE=-2.21D-09 OVMax= 1.05D-05

 Cycle  12  Pass 1  IDiag  1:
 RMSU=  2.08D-07    CP:  6.77D-01  7.15D-01  6.61D-01  1.10D+00  1.05D+00
                    CP:  1.27D+00  9.47D-01  1.47D+00  1.46D+00  1.10D+00
                    CP:  1.23D+00
 E= -576.412373608027     Delta-E=       -0.000000000378 Rises=F Damp=F
 DIIS: error= 4.32D-07 at cycle  12 NSaved=  12.
 NSaved=12 IEnMin=12 EnMin= -576.412373608027     IErMin=12 ErrMin= 4.32D-07
 ErrMax= 4.32D-07  0.00D+00 EMaxC= 1.00D-01 BMatC= 2.25D-11 BMatP= 1.27D-10
 IDIUse=1 WtCom= 1.00D+00 WtEn= 0.00D+00
 Coeff-Com: -0.199D-06-0.910D-05-0.146D-04-0.195D-03-0.682D-03-0.126D-03
 Coeff-Com:  0.665D-02 0.764D-02-0.326D-01-0.155D+00 0.139D+00 0.104D+01
 Coeff:     -0.199D-06-0.910D-05-0.146D-04-0.195D-03-0.682D-03-0.126D-03
 Coeff:      0.665D-02 0.764D-02-0.326D-01-0.155D+00 0.139D+00 0.104D+01
 Gap=     0.329 Goal=   None    Shift=    0.000
 RMSDP=3.86D-07 MaxDP=3.29D-05 DE=-3.78D-10 OVMax= 8.27D-06

 Cycle  13  Pass 1  IDiag  1:
 RMSU=  1.43D-07    CP:  6.77D-01  7.15D-01  6.61D-01  1.10D+00  1.05D+00
                    CP:  1.27D+00  9.48D-01  1.46D+00  1.47D+00  1.12D+00
                    CP:  1.41D+00  1.41D+00
 E= -576.412373608138     Delta-E=       -0.000000000111 Rises=F Damp=F
 DIIS: error= 1.88D-07 at cycle  13 NSaved=  13.
 NSaved=13 IEnMin=13 EnMin= -576.412373608138     IErMin=13 ErrMin= 1.88D-07
 ErrMax= 1.88D-07  0.00D+00 EMaxC= 1.00D-01 BMatC= 5.74D-12 BMatP= 2.25D-11
 IDIUse=1 WtCom= 1.00D+00 WtEn= 0.00D+00
 Coeff-Com:  0.584D-06 0.574D-05 0.278D-05-0.167D-03-0.625D-03-0.398D-03
 Coeff-Com:  0.310D-02 0.867D-02-0.702D-03-0.109D+00-0.894D-01 0.387D+00
 Coeff-Com:  0.802D+00
 Coeff:      0.584D-06 0.574D-05 0.278D-05-0.167D-03-0.625D-03-0.398D-03
 Coeff:      0.310D-02 0.867D-02-0.702D-03-0.109D+00-0.894D-01 0.387D+00
 Coeff:      0.802D+00
 Gap=     0.329 Goal=   None    Shift=    0.000
 RMSDP=1.93D-07 MaxDP=1.62D-05 DE=-1.11D-10 OVMax= 3.27D-06

 Cycle  14  Pass 1  IDiag  1:
 RMSU=  8.01D-08    CP:  6.77D-01  7.15D-01  6.61D-01  1.10D+00  1.05D+00
                    CP:  1.27D+00  9.49D-01  1.46D+00  1.45D+00  1.11D+00
                    CP:  1.48D+00  1.66D+00  1.18D+00
 E= -576.412373608177     Delta-E=       -0.000000000039 Rises=F Damp=F
 DIIS: error= 7.89D-08 at cycle  14 NSaved=  14.
 NSaved=14 IEnMin=14 EnMin= -576.412373608177     IErMin=14 ErrMin= 7.89D-08
 ErrMax= 7.89D-08  0.00D+00 EMaxC= 1.00D-01 BMatC= 8.11D-13 BMatP= 5.74D-12
 IDIUse=1 WtCom= 1.00D+00 WtEn= 0.00D+00
 Coeff-Com:  0.130D-06 0.302D-05 0.421D-05 0.850D-06 0.262D-04-0.613D-04
 Coeff-Com: -0.748D-03 0.687D-04 0.569D-02 0.971D-02-0.425D-01-0.140D+00
 Coeff-Com:  0.115D+00 0.105D+01
 Coeff:      0.130D-06 0.302D-05 0.421D-05 0.850D-06 0.262D-04-0.613D-04
 Coeff:     -0.748D-03 0.687D-04 0.569D-02 0.971D-02-0.425D-01-0.140D+00
 Coeff:      0.115D+00 0.105D+01
 Gap=     0.329 Goal=   None    Shift=    0.000
 RMSDP=9.07D-08 MaxDP=9.44D-06 DE=-3.91D-11 OVMax= 1.83D-06

 Cycle  15  Pass 1  IDiag  1:
 RMSU=  1.86D-08    CP:  6.77D-01  7.15D-01  6.61D-01  1.10D+00  1.05D+00
                    CP:  1.27D+00  9.49D-01  1.46D+00  1.45D+00  1.10D+00
                    CP:  1.50D+00  1.77D+00  1.43D+00  1.30D+00
 E= -576.412373608179     Delta-E=       -0.000000000002 Rises=F Damp=F
 DIIS: error= 1.86D-08 at cycle  15 NSaved=  15.
 NSaved=15 IEnMin=15 EnMin= -576.412373608179     IErMin=15 ErrMin= 1.86D-08
 ErrMax= 1.86D-08  0.00D+00 EMaxC= 1.00D-01 BMatC= 1.64D-13 BMatP= 8.11D-13
 IDIUse=1 WtCom= 1.00D+00 WtEn= 0.00D+00
 Coeff-Com: -0.404D-07 0.356D-06 0.136D-05 0.259D-04 0.108D-03 0.442D-04
 Coeff-Com: -0.723D-03-0.126D-02 0.231D-02 0.210D-01-0.287D-03-0.111D+00
 Coeff-Com: -0.936D-01 0.387D+00 0.797D+00
 Coeff:     -0.404D-07 0.356D-06 0.136D-05 0.259D-04 0.108D-03 0.442D-04
 Coeff:     -0.723D-03-0.126D-02 0.231D-02 0.210D-01-0.287D-03-0.111D+00
 Coeff:     -0.936D-01 0.387D+00 0.797D+00
 Gap=     0.329 Goal=   None    Shift=    0.000
 RMSDP=2.50D-08 MaxDP=2.04D-06 DE=-2.27D-12 OVMax= 5.47D-07

 Cycle  16  Pass 1  IDiag  1:
 RMSU=  6.78D-09    CP:  6.77D-01  7.15D-01  6.61D-01  1.10D+00  1.05D+00
                    CP:  1.27D+00  9.49D-01  1.46D+00  1.45D+00  1.10D+00
                    CP:  1.50D+00  1.80D+00  1.48D+00  1.44D+00  1.15D+00
 E= -576.412373608180     Delta-E=       -0.000000000001 Rises=F Damp=F
 DIIS: error= 4.61D-09 at cycle  16 NSaved=  16.
 NSaved=16 IEnMin=16 EnMin= -576.412373608180     IErMin=16 ErrMin= 4.61D-09
 ErrMax= 4.61D-09  0.00D+00 EMaxC= 1.00D-01 BMatC= 8.31D-15 BMatP= 1.64D-13
 IDIUse=1 WtCom= 1.00D+00 WtEn= 0.00D+00
 Coeff-Com: -0.146D-07-0.323D-06-0.404D-06 0.272D-05 0.746D-05 0.146D-04
 Coeff-Com:  0.137D-04-0.153D-03-0.524D-03 0.768D-03 0.509D-02 0.705D-02
 Coeff-Com: -0.236D-01-0.880D-01 0.475D-01 0.105D+01
 Coeff:     -0.146D-07-0.323D-06-0.404D-06 0.272D-05 0.746D-05 0.146D-04
 Coeff:      0.137D-04-0.153D-03-0.524D-03 0.768D-03 0.509D-02 0.705D-02
 Coeff:     -0.236D-01-0.880D-01 0.475D-01 0.105D+01
 Gap=     0.329 Goal=   None    Shift=    0.000
 RMSDP=7.28D-09 MaxDP=6.50D-07 DE=-9.09D-13 OVMax= 1.70D-07

 SCF Done:  E(RwB97XD) =  -576.412373608     A.U. after   16 cycles
            NFock= 16  Conv=0.73D-08     -V/T= 2.0000
 KE= 5.764028354072D+02 PE=-2.907488481326D+03 EE= 9.720036146648D+02
 Leave Link  502 at Tue Nov 22 14:58:55 2022, MaxMem= 16106127360 cpu:            1222.4 elap:              38.4
 (Enter /opt/ap/G16/B01/g16/l601.exe)
 Copying SCF densities to generalized density rwf, IOpCl= 0 IROHF=0.

 **********************************************************************

            Population analysis using the SCF Density.

 **********************************************************************

 Orbital symmetries:
       Occupied  (A) (A) (A) (A) (A) (A) (A) (A) (A) (A) (A) (A)
                 (A) (A) (A) (A) (A) (A) (A) (A) (A) (A) (A) (A)
                 (A) (A) (A) (A) (A) (A) (A) (A) (A) (A) (A) (A)
                 (A) (A) (A) (A) (A) (A) (A) (A) (A) (A) (A) (A)
       Virtual   (A) (A) (A) (A) (A) (A) (A) (A) (A) (A) (A) (A)
                 (A) (A) (A) (A) (A) (A) (A) (A) (A) (A) (A) (A)
                 (A) (A) (A) (A) (A) (A) (A) (A) (A) (A) (A) (A)
                 (A) (A) (A) (A) (A) (A) (A) (A) (A) (A) (A) (A)
                 (A) (A) (A) (A) (A) (A) (A) (A) (A) (A) (A) (A)
                 (A) (A) (A) (A) (A) (A) (A) (A) (A) (A) (A) (A)
                 (A) (A) (A) (A) (A) (A) (A) (A) (A) (A) (A) (A)
                 (A) (A) (A) (A) (A) (A) (A) (A) (A) (A) (A) (A)
                 (A) (A) (A) (A) (A) (A) (A) (A) (A) (A) (A) (A)
                 (A) (A) (A) (A) (A) (A) (A) (A) (A) (A) (A) (A)
                 (A) (A) (A) (A) (A) (A) (A) (A) (A) (A) (A) (A)
                 (A) (A) (A) (A) (A) (A) (A) (A) (A) (A) (A) (A)
                 (A) (A) (A) (A) (A) (A) (A) (A) (A) (A) (A) (A)
                 (A) (A) (A) (A) (A) (A) (A) (A) (A) (A) (A) (A)
                 (A) (A) (A) (A) (A) (A) (A) (A) (A) (A) (A) (A)
                 (A) (A) (A) (A) (A) (A) (A) (A) (A) (A) (A) (A)
                 (A) (A) (A) (A) (A) (A) (A) (A) (A) (A) (A) (A)
                 (A) (A) (A) (A) (A) (A) (A) (A) (A) (A) (A) (A)
                 (A) (A) (A) (A) (A) (A) (A) (A) (A) (A) (A) (A)
                 (A) (A) (A) (A) (A) (A) (A) (A) (A) (A) (A) (A)
                 (A) (A) (A) (A) (A) (A) (A) (A) (A) (A) (A) (A)
                 (A) (A) (A) (A) (A) (A) (A) (A) (A) (A) (A) (A)
                 (A) (A) (A) (A) (A) (A) (A) (A) (A) (A) (A) (A)
                 (A) (A) (A) (A) (A) (A) (A) (A) (A) (A) (A) (A)
                 (A) (A) (A) (A) (A) (A) (A) (A) (A) (A) (A) (A)
                 (A) (A) (A) (A) (A) (A) (A) (A) (A) (A) (A) (A)
                 (A) (A) (A) (A) (A) (A) (A) (A) (A) (A) (A) (A)
                 (A) (A) (A) (A)
 The electronic state is 1-A.
 Alpha  occ. eigenvalues --  -19.24311 -10.38512 -10.30701 -10.30665 -10.29069
 Alpha  occ. eigenvalues --  -10.28739 -10.28655 -10.28551 -10.28519 -10.28484
 Alpha  occ. eigenvalues --  -10.28325 -10.28284 -10.28130 -10.27968  -1.15186
 Alpha  occ. eigenvalues --   -0.97918  -0.97399  -0.89113  -0.87419  -0.87249
 Alpha  occ. eigenvalues --   -0.86850  -0.76808  -0.73914  -0.73475  -0.72608
 Alpha  occ. eigenvalues --   -0.68038  -0.65533  -0.62869  -0.60404  -0.56907
 Alpha  occ. eigenvalues --   -0.56237  -0.55655  -0.54539  -0.54000  -0.53863
 Alpha  occ. eigenvalues --   -0.52407  -0.49074  -0.47199  -0.46583  -0.46231
 Alpha  occ. eigenvalues --   -0.45891  -0.44875  -0.44296  -0.35220  -0.34835
 Alpha  occ. eigenvalues --   -0.34294  -0.34038  -0.32822
 Alpha virt. eigenvalues --    0.00098   0.03628   0.04003   0.04306   0.04348
 Alpha virt. eigenvalues --    0.04854   0.04971   0.05513   0.05847   0.06915
 Alpha virt. eigenvalues --    0.07368   0.08054   0.09048   0.09114   0.10302
 Alpha virt. eigenvalues --    0.11488   0.11726   0.12322   0.13487   0.14230
 Alpha virt. eigenvalues --    0.14903   0.15280   0.15672   0.16023   0.16509
 Alpha virt. eigenvalues --    0.16971   0.17030   0.17242   0.17591   0.17822
 Alpha virt. eigenvalues --    0.18087   0.18398   0.18663   0.18714   0.18908
 Alpha virt. eigenvalues --    0.19751   0.19916   0.20395   0.20665   0.21220
 Alpha virt. eigenvalues --    0.21668   0.21924   0.22689   0.23443   0.23693
 Alpha virt. eigenvalues --    0.24026   0.24526   0.24828   0.25414   0.25676
 Alpha virt. eigenvalues --    0.26111   0.26347   0.27480   0.27806   0.28078
 Alpha virt. eigenvalues --    0.28323   0.29800   0.30158   0.30550   0.30959
 Alpha virt. eigenvalues --    0.31395   0.31775   0.32297   0.32971   0.33603
 Alpha virt. eigenvalues --    0.34278   0.34827   0.35016   0.35251   0.36889
 Alpha virt. eigenvalues --    0.37309   0.37448   0.37812   0.38272   0.38585
 Alpha virt. eigenvalues --    0.39173   0.39533   0.40742   0.41168   0.42093
 Alpha virt. eigenvalues --    0.42546   0.42934   0.43583   0.44456   0.44898
 Alpha virt. eigenvalues --    0.45645   0.45747   0.46483   0.48056   0.50315
 Alpha virt. eigenvalues --    0.53418   0.55921   0.57495   0.57803   0.60025
 Alpha virt. eigenvalues --    0.60985   0.62128   0.62732   0.63064   0.63543
 Alpha virt. eigenvalues --    0.63723   0.64810   0.65090   0.65420   0.65920
 Alpha virt. eigenvalues --    0.66262   0.66495   0.68190   0.68655   0.69444
 Alpha virt. eigenvalues --    0.70131   0.70581   0.72300   0.74580   0.74860
 Alpha virt. eigenvalues --    0.75144   0.75889   0.77089   0.77260   0.78278
 Alpha virt. eigenvalues --    0.79039   0.79495   0.81058   0.82252   0.83073
 Alpha virt. eigenvalues --    0.83571   0.83990   0.84417   0.87310   0.87866
 Alpha virt. eigenvalues --    0.88243   0.88959   0.92203   0.93374   0.93968
 Alpha virt. eigenvalues --    0.94301   0.94461   0.95368   0.95484   0.96180
 Alpha virt. eigenvalues --    0.96454   0.97875   0.99457   0.99918   1.00401
 Alpha virt. eigenvalues --    1.01844   1.02358   1.03298   1.04624   1.05669
 Alpha virt. eigenvalues --    1.07662   1.09368   1.10183   1.12339   1.13366
 Alpha virt. eigenvalues --    1.14314   1.15986   1.16618   1.17246   1.17713
 Alpha virt. eigenvalues --    1.18246   1.20700   1.21670   1.22849   1.23160
 Alpha virt. eigenvalues --    1.27488   1.31726   1.33835   1.36982   1.39293
 Alpha virt. eigenvalues --    1.42907   1.44080   1.44876   1.49094   1.54887
 Alpha virt. eigenvalues --    1.56263   1.58399   1.59400   1.60794   1.61980
 Alpha virt. eigenvalues --    1.62344   1.63431   1.65234   1.66558   1.67169
 Alpha virt. eigenvalues --    1.68116   1.69007   1.69346   1.69616   1.73390
 Alpha virt. eigenvalues --    1.75354   1.75940   1.76254   1.76654   1.78112
 Alpha virt. eigenvalues --    1.79173   1.82462   1.84002   1.86053   1.89740
 Alpha virt. eigenvalues --    1.90868   1.91261   1.91301   1.92663   1.93765
 Alpha virt. eigenvalues --    1.94715   1.95345   1.97009   2.00245   2.01368
 Alpha virt. eigenvalues --    2.02662   2.02982   2.03973   2.04556   2.05073
 Alpha virt. eigenvalues --    2.05591   2.07421   2.08487   2.09457   2.10500
 Alpha virt. eigenvalues --    2.10819   2.15814   2.16434   2.17845   2.20491
 Alpha virt. eigenvalues --    2.20935   2.26089   2.26990   2.27360   2.30598
 Alpha virt. eigenvalues --    2.33010   2.42657   2.42926   2.47110   2.47701
 Alpha virt. eigenvalues --    2.49065   2.49814   2.50098   2.51534   2.54182
 Alpha virt. eigenvalues --    2.58783   2.59514   2.59922   2.66792   2.67625
 Alpha virt. eigenvalues --    2.72286   2.77872   2.78657   2.81217   2.82159
 Alpha virt. eigenvalues --    2.83211   2.84015   2.84453   2.87782   2.88183
 Alpha virt. eigenvalues --    2.91469   2.91720   2.92957   2.94744   2.96313
 Alpha virt. eigenvalues --    2.96968   2.97234   2.98999   2.99162   3.00266
 Alpha virt. eigenvalues --    3.00687   3.01173   3.01740   3.03073   3.03603
 Alpha virt. eigenvalues --    3.05929   3.10292   3.13182   3.15222   3.18465
 Alpha virt. eigenvalues --    3.19690   3.21125   3.23393   3.25582   3.25919
 Alpha virt. eigenvalues --    3.27734   3.30091   3.32401   3.37363   3.44734
 Alpha virt. eigenvalues --    3.48719   3.50142   3.51016   3.53215   3.64397
 Alpha virt. eigenvalues --    3.69454   3.70700   3.71250   3.75854   3.76645
 Alpha virt. eigenvalues --    3.83461   3.89094   3.90855   4.00033   4.29311
 Alpha virt. eigenvalues --    4.36691   4.37327   4.38947   4.40744   4.41513
 Alpha virt. eigenvalues --    4.42577   4.50425   4.51228   4.52201   4.94917
 Alpha virt. eigenvalues --    4.95298   5.23806   5.34824   5.85707  23.89268
 Alpha virt. eigenvalues --   23.96187  23.98593  24.17146  24.19723  24.24054
 Alpha virt. eigenvalues --   24.24701  24.30087  24.31565  24.33921  24.34160
 Alpha virt. eigenvalues --   24.43336  24.44289  50.13256
          Condensed to atoms (all electrons):
               1          2          3          4          5          6
     1  C   12.067783  -0.808066   0.189118  -0.664180   0.013387  -3.015529
     2  C   -0.808066  10.534989  -5.294559   0.384346   0.482384   1.099929
     3  C    0.189118  -5.294559  15.005624  -0.030440  -0.000722  -5.503503
     4  C   -0.664180   0.384346  -0.030440   5.767203  -0.064121   0.230722
     5  H    0.013387   0.482384  -0.000722  -0.064121   0.487233  -0.083202
     6  C   -3.015529   1.099929  -5.503503   0.230722  -0.083202  20.457698
     7  C   -0.766689   1.006984  -1.553264  -0.106013   0.015939   0.767693
     8  H   -0.016865  -0.092047   0.658009   0.003055  -0.002782  -0.162330
     9  C   -0.272413  -0.738625   1.037504   0.534458  -0.000529  -0.866491
    10  H   -0.015891  -0.040904  -0.028153   0.449401  -0.013377   0.026204
    11  C   -1.264486  -0.772304   2.568624  -0.384201   0.013778  -7.328610
    12  O    0.362362  -0.173842   0.094759  -0.027611  -0.001037   0.230278
    13  H    0.017488   0.034983  -0.153505   0.001508   0.001495   0.037546
    14  H    0.032360  -0.005684   0.030970  -0.069700   0.000489  -0.021969
    15  C    0.537724  -0.641611   0.786567   0.143619  -0.079487  -1.599952
    16  C   -0.846053   0.642373  -0.757582  -0.013157   0.028363   1.137494
    17  C   -0.216437   0.184302  -0.472033   0.119629  -0.004874   1.426921
    18  H    0.030986  -0.060297   0.048932  -0.019647  -0.003540  -0.010778
    19  C   -0.199929   0.231762  -0.308584  -0.005721   0.000109   0.019192
    20  H    0.005717   0.013033  -0.039962   0.002912  -0.000741   0.048511
    21  C   -0.006960  -0.081355   0.108610   0.015956  -0.002840   0.034821
    22  H   -0.009445   0.012588  -0.011526   0.000772   0.000403   0.005780
    23  H   -0.002486   0.002620  -0.001107  -0.000447   0.000187  -0.003759
    24  H    0.001003  -0.003283   0.004090   0.000142  -0.000180  -0.011498
               7          8          9         10         11         12
     1  C   -0.766689  -0.016865  -0.272413  -0.015891  -1.264486   0.362362
     2  C    1.006984  -0.092047  -0.738625  -0.040904  -0.772304  -0.173842
     3  C   -1.553264   0.658009   1.037504  -0.028153   2.568624   0.094759
     4  C   -0.106013   0.003055   0.534458   0.449401  -0.384201  -0.027611
     5  H    0.015939  -0.002782  -0.000529  -0.013377   0.013778  -0.001037
     6  C    0.767693  -0.162330  -0.866491   0.026204  -7.328610   0.230278
     7  C    6.597103  -0.162690  -0.045097   0.021455   0.019643  -0.025261
     8  H   -0.162690   0.508772   0.032949   0.000562   0.088493   0.001320
     9  C   -0.045097   0.032949   6.076184  -0.086040   0.224983   0.010236
    10  H    0.021455   0.000562  -0.086040   0.491642   0.006984  -0.000129
    11  C    0.019643   0.088493   0.224983   0.006984  16.078736  -0.085784
    12  O   -0.025261   0.001320   0.010236  -0.000129  -0.085784   7.847306
    13  H    0.489567  -0.016811  -0.086422   0.000275   0.001708  -0.000175
    14  H   -0.087675   0.000988   0.472597  -0.013072  -0.001089   0.000231
    15  C   -0.279940   0.044325   0.073736  -0.001313   0.339063  -0.049015
    16  C    0.283520  -0.064391  -0.062394   0.001052  -1.332853   0.035646
    17  C    0.023627  -0.022318  -0.038762   0.000480  -2.180992  -0.040840
    18  H   -0.001155  -0.000527   0.013521  -0.002151  -0.068716  -0.004325
    19  C    0.046945  -0.015036  -0.012205   0.000587  -0.794293   0.000181
    20  H   -0.008972  -0.000993  -0.000246  -0.000097   0.016091  -0.017994
    21  C   -0.007802   0.005921  -0.000877   0.000457  -0.182752   0.009651
    22  H    0.000448  -0.000290  -0.000474   0.000091   0.045172   0.000222
    23  H    0.001127  -0.000510  -0.000027   0.000010  -0.019049   0.001607
    24  H   -0.000418   0.000302   0.000167   0.000000   0.022314   0.000189
              13         14         15         16         17         18
     1  C    0.017488   0.032360   0.537724  -0.846053  -0.216437   0.030986
     2  C    0.034983  -0.005684  -0.641611   0.642373   0.184302  -0.060297
     3  C   -0.153505   0.030970   0.786567  -0.757582  -0.472033   0.048932
     4  C    0.001508  -0.069700   0.143619  -0.013157   0.119629  -0.019647
     5  H    0.001495   0.000489  -0.079487   0.028363  -0.004874  -0.003540
     6  C    0.037546  -0.021969  -1.599952   1.137494   1.426921  -0.010778
     7  C    0.489567  -0.087675  -0.279940   0.283520   0.023627  -0.001155
     8  H   -0.016811   0.000988   0.044325  -0.064391  -0.022318  -0.000527
     9  C   -0.086422   0.472597   0.073736  -0.062394  -0.038762   0.013521
    10  H    0.000275  -0.013072  -0.001313   0.001052   0.000480  -0.002151
    11  C    0.001708  -0.001089   0.339063  -1.332853  -2.180992  -0.068716
    12  O   -0.000175   0.000231  -0.049015   0.035646  -0.040840  -0.004325
    13  H    0.489779  -0.012447  -0.017535   0.011146   0.001298  -0.000982
    14  H   -0.012447   0.494171   0.001585  -0.002103  -0.000954   0.000066
    15  C   -0.017535   0.001585  13.415489  -4.710576  -1.630409   0.623561
    16  C    0.011146  -0.002103  -4.710576  10.452720   0.756116  -0.096240
    17  C    0.001298  -0.000954  -1.630409   0.756116   7.636651  -0.077034
    18  H   -0.000982   0.000066   0.623561  -0.096240  -0.077034   0.488681
    19  C    0.001680  -0.000354  -0.147062   0.716032  -0.140644   0.008498
    20  H   -0.000187   0.000055   0.071272   0.344758   0.031808   0.000984
    21  C   -0.000250  -0.000150   0.019811  -0.536894   0.538793   0.005897
    22  H    0.000062   0.000022  -0.145884   0.048155   0.444543  -0.015955
    23  H    0.000045  -0.000003  -0.028335  -0.037700   0.011325  -0.001556
    24  H   -0.000022  -0.000001  -0.003243  -0.033220  -0.070946   0.001568
              19         20         21         22         23         24
     1  C   -0.199929   0.005717  -0.006960  -0.009445  -0.002486   0.001003
     2  C    0.231762   0.013033  -0.081355   0.012588   0.002620  -0.003283
     3  C   -0.308584  -0.039962   0.108610  -0.011526  -0.001107   0.004090
     4  C   -0.005721   0.002912   0.015956   0.000772  -0.000447   0.000142
     5  H    0.000109  -0.000741  -0.002840   0.000403   0.000187  -0.000180
     6  C    0.019192   0.048511   0.034821   0.005780  -0.003759  -0.011498
     7  C    0.046945  -0.008972  -0.007802   0.000448   0.001127  -0.000418
     8  H   -0.015036  -0.000993   0.005921  -0.000290  -0.000510   0.000302
     9  C   -0.012205  -0.000246  -0.000877  -0.000474  -0.000027   0.000167
    10  H    0.000587  -0.000097   0.000457   0.000091   0.000010   0.000000
    11  C   -0.794293   0.016091  -0.182752   0.045172  -0.019049   0.022314
    12  O    0.000181  -0.017994   0.009651   0.000222   0.001607   0.000189
    13  H    0.001680  -0.000187  -0.000250   0.000062   0.000045  -0.000022
    14  H   -0.000354   0.000055  -0.000150   0.000022  -0.000003  -0.000001
    15  C   -0.147062   0.071272   0.019811  -0.145884  -0.028335  -0.003243
    16  C    0.716032   0.344758  -0.536894   0.048155  -0.037700  -0.033220
    17  C   -0.140644   0.031808   0.538793   0.444543   0.011325  -0.070946
    18  H    0.008498   0.000984   0.005897  -0.015955  -0.001556   0.001568
    19  C    6.425771  -0.140443   0.312002   0.008222   0.492705  -0.078436
    20  H   -0.140443   0.465945  -0.006052  -0.000076  -0.014654   0.001627
    21  C    0.312002  -0.006052   5.662438  -0.068236  -0.068766   0.524081
    22  H    0.008222  -0.000076  -0.068236   0.486822   0.001790  -0.015889
    23  H    0.492705  -0.014654  -0.068766   0.001790   0.485544  -0.017475
    24  H   -0.078436   0.001627   0.524081  -0.015889  -0.017475   0.501240
 Mulliken charges:
               1
     1  C    0.847502
     2  C    0.082285
     3  C   -0.377869
     4  C   -0.268486
     5  H    0.213665
     6  C   -0.915167
     7  C   -0.229074
     8  H    0.212893
     9  C   -0.265734
    10  H    0.201930
    11  C    0.989540
    12  O   -0.167974
    13  H    0.199755
    14  H    0.181667
    15  C   -0.722390
    16  C    0.035787
    17  C   -0.279250
    18  H    0.140210
    19  C   -0.420980
    20  H    0.227705
    21  C   -0.275503
    22  H    0.212686
    23  H    0.198914
    24  H    0.177888
 Sum of Mulliken charges =  -0.00000
 Mulliken charges with hydrogens summed into heavy atoms:
               1
     1  C    0.847502
     2  C    0.295950
     3  C   -0.164976
     4  C   -0.066556
     6  C   -0.915167
     7  C   -0.029319
     9  C   -0.084067
    11  C    0.989540
    12  O   -0.167974
    15  C   -0.582180
    16  C    0.263492
    17  C   -0.066564
    19  C   -0.222066
    21  C   -0.097614
 Electronic spatial extent (au):  <R**2>=           3002.5768
 Charge=              0.0000 electrons
 Dipole moment (field-independent basis, Debye):
    X=              0.2908    Y=             -3.1947    Z=              1.0947  Tot=              3.3895
 Quadrupole moment (field-independent basis, Debye-Ang):
   XX=            -66.7635   YY=            -84.6561   ZZ=            -78.1982
   XY=              2.4261   XZ=              0.9973   YZ=              5.9781
 Traceless Quadrupole moment (field-independent basis, Debye-Ang):
   XX=              9.7758   YY=             -8.1168   ZZ=             -1.6590
   XY=              2.4261   XZ=              0.9973   YZ=              5.9781
 Octapole moment (field-independent basis, Debye-Ang**2):
  XXX=             18.2512  YYY=            -20.5487  ZZZ=             -1.4003  XYY=             13.7056
  XXY=            -18.1340  XXZ=             13.8568  XZZ=            -18.5990  YZZ=              1.7933
  YYZ=              6.0325  XYZ=             -0.9427
 Hexadecapole moment (field-independent basis, Debye-Ang**3):
 XXXX=          -2807.9109 YYYY=           -664.0512 ZZZZ=           -338.0588 XXXY=             65.3596
 XXXZ=             22.6595 YYYX=            -10.9676 YYYZ=             25.3744 ZZZX=            -10.5965
 ZZZY=              6.5188 XXYY=           -585.6623 XXZZ=           -567.9586 YYZZ=           -174.2239
 XXYZ=             13.9510 YYXZ=              7.1129 ZZXY=             11.4322
 N-N= 7.826696576457D+02 E-N=-2.907488480831D+03  KE= 5.764028354072D+02
 No NMR shielding tensors so no spin-rotation constants.
 Leave Link  601 at Tue Nov 22 14:58:55 2022, MaxMem= 16106127360 cpu:               4.9 elap:               0.2
 (Enter /opt/ap/G16/B01/g16/l9999.exe)
 1\1\GINC-N13\SP\RwB97XD\6-311++G(d,p)\C13H10O1\ROOT\22-Nov-2022\0\\#P 
 wB97XD/6-311++G(d,p) scf=maxcycle=512\\_conf000.gjf nmol_natom 1_24\\0
 ,1\C\C,1,1.39746343\C,1,1.39996263,2,119.28066518\C,2,1.39288453,1,120
 .37436646,3,-0.51002981,0\H,2,0.95014703,1,119.82324024,3,179.45634896
 ,0\C,1,1.49653039,2,122.77761373,4,174.46828757,0\C,3,1.3870125,1,120.
 10017821,2,-0.37315804,0\H,3,0.9501092,1,119.95246451,2,179.5923884,0\
 C,7,1.38720039,3,120.16568731,1,1.0745106,0\H,4,0.95011919,2,120.18755
 644,1,-179.31195299,0\C,6,1.49516902,1,120.70972921,2,-90.,0\O,6,1.221
 50059,1,119.67074267,2,90.,0\H,7,0.94956661,3,119.91274826,1,-178.8863
 6029,0\H,9,0.94992259,7,119.76037934,3,179.10763853,0\C,11,1.39713972,
 6,122.62585705,1,30.97749054,0\C,11,1.40039562,6,117.74753532,1,-153.1
 5467779,0\C,15,1.39455701,11,119.80747484,6,175.4763048,0\H,15,0.94962
 854,11,120.10535689,6,-4.50802339,0\C,16,1.38466431,11,120.4617377,6,-
 176.88197195,0\H,16,0.9497464,11,119.75779177,6,3.14699974,0\C,17,1.39
 088945,15,120.3475273,11,0.7973643,0\H,17,0.94984298,15,119.8156451,11
 ,-179.16676483,0\H,19,0.94974749,16,119.98566335,11,-178.40987425,0\H,
 21,0.94938585,17,120.0744529,15,179.91636093,0\\Version=ES64L-G16RevB.
 01\State=1-A\HF=-576.4123736\RMSD=7.277e-09\Dipole=0.5123638,-1.208904
 1,0.233095\Quadrupole=1.3647596,-5.5493335,4.1845739,5.7133636,2.83944
 32,1.7748206\PG=C01 [X(C13H10O1)]\\@


 NATURE GIVES TO EVERY TIME AND SEASON SOME BEAUTY OF ITS OWN.

                                                    --DICKENS
 Job cpu time:       0 days  0 hours 21 minutes 15.0 seconds.
 Elapsed time:       0 days  0 hours  0 minutes 40.1 seconds.
 File lengths (MBytes):  RWF=     78 Int=      0 D2E=      0 Chk=      9 Scr=      1
 Normal termination of Gaussian 16 at Tue Nov 22 14:58:55 2022.
