 Entering Gaussian System, Link 0=g16
 Input=_conf010.gjf
 Output=_conf010.log
 Initial command:
 /opt/ap/G16/B01/g16/l1.exe "/tmp2/scr/Gau-4485.inp" -scrdir="/tmp2/scr/"
 Entering Link 1 = /opt/ap/G16/B01/g16/l1.exe PID=      4486.
  
 Copyright (c) 1988-2017, Gaussian, Inc.  All Rights Reserved.
  
 This is part of the Gaussian(R) 16 program.  It is based on
 the Gaussian(R) 09 system (copyright 2009, Gaussian, Inc.),
 the Gaussian(R) 03 system (copyright 2003, Gaussian, Inc.),
 the Gaussian(R) 98 system (copyright 1998, Gaussian, Inc.),
 the Gaussian(R) 94 system (copyright 1995, Gaussian, Inc.),
 the Gaussian 92(TM) system (copyright 1992, Gaussian, Inc.),
 the Gaussian 90(TM) system (copyright 1990, Gaussian, Inc.),
 the Gaussian 88(TM) system (copyright 1988, Gaussian, Inc.),
 the Gaussian 86(TM) system (copyright 1986, Carnegie Mellon
 University), and the Gaussian 82(TM) system (copyright 1983,
 Carnegie Mellon University). Gaussian is a federally registered
 trademark of Gaussian, Inc.
  
 This software contains proprietary and confidential information,
 including trade secrets, belonging to Gaussian, Inc.
  
 This software is provided under written license and may be
 used, copied, transmitted, or stored only in accord with that
 written license.
  
 The following legend is applicable only to US Government
 contracts under FAR:
  
                    RESTRICTED RIGHTS LEGEND
  
 Use, reproduction and disclosure by the US Government is
 subject to restrictions as set forth in subparagraphs (a)
 and (c) of the Commercial Computer Software - Restricted
 Rights clause in FAR 52.227-19.
  
 Gaussian, Inc.
 340 Quinnipiac St., Bldg. 40, Wallingford CT 06492
  
  
 ---------------------------------------------------------------
 Warning -- This program may not be used in any manner that
 competes with the business of Gaussian, Inc. or will provide
 assistance to any competitor of Gaussian, Inc.  The licensee
 of this program is prohibited from giving any competitor of
 Gaussian, Inc. access to this program.  By using this program,
 the user acknowledges that Gaussian, Inc. is engaged in the
 business of creating and licensing software in the field of
 computational chemistry and represents and warrants to the
 licensee that it is not a competitor of Gaussian, Inc. and that
 it will not use this program in any manner prohibited above.
 ---------------------------------------------------------------
  

 Cite this work as:
 Gaussian 16, Revision B.01,
 M. J. Frisch, G. W. Trucks, H. B. Schlegel, G. E. Scuseria, 
 M. A. Robb, J. R. Cheeseman, G. Scalmani, V. Barone, 
 G. A. Petersson, H. Nakatsuji, X. Li, M. Caricato, A. V. Marenich, 
 J. Bloino, B. G. Janesko, R. Gomperts, B. Mennucci, H. P. Hratchian, 
 J. V. Ortiz, A. F. Izmaylov, J. L. Sonnenberg, D. Williams-Young, 
 F. Ding, F. Lipparini, F. Egidi, J. Goings, B. Peng, A. Petrone, 
 T. Henderson, D. Ranasinghe, V. G. Zakrzewski, J. Gao, N. Rega, 
 G. Zheng, W. Liang, M. Hada, M. Ehara, K. Toyota, R. Fukuda, 
 J. Hasegawa, M. Ishida, T. Nakajima, Y. Honda, O. Kitao, H. Nakai, 
 T. Vreven, K. Throssell, J. A. Montgomery, Jr., J. E. Peralta, 
 F. Ogliaro, M. J. Bearpark, J. J. Heyd, E. N. Brothers, K. N. Kudin, 
 V. N. Staroverov, T. A. Keith, R. Kobayashi, J. Normand, 
 K. Raghavachari, A. P. Rendell, J. C. Burant, S. S. Iyengar, 
 J. Tomasi, M. Cossi, J. M. Millam, M. Klene, C. Adamo, R. Cammi, 
 J. W. Ochterski, R. L. Martin, K. Morokuma, O. Farkas, 
 J. B. Foresman, and D. J. Fox, Gaussian, Inc., Wallingford CT, 2016.
 
 ******************************************
 Gaussian 16:  ES64L-G16RevB.01 20-Dec-2017
                22-Nov-2022 
 ******************************************
 %nprocshared=32
 Will use up to   32 processors via shared memory.
 %mem=120GB
 %chk=_conf010.chk
 ----------------------------------------
 #P wB97XD/6-311++G(d,p) scf=maxcycle=512
 ----------------------------------------
 1/38=1,172=1/1;
 2/12=2,17=6,18=5,40=1/2;
 3/5=4,6=6,7=1111,11=2,25=1,30=1,74=-58/1,2,3;
 4//1;
 5/5=2,7=512,38=5/2;
 6/7=2,8=2,9=2,10=2,28=1/1;
 99/5=1,9=1/99;
 Leave Link    1 at Tue Nov 22 14:59:38 2022, MaxMem= 16106127360 cpu:               2.2 elap:               0.1
 (Enter /opt/ap/G16/B01/g16/l101.exe)
 ----------------------------
 _conf010.gjf nmol_natom 1_24
 ----------------------------
 Symbolic Z-matrix:
 Charge =  0 Multiplicity = 1
 C
 C                    1     1.39746 
 C                    1     1.39996  2     119.28067 
 C                    2     1.39288  1     120.37437  3    -0.51003  0
 H                    2     0.95015  1     119.82324  3     179.45635  0
 C                    1     1.49653  2     122.77761  4     174.46829  0
 C                    3     1.38701  1     120.10018  2    -0.37316  0
 H                    3     0.95011  1     119.95246  2     179.59239  0
 C                    7     1.3872   3     120.16569  1     1.07451  0
 H                    4     0.95012  2     120.18756  1    -179.31195  0
 C                    6     1.49517  1     120.70973  2    -40.      0
 O                    6     1.2215   1     119.67074  2     140.     0
 H                    7     0.94957  3     119.91275  1    -178.88636  0
 H                    9     0.94992  7     119.76038  3     179.10764  0
 C                    11    1.39714  6     122.62586  1     30.97749  0
 C                    11    1.4004   6     117.74754  1    -153.15468  0
 C                    15    1.39456  11    119.80747  6     175.4763  0
 H                    15    0.94963  11    120.10536  6    -4.50802  0
 C                    16    1.38466  11    120.46174  6    -176.88197  0
 H                    16    0.94975  11    119.75779  6     3.147    0
 C                    17    1.39089  15    120.34753  11    0.79736  0
 H                    17    0.94984  15    119.81565  11   -179.16676  0
 H                    19    0.94975  16    119.98566  11   -178.40987  0
 H                    21    0.94939  17    120.07445  15    179.91636  0
 
 ITRead=  0  0  0  0  0  0  0  0  0  0  0  0  0  0  0  0  0  0  0  0
 ITRead=  0  0  0  0
 MicOpt= -1 -1 -1 -1 -1 -1 -1 -1 -1 -1 -1 -1 -1 -1 -1 -1 -1 -1 -1 -1
 MicOpt= -1 -1 -1 -1
 NAtoms=     24 NQM=       24 NQMF=       0 NMMI=      0 NMMIF=      0
                NMic=       0 NMicF=      0.
                    Isotopes and Nuclear Properties:
 (Nuclear quadrupole moments (NQMom) in fm**2, nuclear magnetic moments (NMagM)
  in nuclear magnetons)

  Atom         1           2           3           4           5           6           7           8           9          10
 IAtWgt=          12          12          12          12           1          12          12           1          12           1
 AtmWgt=  12.0000000  12.0000000  12.0000000  12.0000000   1.0078250  12.0000000  12.0000000   1.0078250  12.0000000   1.0078250
 NucSpn=           0           0           0           0           1           0           0           1           0           1
 AtZEff=  -0.0000000  -0.0000000  -0.0000000  -0.0000000  -0.0000000  -0.0000000  -0.0000000  -0.0000000  -0.0000000  -0.0000000
 NQMom=    0.0000000   0.0000000   0.0000000   0.0000000   0.0000000   0.0000000   0.0000000   0.0000000   0.0000000   0.0000000
 NMagM=    0.0000000   0.0000000   0.0000000   0.0000000   2.7928460   0.0000000   0.0000000   2.7928460   0.0000000   2.7928460
 AtZNuc=   6.0000000   6.0000000   6.0000000   6.0000000   1.0000000   6.0000000   6.0000000   1.0000000   6.0000000   1.0000000

  Atom        11          12          13          14          15          16          17          18          19          20
 IAtWgt=          12          16           1           1          12          12          12           1          12           1
 AtmWgt=  12.0000000  15.9949146   1.0078250   1.0078250  12.0000000  12.0000000  12.0000000   1.0078250  12.0000000   1.0078250
 NucSpn=           0           0           1           1           0           0           0           1           0           1
 AtZEff=  -0.0000000  -0.0000000  -0.0000000  -0.0000000  -0.0000000  -0.0000000  -0.0000000  -0.0000000  -0.0000000  -0.0000000
 NQMom=    0.0000000   0.0000000   0.0000000   0.0000000   0.0000000   0.0000000   0.0000000   0.0000000   0.0000000   0.0000000
 NMagM=    0.0000000   0.0000000   2.7928460   2.7928460   0.0000000   0.0000000   0.0000000   2.7928460   0.0000000   2.7928460
 AtZNuc=   6.0000000   8.0000000   1.0000000   1.0000000   6.0000000   6.0000000   6.0000000   1.0000000   6.0000000   1.0000000

  Atom        21          22          23          24
 IAtWgt=          12           1           1           1
 AtmWgt=  12.0000000   1.0078250   1.0078250   1.0078250
 NucSpn=           0           1           1           1
 AtZEff=  -0.0000000  -0.0000000  -0.0000000  -0.0000000
 NQMom=    0.0000000   0.0000000   0.0000000   0.0000000
 NMagM=    0.0000000   2.7928460   2.7928460   2.7928460
 AtZNuc=   6.0000000   1.0000000   1.0000000   1.0000000
 Leave Link  101 at Tue Nov 22 14:59:38 2022, MaxMem= 16106127360 cpu:               6.1 elap:               0.2
 (Enter /opt/ap/G16/B01/g16/l202.exe)
                          Input orientation:                          
 ---------------------------------------------------------------------
 Center     Atomic      Atomic             Coordinates (Angstroms)
 Number     Number       Type             X           Y           Z
 ---------------------------------------------------------------------
      1          6           0        0.000000    0.000000    0.000000
      2          6           0        0.000000    0.000000    1.397463
      3          6           0        1.221096    0.000000   -0.684705
      4          6           0        1.201650   -0.010697    2.101772
      5          1           0       -0.824276    0.007821    1.869996
      6          6           0       -1.253421   -0.110138   -0.810191
      7          6           0        2.414707    0.007815    0.021719
      8          1           0        1.232246   -0.005856   -1.634731
      9          6           0        2.403895   -0.006831    1.408800
     10          1           0        1.198494   -0.020531    3.051836
     11          6           0       -2.351693   -1.036127   -0.395617
     12          8           0       -1.381100    0.563489   -1.821125
     13          1           0        3.241298    0.023792   -0.445367
     14          1           0        3.224827   -0.014217    1.886678
     15          6           0       -2.612953   -1.343691    0.941973
     16          6           0       -3.193820   -1.537831   -1.395729
     17          6           0       -3.710538   -2.139531    1.268675
     18          1           0       -2.044990   -1.011661    1.626786
     19          6           0       -4.267821   -2.347984   -1.067904
     20          1           0       -3.026732   -1.321116   -2.305199
     21          6           0       -4.536599   -2.642113    0.268871
     22          1           0       -3.895117   -2.338904    2.178830
     23          1           0       -4.821233   -2.702951   -1.753290
     24          1           0       -5.282086   -3.184495    0.495594
 ---------------------------------------------------------------------
                    Distance matrix (angstroms):
                    1          2          3          4          5
     1  C    0.000000
     2  C    1.397463   0.000000
     3  C    1.399963   2.413814   0.000000
     4  C    2.421058   1.392885   2.786566   0.000000
     5  H    2.043619   0.950147   3.272630   2.039225   0.000000
     6  C    1.496530   2.541049   2.480142   3.810091   2.716889
     7  C    2.414817   2.779127   1.387013   2.408002   3.729228
     8  H    2.047146   3.273021   0.950109   3.736632   4.063567
     9  C    2.786301   2.403931   2.404542   1.387667   3.260982
    10  H    3.278797   2.042977   3.736665   0.950119   2.342893
    11  C    2.600103   3.133554   3.731213   4.462590   2.925036
    12  O    2.354029   3.547432   2.894891   4.731745   3.774016
    13  H    3.271839   3.728619   2.034469   3.263323   4.678681
    14  H    3.736210   3.261755   3.259932   2.034583   4.049198
    15  C    3.085505   2.973298   4.376244   4.203950   2.426351
    16  C    3.809655   4.513019   4.728844   5.821066   4.320734
    17  C    4.467127   4.285122   5.719641   5.418078   3.647358
    18  H    2.802120   2.293040   4.127198   3.430483   1.608925
    19  C    4.986757   5.459429   5.982314   6.739798   5.102850
    20  H    4.027455   4.961468   4.734489   6.246423   4.903992
    21  C    5.256784   5.369843   6.406334   6.573536   4.833952
    22  H    5.038821   4.610092   6.312364   5.603884   3.877185
    23  H    5.798643   6.362192   6.705039   7.640998   6.037562
    24  H    6.187654   6.233363   7.336586   7.395379   5.652604
                    6          7          8          9         10
     6  C    0.000000
     7  C    3.763130   0.000000
     8  H    2.620930   2.035246   0.000000
     9  C    4.279082   1.387200   3.261263   0.000000
    10  H    4.575496   3.265208   4.686711   2.037829   0.000000
    11  C    1.495169   4.897199   3.929565   5.189507   5.051752
    12  O    1.221501   4.255937   2.681133   5.008379   5.544469
    13  H    4.511488   0.949567   2.334899   2.034727   4.050363
    14  H    5.228480   2.033434   4.046081   0.949923   2.337447
    15  C    2.537727   5.286851   4.818169   5.212857   4.552955
    16  C    2.479176   5.987801   4.689790   6.445444   6.432376
    17  C    3.804937   6.609434   6.116653   6.477216   5.636348
    18  H    2.716281   4.848141   4.731745   4.566156   3.678763
    19  C    3.763108   7.168908   6.004797   7.491786   7.229792
    20  H    2.616515   6.065465   4.507586   6.709161   6.945637
    21  C    4.284219   7.443376   6.622168   7.510965   6.892668
    22  H    4.569487   7.069236   6.802662   6.760848   5.664086
    23  H    4.510144   7.928287   6.628196   8.334887   8.156085
    24  H    5.233249   8.346019   7.555035   8.366947   7.651337
                   11         12         13         14         15
    11  C    0.000000
    12  O    2.352211   0.000000
    13  H    5.692754   4.852890   0.000000
    14  H    6.111526   5.941053   2.332413   0.000000
    15  C    1.397140   3.576242   6.169843   6.061324   0.000000
    16  C    1.400396   2.807573   6.689738   7.368489   2.416598
    17  C    2.415332   4.720113   7.479701   7.279985   1.394557
    18  H    2.045674   3.848369   5.771553   5.369676   0.949629
    19  C    2.417537   4.168594   7.899351   8.385452   2.790484
    20  H    2.045335   2.548367   6.675024   7.639490   3.273506
    21  C    2.791872   4.959954   8.253051   8.352417   2.416481
    22  H    3.272181   5.544711   7.962234   7.495541   2.040640
    23  H    3.274172   4.744339   8.611051   9.231346   3.740125
    24  H    3.741249   5.884919   9.155686   9.184408   3.272933
                   16         17         18         19         20
    16  C    0.000000
    17  C    2.779944   0.000000
    18  H    3.276013   2.043131   0.000000
    19  C    1.384664   2.411145   3.740066   0.000000
    20  H    0.949746   3.729607   4.064490   2.031171   0.000000
    21  C    2.406945   1.390889   3.272678   1.394891   3.263520
    22  H    3.729747   0.949843   2.342925   3.268069   4.679370
    23  H    2.033181   3.268541   4.689659   0.949747   2.331159
    24  H    3.263351   2.039453   4.059507   2.042795   4.050092
                   21         22         23         24
    21  C    0.000000
    22  H    2.037493   0.000000
    23  H    2.043001   4.056081   0.000000
    24  H    0.949386   2.339229   2.345581   0.000000
 Stoichiometry    C13H10O
 Framework group  C1[X(C13H10O)]
 Deg. of freedom    66
 Full point group                 C1      NOp   1
 Largest Abelian subgroup         C1      NOp   1
 Largest concise Abelian subgroup C1      NOp   1
                         Standard orientation:                         
 ---------------------------------------------------------------------
 Center     Atomic      Atomic             Coordinates (Angstroms)
 Number     Number       Type             X           Y           Z
 ---------------------------------------------------------------------
      1          6           0        1.312221    0.365800    0.220257
      2          6           0        1.533747   -0.974282    0.548906
      3          6           0        2.329820    1.094110   -0.407400
      4          6           0        2.749826   -1.582061    0.245784
      5          1           0        0.851234   -1.473655    0.982014
      6          6           0       -0.010998    1.038546    0.410275
      7          6           0        3.545349    0.488968   -0.690409
      8          1           0        2.187440    2.004157   -0.640317
      9          6           0        3.750093   -0.845857   -0.373158
     10          1           0        2.894052   -2.496028    0.461633
     11          6           0       -1.284684    0.319560    0.099930
     12          8           0       -0.051456    2.187378    0.823325
     13          1           0        4.239252    0.989856   -1.101852
     14          1           0        4.580335   -1.257946   -0.581085
     15          6           0       -1.422050   -1.063790    0.239474
     16          6           0       -2.396781    1.089939   -0.261822
     17          6           0       -2.663136   -1.662361    0.024513
     18          1           0       -0.672613   -1.594999    0.480212
     19          6           0       -3.620985    0.487706   -0.498322
     20          1           0       -2.310433    2.032009   -0.345885
     21          6           0       -3.760677   -0.891577   -0.344091
     22          1           0       -2.759390   -2.601305    0.130920
     23          1           0       -4.365183    1.013954   -0.765253
     24          1           0       -4.603516   -1.303267   -0.490605
 ---------------------------------------------------------------------
 Rotational constants (GHZ):           1.6747444           0.4231663           0.3555841
 Leave Link  202 at Tue Nov 22 14:59:38 2022, MaxMem= 16106127360 cpu:               0.3 elap:               0.0
 (Enter /opt/ap/G16/B01/g16/l301.exe)
 Standard basis: 6-311++G(d,p) (5D, 7F)
 Ernie: Thresh=  0.10000D-02 Tol=  0.10000D-05 Strict=F.
 There are   392 symmetry adapted cartesian basis functions of A   symmetry.
 There are   378 symmetry adapted basis functions of A   symmetry.
   378 basis functions,   594 primitive gaussians,   392 cartesian basis functions
    48 alpha electrons       48 beta electrons
       nuclear repulsion energy       784.6470593229 Hartrees.
 IExCor= 4639 DFT=T Ex+Corr=wB97XD ExCW=0 ScaHFX=  1.000000
 ScaDFX=  1.000000  1.000000  1.000000  1.000000 ScalE2=  1.000000  1.000000
 IRadAn=      5 IRanWt=     -1 IRanGd=            0 ICorTp=0 IEmpDi=121
 HFx  wShort=  0.000000 wLong=  0.200000 cFull=  0.222036 cShort=  0.000000 cLong=  0.777964
 DFx  wShort=  0.000000 wLong=  0.200000 cFull=  0.000000 cShort=  0.000000 cLong=  1.000000
 NAtoms=   24 NActive=   24 NUniq=   24 SFac= 1.00D+00 NAtFMM=   60 NAOKFM=F Big=F
 Integral buffers will be    131072 words long.
 Raffenetti 2 integral format.
 Two-electron integral symmetry is turned on.
 R6Disp:  Grimme-D2 Dispersion energy=       -0.0139024393 Hartrees.
 Nuclear repulsion after empirical dispersion term =      784.6331568836 Hartrees.
 Leave Link  301 at Tue Nov 22 14:59:38 2022, MaxMem= 16106127360 cpu:               1.3 elap:               0.0
 (Enter /opt/ap/G16/B01/g16/l302.exe)
 NPDir=0 NMtPBC=     1 NCelOv=     1 NCel=       1 NClECP=     1 NCelD=      1
         NCelK=      1 NCelE2=     1 NClLst=     1 CellRange=     0.0.
 One-electron integrals computed using PRISM.
 One-electron integral symmetry used in STVInt
 NBasis=   378 RedAO= T EigKep=  1.06D-06  NBF=   378
 NBsUse=   376 1.00D-06 EigRej=  7.92D-07 NBFU=   376
 Precomputing XC quadrature grid using
 IXCGrd= 4 IRadAn=           5 IRanWt=          -1 IRanGd=           0 AccXCQ= 0.00D+00.
 Generated NRdTot=       0 NPtTot=           0 NUsed=           0 NTot=          32
 NSgBfM=   392   392   392   392   392 MxSgAt=    24 MxSgA2=    24.
 Leave Link  302 at Tue Nov 22 14:59:38 2022, MaxMem= 16106127360 cpu:               9.6 elap:               0.3
 (Enter /opt/ap/G16/B01/g16/l303.exe)
 DipDrv:  MaxL=1.
 Leave Link  303 at Tue Nov 22 14:59:38 2022, MaxMem= 16106127360 cpu:               1.7 elap:               0.1
 (Enter /opt/ap/G16/B01/g16/l401.exe)
 ExpMin= 3.60D-02 ExpMax= 8.59D+03 ExpMxC= 1.30D+03 IAcc=3 IRadAn=         5 AccDes= 0.00D+00
 Harris functional with IExCor= 4639 and IRadAn=       5 diagonalized for initial guess.
 HarFok:  IExCor= 4639 AccDes= 0.00D+00 IRadAn=         5 IDoV= 1 UseB2=F ITyADJ=14
 ICtDFT=  3500011 ScaDFX=  1.000000  1.000000  1.000000  1.000000
 FoFCou: FMM=F IPFlag=           0 FMFlag=      100000 FMFlg1=           0
         NFxFlg=           0 DoJE=T BraDBF=F KetDBF=T FulRan=T
         wScrn=  0.000000 ICntrl=       500 IOpCl=  0 I1Cent=   200000004 NGrid=           0
         NMat0=    1 NMatS0=      1 NMatT0=    0 NMatD0=    1 NMtDS0=    0 NMtDT0=    0
 Petite list used in FoFCou.
 Harris En= -550.893101943750    
 JPrj=0 DoOrth=F DoCkMO=F.
 Leave Link  401 at Tue Nov 22 14:59:39 2022, MaxMem= 16106127360 cpu:              22.8 elap:               0.7
 (Enter /opt/ap/G16/B01/g16/l502.exe)
 Integral symmetry usage will be decided dynamically.
 Closed shell SCF:
 Using DIIS extrapolation, IDIIS=  1040.
 NGot= 16106127360 LenX= 16105803762 LenY= 16105649657
 Requested convergence on RMS density matrix=1.00D-08 within 512 cycles.
 Requested convergence on MAX density matrix=1.00D-06.
 Requested convergence on             energy=1.00D-06.
 No special actions if energy rises.
 Fock matrices will be formed incrementally for  20 cycles.

 Cycle   1  Pass 1  IDiag  1:
 FoFJK:  IHMeth= 1 ICntrl=       0 DoSepK=T KAlg= 0 I1Cent=           0 FoldK=F
 IRaf=         1 NMat=       1 IRICut=       1 DoRegI=T DoRafI=F ISym2E= 0 IDoP0=0 IntGTp=1.
 FoFCou: FMM=F IPFlag=           0 FMFlag=      100000 FMFlg1=           0
         NFxFlg=           0 DoJE=T BraDBF=F KetDBF=F FulRan=T
         wScrn=  0.000000 ICntrl=       500 IOpCl=  0 I1Cent=           0 NGrid=           0
         NMat0=    1 NMatS0=      1 NMatT0=    0 NMatD0=    1 NMtDS0=    0 NMtDT0=    0
 Symmetry not used in FoFCou.
 E= -576.252804051324    
 DIIS: error= 5.36D-02 at cycle   1 NSaved=   1.
 NSaved= 1 IEnMin= 1 EnMin= -576.252804051324     IErMin= 1 ErrMin= 5.36D-02
 ErrMax= 5.36D-02  0.00D+00 EMaxC= 1.00D-01 BMatC= 1.19D+00 BMatP= 1.19D+00
 IDIUse=3 WtCom= 4.64D-01 WtEn= 5.36D-01
 Coeff-Com:  0.100D+01
 Coeff-En:   0.100D+01
 Coeff:      0.100D+01
 Gap=     0.405 Goal=   None    Shift=    0.000
 GapD=    0.405 DampG=2.000 DampE=0.500 DampFc=1.0000 IDamp=-1.
 RMSDP=3.77D-02 MaxDP=6.58D+00              OVMax= 1.28D-01

 Cycle   2  Pass 1  IDiag  1:
 RMSU=  1.44D-02    CP:  6.22D-01
 E= -576.342506756019     Delta-E=       -0.089702704695 Rises=F Damp=F
 DIIS: error= 1.19D-02 at cycle   2 NSaved=   2.
 NSaved= 2 IEnMin= 2 EnMin= -576.342506756019     IErMin= 2 ErrMin= 1.19D-02
 ErrMax= 1.19D-02  0.00D+00 EMaxC= 1.00D-01 BMatC= 7.48D-02 BMatP= 1.19D+00
 IDIUse=3 WtCom= 8.81D-01 WtEn= 1.19D-01
 Coeff-Com:  0.126D+00 0.874D+00
 Coeff-En:   0.143D+00 0.857D+00
 Coeff:      0.128D+00 0.872D+00
 Gap=     0.425 Goal=   None    Shift=    0.000
 RMSDP=9.09D-03 MaxDP=6.75D-01 DE=-8.97D-02 OVMax= 1.57D-01

 Cycle   3  Pass 1  IDiag  1:
 RMSU=  7.36D-03    CP:  6.51D-01  6.78D-01
 E= -576.359590740370     Delta-E=       -0.017083984351 Rises=F Damp=F
 DIIS: error= 1.23D-02 at cycle   3 NSaved=   3.
 NSaved= 3 IEnMin= 3 EnMin= -576.359590740370     IErMin= 2 ErrMin= 1.19D-02
 ErrMax= 1.23D-02  0.00D+00 EMaxC= 1.00D-01 BMatC= 5.42D-02 BMatP= 7.48D-02
 IDIUse=3 WtCom= 8.77D-01 WtEn= 1.23D-01
 Coeff-Com:  0.238D-01 0.463D+00 0.513D+00
 Coeff-En:   0.000D+00 0.428D+00 0.572D+00
 Coeff:      0.209D-01 0.459D+00 0.520D+00
 Gap=     0.348 Goal=   None    Shift=    0.000
 RMSDP=7.09D-03 MaxDP=9.11D-01 DE=-1.71D-02 OVMax= 5.96D-02

 Cycle   4  Pass 1  IDiag  1:
 RMSU=  2.18D-03    CP:  5.93D-01  8.12D-01  5.01D-01
 E= -576.407596205593     Delta-E=       -0.048005465223 Rises=F Damp=F
 DIIS: error= 1.74D-03 at cycle   4 NSaved=   4.
 NSaved= 4 IEnMin= 4 EnMin= -576.407596205593     IErMin= 4 ErrMin= 1.74D-03
 ErrMax= 1.74D-03  0.00D+00 EMaxC= 1.00D-01 BMatC= 8.59D-04 BMatP= 5.42D-02
 IDIUse=3 WtCom= 9.83D-01 WtEn= 1.74D-02
 Coeff-Com:  0.940D-02 0.195D+00 0.240D+00 0.556D+00
 Coeff-En:   0.000D+00 0.000D+00 0.000D+00 0.100D+01
 Coeff:      0.924D-02 0.192D+00 0.236D+00 0.563D+00
 Gap=     0.320 Goal=   None    Shift=    0.000
 RMSDP=6.00D-04 MaxDP=7.51D-02 DE=-4.80D-02 OVMax= 6.38D-03

 Cycle   5  Pass 1  IDiag  1:
 RMSU=  4.46D-04    CP:  5.89D-01  8.29D-01  5.00D-01  1.01D+00
 E= -576.408197712919     Delta-E=       -0.000601507327 Rises=F Damp=F
 DIIS: error= 4.52D-04 at cycle   5 NSaved=   5.
 NSaved= 5 IEnMin= 5 EnMin= -576.408197712919     IErMin= 5 ErrMin= 4.52D-04
 ErrMax= 4.52D-04  0.00D+00 EMaxC= 1.00D-01 BMatC= 7.91D-05 BMatP= 8.59D-04
 IDIUse=3 WtCom= 9.95D-01 WtEn= 4.52D-03
 Coeff-Com: -0.588D-03-0.841D-02-0.578D-03 0.219D+00 0.791D+00
 Coeff-En:   0.000D+00 0.000D+00 0.000D+00 0.000D+00 0.100D+01
 Coeff:     -0.585D-03-0.837D-02-0.576D-03 0.218D+00 0.792D+00
 Gap=     0.322 Goal=   None    Shift=    0.000
 RMSDP=3.60D-04 MaxDP=4.11D-02 DE=-6.02D-04 OVMax= 2.30D-03

 Cycle   6  Pass 1  IDiag  1:
 RMSU=  2.65D-04    CP:  5.88D-01  8.35D-01  5.20D-01  1.03D+00  8.52D-01
 E= -576.408258263022     Delta-E=       -0.000060550103 Rises=F Damp=F
 DIIS: error= 2.25D-04 at cycle   6 NSaved=   6.
 NSaved= 6 IEnMin= 6 EnMin= -576.408258263022     IErMin= 6 ErrMin= 2.25D-04
 ErrMax= 2.25D-04  0.00D+00 EMaxC= 1.00D-01 BMatC= 1.84D-05 BMatP= 7.91D-05
 IDIUse=3 WtCom= 9.98D-01 WtEn= 2.25D-03
 Coeff-Com: -0.123D-02-0.231D-01-0.227D-01 0.647D-01 0.433D+00 0.550D+00
 Coeff-En:   0.000D+00 0.000D+00 0.000D+00 0.000D+00 0.000D+00 0.100D+01
 Coeff:     -0.122D-02-0.230D-01-0.226D-01 0.646D-01 0.432D+00 0.551D+00
 Gap=     0.322 Goal=   None    Shift=    0.000
 RMSDP=1.08D-04 MaxDP=7.22D-03 DE=-6.06D-05 OVMax= 1.26D-03

 Cycle   7  Pass 1  IDiag  1:
 RMSU=  7.79D-05    CP:  5.88D-01  8.37D-01  5.17D-01  1.06D+00  8.55D-01
                    CP:  8.98D-01
 E= -576.408277149433     Delta-E=       -0.000018886411 Rises=F Damp=F
 DIIS: error= 4.16D-05 at cycle   7 NSaved=   7.
 NSaved= 7 IEnMin= 7 EnMin= -576.408277149433     IErMin= 7 ErrMin= 4.16D-05
 ErrMax= 4.16D-05  0.00D+00 EMaxC= 1.00D-01 BMatC= 4.78D-07 BMatP= 1.84D-05
 IDIUse=1 WtCom= 1.00D+00 WtEn= 0.00D+00
 Coeff-Com: -0.224D-03-0.431D-02-0.510D-02-0.107D-01-0.999D-02 0.106D+00
 Coeff-Com:  0.924D+00
 Coeff:     -0.224D-03-0.431D-02-0.510D-02-0.107D-01-0.999D-02 0.106D+00
 Coeff:      0.924D+00
 Gap=     0.322 Goal=   None    Shift=    0.000
 RMSDP=4.10D-05 MaxDP=3.35D-03 DE=-1.89D-05 OVMax= 5.33D-04

 Cycle   8  Pass 1  IDiag  1:
 RMSU=  1.61D-05    CP:  5.88D-01  8.38D-01  5.18D-01  1.06D+00  8.55D-01
                    CP:  1.01D+00  1.06D+00
 E= -576.408278319968     Delta-E=       -0.000001170535 Rises=F Damp=F
 DIIS: error= 1.34D-05 at cycle   8 NSaved=   8.
 NSaved= 8 IEnMin= 8 EnMin= -576.408278319968     IErMin= 8 ErrMin= 1.34D-05
 ErrMax= 1.34D-05  0.00D+00 EMaxC= 1.00D-01 BMatC= 8.11D-08 BMatP= 4.78D-07
 IDIUse=1 WtCom= 1.00D+00 WtEn= 0.00D+00
 Coeff-Com:  0.469D-04 0.676D-03 0.225D-03-0.123D-01-0.563D-01-0.220D-01
 Coeff-Com:  0.321D+00 0.768D+00
 Coeff:      0.469D-04 0.676D-03 0.225D-03-0.123D-01-0.563D-01-0.220D-01
 Coeff:      0.321D+00 0.768D+00
 Gap=     0.322 Goal=   None    Shift=    0.000
 RMSDP=1.14D-05 MaxDP=9.49D-04 DE=-1.17D-06 OVMax= 1.80D-04

 Cycle   9  Pass 1  IDiag  1:
 RMSU=  4.96D-06    CP:  5.88D-01  8.38D-01  5.19D-01  1.06D+00  8.54D-01
                    CP:  1.04D+00  1.09D+00  1.15D+00
 E= -576.408278473544     Delta-E=       -0.000000153577 Rises=F Damp=F
 DIIS: error= 4.46D-06 at cycle   9 NSaved=   9.
 NSaved= 9 IEnMin= 9 EnMin= -576.408278473544     IErMin= 9 ErrMin= 4.46D-06
 ErrMax= 4.46D-06  0.00D+00 EMaxC= 1.00D-01 BMatC= 5.61D-09 BMatP= 8.11D-08
 IDIUse=1 WtCom= 1.00D+00 WtEn= 0.00D+00
 Coeff-Com:  0.385D-04 0.678D-03 0.661D-03-0.871D-03-0.971D-02-0.158D-01
 Coeff-Com: -0.555D-01 0.152D+00 0.929D+00
 Coeff:      0.385D-04 0.678D-03 0.661D-03-0.871D-03-0.971D-02-0.158D-01
 Coeff:     -0.555D-01 0.152D+00 0.929D+00
 Gap=     0.322 Goal=   None    Shift=    0.000
 RMSDP=7.40D-06 MaxDP=6.62D-04 DE=-1.54D-07 OVMax= 7.49D-05

 Cycle  10  Pass 1  IDiag  1:
 RMSU=  2.36D-06    CP:  5.88D-01  8.38D-01  5.19D-01  1.06D+00  8.49D-01
                    CP:  1.05D+00  1.10D+00  1.29D+00  1.32D+00
 E= -576.408278488162     Delta-E=       -0.000000014618 Rises=F Damp=F
 DIIS: error= 8.72D-07 at cycle  10 NSaved=  10.
 NSaved=10 IEnMin=10 EnMin= -576.408278488162     IErMin=10 ErrMin= 8.72D-07
 ErrMax= 8.72D-07  0.00D+00 EMaxC= 1.00D-01 BMatC= 4.05D-10 BMatP= 5.61D-09
 IDIUse=1 WtCom= 1.00D+00 WtEn= 0.00D+00
 Coeff-Com: -0.138D-05 0.443D-05 0.273D-04 0.116D-02 0.386D-02 0.142D-02
 Coeff-Com: -0.270D-01-0.532D-01 0.847D-01 0.989D+00
 Coeff:     -0.138D-05 0.443D-05 0.273D-04 0.116D-02 0.386D-02 0.142D-02
 Coeff:     -0.270D-01-0.532D-01 0.847D-01 0.989D+00
 Gap=     0.322 Goal=   None    Shift=    0.000
 RMSDP=1.60D-06 MaxDP=1.22D-04 DE=-1.46D-08 OVMax= 1.62D-05

 Cycle  11  Pass 1  IDiag  1:
 RMSU=  7.74D-07    CP:  5.88D-01  8.38D-01  5.19D-01  1.06D+00  8.48D-01
                    CP:  1.04D+00  1.09D+00  1.32D+00  1.37D+00  1.10D+00
 E= -576.408278489183     Delta-E=       -0.000000001021 Rises=F Damp=F
 DIIS: error= 2.60D-07 at cycle  11 NSaved=  11.
 NSaved=11 IEnMin=11 EnMin= -576.408278489183     IErMin=11 ErrMin= 2.60D-07
 ErrMax= 2.60D-07  0.00D+00 EMaxC= 1.00D-01 BMatC= 6.88D-11 BMatP= 4.05D-10
 IDIUse=1 WtCom= 1.00D+00 WtEn= 0.00D+00
 Coeff-Com: -0.262D-05-0.361D-04-0.301D-04 0.484D-03 0.181D-02 0.137D-02
 Coeff-Com: -0.578D-02-0.292D-01-0.351D-01 0.324D+00 0.742D+00
 Coeff:     -0.262D-05-0.361D-04-0.301D-04 0.484D-03 0.181D-02 0.137D-02
 Coeff:     -0.578D-02-0.292D-01-0.351D-01 0.324D+00 0.742D+00
 Gap=     0.322 Goal=   None    Shift=    0.000
 RMSDP=4.38D-07 MaxDP=3.92D-05 DE=-1.02D-09 OVMax= 4.51D-06

 Cycle  12  Pass 1  IDiag  1:
 RMSU=  2.18D-07    CP:  5.88D-01  8.38D-01  5.19D-01  1.06D+00  8.48D-01
                    CP:  1.04D+00  1.09D+00  1.32D+00  1.40D+00  1.15D+00
                    CP:  1.09D+00
 E= -576.408278489293     Delta-E=       -0.000000000110 Rises=F Damp=F
 DIIS: error= 1.78D-07 at cycle  12 NSaved=  12.
 NSaved=12 IEnMin=12 EnMin= -576.408278489293     IErMin=12 ErrMin= 1.78D-07
 ErrMax= 1.78D-07  0.00D+00 EMaxC= 1.00D-01 BMatC= 5.94D-12 BMatP= 6.88D-11
 IDIUse=1 WtCom= 1.00D+00 WtEn= 0.00D+00
 Coeff-Com: -0.115D-06-0.598D-05-0.994D-05-0.811D-04-0.347D-03-0.407D-04
 Coeff-Com:  0.334D-02 0.400D-02-0.160D-01-0.961D-01 0.816D-01 0.102D+01
 Coeff:     -0.115D-06-0.598D-05-0.994D-05-0.811D-04-0.347D-03-0.407D-04
 Coeff:      0.334D-02 0.400D-02-0.160D-01-0.961D-01 0.816D-01 0.102D+01
 Gap=     0.322 Goal=   None    Shift=    0.000
 RMSDP=1.62D-07 MaxDP=9.41D-06 DE=-1.10D-10 OVMax= 2.51D-06

 Cycle  13  Pass 1  IDiag  1:
 RMSU=  7.97D-08    CP:  5.88D-01  8.38D-01  5.19D-01  1.06D+00  8.48D-01
                    CP:  1.04D+00  1.09D+00  1.32D+00  1.40D+00  1.17D+00
                    CP:  1.20D+00  1.15D+00
 E= -576.408278489323     Delta-E=       -0.000000000030 Rises=F Damp=F
 DIIS: error= 7.19D-08 at cycle  13 NSaved=  13.
 NSaved=13 IEnMin=13 EnMin= -576.408278489323     IErMin=13 ErrMin= 7.19D-08
 ErrMax= 7.19D-08  0.00D+00 EMaxC= 1.00D-01 BMatC= 1.37D-12 BMatP= 5.94D-12
 IDIUse=1 WtCom= 1.00D+00 WtEn= 0.00D+00
 Coeff-Com:  0.227D-06 0.155D-05-0.327D-06-0.789D-04-0.312D-03-0.179D-03
 Coeff-Com:  0.170D-02 0.437D-02-0.172D-02-0.672D-01-0.585D-01 0.377D+00
 Coeff-Com:  0.745D+00
 Coeff:      0.227D-06 0.155D-05-0.327D-06-0.789D-04-0.312D-03-0.179D-03
 Coeff:      0.170D-02 0.437D-02-0.172D-02-0.672D-01-0.585D-01 0.377D+00
 Coeff:      0.745D+00
 Gap=     0.322 Goal=   None    Shift=    0.000
 RMSDP=5.12D-08 MaxDP=3.63D-06 DE=-3.00D-11 OVMax= 8.13D-07

 Cycle  14  Pass 1  IDiag  1:
 RMSU=  2.88D-08    CP:  5.88D-01  8.38D-01  5.19D-01  1.06D+00  8.48D-01
                    CP:  1.04D+00  1.09D+00  1.32D+00  1.39D+00  1.17D+00
                    CP:  1.24D+00  1.21D+00  1.04D+00
 E= -576.408278489327     Delta-E=       -0.000000000004 Rises=F Damp=F
 DIIS: error= 3.14D-08 at cycle  14 NSaved=  14.
 NSaved=14 IEnMin=14 EnMin= -576.408278489327     IErMin=14 ErrMin= 3.14D-08
 ErrMax= 3.14D-08  0.00D+00 EMaxC= 1.00D-01 BMatC= 1.89D-13 BMatP= 1.37D-12
 IDIUse=1 WtCom= 1.00D+00 WtEn= 0.00D+00
 Coeff-Com:  0.655D-07 0.153D-05 0.217D-05-0.421D-05-0.134D-05-0.409D-04
 Coeff-Com: -0.265D-03 0.195D-03 0.264D-02 0.314D-02-0.306D-01-0.114D+00
 Coeff-Com:  0.123D+00 0.102D+01
 Coeff:      0.655D-07 0.153D-05 0.217D-05-0.421D-05-0.134D-05-0.409D-04
 Coeff:     -0.265D-03 0.195D-03 0.264D-02 0.314D-02-0.306D-01-0.114D+00
 Coeff:      0.123D+00 0.102D+01
 Gap=     0.322 Goal=   None    Shift=    0.000
 RMSDP=3.05D-08 MaxDP=3.11D-06 DE=-3.87D-12 OVMax= 5.62D-07

 Cycle  15  Pass 1  IDiag  1:
 RMSU=  1.04D-08    CP:  5.88D-01  8.38D-01  5.19D-01  1.06D+00  8.48D-01
                    CP:  1.04D+00  1.09D+00  1.32D+00  1.39D+00  1.16D+00
                    CP:  1.25D+00  1.21D+00  1.30D+00  1.10D+00
 E= -576.408278489308     Delta-E=        0.000000000019 Rises=F Damp=F
 DIIS: error= 1.26D-08 at cycle  15 NSaved=  15.
 NSaved=15 IEnMin=14 EnMin= -576.408278489327     IErMin=15 ErrMin= 1.26D-08
 ErrMax= 1.26D-08  0.00D+00 EMaxC= 1.00D-01 BMatC= 4.53D-14 BMatP= 1.89D-13
 IDIUse=1 WtCom= 1.00D+00 WtEn= 0.00D+00
 Coeff-Com: -0.138D-07 0.327D-06 0.952D-06 0.123D-04 0.552D-04 0.185D-04
 Coeff-Com: -0.382D-03-0.669D-03 0.140D-02 0.134D-01 0.642D-03-0.105D+00
 Coeff-Com: -0.846D-01 0.383D+00 0.792D+00
 Coeff:     -0.138D-07 0.327D-06 0.952D-06 0.123D-04 0.552D-04 0.185D-04
 Coeff:     -0.382D-03-0.669D-03 0.140D-02 0.134D-01 0.642D-03-0.105D+00
 Coeff:     -0.846D-01 0.383D+00 0.792D+00
 Gap=     0.322 Goal=   None    Shift=    0.000
 RMSDP=9.49D-09 MaxDP=8.98D-07 DE= 1.93D-11 OVMax= 2.13D-07

 SCF Done:  E(RwB97XD) =  -576.408278489     A.U. after   15 cycles
            NFock= 15  Conv=0.95D-08     -V/T= 1.9999
 KE= 5.764498838438D+02 PE=-2.911407397447D+03 EE= 9.739160782303D+02
 Leave Link  502 at Tue Nov 22 15:00:15 2022, MaxMem= 16106127360 cpu:            1153.5 elap:              36.2
 (Enter /opt/ap/G16/B01/g16/l601.exe)
 Copying SCF densities to generalized density rwf, IOpCl= 0 IROHF=0.

 **********************************************************************

            Population analysis using the SCF Density.

 **********************************************************************

 Orbital symmetries:
       Occupied  (A) (A) (A) (A) (A) (A) (A) (A) (A) (A) (A) (A)
                 (A) (A) (A) (A) (A) (A) (A) (A) (A) (A) (A) (A)
                 (A) (A) (A) (A) (A) (A) (A) (A) (A) (A) (A) (A)
                 (A) (A) (A) (A) (A) (A) (A) (A) (A) (A) (A) (A)
       Virtual   (A) (A) (A) (A) (A) (A) (A) (A) (A) (A) (A) (A)
                 (A) (A) (A) (A) (A) (A) (A) (A) (A) (A) (A) (A)
                 (A) (A) (A) (A) (A) (A) (A) (A) (A) (A) (A) (A)
                 (A) (A) (A) (A) (A) (A) (A) (A) (A) (A) (A) (A)
                 (A) (A) (A) (A) (A) (A) (A) (A) (A) (A) (A) (A)
                 (A) (A) (A) (A) (A) (A) (A) (A) (A) (A) (A) (A)
                 (A) (A) (A) (A) (A) (A) (A) (A) (A) (A) (A) (A)
                 (A) (A) (A) (A) (A) (A) (A) (A) (A) (A) (A) (A)
                 (A) (A) (A) (A) (A) (A) (A) (A) (A) (A) (A) (A)
                 (A) (A) (A) (A) (A) (A) (A) (A) (A) (A) (A) (A)
                 (A) (A) (A) (A) (A) (A) (A) (A) (A) (A) (A) (A)
                 (A) (A) (A) (A) (A) (A) (A) (A) (A) (A) (A) (A)
                 (A) (A) (A) (A) (A) (A) (A) (A) (A) (A) (A) (A)
                 (A) (A) (A) (A) (A) (A) (A) (A) (A) (A) (A) (A)
                 (A) (A) (A) (A) (A) (A) (A) (A) (A) (A) (A) (A)
                 (A) (A) (A) (A) (A) (A) (A) (A) (A) (A) (A) (A)
                 (A) (A) (A) (A) (A) (A) (A) (A) (A) (A) (A) (A)
                 (A) (A) (A) (A) (A) (A) (A) (A) (A) (A) (A) (A)
                 (A) (A) (A) (A) (A) (A) (A) (A) (A) (A) (A) (A)
                 (A) (A) (A) (A) (A) (A) (A) (A) (A) (A) (A) (A)
                 (A) (A) (A) (A) (A) (A) (A) (A) (A) (A) (A) (A)
                 (A) (A) (A) (A) (A) (A) (A) (A) (A) (A) (A) (A)
                 (A) (A) (A) (A) (A) (A) (A) (A) (A) (A) (A) (A)
                 (A) (A) (A) (A) (A) (A) (A) (A) (A) (A) (A) (A)
                 (A) (A) (A) (A) (A) (A) (A) (A) (A) (A) (A) (A)
                 (A) (A) (A) (A) (A) (A) (A) (A) (A) (A) (A) (A)
                 (A) (A) (A) (A) (A) (A) (A) (A) (A) (A) (A) (A)
                 (A) (A) (A) (A)
 The electronic state is 1-A.
 Alpha  occ. eigenvalues --  -19.23938 -10.38325 -10.30687 -10.30645 -10.28964
 Alpha  occ. eigenvalues --  -10.28926 -10.28646 -10.28552 -10.28507 -10.28493
 Alpha  occ. eigenvalues --  -10.28454 -10.28361 -10.28272 -10.28191  -1.14978
 Alpha  occ. eigenvalues --   -0.98074  -0.97431  -0.89386  -0.87546  -0.87345
 Alpha  occ. eigenvalues --   -0.86708  -0.76939  -0.74575  -0.73386  -0.72467
 Alpha  occ. eigenvalues --   -0.68235  -0.65143  -0.63933  -0.59859  -0.57357
 Alpha  occ. eigenvalues --   -0.56416  -0.55785  -0.54529  -0.53789  -0.53065
 Alpha  occ. eigenvalues --   -0.52425  -0.49823  -0.47523  -0.46923  -0.46074
 Alpha  occ. eigenvalues --   -0.45563  -0.44861  -0.44136  -0.35184  -0.34854
 Alpha  occ. eigenvalues --   -0.34332  -0.33970  -0.33040
 Alpha virt. eigenvalues --   -0.00838   0.03448   0.03771   0.04322   0.04820
 Alpha virt. eigenvalues --    0.04918   0.05098   0.05764   0.05938   0.07473
 Alpha virt. eigenvalues --    0.07565   0.08299   0.09189   0.10078   0.10319
 Alpha virt. eigenvalues --    0.11548   0.11705   0.12634   0.13184   0.14309
 Alpha virt. eigenvalues --    0.15123   0.15302   0.15902   0.16229   0.16742
 Alpha virt. eigenvalues --    0.16891   0.17095   0.17316   0.17606   0.18086
 Alpha virt. eigenvalues --    0.18298   0.18709   0.19240   0.19630   0.19762
 Alpha virt. eigenvalues --    0.19886   0.20192   0.20521   0.21033   0.21504
 Alpha virt. eigenvalues --    0.22047   0.22201   0.22818   0.23513   0.23807
 Alpha virt. eigenvalues --    0.24326   0.24522   0.25016   0.25501   0.25861
 Alpha virt. eigenvalues --    0.25955   0.27086   0.27138   0.28212   0.28831
 Alpha virt. eigenvalues --    0.29133   0.29360   0.30642   0.31087   0.31122
 Alpha virt. eigenvalues --    0.32236   0.32388   0.32864   0.33419   0.34003
 Alpha virt. eigenvalues --    0.34600   0.34890   0.35003   0.35337   0.35795
 Alpha virt. eigenvalues --    0.36316   0.36925   0.37082   0.38301   0.38605
 Alpha virt. eigenvalues --    0.38986   0.39193   0.40826   0.41100   0.41901
 Alpha virt. eigenvalues --    0.42629   0.43156   0.43315   0.44423   0.44641
 Alpha virt. eigenvalues --    0.45574   0.46320   0.46675   0.47499   0.48285
 Alpha virt. eigenvalues --    0.51104   0.56357   0.57557   0.58059   0.59188
 Alpha virt. eigenvalues --    0.61092   0.62076   0.62758   0.63264   0.63722
 Alpha virt. eigenvalues --    0.63895   0.64430   0.65206   0.65295   0.65427
 Alpha virt. eigenvalues --    0.66728   0.67468   0.68117   0.68250   0.69256
 Alpha virt. eigenvalues --    0.71064   0.71793   0.72607   0.73545   0.73861
 Alpha virt. eigenvalues --    0.75465   0.75891   0.77180   0.77217   0.78433
 Alpha virt. eigenvalues --    0.80438   0.80752   0.81367   0.82589   0.82945
 Alpha virt. eigenvalues --    0.83493   0.83929   0.85210   0.86922   0.88646
 Alpha virt. eigenvalues --    0.89704   0.91097   0.91501   0.93132   0.93905
 Alpha virt. eigenvalues --    0.93935   0.94542   0.95203   0.95327   0.96019
 Alpha virt. eigenvalues --    0.97155   0.97398   0.99384   1.00917   1.01300
 Alpha virt. eigenvalues --    1.01956   1.02743   1.03502   1.04304   1.05545
 Alpha virt. eigenvalues --    1.06821   1.08370   1.11068   1.11964   1.13121
 Alpha virt. eigenvalues --    1.13654   1.16388   1.16715   1.17614   1.17909
 Alpha virt. eigenvalues --    1.19408   1.20291   1.22275   1.25362   1.27350
 Alpha virt. eigenvalues --    1.28602   1.29731   1.31261   1.36189   1.38092
 Alpha virt. eigenvalues --    1.39201   1.45078   1.45344   1.47189   1.54781
 Alpha virt. eigenvalues --    1.56784   1.58119   1.58676   1.59485   1.60359
 Alpha virt. eigenvalues --    1.62000   1.62525   1.64674   1.65445   1.66832
 Alpha virt. eigenvalues --    1.68169   1.68284   1.68591   1.69056   1.71938
 Alpha virt. eigenvalues --    1.73966   1.75598   1.76440   1.76610   1.78568
 Alpha virt. eigenvalues --    1.80493   1.81231   1.85939   1.87388   1.88594
 Alpha virt. eigenvalues --    1.89543   1.91000   1.92122   1.93726   1.93939
 Alpha virt. eigenvalues --    1.96039   1.96606   1.99152   2.00188   2.01192
 Alpha virt. eigenvalues --    2.01387   2.02860   2.04868   2.05313   2.05581
 Alpha virt. eigenvalues --    2.06200   2.07264   2.08662   2.09399   2.10624
 Alpha virt. eigenvalues --    2.11339   2.14681   2.16911   2.18798   2.20910
 Alpha virt. eigenvalues --    2.24630   2.26633   2.27597   2.28364   2.30747
 Alpha virt. eigenvalues --    2.33768   2.42821   2.44443   2.47631   2.48494
 Alpha virt. eigenvalues --    2.48859   2.50078   2.50744   2.51091   2.54226
 Alpha virt. eigenvalues --    2.58912   2.60057   2.60649   2.66675   2.69377
 Alpha virt. eigenvalues --    2.74752   2.76797   2.78580   2.80675   2.82167
 Alpha virt. eigenvalues --    2.82487   2.83530   2.84229   2.85908   2.91437
 Alpha virt. eigenvalues --    2.91854   2.92646   2.94194   2.94999   2.95786
 Alpha virt. eigenvalues --    2.97449   2.98003   2.98856   3.00067   3.00418
 Alpha virt. eigenvalues --    3.00626   3.01801   3.02318   3.03593   3.04944
 Alpha virt. eigenvalues --    3.06266   3.09885   3.13450   3.15231   3.18847
 Alpha virt. eigenvalues --    3.20316   3.21113   3.22455   3.25360   3.25604
 Alpha virt. eigenvalues --    3.29732   3.31219   3.32631   3.36753   3.45048
 Alpha virt. eigenvalues --    3.48906   3.49914   3.51984   3.52454   3.65834
 Alpha virt. eigenvalues --    3.69051   3.71168   3.71943   3.74529   3.77182
 Alpha virt. eigenvalues --    3.83636   3.88366   3.92320   3.96598   4.31518
 Alpha virt. eigenvalues --    4.37034   4.37455   4.39350   4.40504   4.41257
 Alpha virt. eigenvalues --    4.45703   4.50893   4.52033   4.56818   4.95212
 Alpha virt. eigenvalues --    4.95819   5.21148   5.35374   5.84774  23.87208
 Alpha virt. eigenvalues --   23.96580  23.98676  24.17098  24.18297  24.24171
 Alpha virt. eigenvalues --   24.25110  24.30192  24.31212  24.34039  24.34201
 Alpha virt. eigenvalues --   24.43950  24.44162  50.14542
          Condensed to atoms (all electrons):
               1          2          3          4          5          6
     1  C   17.106865  -0.409514   0.128979  -1.205865  -0.164247  -8.701749
     2  C   -0.409514  11.751862  -4.675696  -0.438000   0.557761   0.153619
     3  C    0.128979  -4.675696  12.713538   0.236427  -0.131928  -3.400582
     4  C   -1.205865  -0.438000   0.236427   6.389133   0.016014   0.775134
     5  H   -0.164247   0.557761  -0.131928   0.016014   0.663368   0.170902
     6  C   -8.701749   0.153619  -3.400582   0.775134   0.170902  22.652941
     7  C   -0.845499   0.653151  -0.446222  -0.291109   0.049625   0.518811
     8  H    0.080585   0.018490   0.434014   0.008306  -0.000076  -0.030891
     9  C   -0.085298  -0.629846   0.373412   0.514377  -0.058932  -0.270330
    10  H   -0.008099  -0.085574   0.002409   0.475916  -0.016674   0.008341
    11  C   -1.777786   0.803954   0.474172   0.303019   0.009716  -4.883010
    12  O    0.086419   0.088187  -0.052137   0.009621  -0.014627   0.159312
    13  H   -0.013765   0.006288  -0.074573   0.007765   0.001652   0.014240
    14  H    0.044864  -0.015607   0.007229  -0.079761  -0.001374  -0.026878
    15  C    1.929234  -1.739942   1.360170  -0.396740  -0.276809  -1.756249
    16  C   -0.323832  -0.028312  -0.386667   0.017831   0.041175   0.523877
    17  C   -0.745418   0.550059  -0.615379  -0.010342   0.101011   0.822602
    18  H    0.333443  -0.280970   0.275628  -0.150357  -0.130856  -0.278390
    19  C   -0.698436   0.186578  -0.051357   0.015330   0.009544   0.515024
    20  H   -0.052777   0.015868  -0.031516   0.000987  -0.000803   0.015857
    21  C    0.296153  -0.253242   0.142755  -0.028295  -0.023124  -0.106262
    22  H   -0.052471   0.034716  -0.021962   0.011952   0.012375   0.033220
    23  H    0.001548  -0.000027   0.002654  -0.000277   0.001019   0.009074
    24  H    0.007475  -0.006181   0.002563  -0.000732  -0.000861  -0.015103
               7          8          9         10         11         12
     1  C   -0.845499   0.080585  -0.085298  -0.008099  -1.777786   0.086419
     2  C    0.653151   0.018490  -0.629846  -0.085574   0.803954   0.088187
     3  C   -0.446222   0.434014   0.373412   0.002409   0.474172  -0.052137
     4  C   -0.291109   0.008306   0.514377   0.475916   0.303019   0.009621
     5  H    0.049625  -0.000076  -0.058932  -0.016674   0.009716  -0.014627
     6  C    0.518811  -0.030891  -0.270330   0.008341  -4.883010   0.159312
     7  C    6.380753  -0.113686   0.137447   0.006012  -0.182279  -0.034974
     8  H   -0.113686   0.468934   0.000095   0.000712  -0.055146  -0.009195
     9  C    0.137447   0.000095   5.714077  -0.052129   0.086849   0.012825
    10  H    0.006012   0.000712  -0.052129   0.488814   0.009971   0.000357
    11  C   -0.182279  -0.055146   0.086849   0.009971  14.122043   0.107342
    12  O   -0.034974  -0.009195   0.012825   0.000357   0.107342   7.990720
    13  H    0.485560  -0.014643  -0.078598   0.000096  -0.000291   0.000183
    14  H   -0.076406   0.001072   0.492659  -0.013298   0.001570   0.000189
    15  C   -0.083757   0.026286   0.137791  -0.012609  -2.688499  -0.155829
    16  C    0.129454  -0.023475  -0.057532   0.000491  -0.649822   0.024428
    17  C    0.051596  -0.005903  -0.031134  -0.001935  -0.028065  -0.017225
    18  H   -0.001571  -0.001862   0.005073   0.001928  -0.200530   0.002239
    19  C    0.029814  -0.003659  -0.006292   0.000440  -0.091231   0.031886
    20  H   -0.001925  -0.001261   0.000425  -0.000129   0.046974  -0.017392
    21  C   -0.001634   0.001179   0.001094  -0.000236  -0.950173  -0.017176
    22  H   -0.000443  -0.000040   0.001295  -0.000166   0.105088   0.000542
    23  H    0.000288   0.000009  -0.000050   0.000007  -0.002858   0.002368
    24  H    0.000150  -0.000026  -0.000025  -0.000011   0.011384  -0.000480
              13         14         15         16         17         18
     1  C   -0.013765   0.044864   1.929234  -0.323832  -0.745418   0.333443
     2  C    0.006288  -0.015607  -1.739942  -0.028312   0.550059  -0.280970
     3  C   -0.074573   0.007229   1.360170  -0.386667  -0.615379   0.275628
     4  C    0.007765  -0.079761  -0.396740   0.017831  -0.010342  -0.150357
     5  H    0.001652  -0.001374  -0.276809   0.041175   0.101011  -0.130856
     6  C    0.014240  -0.026878  -1.756249   0.523877   0.822602  -0.278390
     7  C    0.485560  -0.076406  -0.083757   0.129454   0.051596  -0.001571
     8  H   -0.014643   0.001072   0.026286  -0.023475  -0.005903  -0.001862
     9  C   -0.078598   0.492659   0.137791  -0.057532  -0.031134   0.005073
    10  H    0.000096  -0.013298  -0.012609   0.000491  -0.001935   0.001928
    11  C   -0.000291   0.001570  -2.688499  -0.649822  -0.028065  -0.200530
    12  O    0.000183   0.000189  -0.155829   0.024428  -0.017225   0.002239
    13  H    0.487787  -0.015614  -0.005119   0.004367   0.001125   0.000089
    14  H   -0.015614   0.497769   0.002731  -0.001724  -0.000960  -0.000690
    15  C   -0.005119   0.002731  16.697697  -3.220852  -4.298689   1.141676
    16  C    0.004367  -0.001724  -3.220852   8.330886   1.591874  -0.086197
    17  C    0.001125  -0.000960  -4.298689   1.591874   8.929068  -0.429420
    18  H    0.000089  -0.000690   1.141676  -0.086197  -0.429420   0.874998
    19  C    0.000305  -0.000326  -0.810031   0.141574  -0.027210   0.003540
    20  H   -0.000016   0.000003  -0.019687   0.418503   0.042515  -0.003115
    21  C    0.000026   0.000027   1.680288  -0.562653  -0.253515   0.078859
    22  H   -0.000029   0.000056  -0.240862   0.036669   0.501510  -0.060281
    23  H    0.000005   0.000002  -0.038698  -0.045123   0.008876  -0.002141
    24  H    0.000008  -0.000004   0.020252  -0.015894  -0.044647   0.001911
              19         20         21         22         23         24
     1  C   -0.698436  -0.052777   0.296153  -0.052471   0.001548   0.007475
     2  C    0.186578   0.015868  -0.253242   0.034716  -0.000027  -0.006181
     3  C   -0.051357  -0.031516   0.142755  -0.021962   0.002654   0.002563
     4  C    0.015330   0.000987  -0.028295   0.011952  -0.000277  -0.000732
     5  H    0.009544  -0.000803  -0.023124   0.012375   0.001019  -0.000861
     6  C    0.515024   0.015857  -0.106262   0.033220   0.009074  -0.015103
     7  C    0.029814  -0.001925  -0.001634  -0.000443   0.000288   0.000150
     8  H   -0.003659  -0.001261   0.001179  -0.000040   0.000009  -0.000026
     9  C   -0.006292   0.000425   0.001094   0.001295  -0.000050  -0.000025
    10  H    0.000440  -0.000129  -0.000236  -0.000166   0.000007  -0.000011
    11  C   -0.091231   0.046974  -0.950173   0.105088  -0.002858   0.011384
    12  O    0.031886  -0.017392  -0.017176   0.000542   0.002368  -0.000480
    13  H    0.000305  -0.000016   0.000026  -0.000029   0.000005   0.000008
    14  H   -0.000326   0.000003   0.000027   0.000056   0.000002  -0.000004
    15  C   -0.810031  -0.019687   1.680288  -0.240862  -0.038698   0.020252
    16  C    0.141574   0.418503  -0.562653   0.036669  -0.045123  -0.015894
    17  C   -0.027210   0.042515  -0.253515   0.501510   0.008876  -0.044647
    18  H    0.003540  -0.003115   0.078859  -0.060281  -0.002141   0.001911
    19  C    6.744798  -0.077023  -0.066121   0.020899   0.484872  -0.090679
    20  H   -0.077023   0.457080   0.000504   0.001185  -0.011921   0.001012
    21  C   -0.066121   0.000504   6.130533  -0.102397  -0.082198   0.486249
    22  H    0.020899   0.001185  -0.102397   0.503556   0.001091  -0.013128
    23  H    0.484872  -0.011921  -0.082198   0.001091   0.482280  -0.014154
    24  H   -0.090679   0.001012   0.486249  -0.013128  -0.014154   0.492217
 Mulliken charges:
               1
     1  C    1.069191
     2  C   -0.257624
     3  C   -0.265929
     4  C   -0.180338
     5  H    0.186149
     6  C   -0.903509
     7  C   -0.363155
     8  H    0.220184
     9  C   -0.207252
    10  H    0.195366
    11  C    1.427609
    12  O   -0.197585
    13  H    0.193153
    14  H    0.184472
    15  C   -1.251752
    16  C    0.140956
    17  C   -0.090397
    18  H   -0.093003
    19  C   -0.262235
    20  H    0.216656
    21  C   -0.370641
    22  H    0.227626
    23  H    0.203356
    24  H    0.178702
 Sum of Mulliken charges =  -0.00000
 Mulliken charges with hydrogens summed into heavy atoms:
               1
     1  C    1.069191
     2  C   -0.071475
     3  C   -0.045745
     4  C    0.015028
     6  C   -0.903509
     7  C   -0.170002
     9  C   -0.022780
    11  C    1.427609
    12  O   -0.197585
    15  C   -1.344755
    16  C    0.357612
    17  C    0.137229
    19  C   -0.058879
    21  C   -0.191939
 Electronic spatial extent (au):  <R**2>=           3026.2352
 Charge=              0.0000 electrons
 Dipole moment (field-independent basis, Debye):
    X=             -0.0491    Y=             -3.0161    Z=             -1.3515  Tot=              3.3055
 Quadrupole moment (field-independent basis, Debye-Ang):
   XX=            -64.8906   YY=            -78.9153   ZZ=            -84.7983
   XY=             -0.3280   XZ=             -0.6377   YZ=             -6.6185
 Traceless Quadrupole moment (field-independent basis, Debye-Ang):
   XX=             11.3109   YY=             -2.7139   ZZ=             -8.5969
   XY=             -0.3280   XZ=             -0.6377   YZ=             -6.6185
 Octapole moment (field-independent basis, Debye-Ang**2):
  XXX=             -5.8677  YYY=            -21.1409  ZZZ=              3.7312  XYY=             -0.6517
  XXY=             -3.4922  XXZ=            -23.8780  XZZ=              2.3989  YZZ=              1.9481
  YYZ=             -7.5511  XYZ=             -2.4192
 Hexadecapole moment (field-independent basis, Debye-Ang**3):
 XXXX=          -2816.0034 YYYY=           -763.6901 ZZZZ=           -198.5300 XXXY=             -9.4547
 XXXZ=            -15.0580 YYYX=             -1.1419 YYYZ=            -34.4773 ZZZX=             -3.9498
 ZZZY=              0.5110 XXYY=           -584.8386 XXZZ=           -595.4934 YYZZ=           -169.7653
 XXYZ=            -16.1368 YYXZ=              0.8630 ZZXY=              0.4868
 N-N= 7.846331568836D+02 E-N=-2.911407397485D+03  KE= 5.764498838438D+02
 No NMR shielding tensors so no spin-rotation constants.
 Leave Link  601 at Tue Nov 22 15:00:16 2022, MaxMem= 16106127360 cpu:               4.8 elap:               0.2
 (Enter /opt/ap/G16/B01/g16/l9999.exe)
 1\1\GINC-N18\SP\RwB97XD\6-311++G(d,p)\C13H10O1\ROOT\22-Nov-2022\0\\#P 
 wB97XD/6-311++G(d,p) scf=maxcycle=512\\_conf010.gjf nmol_natom 1_24\\0
 ,1\C\C,1,1.39746343\C,1,1.39996263,2,119.28066518\C,2,1.39288453,1,120
 .37436646,3,-0.51002981,0\H,2,0.95014703,1,119.82324024,3,179.45634896
 ,0\C,1,1.49653039,2,122.77761373,4,174.46828757,0\C,3,1.3870125,1,120.
 10017821,2,-0.37315804,0\H,3,0.9501092,1,119.95246451,2,179.5923884,0\
 C,7,1.38720039,3,120.16568731,1,1.0745106,0\H,4,0.95011919,2,120.18755
 644,1,-179.31195299,0\C,6,1.49516902,1,120.70972921,2,-40.,0\O,6,1.221
 50059,1,119.67074267,2,140.,0\H,7,0.94956661,3,119.91274826,1,-178.886
 36029,0\H,9,0.94992259,7,119.76037934,3,179.10763853,0\C,11,1.39713972
 ,6,122.62585705,1,30.97749054,0\C,11,1.40039562,6,117.74753532,1,-153.
 15467779,0\C,15,1.39455701,11,119.80747484,6,175.4763048,0\H,15,0.9496
 2854,11,120.10535689,6,-4.50802339,0\C,16,1.38466431,11,120.4617377,6,
 -176.88197195,0\H,16,0.9497464,11,119.75779177,6,3.14699974,0\C,17,1.3
 9088945,15,120.3475273,11,0.7973643,0\H,17,0.94984298,15,119.8156451,1
 1,-179.16676483,0\H,19,0.94974749,16,119.98566335,11,-178.40987425,0\H
 ,21,0.94938585,17,120.0744529,15,179.91636093,0\\Version=ES64L-G16RevB
 .01\State=1-A\HF=-576.4082785\RMSD=9.490e-09\Dipole=0.1156723,-0.81125
 62,1.0098068\Quadrupole=6.7406249,-7.0012088,0.2605838,4.7538853,0.185
 5657,3.5247323\PG=C01 [X(C13H10O1)]\\@


 Time has a wonderful way of weeding out the trivial.
                                -- Richard Ben Sapir
 Job cpu time:       0 days  0 hours 20 minutes  4.2 seconds.
 Elapsed time:       0 days  0 hours  0 minutes 37.8 seconds.
 File lengths (MBytes):  RWF=     78 Int=      0 D2E=      0 Chk=      9 Scr=      1
 Normal termination of Gaussian 16 at Tue Nov 22 15:00:16 2022.
