 Entering Gaussian System, Link 0=g16
 Input=_conf025.gjf
 Output=_conf025.log
 Initial command:
 /opt/ap/G16/B01/g16/l1.exe "/tmp2/scr/Gau-13940.inp" -scrdir="/tmp2/scr/"
 Entering Link 1 = /opt/ap/G16/B01/g16/l1.exe PID=     13941.
  
 Copyright (c) 1988-2017, Gaussian, Inc.  All Rights Reserved.
  
 This is part of the Gaussian(R) 16 program.  It is based on
 the Gaussian(R) 09 system (copyright 2009, Gaussian, Inc.),
 the Gaussian(R) 03 system (copyright 2003, Gaussian, Inc.),
 the Gaussian(R) 98 system (copyright 1998, Gaussian, Inc.),
 the Gaussian(R) 94 system (copyright 1995, Gaussian, Inc.),
 the Gaussian 92(TM) system (copyright 1992, Gaussian, Inc.),
 the Gaussian 90(TM) system (copyright 1990, Gaussian, Inc.),
 the Gaussian 88(TM) system (copyright 1988, Gaussian, Inc.),
 the Gaussian 86(TM) system (copyright 1986, Carnegie Mellon
 University), and the Gaussian 82(TM) system (copyright 1983,
 Carnegie Mellon University). Gaussian is a federally registered
 trademark of Gaussian, Inc.
  
 This software contains proprietary and confidential information,
 including trade secrets, belonging to Gaussian, Inc.
  
 This software is provided under written license and may be
 used, copied, transmitted, or stored only in accord with that
 written license.
  
 The following legend is applicable only to US Government
 contracts under FAR:
  
                    RESTRICTED RIGHTS LEGEND
  
 Use, reproduction and disclosure by the US Government is
 subject to restrictions as set forth in subparagraphs (a)
 and (c) of the Commercial Computer Software - Restricted
 Rights clause in FAR 52.227-19.
  
 Gaussian, Inc.
 340 Quinnipiac St., Bldg. 40, Wallingford CT 06492
  
  
 ---------------------------------------------------------------
 Warning -- This program may not be used in any manner that
 competes with the business of Gaussian, Inc. or will provide
 assistance to any competitor of Gaussian, Inc.  The licensee
 of this program is prohibited from giving any competitor of
 Gaussian, Inc. access to this program.  By using this program,
 the user acknowledges that Gaussian, Inc. is engaged in the
 business of creating and licensing software in the field of
 computational chemistry and represents and warrants to the
 licensee that it is not a competitor of Gaussian, Inc. and that
 it will not use this program in any manner prohibited above.
 ---------------------------------------------------------------
  

 Cite this work as:
 Gaussian 16, Revision B.01,
 M. J. Frisch, G. W. Trucks, H. B. Schlegel, G. E. Scuseria, 
 M. A. Robb, J. R. Cheeseman, G. Scalmani, V. Barone, 
 G. A. Petersson, H. Nakatsuji, X. Li, M. Caricato, A. V. Marenich, 
 J. Bloino, B. G. Janesko, R. Gomperts, B. Mennucci, H. P. Hratchian, 
 J. V. Ortiz, A. F. Izmaylov, J. L. Sonnenberg, D. Williams-Young, 
 F. Ding, F. Lipparini, F. Egidi, J. Goings, B. Peng, A. Petrone, 
 T. Henderson, D. Ranasinghe, V. G. Zakrzewski, J. Gao, N. Rega, 
 G. Zheng, W. Liang, M. Hada, M. Ehara, K. Toyota, R. Fukuda, 
 J. Hasegawa, M. Ishida, T. Nakajima, Y. Honda, O. Kitao, H. Nakai, 
 T. Vreven, K. Throssell, J. A. Montgomery, Jr., J. E. Peralta, 
 F. Ogliaro, M. J. Bearpark, J. J. Heyd, E. N. Brothers, K. N. Kudin, 
 V. N. Staroverov, T. A. Keith, R. Kobayashi, J. Normand, 
 K. Raghavachari, A. P. Rendell, J. C. Burant, S. S. Iyengar, 
 J. Tomasi, M. Cossi, J. M. Millam, M. Klene, C. Adamo, R. Cammi, 
 J. W. Ochterski, R. L. Martin, K. Morokuma, O. Farkas, 
 J. B. Foresman, and D. J. Fox, Gaussian, Inc., Wallingford CT, 2016.
 
 ******************************************
 Gaussian 16:  ES64L-G16RevB.01 20-Dec-2017
                22-Nov-2022 
 ******************************************
 %nprocshared=32
 Will use up to   32 processors via shared memory.
 %mem=120GB
 %chk=_conf025.chk
 ----------------------------------------
 #P wB97XD/6-311++G(d,p) scf=maxcycle=512
 ----------------------------------------
 1/38=1,172=1/1;
 2/12=2,17=6,18=5,40=1/2;
 3/5=4,6=6,7=1111,11=2,25=1,30=1,74=-58/1,2,3;
 4//1;
 5/5=2,7=512,38=5/2;
 6/7=2,8=2,9=2,10=2,28=1/1;
 99/5=1,9=1/99;
 Leave Link    1 at Tue Nov 22 15:02:15 2022, MaxMem= 16106127360 cpu:               2.1 elap:               0.1
 (Enter /opt/ap/G16/B01/g16/l101.exe)
 ----------------------------
 _conf025.gjf nmol_natom 1_24
 ----------------------------
 Symbolic Z-matrix:
 Charge =  0 Multiplicity = 1
 C
 C                    1     1.39746 
 C                    1     1.39996  2     119.28067 
 C                    2     1.39288  1     120.37437  3    -0.51003  0
 H                    2     0.95015  1     119.82324  3     179.45635  0
 C                    1     1.49653  2     122.77761  4     174.46829  0
 C                    3     1.38701  1     120.10018  2    -0.37316  0
 H                    3     0.95011  1     119.95246  2     179.59239  0
 C                    7     1.3872   3     120.16569  1     1.07451  0
 H                    4     0.95012  2     120.18756  1    -179.31195  0
 C                    6     1.49517  1     120.70973  2     35.      0
 O                    6     1.2215   1     119.67074  2    -145.     0
 H                    7     0.94957  3     119.91275  1    -178.88636  0
 H                    9     0.94992  7     119.76038  3     179.10764  0
 C                    11    1.39714  6     122.62586  1     30.97749  0
 C                    11    1.4004   6     117.74754  1    -153.15468  0
 C                    15    1.39456  11    119.80747  6     175.4763  0
 H                    15    0.94963  11    120.10536  6    -4.50802  0
 C                    16    1.38466  11    120.46174  6    -176.88197  0
 H                    16    0.94975  11    119.75779  6     3.147    0
 C                    17    1.39089  15    120.34753  11    0.79736  0
 H                    17    0.94984  15    119.81565  11   -179.16676  0
 H                    19    0.94975  16    119.98566  11   -178.40987  0
 H                    21    0.94939  17    120.07445  15    179.91636  0
 
 ITRead=  0  0  0  0  0  0  0  0  0  0  0  0  0  0  0  0  0  0  0  0
 ITRead=  0  0  0  0
 MicOpt= -1 -1 -1 -1 -1 -1 -1 -1 -1 -1 -1 -1 -1 -1 -1 -1 -1 -1 -1 -1
 MicOpt= -1 -1 -1 -1
 NAtoms=     24 NQM=       24 NQMF=       0 NMMI=      0 NMMIF=      0
                NMic=       0 NMicF=      0.
                    Isotopes and Nuclear Properties:
 (Nuclear quadrupole moments (NQMom) in fm**2, nuclear magnetic moments (NMagM)
  in nuclear magnetons)

  Atom         1           2           3           4           5           6           7           8           9          10
 IAtWgt=          12          12          12          12           1          12          12           1          12           1
 AtmWgt=  12.0000000  12.0000000  12.0000000  12.0000000   1.0078250  12.0000000  12.0000000   1.0078250  12.0000000   1.0078250
 NucSpn=           0           0           0           0           1           0           0           1           0           1
 AtZEff=  -0.0000000  -0.0000000  -0.0000000  -0.0000000  -0.0000000  -0.0000000  -0.0000000  -0.0000000  -0.0000000  -0.0000000
 NQMom=    0.0000000   0.0000000   0.0000000   0.0000000   0.0000000   0.0000000   0.0000000   0.0000000   0.0000000   0.0000000
 NMagM=    0.0000000   0.0000000   0.0000000   0.0000000   2.7928460   0.0000000   0.0000000   2.7928460   0.0000000   2.7928460
 AtZNuc=   6.0000000   6.0000000   6.0000000   6.0000000   1.0000000   6.0000000   6.0000000   1.0000000   6.0000000   1.0000000

  Atom        11          12          13          14          15          16          17          18          19          20
 IAtWgt=          12          16           1           1          12          12          12           1          12           1
 AtmWgt=  12.0000000  15.9949146   1.0078250   1.0078250  12.0000000  12.0000000  12.0000000   1.0078250  12.0000000   1.0078250
 NucSpn=           0           0           1           1           0           0           0           1           0           1
 AtZEff=  -0.0000000  -0.0000000  -0.0000000  -0.0000000  -0.0000000  -0.0000000  -0.0000000  -0.0000000  -0.0000000  -0.0000000
 NQMom=    0.0000000   0.0000000   0.0000000   0.0000000   0.0000000   0.0000000   0.0000000   0.0000000   0.0000000   0.0000000
 NMagM=    0.0000000   0.0000000   2.7928460   2.7928460   0.0000000   0.0000000   0.0000000   2.7928460   0.0000000   2.7928460
 AtZNuc=   6.0000000   8.0000000   1.0000000   1.0000000   6.0000000   6.0000000   6.0000000   1.0000000   6.0000000   1.0000000

  Atom        21          22          23          24
 IAtWgt=          12           1           1           1
 AtmWgt=  12.0000000   1.0078250   1.0078250   1.0078250
 NucSpn=           0           1           1           1
 AtZEff=  -0.0000000  -0.0000000  -0.0000000  -0.0000000
 NQMom=    0.0000000   0.0000000   0.0000000   0.0000000
 NMagM=    0.0000000   2.7928460   2.7928460   2.7928460
 AtZNuc=   6.0000000   1.0000000   1.0000000   1.0000000
 Leave Link  101 at Tue Nov 22 15:02:15 2022, MaxMem= 16106127360 cpu:               5.4 elap:               0.2
 (Enter /opt/ap/G16/B01/g16/l202.exe)
                          Input orientation:                          
 ---------------------------------------------------------------------
 Center     Atomic      Atomic             Coordinates (Angstroms)
 Number     Number       Type             X           Y           Z
 ---------------------------------------------------------------------
      1          6           0        0.000000    0.000000    0.000000
      2          6           0        0.000000    0.000000    1.397463
      3          6           0        1.221096    0.000000   -0.684705
      4          6           0        1.201650   -0.010697    2.101772
      5          1           0       -0.824276    0.007821    1.869996
      6          6           0       -1.253421   -0.110138   -0.810191
      7          6           0        2.414707    0.007815    0.021719
      8          1           0        1.232246   -0.005856   -1.634731
      9          6           0        2.403895   -0.006831    1.408800
     10          1           0        1.198494   -0.020531    3.051836
     11          6           0       -2.525380    0.518265   -0.338218
     12          8           0       -1.237699   -0.719863   -1.868516
     13          1           0        3.241298    0.023792   -0.445367
     14          1           0        3.224827   -0.014217    1.886678
     15          6           0       -2.549277    1.683739    0.431911
     16          6           0       -3.731483   -0.050334   -0.766140
     17          6           0       -3.769981    2.272338    0.760884
     18          1           0       -1.736710    2.074196    0.730361
     19          6           0       -4.941662    0.524189   -0.415873
     20          1           0       -3.719134   -0.835746   -1.299988
     21          6           0       -4.963990    1.696099    0.340335
     22          1           0       -3.785909    3.071231    1.274420
     23          1           0       -5.756092    0.120280   -0.690793
     24          1           0       -5.792870    2.099441    0.567508
 ---------------------------------------------------------------------
                    Distance matrix (angstroms):
                    1          2          3          4          5
     1  C    0.000000
     2  C    1.397463   0.000000
     3  C    1.399963   2.413814   0.000000
     4  C    2.421058   1.392885   2.786566   0.000000
     5  H    2.043619   0.950147   3.272630   2.039225   0.000000
     6  C    1.496530   2.541049   2.480142   3.810091   2.716889
     7  C    2.414817   2.779127   1.387013   2.408002   3.729228
     8  H    2.047146   3.273021   0.950109   3.736632   4.063567
     9  C    2.786301   2.403931   2.404542   1.387667   3.260982
    10  H    3.278797   2.042977   3.736665   0.950119   2.342893
    11  C    2.600103   3.107850   3.797990   4.485990   2.833817
    12  O    2.354029   3.566052   2.822283   4.713441   3.831047
    13  H    3.271839   3.728619   2.034469   3.263323   4.678681
    14  H    3.736210   3.261755   3.259932   2.034583   4.049198
    15  C    3.085505   3.204073   4.277560   4.441734   2.802217
    16  C    3.809655   4.313662   4.953504   5.706338   3.924850
    17  C    4.467127   4.447641   5.671340   5.632703   3.877543
    18  H    2.802120   2.786301   3.879860   3.855062   2.530060
    19  C    4.986757   5.289895   6.190850   6.660699   4.737584
    20  H    4.027455   4.669761   5.048060   6.038774   4.374998
    21  C    5.256784   5.351212   6.494825   6.635581   4.725186
    22  H    5.038821   4.876546   6.191989   5.921025   4.302378
    23  H    5.798643   6.124368   6.978227   7.498383   5.558156
    24  H    6.187654   6.217220   7.427745   7.465250   5.546014
                    6          7          8          9         10
     6  C    0.000000
     7  C    3.763130   0.000000
     8  H    2.620930   2.035246   0.000000
     9  C    4.279082   1.387200   3.261263   0.000000
    10  H    4.575496   3.265208   4.686711   2.037829   0.000000
    11  C    1.495169   4.979415   4.009414   5.256001   5.064583
    12  O    1.221501   4.176431   2.581683   4.950800   5.534796
    13  H    4.511488   0.949567   2.334899   2.034727   4.050363
    14  H    5.228480   2.033434   4.046081   0.949923   2.337447
    15  C    2.537727   5.255294   4.628786   5.324119   4.879993
    16  C    2.479176   6.196754   5.039348   6.509617   6.235584
    17  C    3.804937   6.627578   5.995950   6.612953   5.932238
    18  H    2.716281   4.691094   4.328392   4.683541   4.288653
    19  C    3.763108   7.387441   6.315354   7.587398   7.072711
    20  H    2.616515   6.331075   5.031593   6.746563   6.617100
    21  C    4.284219   7.576080   6.722416   7.637232   6.948041
    22  H    4.569487   7.028614   6.566087   6.914202   6.128823
    23  H    4.510144   8.202577   7.052928   8.426733   7.898947
    24  H    5.233249   8.487467   7.657309   8.504769   7.716562
                   11         12         13         14         15
    11  C    0.000000
    12  O    2.352211   0.000000
    13  H    5.788830   4.758129   0.000000
    14  H    6.188585   5.874824   2.332413   0.000000
    15  C    1.397140   3.576242   6.087348   6.191905   0.000000
    16  C    1.400396   2.807573   6.980549   7.445066   2.416598
    17  C    2.415332   4.720113   7.461168   7.444668   1.394557
    18  H    2.045674   3.848369   5.510631   5.505941   0.949629
    19  C    2.417537   4.168594   8.198298   8.501951   2.790484
    20  H    2.045335   2.548367   7.065182   7.684292   3.273506
    21  C    2.791872   4.959954   8.410749   8.507238   2.416481
    22  H    3.272181   5.544711   7.850235   7.684092   2.040640
    23  H    3.274172   4.744339   9.001254   9.344429   3.740125
    24  H    3.741249   5.884919   9.324721   9.355566   3.272933
                   16         17         18         19         20
    16  C    0.000000
    17  C    2.779944   0.000000
    18  H    3.276013   2.043131   0.000000
    19  C    1.384664   2.411145   3.740066   0.000000
    20  H    0.949746   3.729607   4.064490   2.031171   0.000000
    21  C    2.406945   1.390889   3.272678   1.394891   3.263520
    22  H    3.729747   0.949843   2.342925   3.268069   4.679370
    23  H    2.033181   3.268541   4.689659   0.949747   2.331159
    24  H    3.263351   2.039453   4.059507   2.042795   4.050092
                   21         22         23         24
    21  C    0.000000
    22  H    2.037493   0.000000
    23  H    2.043001   4.056081   0.000000
    24  H    0.949386   2.339229   2.345581   0.000000
 Stoichiometry    C13H10O
 Framework group  C1[X(C13H10O)]
 Deg. of freedom    66
 Full point group                 C1      NOp   1
 Largest Abelian subgroup         C1      NOp   1
 Largest concise Abelian subgroup C1      NOp   1
                         Standard orientation:                         
 ---------------------------------------------------------------------
 Center     Atomic      Atomic             Coordinates (Angstroms)
 Number     Number       Type             X           Y           Z
 ---------------------------------------------------------------------
      1          6           0       -1.298026    0.324067    0.012633
      2          6           0       -1.472616   -0.897120    0.669234
      3          6           0       -2.401433    0.943144   -0.586644
      4          6           0       -2.732663   -1.486979    0.736133
      5          1           0       -0.727583   -1.327848    1.071949
      6          6           0        0.002619    1.064285    0.010822
      7          6           0       -3.650388    0.342305   -0.532714
      8          1           0       -2.294716    1.776368   -1.030554
      9          6           0       -3.815945   -0.862876    0.133959
     10          1           0       -2.850160   -2.312476    1.191628
     11          6           0        1.301937    0.324912   -0.014305
     12          8           0        0.003284    2.285634    0.030074
     13          1           0       -4.393817    0.756750   -0.953695
     14          1           0       -4.676378   -1.262942    0.178186
     15          6           0        1.451195   -0.914760   -0.641149
     16          6           0        2.421344    0.954642    0.543795
     17          6           0        2.710883   -1.508960   -0.711164
     18          1           0        0.697175   -1.351478   -1.018676
     19          6           0        3.665440    0.348853    0.493399
     20          1           0        2.326272    1.802977    0.960097
     21          6           0        3.816137   -0.881755   -0.145831
     22          1           0        2.814548   -2.346156   -1.147694
     23          1           0        4.415769    0.771513    0.893881
     24          1           0        4.671714   -1.290328   -0.194723
 ---------------------------------------------------------------------
 Rotational constants (GHZ):           1.7581543           0.4085337           0.3528539
 Leave Link  202 at Tue Nov 22 15:02:15 2022, MaxMem= 16106127360 cpu:               1.9 elap:               0.1
 (Enter /opt/ap/G16/B01/g16/l301.exe)
 Standard basis: 6-311++G(d,p) (5D, 7F)
 Ernie: Thresh=  0.10000D-02 Tol=  0.10000D-05 Strict=F.
 There are   392 symmetry adapted cartesian basis functions of A   symmetry.
 There are   378 symmetry adapted basis functions of A   symmetry.
   378 basis functions,   594 primitive gaussians,   392 cartesian basis functions
    48 alpha electrons       48 beta electrons
       nuclear repulsion energy       782.8600769364 Hartrees.
 IExCor= 4639 DFT=T Ex+Corr=wB97XD ExCW=0 ScaHFX=  1.000000
 ScaDFX=  1.000000  1.000000  1.000000  1.000000 ScalE2=  1.000000  1.000000
 IRadAn=      5 IRanWt=     -1 IRanGd=            0 ICorTp=0 IEmpDi=121
 HFx  wShort=  0.000000 wLong=  0.200000 cFull=  0.222036 cShort=  0.000000 cLong=  0.777964
 DFx  wShort=  0.000000 wLong=  0.200000 cFull=  0.000000 cShort=  0.000000 cLong=  1.000000
 NAtoms=   24 NActive=   24 NUniq=   24 SFac= 1.00D+00 NAtFMM=   60 NAOKFM=F Big=F
 Integral buffers will be    131072 words long.
 Raffenetti 2 integral format.
 Two-electron integral symmetry is turned on.
 R6Disp:  Grimme-D2 Dispersion energy=       -0.0140606654 Hartrees.
 Nuclear repulsion after empirical dispersion term =      782.8460162710 Hartrees.
 Leave Link  301 at Tue Nov 22 15:02:15 2022, MaxMem= 16106127360 cpu:               1.2 elap:               0.0
 (Enter /opt/ap/G16/B01/g16/l302.exe)
 NPDir=0 NMtPBC=     1 NCelOv=     1 NCel=       1 NClECP=     1 NCelD=      1
         NCelK=      1 NCelE2=     1 NClLst=     1 CellRange=     0.0.
 One-electron integrals computed using PRISM.
 One-electron integral symmetry used in STVInt
 NBasis=   378 RedAO= T EigKep=  1.46D-06  NBF=   378
 NBsUse=   376 1.00D-06 EigRej=  8.25D-07 NBFU=   376
 Precomputing XC quadrature grid using
 IXCGrd= 4 IRadAn=           5 IRanWt=          -1 IRanGd=           0 AccXCQ= 0.00D+00.
 Generated NRdTot=       0 NPtTot=           0 NUsed=           0 NTot=          32
 NSgBfM=   392   392   392   392   392 MxSgAt=    24 MxSgA2=    24.
 Leave Link  302 at Tue Nov 22 15:02:16 2022, MaxMem= 16106127360 cpu:               8.3 elap:               0.3
 (Enter /opt/ap/G16/B01/g16/l303.exe)
 DipDrv:  MaxL=1.
 Leave Link  303 at Tue Nov 22 15:02:16 2022, MaxMem= 16106127360 cpu:               1.6 elap:               0.1
 (Enter /opt/ap/G16/B01/g16/l401.exe)
 ExpMin= 3.60D-02 ExpMax= 8.59D+03 ExpMxC= 1.30D+03 IAcc=3 IRadAn=         5 AccDes= 0.00D+00
 Harris functional with IExCor= 4639 and IRadAn=       5 diagonalized for initial guess.
 HarFok:  IExCor= 4639 AccDes= 0.00D+00 IRadAn=         5 IDoV= 1 UseB2=F ITyADJ=14
 ICtDFT=  3500011 ScaDFX=  1.000000  1.000000  1.000000  1.000000
 FoFCou: FMM=F IPFlag=           0 FMFlag=      100000 FMFlg1=           0
         NFxFlg=           0 DoJE=T BraDBF=F KetDBF=T FulRan=T
         wScrn=  0.000000 ICntrl=       500 IOpCl=  0 I1Cent=   200000004 NGrid=           0
         NMat0=    1 NMatS0=      1 NMatT0=    0 NMatD0=    1 NMtDS0=    0 NMtDT0=    0
 Petite list used in FoFCou.
 Harris En= -550.906701957173    
 JPrj=0 DoOrth=F DoCkMO=F.
 Leave Link  401 at Tue Nov 22 15:02:17 2022, MaxMem= 16106127360 cpu:              23.2 elap:               0.7
 (Enter /opt/ap/G16/B01/g16/l502.exe)
 Integral symmetry usage will be decided dynamically.
 Closed shell SCF:
 Using DIIS extrapolation, IDIIS=  1040.
 NGot= 16106127360 LenX= 16105803762 LenY= 16105649657
 Requested convergence on RMS density matrix=1.00D-08 within 512 cycles.
 Requested convergence on MAX density matrix=1.00D-06.
 Requested convergence on             energy=1.00D-06.
 No special actions if energy rises.
 Fock matrices will be formed incrementally for  20 cycles.

 Cycle   1  Pass 1  IDiag  1:
 FoFJK:  IHMeth= 1 ICntrl=       0 DoSepK=T KAlg= 0 I1Cent=           0 FoldK=F
 IRaf=         1 NMat=       1 IRICut=       1 DoRegI=T DoRafI=F ISym2E= 0 IDoP0=0 IntGTp=1.
 FoFCou: FMM=F IPFlag=           0 FMFlag=      100000 FMFlg1=           0
         NFxFlg=           0 DoJE=T BraDBF=F KetDBF=F FulRan=T
         wScrn=  0.000000 ICntrl=       500 IOpCl=  0 I1Cent=           0 NGrid=           0
         NMat0=    1 NMatS0=      1 NMatT0=    0 NMatD0=    1 NMtDS0=    0 NMtDT0=    0
 Symmetry not used in FoFCou.
 E= -576.265728198464    
 DIIS: error= 5.84D-02 at cycle   1 NSaved=   1.
 NSaved= 1 IEnMin= 1 EnMin= -576.265728198464     IErMin= 1 ErrMin= 5.84D-02
 ErrMax= 5.84D-02  0.00D+00 EMaxC= 1.00D-01 BMatC= 1.19D+00 BMatP= 1.19D+00
 IDIUse=3 WtCom= 4.16D-01 WtEn= 5.84D-01
 Coeff-Com:  0.100D+01
 Coeff-En:   0.100D+01
 Coeff:      0.100D+01
 Gap=     0.404 Goal=   None    Shift=    0.000
 GapD=    0.404 DampG=2.000 DampE=0.500 DampFc=1.0000 IDamp=-1.
 RMSDP=2.83D-02 MaxDP=3.88D+00              OVMax= 1.39D-01

 Cycle   2  Pass 1  IDiag  1:
 RMSU=  1.68D-02    CP:  7.22D-01
 E= -576.354193920225     Delta-E=       -0.088465721761 Rises=F Damp=F
 DIIS: error= 1.70D-02 at cycle   2 NSaved=   2.
 NSaved= 2 IEnMin= 2 EnMin= -576.354193920225     IErMin= 2 ErrMin= 1.70D-02
 ErrMax= 1.70D-02  0.00D+00 EMaxC= 1.00D-01 BMatC= 7.57D-02 BMatP= 1.19D+00
 IDIUse=3 WtCom= 8.30D-01 WtEn= 1.70D-01
 Coeff-Com:  0.126D+00 0.874D+00
 Coeff-En:   0.148D+00 0.852D+00
 Coeff:      0.130D+00 0.870D+00
 Gap=     0.423 Goal=   None    Shift=    0.000
 RMSDP=9.07D-03 MaxDP=1.42D+00 DE=-8.85D-02 OVMax= 1.60D-01

 Cycle   3  Pass 1  IDiag  1:
 RMSU=  6.64D-03    CP:  6.59D-01  8.01D-01
 E= -576.370316021466     Delta-E=       -0.016122101241 Rises=F Damp=F
 DIIS: error= 1.52D-02 at cycle   3 NSaved=   3.
 NSaved= 3 IEnMin= 3 EnMin= -576.370316021466     IErMin= 3 ErrMin= 1.52D-02
 ErrMax= 1.52D-02  0.00D+00 EMaxC= 1.00D-01 BMatC= 5.62D-02 BMatP= 7.57D-02
 IDIUse=3 WtCom= 8.48D-01 WtEn= 1.52D-01
 Coeff-Com:  0.240D-01 0.466D+00 0.510D+00
 Coeff-En:   0.000D+00 0.433D+00 0.567D+00
 Coeff:      0.203D-01 0.461D+00 0.519D+00
 Gap=     0.349 Goal=   None    Shift=    0.000
 RMSDP=3.12D-03 MaxDP=1.52D-01 DE=-1.61D-02 OVMax= 6.95D-02

 Cycle   4  Pass 1  IDiag  1:
 RMSU=  1.81D-03    CP:  6.45D-01  8.67D-01  6.97D-01
 E= -576.419634859904     Delta-E=       -0.049318838437 Rises=F Damp=F
 DIIS: error= 2.78D-03 at cycle   4 NSaved=   4.
 NSaved= 4 IEnMin= 4 EnMin= -576.419634859904     IErMin= 4 ErrMin= 2.78D-03
 ErrMax= 2.78D-03  0.00D+00 EMaxC= 1.00D-01 BMatC= 9.76D-04 BMatP= 5.62D-02
 IDIUse=3 WtCom= 9.72D-01 WtEn= 2.78D-02
 Coeff-Com:  0.966D-02 0.201D+00 0.245D+00 0.545D+00
 Coeff-En:   0.000D+00 0.000D+00 0.000D+00 0.100D+01
 Coeff:      0.939D-02 0.195D+00 0.238D+00 0.558D+00
 Gap=     0.323 Goal=   None    Shift=    0.000
 RMSDP=5.34D-04 MaxDP=4.10D-02 DE=-4.93D-02 OVMax= 7.09D-03

 Cycle   5  Pass 1  IDiag  1:
 RMSU=  4.05D-04    CP:  6.47D-01  8.84D-01  7.19D-01  9.86D-01
 E= -576.420304848203     Delta-E=       -0.000669988299 Rises=F Damp=F
 DIIS: error= 8.01D-04 at cycle   5 NSaved=   5.
 NSaved= 5 IEnMin= 5 EnMin= -576.420304848203     IErMin= 5 ErrMin= 8.01D-04
 ErrMax= 8.01D-04  0.00D+00 EMaxC= 1.00D-01 BMatC= 9.01D-05 BMatP= 9.76D-04
 IDIUse=3 WtCom= 9.92D-01 WtEn= 8.01D-03
 Coeff-Com: -0.590D-03-0.851D-02-0.727D-04 0.222D+00 0.788D+00
 Coeff-En:   0.000D+00 0.000D+00 0.000D+00 0.000D+00 0.100D+01
 Coeff:     -0.586D-03-0.844D-02-0.721D-04 0.220D+00 0.789D+00
 Gap=     0.325 Goal=   None    Shift=    0.000
 RMSDP=3.63D-04 MaxDP=4.36D-02 DE=-6.70D-04 OVMax= 2.63D-03

 Cycle   6  Pass 1  IDiag  1:
 RMSU=  2.32D-04    CP:  6.45D-01  8.91D-01  7.23D-01  1.06D+00  7.05D-01
 E= -576.420374970044     Delta-E=       -0.000070121841 Rises=F Damp=F
 DIIS: error= 3.68D-04 at cycle   6 NSaved=   6.
 NSaved= 6 IEnMin= 6 EnMin= -576.420374970044     IErMin= 6 ErrMin= 3.68D-04
 ErrMax= 3.68D-04  0.00D+00 EMaxC= 1.00D-01 BMatC= 1.87D-05 BMatP= 9.01D-05
 IDIUse=3 WtCom= 9.96D-01 WtEn= 3.68D-03
 Coeff-Com: -0.123D-02-0.231D-01-0.224D-01 0.653D-01 0.424D+00 0.557D+00
 Coeff-En:   0.000D+00 0.000D+00 0.000D+00 0.000D+00 0.000D+00 0.100D+01
 Coeff:     -0.123D-02-0.230D-01-0.223D-01 0.651D-01 0.422D+00 0.559D+00
 Gap=     0.325 Goal=   None    Shift=    0.000
 RMSDP=8.46D-05 MaxDP=4.07D-03 DE=-7.01D-05 OVMax= 1.23D-03

 Cycle   7  Pass 1  IDiag  1:
 RMSU=  6.28D-05    CP:  6.45D-01  8.91D-01  7.28D-01  1.08D+00  7.95D-01
                    CP:  9.58D-01
 E= -576.420394578514     Delta-E=       -0.000019608470 Rises=F Damp=F
 DIIS: error= 5.18D-05 at cycle   7 NSaved=   7.
 NSaved= 7 IEnMin= 7 EnMin= -576.420394578514     IErMin= 7 ErrMin= 5.18D-05
 ErrMax= 5.18D-05  0.00D+00 EMaxC= 1.00D-01 BMatC= 4.96D-07 BMatP= 1.87D-05
 IDIUse=1 WtCom= 1.00D+00 WtEn= 0.00D+00
 Coeff-Com: -0.229D-03-0.439D-02-0.519D-02-0.104D-01-0.895D-02 0.107D+00
 Coeff-Com:  0.922D+00
 Coeff:     -0.229D-03-0.439D-02-0.519D-02-0.104D-01-0.895D-02 0.107D+00
 Coeff:      0.922D+00
 Gap=     0.325 Goal=   None    Shift=    0.000
 RMSDP=4.19D-05 MaxDP=3.37D-03 DE=-1.96D-05 OVMax= 6.13D-04

 Cycle   8  Pass 1  IDiag  1:
 RMSU=  2.16D-05    CP:  6.45D-01  8.91D-01  7.29D-01  1.09D+00  8.11D-01
                    CP:  1.06D+00  1.06D+00
 E= -576.420395835408     Delta-E=       -0.000001256894 Rises=F Damp=F
 DIIS: error= 2.51D-05 at cycle   8 NSaved=   8.
 NSaved= 8 IEnMin= 8 EnMin= -576.420395835408     IErMin= 8 ErrMin= 2.51D-05
 ErrMax= 2.51D-05  0.00D+00 EMaxC= 1.00D-01 BMatC= 8.51D-08 BMatP= 4.96D-07
 IDIUse=1 WtCom= 1.00D+00 WtEn= 0.00D+00
 Coeff-Com:  0.477D-04 0.683D-03 0.193D-03-0.123D-01-0.550D-01-0.244D-01
 Coeff-Com:  0.312D+00 0.779D+00
 Coeff:      0.477D-04 0.683D-03 0.193D-03-0.123D-01-0.550D-01-0.244D-01
 Coeff:      0.312D+00 0.779D+00
 Gap=     0.325 Goal=   None    Shift=    0.000
 RMSDP=1.81D-05 MaxDP=2.00D-03 DE=-1.26D-06 OVMax= 2.37D-04

 Cycle   9  Pass 1  IDiag  1:
 RMSU=  5.02D-06    CP:  6.45D-01  8.92D-01  7.29D-01  1.10D+00  8.12D-01
                    CP:  1.09D+00  1.07D+00  1.26D+00
 E= -576.420396012806     Delta-E=       -0.000000177398 Rises=F Damp=F
 DIIS: error= 5.43D-06 at cycle   9 NSaved=   9.
 NSaved= 9 IEnMin= 9 EnMin= -576.420396012806     IErMin= 9 ErrMin= 5.43D-06
 ErrMax= 5.43D-06  0.00D+00 EMaxC= 1.00D-01 BMatC= 6.85D-09 BMatP= 8.51D-08
 IDIUse=1 WtCom= 1.00D+00 WtEn= 0.00D+00
 Coeff-Com:  0.408D-04 0.721D-03 0.713D-03-0.781D-03-0.925D-02-0.175D-01
 Coeff-Com: -0.627D-01 0.150D+00 0.938D+00
 Coeff:      0.408D-04 0.721D-03 0.713D-03-0.781D-03-0.925D-02-0.175D-01
 Coeff:     -0.627D-01 0.150D+00 0.938D+00
 Gap=     0.325 Goal=   None    Shift=    0.000
 RMSDP=7.43D-06 MaxDP=1.13D-03 DE=-1.77D-07 OVMax= 1.19D-04

 Cycle  10  Pass 1  IDiag  1:
 RMSU=  1.70D-06    CP:  6.45D-01  8.92D-01  7.29D-01  1.09D+00  8.11D-01
                    CP:  1.10D+00  1.07D+00  1.44D+00  1.27D+00
 E= -576.420396036327     Delta-E=       -0.000000023520 Rises=F Damp=F
 DIIS: error= 2.19D-06 at cycle  10 NSaved=  10.
 NSaved=10 IEnMin=10 EnMin= -576.420396036327     IErMin=10 ErrMin= 2.19D-06
 ErrMax= 2.19D-06  0.00D+00 EMaxC= 1.00D-01 BMatC= 6.96D-10 BMatP= 6.85D-09
 IDIUse=1 WtCom= 1.00D+00 WtEn= 0.00D+00
 Coeff-Com: -0.352D-05-0.251D-04 0.157D-04 0.144D-02 0.517D-02 0.237D-02
 Coeff-Com: -0.295D-01-0.749D-01 0.432D-01 0.105D+01
 Coeff:     -0.352D-05-0.251D-04 0.157D-04 0.144D-02 0.517D-02 0.237D-02
 Coeff:     -0.295D-01-0.749D-01 0.432D-01 0.105D+01
 Gap=     0.325 Goal=   None    Shift=    0.000
 RMSDP=2.35D-06 MaxDP=1.54D-04 DE=-2.35D-08 OVMax= 4.68D-05

 Cycle  11  Pass 1  IDiag  1:
 RMSU=  7.80D-07    CP:  6.45D-01  8.92D-01  7.29D-01  1.09D+00  8.12D-01
                    CP:  1.09D+00  1.06D+00  1.49D+00  1.37D+00  1.23D+00
 E= -576.420396039956     Delta-E=       -0.000000003630 Rises=F Damp=F
 DIIS: error= 9.67D-07 at cycle  11 NSaved=  11.
 NSaved=11 IEnMin=11 EnMin= -576.420396039956     IErMin=11 ErrMin= 9.67D-07
 ErrMax= 9.67D-07  0.00D+00 EMaxC= 1.00D-01 BMatC= 1.42D-10 BMatP= 6.96D-10
 IDIUse=1 WtCom= 1.00D+00 WtEn= 0.00D+00
 Coeff-Com: -0.404D-05-0.659D-04-0.577D-04 0.378D-03 0.169D-02 0.182D-02
 Coeff-Com:  0.481D-03-0.304D-01-0.952D-01 0.188D+00 0.933D+00
 Coeff:     -0.404D-05-0.659D-04-0.577D-04 0.378D-03 0.169D-02 0.182D-02
 Coeff:      0.481D-03-0.304D-01-0.952D-01 0.188D+00 0.933D+00
 Gap=     0.325 Goal=   None    Shift=    0.000
 RMSDP=6.54D-07 MaxDP=7.57D-05 DE=-3.63D-09 OVMax= 2.07D-05

 Cycle  12  Pass 1  IDiag  1:
 RMSU=  3.74D-07    CP:  6.45D-01  8.92D-01  7.29D-01  1.09D+00  8.12D-01
                    CP:  1.09D+00  1.06D+00  1.49D+00  1.42D+00  1.33D+00
                    CP:  1.28D+00
 E= -576.420396040662     Delta-E=       -0.000000000706 Rises=F Damp=F
 DIIS: error= 4.91D-07 at cycle  12 NSaved=  12.
 NSaved=12 IEnMin=12 EnMin= -576.420396040662     IErMin=12 ErrMin= 4.91D-07
 ErrMax= 4.91D-07  0.00D+00 EMaxC= 1.00D-01 BMatC= 3.11D-11 BMatP= 1.42D-10
 IDIUse=1 WtCom= 1.00D+00 WtEn= 0.00D+00
 Coeff-Com:  0.173D-06-0.719D-05-0.147D-04-0.307D-03-0.109D-02-0.339D-03
 Coeff-Com:  0.852D-02 0.154D-01-0.302D-01-0.233D+00 0.203D+00 0.104D+01
 Coeff:      0.173D-06-0.719D-05-0.147D-04-0.307D-03-0.109D-02-0.339D-03
 Coeff:      0.852D-02 0.154D-01-0.302D-01-0.233D+00 0.203D+00 0.104D+01
 Gap=     0.325 Goal=   None    Shift=    0.000
 RMSDP=3.49D-07 MaxDP=2.14D-05 DE=-7.06D-10 OVMax= 1.27D-05

 Cycle  13  Pass 1  IDiag  1:
 RMSU=  1.29D-07    CP:  6.45D-01  8.92D-01  7.29D-01  1.09D+00  8.12D-01
                    CP:  1.09D+00  1.06D+00  1.48D+00  1.43D+00  1.35D+00
                    CP:  1.46D+00  1.53D+00
 E= -576.420396040831     Delta-E=       -0.000000000170 Rises=F Damp=F
 DIIS: error= 1.56D-07 at cycle  13 NSaved=  13.
 NSaved=13 IEnMin=13 EnMin= -576.420396040831     IErMin=13 ErrMin= 1.56D-07
 ErrMax= 1.56D-07  0.00D+00 EMaxC= 1.00D-01 BMatC= 4.81D-12 BMatP= 3.11D-11
 IDIUse=1 WtCom= 1.00D+00 WtEn= 0.00D+00
 Coeff-Com:  0.570D-06 0.668D-05 0.520D-05-0.151D-03-0.528D-03-0.381D-03
 Coeff-Com:  0.217D-02 0.828D-02 0.359D-02-0.910D-01-0.641D-01 0.258D+00
 Coeff-Com:  0.884D+00
 Coeff:      0.570D-06 0.668D-05 0.520D-05-0.151D-03-0.528D-03-0.381D-03
 Coeff:      0.217D-02 0.828D-02 0.359D-02-0.910D-01-0.641D-01 0.258D+00
 Coeff:      0.884D+00
 Gap=     0.325 Goal=   None    Shift=    0.000
 RMSDP=1.16D-07 MaxDP=5.17D-06 DE=-1.70D-10 OVMax= 4.21D-06

 Cycle  14  Pass 1  IDiag  1:
 RMSU=  4.84D-08    CP:  6.45D-01  8.92D-01  7.29D-01  1.09D+00  8.12D-01
                    CP:  1.09D+00  1.06D+00  1.48D+00  1.43D+00  1.34D+00
                    CP:  1.49D+00  1.68D+00  1.32D+00
 E= -576.420396040849     Delta-E=       -0.000000000018 Rises=F Damp=F
 DIIS: error= 4.81D-08 at cycle  14 NSaved=  14.
 NSaved=14 IEnMin=14 EnMin= -576.420396040849     IErMin=14 ErrMin= 4.81D-08
 ErrMax= 4.81D-08  0.00D+00 EMaxC= 1.00D-01 BMatC= 8.79D-13 BMatP= 4.81D-12
 IDIUse=1 WtCom= 1.00D+00 WtEn= 0.00D+00
 Coeff-Com:  0.870D-07 0.250D-05 0.417D-05 0.655D-05 0.556D-04-0.307D-04
 Coeff-Com: -0.815D-03-0.502D-03 0.522D-02 0.153D-01-0.403D-01-0.125D+00
 Coeff-Com:  0.228D+00 0.919D+00
 Coeff:      0.870D-07 0.250D-05 0.417D-05 0.655D-05 0.556D-04-0.307D-04
 Coeff:     -0.815D-03-0.502D-03 0.522D-02 0.153D-01-0.403D-01-0.125D+00
 Coeff:      0.228D+00 0.919D+00
 Gap=     0.325 Goal=   None    Shift=    0.000
 RMSDP=8.04D-08 MaxDP=8.11D-06 DE=-1.75D-11 OVMax= 1.42D-06

 Cycle  15  Pass 1  IDiag  1:
 RMSU=  1.44D-08    CP:  6.45D-01  8.92D-01  7.29D-01  1.09D+00  8.12D-01
                    CP:  1.09D+00  1.06D+00  1.48D+00  1.43D+00  1.33D+00
                    CP:  1.49D+00  1.75D+00  1.52D+00  1.04D+00
 E= -576.420396040859     Delta-E=       -0.000000000010 Rises=F Damp=F
 DIIS: error= 1.61D-08 at cycle  15 NSaved=  15.
 NSaved=15 IEnMin=15 EnMin= -576.420396040859     IErMin=15 ErrMin= 1.61D-08
 ErrMax= 1.61D-08  0.00D+00 EMaxC= 1.00D-01 BMatC= 1.47D-13 BMatP= 8.79D-13
 IDIUse=1 WtCom= 1.00D+00 WtEn= 0.00D+00
 Coeff-Com: -0.324D-07 0.289D-06 0.128D-05 0.211D-04 0.914D-04 0.405D-04
 Coeff-Com: -0.590D-03-0.120D-02 0.183D-02 0.180D-01-0.703D-02-0.924D-01
 Coeff-Com: -0.116D-01 0.395D+00 0.698D+00
 Coeff:     -0.324D-07 0.289D-06 0.128D-05 0.211D-04 0.914D-04 0.405D-04
 Coeff:     -0.590D-03-0.120D-02 0.183D-02 0.180D-01-0.703D-02-0.924D-01
 Coeff:     -0.116D-01 0.395D+00 0.698D+00
 Gap=     0.325 Goal=   None    Shift=    0.000
 RMSDP=1.91D-08 MaxDP=1.98D-06 DE=-9.78D-12 OVMax= 3.19D-07

 Cycle  16  Pass 1  IDiag  1:
 RMSU=  4.01D-09    CP:  6.45D-01  8.92D-01  7.29D-01  1.09D+00  8.12D-01
                    CP:  1.09D+00  1.06D+00  1.48D+00  1.43D+00  1.33D+00
                    CP:  1.49D+00  1.77D+00  1.54D+00  1.12D+00  1.12D+00
 E= -576.420396040858     Delta-E=        0.000000000001 Rises=F Damp=F
 DIIS: error= 6.10D-09 at cycle  16 NSaved=  16.
 NSaved=16 IEnMin=15 EnMin= -576.420396040859     IErMin=16 ErrMin= 6.10D-09
 ErrMax= 6.10D-09  0.00D+00 EMaxC= 1.00D-01 BMatC= 4.73D-15 BMatP= 1.47D-13
 IDIUse=1 WtCom= 1.00D+00 WtEn= 0.00D+00
 Coeff-Com: -0.830D-08-0.190D-06-0.293D-06 0.128D-05 0.272D-05 0.975D-05
 Coeff-Com:  0.300D-04-0.671D-04-0.469D-03-0.990D-04 0.501D-02 0.203D-02
 Coeff-Com: -0.227D-01-0.599D-01 0.597D-01 0.102D+01
 Coeff:     -0.830D-08-0.190D-06-0.293D-06 0.128D-05 0.272D-05 0.975D-05
 Coeff:      0.300D-04-0.671D-04-0.469D-03-0.990D-04 0.501D-02 0.203D-02
 Coeff:     -0.227D-01-0.599D-01 0.597D-01 0.102D+01
 Gap=     0.325 Goal=   None    Shift=    0.000
 RMSDP=4.56D-09 MaxDP=3.26D-07 DE= 9.09D-13 OVMax= 7.54D-08

 SCF Done:  E(RwB97XD) =  -576.420396041     A.U. after   16 cycles
            NFock= 16  Conv=0.46D-08     -V/T= 2.0000
 KE= 5.764150791251D+02 PE=-2.907932903888D+03 EE= 9.722514124514D+02
 Leave Link  502 at Tue Nov 22 15:02:55 2022, MaxMem= 16106127360 cpu:            1210.0 elap:              37.9
 (Enter /opt/ap/G16/B01/g16/l601.exe)
 Copying SCF densities to generalized density rwf, IOpCl= 0 IROHF=0.

 **********************************************************************

            Population analysis using the SCF Density.

 **********************************************************************

 Orbital symmetries:
       Occupied  (A) (A) (A) (A) (A) (A) (A) (A) (A) (A) (A) (A)
                 (A) (A) (A) (A) (A) (A) (A) (A) (A) (A) (A) (A)
                 (A) (A) (A) (A) (A) (A) (A) (A) (A) (A) (A) (A)
                 (A) (A) (A) (A) (A) (A) (A) (A) (A) (A) (A) (A)
       Virtual   (A) (A) (A) (A) (A) (A) (A) (A) (A) (A) (A) (A)
                 (A) (A) (A) (A) (A) (A) (A) (A) (A) (A) (A) (A)
                 (A) (A) (A) (A) (A) (A) (A) (A) (A) (A) (A) (A)
                 (A) (A) (A) (A) (A) (A) (A) (A) (A) (A) (A) (A)
                 (A) (A) (A) (A) (A) (A) (A) (A) (A) (A) (A) (A)
                 (A) (A) (A) (A) (A) (A) (A) (A) (A) (A) (A) (A)
                 (A) (A) (A) (A) (A) (A) (A) (A) (A) (A) (A) (A)
                 (A) (A) (A) (A) (A) (A) (A) (A) (A) (A) (A) (A)
                 (A) (A) (A) (A) (A) (A) (A) (A) (A) (A) (A) (A)
                 (A) (A) (A) (A) (A) (A) (A) (A) (A) (A) (A) (A)
                 (A) (A) (A) (A) (A) (A) (A) (A) (A) (A) (A) (A)
                 (A) (A) (A) (A) (A) (A) (A) (A) (A) (A) (A) (A)
                 (A) (A) (A) (A) (A) (A) (A) (A) (A) (A) (A) (A)
                 (A) (A) (A) (A) (A) (A) (A) (A) (A) (A) (A) (A)
                 (A) (A) (A) (A) (A) (A) (A) (A) (A) (A) (A) (A)
                 (A) (A) (A) (A) (A) (A) (A) (A) (A) (A) (A) (A)
                 (A) (A) (A) (A) (A) (A) (A) (A) (A) (A) (A) (A)
                 (A) (A) (A) (A) (A) (A) (A) (A) (A) (A) (A) (A)
                 (A) (A) (A) (A) (A) (A) (A) (A) (A) (A) (A) (A)
                 (A) (A) (A) (A) (A) (A) (A) (A) (A) (A) (A) (A)
                 (A) (A) (A) (A) (A) (A) (A) (A) (A) (A) (A) (A)
                 (A) (A) (A) (A) (A) (A) (A) (A) (A) (A) (A) (A)
                 (A) (A) (A) (A) (A) (A) (A) (A) (A) (A) (A) (A)
                 (A) (A) (A) (A) (A) (A) (A) (A) (A) (A) (A) (A)
                 (A) (A) (A) (A) (A) (A) (A) (A) (A) (A) (A) (A)
                 (A) (A) (A) (A) (A) (A) (A) (A) (A) (A) (A) (A)
                 (A) (A) (A) (A) (A) (A) (A) (A) (A) (A) (A) (A)
                 (A) (A) (A) (A)
 The electronic state is 1-A.
 Alpha  occ. eigenvalues --  -19.23684 -10.38118 -10.30466 -10.30454 -10.28965
 Alpha  occ. eigenvalues --  -10.28913 -10.28640 -10.28466 -10.28454 -10.28417
 Alpha  occ. eigenvalues --  -10.28386 -10.28381 -10.28215 -10.28116  -1.14790
 Alpha  occ. eigenvalues --   -0.97899  -0.97399  -0.89130  -0.87343  -0.87269
 Alpha  occ. eigenvalues --   -0.86747  -0.76773  -0.73728  -0.73641  -0.72432
 Alpha  occ. eigenvalues --   -0.67945  -0.65390  -0.63081  -0.60126  -0.56754
 Alpha  occ. eigenvalues --   -0.56114  -0.55868  -0.53991  -0.53883  -0.53868
 Alpha  occ. eigenvalues --   -0.51978  -0.49706  -0.47194  -0.46671  -0.46143
 Alpha  occ. eigenvalues --   -0.45316  -0.44865  -0.44311  -0.35115  -0.34605
 Alpha  occ. eigenvalues --   -0.34208  -0.34169  -0.33199
 Alpha virt. eigenvalues --   -0.00718   0.03602   0.03654   0.04298   0.04318
 Alpha virt. eigenvalues --    0.05077   0.05149   0.05458   0.06013   0.06806
 Alpha virt. eigenvalues --    0.07581   0.08048   0.08855   0.09886   0.11214
 Alpha virt. eigenvalues --    0.11498   0.11849   0.13009   0.13626   0.14235
 Alpha virt. eigenvalues --    0.14921   0.14998   0.15557   0.15938   0.16603
 Alpha virt. eigenvalues --    0.16942   0.17165   0.17378   0.17781   0.17924
 Alpha virt. eigenvalues --    0.18249   0.18557   0.18734   0.19132   0.19559
 Alpha virt. eigenvalues --    0.19818   0.20411   0.20569   0.20929   0.21152
 Alpha virt. eigenvalues --    0.21412   0.21696   0.22028   0.23085   0.23800
 Alpha virt. eigenvalues --    0.24184   0.25003   0.25287   0.25615   0.26451
 Alpha virt. eigenvalues --    0.26560   0.27048   0.27687   0.28315   0.28803
 Alpha virt. eigenvalues --    0.29645   0.29736   0.29982   0.30173   0.30952
 Alpha virt. eigenvalues --    0.31398   0.32017   0.32809   0.33064   0.33408
 Alpha virt. eigenvalues --    0.33771   0.34311   0.34545   0.35686   0.35842
 Alpha virt. eigenvalues --    0.36699   0.37451   0.38051   0.38593   0.38971
 Alpha virt. eigenvalues --    0.39200   0.40078   0.40874   0.41642   0.41885
 Alpha virt. eigenvalues --    0.41936   0.42596   0.43166   0.43932   0.44666
 Alpha virt. eigenvalues --    0.44965   0.45807   0.46703   0.49260   0.50892
 Alpha virt. eigenvalues --    0.51598   0.57223   0.57466   0.57735   0.60946
 Alpha virt. eigenvalues --    0.61110   0.61802   0.62677   0.63031   0.63753
 Alpha virt. eigenvalues --    0.64145   0.64721   0.65185   0.65473   0.66541
 Alpha virt. eigenvalues --    0.66568   0.66709   0.68576   0.69066   0.70574
 Alpha virt. eigenvalues --    0.71410   0.71598   0.72155   0.74013   0.74556
 Alpha virt. eigenvalues --    0.75114   0.76029   0.76671   0.77883   0.79498
 Alpha virt. eigenvalues --    0.79688   0.80468   0.81767   0.82184   0.82432
 Alpha virt. eigenvalues --    0.83645   0.84625   0.84687   0.85863   0.87200
 Alpha virt. eigenvalues --    0.87962   0.89741   0.92519   0.93180   0.93336
 Alpha virt. eigenvalues --    0.94315   0.94428   0.95266   0.96334   0.96728
 Alpha virt. eigenvalues --    0.97077   0.97849   0.99883   1.00100   1.00891
 Alpha virt. eigenvalues --    1.02049   1.02687   1.04521   1.05061   1.05220
 Alpha virt. eigenvalues --    1.07482   1.07723   1.10770   1.12630   1.12987
 Alpha virt. eigenvalues --    1.13781   1.16089   1.16759   1.17294   1.18271
 Alpha virt. eigenvalues --    1.19245   1.21042   1.22082   1.23363   1.24774
 Alpha virt. eigenvalues --    1.26870   1.29669   1.30872   1.34390   1.38143
 Alpha virt. eigenvalues --    1.40265   1.43562   1.44702   1.45967   1.55264
 Alpha virt. eigenvalues --    1.57706   1.57980   1.58374   1.60663   1.61035
 Alpha virt. eigenvalues --    1.61710   1.63121   1.64447   1.65745   1.66423
 Alpha virt. eigenvalues --    1.67071   1.68310   1.68605   1.70624   1.73101
 Alpha virt. eigenvalues --    1.75874   1.76037   1.76306   1.77606   1.78059
 Alpha virt. eigenvalues --    1.78456   1.80765   1.86741   1.87676   1.88768
 Alpha virt. eigenvalues --    1.90368   1.91574   1.91851   1.93393   1.93821
 Alpha virt. eigenvalues --    1.95611   1.95866   1.97853   2.00380   2.00458
 Alpha virt. eigenvalues --    2.01740   2.02320   2.05416   2.05706   2.06267
 Alpha virt. eigenvalues --    2.06497   2.06708   2.08070   2.09927   2.10687
 Alpha virt. eigenvalues --    2.12174   2.15192   2.15737   2.16994   2.21097
 Alpha virt. eigenvalues --    2.25143   2.26739   2.27499   2.28931   2.29684
 Alpha virt. eigenvalues --    2.30826   2.42332   2.44547   2.46532   2.48431
 Alpha virt. eigenvalues --    2.49050   2.49790   2.50693   2.51409   2.52385
 Alpha virt. eigenvalues --    2.58266   2.59768   2.61087   2.67329   2.67942
 Alpha virt. eigenvalues --    2.69619   2.78175   2.80427   2.82178   2.82256
 Alpha virt. eigenvalues --    2.83339   2.84353   2.87417   2.87820   2.88686
 Alpha virt. eigenvalues --    2.89403   2.92552   2.93368   2.93664   2.96737
 Alpha virt. eigenvalues --    2.96892   2.97091   2.98053   3.00308   3.00684
 Alpha virt. eigenvalues --    3.00941   3.01011   3.02060   3.03330   3.05253
 Alpha virt. eigenvalues --    3.05914   3.08783   3.12389   3.14392   3.15522
 Alpha virt. eigenvalues --    3.19356   3.20356   3.21848   3.24993   3.25614
 Alpha virt. eigenvalues --    3.27260   3.32692   3.33025   3.37796   3.45169
 Alpha virt. eigenvalues --    3.49139   3.49931   3.51304   3.53167   3.65837
 Alpha virt. eigenvalues --    3.69805   3.70443   3.71090   3.75252   3.76271
 Alpha virt. eigenvalues --    3.83469   3.88590   3.91813   3.96598   4.31964
 Alpha virt. eigenvalues --    4.37190   4.37371   4.39702   4.40578   4.41794
 Alpha virt. eigenvalues --    4.42884   4.50951   4.51880   4.58547   4.94567
 Alpha virt. eigenvalues --    4.95797   5.21247   5.35681   5.86110  23.89479
 Alpha virt. eigenvalues --   23.96249  23.98977  24.16910  24.18813  24.24095
 Alpha virt. eigenvalues --   24.24878  24.30163  24.30995  24.34042  24.34448
 Alpha virt. eigenvalues --   24.43452  24.44286  50.15019
          Condensed to atoms (all electrons):
               1          2          3          4          5          6
     1  C   14.798507   0.237775  -0.541160  -0.792338   0.026343  -5.571029
     2  C    0.237775  17.423533  -4.625494  -3.611073   0.805459  -3.497588
     3  C   -0.541160  -4.625494   9.609156   0.953015  -0.068902   0.243387
     4  C   -0.792338  -3.611073   0.953015   8.138463  -0.268962   2.015276
     5  H    0.026343   0.805459  -0.068902  -0.268962   0.523747  -0.230058
     6  C   -5.571029  -3.497588   0.243387   2.015276  -0.230058  22.089830
     7  C   -0.718284  -0.463225   0.799883  -0.104810   0.020442   0.106005
     8  H    0.082642   0.088080   0.337845  -0.003849  -0.000087   0.024858
     9  C   -0.254721   1.575572  -0.952849  -0.297970   0.035866  -0.762237
    10  H    0.056726  -0.217528   0.047992   0.525678  -0.019827   0.053956
    11  C   -1.379554  -0.272430  -0.116409  -0.562061   0.055700  -6.092642
    12  O    0.001321  -0.059295   0.066991  -0.015908  -0.001387   0.242701
    13  H   -0.018631  -0.042472  -0.057831   0.023844   0.000524   0.016885
    14  H    0.022915   0.057051  -0.030043  -0.106523   0.001761  -0.040304
    15  C   -0.252621  -0.599723   0.167618   0.142053  -0.009456  -3.341615
    16  C   -0.542523  -0.062020  -0.093277   0.155088  -0.021495   1.350942
    17  C   -0.438487   0.164323   0.080613   0.105744  -0.015101   1.513528
    18  H    0.039362  -0.012867  -0.001593  -0.016877  -0.006606  -0.182695
    19  C   -0.081694   0.144189  -0.155363   0.043861   0.000648  -0.211824
    20  H   -0.045791  -0.045502   0.026911  -0.000877  -0.004117   0.040185
    21  C    0.086328  -0.154280   0.059390  -0.007723   0.000862  -0.515701
    22  H   -0.018968   0.010859  -0.004575   0.004909  -0.001992   0.044356
    23  H   -0.005435   0.010881  -0.006015   0.000788   0.000223   0.013276
    24  H    0.009029  -0.011363   0.003537  -0.001371  -0.000374  -0.035375
               7          8          9         10         11         12
     1  C   -0.718284   0.082642  -0.254721   0.056726  -1.379554   0.001321
     2  C   -0.463225   0.088080   1.575572  -0.217528  -0.272430  -0.059295
     3  C    0.799883   0.337845  -0.952849   0.047992  -0.116409   0.066991
     4  C   -0.104810  -0.003849  -0.297970   0.525678  -0.562061  -0.015908
     5  H    0.020442  -0.000087   0.035866  -0.019827   0.055700  -0.001387
     6  C    0.106005   0.024858  -0.762237   0.053956  -6.092642   0.242701
     7  C    5.945713  -0.125145   0.506100   0.011451  -0.085076   0.007757
     8  H   -0.125145   0.465932  -0.004781   0.000131  -0.048532  -0.014932
     9  C    0.506100  -0.004781   6.081196  -0.130249   0.137273   0.005639
    10  H    0.011451   0.000131  -0.130249   0.494890  -0.020865  -0.000014
    11  C   -0.085076  -0.048532   0.137273  -0.020865  15.150648   0.032855
    12  O    0.007757  -0.014932   0.005639  -0.000014   0.032855   7.961852
    13  H    0.480605  -0.013458  -0.056812   0.001287  -0.006816   0.000500
    14  H   -0.073030   0.002363   0.516842  -0.016551   0.009667   0.000097
    15  C    0.137100  -0.044554  -0.132444   0.010764   0.529426  -0.068667
    16  C   -0.125672   0.023186   0.028051  -0.003076  -0.963141   0.050141
    17  C    0.052472  -0.002562  -0.013004   0.005320  -0.972735  -0.013592
    18  H   -0.002421  -0.003781   0.002613  -0.002037   0.019653  -0.001700
    19  C   -0.038947   0.004328   0.011978  -0.001618  -0.635977   0.010864
    20  H    0.004336  -0.000783  -0.001852   0.000257   0.062140  -0.015233
    21  C    0.013478  -0.002128  -0.014077   0.001978  -0.198406   0.001525
    22  H   -0.001366   0.000239   0.001794   0.000066   0.050719   0.000048
    23  H   -0.000895   0.000105   0.000494  -0.000060  -0.019173   0.000913
    24  H    0.000426  -0.000103  -0.000430   0.000056   0.027079   0.000059
              13         14         15         16         17         18
     1  C   -0.018631   0.022915  -0.252621  -0.542523  -0.438487   0.039362
     2  C   -0.042472   0.057051  -0.599723  -0.062020   0.164323  -0.012867
     3  C   -0.057831  -0.030043   0.167618  -0.093277   0.080613  -0.001593
     4  C    0.023844  -0.106523   0.142053   0.155088   0.105744  -0.016877
     5  H    0.000524   0.001761  -0.009456  -0.021495  -0.015101  -0.006606
     6  C    0.016885  -0.040304  -3.341615   1.350942   1.513528  -0.182695
     7  C    0.480605  -0.073030   0.137100  -0.125672   0.052472  -0.002421
     8  H   -0.013458   0.002363  -0.044554   0.023186  -0.002562  -0.003781
     9  C   -0.056812   0.516842  -0.132444   0.028051  -0.013004   0.002613
    10  H    0.001287  -0.016551   0.010764  -0.003076   0.005320  -0.002037
    11  C   -0.006816   0.009667   0.529426  -0.963141  -0.972735   0.019653
    12  O    0.000500   0.000097  -0.068667   0.050141  -0.013592  -0.001700
    13  H    0.483391  -0.016376   0.011288  -0.005665   0.001186   0.000076
    14  H   -0.016376   0.497807  -0.010803   0.002681  -0.001535  -0.000376
    15  C    0.011288  -0.010803  16.689451  -5.358886  -2.849547   0.767489
    16  C   -0.005665   0.002681  -5.358886  10.307532   1.227378  -0.097013
    17  C    0.001186  -0.001535  -2.849547   1.227378   7.591647  -0.232635
    18  H    0.000076  -0.000376   0.767489  -0.097013  -0.232635   0.520866
    19  C   -0.000897   0.000435   0.105974   0.502889  -0.360145   0.038722
    20  H    0.000086  -0.000095   0.062306   0.374019   0.005285  -0.000741
    21  C    0.000539  -0.000441   1.097796  -0.988193   0.054968   0.018679
    22  H   -0.000060   0.000051  -0.191746   0.059930   0.497034  -0.018572
    23  H   -0.000021   0.000013  -0.026227  -0.069049   0.014470   0.000599
    24  H    0.000014  -0.000011   0.039321  -0.033150  -0.098741   0.001291
              19         20         21         22         23         24
     1  C   -0.081694  -0.045791   0.086328  -0.018968  -0.005435   0.009029
     2  C    0.144189  -0.045502  -0.154280   0.010859   0.010881  -0.011363
     3  C   -0.155363   0.026911   0.059390  -0.004575  -0.006015   0.003537
     4  C    0.043861  -0.000877  -0.007723   0.004909   0.000788  -0.001371
     5  H    0.000648  -0.004117   0.000862  -0.001992   0.000223  -0.000374
     6  C   -0.211824   0.040185  -0.515701   0.044356   0.013276  -0.035375
     7  C   -0.038947   0.004336   0.013478  -0.001366  -0.000895   0.000426
     8  H    0.004328  -0.000783  -0.002128   0.000239   0.000105  -0.000103
     9  C    0.011978  -0.001852  -0.014077   0.001794   0.000494  -0.000430
    10  H   -0.001618   0.000257   0.001978   0.000066  -0.000060   0.000056
    11  C   -0.635977   0.062140  -0.198406   0.050719  -0.019173   0.027079
    12  O    0.010864  -0.015233   0.001525   0.000048   0.000913   0.000059
    13  H   -0.000897   0.000086   0.000539  -0.000060  -0.000021   0.000014
    14  H    0.000435  -0.000095  -0.000441   0.000051   0.000013  -0.000011
    15  C    0.105974   0.062306   1.097796  -0.191746  -0.026227   0.039321
    16  C    0.502889   0.374019  -0.988193   0.059930  -0.069049  -0.033150
    17  C   -0.360145   0.005285   0.054968   0.497034   0.014470  -0.098741
    18  H    0.038722  -0.000741   0.018679  -0.018572   0.000599   0.001291
    19  C    6.164650  -0.139592   0.561368   0.002691   0.482072  -0.073465
    20  H   -0.139592   0.463204  -0.005425   0.000406  -0.012663   0.002129
    21  C    0.561368  -0.005425   5.938128  -0.118035  -0.051400   0.522119
    22  H    0.002691   0.000406  -0.118035   0.494175   0.001046  -0.016696
    23  H    0.482072  -0.012663  -0.051400   0.001046   0.480864  -0.015929
    24  H   -0.073465   0.002129   0.522119  -0.016696  -0.015929   0.498980
 Mulliken charges:
               1
     1  C    1.300290
     2  C   -0.842862
     3  C    0.257174
     4  C   -0.318377
     5  H    0.176789
     6  C   -1.274116
     7  C   -0.346897
     8  H    0.234986
     9  C   -0.281992
    10  H    0.201272
    11  C    1.298657
    12  O   -0.192535
    13  H    0.198812
    14  H    0.184405
    15  C   -0.874297
    16  C    0.281323
    17  C   -0.315885
    18  H    0.170565
    19  C   -0.375147
    20  H    0.231407
    21  C   -0.301348
    22  H    0.203688
    23  H    0.201123
    24  H    0.182968
 Sum of Mulliken charges =  -0.00000
 Mulliken charges with hydrogens summed into heavy atoms:
               1
     1  C    1.300290
     2  C   -0.666073
     3  C    0.492160
     4  C   -0.117105
     6  C   -1.274116
     7  C   -0.148085
     9  C   -0.097587
    11  C    1.298657
    12  O   -0.192535
    15  C   -0.703732
    16  C    0.512730
    17  C   -0.112197
    19  C   -0.174024
    21  C   -0.118381
 Electronic spatial extent (au):  <R**2>=           3064.7635
 Charge=             -0.0000 electrons
 Dipole moment (field-independent basis, Debye):
    X=              0.0213    Y=             -3.2560    Z=             -0.0478  Tot=              3.2564
 Quadrupole moment (field-independent basis, Debye-Ang):
   XX=            -63.6835   YY=            -82.8905   ZZ=            -81.1950
   XY=              0.0905   XZ=              2.5526   YZ=             -0.2546
 Traceless Quadrupole moment (field-independent basis, Debye-Ang):
   XX=             12.2395   YY=             -6.9675   ZZ=             -5.2720
   XY=              0.0905   XZ=              2.5526   YZ=             -0.2546
 Octapole moment (field-independent basis, Debye-Ang**2):
  XXX=              0.8741  YYY=            -21.9913  ZZZ=              0.2018  XYY=              0.4424
  XXY=             -6.2884  XXZ=             -0.1870  XZZ=             -0.6639  YZZ=              3.1463
  YYZ=             -0.3582  XYZ=             17.8328
 Hexadecapole moment (field-independent basis, Debye-Ang**3):
 XXXX=          -2852.1230 YYYY=           -736.4044 ZZZZ=           -229.7752 XXXY=              1.4464
 XXXZ=             63.7569 YYYX=              0.2743 YYYZ=             -0.7562 ZZZX=              5.9129
 ZZZY=             -0.6531 XXYY=           -610.8454 XXZZ=           -607.6236 YYZZ=           -141.1347
 XXYZ=             -0.7399 YYXZ=             -8.4114 ZZXY=              0.0933
 N-N= 7.828460162710D+02 E-N=-2.907932904089D+03  KE= 5.764150791251D+02
 No NMR shielding tensors so no spin-rotation constants.
 Leave Link  601 at Tue Nov 22 15:02:55 2022, MaxMem= 16106127360 cpu:               4.8 elap:               0.2
 (Enter /opt/ap/G16/B01/g16/l9999.exe)
 1\1\GINC-N17\SP\RwB97XD\6-311++G(d,p)\C13H10O1\ROOT\22-Nov-2022\0\\#P 
 wB97XD/6-311++G(d,p) scf=maxcycle=512\\_conf025.gjf nmol_natom 1_24\\0
 ,1\C\C,1,1.39746343\C,1,1.39996263,2,119.28066518\C,2,1.39288453,1,120
 .37436646,3,-0.51002981,0\H,2,0.95014703,1,119.82324024,3,179.45634896
 ,0\C,1,1.49653039,2,122.77761373,4,174.46828757,0\C,3,1.3870125,1,120.
 10017821,2,-0.37315804,0\H,3,0.9501092,1,119.95246451,2,179.5923884,0\
 C,7,1.38720039,3,120.16568731,1,1.0745106,0\H,4,0.95011919,2,120.18755
 644,1,-179.31195299,0\C,6,1.49516902,1,120.70972921,2,35.,0\O,6,1.2215
 0059,1,119.67074267,2,-145.,0\H,7,0.94956661,3,119.91274826,1,-178.886
 36029,0\H,9,0.94992259,7,119.76037934,3,179.10763853,0\C,11,1.39713972
 ,6,122.62585705,1,30.97749054,0\C,11,1.40039562,6,117.74753532,1,-153.
 15467779,0\C,15,1.39455701,11,119.80747484,6,175.4763048,0\H,15,0.9496
 2854,11,120.10535689,6,-4.50802339,0\C,16,1.38466431,11,120.4617377,6,
 -176.88197195,0\H,16,0.9497464,11,119.75779177,6,3.14699974,0\C,17,1.3
 9088945,15,120.3475273,11,0.7973643,0\H,17,0.94984298,15,119.8156451,1
 1,-179.16676483,0\H,19,0.94974749,16,119.98566335,11,-178.40987425,0\H
 ,21,0.94938585,17,120.0744529,15,179.91636093,0\\Version=ES64L-G16RevB
 .01\State=1-A\HF=-576.420396\RMSD=4.564e-09\Dipole=-0.0256242,0.640044
 9,1.1095243\Quadrupole=9.2622794,-4.5305821,-4.7316973,-0.8986376,0.80
 61501,-0.5780999\PG=C01 [X(C13H10O1)]\\@


 WE ARE PERHAPS NOT FAR REMOVED FROM THE TIME WHEN WE SHALL BE ABLE TO SUBMIT
 THE BULK OF CHEMICAL PHENOMENA TO CALCULATION.

            -- JOSEPH LOUIS GAY-LUSSAC
               MEMOIRES DE LA SOCIETE D'ARCUEIL, 2, 207 (1808)
 Job cpu time:       0 days  0 hours 21 minutes  0.5 seconds.
 Elapsed time:       0 days  0 hours  0 minutes 39.6 seconds.
 File lengths (MBytes):  RWF=     78 Int=      0 D2E=      0 Chk=      9 Scr=      1
 Normal termination of Gaussian 16 at Tue Nov 22 15:02:55 2022.
