 Entering Gaussian System, Link 0=g16
 Input=_conf013.gjf
 Output=_conf013.log
 Initial command:
 /opt/ap/G16/B01/g16/l1.exe "/tmp2/scr/Gau-12936.inp" -scrdir="/tmp2/scr/"
 Entering Link 1 = /opt/ap/G16/B01/g16/l1.exe PID=     12937.
  
 Copyright (c) 1988-2017, Gaussian, Inc.  All Rights Reserved.
  
 This is part of the Gaussian(R) 16 program.  It is based on
 the Gaussian(R) 09 system (copyright 2009, Gaussian, Inc.),
 the Gaussian(R) 03 system (copyright 2003, Gaussian, Inc.),
 the Gaussian(R) 98 system (copyright 1998, Gaussian, Inc.),
 the Gaussian(R) 94 system (copyright 1995, Gaussian, Inc.),
 the Gaussian 92(TM) system (copyright 1992, Gaussian, Inc.),
 the Gaussian 90(TM) system (copyright 1990, Gaussian, Inc.),
 the Gaussian 88(TM) system (copyright 1988, Gaussian, Inc.),
 the Gaussian 86(TM) system (copyright 1986, Carnegie Mellon
 University), and the Gaussian 82(TM) system (copyright 1983,
 Carnegie Mellon University). Gaussian is a federally registered
 trademark of Gaussian, Inc.
  
 This software contains proprietary and confidential information,
 including trade secrets, belonging to Gaussian, Inc.
  
 This software is provided under written license and may be
 used, copied, transmitted, or stored only in accord with that
 written license.
  
 The following legend is applicable only to US Government
 contracts under FAR:
  
                    RESTRICTED RIGHTS LEGEND
  
 Use, reproduction and disclosure by the US Government is
 subject to restrictions as set forth in subparagraphs (a)
 and (c) of the Commercial Computer Software - Restricted
 Rights clause in FAR 52.227-19.
  
 Gaussian, Inc.
 340 Quinnipiac St., Bldg. 40, Wallingford CT 06492
  
  
 ---------------------------------------------------------------
 Warning -- This program may not be used in any manner that
 competes with the business of Gaussian, Inc. or will provide
 assistance to any competitor of Gaussian, Inc.  The licensee
 of this program is prohibited from giving any competitor of
 Gaussian, Inc. access to this program.  By using this program,
 the user acknowledges that Gaussian, Inc. is engaged in the
 business of creating and licensing software in the field of
 computational chemistry and represents and warrants to the
 licensee that it is not a competitor of Gaussian, Inc. and that
 it will not use this program in any manner prohibited above.
 ---------------------------------------------------------------
  

 Cite this work as:
 Gaussian 16, Revision B.01,
 M. J. Frisch, G. W. Trucks, H. B. Schlegel, G. E. Scuseria, 
 M. A. Robb, J. R. Cheeseman, G. Scalmani, V. Barone, 
 G. A. Petersson, H. Nakatsuji, X. Li, M. Caricato, A. V. Marenich, 
 J. Bloino, B. G. Janesko, R. Gomperts, B. Mennucci, H. P. Hratchian, 
 J. V. Ortiz, A. F. Izmaylov, J. L. Sonnenberg, D. Williams-Young, 
 F. Ding, F. Lipparini, F. Egidi, J. Goings, B. Peng, A. Petrone, 
 T. Henderson, D. Ranasinghe, V. G. Zakrzewski, J. Gao, N. Rega, 
 G. Zheng, W. Liang, M. Hada, M. Ehara, K. Toyota, R. Fukuda, 
 J. Hasegawa, M. Ishida, T. Nakajima, Y. Honda, O. Kitao, H. Nakai, 
 T. Vreven, K. Throssell, J. A. Montgomery, Jr., J. E. Peralta, 
 F. Ogliaro, M. J. Bearpark, J. J. Heyd, E. N. Brothers, K. N. Kudin, 
 V. N. Staroverov, T. A. Keith, R. Kobayashi, J. Normand, 
 K. Raghavachari, A. P. Rendell, J. C. Burant, S. S. Iyengar, 
 J. Tomasi, M. Cossi, J. M. Millam, M. Klene, C. Adamo, R. Cammi, 
 J. W. Ochterski, R. L. Martin, K. Morokuma, O. Farkas, 
 J. B. Foresman, and D. J. Fox, Gaussian, Inc., Wallingford CT, 2016.
 
 ******************************************
 Gaussian 16:  ES64L-G16RevB.01 20-Dec-2017
                22-Nov-2022 
 ******************************************
 %nprocshared=32
 Will use up to   32 processors via shared memory.
 %mem=120GB
 %chk=_conf013.chk
 ----------------------------------------
 #P wB97XD/6-311++G(d,p) scf=maxcycle=512
 ----------------------------------------
 1/38=1,172=1/1;
 2/12=2,17=6,18=5,40=1/2;
 3/5=4,6=6,7=1111,11=2,25=1,30=1,74=-58/1,2,3;
 4//1;
 5/5=2,7=512,38=5/2;
 6/7=2,8=2,9=2,10=2,28=1/1;
 99/5=1,9=1/99;
 Leave Link    1 at Tue Nov 22 15:00:14 2022, MaxMem= 16106127360 cpu:               2.1 elap:               0.1
 (Enter /opt/ap/G16/B01/g16/l101.exe)
 ----------------------------
 _conf013.gjf nmol_natom 1_24
 ----------------------------
 Symbolic Z-matrix:
 Charge =  0 Multiplicity = 1
 C
 C                    1     1.39746 
 C                    1     1.39996  2     119.28067 
 C                    2     1.39288  1     120.37437  3    -0.51003  0
 H                    2     0.95015  1     119.82324  3     179.45635  0
 C                    1     1.49653  2     122.77761  4     174.46829  0
 C                    3     1.38701  1     120.10018  2    -0.37316  0
 H                    3     0.95011  1     119.95246  2     179.59239  0
 C                    7     1.3872   3     120.16569  1     1.07451  0
 H                    4     0.95012  2     120.18756  1    -179.31195  0
 C                    6     1.49517  1     120.70973  2    -25.      0
 O                    6     1.2215   1     119.67074  2     155.     0
 H                    7     0.94957  3     119.91275  1    -178.88636  0
 H                    9     0.94992  7     119.76038  3     179.10764  0
 C                    11    1.39714  6     122.62586  1     30.97749  0
 C                    11    1.4004   6     117.74754  1    -153.15468  0
 C                    15    1.39456  11    119.80747  6     175.4763  0
 H                    15    0.94963  11    120.10536  6    -4.50802  0
 C                    16    1.38466  11    120.46174  6    -176.88197  0
 H                    16    0.94975  11    119.75779  6     3.147    0
 C                    17    1.39089  15    120.34753  11    0.79736  0
 H                    17    0.94984  15    119.81565  11   -179.16676  0
 H                    19    0.94975  16    119.98566  11   -178.40987  0
 H                    21    0.94939  17    120.07445  15    179.91636  0
 
 ITRead=  0  0  0  0  0  0  0  0  0  0  0  0  0  0  0  0  0  0  0  0
 ITRead=  0  0  0  0
 MicOpt= -1 -1 -1 -1 -1 -1 -1 -1 -1 -1 -1 -1 -1 -1 -1 -1 -1 -1 -1 -1
 MicOpt= -1 -1 -1 -1
 NAtoms=     24 NQM=       24 NQMF=       0 NMMI=      0 NMMIF=      0
                NMic=       0 NMicF=      0.
                    Isotopes and Nuclear Properties:
 (Nuclear quadrupole moments (NQMom) in fm**2, nuclear magnetic moments (NMagM)
  in nuclear magnetons)

  Atom         1           2           3           4           5           6           7           8           9          10
 IAtWgt=          12          12          12          12           1          12          12           1          12           1
 AtmWgt=  12.0000000  12.0000000  12.0000000  12.0000000   1.0078250  12.0000000  12.0000000   1.0078250  12.0000000   1.0078250
 NucSpn=           0           0           0           0           1           0           0           1           0           1
 AtZEff=  -0.0000000  -0.0000000  -0.0000000  -0.0000000  -0.0000000  -0.0000000  -0.0000000  -0.0000000  -0.0000000  -0.0000000
 NQMom=    0.0000000   0.0000000   0.0000000   0.0000000   0.0000000   0.0000000   0.0000000   0.0000000   0.0000000   0.0000000
 NMagM=    0.0000000   0.0000000   0.0000000   0.0000000   2.7928460   0.0000000   0.0000000   2.7928460   0.0000000   2.7928460
 AtZNuc=   6.0000000   6.0000000   6.0000000   6.0000000   1.0000000   6.0000000   6.0000000   1.0000000   6.0000000   1.0000000

  Atom        11          12          13          14          15          16          17          18          19          20
 IAtWgt=          12          16           1           1          12          12          12           1          12           1
 AtmWgt=  12.0000000  15.9949146   1.0078250   1.0078250  12.0000000  12.0000000  12.0000000   1.0078250  12.0000000   1.0078250
 NucSpn=           0           0           1           1           0           0           0           1           0           1
 AtZEff=  -0.0000000  -0.0000000  -0.0000000  -0.0000000  -0.0000000  -0.0000000  -0.0000000  -0.0000000  -0.0000000  -0.0000000
 NQMom=    0.0000000   0.0000000   0.0000000   0.0000000   0.0000000   0.0000000   0.0000000   0.0000000   0.0000000   0.0000000
 NMagM=    0.0000000   0.0000000   2.7928460   2.7928460   0.0000000   0.0000000   0.0000000   2.7928460   0.0000000   2.7928460
 AtZNuc=   6.0000000   8.0000000   1.0000000   1.0000000   6.0000000   6.0000000   6.0000000   1.0000000   6.0000000   1.0000000

  Atom        21          22          23          24
 IAtWgt=          12           1           1           1
 AtmWgt=  12.0000000   1.0078250   1.0078250   1.0078250
 NucSpn=           0           1           1           1
 AtZEff=  -0.0000000  -0.0000000  -0.0000000  -0.0000000
 NQMom=    0.0000000   0.0000000   0.0000000   0.0000000
 NMagM=    0.0000000   2.7928460   2.7928460   2.7928460
 AtZNuc=   6.0000000   1.0000000   1.0000000   1.0000000
 Leave Link  101 at Tue Nov 22 15:00:14 2022, MaxMem= 16106127360 cpu:               7.4 elap:               0.2
 (Enter /opt/ap/G16/B01/g16/l202.exe)
                          Input orientation:                          
 ---------------------------------------------------------------------
 Center     Atomic      Atomic             Coordinates (Angstroms)
 Number     Number       Type             X           Y           Z
 ---------------------------------------------------------------------
      1          6           0        0.000000    0.000000    0.000000
      2          6           0        0.000000    0.000000    1.397463
      3          6           0        1.221096    0.000000   -0.684705
      4          6           0        1.201650   -0.010697    2.101772
      5          1           0       -0.824276    0.007821    1.869996
      6          6           0       -1.253421   -0.110138   -0.810191
      7          6           0        2.414707    0.007815    0.021719
      8          1           0        1.232246   -0.005856   -1.634731
      9          6           0        2.403895   -0.006831    1.408800
     10          1           0        1.198494   -0.020531    3.051836
     11          6           0       -2.473708   -0.762732   -0.244019
     12          8           0       -1.280361    0.337766   -1.946290
     13          1           0        3.241298    0.023792   -0.445367
     14          1           0        3.224827   -0.014217    1.886678
     15          6           0       -2.780863   -0.732043    1.118594
     16          6           0       -3.375023   -1.349359   -1.141017
     17          6           0       -3.981644   -1.278160    1.570999
     18          1           0       -2.173920   -0.340275    1.734981
     19          6           0       -4.554499   -1.912315   -0.683619
     20          1           0       -3.175542   -1.361435   -2.069499
     21          6           0       -4.867183   -1.867786    0.675044
     22          1           0       -4.195975   -1.246767    2.495812
     23          1           0       -5.150300   -2.328375   -1.295122
     24          1           0       -5.683041   -2.239440    0.987426
 ---------------------------------------------------------------------
                    Distance matrix (angstroms):
                    1          2          3          4          5
     1  C    0.000000
     2  C    1.397463   0.000000
     3  C    1.399963   2.413814   0.000000
     4  C    2.421058   1.392885   2.786566   0.000000
     5  H    2.043619   0.950147   3.272630   2.039225   0.000000
     6  C    1.496530   2.541049   2.480142   3.810091   2.716889
     7  C    2.414817   2.779127   1.387013   2.408002   3.729228
     8  H    2.047146   3.273021   0.950109   3.736632   4.063567
     9  C    2.786301   2.403931   2.404542   1.387667   3.260982
    10  H    3.278797   2.042977   3.736665   0.950119   2.342893
    11  C    2.600103   3.065200   3.798359   4.424539   2.789881
    12  O    2.354029   3.596400   2.821873   4.761157   3.857579
    13  H    3.271839   3.728619   2.034469   3.263323   4.678681
    14  H    3.736210   3.261755   3.259932   2.034583   4.049198
    15  C    3.085505   2.889092   4.450107   4.165020   2.222665
    16  C    3.809655   4.433445   4.811787   5.766596   4.173062
    17  C    4.467127   4.185367   5.812951   5.362342   3.422297
    18  H    2.802120   2.226126   4.182918   3.411397   1.400336
    19  C    4.986757   5.360160   6.083950   6.671417   4.911460
    20  H    4.027455   4.894630   4.806410   6.195466   4.787790
    21  C    5.256784   5.263077   6.511887   6.505003   4.614207
    22  H    5.038821   4.512982   6.404278   5.551350   3.651574
    23  H    5.798643   6.260746   6.810919   7.566887   5.847245
    24  H    6.187654   6.122106   7.448370   7.321750   5.425561
                    6          7          8          9         10
     6  C    0.000000
     7  C    3.763130   0.000000
     8  H    2.620930   2.035246   0.000000
     9  C    4.279082   1.387200   3.261263   0.000000
    10  H    4.575496   3.265208   4.686711   2.037829   0.000000
    11  C    1.495169   4.955901   4.030016   5.205209   4.989848
    12  O    1.221501   4.199459   2.555061   4.994909   5.590560
    13  H    4.511488   0.949567   2.334899   2.034727   4.050363
    14  H    5.228480   2.033434   4.046081   0.949923   2.337447
    15  C    2.537727   5.361387   4.920690   5.243269   4.480955
    16  C    2.479176   6.059278   4.824487   6.457541   6.345302
    17  C    3.804937   6.705767   6.251408   6.512886   5.532480
    18  H    2.716281   4.910391   4.802995   4.601518   3.634491
    19  C    3.763108   7.263211   6.166491   7.511879   7.115434
    20  H    2.616515   6.123636   4.631976   6.712944   6.867189
    21  C    4.284219   7.547889   6.782689   7.541228   6.771552
    22  H    4.569487   7.169116   6.933024   6.802743   5.559956
    23  H    4.510144   8.026280   6.800464   8.352641   8.033017
    24  H    5.233249   8.459094   7.725658   8.400037   7.519366
                   11         12         13         14         15
    11  C    0.000000
    12  O    2.352211   0.000000
    13  H    5.772387   4.774594   0.000000
    14  H    6.129718   5.925560   2.332413   0.000000
    15  C    1.397140   3.576242   6.267670   6.097011   0.000000
    16  C    1.400396   2.807573   6.793024   7.382924   2.416598
    17  C    2.415332   4.720113   7.611288   7.323280   1.394557
    18  H    2.045674   3.848369   5.849021   5.410712   0.949629
    19  C    2.417537   4.168594   8.036151   8.409942   2.790484
    20  H    2.045335   2.548367   6.762580   7.644021   3.273506
    21  C    2.791872   4.959954   8.401241   8.389541   2.416481
    22  H    3.272181   5.544711   8.098017   7.547088   2.040640
    23  H    3.274172   4.744339   8.756351   9.253212   3.740125
    24  H    3.741249   5.884919   9.317668   9.225529   3.272933
                   16         17         18         19         20
    16  C    0.000000
    17  C    2.779944   0.000000
    18  H    3.276013   2.043131   0.000000
    19  C    1.384664   2.411145   3.740066   0.000000
    20  H    0.949746   3.729607   4.064490   2.031171   0.000000
    21  C    2.406945   1.390889   3.272678   1.394891   3.263520
    22  H    3.729747   0.949843   2.342925   3.268069   4.679370
    23  H    2.033181   3.268541   4.689659   0.949747   2.331159
    24  H    3.263351   2.039453   4.059507   2.042795   4.050092
                   21         22         23         24
    21  C    0.000000
    22  H    2.037493   0.000000
    23  H    2.043001   4.056081   0.000000
    24  H    0.949386   2.339229   2.345581   0.000000
 Stoichiometry    C13H10O
 Framework group  C1[X(C13H10O)]
 Deg. of freedom    66
 Full point group                 C1      NOp   1
 Largest Abelian subgroup         C1      NOp   1
 Largest concise Abelian subgroup C1      NOp   1
                         Standard orientation:                         
 ---------------------------------------------------------------------
 Center     Atomic      Atomic             Coordinates (Angstroms)
 Number     Number       Type             X           Y           Z
 ---------------------------------------------------------------------
      1          6           0        1.312360    0.348709    0.182018
      2          6           0        1.446614   -1.035882    0.315382
      3          6           0        2.421110    1.109824   -0.206924
      4          6           0        2.667361   -1.653560    0.053888
      5          1           0        0.701171   -1.558981    0.586420
      6          6           0        0.000699    1.053618    0.331184
      7          6           0        3.639069    0.491678   -0.448323
      8          1           0        2.339066    2.051168   -0.306162
      9          6           0        3.758174   -0.885077   -0.327137
     10          1           0        2.753079   -2.596239    0.135956
     11          6           0       -1.285790    0.333481    0.082427
     12          8           0       -0.019650    2.229946    0.659671
     13          1           0        4.393356    1.012327   -0.696620
     14          1           0        4.591818   -1.303810   -0.506170
     15          6           0       -1.442467   -1.033789    0.323310
     16          6           0       -2.389143    1.092379   -0.327199
     17          6           0       -2.693854   -1.627401    0.160692
     18          1           0       -0.699123   -1.557449    0.597196
     19          6           0       -3.623870    0.493290   -0.511143
     20          1           0       -2.289560    2.024406   -0.480257
     21          6           0       -3.782700   -0.868820   -0.255893
     22          1           0       -2.803126   -2.554533    0.335871
     23          1           0       -4.362249    1.010017   -0.810825
     24          1           0       -4.632615   -1.277167   -0.366480
 ---------------------------------------------------------------------
 Rotational constants (GHZ):           1.7136222           0.4239752           0.3510076
 Leave Link  202 at Tue Nov 22 15:00:14 2022, MaxMem= 16106127360 cpu:               0.3 elap:               0.0
 (Enter /opt/ap/G16/B01/g16/l301.exe)
 Standard basis: 6-311++G(d,p) (5D, 7F)
 Ernie: Thresh=  0.10000D-02 Tol=  0.10000D-05 Strict=F.
 There are   392 symmetry adapted cartesian basis functions of A   symmetry.
 There are   378 symmetry adapted basis functions of A   symmetry.
   378 basis functions,   594 primitive gaussians,   392 cartesian basis functions
    48 alpha electrons       48 beta electrons
       nuclear repulsion energy       785.3442702976 Hartrees.
 IExCor= 4639 DFT=T Ex+Corr=wB97XD ExCW=0 ScaHFX=  1.000000
 ScaDFX=  1.000000  1.000000  1.000000  1.000000 ScalE2=  1.000000  1.000000
 IRadAn=      5 IRanWt=     -1 IRanGd=            0 ICorTp=0 IEmpDi=121
 HFx  wShort=  0.000000 wLong=  0.200000 cFull=  0.222036 cShort=  0.000000 cLong=  0.777964
 DFx  wShort=  0.000000 wLong=  0.200000 cFull=  0.000000 cShort=  0.000000 cLong=  1.000000
 NAtoms=   24 NActive=   24 NUniq=   24 SFac= 1.00D+00 NAtFMM=   60 NAOKFM=F Big=F
 Integral buffers will be    131072 words long.
 Raffenetti 2 integral format.
 Two-electron integral symmetry is turned on.
 R6Disp:  Grimme-D2 Dispersion energy=       -0.0138105693 Hartrees.
 Nuclear repulsion after empirical dispersion term =      785.3304597283 Hartrees.
 Leave Link  301 at Tue Nov 22 15:00:14 2022, MaxMem= 16106127360 cpu:               1.3 elap:               0.0
 (Enter /opt/ap/G16/B01/g16/l302.exe)
 NPDir=0 NMtPBC=     1 NCelOv=     1 NCel=       1 NClECP=     1 NCelD=      1
         NCelK=      1 NCelE2=     1 NClLst=     1 CellRange=     0.0.
 One-electron integrals computed using PRISM.
 One-electron integral symmetry used in STVInt
 NBasis=   378 RedAO= T EigKep=  2.19D-06  NBF=   378
 NBsUse=   375 1.00D-06 EigRej=  8.47D-07 NBFU=   375
 Precomputing XC quadrature grid using
 IXCGrd= 4 IRadAn=           5 IRanWt=          -1 IRanGd=           0 AccXCQ= 0.00D+00.
 Generated NRdTot=       0 NPtTot=           0 NUsed=           0 NTot=          32
 NSgBfM=   392   392   392   392   392 MxSgAt=    24 MxSgA2=    24.
 Leave Link  302 at Tue Nov 22 15:00:14 2022, MaxMem= 16106127360 cpu:               8.5 elap:               0.3
 (Enter /opt/ap/G16/B01/g16/l303.exe)
 DipDrv:  MaxL=1.
 Leave Link  303 at Tue Nov 22 15:00:14 2022, MaxMem= 16106127360 cpu:               1.6 elap:               0.1
 (Enter /opt/ap/G16/B01/g16/l401.exe)
 ExpMin= 3.60D-02 ExpMax= 8.59D+03 ExpMxC= 1.30D+03 IAcc=3 IRadAn=         5 AccDes= 0.00D+00
 Harris functional with IExCor= 4639 and IRadAn=       5 diagonalized for initial guess.
 HarFok:  IExCor= 4639 AccDes= 0.00D+00 IRadAn=         5 IDoV= 1 UseB2=F ITyADJ=14
 ICtDFT=  3500011 ScaDFX=  1.000000  1.000000  1.000000  1.000000
 FoFCou: FMM=F IPFlag=           0 FMFlag=      100000 FMFlg1=           0
         NFxFlg=           0 DoJE=T BraDBF=F KetDBF=T FulRan=T
         wScrn=  0.000000 ICntrl=       500 IOpCl=  0 I1Cent=   200000004 NGrid=           0
         NMat0=    1 NMatS0=      1 NMatT0=    0 NMatD0=    1 NMtDS0=    0 NMtDT0=    0
 Petite list used in FoFCou.
 Harris En= -550.885018823738    
 JPrj=0 DoOrth=F DoCkMO=F.
 Leave Link  401 at Tue Nov 22 15:00:15 2022, MaxMem= 16106127360 cpu:              22.7 elap:               0.7
 (Enter /opt/ap/G16/B01/g16/l502.exe)
 Integral symmetry usage will be decided dynamically.
 Closed shell SCF:
 Using DIIS extrapolation, IDIIS=  1040.
 NGot= 16106127360 LenX= 16105803762 LenY= 16105649657
 Requested convergence on RMS density matrix=1.00D-08 within 512 cycles.
 Requested convergence on MAX density matrix=1.00D-06.
 Requested convergence on             energy=1.00D-06.
 No special actions if energy rises.
 Fock matrices will be formed incrementally for  20 cycles.

 Cycle   1  Pass 1  IDiag  1:
 FoFJK:  IHMeth= 1 ICntrl=       0 DoSepK=T KAlg= 0 I1Cent=           0 FoldK=F
 IRaf=         1 NMat=       1 IRICut=       1 DoRegI=T DoRafI=F ISym2E= 0 IDoP0=0 IntGTp=1.
 FoFCou: FMM=F IPFlag=           0 FMFlag=      100000 FMFlg1=           0
         NFxFlg=           0 DoJE=T BraDBF=F KetDBF=F FulRan=T
         wScrn=  0.000000 ICntrl=       500 IOpCl=  0 I1Cent=           0 NGrid=           0
         NMat0=    1 NMatS0=      1 NMatT0=    0 NMatD0=    1 NMtDS0=    0 NMtDT0=    0
 Symmetry not used in FoFCou.
 E= -576.248307605898    
 DIIS: error= 5.71D-02 at cycle   1 NSaved=   1.
 NSaved= 1 IEnMin= 1 EnMin= -576.248307605898     IErMin= 1 ErrMin= 5.71D-02
 ErrMax= 5.71D-02  0.00D+00 EMaxC= 1.00D-01 BMatC= 1.19D+00 BMatP= 1.19D+00
 IDIUse=3 WtCom= 4.29D-01 WtEn= 5.71D-01
 Coeff-Com:  0.100D+01
 Coeff-En:   0.100D+01
 Coeff:      0.100D+01
 Gap=     0.402 Goal=   None    Shift=    0.000
 GapD=    0.402 DampG=2.000 DampE=0.500 DampFc=1.0000 IDamp=-1.
 RMSDP=4.12D-02 MaxDP=6.95D+00              OVMax= 1.30D-01

 Cycle   2  Pass 1  IDiag  1:
 RMSU=  1.35D-02    CP:  5.98D-01
 E= -576.337492159686     Delta-E=       -0.089184553788 Rises=F Damp=F
 DIIS: error= 1.66D-02 at cycle   2 NSaved=   2.
 NSaved= 2 IEnMin= 2 EnMin= -576.337492159686     IErMin= 2 ErrMin= 1.66D-02
 ErrMax= 1.66D-02  0.00D+00 EMaxC= 1.00D-01 BMatC= 7.49D-02 BMatP= 1.19D+00
 IDIUse=3 WtCom= 8.34D-01 WtEn= 1.66D-01
 Coeff-Com:  0.126D+00 0.874D+00
 Coeff-En:   0.143D+00 0.857D+00
 Coeff:      0.128D+00 0.872D+00
 Gap=     0.417 Goal=   None    Shift=    0.000
 RMSDP=1.05D-02 MaxDP=6.81D-01 DE=-8.92D-02 OVMax= 1.62D-01

 Cycle   3  Pass 1  IDiag  1:
 RMSU=  7.51D-03    CP:  6.06D-01  4.63D-01
 E= -576.353836879992     Delta-E=       -0.016344720307 Rises=F Damp=F
 DIIS: error= 1.72D-02 at cycle   3 NSaved=   3.
 NSaved= 3 IEnMin= 3 EnMin= -576.353836879992     IErMin= 2 ErrMin= 1.66D-02
 ErrMax= 1.72D-02  0.00D+00 EMaxC= 1.00D-01 BMatC= 5.51D-02 BMatP= 7.49D-02
 IDIUse=3 WtCom= 8.28D-01 WtEn= 1.72D-01
 Coeff-Com:  0.239D-01 0.465D+00 0.511D+00
 Coeff-En:   0.000D+00 0.432D+00 0.568D+00
 Coeff:      0.198D-01 0.459D+00 0.521D+00
 Gap=     0.345 Goal=   None    Shift=    0.000
 RMSDP=7.21D-03 MaxDP=5.94D-01 DE=-1.63D-02 OVMax= 6.32D-02

 Cycle   4  Pass 1  IDiag  1:
 RMSU=  2.14D-03    CP:  5.60D-01  7.42D-01  5.04D-01
 E= -576.402366219039     Delta-E=       -0.048529339047 Rises=F Damp=F
 DIIS: error= 2.12D-03 at cycle   4 NSaved=   4.
 NSaved= 4 IEnMin= 4 EnMin= -576.402366219039     IErMin= 4 ErrMin= 2.12D-03
 ErrMax= 2.12D-03  0.00D+00 EMaxC= 1.00D-01 BMatC= 9.57D-04 BMatP= 5.51D-02
 IDIUse=3 WtCom= 9.79D-01 WtEn= 2.12D-02
 Coeff-Com:  0.958D-02 0.199D+00 0.245D+00 0.546D+00
 Coeff-En:   0.000D+00 0.000D+00 0.000D+00 0.100D+01
 Coeff:      0.937D-02 0.195D+00 0.240D+00 0.556D+00
 Gap=     0.319 Goal=   None    Shift=    0.000
 RMSDP=5.50D-04 MaxDP=3.50D-02 DE=-4.85D-02 OVMax= 6.62D-03

 Cycle   5  Pass 1  IDiag  1:
 RMSU=  4.01D-04    CP:  5.59D-01  7.67D-01  5.02D-01  9.77D-01
 E= -576.403027757370     Delta-E=       -0.000661538331 Rises=F Damp=F
 DIIS: error= 5.14D-04 at cycle   5 NSaved=   5.
 NSaved= 5 IEnMin= 5 EnMin= -576.403027757370     IErMin= 5 ErrMin= 5.14D-04
 ErrMax= 5.14D-04  0.00D+00 EMaxC= 1.00D-01 BMatC= 8.25D-05 BMatP= 9.57D-04
 IDIUse=3 WtCom= 9.95D-01 WtEn= 5.14D-03
 Coeff-Com: -0.598D-03-0.853D-02 0.193D-03 0.215D+00 0.794D+00
 Coeff-En:   0.000D+00 0.000D+00 0.000D+00 0.000D+00 0.100D+01
 Coeff:     -0.595D-03-0.849D-02 0.192D-03 0.214D+00 0.795D+00
 Gap=     0.320 Goal=   None    Shift=    0.000
 RMSDP=5.58D-04 MaxDP=8.57D-02 DE=-6.62D-04 OVMax= 2.40D-03

 Cycle   6  Pass 1  IDiag  1:
 RMSU=  2.40D-04    CP:  5.55D-01  7.64D-01  5.24D-01  1.01D+00  5.66D-01
 E= -576.403091447655     Delta-E=       -0.000063690285 Rises=F Damp=F
 DIIS: error= 2.60D-04 at cycle   6 NSaved=   6.
 NSaved= 6 IEnMin= 6 EnMin= -576.403091447655     IErMin= 6 ErrMin= 2.60D-04
 ErrMax= 2.60D-04  0.00D+00 EMaxC= 1.00D-01 BMatC= 1.87D-05 BMatP= 8.25D-05
 IDIUse=3 WtCom= 9.97D-01 WtEn= 2.60D-03
 Coeff-Com: -0.123D-02-0.231D-01-0.223D-01 0.630D-01 0.431D+00 0.552D+00
 Coeff-En:   0.000D+00 0.000D+00 0.000D+00 0.000D+00 0.000D+00 0.100D+01
 Coeff:     -0.123D-02-0.231D-01-0.223D-01 0.629D-01 0.430D+00 0.554D+00
 Gap=     0.320 Goal=   None    Shift=    0.000
 RMSDP=1.34D-04 MaxDP=1.62D-02 DE=-6.37D-05 OVMax= 1.27D-03

 Cycle   7  Pass 1  IDiag  1:
 RMSU=  7.50D-05    CP:  5.55D-01  7.69D-01  5.20D-01  1.04D+00  6.27D-01
                    CP:  9.02D-01
 E= -576.403110747530     Delta-E=       -0.000019299875 Rises=F Damp=F
 DIIS: error= 6.83D-05 at cycle   7 NSaved=   7.
 NSaved= 7 IEnMin= 7 EnMin= -576.403110747530     IErMin= 7 ErrMin= 6.83D-05
 ErrMax= 6.83D-05  0.00D+00 EMaxC= 1.00D-01 BMatC= 4.65D-07 BMatP= 1.87D-05
 IDIUse=1 WtCom= 1.00D+00 WtEn= 0.00D+00
 Coeff-Com: -0.220D-03-0.423D-02-0.505D-02-0.108D-01-0.109D-01 0.103D+00
 Coeff-Com:  0.928D+00
 Coeff:     -0.220D-03-0.423D-02-0.505D-02-0.108D-01-0.109D-01 0.103D+00
 Coeff:      0.928D+00
 Gap=     0.320 Goal=   None    Shift=    0.000
 RMSDP=5.05D-05 MaxDP=6.65D-03 DE=-1.93D-05 OVMax= 5.31D-04

 Cycle   8  Pass 1  IDiag  1:
 RMSU=  1.48D-05    CP:  5.55D-01  7.69D-01  5.21D-01  1.05D+00  5.95D-01
                    CP:  1.02D+00  1.06D+00
 E= -576.403111895407     Delta-E=       -0.000001147878 Rises=F Damp=F
 DIIS: error= 1.57D-05 at cycle   8 NSaved=   8.
 NSaved= 8 IEnMin= 8 EnMin= -576.403111895407     IErMin= 8 ErrMin= 1.57D-05
 ErrMax= 1.57D-05  0.00D+00 EMaxC= 1.00D-01 BMatC= 7.93D-08 BMatP= 4.65D-07
 IDIUse=1 WtCom= 1.00D+00 WtEn= 0.00D+00
 Coeff-Com:  0.436D-04 0.603D-03 0.955D-04-0.119D-01-0.542D-01-0.216D-01
 Coeff-Com:  0.322D+00 0.765D+00
 Coeff:      0.436D-04 0.603D-03 0.955D-04-0.119D-01-0.542D-01-0.216D-01
 Coeff:      0.322D+00 0.765D+00
 Gap=     0.320 Goal=   None    Shift=    0.000
 RMSDP=1.29D-05 MaxDP=1.63D-03 DE=-1.15D-06 OVMax= 1.76D-04

 Cycle   9  Pass 1  IDiag  1:
 RMSU=  4.30D-06    CP:  5.54D-01  7.69D-01  5.22D-01  1.05D+00  5.88D-01
                    CP:  1.04D+00  1.07D+00  1.16D+00
 E= -576.403112041565     Delta-E=       -0.000000146158 Rises=F Damp=F
 DIIS: error= 5.73D-06 at cycle   9 NSaved=   9.
 NSaved= 9 IEnMin= 9 EnMin= -576.403112041565     IErMin= 9 ErrMin= 5.73D-06
 ErrMax= 5.73D-06  0.00D+00 EMaxC= 1.00D-01 BMatC= 5.38D-09 BMatP= 7.93D-08
 IDIUse=1 WtCom= 1.00D+00 WtEn= 0.00D+00
 Coeff-Com:  0.374D-04 0.657D-03 0.634D-03-0.871D-03-0.931D-02-0.158D-01
 Coeff-Com: -0.537D-01 0.153D+00 0.926D+00
 Coeff:      0.374D-04 0.657D-03 0.634D-03-0.871D-03-0.931D-02-0.158D-01
 Coeff:     -0.537D-01 0.153D+00 0.926D+00
 Gap=     0.320 Goal=   None    Shift=    0.000
 RMSDP=4.27D-06 MaxDP=2.86D-04 DE=-1.46D-07 OVMax= 7.42D-05

 Cycle  10  Pass 1  IDiag  1:
 RMSU=  2.02D-06    CP:  5.54D-01  7.69D-01  5.22D-01  1.05D+00  5.84D-01
                    CP:  1.05D+00  1.08D+00  1.31D+00  1.30D+00
 E= -576.403112055854     Delta-E=       -0.000000014290 Rises=F Damp=F
 DIIS: error= 1.29D-06 at cycle  10 NSaved=  10.
 NSaved=10 IEnMin=10 EnMin= -576.403112055854     IErMin=10 ErrMin= 1.29D-06
 ErrMax= 1.29D-06  0.00D+00 EMaxC= 1.00D-01 BMatC= 3.86D-10 BMatP= 5.38D-09
 IDIUse=1 WtCom= 1.00D+00 WtEn= 0.00D+00
 Coeff-Com: -0.174D-05 0.782D-06 0.288D-04 0.111D-02 0.383D-02 0.144D-02
 Coeff-Com: -0.255D-01-0.554D-01 0.696D-01 0.100D+01
 Coeff:     -0.174D-05 0.782D-06 0.288D-04 0.111D-02 0.383D-02 0.144D-02
 Coeff:     -0.255D-01-0.554D-01 0.696D-01 0.100D+01
 Gap=     0.320 Goal=   None    Shift=    0.000
 RMSDP=1.44D-06 MaxDP=1.52D-04 DE=-1.43D-08 OVMax= 1.72D-05

 Cycle  11  Pass 1  IDiag  1:
 RMSU=  7.94D-07    CP:  5.54D-01  7.69D-01  5.22D-01  1.05D+00  5.84D-01
                    CP:  1.05D+00  1.08D+00  1.34D+00  1.35D+00  1.21D+00
 E= -576.403112056985     Delta-E=       -0.000000001131 Rises=F Damp=F
 DIIS: error= 3.61D-07 at cycle  11 NSaved=  11.
 NSaved=11 IEnMin=11 EnMin= -576.403112056985     IErMin=11 ErrMin= 3.61D-07
 ErrMax= 3.61D-07  0.00D+00 EMaxC= 1.00D-01 BMatC= 7.03D-11 BMatP= 3.86D-10
 IDIUse=1 WtCom= 1.00D+00 WtEn= 0.00D+00
 Coeff-Com: -0.266D-05-0.373D-04-0.293D-04 0.455D-03 0.174D-02 0.134D-02
 Coeff-Com: -0.506D-02-0.296D-01-0.424D-01 0.313D+00 0.761D+00
 Coeff:     -0.266D-05-0.373D-04-0.293D-04 0.455D-03 0.174D-02 0.134D-02
 Coeff:     -0.506D-02-0.296D-01-0.424D-01 0.313D+00 0.761D+00
 Gap=     0.320 Goal=   None    Shift=    0.000
 RMSDP=3.72D-07 MaxDP=2.20D-05 DE=-1.13D-09 OVMax= 4.79D-06

 Cycle  12  Pass 1  IDiag  1:
 RMSU=  1.58D-07    CP:  5.54D-01  7.69D-01  5.22D-01  1.05D+00  5.84D-01
                    CP:  1.05D+00  1.08D+00  1.34D+00  1.37D+00  1.28D+00
                    CP:  1.13D+00
 E= -576.403112057145     Delta-E=       -0.000000000161 Rises=F Damp=F
 DIIS: error= 2.28D-07 at cycle  12 NSaved=  12.
 NSaved=12 IEnMin=12 EnMin= -576.403112057145     IErMin=12 ErrMin= 2.28D-07
 ErrMax= 2.28D-07  0.00D+00 EMaxC= 1.00D-01 BMatC= 7.28D-12 BMatP= 7.03D-11
 IDIUse=1 WtCom= 1.00D+00 WtEn= 0.00D+00
 Coeff-Com:  0.440D-07-0.479D-05-0.991D-05-0.123D-03-0.509D-03-0.135D-03
 Coeff-Com:  0.416D-02 0.684D-02-0.155D-01-0.136D+00 0.703D-01 0.107D+01
 Coeff:      0.440D-07-0.479D-05-0.991D-05-0.123D-03-0.509D-03-0.135D-03
 Coeff:      0.416D-02 0.684D-02-0.155D-01-0.136D+00 0.703D-01 0.107D+01
 Gap=     0.320 Goal=   None    Shift=    0.000
 RMSDP=2.22D-07 MaxDP=1.91D-05 DE=-1.61D-10 OVMax= 3.27D-06

 Cycle  13  Pass 1  IDiag  1:
 RMSU=  7.43D-08    CP:  5.54D-01  7.69D-01  5.22D-01  1.05D+00  5.84D-01
                    CP:  1.04D+00  1.08D+00  1.34D+00  1.37D+00  1.32D+00
                    CP:  1.27D+00  1.35D+00
 E= -576.403112057187     Delta-E=       -0.000000000042 Rises=F Damp=F
 DIIS: error= 9.24D-08 at cycle  13 NSaved=  13.
 NSaved=13 IEnMin=13 EnMin= -576.403112057187     IErMin=13 ErrMin= 9.24D-08
 ErrMax= 9.24D-08  0.00D+00 EMaxC= 1.00D-01 BMatC= 1.51D-12 BMatP= 7.28D-12
 IDIUse=1 WtCom= 1.00D+00 WtEn= 0.00D+00
 Coeff-Com:  0.285D-06 0.267D-05 0.862D-06-0.857D-04-0.329D-03-0.209D-03
 Coeff-Com:  0.160D-02 0.496D-02 0.137D-03-0.716D-01-0.718D-01 0.303D+00
 Coeff-Com:  0.834D+00
 Coeff:      0.285D-06 0.267D-05 0.862D-06-0.857D-04-0.329D-03-0.209D-03
 Coeff:      0.160D-02 0.496D-02 0.137D-03-0.716D-01-0.718D-01 0.303D+00
 Coeff:      0.834D+00
 Gap=     0.320 Goal=   None    Shift=    0.000
 RMSDP=7.19D-08 MaxDP=9.09D-06 DE=-4.18D-11 OVMax= 1.34D-06

 Cycle  14  Pass 1  IDiag  1:
 RMSU=  2.84D-08    CP:  5.54D-01  7.69D-01  5.22D-01  1.05D+00  5.84D-01
                    CP:  1.04D+00  1.08D+00  1.34D+00  1.36D+00  1.32D+00
                    CP:  1.31D+00  1.45D+00  1.22D+00
 E= -576.403112057176     Delta-E=        0.000000000012 Rises=F Damp=F
 DIIS: error= 4.21D-08 at cycle  14 NSaved=  14.
 NSaved=14 IEnMin=13 EnMin= -576.403112057187     IErMin=14 ErrMin= 4.21D-08
 ErrMax= 4.21D-08  0.00D+00 EMaxC= 1.00D-01 BMatC= 3.11D-13 BMatP= 1.51D-12
 IDIUse=1 WtCom= 1.00D+00 WtEn= 0.00D+00
 Coeff-Com:  0.545D-07 0.174D-05 0.284D-05 0.329D-05 0.353D-04-0.259D-04
 Coeff-Com: -0.535D-03-0.281D-03 0.357D-02 0.127D-01-0.327D-01-0.176D+00
 Coeff-Com:  0.192D+00 0.100D+01
 Coeff:      0.545D-07 0.174D-05 0.284D-05 0.329D-05 0.353D-04-0.259D-04
 Coeff:     -0.535D-03-0.281D-03 0.357D-02 0.127D-01-0.327D-01-0.176D+00
 Coeff:      0.192D+00 0.100D+01
 Gap=     0.320 Goal=   None    Shift=    0.000
 RMSDP=3.36D-08 MaxDP=4.16D-06 DE= 1.18D-11 OVMax= 8.40D-07

 Cycle  15  Pass 1  IDiag  1:
 RMSU=  1.18D-08    CP:  5.54D-01  7.69D-01  5.22D-01  1.05D+00  5.84D-01
                    CP:  1.04D+00  1.08D+00  1.34D+00  1.36D+00  1.32D+00
                    CP:  1.32D+00  1.48D+00  1.52D+00  1.05D+00
 E= -576.403112057175     Delta-E=        0.000000000000 Rises=F Damp=F
 DIIS: error= 1.35D-08 at cycle  15 NSaved=  15.
 NSaved=15 IEnMin=13 EnMin= -576.403112057187     IErMin=15 ErrMin= 1.35D-08
 ErrMax= 1.35D-08  0.00D+00 EMaxC= 1.00D-01 BMatC= 6.47D-14 BMatP= 3.11D-13
 IDIUse=1 WtCom= 1.00D+00 WtEn= 0.00D+00
 Coeff-Com: -0.234D-07 0.248D-06 0.100D-05 0.151D-04 0.687D-04 0.287D-04
 Coeff-Com: -0.452D-03-0.888D-03 0.142D-02 0.169D-01 0.223D-02-0.118D+00
 Coeff-Com: -0.576D-01 0.385D+00 0.772D+00
 Coeff:     -0.234D-07 0.248D-06 0.100D-05 0.151D-04 0.687D-04 0.287D-04
 Coeff:     -0.452D-03-0.888D-03 0.142D-02 0.169D-01 0.223D-02-0.118D+00
 Coeff:     -0.576D-01 0.385D+00 0.772D+00
 Gap=     0.320 Goal=   None    Shift=    0.000
 RMSDP=8.15D-09 MaxDP=8.33D-07 DE= 4.55D-13 OVMax= 2.51D-07

 SCF Done:  E(RwB97XD) =  -576.403112057     A.U. after   15 cycles
            NFock= 15  Conv=0.82D-08     -V/T= 1.9999
 KE= 5.764840186244D+02 PE=-2.912831899294D+03 EE= 9.746143088840D+02
 Leave Link  502 at Tue Nov 22 15:00:51 2022, MaxMem= 16106127360 cpu:            1141.6 elap:              35.8
 (Enter /opt/ap/G16/B01/g16/l601.exe)
 Copying SCF densities to generalized density rwf, IOpCl= 0 IROHF=0.

 **********************************************************************

            Population analysis using the SCF Density.

 **********************************************************************

 Orbital symmetries:
       Occupied  (A) (A) (A) (A) (A) (A) (A) (A) (A) (A) (A) (A)
                 (A) (A) (A) (A) (A) (A) (A) (A) (A) (A) (A) (A)
                 (A) (A) (A) (A) (A) (A) (A) (A) (A) (A) (A) (A)
                 (A) (A) (A) (A) (A) (A) (A) (A) (A) (A) (A) (A)
       Virtual   (A) (A) (A) (A) (A) (A) (A) (A) (A) (A) (A) (A)
                 (A) (A) (A) (A) (A) (A) (A) (A) (A) (A) (A) (A)
                 (A) (A) (A) (A) (A) (A) (A) (A) (A) (A) (A) (A)
                 (A) (A) (A) (A) (A) (A) (A) (A) (A) (A) (A) (A)
                 (A) (A) (A) (A) (A) (A) (A) (A) (A) (A) (A) (A)
                 (A) (A) (A) (A) (A) (A) (A) (A) (A) (A) (A) (A)
                 (A) (A) (A) (A) (A) (A) (A) (A) (A) (A) (A) (A)
                 (A) (A) (A) (A) (A) (A) (A) (A) (A) (A) (A) (A)
                 (A) (A) (A) (A) (A) (A) (A) (A) (A) (A) (A) (A)
                 (A) (A) (A) (A) (A) (A) (A) (A) (A) (A) (A) (A)
                 (A) (A) (A) (A) (A) (A) (A) (A) (A) (A) (A) (A)
                 (A) (A) (A) (A) (A) (A) (A) (A) (A) (A) (A) (A)
                 (A) (A) (A) (A) (A) (A) (A) (A) (A) (A) (A) (A)
                 (A) (A) (A) (A) (A) (A) (A) (A) (A) (A) (A) (A)
                 (A) (A) (A) (A) (A) (A) (A) (A) (A) (A) (A) (A)
                 (A) (A) (A) (A) (A) (A) (A) (A) (A) (A) (A) (A)
                 (A) (A) (A) (A) (A) (A) (A) (A) (A) (A) (A) (A)
                 (A) (A) (A) (A) (A) (A) (A) (A) (A) (A) (A) (A)
                 (A) (A) (A) (A) (A) (A) (A) (A) (A) (A) (A) (A)
                 (A) (A) (A) (A) (A) (A) (A) (A) (A) (A) (A) (A)
                 (A) (A) (A) (A) (A) (A) (A) (A) (A) (A) (A) (A)
                 (A) (A) (A) (A) (A) (A) (A) (A) (A) (A) (A) (A)
                 (A) (A) (A) (A) (A) (A) (A) (A) (A) (A) (A) (A)
                 (A) (A) (A) (A) (A) (A) (A) (A) (A) (A) (A) (A)
                 (A) (A) (A) (A) (A) (A) (A) (A) (A) (A) (A) (A)
                 (A) (A) (A) (A) (A) (A) (A) (A) (A) (A) (A) (A)
                 (A) (A) (A) (A) (A) (A) (A) (A) (A) (A) (A) (A)
                 (A) (A) (A)
 The electronic state is 1-A.
 Alpha  occ. eigenvalues --  -19.23789 -10.38240 -10.30623 -10.30602 -10.28914
 Alpha  occ. eigenvalues --  -10.28839 -10.28625 -10.28509 -10.28504 -10.28493
 Alpha  occ. eigenvalues --  -10.28449 -10.28426 -10.28257 -10.28190  -1.14896
 Alpha  occ. eigenvalues --   -0.98125  -0.97413  -0.89531  -0.87561  -0.87337
 Alpha  occ. eigenvalues --   -0.86625  -0.77002  -0.74917  -0.73302  -0.72390
 Alpha  occ. eigenvalues --   -0.68283  -0.64982  -0.64352  -0.59632  -0.57553
 Alpha  occ. eigenvalues --   -0.56377  -0.55820  -0.54645  -0.53672  -0.52684
 Alpha  occ. eigenvalues --   -0.52123  -0.50224  -0.47722  -0.46862  -0.46045
 Alpha  occ. eigenvalues --   -0.45376  -0.44931  -0.43765  -0.35129  -0.34975
 Alpha  occ. eigenvalues --   -0.34218  -0.33898  -0.33223
 Alpha virt. eigenvalues --   -0.01187   0.03390   0.03707   0.04295   0.04836
 Alpha virt. eigenvalues --    0.04890   0.05287   0.05774   0.05987   0.07545
 Alpha virt. eigenvalues --    0.07860   0.08657   0.10036   0.10187   0.10617
 Alpha virt. eigenvalues --    0.11218   0.11859   0.12612   0.13467   0.14482
 Alpha virt. eigenvalues --    0.14891   0.15167   0.16001   0.16194   0.16806
 Alpha virt. eigenvalues --    0.16938   0.17163   0.17360   0.17672   0.18288
 Alpha virt. eigenvalues --    0.18515   0.18737   0.19548   0.19686   0.19857
 Alpha virt. eigenvalues --    0.20015   0.20366   0.20462   0.21001   0.21581
 Alpha virt. eigenvalues --    0.22392   0.22513   0.23123   0.23574   0.23971
 Alpha virt. eigenvalues --    0.24327   0.24680   0.25353   0.25682   0.26175
 Alpha virt. eigenvalues --    0.26495   0.27233   0.27554   0.28416   0.28815
 Alpha virt. eigenvalues --    0.29795   0.30676   0.30877   0.31121   0.31449
 Alpha virt. eigenvalues --    0.32152   0.32624   0.33593   0.34179   0.34225
 Alpha virt. eigenvalues --    0.34900   0.35072   0.35671   0.35883   0.36091
 Alpha virt. eigenvalues --    0.36436   0.37146   0.38165   0.38674   0.38765
 Alpha virt. eigenvalues --    0.39294   0.40864   0.41178   0.41960   0.42514
 Alpha virt. eigenvalues --    0.42681   0.42781   0.44285   0.44422   0.45464
 Alpha virt. eigenvalues --    0.45874   0.47687   0.47857   0.50057   0.55515
 Alpha virt. eigenvalues --    0.56045   0.57719   0.58287   0.58684   0.60466
 Alpha virt. eigenvalues --    0.62280   0.62691   0.63045   0.63380   0.63945
 Alpha virt. eigenvalues --    0.64224   0.64848   0.65121   0.65339   0.66224
 Alpha virt. eigenvalues --    0.67165   0.68280   0.68355   0.69571   0.70087
 Alpha virt. eigenvalues --    0.71883   0.72839   0.73636   0.74173   0.75298
 Alpha virt. eigenvalues --    0.75800   0.76516   0.77434   0.79031   0.80278
 Alpha virt. eigenvalues --    0.81384   0.81504   0.82600   0.83027   0.83790
 Alpha virt. eigenvalues --    0.84176   0.85906   0.86237   0.87689   0.90488
 Alpha virt. eigenvalues --    0.91052   0.92834   0.93638   0.93934   0.94723
 Alpha virt. eigenvalues --    0.94748   0.95629   0.95777   0.96231   0.96989
 Alpha virt. eigenvalues --    0.99481   1.00652   1.01678   1.02152   1.02369
 Alpha virt. eigenvalues --    1.03081   1.03362   1.04835   1.05603   1.08716
 Alpha virt. eigenvalues --    1.09796   1.11813   1.11965   1.13339   1.14011
 Alpha virt. eigenvalues --    1.15324   1.16873   1.17176   1.18128   1.19195
 Alpha virt. eigenvalues --    1.20279   1.22109   1.24583   1.26780   1.28608
 Alpha virt. eigenvalues --    1.29035   1.31357   1.35795   1.36837   1.39450
 Alpha virt. eigenvalues --    1.43664   1.45696   1.47493   1.54979   1.56885
 Alpha virt. eigenvalues --    1.57907   1.58328   1.59775   1.61005   1.61890
 Alpha virt. eigenvalues --    1.62773   1.64275   1.65815   1.66978   1.67902
 Alpha virt. eigenvalues --    1.68185   1.68615   1.68665   1.70946   1.74201
 Alpha virt. eigenvalues --    1.75921   1.76235   1.76914   1.78571   1.82401
 Alpha virt. eigenvalues --    1.83206   1.83368   1.87215   1.89098   1.89586
 Alpha virt. eigenvalues --    1.91056   1.91851   1.92534   1.94322   1.95164
 Alpha virt. eigenvalues --    1.97060   1.99289   2.00825   2.01072   2.01758
 Alpha virt. eigenvalues --    2.03684   2.04342   2.05122   2.05408   2.05771
 Alpha virt. eigenvalues --    2.07065   2.08781   2.09247   2.10792   2.11147
 Alpha virt. eigenvalues --    2.14823   2.18242   2.20509   2.22349   2.24369
 Alpha virt. eigenvalues --    2.25733   2.27599   2.29677   2.31568   2.35034
 Alpha virt. eigenvalues --    2.42912   2.44139   2.45956   2.47782   2.48511
 Alpha virt. eigenvalues --    2.50315   2.51223   2.52157   2.55130   2.57558
 Alpha virt. eigenvalues --    2.59510   2.61387   2.63970   2.69861   2.71496
 Alpha virt. eigenvalues --    2.76172   2.77248   2.78955   2.80681   2.82498
 Alpha virt. eigenvalues --    2.84543   2.85626   2.86686   2.90459   2.91249
 Alpha virt. eigenvalues --    2.92365   2.92588   2.94166   2.96529   2.98151
 Alpha virt. eigenvalues --    2.98334   2.99560   3.00143   3.00540   3.01051
 Alpha virt. eigenvalues --    3.02246   3.02721   3.04897   3.06801   3.08826
 Alpha virt. eigenvalues --    3.09605   3.12800   3.14348   3.19233   3.20770
 Alpha virt. eigenvalues --    3.20979   3.24546   3.25188   3.26500   3.31050
 Alpha virt. eigenvalues --    3.31896   3.37107   3.41146   3.45131   3.48336
 Alpha virt. eigenvalues --    3.50731   3.51480   3.56639   3.68109   3.69050
 Alpha virt. eigenvalues --    3.70230   3.73511   3.74827   3.76747   3.84730
 Alpha virt. eigenvalues --    3.88391   3.94843   3.96237   4.30883   4.36367
 Alpha virt. eigenvalues --    4.38207   4.39808   4.40357   4.41222   4.49987
 Alpha virt. eigenvalues --    4.50316   4.56160   4.65756   4.95453   4.95695
 Alpha virt. eigenvalues --    5.20204   5.35693   5.85564  23.86221  23.97415
 Alpha virt. eigenvalues --   23.99023  24.17155  24.17967  24.23156  24.26030
 Alpha virt. eigenvalues --   24.29783  24.32084  24.33795  24.35297  24.43501
 Alpha virt. eigenvalues --   24.44624  50.15395
          Condensed to atoms (all electrons):
               1          2          3          4          5          6
     1  C   16.518454   2.520700  -2.454306  -1.200976   0.152852 -10.464619
     2  C    2.520700  10.274807  -2.623360  -1.440918   0.663426  -3.193508
     3  C   -2.454306  -2.623360   8.849222   1.379383  -0.083254   1.285124
     4  C   -1.200976  -1.440918   1.379383   7.242991  -0.211184   0.189177
     5  H    0.152852   0.663426  -0.083254  -0.211184   0.776164   0.128496
     6  C  -10.464619  -3.193508   1.285124   0.189177   0.128496  28.321293
     7  C   -0.482485   0.794933  -0.353946  -0.754034   0.107195   0.156213
     8  H    0.028158   0.026591   0.422062   0.025263   0.001466   0.032068
     9  C   -0.128049  -0.494917  -0.121774   0.785300  -0.087842   0.006302
    10  H    0.023804  -0.090416   0.027559   0.432324  -0.030569   0.008799
    11  C    1.431514   0.335922   0.386875   0.225984  -0.325749 -10.927023
    12  O    0.119578   0.003270  -0.021588  -0.005893  -0.007090   0.043392
    13  H   -0.012835   0.008066  -0.066963  -0.006914   0.000621   0.002266
    14  H    0.040197  -0.021465   0.006059  -0.055413  -0.005609  -0.020494
    15  C   -1.705114   1.012601  -0.734070  -0.064584  -0.108182   1.049592
    16  C    1.364854  -0.644863   0.062627  -0.233931   0.041627  -1.349648
    17  C   -0.291788  -0.270437  -0.180307  -0.232569   0.113345   1.322175
    18  H   -0.171088  -0.173046   0.075807   0.059584  -0.175386  -0.074577
    19  C   -0.425173  -0.055713   0.209022   0.024960  -0.039637   0.444243
    20  H   -0.048415   0.004437  -0.021813  -0.004637  -0.001459   0.001788
    21  C   -0.036876   0.057014  -0.075926  -0.022479   0.035347   0.097635
    22  H    0.008036   0.003271  -0.000246  -0.001983   0.008845   0.003615
    23  H    0.007683  -0.002344   0.004988   0.000119   0.000264   0.007797
    24  H   -0.001247   0.000303  -0.002142  -0.000173   0.000487  -0.018972
               7          8          9         10         11         12
     1  C   -0.482485   0.028158  -0.128049   0.023804   1.431514   0.119578
     2  C    0.794933   0.026591  -0.494917  -0.090416   0.335922   0.003270
     3  C   -0.353946   0.422062  -0.121774   0.027559   0.386875  -0.021588
     4  C   -0.754034   0.025263   0.785300   0.432324   0.225984  -0.005893
     5  H    0.107195   0.001466  -0.087842  -0.030569  -0.325749  -0.007090
     6  C    0.156213   0.032068   0.006302   0.008799 -10.927023   0.043392
     7  C    6.645856  -0.126650   0.174568  -0.006994  -0.264758   0.008270
     8  H   -0.126650   0.460940   0.006404   0.000343  -0.057662  -0.007196
     9  C    0.174568   0.006404   5.627179  -0.064359   0.049463   0.001147
    10  H   -0.006994   0.000343  -0.064359   0.494023   0.009409   0.000312
    11  C   -0.264758  -0.057662   0.049463   0.009409  16.717038   0.125775
    12  O    0.008270  -0.007196   0.001147   0.000312   0.125775   8.012762
    13  H    0.482289  -0.015013  -0.071877   0.000408   0.009684   0.001397
    14  H   -0.090357   0.001430   0.493295  -0.011850   0.001994   0.000003
    15  C    0.044867   0.005327   0.044447   0.000116   0.758543  -0.118065
    16  C    0.119230  -0.015284  -0.044256  -0.001066  -1.184356   0.090946
    17  C    0.016260  -0.002664  -0.024015  -0.006061  -2.284284  -0.022765
    18  H   -0.021350  -0.002490   0.023671   0.008642   0.224541  -0.007371
    19  C    0.015882  -0.000362   0.002043   0.000266  -0.305649  -0.006248
    20  H    0.001926  -0.001047  -0.000470  -0.000062   0.060225  -0.011658
    21  C    0.001150  -0.000122  -0.001473  -0.000510  -0.225724   0.000839
    22  H   -0.000294  -0.000011   0.000151  -0.000380   0.023850   0.000618
    23  H    0.000244   0.000001  -0.000006  -0.000001  -0.004641   0.001026
    24  H    0.000022  -0.000034  -0.000000   0.000003   0.034964  -0.000039
              13         14         15         16         17         18
     1  C   -0.012835   0.040197  -1.705114   1.364854  -0.291788  -0.171088
     2  C    0.008066  -0.021465   1.012601  -0.644863  -0.270437  -0.173046
     3  C   -0.066963   0.006059  -0.734070   0.062627  -0.180307   0.075807
     4  C   -0.006914  -0.055413  -0.064584  -0.233931  -0.232569   0.059584
     5  H    0.000621  -0.005609  -0.108182   0.041627   0.113345  -0.175386
     6  C    0.002266  -0.020494   1.049592  -1.349648   1.322175  -0.074577
     7  C    0.482289  -0.090357   0.044867   0.119230   0.016260  -0.021350
     8  H   -0.015013   0.001430   0.005327  -0.015284  -0.002664  -0.002490
     9  C   -0.071877   0.493295   0.044447  -0.044256  -0.024015   0.023671
    10  H    0.000408  -0.011850   0.000116  -0.001066  -0.006061   0.008642
    11  C    0.009684   0.001994   0.758543  -1.184356  -2.284284   0.224541
    12  O    0.001397   0.000003  -0.118065   0.090946  -0.022765  -0.007371
    13  H    0.484950  -0.015471  -0.003450   0.004000  -0.000556   0.000461
    14  H   -0.015471   0.496672  -0.001759  -0.000818  -0.000173   0.000635
    15  C   -0.003450  -0.001759   9.519475  -2.062046  -1.460074   0.635592
    16  C    0.004000  -0.000818  -2.062046   8.907289   1.157677  -0.037132
    17  C   -0.000556  -0.000173  -1.460074   1.157677   7.854979  -0.208738
    18  H    0.000461   0.000635   0.635592  -0.037132  -0.208738   0.789462
    19  C    0.000142  -0.000073   0.570244  -0.563736  -0.597790   0.122082
    20  H    0.000023  -0.000037   0.045751   0.386803   0.027249   0.000657
    21  C   -0.000012  -0.000032  -0.551673  -0.091652   0.888785  -0.093062
    22  H   -0.000013   0.000022  -0.067359   0.015818   0.412608  -0.034101
    23  H    0.000011   0.000003   0.001887  -0.059929  -0.008215   0.000829
    24  H    0.000003  -0.000003  -0.021758   0.008217  -0.055271  -0.004698
              19         20         21         22         23         24
     1  C   -0.425173  -0.048415  -0.036876   0.008036   0.007683  -0.001247
     2  C   -0.055713   0.004437   0.057014   0.003271  -0.002344   0.000303
     3  C    0.209022  -0.021813  -0.075926  -0.000246   0.004988  -0.002142
     4  C    0.024960  -0.004637  -0.022479  -0.001983   0.000119  -0.000173
     5  H   -0.039637  -0.001459   0.035347   0.008845   0.000264   0.000487
     6  C    0.444243   0.001788   0.097635   0.003615   0.007797  -0.018972
     7  C    0.015882   0.001926   0.001150  -0.000294   0.000244   0.000022
     8  H   -0.000362  -0.001047  -0.000122  -0.000011   0.000001  -0.000034
     9  C    0.002043  -0.000470  -0.001473   0.000151  -0.000006  -0.000000
    10  H    0.000266  -0.000062  -0.000510  -0.000380  -0.000001   0.000003
    11  C   -0.305649   0.060225  -0.225724   0.023850  -0.004641   0.034964
    12  O   -0.006248  -0.011658   0.000839   0.000618   0.001026  -0.000039
    13  H    0.000142   0.000023  -0.000012  -0.000013   0.000011   0.000003
    14  H   -0.000073  -0.000037  -0.000032   0.000022   0.000003  -0.000003
    15  C    0.570244   0.045751  -0.551673  -0.067359   0.001887  -0.021758
    16  C   -0.563736   0.386803  -0.091652   0.015818  -0.059929   0.008217
    17  C   -0.597790   0.027249   0.888785   0.412608  -0.008215  -0.055271
    18  H    0.122082   0.000657  -0.093062  -0.034101   0.000829  -0.004698
    19  C    6.700194  -0.124033   0.106887  -0.000870   0.477818  -0.090193
    20  H   -0.124033   0.463863   0.015454   0.000154  -0.013933   0.001729
    21  C    0.106887   0.015454   5.695961  -0.065089  -0.079381   0.496227
    22  H   -0.000870   0.000154  -0.065089   0.496011   0.000346  -0.012338
    23  H    0.477818  -0.013933  -0.079381   0.000346   0.483264  -0.014446
    24  H   -0.090193   0.001729   0.496227  -0.012338  -0.014446   0.495734
 Mulliken charges:
               1
     1  C    1.207142
     2  C   -0.694354
     3  C    0.030968
     4  C   -0.129398
     5  H    0.045825
     6  C   -1.051133
     7  C   -0.468038
     8  H    0.218481
     9  C   -0.174932
    10  H    0.206259
    11  C    1.184063
    12  O   -0.201422
    13  H    0.198784
    14  H    0.183241
    15  C   -0.790307
    16  C    0.129630
    17  C   -0.147372
    18  H    0.061075
    19  C   -0.464304
    20  H    0.217504
    21  C   -0.151289
    22  H    0.209337
    23  H    0.196616
    24  H    0.183623
 Sum of Mulliken charges =  -0.00000
 Mulliken charges with hydrogens summed into heavy atoms:
               1
     1  C    1.207142
     2  C   -0.648529
     3  C    0.249449
     4  C    0.076861
     6  C   -1.051133
     7  C   -0.269254
     9  C    0.008309
    11  C    1.184063
    12  O   -0.201422
    15  C   -0.729233
    16  C    0.347135
    17  C    0.061966
    19  C   -0.267689
    21  C    0.032334
 Electronic spatial extent (au):  <R**2>=           3035.2489
 Charge=             -0.0000 electrons
 Dipole moment (field-independent basis, Debye):
    X=              0.0200    Y=             -3.0764    Z=             -1.1063  Tot=              3.2693
 Quadrupole moment (field-independent basis, Debye-Ang):
   XX=            -64.0779   YY=            -78.9523   ZZ=            -85.1424
   XY=              0.1801   XZ=             -0.2013   YZ=             -5.4209
 Traceless Quadrupole moment (field-independent basis, Debye-Ang):
   XX=             11.9796   YY=             -2.8948   ZZ=             -9.0849
   XY=              0.1801   XZ=             -0.2013   YZ=             -5.4209
 Octapole moment (field-independent basis, Debye-Ang**2):
  XXX=             -1.0875  YYY=            -22.7598  ZZZ=              3.4120  XYY=              0.8725
  XXY=             -1.1878  XXZ=            -20.3380  XZZ=             -0.4133  YZZ=              3.1850
  YYZ=             -6.3388  XYZ=              2.0353
 Hexadecapole moment (field-independent basis, Debye-Ang**3):
 XXXX=          -2815.5835 YYYY=           -782.0026 ZZZZ=           -161.5604 XXXY=              4.6100
 XXXZ=             -4.1879 YYYX=             -0.0757 YYYZ=            -29.4903 ZZZX=             -0.0858
 ZZZY=              2.4027 XXYY=           -590.0982 XXZZ=           -604.4028 YYZZ=           -166.5350
 XXYZ=            -13.3680 YYXZ=             -2.0776 ZZXY=             -1.2148
 N-N= 7.853304597283D+02 E-N=-2.912831899058D+03  KE= 5.764840186244D+02
 No NMR shielding tensors so no spin-rotation constants.
 Leave Link  601 at Tue Nov 22 15:00:51 2022, MaxMem= 16106127360 cpu:               4.6 elap:               0.2
 (Enter /opt/ap/G16/B01/g16/l9999.exe)
 1\1\GINC-N17\SP\RwB97XD\6-311++G(d,p)\C13H10O1\ROOT\22-Nov-2022\0\\#P 
 wB97XD/6-311++G(d,p) scf=maxcycle=512\\_conf013.gjf nmol_natom 1_24\\0
 ,1\C\C,1,1.39746343\C,1,1.39996263,2,119.28066518\C,2,1.39288453,1,120
 .37436646,3,-0.51002981,0\H,2,0.95014703,1,119.82324024,3,179.45634896
 ,0\C,1,1.49653039,2,122.77761373,4,174.46828757,0\C,3,1.3870125,1,120.
 10017821,2,-0.37315804,0\H,3,0.9501092,1,119.95246451,2,179.5923884,0\
 C,7,1.38720039,3,120.16568731,1,1.0745106,0\H,4,0.95011919,2,120.18755
 644,1,-179.31195299,0\C,6,1.49516902,1,120.70972921,2,-25.,0\O,6,1.221
 50059,1,119.67074267,2,155.,0\H,7,0.94956661,3,119.91274826,1,-178.886
 36029,0\H,9,0.94992259,7,119.76037934,3,179.10763853,0\C,11,1.39713972
 ,6,122.62585705,1,30.97749054,0\C,11,1.40039562,6,117.74753532,1,-153.
 15467779,0\C,15,1.39455701,11,119.80747484,6,175.4763048,0\H,15,0.9496
 2854,11,120.10535689,6,-4.50802339,0\C,16,1.38466431,11,120.4617377,6,
 -176.88197195,0\H,16,0.9497464,11,119.75779177,6,3.14699974,0\C,17,1.3
 9088945,15,120.3475273,11,0.7973643,0\H,17,0.94984298,15,119.8156451,1
 1,-179.16676483,0\H,19,0.94974749,16,119.98566335,11,-178.40987425,0\H
 ,21,0.94938585,17,120.0744529,15,179.91636093,0\\Version=ES64L-G16RevB
 .01\State=1-A\HF=-576.4031121\RMSD=8.150e-09\Dipole=0.0409043,-0.55752
 41,1.1584284\Quadrupole=7.9944268,-6.636301,-1.3581258,3.6471273,-0.08
 26533,3.5871306\PG=C01 [X(C13H10O1)]\\@


 ALL OUR THINKING ABOUT NATURE MUST NECESSARILY MOVE IN CIRCLES OR SPIRALS;
 FOR WE CAN ONLY UNDERSTAND NATURE IF WE THINK ABOUT HER, AND WE CAN ONLY
 THINK BECAUSE OUR BRAIN IS BUILT IN ACCORDANCE WITH NATURE'S LAWS.

                                             -- TIMOTHY FERRIS, "GALAXIES"
 Job cpu time:       0 days  0 hours 19 minutes 51.9 seconds.
 Elapsed time:       0 days  0 hours  0 minutes 37.4 seconds.
 File lengths (MBytes):  RWF=     78 Int=      0 D2E=      0 Chk=      9 Scr=      1
 Normal termination of Gaussian 16 at Tue Nov 22 15:00:51 2022.
