 Entering Gaussian System, Link 0=g16
 Input=_conf008.gjf
 Output=_conf008.log
 Initial command:
 /opt/ap/G16/B01/g16/l1.exe "/tmp2/scr/Gau-26844.inp" -scrdir="/tmp2/scr/"
 Entering Link 1 = /opt/ap/G16/B01/g16/l1.exe PID=     26845.
  
 Copyright (c) 1988-2017, Gaussian, Inc.  All Rights Reserved.
  
 This is part of the Gaussian(R) 16 program.  It is based on
 the Gaussian(R) 09 system (copyright 2009, Gaussian, Inc.),
 the Gaussian(R) 03 system (copyright 2003, Gaussian, Inc.),
 the Gaussian(R) 98 system (copyright 1998, Gaussian, Inc.),
 the Gaussian(R) 94 system (copyright 1995, Gaussian, Inc.),
 the Gaussian 92(TM) system (copyright 1992, Gaussian, Inc.),
 the Gaussian 90(TM) system (copyright 1990, Gaussian, Inc.),
 the Gaussian 88(TM) system (copyright 1988, Gaussian, Inc.),
 the Gaussian 86(TM) system (copyright 1986, Carnegie Mellon
 University), and the Gaussian 82(TM) system (copyright 1983,
 Carnegie Mellon University). Gaussian is a federally registered
 trademark of Gaussian, Inc.
  
 This software contains proprietary and confidential information,
 including trade secrets, belonging to Gaussian, Inc.
  
 This software is provided under written license and may be
 used, copied, transmitted, or stored only in accord with that
 written license.
  
 The following legend is applicable only to US Government
 contracts under FAR:
  
                    RESTRICTED RIGHTS LEGEND
  
 Use, reproduction and disclosure by the US Government is
 subject to restrictions as set forth in subparagraphs (a)
 and (c) of the Commercial Computer Software - Restricted
 Rights clause in FAR 52.227-19.
  
 Gaussian, Inc.
 340 Quinnipiac St., Bldg. 40, Wallingford CT 06492
  
  
 ---------------------------------------------------------------
 Warning -- This program may not be used in any manner that
 competes with the business of Gaussian, Inc. or will provide
 assistance to any competitor of Gaussian, Inc.  The licensee
 of this program is prohibited from giving any competitor of
 Gaussian, Inc. access to this program.  By using this program,
 the user acknowledges that Gaussian, Inc. is engaged in the
 business of creating and licensing software in the field of
 computational chemistry and represents and warrants to the
 licensee that it is not a competitor of Gaussian, Inc. and that
 it will not use this program in any manner prohibited above.
 ---------------------------------------------------------------
  

 Cite this work as:
 Gaussian 16, Revision B.01,
 M. J. Frisch, G. W. Trucks, H. B. Schlegel, G. E. Scuseria, 
 M. A. Robb, J. R. Cheeseman, G. Scalmani, V. Barone, 
 G. A. Petersson, H. Nakatsuji, X. Li, M. Caricato, A. V. Marenich, 
 J. Bloino, B. G. Janesko, R. Gomperts, B. Mennucci, H. P. Hratchian, 
 J. V. Ortiz, A. F. Izmaylov, J. L. Sonnenberg, D. Williams-Young, 
 F. Ding, F. Lipparini, F. Egidi, J. Goings, B. Peng, A. Petrone, 
 T. Henderson, D. Ranasinghe, V. G. Zakrzewski, J. Gao, N. Rega, 
 G. Zheng, W. Liang, M. Hada, M. Ehara, K. Toyota, R. Fukuda, 
 J. Hasegawa, M. Ishida, T. Nakajima, Y. Honda, O. Kitao, H. Nakai, 
 T. Vreven, K. Throssell, J. A. Montgomery, Jr., J. E. Peralta, 
 F. Ogliaro, M. J. Bearpark, J. J. Heyd, E. N. Brothers, K. N. Kudin, 
 V. N. Staroverov, T. A. Keith, R. Kobayashi, J. Normand, 
 K. Raghavachari, A. P. Rendell, J. C. Burant, S. S. Iyengar, 
 J. Tomasi, M. Cossi, J. M. Millam, M. Klene, C. Adamo, R. Cammi, 
 J. W. Ochterski, R. L. Martin, K. Morokuma, O. Farkas, 
 J. B. Foresman, and D. J. Fox, Gaussian, Inc., Wallingford CT, 2016.
 
 ******************************************
 Gaussian 16:  ES64L-G16RevB.01 20-Dec-2017
                22-Nov-2022 
 ******************************************
 %nprocshared=32
 Will use up to   32 processors via shared memory.
 %mem=120GB
 %chk=_conf008.chk
 ----------------------------------------
 #P wB97XD/6-311++G(d,p) scf=maxcycle=512
 ----------------------------------------
 1/38=1,172=1/1;
 2/12=2,17=6,18=5,40=1/2;
 3/5=4,6=6,7=1111,11=2,25=1,30=1,74=-58/1,2,3;
 4//1;
 5/5=2,7=512,38=5/2;
 6/7=2,8=2,9=2,10=2,28=1/1;
 99/5=1,9=1/99;
 Leave Link    1 at Tue Nov 22 14:59:38 2022, MaxMem= 16106127360 cpu:               1.8 elap:               0.1
 (Enter /opt/ap/G16/B01/g16/l101.exe)
 ----------------------------
 _conf008.gjf nmol_natom 1_24
 ----------------------------
 Symbolic Z-matrix:
 Charge =  0 Multiplicity = 1
 C
 C                    1     1.39746 
 C                    1     1.39996  2     119.28067 
 C                    2     1.39288  1     120.37437  3    -0.51003  0
 H                    2     0.95015  1     119.82324  3     179.45635  0
 C                    1     1.49653  2     122.77761  4     174.46829  0
 C                    3     1.38701  1     120.10018  2    -0.37316  0
 H                    3     0.95011  1     119.95246  2     179.59239  0
 C                    7     1.3872   3     120.16569  1     1.07451  0
 H                    4     0.95012  2     120.18756  1    -179.31195  0
 C                    6     1.49517  1     120.70973  2    -50.      0
 O                    6     1.2215   1     119.67074  2     130.     0
 H                    7     0.94957  3     119.91275  1    -178.88636  0
 H                    9     0.94992  7     119.76038  3     179.10764  0
 C                    11    1.39714  6     122.62586  1     30.97749  0
 C                    11    1.4004   6     117.74754  1    -153.15468  0
 C                    15    1.39456  11    119.80747  6     175.4763  0
 H                    15    0.94963  11    120.10536  6    -4.50802  0
 C                    16    1.38466  11    120.46174  6    -176.88197  0
 H                    16    0.94975  11    119.75779  6     3.147    0
 C                    17    1.39089  15    120.34753  11    0.79736  0
 H                    17    0.94984  15    119.81565  11   -179.16676  0
 H                    19    0.94975  16    119.98566  11   -178.40987  0
 H                    21    0.94939  17    120.07445  15    179.91636  0
 
 ITRead=  0  0  0  0  0  0  0  0  0  0  0  0  0  0  0  0  0  0  0  0
 ITRead=  0  0  0  0
 MicOpt= -1 -1 -1 -1 -1 -1 -1 -1 -1 -1 -1 -1 -1 -1 -1 -1 -1 -1 -1 -1
 MicOpt= -1 -1 -1 -1
 NAtoms=     24 NQM=       24 NQMF=       0 NMMI=      0 NMMIF=      0
                NMic=       0 NMicF=      0.
                    Isotopes and Nuclear Properties:
 (Nuclear quadrupole moments (NQMom) in fm**2, nuclear magnetic moments (NMagM)
  in nuclear magnetons)

  Atom         1           2           3           4           5           6           7           8           9          10
 IAtWgt=          12          12          12          12           1          12          12           1          12           1
 AtmWgt=  12.0000000  12.0000000  12.0000000  12.0000000   1.0078250  12.0000000  12.0000000   1.0078250  12.0000000   1.0078250
 NucSpn=           0           0           0           0           1           0           0           1           0           1
 AtZEff=  -0.0000000  -0.0000000  -0.0000000  -0.0000000  -0.0000000  -0.0000000  -0.0000000  -0.0000000  -0.0000000  -0.0000000
 NQMom=    0.0000000   0.0000000   0.0000000   0.0000000   0.0000000   0.0000000   0.0000000   0.0000000   0.0000000   0.0000000
 NMagM=    0.0000000   0.0000000   0.0000000   0.0000000   2.7928460   0.0000000   0.0000000   2.7928460   0.0000000   2.7928460
 AtZNuc=   6.0000000   6.0000000   6.0000000   6.0000000   1.0000000   6.0000000   6.0000000   1.0000000   6.0000000   1.0000000

  Atom        11          12          13          14          15          16          17          18          19          20
 IAtWgt=          12          16           1           1          12          12          12           1          12           1
 AtmWgt=  12.0000000  15.9949146   1.0078250   1.0078250  12.0000000  12.0000000  12.0000000   1.0078250  12.0000000   1.0078250
 NucSpn=           0           0           1           1           0           0           0           1           0           1
 AtZEff=  -0.0000000  -0.0000000  -0.0000000  -0.0000000  -0.0000000  -0.0000000  -0.0000000  -0.0000000  -0.0000000  -0.0000000
 NQMom=    0.0000000   0.0000000   0.0000000   0.0000000   0.0000000   0.0000000   0.0000000   0.0000000   0.0000000   0.0000000
 NMagM=    0.0000000   0.0000000   2.7928460   2.7928460   0.0000000   0.0000000   0.0000000   2.7928460   0.0000000   2.7928460
 AtZNuc=   6.0000000   8.0000000   1.0000000   1.0000000   6.0000000   6.0000000   6.0000000   1.0000000   6.0000000   1.0000000

  Atom        21          22          23          24
 IAtWgt=          12           1           1           1
 AtmWgt=  12.0000000   1.0078250   1.0078250   1.0078250
 NucSpn=           0           1           1           1
 AtZEff=  -0.0000000  -0.0000000  -0.0000000  -0.0000000
 NQMom=    0.0000000   0.0000000   0.0000000   0.0000000
 NMagM=    0.0000000   2.7928460   2.7928460   2.7928460
 AtZNuc=   6.0000000   1.0000000   1.0000000   1.0000000
 Leave Link  101 at Tue Nov 22 14:59:38 2022, MaxMem= 16106127360 cpu:               5.2 elap:               0.2
 (Enter /opt/ap/G16/B01/g16/l202.exe)
                          Input orientation:                          
 ---------------------------------------------------------------------
 Center     Atomic      Atomic             Coordinates (Angstroms)
 Number     Number       Type             X           Y           Z
 ---------------------------------------------------------------------
      1          6           0        0.000000    0.000000    0.000000
      2          6           0        0.000000    0.000000    1.397463
      3          6           0        1.221096    0.000000   -0.684705
      4          6           0        1.201650   -0.010697    2.101772
      5          1           0       -0.824276    0.007821    1.869996
      6          6           0       -1.253421   -0.110138   -0.810191
      7          6           0        2.414707    0.007815    0.021719
      8          1           0        1.232246   -0.005856   -1.634731
      9          6           0        2.403895   -0.006831    1.408800
     10          1           0        1.198494   -0.020531    3.051836
     11          6           0       -2.252374   -1.186457   -0.528835
     12          8           0       -1.463101    0.687606   -1.711137
     13          1           0        3.241298    0.023792   -0.445367
     14          1           0        3.224827   -0.014217    1.886678
     15          6           0       -2.457514   -1.707907    0.751011
     16          6           0       -3.063658   -1.615686   -1.586516
     17          6           0       -3.469625   -2.643251    0.964442
     18          1           0       -1.909561   -1.426152    1.473615
     19          6           0       -4.050936   -2.563050   -1.374204
     20          1           0       -2.935385   -1.254660   -2.455553
     21          6           0       -4.264827   -3.071865   -0.093157
     22          1           0       -3.616909   -2.988958    1.836793
     23          1           0       -4.582281   -2.865930   -2.100810
     24          1           0       -4.951993   -3.709669    0.056311
 ---------------------------------------------------------------------
                    Distance matrix (angstroms):
                    1          2          3          4          5
     1  C    0.000000
     2  C    1.397463   0.000000
     3  C    1.399963   2.413814   0.000000
     4  C    2.421058   1.392885   2.786566   0.000000
     5  H    2.043619   0.950147   3.272630   2.039225   0.000000
     6  C    1.496530   2.541049   2.480142   3.810091   2.716889
     7  C    2.414817   2.779127   1.387013   2.408002   3.729228
     8  H    2.047146   3.273021   0.950109   3.736632   4.063567
     9  C    2.786301   2.403931   2.404542   1.387667   3.260982
    10  H    3.278797   2.042977   3.736665   0.950119   2.342893
    11  C    2.600103   3.192412   3.673821   4.498087   3.036471
    12  O    2.354029   3.503835   2.954873   4.703913   3.700637
    13  H    3.271839   3.728619   2.034469   3.263323   4.678681
    14  H    3.736210   3.261755   3.259932   2.034583   4.049198
    15  C    3.085505   3.061735   4.302371   4.253770   2.619794
    16  C    3.809655   4.571714   4.667206   5.862790   4.426972
    17  C    4.467127   4.383216   5.631103   5.481301   3.853061
    18  H    2.802120   2.384562   4.061191   3.475303   1.841533
    19  C    4.986757   5.537278   5.902453   6.796070   5.248385
    20  H    4.027455   5.003638   4.688966   6.279468   4.976044
    21  C    5.256784   5.463245   6.315190   6.638586   5.017552
    22  H    5.038821   4.712633   6.220781   5.670870   4.096412
    23  H    5.798643   6.438072   6.625563   7.698565   6.176435
    24  H    6.187654   6.331080   7.240012   7.465496   5.843564
                    6          7          8          9         10
     6  C    0.000000
     7  C    3.763130   0.000000
     8  H    2.620930   2.035246   0.000000
     9  C    4.279082   1.387200   3.261263   0.000000
    10  H    4.575496   3.265208   4.686711   2.037829   0.000000
    11  C    1.495169   4.848818   3.841796   5.179458   5.107747
    12  O    1.221501   4.301430   2.784173   5.016961   5.501950
    13  H    4.511488   0.949567   2.334899   2.034727   4.050363
    14  H    5.228480   2.033434   4.046081   0.949923   2.337447
    15  C    2.537727   5.216714   4.712013   5.192267   4.637610
    16  C    2.479176   5.935878   4.587882   6.438514   6.498058
    17  C    3.804937   6.522441   5.984909   6.453402   5.746930
    18  H    2.716281   4.781586   4.642198   4.541429   3.758532
    19  C    3.763108   7.096653   5.875298   7.479586   7.321936
    20  H    2.616515   6.029444   4.427460   6.708070   6.995953
    21  C    4.284219   7.356208   6.480329   7.491472   7.003534
    22  H    4.569487   6.975352   6.668184   6.732484   5.785844
    23  H    4.510144   7.856296   6.496612   8.324569   8.250055
    24  H    5.233249   8.251616   7.404233   8.345617   7.772477
                   11         12         13         14         15
    11  C    0.000000
    12  O    2.352211   0.000000
    13  H    5.626019   4.916725   0.000000
    14  H    6.099884   5.950924   2.332413   0.000000
    15  C    1.397140   3.576242   6.075077   6.037162   0.000000
    16  C    1.400396   2.807573   6.613817   7.360219   2.416598
    17  C    2.415332   4.720113   7.357796   7.251071   1.394557
    18  H    2.045674   3.848369   5.684732   5.340986   0.949629
    19  C    2.417537   4.168594   7.793020   8.370581   2.790484
    20  H    2.045335   2.548367   6.620173   7.638186   3.273506
    21  C    2.791872   4.959954   8.127057   8.328498   2.416481
    22  H    3.272181   5.544711   7.830704   7.460625   2.040640
    23  H    3.274172   4.744339   8.502904   9.218637   3.740125
    24  H    3.741249   5.884919   9.017784   9.157893   3.272933
                   16         17         18         19         20
    16  C    0.000000
    17  C    2.779944   0.000000
    18  H    3.276013   2.043131   0.000000
    19  C    1.384664   2.411145   3.740066   0.000000
    20  H    0.949746   3.729607   4.064490   2.031171   0.000000
    21  C    2.406945   1.390889   3.272678   1.394891   3.263520
    22  H    3.729747   0.949843   2.342925   3.268069   4.679370
    23  H    2.033181   3.268541   4.689659   0.949747   2.331159
    24  H    3.263351   2.039453   4.059507   2.042795   4.050092
                   21         22         23         24
    21  C    0.000000
    22  H    2.037493   0.000000
    23  H    2.043001   4.056081   0.000000
    24  H    0.949386   2.339229   2.345581   0.000000
 Stoichiometry    C13H10O
 Framework group  C1[X(C13H10O)]
 Deg. of freedom    66
 Full point group                 C1      NOp   1
 Largest Abelian subgroup         C1      NOp   1
 Largest concise Abelian subgroup C1      NOp   1
                         Standard orientation:                         
 ---------------------------------------------------------------------
 Center     Atomic      Atomic             Coordinates (Angstroms)
 Number     Number       Type             X           Y           Z
 ---------------------------------------------------------------------
      1          6           0        1.311645    0.380355    0.238024
      2          6           0        1.609338   -0.905352    0.697632
      3          6           0        2.251136    1.062455   -0.544274
      4          6           0        2.823100   -1.506183    0.372191
      5          1           0        0.980528   -1.372253    1.235573
      6          6           0       -0.019712    1.029322    0.452349
      7          6           0        3.465714    0.466546   -0.850046
      8          1           0        2.056292    1.934701   -0.866656
      9          6           0        3.745644   -0.815776   -0.401030
     10          1           0        3.018692   -2.384234    0.677963
     11          6           0       -1.284346    0.308560    0.110687
     12          8           0       -0.074358    2.159997    0.911318
     13          1           0        4.107397    0.937804   -1.367575
     14          1           0        4.574120   -1.223254   -0.624507
     15          6           0       -1.405597   -1.080810    0.194043
     16          6           0       -2.404893    1.079817   -0.221944
     17          6           0       -2.639201   -1.684730   -0.047391
     18          1           0       -0.650317   -1.612477    0.414672
     19          6           0       -3.621541    0.473305   -0.485014
     20          1           0       -2.329537    2.025460   -0.267767
     21          6           0       -3.745188   -0.912621   -0.386823
     22          1           0       -2.724535   -2.628267    0.020862
     23          1           0       -4.371483    1.001134   -0.732004
     24          1           0       -4.582884   -1.327919   -0.551524
 ---------------------------------------------------------------------
 Rotational constants (GHZ):           1.6495621           0.4214772           0.3594879
 Leave Link  202 at Tue Nov 22 14:59:38 2022, MaxMem= 16106127360 cpu:               0.3 elap:               0.0
 (Enter /opt/ap/G16/B01/g16/l301.exe)
 Standard basis: 6-311++G(d,p) (5D, 7F)
 Ernie: Thresh=  0.10000D-02 Tol=  0.10000D-05 Strict=F.
 There are   392 symmetry adapted cartesian basis functions of A   symmetry.
 There are   378 symmetry adapted basis functions of A   symmetry.
   378 basis functions,   594 primitive gaussians,   392 cartesian basis functions
    48 alpha electrons       48 beta electrons
       nuclear repulsion energy       784.0608538004 Hartrees.
 IExCor= 4639 DFT=T Ex+Corr=wB97XD ExCW=0 ScaHFX=  1.000000
 ScaDFX=  1.000000  1.000000  1.000000  1.000000 ScalE2=  1.000000  1.000000
 IRadAn=      5 IRanWt=     -1 IRanGd=            0 ICorTp=0 IEmpDi=121
 HFx  wShort=  0.000000 wLong=  0.200000 cFull=  0.222036 cShort=  0.000000 cLong=  0.777964
 DFx  wShort=  0.000000 wLong=  0.200000 cFull=  0.000000 cShort=  0.000000 cLong=  1.000000
 NAtoms=   24 NActive=   24 NUniq=   24 SFac= 1.00D+00 NAtFMM=   60 NAOKFM=F Big=F
 Integral buffers will be    131072 words long.
 Raffenetti 2 integral format.
 Two-electron integral symmetry is turned on.
 R6Disp:  Grimme-D2 Dispersion energy=       -0.0140085728 Hartrees.
 Nuclear repulsion after empirical dispersion term =      784.0468452276 Hartrees.
 Leave Link  301 at Tue Nov 22 14:59:38 2022, MaxMem= 16106127360 cpu:               1.2 elap:               0.0
 (Enter /opt/ap/G16/B01/g16/l302.exe)
 NPDir=0 NMtPBC=     1 NCelOv=     1 NCel=       1 NClECP=     1 NCelD=      1
         NCelK=      1 NCelE2=     1 NClLst=     1 CellRange=     0.0.
 One-electron integrals computed using PRISM.
 One-electron integral symmetry used in STVInt
 NBasis=   378 RedAO= T EigKep=  1.39D-06  NBF=   378
 NBsUse=   376 1.00D-06 EigRej=  7.90D-07 NBFU=   376
 Precomputing XC quadrature grid using
 IXCGrd= 4 IRadAn=           5 IRanWt=          -1 IRanGd=           0 AccXCQ= 0.00D+00.
 Generated NRdTot=       0 NPtTot=           0 NUsed=           0 NTot=          32
 NSgBfM=   392   392   392   392   392 MxSgAt=    24 MxSgA2=    24.
 Leave Link  302 at Tue Nov 22 14:59:38 2022, MaxMem= 16106127360 cpu:               8.5 elap:               0.3
 (Enter /opt/ap/G16/B01/g16/l303.exe)
 DipDrv:  MaxL=1.
 Leave Link  303 at Tue Nov 22 14:59:38 2022, MaxMem= 16106127360 cpu:               1.6 elap:               0.1
 (Enter /opt/ap/G16/B01/g16/l401.exe)
 ExpMin= 3.60D-02 ExpMax= 8.59D+03 ExpMxC= 1.30D+03 IAcc=3 IRadAn=         5 AccDes= 0.00D+00
 Harris functional with IExCor= 4639 and IRadAn=       5 diagonalized for initial guess.
 HarFok:  IExCor= 4639 AccDes= 0.00D+00 IRadAn=         5 IDoV= 1 UseB2=F ITyADJ=14
 ICtDFT=  3500011 ScaDFX=  1.000000  1.000000  1.000000  1.000000
 FoFCou: FMM=F IPFlag=           0 FMFlag=      100000 FMFlg1=           0
         NFxFlg=           0 DoJE=T BraDBF=F KetDBF=T FulRan=T
         wScrn=  0.000000 ICntrl=       500 IOpCl=  0 I1Cent=   200000004 NGrid=           0
         NMat0=    1 NMatS0=      1 NMatT0=    0 NMatD0=    1 NMtDS0=    0 NMtDT0=    0
 Petite list used in FoFCou.
 Harris En= -550.897958002260    
 JPrj=0 DoOrth=F DoCkMO=F.
 Leave Link  401 at Tue Nov 22 14:59:39 2022, MaxMem= 16106127360 cpu:              22.9 elap:               0.7
 (Enter /opt/ap/G16/B01/g16/l502.exe)
 Integral symmetry usage will be decided dynamically.
 Closed shell SCF:
 Using DIIS extrapolation, IDIIS=  1040.
 NGot= 16106127360 LenX= 16105803762 LenY= 16105649657
 Requested convergence on RMS density matrix=1.00D-08 within 512 cycles.
 Requested convergence on MAX density matrix=1.00D-06.
 Requested convergence on             energy=1.00D-06.
 No special actions if energy rises.
 Fock matrices will be formed incrementally for  20 cycles.

 Cycle   1  Pass 1  IDiag  1:
 FoFJK:  IHMeth= 1 ICntrl=       0 DoSepK=T KAlg= 0 I1Cent=           0 FoldK=F
 IRaf=         1 NMat=       1 IRICut=       1 DoRegI=T DoRafI=F ISym2E= 0 IDoP0=0 IntGTp=1.
 FoFCou: FMM=F IPFlag=           0 FMFlag=      100000 FMFlg1=           0
         NFxFlg=           0 DoJE=T BraDBF=F KetDBF=F FulRan=T
         wScrn=  0.000000 ICntrl=       500 IOpCl=  0 I1Cent=           0 NGrid=           0
         NMat0=    1 NMatS0=      1 NMatT0=    0 NMatD0=    1 NMtDS0=    0 NMtDT0=    0
 Symmetry not used in FoFCou.
 E= -576.255076498142    
 DIIS: error= 4.96D-02 at cycle   1 NSaved=   1.
 NSaved= 1 IEnMin= 1 EnMin= -576.255076498142     IErMin= 1 ErrMin= 4.96D-02
 ErrMax= 4.96D-02  0.00D+00 EMaxC= 1.00D-01 BMatC= 1.20D+00 BMatP= 1.20D+00
 IDIUse=3 WtCom= 5.04D-01 WtEn= 4.96D-01
 Coeff-Com:  0.100D+01
 Coeff-En:   0.100D+01
 Coeff:      0.100D+01
 Gap=     0.409 Goal=   None    Shift=    0.000
 GapD=    0.409 DampG=2.000 DampE=0.500 DampFc=1.0000 IDamp=-1.
 RMSDP=2.92D-02 MaxDP=4.99D+00              OVMax= 1.26D-01

 Cycle   2  Pass 1  IDiag  1:
 RMSU=  1.44D-02    CP:  6.79D-01
 E= -576.345231058617     Delta-E=       -0.090154560475 Rises=F Damp=F
 DIIS: error= 1.22D-02 at cycle   2 NSaved=   2.
 NSaved= 2 IEnMin= 2 EnMin= -576.345231058617     IErMin= 2 ErrMin= 1.22D-02
 ErrMax= 1.22D-02  0.00D+00 EMaxC= 1.00D-01 BMatC= 7.48D-02 BMatP= 1.20D+00
 IDIUse=3 WtCom= 8.78D-01 WtEn= 1.22D-01
 Coeff-Com:  0.126D+00 0.874D+00
 Coeff-En:   0.142D+00 0.858D+00
 Coeff:      0.128D+00 0.872D+00
 Gap=     0.432 Goal=   None    Shift=    0.000
 RMSDP=8.36D-03 MaxDP=5.69D-01 DE=-9.02D-02 OVMax= 1.53D-01

 Cycle   3  Pass 1  IDiag  1:
 RMSU=  6.11D-03    CP:  6.64D-01  6.13D-01
 E= -576.362971088862     Delta-E=       -0.017740030245 Rises=F Damp=F
 DIIS: error= 1.23D-02 at cycle   3 NSaved=   3.
 NSaved= 3 IEnMin= 3 EnMin= -576.362971088862     IErMin= 2 ErrMin= 1.22D-02
 ErrMax= 1.23D-02  0.00D+00 EMaxC= 1.00D-01 BMatC= 5.34D-02 BMatP= 7.48D-02
 IDIUse=3 WtCom= 8.77D-01 WtEn= 1.23D-01
 Coeff-Com:  0.237D-01 0.461D+00 0.515D+00
 Coeff-En:   0.000D+00 0.425D+00 0.575D+00
 Coeff:      0.208D-01 0.457D+00 0.522D+00
 Gap=     0.350 Goal=   None    Shift=    0.000
 RMSDP=4.77D-03 MaxDP=6.03D-01 DE=-1.77D-02 OVMax= 5.51D-02

 Cycle   4  Pass 1  IDiag  1:
 RMSU=  1.81D-03    CP:  6.28D-01  7.58D-01  5.74D-01
 E= -576.410411913571     Delta-E=       -0.047440824710 Rises=F Damp=F
 DIIS: error= 1.69D-03 at cycle   4 NSaved=   4.
 NSaved= 4 IEnMin= 4 EnMin= -576.410411913571     IErMin= 4 ErrMin= 1.69D-03
 ErrMax= 1.69D-03  0.00D+00 EMaxC= 1.00D-01 BMatC= 8.22D-04 BMatP= 5.34D-02
 IDIUse=3 WtCom= 9.83D-01 WtEn= 1.69D-02
 Coeff-Com:  0.928D-02 0.192D+00 0.238D+00 0.560D+00
 Coeff-En:   0.000D+00 0.000D+00 0.000D+00 0.100D+01
 Coeff:      0.913D-02 0.189D+00 0.234D+00 0.568D+00
 Gap=     0.322 Goal=   None    Shift=    0.000
 RMSDP=5.77D-04 MaxDP=3.75D-02 DE=-4.74D-02 OVMax= 6.30D-03

 Cycle   5  Pass 1  IDiag  1:
 RMSU=  4.69D-04    CP:  6.26D-01  7.79D-01  5.78D-01  1.02D+00
 E= -576.410991964046     Delta-E=       -0.000580050475 Rises=F Damp=F
 DIIS: error= 5.20D-04 at cycle   5 NSaved=   5.
 NSaved= 5 IEnMin= 5 EnMin= -576.410991964046     IErMin= 5 ErrMin= 5.20D-04
 ErrMax= 5.20D-04  0.00D+00 EMaxC= 1.00D-01 BMatC= 7.74D-05 BMatP= 8.22D-04
 IDIUse=3 WtCom= 9.95D-01 WtEn= 5.20D-03
 Coeff-Com: -0.586D-03-0.831D-02-0.531D-03 0.221D+00 0.789D+00
 Coeff-En:   0.000D+00 0.000D+00 0.000D+00 0.000D+00 0.100D+01
 Coeff:     -0.583D-03-0.826D-02-0.528D-03 0.220D+00 0.790D+00
 Gap=     0.323 Goal=   None    Shift=    0.000
 RMSDP=3.18D-04 MaxDP=3.42D-02 DE=-5.80D-04 OVMax= 2.40D-03

 Cycle   6  Pass 1  IDiag  1:
 RMSU=  2.57D-04    CP:  6.24D-01  7.85D-01  5.91D-01  1.04D+00  9.01D-01
 E= -576.411050735564     Delta-E=       -0.000058771518 Rises=F Damp=F
 DIIS: error= 2.25D-04 at cycle   6 NSaved=   6.
 NSaved= 6 IEnMin= 6 EnMin= -576.411050735564     IErMin= 6 ErrMin= 2.25D-04
 ErrMax= 2.25D-04  0.00D+00 EMaxC= 1.00D-01 BMatC= 1.83D-05 BMatP= 7.74D-05
 IDIUse=3 WtCom= 9.98D-01 WtEn= 2.25D-03
 Coeff-Com: -0.122D-02-0.230D-01-0.227D-01 0.658D-01 0.434D+00 0.548D+00
 Coeff-En:   0.000D+00 0.000D+00 0.000D+00 0.000D+00 0.000D+00 0.100D+01
 Coeff:     -0.122D-02-0.230D-01-0.227D-01 0.657D-01 0.433D+00 0.549D+00
 Gap=     0.324 Goal=   None    Shift=    0.000
 RMSDP=9.52D-05 MaxDP=5.40D-03 DE=-5.88D-05 OVMax= 1.25D-03

 Cycle   7  Pass 1  IDiag  1:
 RMSU=  7.01D-05    CP:  6.24D-01  7.86D-01  5.89D-01  1.07D+00  9.34D-01
                    CP:  8.84D-01
 E= -576.411069353976     Delta-E=       -0.000018618412 Rises=F Damp=F
 DIIS: error= 5.16D-05 at cycle   7 NSaved=   7.
 NSaved= 7 IEnMin= 7 EnMin= -576.411069353976     IErMin= 7 ErrMin= 5.16D-05
 ErrMax= 5.16D-05  0.00D+00 EMaxC= 1.00D-01 BMatC= 4.89D-07 BMatP= 1.83D-05
 IDIUse=1 WtCom= 1.00D+00 WtEn= 0.00D+00
 Coeff-Com: -0.227D-03-0.438D-02-0.518D-02-0.105D-01-0.874D-02 0.109D+00
 Coeff-Com:  0.920D+00
 Coeff:     -0.227D-03-0.438D-02-0.518D-02-0.105D-01-0.874D-02 0.109D+00
 Coeff:      0.920D+00
 Gap=     0.324 Goal=   None    Shift=    0.000
 RMSDP=3.99D-05 MaxDP=2.66D-03 DE=-1.86D-05 OVMax= 5.00D-04

 Cycle   8  Pass 1  IDiag  1:
 RMSU=  1.45D-05    CP:  6.24D-01  7.87D-01  5.90D-01  1.08D+00  9.47D-01
                    CP:  1.01D+00  1.08D+00
 E= -576.411070538161     Delta-E=       -0.000001184185 Rises=F Damp=F
 DIIS: error= 1.32D-05 at cycle   8 NSaved=   8.
 NSaved= 8 IEnMin= 8 EnMin= -576.411070538161     IErMin= 8 ErrMin= 1.32D-05
 ErrMax= 1.32D-05  0.00D+00 EMaxC= 1.00D-01 BMatC= 8.27D-08 BMatP= 4.89D-07
 IDIUse=1 WtCom= 1.00D+00 WtEn= 0.00D+00
 Coeff-Com:  0.497D-04 0.731D-03 0.299D-03-0.126D-01-0.577D-01-0.223D-01
 Coeff-Com:  0.320D+00 0.771D+00
 Coeff:      0.497D-04 0.731D-03 0.299D-03-0.126D-01-0.577D-01-0.223D-01
 Coeff:      0.320D+00 0.771D+00
 Gap=     0.324 Goal=   None    Shift=    0.000
 RMSDP=1.24D-05 MaxDP=1.02D-03 DE=-1.18D-06 OVMax= 1.69D-04

 Cycle   9  Pass 1  IDiag  1:
 RMSU=  5.08D-06    CP:  6.25D-01  7.87D-01  5.90D-01  1.08D+00  9.48D-01
                    CP:  1.03D+00  1.12D+00  1.21D+00
 E= -576.411070697957     Delta-E=       -0.000000159796 Rises=F Damp=F
 DIIS: error= 5.21D-06 at cycle   9 NSaved=   9.
 NSaved= 9 IEnMin= 9 EnMin= -576.411070697957     IErMin= 9 ErrMin= 5.21D-06
 ErrMax= 5.21D-06  0.00D+00 EMaxC= 1.00D-01 BMatC= 5.79D-09 BMatP= 8.27D-08
 IDIUse=1 WtCom= 1.00D+00 WtEn= 0.00D+00
 Coeff-Com:  0.393D-04 0.694D-03 0.685D-03-0.874D-03-0.100D-01-0.159D-01
 Coeff-Com: -0.567D-01 0.150D+00 0.932D+00
 Coeff:      0.393D-04 0.694D-03 0.685D-03-0.874D-03-0.100D-01-0.159D-01
 Coeff:     -0.567D-01 0.150D+00 0.932D+00
 Gap=     0.324 Goal=   None    Shift=    0.000
 RMSDP=6.82D-06 MaxDP=6.38D-04 DE=-1.60D-07 OVMax= 7.00D-05

 Cycle  10  Pass 1  IDiag  1:
 RMSU=  2.11D-06    CP:  6.25D-01  7.87D-01  5.90D-01  1.07D+00  9.43D-01
                    CP:  1.04D+00  1.13D+00  1.37D+00  1.31D+00
 E= -576.411070713104     Delta-E=       -0.000000015146 Rises=F Damp=F
 DIIS: error= 8.05D-07 at cycle  10 NSaved=  10.
 NSaved=10 IEnMin=10 EnMin= -576.411070713104     IErMin=10 ErrMin= 8.05D-07
 ErrMax= 8.05D-07  0.00D+00 EMaxC= 1.00D-01 BMatC= 4.28D-10 BMatP= 5.79D-09
 IDIUse=1 WtCom= 1.00D+00 WtEn= 0.00D+00
 Coeff-Com: -0.124D-05 0.580D-05 0.293D-04 0.119D-02 0.393D-02 0.144D-02
 Coeff-Com: -0.283D-01-0.529D-01 0.937D-01 0.981D+00
 Coeff:     -0.124D-05 0.580D-05 0.293D-04 0.119D-02 0.393D-02 0.144D-02
 Coeff:     -0.283D-01-0.529D-01 0.937D-01 0.981D+00
 Gap=     0.324 Goal=   None    Shift=    0.000
 RMSDP=1.62D-06 MaxDP=9.64D-05 DE=-1.51D-08 OVMax= 1.48D-05

 Cycle  11  Pass 1  IDiag  1:
 RMSU=  7.37D-07    CP:  6.25D-01  7.87D-01  5.90D-01  1.07D+00  9.41D-01
                    CP:  1.04D+00  1.13D+00  1.41D+00  1.39D+00  1.08D+00
 E= -576.411070714118     Delta-E=       -0.000000001015 Rises=F Damp=F
 DIIS: error= 3.04D-07 at cycle  11 NSaved=  11.
 NSaved=11 IEnMin=11 EnMin= -576.411070714118     IErMin=11 ErrMin= 3.04D-07
 ErrMax= 3.04D-07  0.00D+00 EMaxC= 1.00D-01 BMatC= 6.97D-11 BMatP= 4.28D-10
 IDIUse=1 WtCom= 1.00D+00 WtEn= 0.00D+00
 Coeff-Com: -0.267D-05-0.368D-04-0.306D-04 0.496D-03 0.185D-02 0.140D-02
 Coeff-Com: -0.600D-02-0.291D-01-0.330D-01 0.324D+00 0.740D+00
 Coeff:     -0.267D-05-0.368D-04-0.306D-04 0.496D-03 0.185D-02 0.140D-02
 Coeff:     -0.600D-02-0.291D-01-0.330D-01 0.324D+00 0.740D+00
 Gap=     0.324 Goal=   None    Shift=    0.000
 RMSDP=4.43D-07 MaxDP=4.56D-05 DE=-1.01D-09 OVMax= 3.96D-06

 Cycle  12  Pass 1  IDiag  1:
 RMSU=  2.02D-07    CP:  6.25D-01  7.87D-01  5.90D-01  1.07D+00  9.41D-01
                    CP:  1.04D+00  1.13D+00  1.41D+00  1.42D+00  1.13D+00
                    CP:  1.13D+00
 E= -576.411070714234     Delta-E=       -0.000000000115 Rises=F Damp=F
 DIIS: error= 1.30D-07 at cycle  12 NSaved=  12.
 NSaved=12 IEnMin=12 EnMin= -576.411070714234     IErMin=12 ErrMin= 1.30D-07
 ErrMax= 1.30D-07  0.00D+00 EMaxC= 1.00D-01 BMatC= 5.78D-12 BMatP= 6.97D-11
 IDIUse=1 WtCom= 1.00D+00 WtEn= 0.00D+00
 Coeff-Com: -0.201D-06-0.681D-05-0.104D-04-0.643D-04-0.278D-03 0.105D-04
 Coeff-Com:  0.309D-02 0.280D-02-0.168D-01-0.793D-01 0.959D-01 0.995D+00
 Coeff:     -0.201D-06-0.681D-05-0.104D-04-0.643D-04-0.278D-03 0.105D-04
 Coeff:      0.309D-02 0.280D-02-0.168D-01-0.793D-01 0.959D-01 0.995D+00
 Gap=     0.324 Goal=   None    Shift=    0.000
 RMSDP=1.65D-07 MaxDP=9.79D-06 DE=-1.15D-10 OVMax= 2.16D-06

 Cycle  13  Pass 1  IDiag  1:
 RMSU=  7.02D-08    CP:  6.25D-01  7.87D-01  5.90D-01  1.07D+00  9.41D-01
                    CP:  1.04D+00  1.13D+00  1.41D+00  1.42D+00  1.14D+00
                    CP:  1.23D+00  1.16D+00
 E= -576.411070714248     Delta-E=       -0.000000000015 Rises=F Damp=F
 DIIS: error= 6.50D-08 at cycle  13 NSaved=  13.
 NSaved=13 IEnMin=13 EnMin= -576.411070714248     IErMin=13 ErrMin= 6.50D-08
 ErrMax= 6.50D-08  0.00D+00 EMaxC= 1.00D-01 BMatC= 1.33D-12 BMatP= 5.78D-12
 IDIUse=1 WtCom= 1.00D+00 WtEn= 0.00D+00
 Coeff-Com:  0.205D-06 0.117D-05-0.789D-06-0.755D-04-0.300D-03-0.163D-03
 Coeff-Com:  0.170D-02 0.404D-02-0.241D-02-0.631D-01-0.513D-01 0.387D+00
 Coeff-Com:  0.725D+00
 Coeff:      0.205D-06 0.117D-05-0.789D-06-0.755D-04-0.300D-03-0.163D-03
 Coeff:      0.170D-02 0.404D-02-0.241D-02-0.631D-01-0.513D-01 0.387D+00
 Coeff:      0.725D+00
 Gap=     0.324 Goal=   None    Shift=    0.000
 RMSDP=4.82D-08 MaxDP=4.97D-06 DE=-1.46D-11 OVMax= 6.78D-07

 Cycle  14  Pass 1  IDiag  1:
 RMSU=  2.43D-08    CP:  6.25D-01  7.87D-01  5.90D-01  1.07D+00  9.41D-01
                    CP:  1.04D+00  1.13D+00  1.41D+00  1.42D+00  1.14D+00
                    CP:  1.27D+00  1.20D+00  9.70D-01
 E= -576.411070714249     Delta-E=       -0.000000000001 Rises=F Damp=F
 DIIS: error= 2.85D-08 at cycle  14 NSaved=  14.
 NSaved=14 IEnMin=14 EnMin= -576.411070714249     IErMin=14 ErrMin= 2.85D-08
 ErrMax= 2.85D-08  0.00D+00 EMaxC= 1.00D-01 BMatC= 1.44D-13 BMatP= 1.33D-12
 IDIUse=1 WtCom= 1.00D+00 WtEn= 0.00D+00
 Coeff-Com:  0.683D-07 0.136D-05 0.177D-05-0.772D-05-0.191D-04-0.459D-04
 Coeff-Com: -0.126D-03 0.399D-03 0.208D-02-0.123D-02-0.284D-01-0.759D-01
 Coeff-Com:  0.114D+00 0.989D+00
 Coeff:      0.683D-07 0.136D-05 0.177D-05-0.772D-05-0.191D-04-0.459D-04
 Coeff:     -0.126D-03 0.399D-03 0.208D-02-0.123D-02-0.284D-01-0.759D-01
 Coeff:      0.114D+00 0.989D+00
 Gap=     0.324 Goal=   None    Shift=    0.000
 RMSDP=2.27D-08 MaxDP=1.91D-06 DE=-1.14D-12 OVMax= 4.16D-07

 Cycle  15  Pass 1  IDiag  1:
 RMSU=  8.68D-09    CP:  6.25D-01  7.87D-01  5.90D-01  1.07D+00  9.41D-01
                    CP:  1.04D+00  1.13D+00  1.41D+00  1.42D+00  1.14D+00
                    CP:  1.27D+00  1.20D+00  1.17D+00  1.10D+00
 E= -576.411070714240     Delta-E=        0.000000000009 Rises=F Damp=F
 DIIS: error= 1.09D-08 at cycle  15 NSaved=  15.
 NSaved=15 IEnMin=14 EnMin= -576.411070714249     IErMin=15 ErrMin= 1.09D-08
 ErrMax= 1.09D-08  0.00D+00 EMaxC= 1.00D-01 BMatC= 3.58D-14 BMatP= 1.44D-13
 IDIUse=1 WtCom= 1.00D+00 WtEn= 0.00D+00
 Coeff-Com: -0.967D-08 0.334D-06 0.886D-06 0.105D-04 0.466D-04 0.132D-04
 Coeff-Com: -0.332D-03-0.544D-03 0.131D-02 0.110D-01-0.269D-03-0.911D-01
 Coeff-Com: -0.877D-01 0.366D+00 0.802D+00
 Coeff:     -0.967D-08 0.334D-06 0.886D-06 0.105D-04 0.466D-04 0.132D-04
 Coeff:     -0.332D-03-0.544D-03 0.131D-02 0.110D-01-0.269D-03-0.911D-01
 Coeff:     -0.877D-01 0.366D+00 0.802D+00
 Gap=     0.324 Goal=   None    Shift=    0.000
 RMSDP=7.85D-09 MaxDP=8.66D-07 DE= 8.87D-12 OVMax= 1.58D-07

 SCF Done:  E(RwB97XD) =  -576.411070714     A.U. after   15 cycles
            NFock= 15  Conv=0.78D-08     -V/T= 2.0000
 KE= 5.764284862745D+02 PE=-2.910223332694D+03 EE= 9.733369304780D+02
 Leave Link  502 at Tue Nov 22 15:00:16 2022, MaxMem= 16106127360 cpu:            1181.0 elap:              37.2
 (Enter /opt/ap/G16/B01/g16/l601.exe)
 Copying SCF densities to generalized density rwf, IOpCl= 0 IROHF=0.

 **********************************************************************

            Population analysis using the SCF Density.

 **********************************************************************

 Orbital symmetries:
       Occupied  (A) (A) (A) (A) (A) (A) (A) (A) (A) (A) (A) (A)
                 (A) (A) (A) (A) (A) (A) (A) (A) (A) (A) (A) (A)
                 (A) (A) (A) (A) (A) (A) (A) (A) (A) (A) (A) (A)
                 (A) (A) (A) (A) (A) (A) (A) (A) (A) (A) (A) (A)
       Virtual   (A) (A) (A) (A) (A) (A) (A) (A) (A) (A) (A) (A)
                 (A) (A) (A) (A) (A) (A) (A) (A) (A) (A) (A) (A)
                 (A) (A) (A) (A) (A) (A) (A) (A) (A) (A) (A) (A)
                 (A) (A) (A) (A) (A) (A) (A) (A) (A) (A) (A) (A)
                 (A) (A) (A) (A) (A) (A) (A) (A) (A) (A) (A) (A)
                 (A) (A) (A) (A) (A) (A) (A) (A) (A) (A) (A) (A)
                 (A) (A) (A) (A) (A) (A) (A) (A) (A) (A) (A) (A)
                 (A) (A) (A) (A) (A) (A) (A) (A) (A) (A) (A) (A)
                 (A) (A) (A) (A) (A) (A) (A) (A) (A) (A) (A) (A)
                 (A) (A) (A) (A) (A) (A) (A) (A) (A) (A) (A) (A)
                 (A) (A) (A) (A) (A) (A) (A) (A) (A) (A) (A) (A)
                 (A) (A) (A) (A) (A) (A) (A) (A) (A) (A) (A) (A)
                 (A) (A) (A) (A) (A) (A) (A) (A) (A) (A) (A) (A)
                 (A) (A) (A) (A) (A) (A) (A) (A) (A) (A) (A) (A)
                 (A) (A) (A) (A) (A) (A) (A) (A) (A) (A) (A) (A)
                 (A) (A) (A) (A) (A) (A) (A) (A) (A) (A) (A) (A)
                 (A) (A) (A) (A) (A) (A) (A) (A) (A) (A) (A) (A)
                 (A) (A) (A) (A) (A) (A) (A) (A) (A) (A) (A) (A)
                 (A) (A) (A) (A) (A) (A) (A) (A) (A) (A) (A) (A)
                 (A) (A) (A) (A) (A) (A) (A) (A) (A) (A) (A) (A)
                 (A) (A) (A) (A) (A) (A) (A) (A) (A) (A) (A) (A)
                 (A) (A) (A) (A) (A) (A) (A) (A) (A) (A) (A) (A)
                 (A) (A) (A) (A) (A) (A) (A) (A) (A) (A) (A) (A)
                 (A) (A) (A) (A) (A) (A) (A) (A) (A) (A) (A) (A)
                 (A) (A) (A) (A) (A) (A) (A) (A) (A) (A) (A) (A)
                 (A) (A) (A) (A) (A) (A) (A) (A) (A) (A) (A) (A)
                 (A) (A) (A) (A) (A) (A) (A) (A) (A) (A) (A) (A)
                 (A) (A) (A) (A)
 The electronic state is 1-A.
 Alpha  occ. eigenvalues --  -19.24049 -10.38389 -10.30719 -10.30664 -10.29023
 Alpha  occ. eigenvalues --  -10.28900 -10.28675 -10.28552 -10.28521 -10.28486
 Alpha  occ. eigenvalues --  -10.28464 -10.28292 -10.28259 -10.28168  -1.15041
 Alpha  occ. eigenvalues --   -0.98028  -0.97437  -0.89288  -0.87508  -0.87349
 Alpha  occ. eigenvalues --   -0.86763  -0.76896  -0.74325  -0.73456  -0.72515
 Alpha  occ. eigenvalues --   -0.68182  -0.65275  -0.63590  -0.60037  -0.57199
 Alpha  occ. eigenvalues --   -0.56407  -0.55764  -0.54382  -0.53912  -0.53420
 Alpha  occ. eigenvalues --   -0.52496  -0.49573  -0.47356  -0.46935  -0.46076
 Alpha  occ. eigenvalues --   -0.45711  -0.44810  -0.44345  -0.35228  -0.34687
 Alpha  occ. eigenvalues --   -0.34400  -0.34068  -0.32945
 Alpha virt. eigenvalues --   -0.00568   0.03519   0.03882   0.04332   0.04790
 Alpha virt. eigenvalues --    0.04866   0.04923   0.05748   0.05897   0.07261
 Alpha virt. eigenvalues --    0.07502   0.08176   0.09146   0.09835   0.10198
 Alpha virt. eigenvalues --    0.11579   0.11770   0.12467   0.13169   0.14222
 Alpha virt. eigenvalues --    0.15138   0.15447   0.15765   0.16182   0.16676
 Alpha virt. eigenvalues --    0.16904   0.17020   0.17313   0.17569   0.17930
 Alpha virt. eigenvalues --    0.18183   0.18639   0.19079   0.19255   0.19573
 Alpha virt. eigenvalues --    0.19821   0.20135   0.20731   0.21182   0.21595
 Alpha virt. eigenvalues --    0.21806   0.22251   0.22687   0.23411   0.23744
 Alpha virt. eigenvalues --    0.24445   0.24613   0.24769   0.25355   0.25636
 Alpha virt. eigenvalues --    0.25777   0.26921   0.27201   0.27906   0.28545
 Alpha virt. eigenvalues --    0.28931   0.29197   0.30216   0.30981   0.31079
 Alpha virt. eigenvalues --    0.31416   0.32502   0.32629   0.33222   0.33737
 Alpha virt. eigenvalues --    0.34053   0.34556   0.35359   0.35451   0.35711
 Alpha virt. eigenvalues --    0.36843   0.36912   0.37230   0.38145   0.38403
 Alpha virt. eigenvalues --    0.38890   0.39169   0.40801   0.41307   0.41762
 Alpha virt. eigenvalues --    0.42296   0.43114   0.43369   0.44610   0.45182
 Alpha virt. eigenvalues --    0.45736   0.46083   0.46573   0.47312   0.47959
 Alpha virt. eigenvalues --    0.50874   0.56391   0.57182   0.57994   0.59654
 Alpha virt. eigenvalues --    0.61012   0.62348   0.62726   0.63391   0.63670
 Alpha virt. eigenvalues --    0.63993   0.64361   0.65212   0.65424   0.65475
 Alpha virt. eigenvalues --    0.66657   0.67550   0.67699   0.68451   0.69734
 Alpha virt. eigenvalues --    0.70759   0.71653   0.72411   0.73733   0.74441
 Alpha virt. eigenvalues --    0.75285   0.76089   0.77228   0.77551   0.78880
 Alpha virt. eigenvalues --    0.79888   0.80490   0.81158   0.82415   0.82737
 Alpha virt. eigenvalues --    0.83477   0.83787   0.84800   0.87341   0.87564
 Alpha virt. eigenvalues --    0.89036   0.90473   0.91790   0.93399   0.93734
 Alpha virt. eigenvalues --    0.94002   0.94311   0.94942   0.95337   0.95792
 Alpha virt. eigenvalues --    0.97048   0.97426   0.99517   1.00354   1.01502
 Alpha virt. eigenvalues --    1.01897   1.02455   1.03879   1.04218   1.05647
 Alpha virt. eigenvalues --    1.06842   1.07624   1.11005   1.11983   1.13087
 Alpha virt. eigenvalues --    1.13773   1.16491   1.17119   1.17833   1.17924
 Alpha virt. eigenvalues --    1.19639   1.20985   1.22395   1.24933   1.25873
 Alpha virt. eigenvalues --    1.28440   1.30131   1.32220   1.36127   1.38871
 Alpha virt. eigenvalues --    1.39301   1.44351   1.46500   1.47534   1.54922
 Alpha virt. eigenvalues --    1.56868   1.58572   1.59449   1.59580   1.61842
 Alpha virt. eigenvalues --    1.62453   1.62752   1.64878   1.65524   1.66444
 Alpha virt. eigenvalues --    1.68103   1.68254   1.68692   1.69206   1.72983
 Alpha virt. eigenvalues --    1.74473   1.75696   1.76485   1.76553   1.78700
 Alpha virt. eigenvalues --    1.79850   1.80979   1.86298   1.86949   1.88616
 Alpha virt. eigenvalues --    1.88952   1.91018   1.92183   1.93005   1.93910
 Alpha virt. eigenvalues --    1.96209   1.96599   1.98897   1.99815   2.00720
 Alpha virt. eigenvalues --    2.01510   2.02841   2.04671   2.05030   2.05824
 Alpha virt. eigenvalues --    2.06392   2.06928   2.08992   2.10173   2.10559
 Alpha virt. eigenvalues --    2.11379   2.14479   2.15523   2.19092   2.20966
 Alpha virt. eigenvalues --    2.23689   2.25546   2.27583   2.28160   2.30940
 Alpha virt. eigenvalues --    2.32279   2.42678   2.44229   2.47210   2.48522
 Alpha virt. eigenvalues --    2.49110   2.50109   2.50770   2.51093   2.53234
 Alpha virt. eigenvalues --    2.58874   2.59602   2.61229   2.66664   2.68850
 Alpha virt. eigenvalues --    2.74140   2.77029   2.78398   2.80944   2.81628
 Alpha virt. eigenvalues --    2.82797   2.83627   2.84288   2.87104   2.90277
 Alpha virt. eigenvalues --    2.91533   2.92244   2.93956   2.95093   2.95460
 Alpha virt. eigenvalues --    2.97384   2.98373   2.98744   3.00047   3.00481
 Alpha virt. eigenvalues --    3.00520   3.01900   3.02126   3.02904   3.05023
 Alpha virt. eigenvalues --    3.05987   3.10267   3.13826   3.14262   3.16535
 Alpha virt. eigenvalues --    3.20006   3.21544   3.22459   3.25089   3.26008
 Alpha virt. eigenvalues --    3.28391   3.31074   3.32425   3.36667   3.45016
 Alpha virt. eigenvalues --    3.48614   3.49921   3.51540   3.52933   3.64961
 Alpha virt. eigenvalues --    3.69161   3.71066   3.72486   3.74924   3.77415
 Alpha virt. eigenvalues --    3.83233   3.88804   3.90954   3.97895   4.31486
 Alpha virt. eigenvalues --    4.36578   4.37852   4.39106   4.40646   4.42488
 Alpha virt. eigenvalues --    4.43049   4.51104   4.51706   4.54311   4.95151
 Alpha virt. eigenvalues --    4.95857   5.22167   5.35304   5.84542  23.87747
 Alpha virt. eigenvalues --   23.96448  23.98642  24.17108  24.18697  24.24236
 Alpha virt. eigenvalues --   24.24906  24.30162  24.31148  24.34036  24.34097
 Alpha virt. eigenvalues --   24.43772  24.44199  50.14069
          Condensed to atoms (all electrons):
               1          2          3          4          5          6
     1  C   15.640235  -0.758360   0.534512  -0.946562  -0.025146  -6.950622
     2  C   -0.758360  10.421850  -4.024236  -0.193449   0.425623   0.323137
     3  C    0.534512  -4.024236  13.492448  -0.020096   0.000061  -4.659883
     4  C   -0.946562  -0.193449  -0.020096   6.100879  -0.056774   0.649614
     5  H   -0.025146   0.425623   0.000061  -0.056774   0.566364   0.033313
     6  C   -6.950622   0.323137  -4.659883   0.649614   0.033313  20.981883
     7  C   -0.780795   0.561693  -0.785555  -0.147530   0.027161   0.722737
     8  H    0.117939   0.018839   0.455249  -0.000436  -0.000064  -0.079649
     9  C   -0.131872  -0.676103   0.656263   0.479189  -0.055145  -0.480216
    10  H   -0.018068  -0.074555  -0.013317   0.484106  -0.009139   0.016199
    11  C   -2.301430   0.789647   0.641037   0.274928   0.016793  -3.975938
    12  O    0.139572   0.141523  -0.131803   0.018464  -0.010409   0.202463
    13  H   -0.007124   0.008655  -0.093341   0.014593   0.001927   0.023330
    14  H    0.042804  -0.009339   0.014786  -0.085318  -0.000874  -0.027873
    15  C    2.089941  -1.190027   1.144400  -0.304295  -0.105738  -1.359445
    16  C   -1.129137   0.243938  -0.607876   0.071196   0.020797   0.881325
    17  C   -0.138388   0.106609  -0.405294  -0.064413   0.005947   0.577882
    18  H    0.146860  -0.115014   0.156075  -0.083755  -0.044594  -0.132728
    19  C   -0.675457   0.187966  -0.040844   0.006695   0.004219   0.102390
    20  H   -0.038473   0.014982  -0.042248   0.001257  -0.000773   0.033858
    21  C    0.233027  -0.200137   0.112331  -0.018558  -0.004664   0.070353
    22  H   -0.039819   0.025957  -0.017366   0.008677   0.004076   0.017266
    23  H   -0.000667   0.001072   0.003668  -0.000254   0.000596  -0.002017
    24  H    0.007388  -0.006118   0.002503  -0.000687  -0.000208  -0.005079
               7          8          9         10         11         12
     1  C   -0.780795   0.117939  -0.131872  -0.018068  -2.301430   0.139572
     2  C    0.561693   0.018839  -0.676103  -0.074555   0.789647   0.141523
     3  C   -0.785555   0.455249   0.656263  -0.013317   0.641037  -0.131803
     4  C   -0.147530  -0.000436   0.479189   0.484106   0.274928   0.018464
     5  H    0.027161  -0.000064  -0.055145  -0.009139   0.016793  -0.010409
     6  C    0.722737  -0.079649  -0.480216   0.016199  -3.975938   0.202463
     7  C    6.458590  -0.140328   0.060152   0.014168  -0.184065  -0.046969
     8  H   -0.140328   0.478545   0.002174   0.000522  -0.037381  -0.011934
     9  C    0.060152   0.002174   5.861746  -0.060405   0.144234   0.012422
    10  H    0.014168   0.000522  -0.060405   0.487823   0.008364   0.000251
    11  C   -0.184065  -0.037381   0.144234   0.008364  13.650107   0.042503
    12  O   -0.046969  -0.011934   0.012422   0.000251   0.042503   7.963434
    13  H    0.493962  -0.015669  -0.088183   0.000269  -0.003516   0.000067
    14  H   -0.079383   0.001623   0.488740  -0.013722   0.000933   0.000135
    15  C   -0.128014   0.038327   0.122359  -0.016139  -1.836532  -0.132247
    16  C    0.182674  -0.041995  -0.069635   0.002261  -0.344568   0.032390
    17  C    0.067006  -0.007433  -0.056953   0.002980  -1.397132  -0.030110
    18  H    0.003481  -0.002193   0.019061  -0.003762  -0.076264   0.001045
    19  C    0.032313  -0.005047  -0.001434  -0.000042  -0.037304   0.028336
    20  H   -0.001991  -0.001504  -0.000322  -0.000092   0.013271  -0.017677
    21  C    0.001600   0.000803  -0.003817   0.000484  -0.774775  -0.014031
    22  H   -0.000824   0.000002   0.000747   0.000097   0.087287   0.000419
    23  H    0.000198   0.000019   0.000130  -0.000002  -0.001396   0.002614
    24  H    0.000276  -0.000033  -0.000113  -0.000003   0.003089  -0.000441
              13         14         15         16         17         18
     1  C   -0.007124   0.042804   2.089941  -1.129137  -0.138388   0.146860
     2  C    0.008655  -0.009339  -1.190027   0.243938   0.106609  -0.115014
     3  C   -0.093341   0.014786   1.144400  -0.607876  -0.405294   0.156075
     4  C    0.014593  -0.085318  -0.304295   0.071196  -0.064413  -0.083755
     5  H    0.001927  -0.000874  -0.105738   0.020797   0.005947  -0.044594
     6  C    0.023330  -0.027873  -1.359445   0.881325   0.577882  -0.132728
     7  C    0.493962  -0.079383  -0.128014   0.182674   0.067006   0.003481
     8  H   -0.015669   0.001623   0.038327  -0.041995  -0.007433  -0.002193
     9  C   -0.088183   0.488740   0.122359  -0.069635  -0.056953   0.019061
    10  H    0.000269  -0.013722  -0.016139   0.002261   0.002980  -0.003762
    11  C   -0.003516   0.000933  -1.836532  -0.344568  -1.397132  -0.076264
    12  O    0.000067   0.000135  -0.132247   0.032390  -0.030110   0.001045
    13  H    0.489263  -0.015602  -0.006624   0.006125   0.002129  -0.000342
    14  H   -0.015602   0.498301   0.003428  -0.002604  -0.001511  -0.000543
    15  C   -0.006624   0.003428  14.663324  -4.278014  -2.475451   0.758131
    16  C    0.006125  -0.002604  -4.278014   9.165047   1.562674  -0.079028
    17  C    0.002129  -0.001511  -2.475451   1.562674   8.285831  -0.217199
    18  H   -0.000342  -0.000543   0.758131  -0.079028  -0.217199   0.736720
    19  C    0.000235  -0.000261  -0.366161   0.373216  -0.449065   0.032257
    20  H   -0.000005   0.000009  -0.013740   0.449849   0.046703  -0.004389
    21  C    0.000201  -0.000129   0.705976  -0.663201   0.423771   0.007875
    22  H   -0.000030   0.000065  -0.156536   0.045595   0.433793  -0.042605
    23  H   -0.000000   0.000004  -0.025889  -0.053030   0.000067  -0.000951
    24  H    0.000013  -0.000008  -0.016484  -0.010672  -0.036938   0.000373
              19         20         21         22         23         24
     1  C   -0.675457  -0.038473   0.233027  -0.039819  -0.000667   0.007388
     2  C    0.187966   0.014982  -0.200137   0.025957   0.001072  -0.006118
     3  C   -0.040844  -0.042248   0.112331  -0.017366   0.003668   0.002503
     4  C    0.006695   0.001257  -0.018558   0.008677  -0.000254  -0.000687
     5  H    0.004219  -0.000773  -0.004664   0.004076   0.000596  -0.000208
     6  C    0.102390   0.033858   0.070353   0.017266  -0.002017  -0.005079
     7  C    0.032313  -0.001991   0.001600  -0.000824   0.000198   0.000276
     8  H   -0.005047  -0.001504   0.000803   0.000002   0.000019  -0.000033
     9  C   -0.001434  -0.000322  -0.003817   0.000747   0.000130  -0.000113
    10  H   -0.000042  -0.000092   0.000484   0.000097  -0.000002  -0.000003
    11  C   -0.037304   0.013271  -0.774775   0.087287  -0.001396   0.003089
    12  O    0.028336  -0.017677  -0.014031   0.000419   0.002614  -0.000441
    13  H    0.000235  -0.000005   0.000201  -0.000030  -0.000000   0.000013
    14  H   -0.000261   0.000009  -0.000129   0.000065   0.000004  -0.000008
    15  C   -0.366161  -0.013740   0.705976  -0.156536  -0.025889  -0.016484
    16  C    0.373216   0.449849  -0.663201   0.045595  -0.053030  -0.010672
    17  C   -0.449065   0.046703   0.423771   0.433793   0.000067  -0.036938
    18  H    0.032257  -0.004389   0.007875  -0.042605  -0.000951   0.000373
    19  C    6.850024  -0.118798   0.034493   0.016775   0.502434  -0.102170
    20  H   -0.118798   0.462422   0.010178   0.001044  -0.013977   0.001804
    21  C    0.034493   0.010178   6.027640  -0.096487  -0.083715   0.517699
    22  H    0.016775   0.001044  -0.096487   0.499906   0.001396  -0.014820
    23  H    0.502434  -0.013977  -0.083715   0.001396   0.484563  -0.016498
    24  H   -0.102170   0.001804   0.517699  -0.014820  -0.016498   0.497941
 Mulliken charges:
               1
     1  C    0.989641
     2  C   -0.024155
     3  C   -0.371473
     4  C   -0.187473
     5  H    0.206650
     6  C   -0.962301
     7  C   -0.330557
     8  H    0.229624
     9  C   -0.223019
    10  H    0.191721
    11  C    1.298113
    12  O   -0.190017
    13  H    0.189668
    14  H    0.186340
    15  C   -1.114551
    16  C    0.242675
    17  C   -0.235503
    18  H   -0.058511
    19  C   -0.374770
    20  H    0.218613
    21  C   -0.286918
    22  H    0.225383
    23  H    0.201635
    24  H    0.179185
 Sum of Mulliken charges =  -0.00000
 Mulliken charges with hydrogens summed into heavy atoms:
               1
     1  C    0.989641
     2  C    0.182496
     3  C   -0.141849
     4  C    0.004248
     6  C   -0.962301
     7  C   -0.140889
     9  C   -0.036678
    11  C    1.298113
    12  O   -0.190017
    15  C   -1.173063
    16  C    0.461288
    17  C   -0.010120
    19  C   -0.173135
    21  C   -0.107733
 Electronic spatial extent (au):  <R**2>=           3020.4542
 Charge=             -0.0000 electrons
 Dipole moment (field-independent basis, Debye):
    X=             -0.1237    Y=             -2.9860    Z=             -1.4663  Tot=              3.3289
 Quadrupole moment (field-independent basis, Debye-Ang):
   XX=            -65.4736   YY=            -79.2140   ZZ=            -84.2054
   XY=             -0.7631   XZ=             -0.7323   YZ=             -7.2245
 Traceless Quadrupole moment (field-independent basis, Debye-Ang):
   XX=             10.8241   YY=             -2.9163   ZZ=             -7.9077
   XY=             -0.7631   XZ=             -0.7323   YZ=             -7.2245
 Octapole moment (field-independent basis, Debye-Ang**2):
  XXX=             -9.5895  YYY=            -19.9789  ZZZ=              3.6759  XYY=             -2.2758
  XXY=             -5.7937  XXZ=            -24.9084  XZZ=              4.9269  YZZ=              1.1337
  YYZ=             -8.0994  XYZ=             -4.9297
 Hexadecapole moment (field-independent basis, Debye-Ang**3):
 XXXX=          -2816.8640 YYYY=           -745.5095 ZZZZ=           -231.0628 XXXY=            -21.5127
 XXXZ=            -17.7246 YYYX=             -1.4689 YYYZ=            -35.3688 ZZZX=             -7.3001
 ZZZY=             -2.5444 XXYY=           -582.0998 XXZZ=           -589.1969 YYZZ=           -170.6688
 XXYZ=            -17.3872 YYXZ=              3.5921 ZZXY=              1.2968
 N-N= 7.840468452276D+02 E-N=-2.910223332894D+03  KE= 5.764284862745D+02
 No NMR shielding tensors so no spin-rotation constants.
 Leave Link  601 at Tue Nov 22 15:00:17 2022, MaxMem= 16106127360 cpu:               4.8 elap:               0.2
 (Enter /opt/ap/G16/B01/g16/l9999.exe)
 1\1\GINC-N13\SP\RwB97XD\6-311++G(d,p)\C13H10O1\ROOT\22-Nov-2022\0\\#P 
 wB97XD/6-311++G(d,p) scf=maxcycle=512\\_conf008.gjf nmol_natom 1_24\\0
 ,1\C\C,1,1.39746343\C,1,1.39996263,2,119.28066518\C,2,1.39288453,1,120
 .37436646,3,-0.51002981,0\H,2,0.95014703,1,119.82324024,3,179.45634896
 ,0\C,1,1.49653039,2,122.77761373,4,174.46828757,0\C,3,1.3870125,1,120.
 10017821,2,-0.37315804,0\H,3,0.9501092,1,119.95246451,2,179.5923884,0\
 C,7,1.38720039,3,120.16568731,1,1.0745106,0\H,4,0.95011919,2,120.18755
 644,1,-179.31195299,0\C,6,1.49516902,1,120.70972921,2,-50.,0\O,6,1.221
 50059,1,119.67074267,2,130.,0\H,7,0.94956661,3,119.91274826,1,-178.886
 36029,0\H,9,0.94992259,7,119.76037934,3,179.10763853,0\C,11,1.39713972
 ,6,122.62585705,1,30.97749054,0\C,11,1.40039562,6,117.74753532,1,-153.
 15467779,0\C,15,1.39455701,11,119.80747484,6,175.4763048,0\H,15,0.9496
 2854,11,120.10535689,6,-4.50802339,0\C,16,1.38466431,11,120.4617377,6,
 -176.88197195,0\H,16,0.9497464,11,119.75779177,6,3.14699974,0\C,17,1.3
 9088945,15,120.3475273,11,0.7973643,0\H,17,0.94984298,15,119.8156451,1
 1,-179.16676483,0\H,19,0.94974749,16,119.98566335,11,-178.40987425,0\H
 ,21,0.94938585,17,120.0744529,15,179.91636093,0\\Version=ES64L-G16RevB
 .01\State=1-A\HF=-576.4110707\RMSD=7.849e-09\Dipole=0.169756,-0.954352
 9,0.8807375\Quadrupole=5.7377525,-7.0283215,1.2905691,5.3429456,0.5136
 45,3.2678138\PG=C01 [X(C13H10O1)]\\@


 LIFE IS A CONTINUAL STRUGGLE AGAINST THE TENDENCY TO PRODUCE ENTROPY.
 Job cpu time:       0 days  0 hours 20 minutes 30.1 seconds.
 Elapsed time:       0 days  0 hours  0 minutes 38.8 seconds.
 File lengths (MBytes):  RWF=     78 Int=      0 D2E=      0 Chk=      9 Scr=      1
 Normal termination of Gaussian 16 at Tue Nov 22 15:00:17 2022.
