 Entering Gaussian System, Link 0=g16
 Input=_conf019.gjf
 Output=_conf019.log
 Initial command:
 /opt/ap/G16/B01/g16/l1.exe "/tmp2/scr/Gau-16404.inp" -scrdir="/tmp2/scr/"
 Entering Link 1 = /opt/ap/G16/B01/g16/l1.exe PID=     16405.
  
 Copyright (c) 1988-2017, Gaussian, Inc.  All Rights Reserved.
  
 This is part of the Gaussian(R) 16 program.  It is based on
 the Gaussian(R) 09 system (copyright 2009, Gaussian, Inc.),
 the Gaussian(R) 03 system (copyright 2003, Gaussian, Inc.),
 the Gaussian(R) 98 system (copyright 1998, Gaussian, Inc.),
 the Gaussian(R) 94 system (copyright 1995, Gaussian, Inc.),
 the Gaussian 92(TM) system (copyright 1992, Gaussian, Inc.),
 the Gaussian 90(TM) system (copyright 1990, Gaussian, Inc.),
 the Gaussian 88(TM) system (copyright 1988, Gaussian, Inc.),
 the Gaussian 86(TM) system (copyright 1986, Carnegie Mellon
 University), and the Gaussian 82(TM) system (copyright 1983,
 Carnegie Mellon University). Gaussian is a federally registered
 trademark of Gaussian, Inc.
  
 This software contains proprietary and confidential information,
 including trade secrets, belonging to Gaussian, Inc.
  
 This software is provided under written license and may be
 used, copied, transmitted, or stored only in accord with that
 written license.
  
 The following legend is applicable only to US Government
 contracts under FAR:
  
                    RESTRICTED RIGHTS LEGEND
  
 Use, reproduction and disclosure by the US Government is
 subject to restrictions as set forth in subparagraphs (a)
 and (c) of the Commercial Computer Software - Restricted
 Rights clause in FAR 52.227-19.
  
 Gaussian, Inc.
 340 Quinnipiac St., Bldg. 40, Wallingford CT 06492
  
  
 ---------------------------------------------------------------
 Warning -- This program may not be used in any manner that
 competes with the business of Gaussian, Inc. or will provide
 assistance to any competitor of Gaussian, Inc.  The licensee
 of this program is prohibited from giving any competitor of
 Gaussian, Inc. access to this program.  By using this program,
 the user acknowledges that Gaussian, Inc. is engaged in the
 business of creating and licensing software in the field of
 computational chemistry and represents and warrants to the
 licensee that it is not a competitor of Gaussian, Inc. and that
 it will not use this program in any manner prohibited above.
 ---------------------------------------------------------------
  

 Cite this work as:
 Gaussian 16, Revision B.01,
 M. J. Frisch, G. W. Trucks, H. B. Schlegel, G. E. Scuseria, 
 M. A. Robb, J. R. Cheeseman, G. Scalmani, V. Barone, 
 G. A. Petersson, H. Nakatsuji, X. Li, M. Caricato, A. V. Marenich, 
 J. Bloino, B. G. Janesko, R. Gomperts, B. Mennucci, H. P. Hratchian, 
 J. V. Ortiz, A. F. Izmaylov, J. L. Sonnenberg, D. Williams-Young, 
 F. Ding, F. Lipparini, F. Egidi, J. Goings, B. Peng, A. Petrone, 
 T. Henderson, D. Ranasinghe, V. G. Zakrzewski, J. Gao, N. Rega, 
 G. Zheng, W. Liang, M. Hada, M. Ehara, K. Toyota, R. Fukuda, 
 J. Hasegawa, M. Ishida, T. Nakajima, Y. Honda, O. Kitao, H. Nakai, 
 T. Vreven, K. Throssell, J. A. Montgomery, Jr., J. E. Peralta, 
 F. Ogliaro, M. J. Bearpark, J. J. Heyd, E. N. Brothers, K. N. Kudin, 
 V. N. Staroverov, T. A. Keith, R. Kobayashi, J. Normand, 
 K. Raghavachari, A. P. Rendell, J. C. Burant, S. S. Iyengar, 
 J. Tomasi, M. Cossi, J. M. Millam, M. Klene, C. Adamo, R. Cammi, 
 J. W. Ochterski, R. L. Martin, K. Morokuma, O. Farkas, 
 J. B. Foresman, and D. J. Fox, Gaussian, Inc., Wallingford CT, 2016.
 
 ******************************************
 Gaussian 16:  ES64L-G16RevB.01 20-Dec-2017
                22-Nov-2022 
 ******************************************
 %nprocshared=32
 Will use up to   32 processors via shared memory.
 %mem=120GB
 %chk=_conf019.chk
 ----------------------------------------
 #P wB97XD/6-311++G(d,p) scf=maxcycle=512
 ----------------------------------------
 1/38=1,172=1/1;
 2/12=2,17=6,18=5,40=1/2;
 3/5=4,6=6,7=1111,11=2,25=1,30=1,74=-58/1,2,3;
 4//1;
 5/5=2,7=512,38=5/2;
 6/7=2,8=2,9=2,10=2,28=1/1;
 99/5=1,9=1/99;
 Leave Link    1 at Tue Nov 22 15:00:57 2022, MaxMem= 16106127360 cpu:               1.8 elap:               0.1
 (Enter /opt/ap/G16/B01/g16/l101.exe)
 ----------------------------
 _conf019.gjf nmol_natom 1_24
 ----------------------------
 Symbolic Z-matrix:
 Charge =  0 Multiplicity = 1
 C
 C                    1     1.39746 
 C                    1     1.39996  2     119.28067 
 C                    2     1.39288  1     120.37437  3    -0.51003  0
 H                    2     0.95015  1     119.82324  3     179.45635  0
 C                    1     1.49653  2     122.77761  4     174.46829  0
 C                    3     1.38701  1     120.10018  2    -0.37316  0
 H                    3     0.95011  1     119.95246  2     179.59239  0
 C                    7     1.3872   3     120.16569  1     1.07451  0
 H                    4     0.95012  2     120.18756  1    -179.31195  0
 C                    6     1.49517  1     120.70973  2     5.       0
 O                    6     1.2215   1     119.67074  2    -175.     0
 H                    7     0.94957  3     119.91275  1    -178.88636  0
 H                    9     0.94992  7     119.76038  3     179.10764  0
 C                    11    1.39714  6     122.62586  1     30.97749  0
 C                    11    1.4004   6     117.74754  1    -153.15468  0
 C                    15    1.39456  11    119.80747  6     175.4763  0
 H                    15    0.94963  11    120.10536  6    -4.50802  0
 C                    16    1.38466  11    120.46174  6    -176.88197  0
 H                    16    0.94975  11    119.75779  6     3.147    0
 C                    17    1.39089  15    120.34753  11    0.79736  0
 H                    17    0.94984  15    119.81565  11   -179.16676  0
 H                    19    0.94975  16    119.98566  11   -178.40987  0
 H                    21    0.94939  17    120.07445  15    179.91636  0
 
 ITRead=  0  0  0  0  0  0  0  0  0  0  0  0  0  0  0  0  0  0  0  0
 ITRead=  0  0  0  0
 MicOpt= -1 -1 -1 -1 -1 -1 -1 -1 -1 -1 -1 -1 -1 -1 -1 -1 -1 -1 -1 -1
 MicOpt= -1 -1 -1 -1
 NAtoms=     24 NQM=       24 NQMF=       0 NMMI=      0 NMMIF=      0
                NMic=       0 NMicF=      0.
                    Isotopes and Nuclear Properties:
 (Nuclear quadrupole moments (NQMom) in fm**2, nuclear magnetic moments (NMagM)
  in nuclear magnetons)

  Atom         1           2           3           4           5           6           7           8           9          10
 IAtWgt=          12          12          12          12           1          12          12           1          12           1
 AtmWgt=  12.0000000  12.0000000  12.0000000  12.0000000   1.0078250  12.0000000  12.0000000   1.0078250  12.0000000   1.0078250
 NucSpn=           0           0           0           0           1           0           0           1           0           1
 AtZEff=  -0.0000000  -0.0000000  -0.0000000  -0.0000000  -0.0000000  -0.0000000  -0.0000000  -0.0000000  -0.0000000  -0.0000000
 NQMom=    0.0000000   0.0000000   0.0000000   0.0000000   0.0000000   0.0000000   0.0000000   0.0000000   0.0000000   0.0000000
 NMagM=    0.0000000   0.0000000   0.0000000   0.0000000   2.7928460   0.0000000   0.0000000   2.7928460   0.0000000   2.7928460
 AtZNuc=   6.0000000   6.0000000   6.0000000   6.0000000   1.0000000   6.0000000   6.0000000   1.0000000   6.0000000   1.0000000

  Atom        11          12          13          14          15          16          17          18          19          20
 IAtWgt=          12          16           1           1          12          12          12           1          12           1
 AtmWgt=  12.0000000  15.9949146   1.0078250   1.0078250  12.0000000  12.0000000  12.0000000   1.0078250  12.0000000   1.0078250
 NucSpn=           0           0           1           1           0           0           0           1           0           1
 AtZEff=  -0.0000000  -0.0000000  -0.0000000  -0.0000000  -0.0000000  -0.0000000  -0.0000000  -0.0000000  -0.0000000  -0.0000000
 NQMom=    0.0000000   0.0000000   0.0000000   0.0000000   0.0000000   0.0000000   0.0000000   0.0000000   0.0000000   0.0000000
 NMagM=    0.0000000   0.0000000   2.7928460   2.7928460   0.0000000   0.0000000   0.0000000   2.7928460   0.0000000   2.7928460
 AtZNuc=   6.0000000   8.0000000   1.0000000   1.0000000   6.0000000   6.0000000   6.0000000   1.0000000   6.0000000   1.0000000

  Atom        21          22          23          24
 IAtWgt=          12           1           1           1
 AtmWgt=  12.0000000   1.0078250   1.0078250   1.0078250
 NucSpn=           0           1           1           1
 AtZEff=  -0.0000000  -0.0000000  -0.0000000  -0.0000000
 NQMom=    0.0000000   0.0000000   0.0000000   0.0000000
 NMagM=    0.0000000   2.7928460   2.7928460   2.7928460
 AtZNuc=   6.0000000   1.0000000   1.0000000   1.0000000
 Leave Link  101 at Tue Nov 22 15:00:57 2022, MaxMem= 16106127360 cpu:               5.1 elap:               0.2
 (Enter /opt/ap/G16/B01/g16/l202.exe)
                          Input orientation:                          
 ---------------------------------------------------------------------
 Center     Atomic      Atomic             Coordinates (Angstroms)
 Number     Number       Type             X           Y           Z
 ---------------------------------------------------------------------
      1          6           0        0.000000    0.000000    0.000000
      2          6           0        0.000000    0.000000    1.397463
      3          6           0        1.221096    0.000000   -0.684705
      4          6           0        1.201650   -0.010697    2.101772
      5          1           0       -0.824276    0.007821    1.869996
      6          6           0       -1.253421   -0.110138   -0.810191
      7          6           0        2.414707    0.007815    0.021719
      8          1           0        1.232246   -0.005856   -1.634731
      9          6           0        2.403895   -0.006831    1.408800
     10          1           0        1.198494   -0.020531    3.051836
     11          6           0       -2.593385   -0.115411   -0.146867
     12          8           0       -1.181552   -0.196682   -2.026501
     13          1           0        3.241298    0.023792   -0.445367
     14          1           0        3.224827   -0.014217    1.886678
     15          6           0       -2.847060    0.569699    1.044045
     16          6           0       -3.643777   -0.767766   -0.804300
     17          6           0       -4.141322    0.603345    1.562258
     18          1           0       -2.140345    1.011401    1.499289
     19          6           0       -4.922163   -0.752188   -0.272527
     20          1           0       -3.477879   -1.224365   -1.620396
     21          6           0       -5.177379   -0.055308    0.908550
     22          1           0       -4.316174    1.079027    2.365598
     23          1           0       -5.624841   -1.215799   -0.712220
     24          1           0       -6.056800   -0.030847    1.265418
 ---------------------------------------------------------------------
                    Distance matrix (angstroms):
                    1          2          3          4          5
     1  C    0.000000
     2  C    1.397463   0.000000
     3  C    1.399963   2.413814   0.000000
     4  C    2.421058   1.392885   2.786566   0.000000
     5  H    2.043619   0.950147   3.272630   2.039225   0.000000
     6  C    1.496530   2.541049   2.480142   3.810091   2.716889
     7  C    2.414817   2.779127   1.387013   2.408002   3.729228
     8  H    2.047146   3.273021   0.950109   3.736632   4.063567
     9  C    2.786301   2.403931   2.404542   1.387667   3.260982
    10  H    3.278797   2.042977   3.736665   0.950119   2.342893
    11  C    2.600103   3.020583   3.853939   4.412440   2.685641
    12  O    2.354029   3.627434   2.758952   4.770417   3.918183
    13  H    3.271839   3.728619   2.034469   3.263323   4.678681
    14  H    3.736210   3.261755   3.259932   2.034583   4.049198
    15  C    3.085505   2.924930   4.456796   4.224654   2.256005
    16  C    3.809655   4.326007   4.926535   5.700576   3.962698
    17  C    4.467127   4.188285   5.845373   5.405133   3.384101
    18  H    2.802120   2.369467   4.134253   3.546350   1.696064
    19  C    4.986757   5.251890   6.202846   6.609704   4.686224
    20  H    4.027455   4.764681   4.945195   6.101272   4.554419
    21  C    5.256784   5.200707   6.594088   6.489821   4.458461
    22  H    5.038821   4.553125   6.413268   5.630585   3.685981
    23  H    5.798643   6.129255   6.953112   7.481430   5.586636
    24  H    6.187654   6.058317   7.534699   7.306503   5.267477
                    6          7          8          9         10
     6  C    0.000000
     7  C    3.763130   0.000000
     8  H    2.620930   2.035246   0.000000
     9  C    4.279082   1.387200   3.261263   0.000000
    10  H    4.575496   3.265208   4.686711   2.037829   0.000000
    11  C    1.495169   5.012443   4.106238   5.234949   4.961758
    12  O    1.221501   4.143682   2.452818   4.969181   5.611163
    13  H    4.511488   0.949567   2.334899   2.034727   4.050363
    14  H    5.228480   2.033434   4.046081   0.949923   2.337447
    15  C    2.537727   5.389532   4.914045   5.295088   4.554789
    16  C    2.479176   6.163526   5.004570   6.484686   6.235040
    17  C    3.804937   6.760875   6.282284   6.575387   5.578682
    18  H    2.716281   4.892739   4.715004   4.657799   3.824020
    19  C    3.763108   7.381995   6.347390   7.553379   7.003510
    20  H    2.616515   6.239982   4.865208   6.727085   6.719184
    21  C    4.284219   7.643967   6.895942   7.597915   6.726563
    22  H    4.569487   7.207359   6.925645   6.874145   5.664938
    23  H    4.510144   8.165184   7.023861   8.391717   7.883824
    24  H    5.233249   8.562401   7.844850   8.461943   7.471993
                   11         12         13         14         15
    11  C    0.000000
    12  O    2.352211   0.000000
    13  H    5.843971   4.702148   0.000000
    14  H    6.164182   5.895968   2.332413   0.000000
    15  C    1.397140   3.576242   6.291619   6.157825   0.000000
    16  C    1.400396   2.807573   6.939715   7.415316   2.416598
    17  C    2.415332   4.720113   7.672647   7.399107   1.394557
    18  H    2.045674   3.848369   5.806818   5.476042   0.949629
    19  C    2.417537   4.168594   8.202080   8.460509   2.790484
    20  H    2.045335   2.548367   6.934402   7.660960   3.273506
    21  C    2.791872   4.959954   8.527220   8.459048   2.416481
    22  H    3.272181   5.544711   8.132062   7.634871   2.040640
    23  H    3.274172   4.744339   8.956350   9.301328   3.740125
    24  H    3.741249   5.884919   9.454332   9.302410   3.272933
                   16         17         18         19         20
    16  C    0.000000
    17  C    2.779944   0.000000
    18  H    3.276013   2.043131   0.000000
    19  C    1.384664   2.411145   3.740066   0.000000
    20  H    0.949746   3.729607   4.064490   2.031171   0.000000
    21  C    2.406945   1.390889   3.272678   1.394891   3.263520
    22  H    3.729747   0.949843   2.342925   3.268069   4.679370
    23  H    2.033181   3.268541   4.689659   0.949747   2.331159
    24  H    3.263351   2.039453   4.059507   2.042795   4.050092
                   21         22         23         24
    21  C    0.000000
    22  H    2.037493   0.000000
    23  H    2.043001   4.056081   0.000000
    24  H    0.949386   2.339229   2.345581   0.000000
 Stoichiometry    C13H10O
 Framework group  C1[X(C13H10O)]
 Deg. of freedom    66
 Full point group                 C1      NOp   1
 Largest Abelian subgroup         C1      NOp   1
 Largest concise Abelian subgroup C1      NOp   1
                         Standard orientation:                         
 ---------------------------------------------------------------------
 Center     Atomic      Atomic             Coordinates (Angstroms)
 Number     Number       Type             X           Y           Z
 ---------------------------------------------------------------------
      1          6           0       -1.308005    0.328434   -0.083780
      2          6           0       -1.383213   -1.042697    0.175538
      3          6           0       -2.489952    1.071467   -0.187699
      4          6           0       -2.620190   -1.661670    0.339512
      5          1           0       -0.586150   -1.555849    0.239920
      6          6           0       -0.010101    1.070531   -0.149669
      7          6           0       -3.719564    0.446540   -0.041672
      8          1           0       -2.449780    2.005320   -0.358024
      9          6           0       -3.782991   -0.912337    0.229904
     10          1           0       -2.667882   -2.592204    0.525412
     11          6           0        1.291797    0.342515   -0.046790
     12          8           0       -0.013829    2.284055   -0.288985
     13          1           0       -4.519931    0.950099   -0.128380
     14          1           0       -4.627880   -1.331964    0.341393
     15          6           0        1.460749   -0.966949   -0.503692
     16          6           0        2.394783    1.046448    0.452216
     17          6           0        2.723695   -1.557092   -0.465111
     18          1           0        0.717871   -1.453750   -0.839774
     19          6           0        3.641685    0.447255    0.511366
     20          1           0        2.286550    1.940947    0.752507
     21          6           0        3.812358   -0.854816    0.041045
     22          1           0        2.840991   -2.443112   -0.786687
     23          1           0        4.380341    0.923069    0.871934
     24          1           0        4.670198   -1.260764    0.066571
 ---------------------------------------------------------------------
 Rotational constants (GHZ):           1.7660087           0.4193701           0.3477788
 Leave Link  202 at Tue Nov 22 15:00:57 2022, MaxMem= 16106127360 cpu:               0.3 elap:               0.0
 (Enter /opt/ap/G16/B01/g16/l301.exe)
 Standard basis: 6-311++G(d,p) (5D, 7F)
 Ernie: Thresh=  0.10000D-02 Tol=  0.10000D-05 Strict=F.
 There are   392 symmetry adapted cartesian basis functions of A   symmetry.
 There are   378 symmetry adapted basis functions of A   symmetry.
   378 basis functions,   594 primitive gaussians,   392 cartesian basis functions
    48 alpha electrons       48 beta electrons
       nuclear repulsion energy       785.0399588955 Hartrees.
 IExCor= 4639 DFT=T Ex+Corr=wB97XD ExCW=0 ScaHFX=  1.000000
 ScaDFX=  1.000000  1.000000  1.000000  1.000000 ScalE2=  1.000000  1.000000
 IRadAn=      5 IRanWt=     -1 IRanGd=            0 ICorTp=0 IEmpDi=121
 HFx  wShort=  0.000000 wLong=  0.200000 cFull=  0.222036 cShort=  0.000000 cLong=  0.777964
 DFx  wShort=  0.000000 wLong=  0.200000 cFull=  0.000000 cShort=  0.000000 cLong=  1.000000
 NAtoms=   24 NActive=   24 NUniq=   24 SFac= 1.00D+00 NAtFMM=   60 NAOKFM=F Big=F
 Integral buffers will be    131072 words long.
 Raffenetti 2 integral format.
 Two-electron integral symmetry is turned on.
 R6Disp:  Grimme-D2 Dispersion energy=       -0.0138144674 Hartrees.
 Nuclear repulsion after empirical dispersion term =      785.0261444281 Hartrees.
 Leave Link  301 at Tue Nov 22 15:00:57 2022, MaxMem= 16106127360 cpu:               1.2 elap:               0.0
 (Enter /opt/ap/G16/B01/g16/l302.exe)
 NPDir=0 NMtPBC=     1 NCelOv=     1 NCel=       1 NClECP=     1 NCelD=      1
         NCelK=      1 NCelE2=     1 NClLst=     1 CellRange=     0.0.
 One-electron integrals computed using PRISM.
 One-electron integral symmetry used in STVInt
 NBasis=   378 RedAO= T EigKep=  2.09D-06  NBF=   378
 NBsUse=   375 1.00D-06 EigRej=  9.82D-07 NBFU=   375
 Precomputing XC quadrature grid using
 IXCGrd= 4 IRadAn=           5 IRanWt=          -1 IRanGd=           0 AccXCQ= 0.00D+00.
 Generated NRdTot=       0 NPtTot=           0 NUsed=           0 NTot=          32
 NSgBfM=   392   392   392   392   392 MxSgAt=    24 MxSgA2=    24.
 Leave Link  302 at Tue Nov 22 15:00:57 2022, MaxMem= 16106127360 cpu:               8.3 elap:               0.3
 (Enter /opt/ap/G16/B01/g16/l303.exe)
 DipDrv:  MaxL=1.
 Leave Link  303 at Tue Nov 22 15:00:57 2022, MaxMem= 16106127360 cpu:               1.7 elap:               0.1
 (Enter /opt/ap/G16/B01/g16/l401.exe)
 ExpMin= 3.60D-02 ExpMax= 8.59D+03 ExpMxC= 1.30D+03 IAcc=3 IRadAn=         5 AccDes= 0.00D+00
 Harris functional with IExCor= 4639 and IRadAn=       5 diagonalized for initial guess.
 HarFok:  IExCor= 4639 AccDes= 0.00D+00 IRadAn=         5 IDoV= 1 UseB2=F ITyADJ=14
 ICtDFT=  3500011 ScaDFX=  1.000000  1.000000  1.000000  1.000000
 FoFCou: FMM=F IPFlag=           0 FMFlag=      100000 FMFlg1=           0
         NFxFlg=           0 DoJE=T BraDBF=F KetDBF=T FulRan=T
         wScrn=  0.000000 ICntrl=       500 IOpCl=  0 I1Cent=   200000004 NGrid=           0
         NMat0=    1 NMatS0=      1 NMatT0=    0 NMatD0=    1 NMtDS0=    0 NMtDT0=    0
 Petite list used in FoFCou.
 Harris En= -550.896196729985    
 JPrj=0 DoOrth=F DoCkMO=F.
 Leave Link  401 at Tue Nov 22 15:00:59 2022, MaxMem= 16106127360 cpu:              45.8 elap:               1.5
 (Enter /opt/ap/G16/B01/g16/l502.exe)
 Integral symmetry usage will be decided dynamically.
 Closed shell SCF:
 Using DIIS extrapolation, IDIIS=  1040.
 NGot= 16106127360 LenX= 16105803762 LenY= 16105649657
 Requested convergence on RMS density matrix=1.00D-08 within 512 cycles.
 Requested convergence on MAX density matrix=1.00D-06.
 Requested convergence on             energy=1.00D-06.
 No special actions if energy rises.
 Fock matrices will be formed incrementally for  20 cycles.

 Cycle   1  Pass 1  IDiag  1:
 FoFJK:  IHMeth= 1 ICntrl=       0 DoSepK=T KAlg= 0 I1Cent=           0 FoldK=F
 IRaf=         1 NMat=       1 IRICut=       1 DoRegI=T DoRafI=F ISym2E= 0 IDoP0=0 IntGTp=1.
 FoFCou: FMM=F IPFlag=           0 FMFlag=      100000 FMFlg1=           0
         NFxFlg=           0 DoJE=T BraDBF=F KetDBF=F FulRan=T
         wScrn=  0.000000 ICntrl=       500 IOpCl=  0 I1Cent=           0 NGrid=           0
         NMat0=    1 NMatS0=      1 NMatT0=    0 NMatD0=    1 NMtDS0=    0 NMtDT0=    0
 Symmetry not used in FoFCou.
 E= -576.260126821411    
 DIIS: error= 5.63D-02 at cycle   1 NSaved=   1.
 NSaved= 1 IEnMin= 1 EnMin= -576.260126821411     IErMin= 1 ErrMin= 5.63D-02
 ErrMax= 5.63D-02  0.00D+00 EMaxC= 1.00D-01 BMatC= 1.19D+00 BMatP= 1.19D+00
 IDIUse=3 WtCom= 4.37D-01 WtEn= 5.63D-01
 Coeff-Com:  0.100D+01
 Coeff-En:   0.100D+01
 Coeff:      0.100D+01
 Gap=     0.402 Goal=   None    Shift=    0.000
 GapD=    0.402 DampG=2.000 DampE=0.500 DampFc=1.0000 IDamp=-1.
 RMSDP=2.85D-02 MaxDP=2.36D+00              OVMax= 1.36D-01

 Cycle   2  Pass 1  IDiag  1:
 RMSU=  1.17D-02    CP:  6.44D-01
 E= -576.348992028445     Delta-E=       -0.088865207034 Rises=F Damp=F
 DIIS: error= 1.71D-02 at cycle   2 NSaved=   2.
 NSaved= 2 IEnMin= 2 EnMin= -576.348992028445     IErMin= 2 ErrMin= 1.71D-02
 ErrMax= 1.71D-02  0.00D+00 EMaxC= 1.00D-01 BMatC= 7.42D-02 BMatP= 1.19D+00
 IDIUse=3 WtCom= 8.29D-01 WtEn= 1.71D-01
 Coeff-Com:  0.125D+00 0.875D+00
 Coeff-En:   0.139D+00 0.861D+00
 Coeff:      0.127D+00 0.873D+00
 Gap=     0.415 Goal=   None    Shift=    0.000
 RMSDP=6.59D-03 MaxDP=4.11D-01 DE=-8.89D-02 OVMax= 1.64D-01

 Cycle   3  Pass 1  IDiag  1:
 RMSU=  5.53D-03    CP:  6.46D-01  6.92D-01
 E= -576.363939189021     Delta-E=       -0.014947160576 Rises=F Damp=F
 DIIS: error= 1.87D-02 at cycle   3 NSaved=   3.
 NSaved= 3 IEnMin= 3 EnMin= -576.363939189021     IErMin= 2 ErrMin= 1.71D-02
 ErrMax= 1.87D-02  0.00D+00 EMaxC= 1.00D-01 BMatC= 5.60D-02 BMatP= 7.42D-02
 IDIUse=3 WtCom= 8.13D-01 WtEn= 1.87D-01
 Coeff-Com:  0.240D-01 0.468D+00 0.508D+00
 Coeff-En:   0.000D+00 0.437D+00 0.563D+00
 Coeff:      0.195D-01 0.462D+00 0.518D+00
 Gap=     0.345 Goal=   None    Shift=    0.000
 RMSDP=4.50D-03 MaxDP=2.64D-01 DE=-1.49D-02 OVMax= 5.92D-02

 Cycle   4  Pass 1  IDiag  1:
 RMSU=  1.81D-03    CP:  6.05D-01  7.75D-01  5.20D-01
 E= -576.412978375622     Delta-E=       -0.049039186601 Rises=F Damp=F
 DIIS: error= 2.47D-03 at cycle   4 NSaved=   4.
 NSaved= 4 IEnMin= 4 EnMin= -576.412978375622     IErMin= 4 ErrMin= 2.47D-03
 ErrMax= 2.47D-03  0.00D+00 EMaxC= 1.00D-01 BMatC= 9.99D-04 BMatP= 5.60D-02
 IDIUse=3 WtCom= 9.75D-01 WtEn= 2.47D-02
 Coeff-Com:  0.971D-02 0.203D+00 0.246D+00 0.541D+00
 Coeff-En:   0.000D+00 0.000D+00 0.000D+00 0.100D+01
 Coeff:      0.947D-02 0.198D+00 0.240D+00 0.553D+00
 Gap=     0.321 Goal=   None    Shift=    0.000
 RMSDP=5.79D-04 MaxDP=5.22D-02 DE=-4.90D-02 OVMax= 6.96D-03

 Cycle   5  Pass 1  IDiag  1:
 RMSU=  3.57D-04    CP:  6.07D-01  8.07D-01  5.37D-01  8.86D-01
 E= -576.413663929194     Delta-E=       -0.000685553572 Rises=F Damp=F
 DIIS: error= 6.84D-04 at cycle   5 NSaved=   5.
 NSaved= 5 IEnMin= 5 EnMin= -576.413663929194     IErMin= 5 ErrMin= 6.84D-04
 ErrMax= 6.84D-04  0.00D+00 EMaxC= 1.00D-01 BMatC= 8.52D-05 BMatP= 9.99D-04
 IDIUse=3 WtCom= 9.93D-01 WtEn= 6.84D-03
 Coeff-Com: -0.606D-03-0.881D-02 0.782D-04 0.215D+00 0.795D+00
 Coeff-En:   0.000D+00 0.000D+00 0.000D+00 0.000D+00 0.100D+01
 Coeff:     -0.602D-03-0.875D-02 0.776D-04 0.213D+00 0.796D+00
 Gap=     0.322 Goal=   None    Shift=    0.000
 RMSDP=4.10D-04 MaxDP=3.26D-02 DE=-6.86D-04 OVMax= 2.72D-03

 Cycle   6  Pass 1  IDiag  1:
 RMSU=  2.22D-04    CP:  6.03D-01  8.05D-01  5.42D-01  9.79D-01  6.21D-01
 E= -576.413730279574     Delta-E=       -0.000066350380 Rises=F Damp=F
 DIIS: error= 3.22D-04 at cycle   6 NSaved=   6.
 NSaved= 6 IEnMin= 6 EnMin= -576.413730279574     IErMin= 6 ErrMin= 3.22D-04
 ErrMax= 3.22D-04  0.00D+00 EMaxC= 1.00D-01 BMatC= 1.85D-05 BMatP= 8.52D-05
 IDIUse=3 WtCom= 9.97D-01 WtEn= 3.22D-03
 Coeff-Com: -0.122D-02-0.231D-01-0.220D-01 0.628D-01 0.428D+00 0.555D+00
 Coeff-En:   0.000D+00 0.000D+00 0.000D+00 0.000D+00 0.000D+00 0.100D+01
 Coeff:     -0.122D-02-0.230D-01-0.219D-01 0.626D-01 0.427D+00 0.557D+00
 Gap=     0.322 Goal=   None    Shift=    0.000
 RMSDP=7.76D-05 MaxDP=4.69D-03 DE=-6.64D-05 OVMax= 1.34D-03

 Cycle   7  Pass 1  IDiag  1:
 RMSU=  6.46D-05    CP:  6.04D-01  8.07D-01  5.41D-01  9.88D-01  6.90D-01
                    CP:  1.04D+00
 E= -576.413749462637     Delta-E=       -0.000019183063 Rises=F Damp=F
 DIIS: error= 5.07D-05 at cycle   7 NSaved=   7.
 NSaved= 7 IEnMin= 7 EnMin= -576.413749462637     IErMin= 7 ErrMin= 5.07D-05
 ErrMax= 5.07D-05  0.00D+00 EMaxC= 1.00D-01 BMatC= 4.65D-07 BMatP= 1.85D-05
 IDIUse=1 WtCom= 1.00D+00 WtEn= 0.00D+00
 Coeff-Com: -0.223D-03-0.427D-02-0.505D-02-0.107D-01-0.958D-02 0.105D+00
 Coeff-Com:  0.925D+00
 Coeff:     -0.223D-03-0.427D-02-0.505D-02-0.107D-01-0.958D-02 0.105D+00
 Coeff:      0.925D+00
 Gap=     0.322 Goal=   None    Shift=    0.000
 RMSDP=3.25D-05 MaxDP=2.18D-03 DE=-1.92D-05 OVMax= 4.81D-04

 Cycle   8  Pass 1  IDiag  1:
 RMSU=  1.51D-05    CP:  6.03D-01  8.08D-01  5.41D-01  9.94D-01  6.78D-01
                    CP:  1.15D+00  1.05D+00
 E= -576.413750599310     Delta-E=       -0.000001136673 Rises=F Damp=F
 DIIS: error= 1.94D-05 at cycle   8 NSaved=   8.
 NSaved= 8 IEnMin= 8 EnMin= -576.413750599310     IErMin= 8 ErrMin= 1.94D-05
 ErrMax= 1.94D-05  0.00D+00 EMaxC= 1.00D-01 BMatC= 8.00D-08 BMatP= 4.65D-07
 IDIUse=1 WtCom= 1.00D+00 WtEn= 0.00D+00
 Coeff-Com:  0.423D-04 0.576D-03 0.573D-04-0.119D-01-0.532D-01-0.216D-01
 Coeff-Com:  0.320D+00 0.766D+00
 Coeff:      0.423D-04 0.576D-03 0.573D-04-0.119D-01-0.532D-01-0.216D-01
 Coeff:      0.320D+00 0.766D+00
 Gap=     0.322 Goal=   None    Shift=    0.000
 RMSDP=1.03D-05 MaxDP=8.87D-04 DE=-1.14D-06 OVMax= 1.76D-04

 Cycle   9  Pass 1  IDiag  1:
 RMSU=  3.81D-06    CP:  6.04D-01  8.08D-01  5.41D-01  9.96D-01  6.74D-01
                    CP:  1.18D+00  1.06D+00  1.18D+00
 E= -576.413750746517     Delta-E=       -0.000000147207 Rises=F Damp=F
 DIIS: error= 3.86D-06 at cycle   9 NSaved=   9.
 NSaved= 9 IEnMin= 9 EnMin= -576.413750746517     IErMin= 9 ErrMin= 3.86D-06
 ErrMax= 3.86D-06  0.00D+00 EMaxC= 1.00D-01 BMatC= 5.43D-09 BMatP= 8.00D-08
 IDIUse=1 WtCom= 1.00D+00 WtEn= 0.00D+00
 Coeff-Com:  0.381D-04 0.668D-03 0.646D-03-0.929D-03-0.938D-02-0.165D-01
 Coeff-Com: -0.524D-01 0.152D+00 0.926D+00
 Coeff:      0.381D-04 0.668D-03 0.646D-03-0.929D-03-0.938D-02-0.165D-01
 Coeff:     -0.524D-01 0.152D+00 0.926D+00
 Gap=     0.322 Goal=   None    Shift=    0.000
 RMSDP=4.21D-06 MaxDP=3.31D-04 DE=-1.47D-07 OVMax= 7.27D-05

 Cycle  10  Pass 1  IDiag  1:
 RMSU=  1.49D-06    CP:  6.04D-01  8.08D-01  5.41D-01  9.96D-01  6.70D-01
                    CP:  1.19D+00  1.06D+00  1.30D+00  1.30D+00
 E= -576.413750762256     Delta-E=       -0.000000015739 Rises=F Damp=F
 DIIS: error= 1.34D-06 at cycle  10 NSaved=  10.
 NSaved=10 IEnMin=10 EnMin= -576.413750762256     IErMin=10 ErrMin= 1.34D-06
 ErrMax= 1.34D-06  0.00D+00 EMaxC= 1.00D-01 BMatC= 4.30D-10 BMatP= 5.43D-09
 IDIUse=1 WtCom= 1.00D+00 WtEn= 0.00D+00
 Coeff-Com: -0.223D-05-0.463D-05 0.309D-04 0.115D-02 0.408D-02 0.160D-02
 Coeff-Com: -0.249D-01-0.628D-01 0.510D-01 0.103D+01
 Coeff:     -0.223D-05-0.463D-05 0.309D-04 0.115D-02 0.408D-02 0.160D-02
 Coeff:     -0.249D-01-0.628D-01 0.510D-01 0.103D+01
 Gap=     0.322 Goal=   None    Shift=    0.000
 RMSDP=1.52D-06 MaxDP=1.56D-04 DE=-1.57D-08 OVMax= 2.17D-05

 Cycle  11  Pass 1  IDiag  1:
 RMSU=  6.66D-07    CP:  6.04D-01  8.08D-01  5.41D-01  9.96D-01  6.70D-01
                    CP:  1.18D+00  1.05D+00  1.33D+00  1.37D+00  1.13D+00
 E= -576.413750763978     Delta-E=       -0.000000001721 Rises=F Damp=F
 DIIS: error= 6.69D-07 at cycle  11 NSaved=  11.
 NSaved=11 IEnMin=11 EnMin= -576.413750763978     IErMin=11 ErrMin= 6.69D-07
 ErrMax= 6.69D-07  0.00D+00 EMaxC= 1.00D-01 BMatC= 8.50D-11 BMatP= 4.30D-10
 IDIUse=1 WtCom= 1.00D+00 WtEn= 0.00D+00
 Coeff-Com: -0.297D-05-0.450D-04-0.351D-04 0.412D-03 0.165D-02 0.144D-02
 Coeff-Com: -0.297D-02-0.299D-01-0.625D-01 0.257D+00 0.835D+00
 Coeff:     -0.297D-05-0.450D-04-0.351D-04 0.412D-03 0.165D-02 0.144D-02
 Coeff:     -0.297D-02-0.299D-01-0.625D-01 0.257D+00 0.835D+00
 Gap=     0.322 Goal=   None    Shift=    0.000
 RMSDP=3.81D-07 MaxDP=2.60D-05 DE=-1.72D-09 OVMax= 8.53D-06

 Cycle  12  Pass 1  IDiag  1:
 RMSU=  1.73D-07    CP:  6.04D-01  8.08D-01  5.41D-01  9.96D-01  6.70D-01
                    CP:  1.18D+00  1.04D+00  1.33D+00  1.40D+00  1.17D+00
                    CP:  1.23D+00
 E= -576.413750764254     Delta-E=       -0.000000000276 Rises=F Damp=F
 DIIS: error= 3.69D-07 at cycle  12 NSaved=  12.
 NSaved=12 IEnMin=12 EnMin= -576.413750764254     IErMin=12 ErrMin= 3.69D-07
 ErrMax= 3.69D-07  0.00D+00 EMaxC= 1.00D-01 BMatC= 1.36D-11 BMatP= 8.50D-11
 IDIUse=1 WtCom= 1.00D+00 WtEn= 0.00D+00
 Coeff-Com:  0.180D-06-0.491D-05-0.113D-04-0.204D-03-0.789D-03-0.239D-03
 Coeff-Com:  0.599D-02 0.117D-01-0.189D-01-0.198D+00 0.114D+00 0.109D+01
 Coeff:      0.180D-06-0.491D-05-0.113D-04-0.204D-03-0.789D-03-0.239D-03
 Coeff:      0.599D-02 0.117D-01-0.189D-01-0.198D+00 0.114D+00 0.109D+01
 Gap=     0.322 Goal=   None    Shift=    0.000
 RMSDP=2.48D-07 MaxDP=1.64D-05 DE=-2.76D-10 OVMax= 6.76D-06

 Cycle  13  Pass 1  IDiag  1:
 RMSU=  9.26D-08    CP:  6.04D-01  8.08D-01  5.41D-01  9.96D-01  6.71D-01
                    CP:  1.18D+00  1.04D+00  1.32D+00  1.40D+00  1.18D+00
                    CP:  1.40D+00  1.49D+00
 E= -576.413750764355     Delta-E=       -0.000000000100 Rises=F Damp=F
 DIIS: error= 1.48D-07 at cycle  13 NSaved=  13.
 NSaved=13 IEnMin=13 EnMin= -576.413750764355     IErMin=13 ErrMin= 1.48D-07
 ErrMax= 1.48D-07  0.00D+00 EMaxC= 1.00D-01 BMatC= 2.24D-12 BMatP= 1.36D-11
 IDIUse=1 WtCom= 1.00D+00 WtEn= 0.00D+00
 Coeff-Com:  0.384D-06 0.498D-05 0.399D-05-0.953D-04-0.340D-03-0.259D-03
 Coeff-Com:  0.121D-02 0.550D-02 0.397D-02-0.662D-01-0.939D-01 0.148D+00
 Coeff-Com:  0.100D+01
 Coeff:      0.384D-06 0.498D-05 0.399D-05-0.953D-04-0.340D-03-0.259D-03
 Coeff:      0.121D-02 0.550D-02 0.397D-02-0.662D-01-0.939D-01 0.148D+00
 Coeff:      0.100D+01
 Gap=     0.322 Goal=   None    Shift=    0.000
 RMSDP=8.89D-08 MaxDP=5.39D-06 DE=-1.00D-10 OVMax= 2.80D-06

 Cycle  14  Pass 1  IDiag  1:
 RMSU=  2.62D-08    CP:  6.04D-01  8.08D-01  5.41D-01  9.96D-01  6.71D-01
                    CP:  1.18D+00  1.04D+00  1.32D+00  1.40D+00  1.17D+00
                    CP:  1.45D+00  1.62D+00  1.59D+00
 E= -576.413750764364     Delta-E=       -0.000000000009 Rises=F Damp=F
 DIIS: error= 4.59D-08 at cycle  14 NSaved=  14.
 NSaved=14 IEnMin=14 EnMin= -576.413750764364     IErMin=14 ErrMin= 4.59D-08
 ErrMax= 4.59D-08  0.00D+00 EMaxC= 1.00D-01 BMatC= 4.39D-13 BMatP= 2.24D-12
 IDIUse=1 WtCom= 1.00D+00 WtEn= 0.00D+00
 Coeff-Com:  0.810D-08 0.137D-05 0.295D-05 0.193D-04 0.103D-03 0.167D-04
 Coeff-Com: -0.890D-03-0.129D-02 0.403D-02 0.276D-01-0.269D-01-0.203D+00
 Coeff-Com:  0.185D+00 0.102D+01
 Coeff:      0.810D-08 0.137D-05 0.295D-05 0.193D-04 0.103D-03 0.167D-04
 Coeff:     -0.890D-03-0.129D-02 0.403D-02 0.276D-01-0.269D-01-0.203D+00
 Coeff:      0.185D+00 0.102D+01
 Gap=     0.322 Goal=   None    Shift=    0.000
 RMSDP=4.48D-08 MaxDP=2.89D-06 DE=-9.09D-12 OVMax= 1.20D-06

 Cycle  15  Pass 1  IDiag  1:
 RMSU=  1.13D-08    CP:  6.04D-01  8.08D-01  5.41D-01  9.96D-01  6.71D-01
                    CP:  1.18D+00  1.04D+00  1.32D+00  1.40D+00  1.16D+00
                    CP:  1.44D+00  1.69D+00  1.83D+00  1.25D+00
 E= -576.413750764359     Delta-E=        0.000000000005 Rises=F Damp=F
 DIIS: error= 1.22D-08 at cycle  15 NSaved=  15.
 NSaved=15 IEnMin=14 EnMin= -576.413750764364     IErMin=15 ErrMin= 1.22D-08
 ErrMax= 1.22D-08  0.00D+00 EMaxC= 1.00D-01 BMatC= 6.68D-14 BMatP= 4.39D-13
 IDIUse=1 WtCom= 1.00D+00 WtEn= 0.00D+00
 Coeff-Com: -0.347D-07 0.272D-07 0.713D-06 0.167D-04 0.749D-04 0.377D-04
 Coeff-Com: -0.446D-03-0.103D-02 0.100D-02 0.170D-01 0.294D-02-0.995D-01
 Coeff-Com: -0.274D-01 0.376D+00 0.731D+00
 Coeff:     -0.347D-07 0.272D-07 0.713D-06 0.167D-04 0.749D-04 0.377D-04
 Coeff:     -0.446D-03-0.103D-02 0.100D-02 0.170D-01 0.294D-02-0.995D-01
 Coeff:     -0.274D-01 0.376D+00 0.731D+00
 Gap=     0.322 Goal=   None    Shift=    0.000
 RMSDP=1.06D-08 MaxDP=1.00D-06 DE= 4.55D-12 OVMax= 2.56D-07

 Cycle  16  Pass 1  IDiag  1:
 RMSU=  4.29D-09    CP:  6.04D-01  8.08D-01  5.41D-01  9.96D-01  6.71D-01
                    CP:  1.18D+00  1.04D+00  1.32D+00  1.40D+00  1.16D+00
                    CP:  1.44D+00  1.71D+00  1.86D+00  1.34D+00  1.03D+00
 E= -576.413750764357     Delta-E=        0.000000000002 Rises=F Damp=F
 DIIS: error= 6.91D-09 at cycle  16 NSaved=  16.
 NSaved=16 IEnMin=14 EnMin= -576.413750764364     IErMin=16 ErrMin= 6.91D-09
 ErrMax= 6.91D-09  0.00D+00 EMaxC= 1.00D-01 BMatC= 9.11D-15 BMatP= 6.68D-14
 IDIUse=1 WtCom= 1.00D+00 WtEn= 0.00D+00
 Coeff-Com: -0.102D-07-0.232D-06-0.376D-06 0.120D-05 0.285D-05 0.101D-04
 Coeff-Com:  0.326D-04-0.585D-04-0.552D-03-0.424D-03 0.787D-02 0.448D-02
 Coeff-Com: -0.371D-01-0.856D-01 0.222D+00 0.890D+00
 Coeff:     -0.102D-07-0.232D-06-0.376D-06 0.120D-05 0.285D-05 0.101D-04
 Coeff:      0.326D-04-0.585D-04-0.552D-03-0.424D-03 0.787D-02 0.448D-02
 Coeff:     -0.371D-01-0.856D-01 0.222D+00 0.890D+00
 Gap=     0.322 Goal=   None    Shift=    0.000
 RMSDP=4.05D-09 MaxDP=3.07D-07 DE= 1.82D-12 OVMax= 1.02D-07

 SCF Done:  E(RwB97XD) =  -576.413750764     A.U. after   16 cycles
            NFock= 16  Conv=0.40D-08     -V/T= 1.9999
 KE= 5.764597926207D+02 PE=-2.912277888314D+03 EE= 9.743782005013D+02
 Leave Link  502 at Tue Nov 22 15:01:38 2022, MaxMem= 16106127360 cpu:            1243.5 elap:              39.1
 (Enter /opt/ap/G16/B01/g16/l601.exe)
 Copying SCF densities to generalized density rwf, IOpCl= 0 IROHF=0.

 **********************************************************************

            Population analysis using the SCF Density.

 **********************************************************************

 Orbital symmetries:
       Occupied  (A) (A) (A) (A) (A) (A) (A) (A) (A) (A) (A) (A)
                 (A) (A) (A) (A) (A) (A) (A) (A) (A) (A) (A) (A)
                 (A) (A) (A) (A) (A) (A) (A) (A) (A) (A) (A) (A)
                 (A) (A) (A) (A) (A) (A) (A) (A) (A) (A) (A) (A)
       Virtual   (A) (A) (A) (A) (A) (A) (A) (A) (A) (A) (A) (A)
                 (A) (A) (A) (A) (A) (A) (A) (A) (A) (A) (A) (A)
                 (A) (A) (A) (A) (A) (A) (A) (A) (A) (A) (A) (A)
                 (A) (A) (A) (A) (A) (A) (A) (A) (A) (A) (A) (A)
                 (A) (A) (A) (A) (A) (A) (A) (A) (A) (A) (A) (A)
                 (A) (A) (A) (A) (A) (A) (A) (A) (A) (A) (A) (A)
                 (A) (A) (A) (A) (A) (A) (A) (A) (A) (A) (A) (A)
                 (A) (A) (A) (A) (A) (A) (A) (A) (A) (A) (A) (A)
                 (A) (A) (A) (A) (A) (A) (A) (A) (A) (A) (A) (A)
                 (A) (A) (A) (A) (A) (A) (A) (A) (A) (A) (A) (A)
                 (A) (A) (A) (A) (A) (A) (A) (A) (A) (A) (A) (A)
                 (A) (A) (A) (A) (A) (A) (A) (A) (A) (A) (A) (A)
                 (A) (A) (A) (A) (A) (A) (A) (A) (A) (A) (A) (A)
                 (A) (A) (A) (A) (A) (A) (A) (A) (A) (A) (A) (A)
                 (A) (A) (A) (A) (A) (A) (A) (A) (A) (A) (A) (A)
                 (A) (A) (A) (A) (A) (A) (A) (A) (A) (A) (A) (A)
                 (A) (A) (A) (A) (A) (A) (A) (A) (A) (A) (A) (A)
                 (A) (A) (A) (A) (A) (A) (A) (A) (A) (A) (A) (A)
                 (A) (A) (A) (A) (A) (A) (A) (A) (A) (A) (A) (A)
                 (A) (A) (A) (A) (A) (A) (A) (A) (A) (A) (A) (A)
                 (A) (A) (A) (A) (A) (A) (A) (A) (A) (A) (A) (A)
                 (A) (A) (A) (A) (A) (A) (A) (A) (A) (A) (A) (A)
                 (A) (A) (A) (A) (A) (A) (A) (A) (A) (A) (A) (A)
                 (A) (A) (A) (A) (A) (A) (A) (A) (A) (A) (A) (A)
                 (A) (A) (A) (A) (A) (A) (A) (A) (A) (A) (A) (A)
                 (A) (A) (A) (A) (A) (A) (A) (A) (A) (A) (A) (A)
                 (A) (A) (A) (A) (A) (A) (A) (A) (A) (A) (A) (A)
                 (A) (A) (A)
 The electronic state is 1-A.
 Alpha  occ. eigenvalues --  -19.23559 -10.38104 -10.30519 -10.30454 -10.28967
 Alpha  occ. eigenvalues --  -10.28881 -10.28627 -10.28603 -10.28497 -10.28450
 Alpha  occ. eigenvalues --  -10.28388 -10.28378 -10.28226 -10.28168  -1.14750
 Alpha  occ. eigenvalues --   -0.98050  -0.97405  -0.89411  -0.87416  -0.87334
 Alpha  occ. eigenvalues --   -0.86632  -0.76890  -0.74399  -0.73440  -0.72340
 Alpha  occ. eigenvalues --   -0.68070  -0.65104  -0.63874  -0.59735  -0.57149
 Alpha  occ. eigenvalues --   -0.56172  -0.55978  -0.54390  -0.53738  -0.53021
 Alpha  occ. eigenvalues --   -0.51873  -0.50344  -0.47555  -0.46755  -0.46023
 Alpha  occ. eigenvalues --   -0.45181  -0.44920  -0.44147  -0.34983  -0.34652
 Alpha  occ. eigenvalues --   -0.34243  -0.33996  -0.33515
 Alpha virt. eigenvalues --   -0.01306   0.03614   0.04079   0.04225   0.04303
 Alpha virt. eigenvalues --    0.04862   0.05010   0.05733   0.06044   0.07185
 Alpha virt. eigenvalues --    0.07647   0.08039   0.08910   0.10060   0.11659
 Alpha virt. eigenvalues --    0.11915   0.12033   0.12506   0.13215   0.14197
 Alpha virt. eigenvalues --    0.15014   0.15369   0.16129   0.16246   0.16861
 Alpha virt. eigenvalues --    0.16927   0.17288   0.17503   0.18062   0.18166
 Alpha virt. eigenvalues --    0.18367   0.18766   0.19026   0.19173   0.19886
 Alpha virt. eigenvalues --    0.20144   0.20462   0.20645   0.21322   0.21764
 Alpha virt. eigenvalues --    0.21963   0.22496   0.22806   0.23466   0.23811
 Alpha virt. eigenvalues --    0.24344   0.24622   0.24993   0.26082   0.26633
 Alpha virt. eigenvalues --    0.26738   0.27096   0.27634   0.28660   0.29156
 Alpha virt. eigenvalues --    0.29639   0.30173   0.30644   0.30844   0.31470
 Alpha virt. eigenvalues --    0.31827   0.32436   0.32703   0.33219   0.33463
 Alpha virt. eigenvalues --    0.34199   0.34671   0.35035   0.36095   0.36625
 Alpha virt. eigenvalues --    0.36978   0.37177   0.38057   0.38525   0.38651
 Alpha virt. eigenvalues --    0.39511   0.40139   0.41046   0.41591   0.41885
 Alpha virt. eigenvalues --    0.42352   0.42870   0.44156   0.44279   0.44627
 Alpha virt. eigenvalues --    0.45899   0.45940   0.49107   0.49824   0.52472
 Alpha virt. eigenvalues --    0.56790   0.57602   0.58427   0.59284   0.61513
 Alpha virt. eigenvalues --    0.61986   0.62846   0.63542   0.63888   0.64295
 Alpha virt. eigenvalues --    0.64408   0.65139   0.65538   0.66206   0.66812
 Alpha virt. eigenvalues --    0.67969   0.68114   0.68841   0.70100   0.71214
 Alpha virt. eigenvalues --    0.71893   0.73200   0.73880   0.74763   0.74930
 Alpha virt. eigenvalues --    0.75777   0.77141   0.77378   0.78068   0.79518
 Alpha virt. eigenvalues --    0.81065   0.81562   0.82148   0.82932   0.83935
 Alpha virt. eigenvalues --    0.84425   0.85761   0.86777   0.88120   0.88845
 Alpha virt. eigenvalues --    0.90569   0.91955   0.92162   0.93050   0.94643
 Alpha virt. eigenvalues --    0.94878   0.95350   0.95530   0.96285   0.97076
 Alpha virt. eigenvalues --    0.99195   1.00608   1.01527   1.01934   1.02112
 Alpha virt. eigenvalues --    1.03505   1.04035   1.05508   1.06624   1.09294
 Alpha virt. eigenvalues --    1.10949   1.12020   1.12333   1.13169   1.14168
 Alpha virt. eigenvalues --    1.16001   1.17260   1.17715   1.18312   1.20187
 Alpha virt. eigenvalues --    1.21401   1.22523   1.24658   1.25851   1.27217
 Alpha virt. eigenvalues --    1.29002   1.30004   1.32238   1.37770   1.38937
 Alpha virt. eigenvalues --    1.44124   1.45122   1.47203   1.55123   1.57180
 Alpha virt. eigenvalues --    1.58084   1.58323   1.60347   1.60756   1.61378
 Alpha virt. eigenvalues --    1.62545   1.63511   1.66173   1.66639   1.67472
 Alpha virt. eigenvalues --    1.68490   1.68516   1.69578   1.74170   1.74987
 Alpha virt. eigenvalues --    1.75972   1.76522   1.76540   1.79598   1.80396
 Alpha virt. eigenvalues --    1.82741   1.83491   1.86127   1.88533   1.88948
 Alpha virt. eigenvalues --    1.91411   1.91888   1.94289   1.94819   1.95391
 Alpha virt. eigenvalues --    1.96976   1.98076   2.01066   2.01425   2.01759
 Alpha virt. eigenvalues --    2.02730   2.04042   2.05036   2.05826   2.06037
 Alpha virt. eigenvalues --    2.06656   2.09257   2.10586   2.12170   2.12405
 Alpha virt. eigenvalues --    2.15884   2.17127   2.20199   2.21477   2.22831
 Alpha virt. eigenvalues --    2.26378   2.27921   2.29706   2.31831   2.34192
 Alpha virt. eigenvalues --    2.42081   2.43176   2.47665   2.48668   2.49885
 Alpha virt. eigenvalues --    2.50130   2.50456   2.51616   2.53343   2.58414
 Alpha virt. eigenvalues --    2.59910   2.62325   2.67483   2.69134   2.73144
 Alpha virt. eigenvalues --    2.77800   2.79540   2.81710   2.81936   2.83116
 Alpha virt. eigenvalues --    2.84672   2.86208   2.87701   2.89881   2.90321
 Alpha virt. eigenvalues --    2.92616   2.93797   2.94035   2.96238   2.97393
 Alpha virt. eigenvalues --    2.97990   2.98059   2.99965   3.00274   3.00745
 Alpha virt. eigenvalues --    3.01833   3.02665   3.04325   3.05139   3.07266
 Alpha virt. eigenvalues --    3.07965   3.12612   3.13559   3.14961   3.20277
 Alpha virt. eigenvalues --    3.20818   3.23195   3.25033   3.25938   3.28628
 Alpha virt. eigenvalues --    3.31783   3.33538   3.39571   3.45300   3.49440
 Alpha virt. eigenvalues --    3.50055   3.51612   3.52016   3.65671   3.69131
 Alpha virt. eigenvalues --    3.70061   3.72602   3.75000   3.76800   3.82518
 Alpha virt. eigenvalues --    3.88791   3.92017   3.97300   4.32819   4.36514
 Alpha virt. eigenvalues --    4.38283   4.39483   4.40770   4.43002   4.45980
 Alpha virt. eigenvalues --    4.51446   4.52685   4.64258   4.94678   4.96215
 Alpha virt. eigenvalues --    5.19662   5.36394   5.87395  23.88641  23.95953
 Alpha virt. eigenvalues --   24.00808  24.16871  24.18022  24.24343  24.24948
 Alpha virt. eigenvalues --   24.30304  24.31267  24.33910  24.34591  24.43608
 Alpha virt. eigenvalues --   24.44537  50.17245
          Condensed to atoms (all electrons):
               1          2          3          4          5          6
     1  C   15.368881  -1.408847   1.020327  -1.392635  -0.114909  -1.803310
     2  C   -1.408847  14.149804  -4.726621  -1.884881   0.795135   0.475365
     3  C    1.020327  -4.726621  10.190344   1.156636  -0.096270  -1.611905
     4  C   -1.392635  -1.884881   1.156636   7.905507  -0.203416  -0.140693
     5  H   -0.114909   0.795135  -0.096270  -0.203416   0.702480   0.005380
     6  C   -1.803310   0.475365  -1.611905  -0.140693   0.005380  10.160055
     7  C   -0.895762   0.183020   0.286843  -0.392127   0.072833  -0.271671
     8  H    0.089758   0.019138   0.441739   0.023345  -0.000864  -0.034796
     9  C   -0.355225   0.455405  -0.812931   0.502204  -0.029489  -0.190415
    10  H    0.071278  -0.138260   0.058319   0.433741  -0.026535   0.005334
    11  C   -3.723431  -0.931340  -0.047956  -0.099942   0.099121  -0.758425
    12  O   -0.202434  -0.252525   0.298066  -0.021253   0.000013   0.682876
    13  H   -0.022625  -0.012852  -0.056301  -0.002653  -0.000265   0.030852
    14  H    0.029020  -0.006780  -0.007038  -0.071747  -0.001165  -0.018182
    15  C   -0.545669  -1.058309   0.274181   0.471632  -0.194607   0.198471
    16  C   -0.540970   0.921014  -0.620745  -0.141066   0.082083  -0.364607
    17  C   -0.591742   0.752739  -0.245609   0.017078  -0.049238   0.193932
    18  H    0.095963  -0.185300   0.027922   0.000621  -0.078445   0.000381
    19  C    0.104464   0.029119   0.011355   0.011133   0.016840   0.184984
    20  H   -0.082922   0.011241  -0.018628   0.002393  -0.002734  -0.022389
    21  C   -0.155301  -0.018643  -0.007568   0.033058  -0.010987  -0.067247
    22  H   -0.011203   0.012562  -0.004412   0.001125  -0.001383   0.000769
    23  H    0.006088   0.001802  -0.001025   0.000250  -0.000088   0.006477
    24  H   -0.001635  -0.006601   0.001246   0.000039  -0.001153  -0.013680
               7          8          9         10         11         12
     1  C   -0.895762   0.089758  -0.355225   0.071278  -3.723431  -0.202434
     2  C    0.183020   0.019138   0.455405  -0.138260  -0.931340  -0.252525
     3  C    0.286843   0.441739  -0.812931   0.058319  -0.047956   0.298066
     4  C   -0.392127   0.023345   0.502204   0.433741  -0.099942  -0.021253
     5  H    0.072833  -0.000864  -0.029489  -0.026535   0.099121   0.000013
     6  C   -0.271671  -0.034796  -0.190415   0.005334  -0.758425   0.682876
     7  C    7.275688  -0.149801   0.196239   0.008798  -0.218457   0.085922
     8  H   -0.149801   0.451159   0.018555   0.000352  -0.047520  -0.006502
     9  C    0.196239   0.018555   6.047416  -0.096242   0.024612  -0.001566
    10  H    0.008798   0.000352  -0.096242   0.493703  -0.019501   0.000159
    11  C   -0.218457  -0.047520   0.024612  -0.019501  13.482767  -0.351241
    12  O    0.085922  -0.006502  -0.001566   0.000159  -0.351241   8.021261
    13  H    0.501082  -0.016503  -0.096968   0.001588   0.002328   0.001604
    14  H   -0.108638   0.002427   0.533462  -0.015632   0.003020  -0.000048
    15  C    0.093143  -0.001380  -0.159982   0.026527   0.672330  -0.097088
    16  C   -0.168904  -0.002664   0.110725  -0.013474  -1.451038   0.049216
    17  C   -0.033699   0.003194   0.046836  -0.000566  -0.859008  -0.017819
    18  H   -0.003574  -0.002899  -0.007649   0.002909  -0.065663  -0.009169
    19  C   -0.004742   0.000182   0.008107  -0.001688  -0.865360   0.037331
    20  H   -0.001292  -0.000565   0.000325   0.000029   0.113616  -0.015810
    21  C   -0.004382  -0.000082  -0.004785   0.002110  -0.038287   0.003557
    22  H   -0.000990   0.000034   0.002395  -0.000231   0.006270   0.000040
    23  H   -0.000303  -0.000028   0.000280  -0.000050  -0.025069   0.000302
    24  H    0.000030  -0.000035  -0.000247   0.000082   0.038637   0.000039
              13         14         15         16         17         18
     1  C   -0.022625   0.029020  -0.545669  -0.540970  -0.591742   0.095963
     2  C   -0.012852  -0.006780  -1.058309   0.921014   0.752739  -0.185300
     3  C   -0.056301  -0.007038   0.274181  -0.620745  -0.245609   0.027922
     4  C   -0.002653  -0.071747   0.471632  -0.141066   0.017078   0.000621
     5  H   -0.000265  -0.001165  -0.194607   0.082083  -0.049238  -0.078445
     6  C    0.030852  -0.018182   0.198471  -0.364607   0.193932   0.000381
     7  C    0.501082  -0.108638   0.093143  -0.168904  -0.033699  -0.003574
     8  H   -0.016503   0.002427  -0.001380  -0.002664   0.003194  -0.002899
     9  C   -0.096968   0.533462  -0.159982   0.110725   0.046836  -0.007649
    10  H    0.001588  -0.015632   0.026527  -0.013474  -0.000566   0.002909
    11  C    0.002328   0.003020   0.672330  -1.451038  -0.859008  -0.065663
    12  O    0.001604  -0.000048  -0.097088   0.049216  -0.017819  -0.009169
    13  H    0.492595  -0.019624   0.005039  -0.004853  -0.000702   0.000948
    14  H   -0.019624   0.503580  -0.009585   0.003922   0.000963  -0.000698
    15  C    0.005039  -0.009585  13.203574  -5.448996  -1.541431   0.596873
    16  C   -0.004853   0.003922  -5.448996  11.698690   1.528063  -0.047153
    17  C   -0.000702   0.000963  -1.541431   1.528063   6.714218  -0.077515
    18  H    0.000948  -0.000698   0.596873  -0.047153  -0.077515   0.638472
    19  C   -0.000476   0.000285  -0.081810   0.599556  -0.177951   0.020057
    20  H   -0.000018  -0.000045   0.059605   0.384271   0.006768  -0.000255
    21  C    0.000094  -0.000266   0.242456  -0.578199   0.283539  -0.031545
    22  H   -0.000045   0.000072  -0.089196   0.043797   0.449547  -0.011836
    23  H   -0.000006   0.000011  -0.017429  -0.026530   0.013381   0.002473
    24  H    0.000004  -0.000010   0.021419  -0.036777  -0.094314  -0.000894
              19         20         21         22         23         24
     1  C    0.104464  -0.082922  -0.155301  -0.011203   0.006088  -0.001635
     2  C    0.029119   0.011241  -0.018643   0.012562   0.001802  -0.006601
     3  C    0.011355  -0.018628  -0.007568  -0.004412  -0.001025   0.001246
     4  C    0.011133   0.002393   0.033058   0.001125   0.000250   0.000039
     5  H    0.016840  -0.002734  -0.010987  -0.001383  -0.000088  -0.001153
     6  C    0.184984  -0.022389  -0.067247   0.000769   0.006477  -0.013680
     7  C   -0.004742  -0.001292  -0.004382  -0.000990  -0.000303   0.000030
     8  H    0.000182  -0.000565  -0.000082   0.000034  -0.000028  -0.000035
     9  C    0.008107   0.000325  -0.004785   0.002395   0.000280  -0.000247
    10  H   -0.001688   0.000029   0.002110  -0.000231  -0.000050   0.000082
    11  C   -0.865360   0.113616  -0.038287   0.006270  -0.025069   0.038637
    12  O    0.037331  -0.015810   0.003557   0.000040   0.000302   0.000039
    13  H   -0.000476  -0.000018   0.000094  -0.000045  -0.000006   0.000004
    14  H    0.000285  -0.000045  -0.000266   0.000072   0.000011  -0.000010
    15  C   -0.081810   0.059605   0.242456  -0.089196  -0.017429   0.021419
    16  C    0.599556   0.384271  -0.578199   0.043797  -0.026530  -0.036777
    17  C   -0.177951   0.006768   0.283539   0.449547   0.013381  -0.094314
    18  H    0.020057  -0.000255  -0.031545  -0.011836   0.002473  -0.000894
    19  C    5.835054  -0.117093   0.359716   0.005379   0.468296  -0.072265
    20  H   -0.117093   0.463040   0.017097   0.000542  -0.015554   0.001738
    21  C    0.359716   0.017097   5.843936  -0.077662  -0.083932   0.511336
    22  H    0.005379   0.000542  -0.077662   0.488371   0.000541  -0.014226
    23  H    0.468296  -0.015554  -0.083932   0.000541   0.491344  -0.015374
    24  H   -0.072265   0.001738   0.511336  -0.014226  -0.015374   0.499837
 Mulliken charges:
               1
     1  C    1.062839
     2  C   -1.175387
     3  C    0.490030
     4  C   -0.208350
     5  H    0.037661
     6  C   -0.647557
     7  C   -0.449256
     8  H    0.213754
     9  C   -0.191064
    10  H    0.207250
    11  C    1.059536
    12  O   -0.204931
    13  H    0.197758
    14  H    0.182697
    15  C   -0.619767
    16  C    0.024640
    17  C   -0.320664
    18  H    0.135975
    19  C   -0.370474
    20  H    0.216638
    21  C   -0.218014
    22  H    0.199738
    23  H    0.194143
    24  H    0.182806
 Sum of Mulliken charges =  -0.00000
 Mulliken charges with hydrogens summed into heavy atoms:
               1
     1  C    1.062839
     2  C   -1.137726
     3  C    0.703784
     4  C   -0.001099
     6  C   -0.647557
     7  C   -0.251498
     9  C   -0.008367
    11  C    1.059536
    12  O   -0.204931
    15  C   -0.483793
    16  C    0.241277
    17  C   -0.120927
    19  C   -0.176331
    21  C   -0.035208
 Electronic spatial extent (au):  <R**2>=           3052.4134
 Charge=             -0.0000 electrons
 Dipole moment (field-independent basis, Debye):
    X=             -0.0804    Y=             -3.2006    Z=              0.4999  Tot=              3.2404
 Quadrupole moment (field-independent basis, Debye-Ang):
   XX=            -63.1272   YY=            -80.3724   ZZ=            -84.1259
   XY=             -0.5069   XZ=              1.2577   YZ=              2.4557
 Traceless Quadrupole moment (field-independent basis, Debye-Ang):
   XX=             12.7480   YY=             -4.4972   ZZ=             -8.2508
   XY=             -0.5069   XZ=              1.2577   YZ=              2.4557
 Octapole moment (field-independent basis, Debye-Ang**2):
  XXX=             -3.4168  YYY=            -23.9168  ZZZ=             -1.7302  XYY=             -1.8503
  XXY=             -1.0626  XXZ=              9.4122  XZZ=              2.4942  YZZ=              4.3701
  YYZ=              3.0787  XYZ=             11.1037
 Hexadecapole moment (field-independent basis, Debye-Ang**3):
 XXXX=          -2824.7206 YYYY=           -783.9544 ZZZZ=           -152.5149 XXXY=            -13.9692
 XXXZ=             31.5200 YYYX=             -0.6804 YYYZ=             11.9228 ZZZX=              3.2362
 ZZZY=              0.2307 XXYY=           -601.5632 XXZZ=           -613.7904 YYZZ=           -154.1663
 XXYZ=              5.9400 YYXZ=             -4.9488 ZZXY=              1.9448
 N-N= 7.850261444281D+02 E-N=-2.912277888538D+03  KE= 5.764597926207D+02
 No NMR shielding tensors so no spin-rotation constants.
 Leave Link  601 at Tue Nov 22 15:01:38 2022, MaxMem= 16106127360 cpu:               4.7 elap:               0.2
 (Enter /opt/ap/G16/B01/g16/l9999.exe)
 1\1\GINC-N19\SP\RwB97XD\6-311++G(d,p)\C13H10O1\ROOT\22-Nov-2022\0\\#P 
 wB97XD/6-311++G(d,p) scf=maxcycle=512\\_conf019.gjf nmol_natom 1_24\\0
 ,1\C\C,1,1.39746343\C,1,1.39996263,2,119.28066518\C,2,1.39288453,1,120
 .37436646,3,-0.51002981,0\H,2,0.95014703,1,119.82324024,3,179.45634896
 ,0\C,1,1.49653039,2,122.77761373,4,174.46828757,0\C,3,1.3870125,1,120.
 10017821,2,-0.37315804,0\H,3,0.9501092,1,119.95246451,2,179.5923884,0\
 C,7,1.38720039,3,120.16568731,1,1.0745106,0\H,4,0.95011919,2,120.18755
 644,1,-179.31195299,0\C,6,1.49516902,1,120.70972921,2,5.,0\O,6,1.22150
 059,1,119.67074267,2,-175.,0\H,7,0.94956661,3,119.91274826,1,-178.8863
 6029,0\H,9,0.94992259,7,119.76037934,3,179.10763853,0\C,11,1.39713972,
 6,122.62585705,1,30.97749054,0\C,11,1.40039562,6,117.74753532,1,-153.1
 5467779,0\C,15,1.39455701,11,119.80747484,6,175.4763048,0\H,15,0.94962
 854,11,120.10535689,6,-4.50802339,0\C,16,1.38466431,11,120.4617377,6,-
 176.88197195,0\H,16,0.9497464,11,119.75779177,6,3.14699974,0\C,17,1.39
 088945,15,120.3475273,11,0.7973643,0\H,17,0.94984298,15,119.8156451,11
 ,-179.16676483,0\H,19,0.94974749,16,119.98566335,11,-178.40987425,0\H,
 21,0.94938585,17,120.0744529,15,179.91636093,0\\Version=ES64L-G16RevB.
 01\State=1-A\HF=-576.4137508\RMSD=4.046e-09\Dipole=-0.0381596,0.039663
 3,1.2736912\Quadrupole=9.4411206,-5.315299,-4.1258217,1.1651745,0.1226
 728,2.2563199\PG=C01 [X(C13H10O1)]\\@


 ... THIS SEEMS PLAINLY ABSURD; BUT WHOEVER WISHES TO BECOME A 
 PHILOSOPHER MUST LEARN NOT TO BE FRIGHTENED BY ABSURDITIES.

                          -- BERTRAND RUSSELL
 Job cpu time:       0 days  0 hours 21 minutes 55.3 seconds.
 Elapsed time:       0 days  0 hours  0 minutes 41.4 seconds.
 File lengths (MBytes):  RWF=     78 Int=      0 D2E=      0 Chk=      9 Scr=      1
 Normal termination of Gaussian 16 at Tue Nov 22 15:01:38 2022.
