 Entering Gaussian System, Link 0=g16
 Input=_conf018.gjf
 Output=_conf018.log
 Initial command:
 /opt/ap/G16/B01/g16/l1.exe "/tmp2/scr/Gau-5205.inp" -scrdir="/tmp2/scr/"
 Entering Link 1 = /opt/ap/G16/B01/g16/l1.exe PID=      5206.
  
 Copyright (c) 1988-2017, Gaussian, Inc.  All Rights Reserved.
  
 This is part of the Gaussian(R) 16 program.  It is based on
 the Gaussian(R) 09 system (copyright 2009, Gaussian, Inc.),
 the Gaussian(R) 03 system (copyright 2003, Gaussian, Inc.),
 the Gaussian(R) 98 system (copyright 1998, Gaussian, Inc.),
 the Gaussian(R) 94 system (copyright 1995, Gaussian, Inc.),
 the Gaussian 92(TM) system (copyright 1992, Gaussian, Inc.),
 the Gaussian 90(TM) system (copyright 1990, Gaussian, Inc.),
 the Gaussian 88(TM) system (copyright 1988, Gaussian, Inc.),
 the Gaussian 86(TM) system (copyright 1986, Carnegie Mellon
 University), and the Gaussian 82(TM) system (copyright 1983,
 Carnegie Mellon University). Gaussian is a federally registered
 trademark of Gaussian, Inc.
  
 This software contains proprietary and confidential information,
 including trade secrets, belonging to Gaussian, Inc.
  
 This software is provided under written license and may be
 used, copied, transmitted, or stored only in accord with that
 written license.
  
 The following legend is applicable only to US Government
 contracts under FAR:
  
                    RESTRICTED RIGHTS LEGEND
  
 Use, reproduction and disclosure by the US Government is
 subject to restrictions as set forth in subparagraphs (a)
 and (c) of the Commercial Computer Software - Restricted
 Rights clause in FAR 52.227-19.
  
 Gaussian, Inc.
 340 Quinnipiac St., Bldg. 40, Wallingford CT 06492
  
  
 ---------------------------------------------------------------
 Warning -- This program may not be used in any manner that
 competes with the business of Gaussian, Inc. or will provide
 assistance to any competitor of Gaussian, Inc.  The licensee
 of this program is prohibited from giving any competitor of
 Gaussian, Inc. access to this program.  By using this program,
 the user acknowledges that Gaussian, Inc. is engaged in the
 business of creating and licensing software in the field of
 computational chemistry and represents and warrants to the
 licensee that it is not a competitor of Gaussian, Inc. and that
 it will not use this program in any manner prohibited above.
 ---------------------------------------------------------------
  

 Cite this work as:
 Gaussian 16, Revision B.01,
 M. J. Frisch, G. W. Trucks, H. B. Schlegel, G. E. Scuseria, 
 M. A. Robb, J. R. Cheeseman, G. Scalmani, V. Barone, 
 G. A. Petersson, H. Nakatsuji, X. Li, M. Caricato, A. V. Marenich, 
 J. Bloino, B. G. Janesko, R. Gomperts, B. Mennucci, H. P. Hratchian, 
 J. V. Ortiz, A. F. Izmaylov, J. L. Sonnenberg, D. Williams-Young, 
 F. Ding, F. Lipparini, F. Egidi, J. Goings, B. Peng, A. Petrone, 
 T. Henderson, D. Ranasinghe, V. G. Zakrzewski, J. Gao, N. Rega, 
 G. Zheng, W. Liang, M. Hada, M. Ehara, K. Toyota, R. Fukuda, 
 J. Hasegawa, M. Ishida, T. Nakajima, Y. Honda, O. Kitao, H. Nakai, 
 T. Vreven, K. Throssell, J. A. Montgomery, Jr., J. E. Peralta, 
 F. Ogliaro, M. J. Bearpark, J. J. Heyd, E. N. Brothers, K. N. Kudin, 
 V. N. Staroverov, T. A. Keith, R. Kobayashi, J. Normand, 
 K. Raghavachari, A. P. Rendell, J. C. Burant, S. S. Iyengar, 
 J. Tomasi, M. Cossi, J. M. Millam, M. Klene, C. Adamo, R. Cammi, 
 J. W. Ochterski, R. L. Martin, K. Morokuma, O. Farkas, 
 J. B. Foresman, and D. J. Fox, Gaussian, Inc., Wallingford CT, 2016.
 
 ******************************************
 Gaussian 16:  ES64L-G16RevB.01 20-Dec-2017
                22-Nov-2022 
 ******************************************
 %nprocshared=32
 Will use up to   32 processors via shared memory.
 %mem=120GB
 %chk=_conf018.chk
 ----------------------------------------
 #P wB97XD/6-311++G(d,p) scf=maxcycle=512
 ----------------------------------------
 1/38=1,172=1/1;
 2/12=2,17=6,18=5,40=1/2;
 3/5=4,6=6,7=1111,11=2,25=1,30=1,74=-58/1,2,3;
 4//1;
 5/5=2,7=512,38=5/2;
 6/7=2,8=2,9=2,10=2,28=1/1;
 99/5=1,9=1/99;
 Leave Link    1 at Tue Nov 22 15:00:53 2022, MaxMem= 16106127360 cpu:               1.5 elap:               0.1
 (Enter /opt/ap/G16/B01/g16/l101.exe)
 ----------------------------
 _conf018.gjf nmol_natom 1_24
 ----------------------------
 Symbolic Z-matrix:
 Charge =  0 Multiplicity = 1
 C
 C                    1     1.39746 
 C                    1     1.39996  2     119.28067 
 C                    2     1.39288  1     120.37437  3    -0.51003  0
 H                    2     0.95015  1     119.82324  3     179.45635  0
 C                    1     1.49653  2     122.77761  4     174.46829  0
 C                    3     1.38701  1     120.10018  2    -0.37316  0
 H                    3     0.95011  1     119.95246  2     179.59239  0
 C                    7     1.3872   3     120.16569  1     1.07451  0
 H                    4     0.95012  2     120.18756  1    -179.31195  0
 C                    6     1.49517  1     120.70973  2     0.       0
 O                    6     1.2215   1     119.67074  2    -180.     0
 H                    7     0.94957  3     119.91275  1    -178.88636  0
 H                    9     0.94992  7     119.76038  3     179.10764  0
 C                    11    1.39714  6     122.62586  1     30.97749  0
 C                    11    1.4004   6     117.74754  1    -153.15468  0
 C                    15    1.39456  11    119.80747  6     175.4763  0
 H                    15    0.94963  11    120.10536  6    -4.50802  0
 C                    16    1.38466  11    120.46174  6    -176.88197  0
 H                    16    0.94975  11    119.75779  6     3.147    0
 C                    17    1.39089  15    120.34753  11    0.79736  0
 H                    17    0.94984  15    119.81565  11   -179.16676  0
 H                    19    0.94975  16    119.98566  11   -178.40987  0
 H                    21    0.94939  17    120.07445  15    179.91636  0
 
 ITRead=  0  0  0  0  0  0  0  0  0  0  0  0  0  0  0  0  0  0  0  0
 ITRead=  0  0  0  0
 MicOpt= -1 -1 -1 -1 -1 -1 -1 -1 -1 -1 -1 -1 -1 -1 -1 -1 -1 -1 -1 -1
 MicOpt= -1 -1 -1 -1
 NAtoms=     24 NQM=       24 NQMF=       0 NMMI=      0 NMMIF=      0
                NMic=       0 NMicF=      0.
                    Isotopes and Nuclear Properties:
 (Nuclear quadrupole moments (NQMom) in fm**2, nuclear magnetic moments (NMagM)
  in nuclear magnetons)

  Atom         1           2           3           4           5           6           7           8           9          10
 IAtWgt=          12          12          12          12           1          12          12           1          12           1
 AtmWgt=  12.0000000  12.0000000  12.0000000  12.0000000   1.0078250  12.0000000  12.0000000   1.0078250  12.0000000   1.0078250
 NucSpn=           0           0           0           0           1           0           0           1           0           1
 AtZEff=  -0.0000000  -0.0000000  -0.0000000  -0.0000000  -0.0000000  -0.0000000  -0.0000000  -0.0000000  -0.0000000  -0.0000000
 NQMom=    0.0000000   0.0000000   0.0000000   0.0000000   0.0000000   0.0000000   0.0000000   0.0000000   0.0000000   0.0000000
 NMagM=    0.0000000   0.0000000   0.0000000   0.0000000   2.7928460   0.0000000   0.0000000   2.7928460   0.0000000   2.7928460
 AtZNuc=   6.0000000   6.0000000   6.0000000   6.0000000   1.0000000   6.0000000   6.0000000   1.0000000   6.0000000   1.0000000

  Atom        11          12          13          14          15          16          17          18          19          20
 IAtWgt=          12          16           1           1          12          12          12           1          12           1
 AtmWgt=  12.0000000  15.9949146   1.0078250   1.0078250  12.0000000  12.0000000  12.0000000   1.0078250  12.0000000   1.0078250
 NucSpn=           0           0           1           1           0           0           0           1           0           1
 AtZEff=  -0.0000000  -0.0000000  -0.0000000  -0.0000000  -0.0000000  -0.0000000  -0.0000000  -0.0000000  -0.0000000  -0.0000000
 NQMom=    0.0000000   0.0000000   0.0000000   0.0000000   0.0000000   0.0000000   0.0000000   0.0000000   0.0000000   0.0000000
 NMagM=    0.0000000   0.0000000   2.7928460   2.7928460   0.0000000   0.0000000   0.0000000   2.7928460   0.0000000   2.7928460
 AtZNuc=   6.0000000   8.0000000   1.0000000   1.0000000   6.0000000   6.0000000   6.0000000   1.0000000   6.0000000   1.0000000

  Atom        21          22          23          24
 IAtWgt=          12           1           1           1
 AtmWgt=  12.0000000   1.0078250   1.0078250   1.0078250
 NucSpn=           0           1           1           1
 AtZEff=  -0.0000000  -0.0000000  -0.0000000  -0.0000000
 NQMom=    0.0000000   0.0000000   0.0000000   0.0000000
 NMagM=    0.0000000   2.7928460   2.7928460   2.7928460
 AtZNuc=   6.0000000   1.0000000   1.0000000   1.0000000
 Leave Link  101 at Tue Nov 22 15:00:53 2022, MaxMem= 16106127360 cpu:               5.3 elap:               0.2
 (Enter /opt/ap/G16/B01/g16/l202.exe)
                          Input orientation:                          
 ---------------------------------------------------------------------
 Center     Atomic      Atomic             Coordinates (Angstroms)
 Number     Number       Type             X           Y           Z
 ---------------------------------------------------------------------
      1          6           0        0.000000    0.000000    0.000000
      2          6           0        0.000000    0.000000    1.397463
      3          6           0        1.221096    0.000000   -0.684705
      4          6           0        1.201650   -0.010697    2.101772
      5          1           0       -0.824276    0.007821    1.869996
      6          6           0       -1.253421   -0.110138   -0.810191
      7          6           0        2.414707    0.007815    0.021719
      8          1           0        1.232246   -0.005856   -1.634731
      9          6           0        2.403895   -0.006831    1.408800
     10          1           0        1.198494   -0.020531    3.051836
     11          6           0       -2.586216   -0.227251   -0.142755
     12          8           0       -1.187471   -0.104343   -2.029896
     13          1           0        3.241298    0.023792   -0.445367
     14          1           0        3.224827   -0.014217    1.886678
     15          6           0       -2.862075    0.356484    1.096259
     16          6           0       -3.610138   -0.879054   -0.841212
     17          6           0       -4.152228    0.290880    1.621608
     18          1           0       -2.173195    0.796863    1.579275
     19          6           0       -4.883475   -0.962893   -0.303737
     20          1           0       -3.429635   -1.266609   -1.689291
     21          6           0       -5.161506   -0.366788    0.926336
     22          1           0       -4.342676    0.697951    2.458402
     23          1           0       -5.567167   -1.426039   -0.772864
     24          1           0       -6.038171   -0.410117    1.288157
 ---------------------------------------------------------------------
                    Distance matrix (angstroms):
                    1          2          3          4          5
     1  C    0.000000
     2  C    1.397463   0.000000
     3  C    1.399963   2.413814   0.000000
     4  C    2.421058   1.392885   2.786566   0.000000
     5  H    2.043619   0.950147   3.272630   2.039225   0.000000
     6  C    1.496530   2.541049   2.480142   3.810091   2.716889
     7  C    2.414817   2.779127   1.387013   2.408002   3.729228
     8  H    2.047146   3.273021   0.950109   3.736632   4.063567
     9  C    2.786301   2.403931   2.404542   1.387667   3.260982
    10  H    3.278797   2.042977   3.736665   0.950119   2.342893
    11  C    2.600103   3.018680   3.852398   4.408256   2.685304
    12  O    2.354029   3.628742   2.760728   4.773610   3.918374
    13  H    3.271839   3.728619   2.034469   3.263323   4.678681
    14  H    3.736210   3.261755   3.259932   2.034583   4.049198
    15  C    3.085505   2.899876   4.468915   4.202349   2.207456
    16  C    3.809655   4.337915   4.913049   5.706882   3.987258
    17  C    4.467127   4.168435   5.854596   5.383820   3.349192
    18  H    2.802120   2.321814   4.157139   3.509235   1.589556
    19  C    4.986757   5.260187   6.191775   6.612253   4.705794
    20  H    4.027455   4.784845   4.923696   6.115413   4.591361
    21  C    5.256784   5.195926   6.592996   6.480602   4.454480
    22  H    5.038821   4.524551   6.428205   5.600796   3.633406
    23  H    5.798643   6.143066   6.936993   7.488899   5.615664
    24  H    6.187654   6.053070   7.533747   7.296336   5.262881
                    6          7          8          9         10
     6  C    0.000000
     7  C    3.763130   0.000000
     8  H    2.620930   2.035246   0.000000
     9  C    4.279082   1.387200   3.261263   0.000000
    10  H    4.575496   3.265208   4.686711   2.037829   0.000000
    11  C    1.495169   5.009145   4.105564   5.230402   4.957032
    12  O    1.221501   4.146974   2.453749   4.973132   5.614611
    13  H    4.511488   0.949567   2.334899   2.034727   4.050363
    14  H    5.228480   2.033434   4.046081   0.949923   2.337447
    15  C    2.537727   5.396354   4.934882   5.287733   4.522681
    16  C    2.479176   6.150605   4.984057   6.480117   6.246265
    17  C    3.804937   6.764939   6.299552   6.566328   5.547320
    18  H    2.716281   4.908912   4.750917   4.650240   3.768933
    19  C    3.763108   7.369644   6.331627   7.546694   7.009869
    20  H    2.616515   6.221578   4.829658   6.724230   6.741703
    21  C    4.284219   7.639219   6.897057   7.589310   6.714704
    22  H    4.569487   7.216366   6.951894   6.864008   5.618981
    23  H    4.510144   8.148473   6.999411   8.385203   7.897971
    24  H    5.233249   8.557434   7.846379   8.452554   7.458664
                   11         12         13         14         15
    11  C    0.000000
    12  O    2.352211   0.000000
    13  H    5.840763   4.705438   0.000000
    14  H    6.158912   5.900513   2.332413   0.000000
    15  C    1.397140   3.576242   6.303845   6.149192   0.000000
    16  C    1.400396   2.807573   6.921994   7.409864   2.416598
    17  C    2.415332   4.720113   7.681663   7.388118   1.394557
    18  H    2.045674   3.848369   5.832113   5.467265   0.949629
    19  C    2.417537   4.168594   8.185691   8.452365   2.790484
    20  H    2.045335   2.548367   6.907519   7.657539   3.273506
    21  C    2.791872   4.959954   8.522983   8.448500   2.416481
    22  H    3.272181   5.544711   8.148805   7.622412   2.040640
    23  H    3.274172   4.744339   8.932991   9.293308   3.740125
    24  H    3.741249   5.884919   9.449970   9.290754   3.272933
                   16         17         18         19         20
    16  C    0.000000
    17  C    2.779944   0.000000
    18  H    3.276013   2.043131   0.000000
    19  C    1.384664   2.411145   3.740066   0.000000
    20  H    0.949746   3.729607   4.064490   2.031171   0.000000
    21  C    2.406945   1.390889   3.272678   1.394891   3.263520
    22  H    3.729747   0.949843   2.342925   3.268069   4.679370
    23  H    2.033181   3.268541   4.689659   0.949747   2.331159
    24  H    3.263351   2.039453   4.059507   2.042795   4.050092
                   21         22         23         24
    21  C    0.000000
    22  H    2.037493   0.000000
    23  H    2.043001   4.056081   0.000000
    24  H    0.949386   2.339229   2.345581   0.000000
 Stoichiometry    C13H10O
 Framework group  C1[X(C13H10O)]
 Deg. of freedom    66
 Full point group                 C1      NOp   1
 Largest Abelian subgroup         C1      NOp   1
 Largest concise Abelian subgroup C1      NOp   1
                         Standard orientation:                         
 ---------------------------------------------------------------------
 Center     Atomic      Atomic             Coordinates (Angstroms)
 Number     Number       Type             X           Y           Z
 ---------------------------------------------------------------------
      1          6           0       -1.309205    0.330656   -0.101055
      2          6           0       -1.382984   -1.051353    0.092623
      3          6           0       -2.489587    1.083087   -0.122071
      4          6           0       -2.616593   -1.672332    0.273512
      5          1           0       -0.587271   -1.570544    0.100510
      6          6           0       -0.010166    1.069452   -0.180306
      7          6           0       -3.716566    0.457024    0.040326
      8          1           0       -2.450139    2.024084   -0.247274
      9          6           0       -3.778023   -0.913409    0.246389
     10          1           0       -2.662935   -2.610757    0.414714
     11          6           0        1.290418    0.343006   -0.052677
     12          8           0       -0.011872    2.278954   -0.351087
     13          1           0       -4.516500    0.967761    0.009810
     14          1           0       -4.620610   -1.334384    0.369589
     15          6           0        1.459917   -0.978050   -0.474670
     16          6           0        2.391957    1.058516    0.432880
     17          6           0        2.721997   -1.568297   -0.415070
     18          1           0        0.717999   -1.472644   -0.801363
     19          6           0        3.637891    0.459773    0.513203
     20          1           0        2.283403    1.960620    0.709361
     21          6           0        3.809180   -0.854244    0.077611
     22          1           0        2.839720   -2.462487   -0.713009
     23          1           0        4.375464    0.944023    0.864640
     24          1           0        4.666428   -1.260278    0.117547
 ---------------------------------------------------------------------
 Rotational constants (GHZ):           1.7612099           0.4206603           0.3477259
 Leave Link  202 at Tue Nov 22 15:00:53 2022, MaxMem= 16106127360 cpu:               0.4 elap:               0.0
 (Enter /opt/ap/G16/B01/g16/l301.exe)
 Standard basis: 6-311++G(d,p) (5D, 7F)
 Ernie: Thresh=  0.10000D-02 Tol=  0.10000D-05 Strict=F.
 There are   392 symmetry adapted cartesian basis functions of A   symmetry.
 There are   378 symmetry adapted basis functions of A   symmetry.
   378 basis functions,   594 primitive gaussians,   392 cartesian basis functions
    48 alpha electrons       48 beta electrons
       nuclear repulsion energy       785.2664723993 Hartrees.
 IExCor= 4639 DFT=T Ex+Corr=wB97XD ExCW=0 ScaHFX=  1.000000
 ScaDFX=  1.000000  1.000000  1.000000  1.000000 ScalE2=  1.000000  1.000000
 IRadAn=      5 IRanWt=     -1 IRanGd=            0 ICorTp=0 IEmpDi=121
 HFx  wShort=  0.000000 wLong=  0.200000 cFull=  0.222036 cShort=  0.000000 cLong=  0.777964
 DFx  wShort=  0.000000 wLong=  0.200000 cFull=  0.000000 cShort=  0.000000 cLong=  1.000000
 NAtoms=   24 NActive=   24 NUniq=   24 SFac= 1.00D+00 NAtFMM=   60 NAOKFM=F Big=F
 Integral buffers will be    131072 words long.
 Raffenetti 2 integral format.
 Two-electron integral symmetry is turned on.
 R6Disp:  Grimme-D2 Dispersion energy=       -0.0137912039 Hartrees.
 Nuclear repulsion after empirical dispersion term =      785.2526811954 Hartrees.
 Leave Link  301 at Tue Nov 22 15:00:54 2022, MaxMem= 16106127360 cpu:               1.2 elap:               0.0
 (Enter /opt/ap/G16/B01/g16/l302.exe)
 NPDir=0 NMtPBC=     1 NCelOv=     1 NCel=       1 NClECP=     1 NCelD=      1
         NCelK=      1 NCelE2=     1 NClLst=     1 CellRange=     0.0.
 One-electron integrals computed using PRISM.
 One-electron integral symmetry used in STVInt
 NBasis=   378 RedAO= T EigKep=  1.82D-06  NBF=   378
 NBsUse=   375 1.00D-06 EigRej=  9.98D-07 NBFU=   375
 Precomputing XC quadrature grid using
 IXCGrd= 4 IRadAn=           5 IRanWt=          -1 IRanGd=           0 AccXCQ= 0.00D+00.
 Generated NRdTot=       0 NPtTot=           0 NUsed=           0 NTot=          32
 NSgBfM=   392   392   392   392   392 MxSgAt=    24 MxSgA2=    24.
 Leave Link  302 at Tue Nov 22 15:00:54 2022, MaxMem= 16106127360 cpu:               8.4 elap:               0.3
 (Enter /opt/ap/G16/B01/g16/l303.exe)
 DipDrv:  MaxL=1.
 Leave Link  303 at Tue Nov 22 15:00:54 2022, MaxMem= 16106127360 cpu:               1.7 elap:               0.1
 (Enter /opt/ap/G16/B01/g16/l401.exe)
 ExpMin= 3.60D-02 ExpMax= 8.59D+03 ExpMxC= 1.30D+03 IAcc=3 IRadAn=         5 AccDes= 0.00D+00
 Harris functional with IExCor= 4639 and IRadAn=       5 diagonalized for initial guess.
 HarFok:  IExCor= 4639 AccDes= 0.00D+00 IRadAn=         5 IDoV= 1 UseB2=F ITyADJ=14
 ICtDFT=  3500011 ScaDFX=  1.000000  1.000000  1.000000  1.000000
 FoFCou: FMM=F IPFlag=           0 FMFlag=      100000 FMFlg1=           0
         NFxFlg=           0 DoJE=T BraDBF=F KetDBF=T FulRan=T
         wScrn=  0.000000 ICntrl=       500 IOpCl=  0 I1Cent=   200000004 NGrid=           0
         NMat0=    1 NMatS0=      1 NMatT0=    0 NMatD0=    1 NMtDS0=    0 NMtDT0=    0
 Petite list used in FoFCou.
 Harris En= -550.892807436119    
 JPrj=0 DoOrth=F DoCkMO=F.
 Leave Link  401 at Tue Nov 22 15:00:55 2022, MaxMem= 16106127360 cpu:              23.1 elap:               0.7
 (Enter /opt/ap/G16/B01/g16/l502.exe)
 Integral symmetry usage will be decided dynamically.
 Closed shell SCF:
 Using DIIS extrapolation, IDIIS=  1040.
 NGot= 16106127360 LenX= 16105803762 LenY= 16105649657
 Requested convergence on RMS density matrix=1.00D-08 within 512 cycles.
 Requested convergence on MAX density matrix=1.00D-06.
 Requested convergence on             energy=1.00D-06.
 No special actions if energy rises.
 Fock matrices will be formed incrementally for  20 cycles.

 Cycle   1  Pass 1  IDiag  1:
 FoFJK:  IHMeth= 1 ICntrl=       0 DoSepK=T KAlg= 0 I1Cent=           0 FoldK=F
 IRaf=         1 NMat=       1 IRICut=       1 DoRegI=T DoRafI=F ISym2E= 0 IDoP0=0 IntGTp=1.
 FoFCou: FMM=F IPFlag=           0 FMFlag=      100000 FMFlg1=           0
         NFxFlg=           0 DoJE=T BraDBF=F KetDBF=F FulRan=T
         wScrn=  0.000000 ICntrl=       500 IOpCl=  0 I1Cent=           0 NGrid=           0
         NMat0=    1 NMatS0=      1 NMatT0=    0 NMatD0=    1 NMtDS0=    0 NMtDT0=    0
 Symmetry not used in FoFCou.
 E= -576.257204916755    
 DIIS: error= 5.57D-02 at cycle   1 NSaved=   1.
 NSaved= 1 IEnMin= 1 EnMin= -576.257204916755     IErMin= 1 ErrMin= 5.57D-02
 ErrMax= 5.57D-02  0.00D+00 EMaxC= 1.00D-01 BMatC= 1.19D+00 BMatP= 1.19D+00
 IDIUse=3 WtCom= 4.43D-01 WtEn= 5.57D-01
 Coeff-Com:  0.100D+01
 Coeff-En:   0.100D+01
 Coeff:      0.100D+01
 Gap=     0.401 Goal=   None    Shift=    0.000
 GapD=    0.401 DampG=2.000 DampE=0.500 DampFc=1.0000 IDamp=-1.
 RMSDP=2.81D-02 MaxDP=2.29D+00              OVMax= 1.35D-01

 Cycle   2  Pass 1  IDiag  1:
 RMSU=  1.18D-02    CP:  6.49D-01
 E= -576.346100412983     Delta-E=       -0.088895496228 Rises=F Damp=F
 DIIS: error= 1.82D-02 at cycle   2 NSaved=   2.
 NSaved= 2 IEnMin= 2 EnMin= -576.346100412983     IErMin= 2 ErrMin= 1.82D-02
 ErrMax= 1.82D-02  0.00D+00 EMaxC= 1.00D-01 BMatC= 7.43D-02 BMatP= 1.19D+00
 IDIUse=3 WtCom= 8.18D-01 WtEn= 1.82D-01
 Coeff-Com:  0.125D+00 0.875D+00
 Coeff-En:   0.139D+00 0.861D+00
 Coeff:      0.127D+00 0.873D+00
 Gap=     0.414 Goal=   None    Shift=    0.000
 RMSDP=7.86D-03 MaxDP=3.86D-01 DE=-8.89D-02 OVMax= 1.64D-01

 Cycle   3  Pass 1  IDiag  1:
 RMSU=  6.36D-03    CP:  6.54D-01  6.10D-01
 E= -576.361204023468     Delta-E=       -0.015103610486 Rises=F Damp=F
 DIIS: error= 1.99D-02 at cycle   3 NSaved=   3.
 NSaved= 3 IEnMin= 3 EnMin= -576.361204023468     IErMin= 2 ErrMin= 1.82D-02
 ErrMax= 1.99D-02  0.00D+00 EMaxC= 1.00D-01 BMatC= 5.59D-02 BMatP= 7.43D-02
 IDIUse=3 WtCom= 8.01D-01 WtEn= 1.99D-01
 Coeff-Com:  0.240D-01 0.468D+00 0.508D+00
 Coeff-En:   0.000D+00 0.437D+00 0.563D+00
 Coeff:      0.192D-01 0.462D+00 0.519D+00
 Gap=     0.345 Goal=   None    Shift=    0.000
 RMSDP=5.10D-03 MaxDP=3.19D-01 DE=-1.51D-02 OVMax= 6.17D-02

 Cycle   4  Pass 1  IDiag  1:
 RMSU=  2.00D-03    CP:  6.08D-01  7.21D-01  5.24D-01
 E= -576.410185606895     Delta-E=       -0.048981583426 Rises=F Damp=F
 DIIS: error= 2.27D-03 at cycle   4 NSaved=   4.
 NSaved= 4 IEnMin= 4 EnMin= -576.410185606895     IErMin= 4 ErrMin= 2.27D-03
 ErrMax= 2.27D-03  0.00D+00 EMaxC= 1.00D-01 BMatC= 1.01D-03 BMatP= 5.59D-02
 IDIUse=3 WtCom= 9.77D-01 WtEn= 2.27D-02
 Coeff-Com:  0.970D-02 0.203D+00 0.247D+00 0.541D+00
 Coeff-En:   0.000D+00 0.000D+00 0.000D+00 0.100D+01
 Coeff:      0.948D-02 0.198D+00 0.241D+00 0.551D+00
 Gap=     0.320 Goal=   None    Shift=    0.000
 RMSDP=5.72D-04 MaxDP=5.44D-02 DE=-4.90D-02 OVMax= 6.91D-03

 Cycle   5  Pass 1  IDiag  1:
 RMSU=  3.68D-04    CP:  6.09D-01  7.50D-01  5.41D-01  8.93D-01
 E= -576.410879875101     Delta-E=       -0.000694268207 Rises=F Damp=F
 DIIS: error= 6.25D-04 at cycle   5 NSaved=   5.
 NSaved= 5 IEnMin= 5 EnMin= -576.410879875101     IErMin= 5 ErrMin= 6.25D-04
 ErrMax= 6.25D-04  0.00D+00 EMaxC= 1.00D-01 BMatC= 8.41D-05 BMatP= 1.01D-03
 IDIUse=3 WtCom= 9.94D-01 WtEn= 6.25D-03
 Coeff-Com: -0.609D-03-0.880D-02 0.331D-03 0.213D+00 0.796D+00
 Coeff-En:   0.000D+00 0.000D+00 0.000D+00 0.000D+00 0.100D+01
 Coeff:     -0.605D-03-0.875D-02 0.329D-03 0.211D+00 0.798D+00
 Gap=     0.321 Goal=   None    Shift=    0.000
 RMSDP=4.13D-04 MaxDP=3.12D-02 DE=-6.94D-04 OVMax= 2.62D-03

 Cycle   6  Pass 1  IDiag  1:
 RMSU=  2.23D-04    CP:  6.06D-01  7.47D-01  5.47D-01  9.75D-01  5.98D-01
 E= -576.410945442489     Delta-E=       -0.000065567388 Rises=F Damp=F
 DIIS: error= 3.20D-04 at cycle   6 NSaved=   6.
 NSaved= 6 IEnMin= 6 EnMin= -576.410945442489     IErMin= 6 ErrMin= 3.20D-04
 ErrMax= 3.20D-04  0.00D+00 EMaxC= 1.00D-01 BMatC= 1.85D-05 BMatP= 8.41D-05
 IDIUse=3 WtCom= 9.97D-01 WtEn= 3.20D-03
 Coeff-Com: -0.123D-02-0.231D-01-0.220D-01 0.619D-01 0.430D+00 0.555D+00
 Coeff-En:   0.000D+00 0.000D+00 0.000D+00 0.000D+00 0.000D+00 0.100D+01
 Coeff:     -0.122D-02-0.231D-01-0.219D-01 0.617D-01 0.428D+00 0.556D+00
 Gap=     0.322 Goal=   None    Shift=    0.000
 RMSDP=7.48D-05 MaxDP=4.17D-03 DE=-6.56D-05 OVMax= 1.29D-03

 Cycle   7  Pass 1  IDiag  1:
 RMSU=  6.30D-05    CP:  6.06D-01  7.50D-01  5.46D-01  9.82D-01  6.41D-01
                    CP:  1.04D+00
 E= -576.410964686915     Delta-E=       -0.000019244426 Rises=F Damp=F
 DIIS: error= 4.67D-05 at cycle   7 NSaved=   7.
 NSaved= 7 IEnMin= 7 EnMin= -576.410964686915     IErMin= 7 ErrMin= 4.67D-05
 ErrMax= 4.67D-05  0.00D+00 EMaxC= 1.00D-01 BMatC= 4.63D-07 BMatP= 1.85D-05
 IDIUse=1 WtCom= 1.00D+00 WtEn= 0.00D+00
 Coeff-Com: -0.221D-03-0.425D-02-0.505D-02-0.107D-01-0.100D-01 0.104D+00
 Coeff-Com:  0.926D+00
 Coeff:     -0.221D-03-0.425D-02-0.505D-02-0.107D-01-0.100D-01 0.104D+00
 Coeff:      0.926D+00
 Gap=     0.322 Goal=   None    Shift=    0.000
 RMSDP=3.38D-05 MaxDP=2.21D-03 DE=-1.92D-05 OVMax= 4.59D-04

 Cycle   8  Pass 1  IDiag  1:
 RMSU=  1.56D-05    CP:  6.06D-01  7.50D-01  5.47D-01  9.87D-01  6.21D-01
                    CP:  1.16D+00  1.06D+00
 E= -576.410965820191     Delta-E=       -0.000001133276 Rises=F Damp=F
 DIIS: error= 1.79D-05 at cycle   8 NSaved=   8.
 NSaved= 8 IEnMin= 8 EnMin= -576.410965820191     IErMin= 8 ErrMin= 1.79D-05
 ErrMax= 1.79D-05  0.00D+00 EMaxC= 1.00D-01 BMatC= 7.96D-08 BMatP= 4.63D-07
 IDIUse=1 WtCom= 1.00D+00 WtEn= 0.00D+00
 Coeff-Com:  0.421D-04 0.570D-03 0.382D-04-0.118D-01-0.532D-01-0.215D-01
 Coeff-Com:  0.321D+00 0.765D+00
 Coeff:      0.421D-04 0.570D-03 0.382D-04-0.118D-01-0.532D-01-0.215D-01
 Coeff:      0.321D+00 0.765D+00
 Gap=     0.322 Goal=   None    Shift=    0.000
 RMSDP=1.00D-05 MaxDP=7.91D-04 DE=-1.13D-06 OVMax= 1.62D-04

 Cycle   9  Pass 1  IDiag  1:
 RMSU=  3.86D-06    CP:  6.06D-01  7.50D-01  5.47D-01  9.89D-01  6.15D-01
                    CP:  1.19D+00  1.09D+00  1.17D+00
 E= -576.410965965515     Delta-E=       -0.000000145324 Rises=F Damp=F
 DIIS: error= 3.52D-06 at cycle   9 NSaved=   9.
 NSaved= 9 IEnMin= 9 EnMin= -576.410965965515     IErMin= 9 ErrMin= 3.52D-06
 ErrMax= 3.52D-06  0.00D+00 EMaxC= 1.00D-01 BMatC= 5.35D-09 BMatP= 7.96D-08
 IDIUse=1 WtCom= 1.00D+00 WtEn= 0.00D+00
 Coeff-Com:  0.377D-04 0.662D-03 0.638D-03-0.910D-03-0.934D-02-0.164D-01
 Coeff-Com: -0.521D-01 0.152D+00 0.926D+00
 Coeff:      0.377D-04 0.662D-03 0.638D-03-0.910D-03-0.934D-02-0.164D-01
 Coeff:     -0.521D-01 0.152D+00 0.926D+00
 Gap=     0.322 Goal=   None    Shift=    0.000
 RMSDP=4.26D-06 MaxDP=3.48D-04 DE=-1.45D-07 OVMax= 6.28D-05

 Cycle  10  Pass 1  IDiag  1:
 RMSU=  1.61D-06    CP:  6.06D-01  7.50D-01  5.47D-01  9.89D-01  6.11D-01
                    CP:  1.20D+00  1.08D+00  1.30D+00  1.31D+00
 E= -576.410965980728     Delta-E=       -0.000000015214 Rises=F Damp=F
 DIIS: error= 1.11D-06 at cycle  10 NSaved=  10.
 NSaved=10 IEnMin=10 EnMin= -576.410965980728     IErMin=10 ErrMin= 1.11D-06
 ErrMax= 1.11D-06  0.00D+00 EMaxC= 1.00D-01 BMatC= 4.10D-10 BMatP= 5.35D-09
 IDIUse=1 WtCom= 1.00D+00 WtEn= 0.00D+00
 Coeff-Com: -0.214D-05-0.349D-05 0.320D-04 0.112D-02 0.400D-02 0.154D-02
 Coeff-Com: -0.246D-01-0.613D-01 0.527D-01 0.103D+01
 Coeff:     -0.214D-05-0.349D-05 0.320D-04 0.112D-02 0.400D-02 0.154D-02
 Coeff:     -0.246D-01-0.613D-01 0.527D-01 0.103D+01
 Gap=     0.322 Goal=   None    Shift=    0.000
 RMSDP=1.49D-06 MaxDP=1.43D-04 DE=-1.52D-08 OVMax= 2.05D-05

 Cycle  11  Pass 1  IDiag  1:
 RMSU=  7.28D-07    CP:  6.06D-01  7.50D-01  5.46D-01  9.89D-01  6.11D-01
                    CP:  1.20D+00  1.07D+00  1.32D+00  1.37D+00  1.12D+00
 E= -576.410965982300     Delta-E=       -0.000000001572 Rises=F Damp=F
 DIIS: error= 5.59D-07 at cycle  11 NSaved=  11.
 NSaved=11 IEnMin=11 EnMin= -576.410965982300     IErMin=11 ErrMin= 5.59D-07
 ErrMax= 5.59D-07  0.00D+00 EMaxC= 1.00D-01 BMatC= 8.04D-11 BMatP= 4.10D-10
 IDIUse=1 WtCom= 1.00D+00 WtEn= 0.00D+00
 Coeff-Com: -0.287D-05-0.427D-04-0.325D-04 0.415D-03 0.166D-02 0.140D-02
 Coeff-Com: -0.341D-02-0.299D-01-0.582D-01 0.270D+00 0.818D+00
 Coeff:     -0.287D-05-0.427D-04-0.325D-04 0.415D-03 0.166D-02 0.140D-02
 Coeff:     -0.341D-02-0.299D-01-0.582D-01 0.270D+00 0.818D+00
 Gap=     0.322 Goal=   None    Shift=    0.000
 RMSDP=3.73D-07 MaxDP=2.68D-05 DE=-1.57D-09 OVMax= 8.20D-06

 Cycle  12  Pass 1  IDiag  1:
 RMSU=  1.65D-07    CP:  6.06D-01  7.50D-01  5.46D-01  9.89D-01  6.11D-01
                    CP:  1.19D+00  1.07D+00  1.32D+00  1.40D+00  1.16D+00
                    CP:  1.23D+00
 E= -576.410965982534     Delta-E=       -0.000000000234 Rises=F Damp=F
 DIIS: error= 3.14D-07 at cycle  12 NSaved=  12.
 NSaved=12 IEnMin=12 EnMin= -576.410965982534     IErMin=12 ErrMin= 3.14D-07
 ErrMax= 3.14D-07  0.00D+00 EMaxC= 1.00D-01 BMatC= 1.19D-11 BMatP= 8.04D-11
 IDIUse=1 WtCom= 1.00D+00 WtEn= 0.00D+00
 Coeff-Com:  0.175D-06-0.461D-05-0.110D-04-0.187D-03-0.743D-03-0.225D-03
 Coeff-Com:  0.563D-02 0.109D-01-0.177D-01-0.189D+00 0.102D+00 0.109D+01
 Coeff:      0.175D-06-0.461D-05-0.110D-04-0.187D-03-0.743D-03-0.225D-03
 Coeff:      0.563D-02 0.109D-01-0.177D-01-0.189D+00 0.102D+00 0.109D+01
 Gap=     0.322 Goal=   None    Shift=    0.000
 RMSDP=2.55D-07 MaxDP=1.73D-05 DE=-2.34D-10 OVMax= 6.43D-06

 Cycle  13  Pass 1  IDiag  1:
 RMSU=  8.94D-08    CP:  6.06D-01  7.50D-01  5.46D-01  9.89D-01  6.11D-01
                    CP:  1.19D+00  1.07D+00  1.32D+00  1.39D+00  1.17D+00
                    CP:  1.40D+00  1.44D+00
 E= -576.410965982613     Delta-E=       -0.000000000079 Rises=F Damp=F
 DIIS: error= 1.29D-07 at cycle  13 NSaved=  13.
 NSaved=13 IEnMin=13 EnMin= -576.410965982613     IErMin=13 ErrMin= 1.29D-07
 ErrMax= 1.29D-07  0.00D+00 EMaxC= 1.00D-01 BMatC= 2.01D-12 BMatP= 1.19D-11
 IDIUse=1 WtCom= 1.00D+00 WtEn= 0.00D+00
 Coeff-Com:  0.360D-06 0.462D-05 0.354D-05-0.895D-04-0.324D-03-0.245D-03
 Coeff-Com:  0.118D-02 0.523D-02 0.358D-02-0.645D-01-0.924D-01 0.149D+00
 Coeff-Com:  0.999D+00
 Coeff:      0.360D-06 0.462D-05 0.354D-05-0.895D-04-0.324D-03-0.245D-03
 Coeff:      0.118D-02 0.523D-02 0.358D-02-0.645D-01-0.924D-01 0.149D+00
 Coeff:      0.999D+00
 Gap=     0.322 Goal=   None    Shift=    0.000
 RMSDP=8.86D-08 MaxDP=5.47D-06 DE=-7.87D-11 OVMax= 2.60D-06

 Cycle  14  Pass 1  IDiag  1:
 RMSU=  2.57D-08    CP:  6.06D-01  7.50D-01  5.46D-01  9.89D-01  6.11D-01
                    CP:  1.19D+00  1.07D+00  1.32D+00  1.38D+00  1.16D+00
                    CP:  1.45D+00  1.53D+00  1.59D+00
 E= -576.410965982623     Delta-E=       -0.000000000010 Rises=F Damp=F
 DIIS: error= 4.34D-08 at cycle  14 NSaved=  14.
 NSaved=14 IEnMin=14 EnMin= -576.410965982623     IErMin=14 ErrMin= 4.34D-08
 ErrMax= 4.34D-08  0.00D+00 EMaxC= 1.00D-01 BMatC= 4.13D-13 BMatP= 2.01D-12
 IDIUse=1 WtCom= 1.00D+00 WtEn= 0.00D+00
 Coeff-Com:  0.125D-07 0.141D-05 0.296D-05 0.173D-04 0.962D-04 0.121D-04
 Coeff-Com: -0.853D-03-0.118D-02 0.399D-02 0.265D-01-0.274D-01-0.207D+00
 Coeff-Com:  0.196D+00 0.101D+01
 Coeff:      0.125D-07 0.141D-05 0.296D-05 0.173D-04 0.962D-04 0.121D-04
 Coeff:     -0.853D-03-0.118D-02 0.399D-02 0.265D-01-0.274D-01-0.207D+00
 Coeff:      0.196D+00 0.101D+01
 Gap=     0.322 Goal=   None    Shift=    0.000
 RMSDP=4.02D-08 MaxDP=2.57D-06 DE=-9.55D-12 OVMax= 1.12D-06

 Cycle  15  Pass 1  IDiag  1:
 RMSU=  1.14D-08    CP:  6.06D-01  7.50D-01  5.46D-01  9.89D-01  6.11D-01
                    CP:  1.19D+00  1.07D+00  1.32D+00  1.38D+00  1.16D+00
                    CP:  1.44D+00  1.60D+00  1.83D+00  1.23D+00
 E= -576.410965982618     Delta-E=        0.000000000005 Rises=F Damp=F
 DIIS: error= 1.23D-08 at cycle  15 NSaved=  15.
 NSaved=15 IEnMin=14 EnMin= -576.410965982623     IErMin=15 ErrMin= 1.23D-08
 ErrMax= 1.23D-08  0.00D+00 EMaxC= 1.00D-01 BMatC= 6.66D-14 BMatP= 4.13D-13
 IDIUse=1 WtCom= 1.00D+00 WtEn= 0.00D+00
 Coeff-Com: -0.344D-07 0.315D-07 0.735D-06 0.165D-04 0.745D-04 0.374D-04
 Coeff-Com: -0.445D-03-0.102D-02 0.101D-02 0.172D-01 0.362D-02-0.103D+00
 Coeff-Com: -0.323D-01 0.374D+00 0.741D+00
 Coeff:     -0.344D-07 0.315D-07 0.735D-06 0.165D-04 0.745D-04 0.374D-04
 Coeff:     -0.445D-03-0.102D-02 0.101D-02 0.172D-01 0.362D-02-0.103D+00
 Coeff:     -0.323D-01 0.374D+00 0.741D+00
 Gap=     0.322 Goal=   None    Shift=    0.000
 RMSDP=1.13D-08 MaxDP=1.12D-06 DE= 4.55D-12 OVMax= 2.54D-07

 Cycle  16  Pass 1  IDiag  1:
 RMSU=  4.72D-09    CP:  6.06D-01  7.50D-01  5.46D-01  9.89D-01  6.11D-01
                    CP:  1.19D+00  1.07D+00  1.32D+00  1.38D+00  1.16D+00
                    CP:  1.44D+00  1.61D+00  1.86D+00  1.35D+00  1.08D+00
 E= -576.410965982628     Delta-E=       -0.000000000010 Rises=F Damp=F
 DIIS: error= 6.44D-09 at cycle  16 NSaved=  16.
 NSaved=16 IEnMin=16 EnMin= -576.410965982628     IErMin=16 ErrMin= 6.44D-09
 ErrMax= 6.44D-09  0.00D+00 EMaxC= 1.00D-01 BMatC= 8.96D-15 BMatP= 6.66D-14
 IDIUse=1 WtCom= 1.00D+00 WtEn= 0.00D+00
 Coeff-Com: -0.103D-07-0.238D-06-0.380D-06 0.124D-05 0.303D-05 0.103D-04
 Coeff-Com:  0.325D-04-0.619D-04-0.557D-03-0.410D-03 0.816D-02 0.514D-02
 Coeff-Com: -0.406D-01-0.887D-01 0.219D+00 0.898D+00
 Coeff:     -0.103D-07-0.238D-06-0.380D-06 0.124D-05 0.303D-05 0.103D-04
 Coeff:      0.325D-04-0.619D-04-0.557D-03-0.410D-03 0.816D-02 0.514D-02
 Coeff:     -0.406D-01-0.887D-01 0.219D+00 0.898D+00
 Gap=     0.322 Goal=   None    Shift=    0.000
 RMSDP=4.12D-09 MaxDP=2.42D-07 DE=-9.55D-12 OVMax= 1.11D-07

 SCF Done:  E(RwB97XD) =  -576.410965983     A.U. after   16 cycles
            NFock= 16  Conv=0.41D-08     -V/T= 1.9999
 KE= 5.764704357450D+02 PE=-2.912724864625D+03 EE= 9.745907817024D+02
 Leave Link  502 at Tue Nov 22 15:01:33 2022, MaxMem= 16106127360 cpu:            1212.3 elap:              38.0
 (Enter /opt/ap/G16/B01/g16/l601.exe)
 Copying SCF densities to generalized density rwf, IOpCl= 0 IROHF=0.

 **********************************************************************

            Population analysis using the SCF Density.

 **********************************************************************

 Orbital symmetries:
       Occupied  (A) (A) (A) (A) (A) (A) (A) (A) (A) (A) (A) (A)
                 (A) (A) (A) (A) (A) (A) (A) (A) (A) (A) (A) (A)
                 (A) (A) (A) (A) (A) (A) (A) (A) (A) (A) (A) (A)
                 (A) (A) (A) (A) (A) (A) (A) (A) (A) (A) (A) (A)
       Virtual   (A) (A) (A) (A) (A) (A) (A) (A) (A) (A) (A) (A)
                 (A) (A) (A) (A) (A) (A) (A) (A) (A) (A) (A) (A)
                 (A) (A) (A) (A) (A) (A) (A) (A) (A) (A) (A) (A)
                 (A) (A) (A) (A) (A) (A) (A) (A) (A) (A) (A) (A)
                 (A) (A) (A) (A) (A) (A) (A) (A) (A) (A) (A) (A)
                 (A) (A) (A) (A) (A) (A) (A) (A) (A) (A) (A) (A)
                 (A) (A) (A) (A) (A) (A) (A) (A) (A) (A) (A) (A)
                 (A) (A) (A) (A) (A) (A) (A) (A) (A) (A) (A) (A)
                 (A) (A) (A) (A) (A) (A) (A) (A) (A) (A) (A) (A)
                 (A) (A) (A) (A) (A) (A) (A) (A) (A) (A) (A) (A)
                 (A) (A) (A) (A) (A) (A) (A) (A) (A) (A) (A) (A)
                 (A) (A) (A) (A) (A) (A) (A) (A) (A) (A) (A) (A)
                 (A) (A) (A) (A) (A) (A) (A) (A) (A) (A) (A) (A)
                 (A) (A) (A) (A) (A) (A) (A) (A) (A) (A) (A) (A)
                 (A) (A) (A) (A) (A) (A) (A) (A) (A) (A) (A) (A)
                 (A) (A) (A) (A) (A) (A) (A) (A) (A) (A) (A) (A)
                 (A) (A) (A) (A) (A) (A) (A) (A) (A) (A) (A) (A)
                 (A) (A) (A) (A) (A) (A) (A) (A) (A) (A) (A) (A)
                 (A) (A) (A) (A) (A) (A) (A) (A) (A) (A) (A) (A)
                 (A) (A) (A) (A) (A) (A) (A) (A) (A) (A) (A) (A)
                 (A) (A) (A) (A) (A) (A) (A) (A) (A) (A) (A) (A)
                 (A) (A) (A) (A) (A) (A) (A) (A) (A) (A) (A) (A)
                 (A) (A) (A) (A) (A) (A) (A) (A) (A) (A) (A) (A)
                 (A) (A) (A) (A) (A) (A) (A) (A) (A) (A) (A) (A)
                 (A) (A) (A) (A) (A) (A) (A) (A) (A) (A) (A) (A)
                 (A) (A) (A) (A) (A) (A) (A) (A) (A) (A) (A) (A)
                 (A) (A) (A) (A) (A) (A) (A) (A) (A) (A) (A) (A)
                 (A) (A) (A)
 The electronic state is 1-A.
 Alpha  occ. eigenvalues --  -19.23584 -10.38122 -10.30541 -10.30466 -10.28961
 Alpha  occ. eigenvalues --  -10.28843 -10.28628 -10.28596 -10.28503 -10.28447
 Alpha  occ. eigenvalues --  -10.28396 -10.28383 -10.28233 -10.28170  -1.14770
 Alpha  occ. eigenvalues --   -0.98076  -0.97404  -0.89462  -0.87449  -0.87332
 Alpha  occ. eigenvalues --   -0.86614  -0.76920  -0.74568  -0.73390  -0.72336
 Alpha  occ. eigenvalues --   -0.68115  -0.65047  -0.64041  -0.59670  -0.57264
 Alpha  occ. eigenvalues --   -0.56215  -0.55947  -0.54465  -0.53711  -0.52853
 Alpha  occ. eigenvalues --   -0.51889  -0.50408  -0.47622  -0.46770  -0.46019
 Alpha  occ. eigenvalues --   -0.45185  -0.44935  -0.44036  -0.35026  -0.34712
 Alpha  occ. eigenvalues --   -0.34167  -0.33988  -0.33513
 Alpha virt. eigenvalues --   -0.01349   0.03600   0.03967   0.04296   0.04325
 Alpha virt. eigenvalues --    0.04942   0.05006   0.05755   0.06034   0.07333
 Alpha virt. eigenvalues --    0.07645   0.08051   0.08928   0.10066   0.11636
 Alpha virt. eigenvalues --    0.11892   0.12138   0.12442   0.13135   0.14245
 Alpha virt. eigenvalues --    0.15030   0.15343   0.16158   0.16236   0.16898
 Alpha virt. eigenvalues --    0.16933   0.17279   0.17507   0.18041   0.18250
 Alpha virt. eigenvalues --    0.18394   0.18740   0.19090   0.19246   0.19980
 Alpha virt. eigenvalues --    0.20151   0.20475   0.20690   0.21350   0.21957
 Alpha virt. eigenvalues --    0.22076   0.22532   0.22709   0.23562   0.23895
 Alpha virt. eigenvalues --    0.24314   0.24483   0.25012   0.26017   0.26572
 Alpha virt. eigenvalues --    0.26913   0.27136   0.27442   0.28638   0.29279
 Alpha virt. eigenvalues --    0.29350   0.30177   0.30743   0.31120   0.31460
 Alpha virt. eigenvalues --    0.31862   0.32319   0.32786   0.33351   0.33508
 Alpha virt. eigenvalues --    0.34244   0.34623   0.35006   0.35956   0.36527
 Alpha virt. eigenvalues --    0.37019   0.37328   0.38128   0.38256   0.38597
 Alpha virt. eigenvalues --    0.39351   0.39864   0.41157   0.41610   0.42107
 Alpha virt. eigenvalues --    0.42389   0.43141   0.44251   0.44357   0.44715
 Alpha virt. eigenvalues --    0.46033   0.46151   0.49056   0.49796   0.52256
 Alpha virt. eigenvalues --    0.56816   0.57725   0.58231   0.59246   0.61474
 Alpha virt. eigenvalues --    0.62102   0.62863   0.63558   0.63890   0.64157
 Alpha virt. eigenvalues --    0.64428   0.65169   0.65562   0.66095   0.66937
 Alpha virt. eigenvalues --    0.67991   0.68151   0.68435   0.69738   0.71158
 Alpha virt. eigenvalues --    0.72011   0.72855   0.73746   0.74795   0.75078
 Alpha virt. eigenvalues --    0.75543   0.76854   0.77356   0.78025   0.79556
 Alpha virt. eigenvalues --    0.81205   0.81551   0.82295   0.82848   0.84063
 Alpha virt. eigenvalues --    0.84475   0.85942   0.87182   0.88689   0.89114
 Alpha virt. eigenvalues --    0.90767   0.91955   0.92385   0.93089   0.94614
 Alpha virt. eigenvalues --    0.94870   0.95244   0.95363   0.96716   0.97196
 Alpha virt. eigenvalues --    0.99387   1.00525   1.01451   1.02022   1.02197
 Alpha virt. eigenvalues --    1.03622   1.04332   1.05544   1.06239   1.08953
 Alpha virt. eigenvalues --    1.10512   1.11695   1.11960   1.13163   1.14320
 Alpha virt. eigenvalues --    1.15565   1.17095   1.17632   1.17911   1.19384
 Alpha virt. eigenvalues --    1.21707   1.22350   1.24426   1.26167   1.27956
 Alpha virt. eigenvalues --    1.29084   1.30372   1.32384   1.37253   1.38801
 Alpha virt. eigenvalues --    1.43991   1.45145   1.47336   1.54983   1.57257
 Alpha virt. eigenvalues --    1.58115   1.58339   1.59173   1.60608   1.61354
 Alpha virt. eigenvalues --    1.62687   1.63463   1.65617   1.66539   1.67735
 Alpha virt. eigenvalues --    1.68479   1.68497   1.69562   1.73997   1.74779
 Alpha virt. eigenvalues --    1.75255   1.76542   1.76637   1.79582   1.80659
 Alpha virt. eigenvalues --    1.83325   1.84079   1.86177   1.88563   1.88953
 Alpha virt. eigenvalues --    1.91477   1.91765   1.94227   1.95214   1.95662
 Alpha virt. eigenvalues --    1.96746   1.98627   2.00984   2.01425   2.01972
 Alpha virt. eigenvalues --    2.02677   2.03867   2.04997   2.05815   2.06133
 Alpha virt. eigenvalues --    2.06741   2.09157   2.10574   2.11234   2.12223
 Alpha virt. eigenvalues --    2.15946   2.17625   2.19824   2.22205   2.23019
 Alpha virt. eigenvalues --    2.26431   2.27966   2.29735   2.33363   2.34082
 Alpha virt. eigenvalues --    2.42218   2.43050   2.47757   2.48934   2.49921
 Alpha virt. eigenvalues --    2.50144   2.50515   2.51873   2.53218   2.58224
 Alpha virt. eigenvalues --    2.59859   2.62293   2.67472   2.69243   2.73381
 Alpha virt. eigenvalues --    2.77688   2.79057   2.81409   2.81748   2.83327
 Alpha virt. eigenvalues --    2.84324   2.86154   2.87346   2.90201   2.91053
 Alpha virt. eigenvalues --    2.92596   2.93841   2.93967   2.96505   2.97519
 Alpha virt. eigenvalues --    2.98048   2.98366   3.00017   3.00688   3.00754
 Alpha virt. eigenvalues --    3.01769   3.02735   3.04260   3.05276   3.06937
 Alpha virt. eigenvalues --    3.08451   3.12791   3.13492   3.16816   3.20379
 Alpha virt. eigenvalues --    3.20837   3.23028   3.25201   3.25691   3.29946
 Alpha virt. eigenvalues --    3.31893   3.33213   3.39220   3.45305   3.49486
 Alpha virt. eigenvalues --    3.50141   3.51507   3.52004   3.65950   3.69209
 Alpha virt. eigenvalues --    3.70346   3.72241   3.74905   3.76709   3.82509
 Alpha virt. eigenvalues --    3.88713   3.92332   3.97013   4.32725   4.36882
 Alpha virt. eigenvalues --    4.38143   4.39518   4.40769   4.43268   4.45202
 Alpha virt. eigenvalues --    4.51748   4.52022   4.64359   4.94746   4.96172
 Alpha virt. eigenvalues --    5.19688   5.36312   5.87313  23.88463  23.95746
 Alpha virt. eigenvalues --   24.00813  24.16907  24.17951  24.24447  24.24988
 Alpha virt. eigenvalues --   24.30496  24.31175  24.34025  24.34478  24.43545
 Alpha virt. eigenvalues --   24.44576  50.17273
          Condensed to atoms (all electrons):
               1          2          3          4          5          6
     1  C   14.782224  -1.911068   1.227079  -1.227888  -0.217513  -1.186184
     2  C   -1.911068  13.941708  -4.585587  -1.979657   0.857313   1.103813
     3  C    1.227079  -4.585587   9.895652   1.322936  -0.123512  -1.945952
     4  C   -1.227888  -1.979657   1.322936   8.069385  -0.178777  -0.487149
     5  H   -0.217513   0.857313  -0.123512  -0.178777   0.777339   0.033996
     6  C   -1.186184   1.103813  -1.945952  -0.487149   0.033996   9.976053
     7  C   -0.892203   0.210417   0.252910  -0.391344   0.073209  -0.188530
     8  H    0.089004   0.012667   0.447297   0.028229  -0.000817  -0.042545
     9  C   -0.386024   0.461734  -0.754888   0.499406  -0.021628  -0.105416
    10  H    0.085082  -0.137269   0.060836   0.423136  -0.034318  -0.002041
    11  C   -3.795795  -0.934365   0.075980   0.051882   0.141770  -1.335188
    12  O   -0.227775  -0.266377   0.304527  -0.014423   0.000402   0.668330
    13  H   -0.018626  -0.008869  -0.052295  -0.009118  -0.000988   0.031657
    14  H    0.027180  -0.005772  -0.005682  -0.068698  -0.001140  -0.014388
    15  C   -0.023230  -1.089234   0.215034   0.370186  -0.224823  -0.458014
    16  C   -0.794460   0.986753  -0.596408  -0.175706   0.108727   0.228935
    17  C   -0.563983   0.678788  -0.247459  -0.064453  -0.072674   0.347468
    18  H    0.141400  -0.211749   0.024768  -0.012240  -0.115439  -0.017587
    19  C    0.107520   0.008983   0.035180   0.011900   0.019268   0.136499
    20  H   -0.082315   0.015422  -0.022297   0.001581  -0.002594  -0.025475
    21  C   -0.147051   0.008932  -0.016453   0.022956  -0.010019  -0.058209
    22  H   -0.005767   0.006448  -0.002297  -0.000053  -0.000444   0.002687
    23  H    0.007417  -0.000057   0.000057   0.000149  -0.000117   0.009293
    24  H   -0.002932  -0.005004   0.000778   0.000199  -0.001210  -0.014507
               7          8          9         10         11         12
     1  C   -0.892203   0.089004  -0.386024   0.085082  -3.795795  -0.227775
     2  C    0.210417   0.012667   0.461734  -0.137269  -0.934365  -0.266377
     3  C    0.252910   0.447297  -0.754888   0.060836   0.075980   0.304527
     4  C   -0.391344   0.028229   0.499406   0.423136   0.051882  -0.014423
     5  H    0.073209  -0.000817  -0.021628  -0.034318   0.141770   0.000402
     6  C   -0.188530  -0.042545  -0.105416  -0.002041  -1.335188   0.668330
     7  C    7.286334  -0.145837   0.054114   0.010859  -0.190774   0.092715
     8  H   -0.145837   0.451295   0.023681   0.000360  -0.048789  -0.006219
     9  C    0.054114   0.023681   6.062638  -0.097265   0.026104  -0.004343
    10  H    0.010859   0.000360  -0.097265   0.495739  -0.020993   0.000287
    11  C   -0.190774  -0.048789   0.026104  -0.020993  13.710877  -0.305794
    12  O    0.092715  -0.006219  -0.004343   0.000287  -0.305794   8.027502
    13  H    0.502481  -0.017065  -0.106044   0.001716   0.003286   0.001772
    14  H   -0.116568   0.002486   0.535021  -0.015609   0.001945  -0.000139
    15  C    0.083737   0.000907  -0.162080   0.028860   0.982116  -0.061377
    16  C   -0.139847  -0.006591   0.110815  -0.014823  -1.799449   0.006505
    17  C   -0.044671   0.002456   0.048858  -0.000960  -0.867833  -0.020565
    18  H   -0.002796  -0.003030  -0.008547   0.005781  -0.101272  -0.011013
    19  C    0.003119  -0.000147   0.005691  -0.001511  -0.778142   0.034133
    20  H   -0.001799  -0.000741   0.000572  -0.000010   0.112408  -0.016879
    21  C   -0.005064   0.000039  -0.002992   0.001827  -0.015056   0.004151
    22  H   -0.000766   0.000004   0.001864  -0.000240   0.004482   0.000055
    23  H   -0.000156  -0.000032   0.000205  -0.000042  -0.025040   0.000328
    24  H   -0.000012  -0.000031  -0.000189   0.000078   0.039625   0.000042
              13         14         15         16         17         18
     1  C   -0.018626   0.027180  -0.023230  -0.794460  -0.563983   0.141400
     2  C   -0.008869  -0.005772  -1.089234   0.986753   0.678788  -0.211749
     3  C   -0.052295  -0.005682   0.215034  -0.596408  -0.247459   0.024768
     4  C   -0.009118  -0.068698   0.370186  -0.175706  -0.064453  -0.012240
     5  H   -0.000988  -0.001140  -0.224823   0.108727  -0.072674  -0.115439
     6  C    0.031657  -0.014388  -0.458014   0.228935   0.347468  -0.017587
     7  C    0.502481  -0.116568   0.083737  -0.139847  -0.044671  -0.002796
     8  H   -0.017065   0.002486   0.000907  -0.006591   0.002456  -0.003030
     9  C   -0.106044   0.535021  -0.162080   0.110815   0.048858  -0.008547
    10  H    0.001716  -0.015609   0.028860  -0.014823  -0.000960   0.005781
    11  C    0.003286   0.001945   0.982116  -1.799449  -0.867833  -0.101272
    12  O    0.001772  -0.000139  -0.061377   0.006505  -0.020565  -0.011013
    13  H    0.493681  -0.019714   0.004376  -0.003884  -0.000694   0.001248
    14  H   -0.019714   0.503654  -0.008783   0.003543   0.001154  -0.000748
    15  C    0.004376  -0.008783  13.448459  -5.567164  -1.812271   0.595206
    16  C   -0.003884   0.003543  -5.567164  11.726891   1.653267  -0.051090
    17  C   -0.000694   0.001154  -1.812271   1.653267   6.852477  -0.028677
    18  H    0.001248  -0.000748   0.595206  -0.051090  -0.028677   0.691433
    19  C   -0.000367   0.000239   0.062467   0.514022  -0.241445   0.014653
    20  H   -0.000013  -0.000039   0.057492   0.391599   0.010006   0.000211
    21  C    0.000040  -0.000205   0.157577  -0.526353   0.325063  -0.032458
    22  H   -0.000036   0.000059  -0.087270   0.037277   0.449328  -0.013312
    23  H   -0.000002   0.000010  -0.015223  -0.023905   0.013161   0.002492
    24  H    0.000003  -0.000009   0.017734  -0.034659  -0.090494  -0.000908
              19         20         21         22         23         24
     1  C    0.107520  -0.082315  -0.147051  -0.005767   0.007417  -0.002932
     2  C    0.008983   0.015422   0.008932   0.006448  -0.000057  -0.005004
     3  C    0.035180  -0.022297  -0.016453  -0.002297   0.000057   0.000778
     4  C    0.011900   0.001581   0.022956  -0.000053   0.000149   0.000199
     5  H    0.019268  -0.002594  -0.010019  -0.000444  -0.000117  -0.001210
     6  C    0.136499  -0.025475  -0.058209   0.002687   0.009293  -0.014507
     7  C    0.003119  -0.001799  -0.005064  -0.000766  -0.000156  -0.000012
     8  H   -0.000147  -0.000741   0.000039   0.000004  -0.000032  -0.000031
     9  C    0.005691   0.000572  -0.002992   0.001864   0.000205  -0.000189
    10  H   -0.001511  -0.000010   0.001827  -0.000240  -0.000042   0.000078
    11  C   -0.778142   0.112408  -0.015056   0.004482  -0.025040   0.039625
    12  O    0.034133  -0.016879   0.004151   0.000055   0.000328   0.000042
    13  H   -0.000367  -0.000013   0.000040  -0.000036  -0.000002   0.000003
    14  H    0.000239  -0.000039  -0.000205   0.000059   0.000010  -0.000009
    15  C    0.062467   0.057492   0.157577  -0.087270  -0.015223   0.017734
    16  C    0.514022   0.391599  -0.526353   0.037277  -0.023905  -0.034659
    17  C   -0.241445   0.010006   0.325063   0.449328   0.013161  -0.090494
    18  H    0.014653   0.000211  -0.032458  -0.013312   0.002492  -0.000908
    19  C    5.842905  -0.119683   0.318091   0.006796   0.467177  -0.074410
    20  H   -0.119683   0.463909   0.017580   0.000444  -0.015453   0.001703
    21  C    0.318091   0.017580   5.812794  -0.073068  -0.090673   0.511102
    22  H    0.006796   0.000444  -0.073068   0.488420   0.000583  -0.013992
    23  H    0.467177  -0.015453  -0.090673   0.000583   0.491998  -0.015705
    24  H   -0.074410   0.001703   0.511102  -0.013992  -0.015705   0.499857
 Mulliken charges:
               1
     1  C    1.015907
     2  C   -1.157969
     3  C    0.489798
     4  C   -0.192439
     5  H   -0.006008
     6  C   -0.657544
     7  C   -0.449526
     8  H    0.213417
     9  C   -0.181284
    10  H    0.210518
    11  C    1.068012
    12  O   -0.205845
    13  H    0.197456
    14  H    0.182200
    15  C   -0.514683
    16  C   -0.033994
    17  C   -0.325844
    18  H    0.133674
    19  C   -0.372937
    20  H    0.214370
    21  C   -0.202552
    22  H    0.198801
    23  H    0.193531
    24  H    0.182942
 Sum of Mulliken charges =  -0.00000
 Mulliken charges with hydrogens summed into heavy atoms:
               1
     1  C    1.015907
     2  C   -1.163977
     3  C    0.703214
     4  C    0.018079
     6  C   -0.657544
     7  C   -0.252071
     9  C    0.000916
    11  C    1.068012
    12  O   -0.205845
    15  C   -0.381009
    16  C    0.180376
    17  C   -0.127043
    19  C   -0.179406
    21  C   -0.019610
 Electronic spatial extent (au):  <R**2>=           3049.7771
 Charge=             -0.0000 electrons
 Dipole moment (field-independent basis, Debye):
    X=             -0.0753    Y=             -3.1806    Z=              0.6055  Tot=              3.2386
 Quadrupole moment (field-independent basis, Debye-Ang):
   XX=            -63.1949   YY=            -80.0442   ZZ=            -84.4372
   XY=             -0.5222   XZ=              0.9966   YZ=              2.9690
 Traceless Quadrupole moment (field-independent basis, Debye-Ang):
   XX=             12.6972   YY=             -4.1521   ZZ=             -8.5451
   XY=             -0.5222   XZ=              0.9966   YZ=              2.9690
 Octapole moment (field-independent basis, Debye-Ang**2):
  XXX=             -3.2135  YYY=            -23.9288  ZZZ=             -2.0603  XYY=             -1.8503
  XXY=             -0.6751  XXZ=             11.3536  XZZ=              2.4753  YZZ=              4.3495
  YYZ=              3.6806  XYZ=              9.6822
 Hexadecapole moment (field-independent basis, Debye-Ang**3):
 XXXX=          -2822.0355 YYYY=           -787.0784 ZZZZ=           -147.4190 XXXY=            -14.2405
 XXXZ=             25.0608 YYYX=             -0.7959 YYYZ=             15.0328 ZZZX=              2.9306
 ZZZY=             -0.4026 XXYY=           -599.7353 XXZZ=           -613.2914 YYZZ=           -156.5728
 XXYZ=              7.2149 YYXZ=             -4.5730 ZZXY=              2.1597
 N-N= 7.852526811954D+02 E-N=-2.912724864848D+03  KE= 5.764704357450D+02
 No NMR shielding tensors so no spin-rotation constants.
 Leave Link  601 at Tue Nov 22 15:01:33 2022, MaxMem= 16106127360 cpu:               4.7 elap:               0.2
 (Enter /opt/ap/G16/B01/g16/l9999.exe)
 1\1\GINC-N18\SP\RwB97XD\6-311++G(d,p)\C13H10O1\ROOT\22-Nov-2022\0\\#P 
 wB97XD/6-311++G(d,p) scf=maxcycle=512\\_conf018.gjf nmol_natom 1_24\\0
 ,1\C\C,1,1.39746343\C,1,1.39996263,2,119.28066518\C,2,1.39288453,1,120
 .37436646,3,-0.51002981,0\H,2,0.95014703,1,119.82324024,3,179.45634896
 ,0\C,1,1.49653039,2,122.77761373,4,174.46828757,0\C,3,1.3870125,1,120.
 10017821,2,-0.37315804,0\H,3,0.9501092,1,119.95246451,2,179.5923884,0\
 C,7,1.38720039,3,120.16568731,1,1.0745106,0\H,4,0.95011919,2,120.18755
 644,1,-179.31195299,0\C,6,1.49516902,1,120.70972921,2,0.,0\O,6,1.22150
 059,1,119.67074267,2,-180.,0\H,7,0.94956661,3,119.91274826,1,-178.8863
 6029,0\H,9,0.94992259,7,119.76037934,3,179.10763853,0\C,11,1.39713972,
 6,122.62585705,1,30.97749054,0\C,11,1.40039562,6,117.74753532,1,-153.1
 5467779,0\C,15,1.39455701,11,119.80747484,6,175.4763048,0\H,15,0.94962
 854,11,120.10535689,6,-4.50802339,0\C,16,1.38466431,11,120.4617377,6,-
 176.88197195,0\H,16,0.9497464,11,119.75779177,6,3.14699974,0\C,17,1.39
 088945,15,120.3475273,11,0.7973643,0\H,17,0.94984298,15,119.8156451,11
 ,-179.16676483,0\H,19,0.94974749,16,119.98566335,11,-178.40987425,0\H,
 21,0.94938585,17,120.0744529,15,179.91636093,0\\Version=ES64L-G16RevB.
 01\State=1-A\HF=-576.410966\RMSD=4.124e-09\Dipole=-0.0332154,-0.064687
 7,1.2720891\Quadrupole=9.3094871,-5.5381861,-3.771301,1.572298,0.03238
 1,2.611931\PG=C01 [X(C13H10O1)]\\@


 The mind is not a vessel to be filled but a fire to be kindled.
                                  -- Plutarch
 Job cpu time:       0 days  0 hours 21 minutes  0.5 seconds.
 Elapsed time:       0 days  0 hours  0 minutes 39.6 seconds.
 File lengths (MBytes):  RWF=     78 Int=      0 D2E=      0 Chk=      9 Scr=      1
 Normal termination of Gaussian 16 at Tue Nov 22 15:01:33 2022.
