 Entering Gaussian System, Link 0=g16
 Input=_conf034.gjf
 Output=_conf034.log
 Initial command:
 /opt/ap/G16/B01/g16/l1.exe "/tmp2/scr/Gau-6649.inp" -scrdir="/tmp2/scr/"
 Entering Link 1 = /opt/ap/G16/B01/g16/l1.exe PID=      6650.
  
 Copyright (c) 1988-2017, Gaussian, Inc.  All Rights Reserved.
  
 This is part of the Gaussian(R) 16 program.  It is based on
 the Gaussian(R) 09 system (copyright 2009, Gaussian, Inc.),
 the Gaussian(R) 03 system (copyright 2003, Gaussian, Inc.),
 the Gaussian(R) 98 system (copyright 1998, Gaussian, Inc.),
 the Gaussian(R) 94 system (copyright 1995, Gaussian, Inc.),
 the Gaussian 92(TM) system (copyright 1992, Gaussian, Inc.),
 the Gaussian 90(TM) system (copyright 1990, Gaussian, Inc.),
 the Gaussian 88(TM) system (copyright 1988, Gaussian, Inc.),
 the Gaussian 86(TM) system (copyright 1986, Carnegie Mellon
 University), and the Gaussian 82(TM) system (copyright 1983,
 Carnegie Mellon University). Gaussian is a federally registered
 trademark of Gaussian, Inc.
  
 This software contains proprietary and confidential information,
 including trade secrets, belonging to Gaussian, Inc.
  
 This software is provided under written license and may be
 used, copied, transmitted, or stored only in accord with that
 written license.
  
 The following legend is applicable only to US Government
 contracts under FAR:
  
                    RESTRICTED RIGHTS LEGEND
  
 Use, reproduction and disclosure by the US Government is
 subject to restrictions as set forth in subparagraphs (a)
 and (c) of the Commercial Computer Software - Restricted
 Rights clause in FAR 52.227-19.
  
 Gaussian, Inc.
 340 Quinnipiac St., Bldg. 40, Wallingford CT 06492
  
  
 ---------------------------------------------------------------
 Warning -- This program may not be used in any manner that
 competes with the business of Gaussian, Inc. or will provide
 assistance to any competitor of Gaussian, Inc.  The licensee
 of this program is prohibited from giving any competitor of
 Gaussian, Inc. access to this program.  By using this program,
 the user acknowledges that Gaussian, Inc. is engaged in the
 business of creating and licensing software in the field of
 computational chemistry and represents and warrants to the
 licensee that it is not a competitor of Gaussian, Inc. and that
 it will not use this program in any manner prohibited above.
 ---------------------------------------------------------------
  

 Cite this work as:
 Gaussian 16, Revision B.01,
 M. J. Frisch, G. W. Trucks, H. B. Schlegel, G. E. Scuseria, 
 M. A. Robb, J. R. Cheeseman, G. Scalmani, V. Barone, 
 G. A. Petersson, H. Nakatsuji, X. Li, M. Caricato, A. V. Marenich, 
 J. Bloino, B. G. Janesko, R. Gomperts, B. Mennucci, H. P. Hratchian, 
 J. V. Ortiz, A. F. Izmaylov, J. L. Sonnenberg, D. Williams-Young, 
 F. Ding, F. Lipparini, F. Egidi, J. Goings, B. Peng, A. Petrone, 
 T. Henderson, D. Ranasinghe, V. G. Zakrzewski, J. Gao, N. Rega, 
 G. Zheng, W. Liang, M. Hada, M. Ehara, K. Toyota, R. Fukuda, 
 J. Hasegawa, M. Ishida, T. Nakajima, Y. Honda, O. Kitao, H. Nakai, 
 T. Vreven, K. Throssell, J. A. Montgomery, Jr., J. E. Peralta, 
 F. Ogliaro, M. J. Bearpark, J. J. Heyd, E. N. Brothers, K. N. Kudin, 
 V. N. Staroverov, T. A. Keith, R. Kobayashi, J. Normand, 
 K. Raghavachari, A. P. Rendell, J. C. Burant, S. S. Iyengar, 
 J. Tomasi, M. Cossi, J. M. Millam, M. Klene, C. Adamo, R. Cammi, 
 J. W. Ochterski, R. L. Martin, K. Morokuma, O. Farkas, 
 J. B. Foresman, and D. J. Fox, Gaussian, Inc., Wallingford CT, 2016.
 
 ******************************************
 Gaussian 16:  ES64L-G16RevB.01 20-Dec-2017
                22-Nov-2022 
 ******************************************
 %nprocshared=32
 Will use up to   32 processors via shared memory.
 %mem=120GB
 %chk=_conf034.chk
 ----------------------------------------
 #P wB97XD/6-311++G(d,p) scf=maxcycle=512
 ----------------------------------------
 1/38=1,172=1/1;
 2/12=2,17=6,18=5,40=1/2;
 3/5=4,6=6,7=1111,11=2,25=1,30=1,74=-58/1,2,3;
 4//1;
 5/5=2,7=512,38=5/2;
 6/7=2,8=2,9=2,10=2,28=1/1;
 99/5=1,9=1/99;
 Leave Link    1 at Tue Nov 22 15:03:35 2022, MaxMem= 16106127360 cpu:               2.4 elap:               0.1
 (Enter /opt/ap/G16/B01/g16/l101.exe)
 ----------------------------
 _conf034.gjf nmol_natom 1_24
 ----------------------------
 Symbolic Z-matrix:
 Charge =  0 Multiplicity = 1
 C
 C                    1     1.39746 
 C                    1     1.39996  2     119.28067 
 C                    2     1.39288  1     120.37437  3    -0.51003  0
 H                    2     0.95015  1     119.82324  3     179.45635  0
 C                    1     1.49653  2     122.77761  4     174.46829  0
 C                    3     1.38701  1     120.10018  2    -0.37316  0
 H                    3     0.95011  1     119.95246  2     179.59239  0
 C                    7     1.3872   3     120.16569  1     1.07451  0
 H                    4     0.95012  2     120.18756  1    -179.31195  0
 C                    6     1.49517  1     120.70973  2     80.      0
 O                    6     1.2215   1     119.67074  2    -100.     0
 H                    7     0.94957  3     119.91275  1    -178.88636  0
 H                    9     0.94992  7     119.76038  3     179.10764  0
 C                    11    1.39714  6     122.62586  1     30.97749  0
 C                    11    1.4004   6     117.74754  1    -153.15468  0
 C                    15    1.39456  11    119.80747  6     175.4763  0
 H                    15    0.94963  11    120.10536  6    -4.50802  0
 C                    16    1.38466  11    120.46174  6    -176.88197  0
 H                    16    0.94975  11    119.75779  6     3.147    0
 C                    17    1.39089  15    120.34753  11    0.79736  0
 H                    17    0.94984  15    119.81565  11   -179.16676  0
 H                    19    0.94975  16    119.98566  11   -178.40987  0
 H                    21    0.94939  17    120.07445  15    179.91636  0
 
 ITRead=  0  0  0  0  0  0  0  0  0  0  0  0  0  0  0  0  0  0  0  0
 ITRead=  0  0  0  0
 MicOpt= -1 -1 -1 -1 -1 -1 -1 -1 -1 -1 -1 -1 -1 -1 -1 -1 -1 -1 -1 -1
 MicOpt= -1 -1 -1 -1
 NAtoms=     24 NQM=       24 NQMF=       0 NMMI=      0 NMMIF=      0
                NMic=       0 NMicF=      0.
                    Isotopes and Nuclear Properties:
 (Nuclear quadrupole moments (NQMom) in fm**2, nuclear magnetic moments (NMagM)
  in nuclear magnetons)

  Atom         1           2           3           4           5           6           7           8           9          10
 IAtWgt=          12          12          12          12           1          12          12           1          12           1
 AtmWgt=  12.0000000  12.0000000  12.0000000  12.0000000   1.0078250  12.0000000  12.0000000   1.0078250  12.0000000   1.0078250
 NucSpn=           0           0           0           0           1           0           0           1           0           1
 AtZEff=  -0.0000000  -0.0000000  -0.0000000  -0.0000000  -0.0000000  -0.0000000  -0.0000000  -0.0000000  -0.0000000  -0.0000000
 NQMom=    0.0000000   0.0000000   0.0000000   0.0000000   0.0000000   0.0000000   0.0000000   0.0000000   0.0000000   0.0000000
 NMagM=    0.0000000   0.0000000   0.0000000   0.0000000   2.7928460   0.0000000   0.0000000   2.7928460   0.0000000   2.7928460
 AtZNuc=   6.0000000   6.0000000   6.0000000   6.0000000   1.0000000   6.0000000   6.0000000   1.0000000   6.0000000   1.0000000

  Atom        11          12          13          14          15          16          17          18          19          20
 IAtWgt=          12          16           1           1          12          12          12           1          12           1
 AtmWgt=  12.0000000  15.9949146   1.0078250   1.0078250  12.0000000  12.0000000  12.0000000   1.0078250  12.0000000   1.0078250
 NucSpn=           0           0           1           1           0           0           0           1           0           1
 AtZEff=  -0.0000000  -0.0000000  -0.0000000  -0.0000000  -0.0000000  -0.0000000  -0.0000000  -0.0000000  -0.0000000  -0.0000000
 NQMom=    0.0000000   0.0000000   0.0000000   0.0000000   0.0000000   0.0000000   0.0000000   0.0000000   0.0000000   0.0000000
 NMagM=    0.0000000   0.0000000   2.7928460   2.7928460   0.0000000   0.0000000   0.0000000   2.7928460   0.0000000   2.7928460
 AtZNuc=   6.0000000   8.0000000   1.0000000   1.0000000   6.0000000   6.0000000   6.0000000   1.0000000   6.0000000   1.0000000

  Atom        21          22          23          24
 IAtWgt=          12           1           1           1
 AtmWgt=  12.0000000   1.0078250   1.0078250   1.0078250
 NucSpn=           0           1           1           1
 AtZEff=  -0.0000000  -0.0000000  -0.0000000  -0.0000000
 NQMom=    0.0000000   0.0000000   0.0000000   0.0000000
 NMagM=    0.0000000   2.7928460   2.7928460   2.7928460
 AtZNuc=   6.0000000   1.0000000   1.0000000   1.0000000
 Leave Link  101 at Tue Nov 22 15:03:35 2022, MaxMem= 16106127360 cpu:               6.1 elap:               0.2
 (Enter /opt/ap/G16/B01/g16/l202.exe)
                          Input orientation:                          
 ---------------------------------------------------------------------
 Center     Atomic      Atomic             Coordinates (Angstroms)
 Number     Number       Type             X           Y           Z
 ---------------------------------------------------------------------
      1          6           0        0.000000    0.000000    0.000000
      2          6           0        0.000000    0.000000    1.397463
      3          6           0        1.221096    0.000000   -0.684705
      4          6           0        1.201650   -0.010697    2.101772
      5          1           0       -0.824276    0.007821    1.869996
      6          6           0       -1.253421   -0.110138   -0.810191
      7          6           0        2.414707    0.007815    0.021719
      8          1           0        1.232246   -0.005856   -1.634731
      9          6           0        2.403895   -0.006831    1.408800
     10          1           0        1.198494   -0.020531    3.051836
     11          6           0       -2.124145    1.084195   -1.035889
     12          8           0       -1.568971   -1.187111   -1.292498
     13          1           0        3.241298    0.023792   -0.445367
     14          1           0        3.224827   -0.014217    1.886678
     15          6           0       -1.616551    2.383962   -1.106268
     16          6           0       -3.487292    0.862744   -1.268045
     17          6           0       -2.468006    3.445030   -1.412774
     18          1           0       -0.694401    2.544520   -0.946097
     19          6           0       -4.333066    1.922857   -1.547548
     20          1           0       -3.833986   -0.020771   -1.233092
     21          6           0       -3.822585    3.218206   -1.632413
     22          1           0       -2.120815    4.327138   -1.472321
     23          1           0       -5.260408    1.767655   -1.681594
     24          1           0       -4.398960    3.943585   -1.839659
 ---------------------------------------------------------------------
                    Distance matrix (angstroms):
                    1          2          3          4          5
     1  C    0.000000
     2  C    1.397463   0.000000
     3  C    1.399963   2.413814   0.000000
     4  C    2.421058   1.392885   2.786566   0.000000
     5  H    2.043619   0.950147   3.272630   2.039225   0.000000
     6  C    1.496530   2.541049   2.480142   3.810091   2.716889
     7  C    2.414817   2.779127   1.387013   2.408002   3.729228
     8  H    2.047146   3.273021   0.950109   3.736632   4.063567
     9  C    2.786301   2.403931   2.404542   1.387667   3.260982
    10  H    3.278797   2.042977   3.736665   0.950119   2.342893
    11  C    2.600103   3.407150   3.534040   4.701554   3.360417
    12  O    2.354029   3.332686   3.092429   4.536669   3.461763
    13  H    3.271839   3.728619   2.034469   3.263323   4.678681
    14  H    3.736210   3.261755   3.259932   2.034583   4.049198
    15  C    3.085505   3.816436   3.730044   4.895730   3.889973
    16  C    3.809655   4.473306   4.822191   5.839927   4.203552
    17  C    4.467127   5.084951   5.099784   6.144955   5.029199
    18  H    2.802120   3.528322   3.195628   4.406093   3.792373
    19  C    4.986757   5.580854   5.940588   6.905740   5.259142
    20  H    4.027455   4.649699   5.084782   6.039789   4.323000
    21  C    5.256784   5.843728   6.057534   7.043642   5.618122
    22  H    5.038821   5.608712   5.523842   6.529145   5.613252
    23  H    5.798643   6.346424   6.791781   7.696401   5.948956
    24  H    6.187654   6.736592   6.962098   7.908101   6.483066
                    6          7          8          9         10
     6  C    0.000000
     7  C    3.763130   0.000000
     8  H    2.620930   2.035246   0.000000
     9  C    4.279082   1.387200   3.261263   0.000000
    10  H    4.575496   3.265208   4.686711   2.037829   0.000000
    11  C    1.495169   4.783126   3.579410   5.260226   5.382364
    12  O    1.221501   4.361732   3.059297   4.947093   5.281383
    13  H    4.511488   0.949567   2.334899   2.034727   4.050363
    14  H    5.228480   2.033434   4.046081   0.949923   2.337447
    15  C    2.537727   4.813467   3.755815   5.310879   5.567395
    16  C    2.479176   6.101474   4.812791   6.528992   6.434138
    17  C    3.804937   6.141100   5.064558   6.603942   6.736920
    18  H    2.716281   4.127722   3.269649   4.653425   5.113317
    19  C    3.763108   7.187658   5.890690   7.605940   7.451795
    20  H    2.616515   6.373502   5.082149   6.774285   6.609574
    21  C    4.284219   7.207397   5.995490   7.643225   7.592288
    22  H    4.569487   6.438918   5.481262   6.896169   7.098453
    23  H    4.510144   8.056408   6.730683   8.452270   8.204900
    24  H    5.233249   8.085856   6.881174   8.510999   8.424514
                   11         12         13         14         15
    11  C    0.000000
    12  O    2.352211   0.000000
    13  H    5.501013   5.032157   0.000000
    14  H    6.193497   5.870549   2.332413   0.000000
    15  C    1.397140   3.576242   5.441129   6.176401   0.000000
    16  C    1.400396   2.807573   6.830414   7.468191   2.416598
    17  C    2.415332   4.720113   6.725838   7.433783   1.394557
    18  H    2.045674   3.848369   4.700481   5.471024   0.949629
    19  C    2.417537   4.168594   7.886206   8.524548   2.790484
    20  H    2.045335   2.548367   7.119139   7.717503   3.273506
    21  C    2.791872   4.959954   7.842946   8.514610   2.416481
    22  H    3.272181   5.544711   6.951668   7.661993   2.040640
    23  H    3.274172   4.744339   8.766317   9.375866   3.740125
    24  H    3.741249   5.884919   8.699561   9.363328   3.272933
                   16         17         18         19         20
    16  C    0.000000
    17  C    2.779944   0.000000
    18  H    3.276013   2.043131   0.000000
    19  C    1.384664   2.411145   3.740066   0.000000
    20  H    0.949746   3.729607   4.064490   2.031171   0.000000
    21  C    2.406945   1.390889   3.272678   1.394891   3.263520
    22  H    3.729747   0.949843   2.342925   3.268069   4.679370
    23  H    2.033181   3.268541   4.689659   0.949747   2.331159
    24  H    3.263351   2.039453   4.059507   2.042795   4.050092
                   21         22         23         24
    21  C    0.000000
    22  H    2.037493   0.000000
    23  H    2.043001   4.056081   0.000000
    24  H    0.949386   2.339229   2.345581   0.000000
 Stoichiometry    C13H10O
 Framework group  C1[X(C13H10O)]
 Deg. of freedom    66
 Full point group                 C1      NOp   1
 Largest Abelian subgroup         C1      NOp   1
 Largest concise Abelian subgroup C1      NOp   1
                         Standard orientation:                         
 ---------------------------------------------------------------------
 Center     Atomic      Atomic             Coordinates (Angstroms)
 Number     Number       Type             X           Y           Z
 ---------------------------------------------------------------------
      1          6           0       -1.286941    0.358052   -0.018141
      2          6           0       -1.831734    0.097839    1.242174
      3          6           0       -2.038410    0.065660   -1.162561
      4          6           0       -3.112662   -0.436659    1.359067
      5          1           0       -1.325446    0.286089    2.023847
      6          6           0        0.031259    1.041282   -0.205619
      7          6           0       -3.306230   -0.483506   -1.040685
      8          1           0       -1.679634    0.244114   -2.024038
      9          6           0       -3.843676   -0.724588    0.215243
     10          1           0       -3.484246   -0.603428    2.217460
     11          6           0        1.311774    0.283482   -0.058813
     12          8           0        0.061937    2.230813   -0.481552
     13          1           0       -3.807280   -0.695469   -1.818951
     14          1           0       -4.717519   -1.089058    0.292140
     15          6           0        1.423385   -1.074227   -0.368926
     16          6           0        2.452680    0.999259    0.324728
     17          6           0        2.667298   -1.700953   -0.300481
     18          1           0        0.654559   -1.568916   -0.625800
     19          6           0        3.680954    0.366430    0.415095
     20          1           0        2.383219    1.925130    0.524619
     21          6           0        3.794079   -0.985507    0.090766
     22          1           0        2.745382   -2.621119   -0.522738
     23          1           0        4.446017    0.853111    0.697656
     24          1           0        4.638804   -1.416345    0.137160
 ---------------------------------------------------------------------
 Rotational constants (GHZ):           1.6993524           0.3945999           0.3660904
 Leave Link  202 at Tue Nov 22 15:03:35 2022, MaxMem= 16106127360 cpu:               0.3 elap:               0.0
 (Enter /opt/ap/G16/B01/g16/l301.exe)
 Standard basis: 6-311++G(d,p) (5D, 7F)
 Ernie: Thresh=  0.10000D-02 Tol=  0.10000D-05 Strict=F.
 There are   392 symmetry adapted cartesian basis functions of A   symmetry.
 There are   378 symmetry adapted basis functions of A   symmetry.
   378 basis functions,   594 primitive gaussians,   392 cartesian basis functions
    48 alpha electrons       48 beta electrons
       nuclear repulsion energy       780.5984979291 Hartrees.
 IExCor= 4639 DFT=T Ex+Corr=wB97XD ExCW=0 ScaHFX=  1.000000
 ScaDFX=  1.000000  1.000000  1.000000  1.000000 ScalE2=  1.000000  1.000000
 IRadAn=      5 IRanWt=     -1 IRanGd=            0 ICorTp=0 IEmpDi=121
 HFx  wShort=  0.000000 wLong=  0.200000 cFull=  0.222036 cShort=  0.000000 cLong=  0.777964
 DFx  wShort=  0.000000 wLong=  0.200000 cFull=  0.000000 cShort=  0.000000 cLong=  1.000000
 NAtoms=   24 NActive=   24 NUniq=   24 SFac= 1.00D+00 NAtFMM=   60 NAOKFM=F Big=F
 Integral buffers will be    131072 words long.
 Raffenetti 2 integral format.
 Two-electron integral symmetry is turned on.
 R6Disp:  Grimme-D2 Dispersion energy=       -0.0138654341 Hartrees.
 Nuclear repulsion after empirical dispersion term =      780.5846324949 Hartrees.
 Leave Link  301 at Tue Nov 22 15:03:35 2022, MaxMem= 16106127360 cpu:               1.2 elap:               0.0
 (Enter /opt/ap/G16/B01/g16/l302.exe)
 NPDir=0 NMtPBC=     1 NCelOv=     1 NCel=       1 NClECP=     1 NCelD=      1
         NCelK=      1 NCelE2=     1 NClLst=     1 CellRange=     0.0.
 One-electron integrals computed using PRISM.
 One-electron integral symmetry used in STVInt
 NBasis=   378 RedAO= T EigKep=  1.55D-06  NBF=   378
 NBsUse=   376 1.00D-06 EigRej=  8.45D-07 NBFU=   376
 Precomputing XC quadrature grid using
 IXCGrd= 4 IRadAn=           5 IRanWt=          -1 IRanGd=           0 AccXCQ= 0.00D+00.
 Generated NRdTot=       0 NPtTot=           0 NUsed=           0 NTot=          32
 NSgBfM=   392   392   392   392   392 MxSgAt=    24 MxSgA2=    24.
 Leave Link  302 at Tue Nov 22 15:03:35 2022, MaxMem= 16106127360 cpu:               8.3 elap:               0.3
 (Enter /opt/ap/G16/B01/g16/l303.exe)
 DipDrv:  MaxL=1.
 Leave Link  303 at Tue Nov 22 15:03:35 2022, MaxMem= 16106127360 cpu:               1.6 elap:               0.1
 (Enter /opt/ap/G16/B01/g16/l401.exe)
 ExpMin= 3.60D-02 ExpMax= 8.59D+03 ExpMxC= 1.30D+03 IAcc=3 IRadAn=         5 AccDes= 0.00D+00
 Harris functional with IExCor= 4639 and IRadAn=       5 diagonalized for initial guess.
 HarFok:  IExCor= 4639 AccDes= 0.00D+00 IRadAn=         5 IDoV= 1 UseB2=F ITyADJ=14
 ICtDFT=  3500011 ScaDFX=  1.000000  1.000000  1.000000  1.000000
 FoFCou: FMM=F IPFlag=           0 FMFlag=      100000 FMFlg1=           0
         NFxFlg=           0 DoJE=T BraDBF=F KetDBF=T FulRan=T
         wScrn=  0.000000 ICntrl=       500 IOpCl=  0 I1Cent=   200000004 NGrid=           0
         NMat0=    1 NMatS0=      1 NMatT0=    0 NMatD0=    1 NMtDS0=    0 NMtDT0=    0
 Petite list used in FoFCou.
 Harris En= -550.903685412572    
 JPrj=0 DoOrth=F DoCkMO=F.
 Leave Link  401 at Tue Nov 22 15:03:36 2022, MaxMem= 16106127360 cpu:              22.7 elap:               0.7
 (Enter /opt/ap/G16/B01/g16/l502.exe)
 Integral symmetry usage will be decided dynamically.
 Closed shell SCF:
 Using DIIS extrapolation, IDIIS=  1040.
 NGot= 16106127360 LenX= 16105803762 LenY= 16105649657
 Requested convergence on RMS density matrix=1.00D-08 within 512 cycles.
 Requested convergence on MAX density matrix=1.00D-06.
 Requested convergence on             energy=1.00D-06.
 No special actions if energy rises.
 Fock matrices will be formed incrementally for  20 cycles.

 Cycle   1  Pass 1  IDiag  1:
 FoFJK:  IHMeth= 1 ICntrl=       0 DoSepK=T KAlg= 0 I1Cent=           0 FoldK=F
 IRaf=         1 NMat=       1 IRICut=       1 DoRegI=T DoRafI=F ISym2E= 0 IDoP0=0 IntGTp=1.
 FoFCou: FMM=F IPFlag=           0 FMFlag=      100000 FMFlg1=           0
         NFxFlg=           0 DoJE=T BraDBF=F KetDBF=F FulRan=T
         wScrn=  0.000000 ICntrl=       500 IOpCl=  0 I1Cent=           0 NGrid=           0
         NMat0=    1 NMatS0=      1 NMatT0=    0 NMatD0=    1 NMtDS0=    0 NMtDT0=    0
 Symmetry not used in FoFCou.
 E= -576.254983009755    
 DIIS: error= 5.08D-02 at cycle   1 NSaved=   1.
 NSaved= 1 IEnMin= 1 EnMin= -576.254983009755     IErMin= 1 ErrMin= 5.08D-02
 ErrMax= 5.08D-02  0.00D+00 EMaxC= 1.00D-01 BMatC= 1.20D+00 BMatP= 1.20D+00
 IDIUse=3 WtCom= 4.92D-01 WtEn= 5.08D-01
 Coeff-Com:  0.100D+01
 Coeff-En:   0.100D+01
 Coeff:      0.100D+01
 Gap=     0.421 Goal=   None    Shift=    0.000
 GapD=    0.421 DampG=2.000 DampE=0.500 DampFc=1.0000 IDamp=-1.
 RMSDP=2.55D-02 MaxDP=1.92D+00              OVMax= 1.14D-01

 Cycle   2  Pass 1  IDiag  1:
 RMSU=  1.83D-02    CP:  7.36D-01
 E= -576.345216871781     Delta-E=       -0.090233862026 Rises=F Damp=F
 DIIS: error= 1.19D-02 at cycle   2 NSaved=   2.
 NSaved= 2 IEnMin= 2 EnMin= -576.345216871781     IErMin= 2 ErrMin= 1.19D-02
 ErrMax= 1.19D-02  0.00D+00 EMaxC= 1.00D-01 BMatC= 7.79D-02 BMatP= 1.20D+00
 IDIUse=3 WtCom= 8.81D-01 WtEn= 1.19D-01
 Coeff-Com:  0.129D+00 0.871D+00
 Coeff-En:   0.155D+00 0.845D+00
 Coeff:      0.132D+00 0.868D+00
 Gap=     0.441 Goal=   None    Shift=    0.000
 RMSDP=1.19D-02 MaxDP=9.90D-01 DE=-9.02D-02 OVMax= 1.44D-01

 Cycle   3  Pass 1  IDiag  1:
 RMSU=  8.35D-03    CP:  7.01D-01  5.55D-01
 E= -576.364848282126     Delta-E=       -0.019631410345 Rises=F Damp=F
 DIIS: error= 1.14D-02 at cycle   3 NSaved=   3.
 NSaved= 3 IEnMin= 3 EnMin= -576.364848282126     IErMin= 3 ErrMin= 1.14D-02
 ErrMax= 1.14D-02  0.00D+00 EMaxC= 1.00D-01 BMatC= 5.43D-02 BMatP= 7.79D-02
 IDIUse=3 WtCom= 8.86D-01 WtEn= 1.14D-01
 Coeff-Com:  0.238D-01 0.458D+00 0.518D+00
 Coeff-En:   0.000D+00 0.418D+00 0.582D+00
 Coeff:      0.211D-01 0.454D+00 0.525D+00
 Gap=     0.361 Goal=   None    Shift=    0.000
 RMSDP=5.58D-03 MaxDP=3.55D-01 DE=-1.96D-02 OVMax= 6.48D-02

 Cycle   4  Pass 1  IDiag  1:
 RMSU=  1.49D-03    CP:  6.64D-01  7.52D-01  6.24D-01
 E= -576.412716309669     Delta-E=       -0.047868027543 Rises=F Damp=F
 DIIS: error= 1.75D-03 at cycle   4 NSaved=   4.
 NSaved= 4 IEnMin= 4 EnMin= -576.412716309669     IErMin= 4 ErrMin= 1.75D-03
 ErrMax= 1.75D-03  0.00D+00 EMaxC= 1.00D-01 BMatC= 8.70D-04 BMatP= 5.43D-02
 IDIUse=3 WtCom= 9.83D-01 WtEn= 1.75D-02
 Coeff-Com:  0.931D-02 0.192D+00 0.241D+00 0.558D+00
 Coeff-En:   0.000D+00 0.000D+00 0.000D+00 0.100D+01
 Coeff:      0.914D-02 0.188D+00 0.237D+00 0.566D+00
 Gap=     0.329 Goal=   None    Shift=    0.000
 RMSDP=8.67D-04 MaxDP=6.21D-02 DE=-4.79D-02 OVMax= 6.62D-03

 Cycle   5  Pass 1  IDiag  1:
 RMSU=  4.56D-04    CP:  6.67D-01  7.91D-01  6.35D-01  9.70D-01
 E= -576.413325408204     Delta-E=       -0.000609098535 Rises=F Damp=F
 DIIS: error= 6.04D-04 at cycle   5 NSaved=   5.
 NSaved= 5 IEnMin= 5 EnMin= -576.413325408204     IErMin= 5 ErrMin= 6.04D-04
 ErrMax= 6.04D-04  0.00D+00 EMaxC= 1.00D-01 BMatC= 8.35D-05 BMatP= 8.70D-04
 IDIUse=3 WtCom= 9.94D-01 WtEn= 6.04D-03
 Coeff-Com: -0.482D-03-0.598D-02 0.252D-02 0.225D+00 0.779D+00
 Coeff-En:   0.000D+00 0.000D+00 0.000D+00 0.000D+00 0.100D+01
 Coeff:     -0.479D-03-0.595D-02 0.250D-02 0.223D+00 0.781D+00
 Gap=     0.330 Goal=   None    Shift=    0.000
 RMSDP=3.76D-04 MaxDP=4.11D-02 DE=-6.09D-04 OVMax= 2.93D-03

 Cycle   6  Pass 1  IDiag  1:
 RMSU=  2.18D-04    CP:  6.63D-01  7.87D-01  6.52D-01  1.03D+00  7.99D-01
 E= -576.413388386437     Delta-E=       -0.000062978234 Rises=F Damp=F
 DIIS: error= 2.38D-04 at cycle   6 NSaved=   6.
 NSaved= 6 IEnMin= 6 EnMin= -576.413388386437     IErMin= 6 ErrMin= 2.38D-04
 ErrMax= 2.38D-04  0.00D+00 EMaxC= 1.00D-01 BMatC= 1.94D-05 BMatP= 8.35D-05
 IDIUse=3 WtCom= 9.98D-01 WtEn= 2.38D-03
 Coeff-Com: -0.122D-02-0.228D-01-0.227D-01 0.652D-01 0.428D+00 0.554D+00
 Coeff-En:   0.000D+00 0.000D+00 0.000D+00 0.000D+00 0.000D+00 0.100D+01
 Coeff:     -0.122D-02-0.228D-01-0.226D-01 0.651D-01 0.427D+00 0.555D+00
 Gap=     0.331 Goal=   None    Shift=    0.000
 RMSDP=1.14D-04 MaxDP=9.98D-03 DE=-6.30D-05 OVMax= 1.39D-03

 Cycle   7  Pass 1  IDiag  1:
 RMSU=  8.96D-05    CP:  6.64D-01  7.88D-01  6.50D-01  1.05D+00  9.21D-01
                    CP:  1.05D+00
 E= -576.413408285896     Delta-E=       -0.000019899459 Rises=F Damp=F
 DIIS: error= 6.11D-05 at cycle   7 NSaved=   7.
 NSaved= 7 IEnMin= 7 EnMin= -576.413408285896     IErMin= 7 ErrMin= 6.11D-05
 ErrMax= 6.11D-05  0.00D+00 EMaxC= 1.00D-01 BMatC= 5.23D-07 BMatP= 1.94D-05
 IDIUse=1 WtCom= 1.00D+00 WtEn= 0.00D+00
 Coeff-Com: -0.242D-03-0.467D-02-0.550D-02-0.919D-02-0.498D-02 0.110D+00
 Coeff-Com:  0.914D+00
 Coeff:     -0.242D-03-0.467D-02-0.550D-02-0.919D-02-0.498D-02 0.110D+00
 Coeff:      0.914D+00
 Gap=     0.331 Goal=   None    Shift=    0.000
 RMSDP=4.40D-05 MaxDP=3.41D-03 DE=-1.99D-05 OVMax= 5.54D-04

 Cycle   8  Pass 1  IDiag  1:
 RMSU=  2.53D-05    CP:  6.63D-01  7.88D-01  6.52D-01  1.06D+00  9.19D-01
                    CP:  1.17D+00  1.06D+00
 E= -576.413409590414     Delta-E=       -0.000001304517 Rises=F Damp=F
 DIIS: error= 1.69D-05 at cycle   8 NSaved=   8.
 NSaved= 8 IEnMin= 8 EnMin= -576.413409590414     IErMin= 8 ErrMin= 1.69D-05
 ErrMax= 1.69D-05  0.00D+00 EMaxC= 1.00D-01 BMatC= 9.07D-08 BMatP= 5.23D-07
 IDIUse=1 WtCom= 1.00D+00 WtEn= 0.00D+00
 Coeff-Com:  0.549D-04 0.823D-03 0.424D-03-0.122D-01-0.592D-01-0.288D-01
 Coeff-Com:  0.310D+00 0.789D+00
 Coeff:      0.549D-04 0.823D-03 0.424D-03-0.122D-01-0.592D-01-0.288D-01
 Coeff:      0.310D+00 0.789D+00
 Gap=     0.331 Goal=   None    Shift=    0.000
 RMSDP=1.46D-05 MaxDP=1.11D-03 DE=-1.30D-06 OVMax= 2.07D-04

 Cycle   9  Pass 1  IDiag  1:
 RMSU=  7.27D-06    CP:  6.63D-01  7.88D-01  6.52D-01  1.06D+00  9.19D-01
                    CP:  1.22D+00  1.08D+00  1.19D+00
 E= -576.413409789746     Delta-E=       -0.000000199332 Rises=F Damp=F
 DIIS: error= 5.70D-06 at cycle   9 NSaved=   9.
 NSaved= 9 IEnMin= 9 EnMin= -576.413409789746     IErMin= 9 ErrMin= 5.70D-06
 ErrMax= 5.70D-06  0.00D+00 EMaxC= 1.00D-01 BMatC= 7.49D-09 BMatP= 9.07D-08
 IDIUse=1 WtCom= 1.00D+00 WtEn= 0.00D+00
 Coeff-Com:  0.425D-04 0.758D-03 0.780D-03-0.671D-03-0.101D-01-0.178D-01
 Coeff-Com: -0.663D-01 0.147D+00 0.947D+00
 Coeff:      0.425D-04 0.758D-03 0.780D-03-0.671D-03-0.101D-01-0.178D-01
 Coeff:     -0.663D-01 0.147D+00 0.947D+00
 Gap=     0.331 Goal=   None    Shift=    0.000
 RMSDP=7.05D-06 MaxDP=5.08D-04 DE=-1.99D-07 OVMax= 1.02D-04

 Cycle  10  Pass 1  IDiag  1:
 RMSU=  1.81D-06    CP:  6.63D-01  7.88D-01  6.53D-01  1.06D+00  9.15D-01
                    CP:  1.23D+00  1.08D+00  1.36D+00  1.46D+00
 E= -576.413409814105     Delta-E=       -0.000000024359 Rises=F Damp=F
 DIIS: error= 1.46D-06 at cycle  10 NSaved=  10.
 NSaved=10 IEnMin=10 EnMin= -576.413409814105     IErMin=10 ErrMin= 1.46D-06
 ErrMax= 1.46D-06  0.00D+00 EMaxC= 1.00D-01 BMatC= 7.75D-10 BMatP= 7.49D-09
 IDIUse=1 WtCom= 1.00D+00 WtEn= 0.00D+00
 Coeff-Com: -0.226D-05-0.104D-04 0.262D-04 0.148D-02 0.527D-02 0.225D-02
 Coeff-Com: -0.352D-01-0.681D-01 0.960D-01 0.998D+00
 Coeff:     -0.226D-05-0.104D-04 0.262D-04 0.148D-02 0.527D-02 0.225D-02
 Coeff:     -0.352D-01-0.681D-01 0.960D-01 0.998D+00
 Gap=     0.331 Goal=   None    Shift=    0.000
 RMSDP=2.30D-06 MaxDP=1.50D-04 DE=-2.44D-08 OVMax= 3.94D-05

 Cycle  11  Pass 1  IDiag  1:
 RMSU=  1.08D-06    CP:  6.63D-01  7.88D-01  6.53D-01  1.06D+00  9.14D-01
                    CP:  1.22D+00  1.07D+00  1.40D+00  1.56D+00  1.07D+00
 E= -576.413409817227     Delta-E=       -0.000000003122 Rises=F Damp=F
 DIIS: error= 8.00D-07 at cycle  11 NSaved=  11.
 NSaved=11 IEnMin=11 EnMin= -576.413409817227     IErMin=11 ErrMin= 8.00D-07
 ErrMax= 8.00D-07  0.00D+00 EMaxC= 1.00D-01 BMatC= 1.48D-10 BMatP= 7.75D-10
 IDIUse=1 WtCom= 1.00D+00 WtEn= 0.00D+00
 Coeff-Com: -0.409D-05-0.627D-04-0.562D-04 0.463D-03 0.207D-02 0.198D-02
 Coeff-Com: -0.233D-02-0.320D-01-0.735D-01 0.251D+00 0.852D+00
 Coeff:     -0.409D-05-0.627D-04-0.562D-04 0.463D-03 0.207D-02 0.198D-02
 Coeff:     -0.233D-02-0.320D-01-0.735D-01 0.251D+00 0.852D+00
 Gap=     0.331 Goal=   None    Shift=    0.000
 RMSDP=6.47D-07 MaxDP=6.49D-05 DE=-3.12D-09 OVMax= 1.68D-05

 Cycle  12  Pass 1  IDiag  1:
 RMSU=  2.60D-07    CP:  6.63D-01  7.88D-01  6.53D-01  1.06D+00  9.14D-01
                    CP:  1.22D+00  1.07D+00  1.40D+00  1.60D+00  1.15D+00
                    CP:  1.27D+00
 E= -576.413409817786     Delta-E=       -0.000000000559 Rises=F Damp=F
 DIIS: error= 4.24D-07 at cycle  12 NSaved=  12.
 NSaved=12 IEnMin=12 EnMin= -576.413409817786     IErMin=12 ErrMin= 4.24D-07
 ErrMax= 4.24D-07  0.00D+00 EMaxC= 1.00D-01 BMatC= 3.04D-11 BMatP= 1.48D-10
 IDIUse=1 WtCom= 1.00D+00 WtEn= 0.00D+00
 Coeff-Com: -0.183D-06-0.100D-04-0.169D-04-0.244D-03-0.833D-03-0.212D-03
 Coeff-Com:  0.785D-02 0.100D-01-0.367D-01-0.178D+00 0.161D+00 0.104D+01
 Coeff:     -0.183D-06-0.100D-04-0.169D-04-0.244D-03-0.833D-03-0.212D-03
 Coeff:      0.785D-02 0.100D-01-0.367D-01-0.178D+00 0.161D+00 0.104D+01
 Gap=     0.331 Goal=   None    Shift=    0.000
 RMSDP=3.38D-07 MaxDP=2.30D-05 DE=-5.59D-10 OVMax= 1.10D-05

 Cycle  13  Pass 1  IDiag  1:
 RMSU=  1.47D-07    CP:  6.63D-01  7.88D-01  6.53D-01  1.06D+00  9.14D-01
                    CP:  1.22D+00  1.07D+00  1.39D+00  1.60D+00  1.17D+00
                    CP:  1.44D+00  1.53D+00
 E= -576.413409817974     Delta-E=       -0.000000000187 Rises=F Damp=F
 DIIS: error= 1.78D-07 at cycle  13 NSaved=  13.
 NSaved=13 IEnMin=13 EnMin= -576.413409817974     IErMin=13 ErrMin= 1.78D-07
 ErrMax= 1.78D-07  0.00D+00 EMaxC= 1.00D-01 BMatC= 7.08D-12 BMatP= 3.04D-11
 IDIUse=1 WtCom= 1.00D+00 WtEn= 0.00D+00
 Coeff-Com:  0.651D-06 0.675D-05 0.386D-05-0.179D-03-0.656D-03-0.459D-03
 Coeff-Com:  0.307D-02 0.935D-02 0.490D-03-0.106D+00-0.926D-01 0.369D+00
 Coeff-Com:  0.818D+00
 Coeff:      0.651D-06 0.675D-05 0.386D-05-0.179D-03-0.656D-03-0.459D-03
 Coeff:      0.307D-02 0.935D-02 0.490D-03-0.106D+00-0.926D-01 0.369D+00
 Coeff:      0.818D+00
 Gap=     0.331 Goal=   None    Shift=    0.000
 RMSDP=1.74D-07 MaxDP=1.60D-05 DE=-1.87D-10 OVMax= 3.95D-06

 Cycle  14  Pass 1  IDiag  1:
 RMSU=  6.01D-08    CP:  6.63D-01  7.88D-01  6.53D-01  1.06D+00  9.14D-01
                    CP:  1.22D+00  1.07D+00  1.39D+00  1.59D+00  1.15D+00
                    CP:  1.49D+00  1.74D+00  1.39D+00
 E= -576.413409817989     Delta-E=       -0.000000000015 Rises=F Damp=F
 DIIS: error= 6.15D-08 at cycle  14 NSaved=  14.
 NSaved=14 IEnMin=14 EnMin= -576.413409817989     IErMin=14 ErrMin= 6.15D-08
 ErrMax= 6.15D-08  0.00D+00 EMaxC= 1.00D-01 BMatC= 9.54D-13 BMatP= 7.08D-12
 IDIUse=1 WtCom= 1.00D+00 WtEn= 0.00D+00
 Coeff-Com:  0.141D-06 0.320D-05 0.466D-05-0.723D-08 0.259D-04-0.624D-04
 Coeff-Com: -0.773D-03 0.561D-04 0.595D-02 0.958D-02-0.443D-01-0.119D+00
 Coeff-Com:  0.133D+00 0.101D+01
 Coeff:      0.141D-06 0.320D-05 0.466D-05-0.723D-08 0.259D-04-0.624D-04
 Coeff:     -0.773D-03 0.561D-04 0.595D-02 0.958D-02-0.443D-01-0.119D+00
 Coeff:      0.133D+00 0.101D+01
 Gap=     0.331 Goal=   None    Shift=    0.000
 RMSDP=7.40D-08 MaxDP=5.76D-06 DE=-1.55D-11 OVMax= 1.89D-06

 Cycle  15  Pass 1  IDiag  1:
 RMSU=  1.75D-08    CP:  6.63D-01  7.88D-01  6.53D-01  1.06D+00  9.14D-01
                    CP:  1.22D+00  1.07D+00  1.39D+00  1.59D+00  1.14D+00
                    CP:  1.49D+00  1.84D+00  1.65D+00  1.20D+00
 E= -576.413409817995     Delta-E=       -0.000000000006 Rises=F Damp=F
 DIIS: error= 1.69D-08 at cycle  15 NSaved=  15.
 NSaved=15 IEnMin=15 EnMin= -576.413409817995     IErMin=15 ErrMin= 1.69D-08
 ErrMax= 1.69D-08  0.00D+00 EMaxC= 1.00D-01 BMatC= 1.89D-13 BMatP= 9.54D-13
 IDIUse=1 WtCom= 1.00D+00 WtEn= 0.00D+00
 Coeff-Com: -0.388D-07 0.381D-06 0.150D-05 0.260D-04 0.108D-03 0.488D-04
 Coeff-Com: -0.722D-03-0.130D-02 0.237D-02 0.199D-01-0.234D-02-0.101D+00
 Coeff-Com: -0.780D-01 0.392D+00 0.769D+00
 Coeff:     -0.388D-07 0.381D-06 0.150D-05 0.260D-04 0.108D-03 0.488D-04
 Coeff:     -0.722D-03-0.130D-02 0.237D-02 0.199D-01-0.234D-02-0.101D+00
 Coeff:     -0.780D-01 0.392D+00 0.769D+00
 Gap=     0.331 Goal=   None    Shift=    0.000
 RMSDP=2.24D-08 MaxDP=1.97D-06 DE=-5.91D-12 OVMax= 5.16D-07

 Cycle  16  Pass 1  IDiag  1:
 RMSU=  6.82D-09    CP:  6.63D-01  7.88D-01  6.53D-01  1.06D+00  9.14D-01
                    CP:  1.22D+00  1.07D+00  1.39D+00  1.59D+00  1.14D+00
                    CP:  1.48D+00  1.87D+00  1.71D+00  1.31D+00  1.09D+00
 E= -576.413409817993     Delta-E=        0.000000000002 Rises=F Damp=F
 DIIS: error= 3.86D-09 at cycle  16 NSaved=  16.
 NSaved=16 IEnMin=15 EnMin= -576.413409817995     IErMin=16 ErrMin= 3.86D-09
 ErrMax= 3.86D-09  0.00D+00 EMaxC= 1.00D-01 BMatC= 6.97D-15 BMatP= 1.89D-13
 IDIUse=1 WtCom= 1.00D+00 WtEn= 0.00D+00
 Coeff-Com: -0.109D-07-0.271D-06-0.381D-06 0.177D-05 0.310D-05 0.122D-04
 Coeff-Com:  0.370D-04-0.102D-03-0.550D-03 0.162D-04 0.445D-02 0.733D-02
 Coeff-Com: -0.188D-01-0.816D-01 0.275D-01 0.106D+01
 Coeff:     -0.109D-07-0.271D-06-0.381D-06 0.177D-05 0.310D-05 0.122D-04
 Coeff:      0.370D-04-0.102D-03-0.550D-03 0.162D-04 0.445D-02 0.733D-02
 Coeff:     -0.188D-01-0.816D-01 0.275D-01 0.106D+01
 Gap=     0.331 Goal=   None    Shift=    0.000
 RMSDP=6.77D-09 MaxDP=5.06D-07 DE= 1.82D-12 OVMax= 1.53D-07

 SCF Done:  E(RwB97XD) =  -576.413409818     A.U. after   16 cycles
            NFock= 16  Conv=0.68D-08     -V/T= 2.0000
 KE= 5.763998169188D+02 PE=-2.903347322456D+03 EE= 9.699494632244D+02
 Leave Link  502 at Tue Nov 22 15:04:14 2022, MaxMem= 16106127360 cpu:            1200.7 elap:              37.6
 (Enter /opt/ap/G16/B01/g16/l601.exe)
 Copying SCF densities to generalized density rwf, IOpCl= 0 IROHF=0.

 **********************************************************************

            Population analysis using the SCF Density.

 **********************************************************************

 Orbital symmetries:
       Occupied  (A) (A) (A) (A) (A) (A) (A) (A) (A) (A) (A) (A)
                 (A) (A) (A) (A) (A) (A) (A) (A) (A) (A) (A) (A)
                 (A) (A) (A) (A) (A) (A) (A) (A) (A) (A) (A) (A)
                 (A) (A) (A) (A) (A) (A) (A) (A) (A) (A) (A) (A)
       Virtual   (A) (A) (A) (A) (A) (A) (A) (A) (A) (A) (A) (A)
                 (A) (A) (A) (A) (A) (A) (A) (A) (A) (A) (A) (A)
                 (A) (A) (A) (A) (A) (A) (A) (A) (A) (A) (A) (A)
                 (A) (A) (A) (A) (A) (A) (A) (A) (A) (A) (A) (A)
                 (A) (A) (A) (A) (A) (A) (A) (A) (A) (A) (A) (A)
                 (A) (A) (A) (A) (A) (A) (A) (A) (A) (A) (A) (A)
                 (A) (A) (A) (A) (A) (A) (A) (A) (A) (A) (A) (A)
                 (A) (A) (A) (A) (A) (A) (A) (A) (A) (A) (A) (A)
                 (A) (A) (A) (A) (A) (A) (A) (A) (A) (A) (A) (A)
                 (A) (A) (A) (A) (A) (A) (A) (A) (A) (A) (A) (A)
                 (A) (A) (A) (A) (A) (A) (A) (A) (A) (A) (A) (A)
                 (A) (A) (A) (A) (A) (A) (A) (A) (A) (A) (A) (A)
                 (A) (A) (A) (A) (A) (A) (A) (A) (A) (A) (A) (A)
                 (A) (A) (A) (A) (A) (A) (A) (A) (A) (A) (A) (A)
                 (A) (A) (A) (A) (A) (A) (A) (A) (A) (A) (A) (A)
                 (A) (A) (A) (A) (A) (A) (A) (A) (A) (A) (A) (A)
                 (A) (A) (A) (A) (A) (A) (A) (A) (A) (A) (A) (A)
                 (A) (A) (A) (A) (A) (A) (A) (A) (A) (A) (A) (A)
                 (A) (A) (A) (A) (A) (A) (A) (A) (A) (A) (A) (A)
                 (A) (A) (A) (A) (A) (A) (A) (A) (A) (A) (A) (A)
                 (A) (A) (A) (A) (A) (A) (A) (A) (A) (A) (A) (A)
                 (A) (A) (A) (A) (A) (A) (A) (A) (A) (A) (A) (A)
                 (A) (A) (A) (A) (A) (A) (A) (A) (A) (A) (A) (A)
                 (A) (A) (A) (A) (A) (A) (A) (A) (A) (A) (A) (A)
                 (A) (A) (A) (A) (A) (A) (A) (A) (A) (A) (A) (A)
                 (A) (A) (A) (A) (A) (A) (A) (A) (A) (A) (A) (A)
                 (A) (A) (A) (A) (A) (A) (A) (A) (A) (A) (A) (A)
                 (A) (A) (A) (A)
 The electronic state is 1-A.
 Alpha  occ. eigenvalues --  -19.24351 -10.38504 -10.30634 -10.30579 -10.29058
 Alpha  occ. eigenvalues --  -10.28727 -10.28641 -10.28516 -10.28505 -10.28437
 Alpha  occ. eigenvalues --  -10.28302 -10.28219 -10.28058 -10.27948  -1.15209
 Alpha  occ. eigenvalues --   -0.97854  -0.97369  -0.89042  -0.87395  -0.87191
 Alpha  occ. eigenvalues --   -0.86839  -0.76785  -0.73907  -0.73395  -0.72587
 Alpha  occ. eigenvalues --   -0.68016  -0.65487  -0.62821  -0.60376  -0.56845
 Alpha  occ. eigenvalues --   -0.56298  -0.55468  -0.54555  -0.53977  -0.53809
 Alpha  occ. eigenvalues --   -0.52433  -0.49100  -0.47148  -0.46574  -0.46276
 Alpha  occ. eigenvalues --   -0.45656  -0.44963  -0.44162  -0.35209  -0.34797
 Alpha  occ. eigenvalues --   -0.34266  -0.33937  -0.32962
 Alpha virt. eigenvalues --    0.00109   0.03634   0.03917   0.04313   0.04338
 Alpha virt. eigenvalues --    0.04967   0.05044   0.05433   0.05835   0.06907
 Alpha virt. eigenvalues --    0.07359   0.07947   0.08885   0.09276   0.10198
 Alpha virt. eigenvalues --    0.11396   0.11886   0.12767   0.13457   0.14469
 Alpha virt. eigenvalues --    0.14736   0.15198   0.15389   0.15854   0.16497
 Alpha virt. eigenvalues --    0.17000   0.17098   0.17290   0.17615   0.17810
 Alpha virt. eigenvalues --    0.18035   0.18498   0.18706   0.18905   0.18955
 Alpha virt. eigenvalues --    0.19452   0.19925   0.20346   0.20595   0.20798
 Alpha virt. eigenvalues --    0.21635   0.21775   0.22578   0.23340   0.23742
 Alpha virt. eigenvalues --    0.23958   0.24462   0.24528   0.25446   0.26032
 Alpha virt. eigenvalues --    0.26093   0.26871   0.27534   0.28048   0.28128
 Alpha virt. eigenvalues --    0.28406   0.29286   0.30101   0.30406   0.30979
 Alpha virt. eigenvalues --    0.31141   0.31333   0.32352   0.32889   0.33542
 Alpha virt. eigenvalues --    0.34352   0.35043   0.35267   0.35715   0.36800
 Alpha virt. eigenvalues --    0.37287   0.37749   0.37848   0.38439   0.38793
 Alpha virt. eigenvalues --    0.39175   0.39485   0.40792   0.41066   0.42322
 Alpha virt. eigenvalues --    0.42591   0.42954   0.43841   0.44558   0.45078
 Alpha virt. eigenvalues --    0.45628   0.46017   0.46958   0.47072   0.50544
 Alpha virt. eigenvalues --    0.52602   0.55730   0.57492   0.57808   0.60760
 Alpha virt. eigenvalues --    0.61372   0.62070   0.62785   0.63352   0.63427
 Alpha virt. eigenvalues --    0.64094   0.64600   0.64825   0.65340   0.65723
 Alpha virt. eigenvalues --    0.66118   0.66276   0.68282   0.68890   0.70150
 Alpha virt. eigenvalues --    0.71192   0.71290   0.72908   0.74251   0.75012
 Alpha virt. eigenvalues --    0.75646   0.75917   0.76472   0.77032   0.78366
 Alpha virt. eigenvalues --    0.79797   0.80143   0.81157   0.81892   0.83166
 Alpha virt. eigenvalues --    0.83653   0.84264   0.84537   0.87647   0.87910
 Alpha virt. eigenvalues --    0.88769   0.89782   0.92125   0.93284   0.93999
 Alpha virt. eigenvalues --    0.94229   0.94620   0.95026   0.95704   0.96344
 Alpha virt. eigenvalues --    0.97099   0.97431   0.98933   0.99479   1.01484
 Alpha virt. eigenvalues --    1.01888   1.02687   1.03237   1.04690   1.06359
 Alpha virt. eigenvalues --    1.07262   1.09200   1.10686   1.12398   1.13334
 Alpha virt. eigenvalues --    1.14573   1.16001   1.16834   1.17309   1.17854
 Alpha virt. eigenvalues --    1.18972   1.21508   1.21850   1.22815   1.23119
 Alpha virt. eigenvalues --    1.28714   1.31136   1.32734   1.35680   1.39915
 Alpha virt. eigenvalues --    1.42142   1.43376   1.44731   1.49113   1.55100
 Alpha virt. eigenvalues --    1.56845   1.58763   1.59418   1.60671   1.61520
 Alpha virt. eigenvalues --    1.62782   1.63504   1.64433   1.65453   1.67169
 Alpha virt. eigenvalues --    1.68161   1.68622   1.69046   1.69244   1.74083
 Alpha virt. eigenvalues --    1.74977   1.75444   1.75975   1.76983   1.77839
 Alpha virt. eigenvalues --    1.80181   1.83456   1.84812   1.86458   1.88766
 Alpha virt. eigenvalues --    1.90351   1.91366   1.92063   1.92509   1.94482
 Alpha virt. eigenvalues --    1.94805   1.95097   1.97352   2.00521   2.01106
 Alpha virt. eigenvalues --    2.02538   2.03288   2.04213   2.04817   2.05216
 Alpha virt. eigenvalues --    2.05444   2.07531   2.08834   2.10017   2.10775
 Alpha virt. eigenvalues --    2.11500   2.16058   2.16118   2.17628   2.20707
 Alpha virt. eigenvalues --    2.21473   2.26368   2.26966   2.27810   2.30638
 Alpha virt. eigenvalues --    2.32865   2.42670   2.43589   2.47273   2.47497
 Alpha virt. eigenvalues --    2.48420   2.49814   2.50378   2.51010   2.54229
 Alpha virt. eigenvalues --    2.58583   2.59484   2.60491   2.66734   2.68370
 Alpha virt. eigenvalues --    2.71277   2.78224   2.79335   2.81149   2.82754
 Alpha virt. eigenvalues --    2.83296   2.84075   2.84938   2.87758   2.88311
 Alpha virt. eigenvalues --    2.91424   2.91709   2.92901   2.94537   2.96090
 Alpha virt. eigenvalues --    2.96614   2.97724   2.98907   2.99718   3.00301
 Alpha virt. eigenvalues --    3.00559   3.01132   3.02249   3.02606   3.03329
 Alpha virt. eigenvalues --    3.05815   3.09927   3.13251   3.15113   3.18292
 Alpha virt. eigenvalues --    3.19586   3.20975   3.23854   3.25611   3.25759
 Alpha virt. eigenvalues --    3.28166   3.30394   3.32139   3.37369   3.44695
 Alpha virt. eigenvalues --    3.48920   3.49524   3.51355   3.53370   3.64716
 Alpha virt. eigenvalues --    3.70106   3.70738   3.71022   3.75593   3.76953
 Alpha virt. eigenvalues --    3.83365   3.89003   3.91182   4.00698   4.29142
 Alpha virt. eigenvalues --    4.36778   4.37386   4.38977   4.40824   4.41515
 Alpha virt. eigenvalues --    4.42639   4.50734   4.51086   4.52376   4.94907
 Alpha virt. eigenvalues --    4.95492   5.22724   5.34903   5.85676  23.89309
 Alpha virt. eigenvalues --   23.95688  23.98461  24.17207  24.19869  24.24091
 Alpha virt. eigenvalues --   24.24697  24.30142  24.31579  24.34026  24.34173
 Alpha virt. eigenvalues --   24.43265  24.44452  50.13944
          Condensed to atoms (all electrons):
               1          2          3          4          5          6
     1  C   10.916903  -0.679704  -0.416181  -0.392780  -0.002795  -1.515655
     2  C   -0.679704  13.232463  -3.907362  -1.326555   0.557884  -3.651954
     3  C   -0.416181  -3.907362   9.460175   0.479271  -0.021182   0.233271
     4  C   -0.392780  -1.326555   0.479271   6.699498  -0.144122   0.885297
     5  H   -0.002795   0.557884  -0.021182  -0.144122   0.497648  -0.116070
     6  C   -1.515655  -3.651954   0.233271   0.885297  -0.116070  18.013865
     7  C   -0.709939  -0.355222   0.509689   0.016690   0.004706   0.390082
     8  H    0.087839   0.067949   0.352007   0.002889  -0.001790  -0.041309
     9  C   -0.517289   1.037628  -0.719247  -0.163942   0.016058  -0.669846
    10  H    0.036384  -0.135622   0.024289   0.477905  -0.013624   0.021025
    11  C   -1.527641   1.533550  -0.204757  -0.174328   0.037079  -6.709689
    12  O    0.215162   0.203823  -0.220858  -0.009638   0.000403   0.294573
    13  H   -0.010218  -0.036701  -0.025563   0.023168   0.001463   0.014610
    14  H    0.024398   0.025394  -0.013212  -0.074178  -0.000359  -0.013764
    15  C    0.255348   0.634250   0.270207  -0.278304   0.035800  -3.106322
    16  C   -0.518774  -0.491866   0.016526   0.282360  -0.043598   1.587564
    17  C   -0.229193  -0.510802   0.224693   0.076878  -0.022446   1.585462
    18  H    0.027171   0.084762  -0.053280  -0.011653   0.000025  -0.108666
    19  C   -0.112695  -0.188135   0.047786   0.040703  -0.008740   0.236838
    20  H    0.012503  -0.030995   0.025361  -0.011069  -0.000295  -0.038346
    21  C    0.061504   0.085803  -0.010698  -0.013877   0.008604  -0.185342
    22  H   -0.009776  -0.014166   0.008433   0.001373  -0.000526   0.020460
    23  H   -0.009052  -0.000100  -0.001358   0.001383  -0.000598   0.013305
    24  H    0.003561   0.002321  -0.000156  -0.000681   0.000371  -0.020939
               7          8          9         10         11         12
     1  C   -0.709939   0.087839  -0.517289   0.036384  -1.527641   0.215162
     2  C   -0.355222   0.067949   1.037628  -0.135622   1.533550   0.203823
     3  C    0.509689   0.352007  -0.719247   0.024289  -0.204757  -0.220858
     4  C    0.016690   0.002889  -0.163942   0.477905  -0.174328  -0.009638
     5  H    0.004706  -0.001790   0.016058  -0.013624   0.037079   0.000403
     6  C    0.390082  -0.041309  -0.669846   0.021025  -6.709689   0.294573
     7  C    5.823857  -0.077916   0.414236   0.007514  -0.302642  -0.047926
     8  H   -0.077916   0.491345  -0.007149   0.000527  -0.029424  -0.004828
     9  C    0.414236  -0.007149   6.285985  -0.091422   0.188029   0.020486
    10  H    0.007514   0.000527  -0.091422   0.489473   0.001477  -0.000526
    11  C   -0.302642  -0.029424   0.188029   0.001477  15.562960  -0.085107
    12  O   -0.047926  -0.004828   0.020486  -0.000526  -0.085107   7.849259
    13  H    0.454992  -0.014856  -0.092430   0.000568   0.003157  -0.000864
    14  H   -0.070040   0.001155   0.472657  -0.012252  -0.000607   0.000417
    15  C    0.147463  -0.051678   0.143369  -0.010385   1.184397   0.027518
    16  C   -0.037712   0.016344  -0.089417   0.005739  -1.680303  -0.020420
    17  C    0.120631  -0.003125  -0.050418   0.002194  -1.988762  -0.022407
    18  H   -0.016295  -0.001482   0.023458  -0.000988  -0.029286  -0.000581
    19  C   -0.014959  -0.002341  -0.011481   0.000727  -0.764658  -0.010578
    20  H    0.003508  -0.000551   0.001465  -0.000183   0.069765  -0.012887
    21  C    0.014445  -0.000535   0.002614  -0.000191  -0.129909   0.011480
    22  H    0.000842   0.000034  -0.001242   0.000087   0.045626  -0.000083
    23  H   -0.000550   0.000031  -0.000169   0.000034  -0.013042   0.000633
    24  H    0.000140  -0.000096   0.000184  -0.000015   0.019162   0.000300
              13         14         15         16         17         18
     1  C   -0.010218   0.024398   0.255348  -0.518774  -0.229193   0.027171
     2  C   -0.036701   0.025394   0.634250  -0.491866  -0.510802   0.084762
     3  C   -0.025563  -0.013212   0.270207   0.016526   0.224693  -0.053280
     4  C    0.023168  -0.074178  -0.278304   0.282360   0.076878  -0.011653
     5  H    0.001463  -0.000359   0.035800  -0.043598  -0.022446   0.000025
     6  C    0.014610  -0.013764  -3.106322   1.587564   1.585462  -0.108666
     7  C    0.454992  -0.070040   0.147463  -0.037712   0.120631  -0.016295
     8  H   -0.014856   0.001155  -0.051678   0.016344  -0.003125  -0.001482
     9  C   -0.092430   0.472657   0.143369  -0.089417  -0.050418   0.023458
    10  H    0.000568  -0.012252  -0.010385   0.005739   0.002194  -0.000988
    11  C    0.003157  -0.000607   1.184397  -1.680303  -1.988762  -0.029286
    12  O   -0.000864   0.000417   0.027518  -0.020420  -0.022407  -0.000581
    13  H    0.495940  -0.013850  -0.001695   0.001634   0.001576  -0.002511
    14  H   -0.013850   0.491674   0.000346  -0.001050  -0.001403   0.000377
    15  C   -0.001695   0.000346  13.707110  -4.197796  -2.672289   0.671962
    16  C    0.001634  -0.001050  -4.197796   9.978920   1.008626  -0.099105
    17  C    0.001576  -0.001403  -2.672289   1.008626   8.037328  -0.134923
    18  H   -0.002511   0.000377   0.671962  -0.099105  -0.134923   0.485253
    19  C    0.000391  -0.000150  -0.219943   0.623779   0.042345   0.007798
    20  H   -0.000127   0.000070   0.066549   0.359656   0.006724   0.000591
    21  C    0.000303  -0.000051   0.199983  -0.658316   0.466541   0.013583
    22  H    0.000113  -0.000019  -0.165458   0.053162   0.461948  -0.017240
    23  H    0.000010  -0.000006  -0.031720  -0.047581   0.018536  -0.001302
    24  H    0.000002   0.000001   0.014558  -0.044861  -0.082400   0.001907
              19         20         21         22         23         24
     1  C   -0.112695   0.012503   0.061504  -0.009776  -0.009052   0.003561
     2  C   -0.188135  -0.030995   0.085803  -0.014166  -0.000100   0.002321
     3  C    0.047786   0.025361  -0.010698   0.008433  -0.001358  -0.000156
     4  C    0.040703  -0.011069  -0.013877   0.001373   0.001383  -0.000681
     5  H   -0.008740  -0.000295   0.008604  -0.000526  -0.000598   0.000371
     6  C    0.236838  -0.038346  -0.185342   0.020460   0.013305  -0.020939
     7  C   -0.014959   0.003508   0.014445   0.000842  -0.000550   0.000140
     8  H   -0.002341  -0.000551  -0.000535   0.000034   0.000031  -0.000096
     9  C   -0.011481   0.001465   0.002614  -0.001242  -0.000169   0.000184
    10  H    0.000727  -0.000183  -0.000191   0.000087   0.000034  -0.000015
    11  C   -0.764658   0.069765  -0.129909   0.045626  -0.013042   0.019162
    12  O   -0.010578  -0.012887   0.011480  -0.000083   0.000633   0.000300
    13  H    0.000391  -0.000127   0.000303   0.000113   0.000010   0.000002
    14  H   -0.000150   0.000070  -0.000051  -0.000019  -0.000006   0.000001
    15  C   -0.219943   0.066549   0.199983  -0.165458  -0.031720   0.014558
    16  C    0.623779   0.359656  -0.658316   0.053162  -0.047581  -0.044861
    17  C    0.042345   0.006724   0.466541   0.461948   0.018536  -0.082400
    18  H    0.007798   0.000591   0.013583  -0.017240  -0.001302   0.001907
    19  C    6.150036  -0.133136   0.296638   0.009301   0.491049  -0.071783
    20  H   -0.133136   0.462932   0.000288  -0.000053  -0.014149   0.001819
    21  C    0.296638   0.000288   5.731428  -0.076462  -0.073963   0.530822
    22  H    0.009301  -0.000053  -0.076462   0.488551   0.001868  -0.016453
    23  H    0.491049  -0.014149  -0.073963   0.001868   0.485846  -0.017564
    24  H   -0.071783   0.001819   0.530822  -0.016453  -0.017564   0.500587
 Mulliken charges:
               1
     1  C    1.010921
     2  C   -0.136642
     3  C   -0.057856
     4  C   -0.386288
     5  H    0.216104
     6  C   -1.118451
     7  C   -0.275595
     8  H    0.216958
     9  C   -0.192116
    10  H    0.197264
    11  C    0.994954
    12  O   -0.187351
    13  H    0.200887
    14  H    0.184450
    15  C   -0.623271
    16  C   -0.003509
    17  C   -0.335312
    18  H    0.160426
    19  C   -0.408793
    20  H    0.230560
    21  C   -0.274695
    22  H    0.209682
    23  H    0.198459
    24  H    0.179214
 Sum of Mulliken charges =  -0.00000
 Mulliken charges with hydrogens summed into heavy atoms:
               1
     1  C    1.010921
     2  C    0.079462
     3  C    0.159102
     4  C   -0.189024
     6  C   -1.118451
     7  C   -0.074708
     9  C   -0.007666
    11  C    0.994954
    12  O   -0.187351
    15  C   -0.462846
    16  C    0.227051
    17  C   -0.125631
    19  C   -0.210334
    21  C   -0.095480
 Electronic spatial extent (au):  <R**2>=           3067.1990
 Charge=             -0.0000 electrons
 Dipole moment (field-independent basis, Debye):
    X=              0.3452    Y=             -3.1190    Z=              0.7022  Tot=              3.2157
 Quadrupole moment (field-independent basis, Debye-Ang):
   XX=            -65.6349   YY=            -85.9650   ZZ=            -76.9999
   XY=              2.2049   XZ=              1.4599   YZ=              3.8716
 Traceless Quadrupole moment (field-independent basis, Debye-Ang):
   XX=             10.5650   YY=             -9.7651   ZZ=             -0.8000
   XY=              2.2049   XZ=              1.4599   YZ=              3.8716
 Octapole moment (field-independent basis, Debye-Ang**2):
  XXX=             13.2873  YYY=            -18.2552  ZZZ=             -0.4578  XYY=             17.1951
  XXY=            -16.4573  XXZ=              7.4438  XZZ=            -19.7574  YZZ=              2.3702
  YYZ=              3.1797  XYZ=              5.3448
 Hexadecapole moment (field-independent basis, Debye-Ang**3):
 XXXX=          -2889.0785 YYYY=           -616.4727 ZZZZ=           -336.3199 XXXY=             56.8657
 XXXZ=             36.4392 YYYX=            -14.5573 YYYZ=             22.1370 ZZZX=             -3.3807
 ZZZY=             -3.9059 XXYY=           -613.5824 XXZZ=           -588.8767 YYZZ=           -164.3239
 XXYZ=             10.7771 YYXZ=              0.2378 ZZXY=             13.0728
 N-N= 7.805846324949D+02 E-N=-2.903347322208D+03  KE= 5.763998169188D+02
 No NMR shielding tensors so no spin-rotation constants.
 Leave Link  601 at Tue Nov 22 15:04:14 2022, MaxMem= 16106127360 cpu:               4.7 elap:               0.2
 (Enter /opt/ap/G16/B01/g16/l9999.exe)
 1\1\GINC-N18\SP\RwB97XD\6-311++G(d,p)\C13H10O1\ROOT\22-Nov-2022\0\\#P 
 wB97XD/6-311++G(d,p) scf=maxcycle=512\\_conf034.gjf nmol_natom 1_24\\0
 ,1\C\C,1,1.39746343\C,1,1.39996263,2,119.28066518\C,2,1.39288453,1,120
 .37436646,3,-0.51002981,0\H,2,0.95014703,1,119.82324024,3,179.45634896
 ,0\C,1,1.49653039,2,122.77761373,4,174.46828757,0\C,3,1.3870125,1,120.
 10017821,2,-0.37315804,0\H,3,0.9501092,1,119.95246451,2,179.5923884,0\
 C,7,1.38720039,3,120.16568731,1,1.0745106,0\H,4,0.95011919,2,120.18755
 644,1,-179.31195299,0\C,6,1.49516902,1,120.70972921,2,80.,0\O,6,1.2215
 0059,1,119.67074267,2,-100.,0\H,7,0.94956661,3,119.91274826,1,-178.886
 36029,0\H,9,0.94992259,7,119.76037934,3,179.10763853,0\C,11,1.39713972
 ,6,122.62585705,1,30.97749054,0\C,11,1.40039562,6,117.74753532,1,-153.
 15467779,0\C,15,1.39455701,11,119.80747484,6,175.4763048,0\H,15,0.9496
 2854,11,120.10535689,6,-4.50802339,0\C,16,1.38466431,11,120.4617377,6,
 -176.88197195,0\H,16,0.9497464,11,119.75779177,6,3.14699974,0\C,17,1.3
 9088945,15,120.3475273,11,0.7973643,0\H,17,0.94984298,15,119.8156451,1
 1,-179.16676483,0\H,19,0.94974749,16,119.98566335,11,-178.40987425,0\H
 ,21,0.94938585,17,120.0744529,15,179.91636093,0\\Version=ES64L-G16RevB
 .01\State=1-A\HF=-576.4134098\RMSD=6.769e-09\Dipole=0.1894781,1.176566
 3,0.4247134\Quadrupole=7.0699707,-6.036309,-1.0336616,-2.8222629,1.499
 6248,-3.9461774\PG=C01 [X(C13H10O1)]\\@


 SCIENCE IS A VERY HUMAN FORM OF KNOWLEDGE.
 WE ARE ALWAYS AT THE BRINK OF THE KNOWN,
 WE ALWAYS FEEL FORWARD FOR WHAT IS HOPED.
 EVERY JUDGEMENT IN SCIENCE STANDS ON THE EDGE OF ERROR, AND IS PERSONAL.
 SCIENCE IS A TRIBUTE TO WHAT WE CAN KNOW ALTHOUGH WE ARE FALLIBLE.

                     -- J. BRONOWSKI
 Job cpu time:       0 days  0 hours 20 minutes 51.3 seconds.
 Elapsed time:       0 days  0 hours  0 minutes 39.3 seconds.
 File lengths (MBytes):  RWF=     78 Int=      0 D2E=      0 Chk=      9 Scr=      1
 Normal termination of Gaussian 16 at Tue Nov 22 15:04:14 2022.
