 Entering Gaussian System, Link 0=g16
 Input=_conf005.gjf
 Output=_conf005.log
 Initial command:
 /opt/ap/G16/B01/g16/l1.exe "/tmp2/scr/Gau-12216.inp" -scrdir="/tmp2/scr/"
 Entering Link 1 = /opt/ap/G16/B01/g16/l1.exe PID=     12217.
  
 Copyright (c) 1988-2017, Gaussian, Inc.  All Rights Reserved.
  
 This is part of the Gaussian(R) 16 program.  It is based on
 the Gaussian(R) 09 system (copyright 2009, Gaussian, Inc.),
 the Gaussian(R) 03 system (copyright 2003, Gaussian, Inc.),
 the Gaussian(R) 98 system (copyright 1998, Gaussian, Inc.),
 the Gaussian(R) 94 system (copyright 1995, Gaussian, Inc.),
 the Gaussian 92(TM) system (copyright 1992, Gaussian, Inc.),
 the Gaussian 90(TM) system (copyright 1990, Gaussian, Inc.),
 the Gaussian 88(TM) system (copyright 1988, Gaussian, Inc.),
 the Gaussian 86(TM) system (copyright 1986, Carnegie Mellon
 University), and the Gaussian 82(TM) system (copyright 1983,
 Carnegie Mellon University). Gaussian is a federally registered
 trademark of Gaussian, Inc.
  
 This software contains proprietary and confidential information,
 including trade secrets, belonging to Gaussian, Inc.
  
 This software is provided under written license and may be
 used, copied, transmitted, or stored only in accord with that
 written license.
  
 The following legend is applicable only to US Government
 contracts under FAR:
  
                    RESTRICTED RIGHTS LEGEND
  
 Use, reproduction and disclosure by the US Government is
 subject to restrictions as set forth in subparagraphs (a)
 and (c) of the Commercial Computer Software - Restricted
 Rights clause in FAR 52.227-19.
  
 Gaussian, Inc.
 340 Quinnipiac St., Bldg. 40, Wallingford CT 06492
  
  
 ---------------------------------------------------------------
 Warning -- This program may not be used in any manner that
 competes with the business of Gaussian, Inc. or will provide
 assistance to any competitor of Gaussian, Inc.  The licensee
 of this program is prohibited from giving any competitor of
 Gaussian, Inc. access to this program.  By using this program,
 the user acknowledges that Gaussian, Inc. is engaged in the
 business of creating and licensing software in the field of
 computational chemistry and represents and warrants to the
 licensee that it is not a competitor of Gaussian, Inc. and that
 it will not use this program in any manner prohibited above.
 ---------------------------------------------------------------
  

 Cite this work as:
 Gaussian 16, Revision B.01,
 M. J. Frisch, G. W. Trucks, H. B. Schlegel, G. E. Scuseria, 
 M. A. Robb, J. R. Cheeseman, G. Scalmani, V. Barone, 
 G. A. Petersson, H. Nakatsuji, X. Li, M. Caricato, A. V. Marenich, 
 J. Bloino, B. G. Janesko, R. Gomperts, B. Mennucci, H. P. Hratchian, 
 J. V. Ortiz, A. F. Izmaylov, J. L. Sonnenberg, D. Williams-Young, 
 F. Ding, F. Lipparini, F. Egidi, J. Goings, B. Peng, A. Petrone, 
 T. Henderson, D. Ranasinghe, V. G. Zakrzewski, J. Gao, N. Rega, 
 G. Zheng, W. Liang, M. Hada, M. Ehara, K. Toyota, R. Fukuda, 
 J. Hasegawa, M. Ishida, T. Nakajima, Y. Honda, O. Kitao, H. Nakai, 
 T. Vreven, K. Throssell, J. A. Montgomery, Jr., J. E. Peralta, 
 F. Ogliaro, M. J. Bearpark, J. J. Heyd, E. N. Brothers, K. N. Kudin, 
 V. N. Staroverov, T. A. Keith, R. Kobayashi, J. Normand, 
 K. Raghavachari, A. P. Rendell, J. C. Burant, S. S. Iyengar, 
 J. Tomasi, M. Cossi, J. M. Millam, M. Klene, C. Adamo, R. Cammi, 
 J. W. Ochterski, R. L. Martin, K. Morokuma, O. Farkas, 
 J. B. Foresman, and D. J. Fox, Gaussian, Inc., Wallingford CT, 2016.
 
 ******************************************
 Gaussian 16:  ES64L-G16RevB.01 20-Dec-2017
                22-Nov-2022 
 ******************************************
 %nprocshared=32
 Will use up to   32 processors via shared memory.
 %mem=120GB
 %chk=_conf005.chk
 ----------------------------------------
 #P wB97XD/6-311++G(d,p) scf=maxcycle=512
 ----------------------------------------
 1/38=1,172=1/1;
 2/12=2,17=6,18=5,40=1/2;
 3/5=4,6=6,7=1111,11=2,25=1,30=1,74=-58/1,2,3;
 4//1;
 5/5=2,7=512,38=5/2;
 6/7=2,8=2,9=2,10=2,28=1/1;
 99/5=1,9=1/99;
 Leave Link    1 at Tue Nov 22 14:58:56 2022, MaxMem= 16106127360 cpu:               1.8 elap:               0.1
 (Enter /opt/ap/G16/B01/g16/l101.exe)
 ----------------------------
 _conf005.gjf nmol_natom 1_24
 ----------------------------
 Symbolic Z-matrix:
 Charge =  0 Multiplicity = 1
 C
 C                    1     1.39746 
 C                    1     1.39996  2     119.28067 
 C                    2     1.39288  1     120.37437  3    -0.51003  0
 H                    2     0.95015  1     119.82324  3     179.45635  0
 C                    1     1.49653  2     122.77761  4     174.46829  0
 C                    3     1.38701  1     120.10018  2    -0.37316  0
 H                    3     0.95011  1     119.95246  2     179.59239  0
 C                    7     1.3872   3     120.16569  1     1.07451  0
 H                    4     0.95012  2     120.18756  1    -179.31195  0
 C                    6     1.49517  1     120.70973  2    -65.      0
 O                    6     1.2215   1     119.67074  2     115.     0
 H                    7     0.94957  3     119.91275  1    -178.88636  0
 H                    9     0.94992  7     119.76038  3     179.10764  0
 C                    11    1.39714  6     122.62586  1     30.97749  0
 C                    11    1.4004   6     117.74754  1    -153.15468  0
 C                    15    1.39456  11    119.80747  6     175.4763  0
 H                    15    0.94963  11    120.10536  6    -4.50802  0
 C                    16    1.38466  11    120.46174  6    -176.88197  0
 H                    16    0.94975  11    119.75779  6     3.147    0
 C                    17    1.39089  15    120.34753  11    0.79736  0
 H                    17    0.94984  15    119.81565  11   -179.16676  0
 H                    19    0.94975  16    119.98566  11   -178.40987  0
 H                    21    0.94939  17    120.07445  15    179.91636  0
 
 ITRead=  0  0  0  0  0  0  0  0  0  0  0  0  0  0  0  0  0  0  0  0
 ITRead=  0  0  0  0
 MicOpt= -1 -1 -1 -1 -1 -1 -1 -1 -1 -1 -1 -1 -1 -1 -1 -1 -1 -1 -1 -1
 MicOpt= -1 -1 -1 -1
 NAtoms=     24 NQM=       24 NQMF=       0 NMMI=      0 NMMIF=      0
                NMic=       0 NMicF=      0.
                    Isotopes and Nuclear Properties:
 (Nuclear quadrupole moments (NQMom) in fm**2, nuclear magnetic moments (NMagM)
  in nuclear magnetons)

  Atom         1           2           3           4           5           6           7           8           9          10
 IAtWgt=          12          12          12          12           1          12          12           1          12           1
 AtmWgt=  12.0000000  12.0000000  12.0000000  12.0000000   1.0078250  12.0000000  12.0000000   1.0078250  12.0000000   1.0078250
 NucSpn=           0           0           0           0           1           0           0           1           0           1
 AtZEff=  -0.0000000  -0.0000000  -0.0000000  -0.0000000  -0.0000000  -0.0000000  -0.0000000  -0.0000000  -0.0000000  -0.0000000
 NQMom=    0.0000000   0.0000000   0.0000000   0.0000000   0.0000000   0.0000000   0.0000000   0.0000000   0.0000000   0.0000000
 NMagM=    0.0000000   0.0000000   0.0000000   0.0000000   2.7928460   0.0000000   0.0000000   2.7928460   0.0000000   2.7928460
 AtZNuc=   6.0000000   6.0000000   6.0000000   6.0000000   1.0000000   6.0000000   6.0000000   1.0000000   6.0000000   1.0000000

  Atom        11          12          13          14          15          16          17          18          19          20
 IAtWgt=          12          16           1           1          12          12          12           1          12           1
 AtmWgt=  12.0000000  15.9949146   1.0078250   1.0078250  12.0000000  12.0000000  12.0000000   1.0078250  12.0000000   1.0078250
 NucSpn=           0           0           1           1           0           0           0           1           0           1
 AtZEff=  -0.0000000  -0.0000000  -0.0000000  -0.0000000  -0.0000000  -0.0000000  -0.0000000  -0.0000000  -0.0000000  -0.0000000
 NQMom=    0.0000000   0.0000000   0.0000000   0.0000000   0.0000000   0.0000000   0.0000000   0.0000000   0.0000000   0.0000000
 NMagM=    0.0000000   0.0000000   2.7928460   2.7928460   0.0000000   0.0000000   0.0000000   2.7928460   0.0000000   2.7928460
 AtZNuc=   6.0000000   8.0000000   1.0000000   1.0000000   6.0000000   6.0000000   6.0000000   1.0000000   6.0000000   1.0000000

  Atom        21          22          23          24
 IAtWgt=          12           1           1           1
 AtmWgt=  12.0000000   1.0078250   1.0078250   1.0078250
 NucSpn=           0           1           1           1
 AtZEff=  -0.0000000  -0.0000000  -0.0000000  -0.0000000
 NQMom=    0.0000000   0.0000000   0.0000000   0.0000000
 NMagM=    0.0000000   2.7928460   2.7928460   2.7928460
 AtZNuc=   6.0000000   1.0000000   1.0000000   1.0000000
 Leave Link  101 at Tue Nov 22 14:58:56 2022, MaxMem= 16106127360 cpu:               5.2 elap:               0.2
 (Enter /opt/ap/G16/B01/g16/l202.exe)
                          Input orientation:                          
 ---------------------------------------------------------------------
 Center     Atomic      Atomic             Coordinates (Angstroms)
 Number     Number       Type             X           Y           Z
 ---------------------------------------------------------------------
      1          6           0        0.000000    0.000000    0.000000
      2          6           0        0.000000    0.000000    1.397463
      3          6           0        1.221096    0.000000   -0.684705
      4          6           0        1.201650   -0.010697    2.101772
      5          1           0       -0.824276    0.007821    1.869996
      6          6           0       -1.253421   -0.110138   -0.810191
      7          6           0        2.414707    0.007815    0.021719
      8          1           0        1.232246   -0.005856   -1.634731
      9          6           0        2.403895   -0.006831    1.408800
     10          1           0        1.198494   -0.020531    3.051836
     11          6           0       -2.083954   -1.352660   -0.766798
     12          8           0       -1.602153    0.824828   -1.514668
     13          1           0        3.241298    0.023792   -0.445367
     14          1           0        3.224827   -0.014217    1.886678
     15          6           0       -2.170885   -2.161314    0.369213
     16          6           0       -2.864232   -1.654881   -1.889712
     17          6           0       -3.036243   -3.254878    0.377117
     18          1           0       -1.642465   -1.966839    1.133900
     19          6           0       -3.703390   -2.756286   -1.885612
     20          1           0       -2.817073   -1.100643   -2.659526
     21          6           0       -3.800686   -3.554235   -0.745642
     22          1           0       -3.104221   -3.797735    1.153575
     23          1           0       -4.212594   -2.967947   -2.658872
     24          1           0       -4.387677   -4.300352   -0.736427
 ---------------------------------------------------------------------
                    Distance matrix (angstroms):
                    1          2          3          4          5
     1  C    0.000000
     2  C    1.397463   0.000000
     3  C    1.399963   2.413814   0.000000
     4  C    2.421058   1.392885   2.786566   0.000000
     5  H    2.043619   0.950147   3.272630   2.039225   0.000000
     6  C    1.496530   2.541049   2.480142   3.810091   2.716889
     7  C    2.414817   2.779127   1.387013   2.408002   3.729228
     8  H    2.047146   3.273021   0.950109   3.736632   4.063567
     9  C    2.786301   2.403931   2.404542   1.387667   3.260982
    10  H    3.278797   2.042977   3.736665   0.950119   2.342893
    11  C    2.600103   3.294933   3.572084   4.563415   3.223412
    12  O    2.354029   3.424579   3.056127   4.651672   3.567708
    13  H    3.271839   3.728619   2.034469   3.263323   4.678681
    14  H    3.736210   3.261755   3.259932   2.034583   4.049198
    15  C    3.085505   3.231303   4.157831   4.359003   2.961563
    16  C    3.809655   4.663473   4.569527   5.930151   4.589271
    17  C    4.467127   4.566630   5.463207   5.608822   4.215056
    18  H    2.802120   2.575968   3.921194   3.585004   2.260654
    19  C    4.986757   5.664874   5.769736   6.891800   5.480345
    20  H    4.027455   5.060285   4.627974   6.325194   5.071145
    21  C    5.256784   5.627672   6.152608   6.759274   5.328116
    22  H    5.038821   4.911055   6.042386   5.812164   4.493736
    23  H    5.798643   6.558088   6.498540   7.792503   6.391130
    24  H    6.187654   6.503708   7.067816   7.595860   6.168600
                    6          7          8          9         10
     6  C    0.000000
     7  C    3.763130   0.000000
     8  H    2.620930   2.035246   0.000000
     9  C    4.279082   1.387200   3.261263   0.000000
    10  H    4.575496   3.265208   4.686711   2.037829   0.000000
    11  C    1.495169   4.765564   3.682984   5.165778   5.208742
    12  O    1.221501   4.377574   2.956056   5.028592   5.423210
    13  H    4.511488   0.949567   2.334899   2.034727   4.050363
    14  H    5.228480   2.033434   4.046081   0.949923   2.337447
    15  C    2.537727   5.084637   4.499232   5.162475   4.809587
    16  C    2.479176   5.855367   4.423283   6.430351   6.602707
    17  C    3.804937   6.362730   5.729194   6.419445   5.962224
    18  H    2.716281   4.647241   4.446879   4.504468   3.941781
    19  C    3.763108   6.979203   5.655821   7.464019   7.476042
    20  H    2.616515   5.982414   4.318072   6.708666   7.064777
    21  C    4.284219   7.204731   6.221886   7.464751   7.204144
    22  H    4.569487   6.798667   6.399839   6.691444   6.031916
    23  H    4.510144   7.743503   6.282446   8.312165   8.401150
    24  H    5.233249   8.087491   7.129738   8.316355   7.992065
                   11         12         13         14         15
    11  C    0.000000
    12  O    2.352211   0.000000
    13  H    5.509650   5.024349   0.000000
    14  H    6.084039   5.964301   2.332413   0.000000
    15  C    1.397140   3.576242   5.893213   6.002203   0.000000
    16  C    1.400396   2.807573   6.494734   7.350480   2.416598
    17  C    2.415332   4.720113   7.129774   7.209831   1.394557
    18  H    2.045674   3.848369   5.505255   5.298107   0.949629
    19  C    2.417537   4.168594   7.617863   8.351605   2.790484
    20  H    2.045335   2.548367   6.547573   7.638904   3.273506
    21  C    2.791872   4.959954   7.904554   8.295702   2.416481
    22  H    3.272181   5.544711   7.578013   7.410081   2.040640
    23  H    3.274172   4.744339   8.331303   9.203357   3.740125
    24  H    3.741249   5.884919   8.774063   9.121505   3.272933
                   16         17         18         19         20
    16  C    0.000000
    17  C    2.779944   0.000000
    18  H    3.276013   2.043131   0.000000
    19  C    1.384664   2.411145   3.740066   0.000000
    20  H    0.949746   3.729607   4.064490   2.031171   0.000000
    21  C    2.406945   1.390889   3.272678   1.394891   3.263520
    22  H    3.729747   0.949843   2.342925   3.268069   4.679370
    23  H    2.033181   3.268541   4.689659   0.949747   2.331159
    24  H    3.263351   2.039453   4.059507   2.042795   4.050092
                   21         22         23         24
    21  C    0.000000
    22  H    2.037493   0.000000
    23  H    2.043001   4.056081   0.000000
    24  H    0.949386   2.339229   2.345581   0.000000
 Stoichiometry    C13H10O
 Framework group  C1[X(C13H10O)]
 Deg. of freedom    66
 Full point group                 C1      NOp   1
 Largest Abelian subgroup         C1      NOp   1
 Largest concise Abelian subgroup C1      NOp   1
                         Standard orientation:                         
 ---------------------------------------------------------------------
 Center     Atomic      Atomic             Coordinates (Angstroms)
 Number     Number       Type             X           Y           Z
 ---------------------------------------------------------------------
      1          6           0       -1.310742    0.408644   -0.246203
      2          6           0       -1.743253   -0.743569   -0.908200
      3          6           0       -2.112491    0.962558    0.758921
      4          6           0       -2.953795   -1.340787   -0.564621
      5          1           0       -1.208875   -1.121575   -1.596918
      6          6           0        0.031589    1.025245   -0.486108
      7          6           0       -3.325601    0.374141    1.084397
      8          1           0       -1.825000    1.742447    1.219170
      9          6           0       -3.739131   -0.777705    0.431274
     10          1           0       -3.240657   -2.129654   -1.009734
     11          6           0        1.283876    0.293690   -0.122605
     12          8           0        0.105487    2.138118   -0.984220
     13          1           0       -3.874624    0.761099    1.755600
     14          1           0       -4.565085   -1.183042    0.667608
     15          6           0        1.379493   -1.099726   -0.157915
     16          6           0        2.419312    1.055335    0.180364
     17          6           0        2.602587   -1.717438    0.101434
     18          1           0        0.613973   -1.624781   -0.358143
     19          6           0        3.625471    0.436095    0.461466
     20          1           0        2.361370    2.003222    0.193476
     21          6           0        3.723501   -0.954439    0.411204
     22          1           0        2.670477   -2.664182    0.065809
     23          1           0        4.385663    0.958328    0.688185
     24          1           0        4.553968   -1.379072    0.588251
 ---------------------------------------------------------------------
 Rotational constants (GHZ):           1.6186056           0.4175965           0.3660658
 Leave Link  202 at Tue Nov 22 14:58:56 2022, MaxMem= 16106127360 cpu:               0.3 elap:               0.0
 (Enter /opt/ap/G16/B01/g16/l301.exe)
 Standard basis: 6-311++G(d,p) (5D, 7F)
 Ernie: Thresh=  0.10000D-02 Tol=  0.10000D-05 Strict=F.
 There are   392 symmetry adapted cartesian basis functions of A   symmetry.
 There are   378 symmetry adapted basis functions of A   symmetry.
   378 basis functions,   594 primitive gaussians,   392 cartesian basis functions
    48 alpha electrons       48 beta electrons
       nuclear repulsion energy       783.2561167708 Hartrees.
 IExCor= 4639 DFT=T Ex+Corr=wB97XD ExCW=0 ScaHFX=  1.000000
 ScaDFX=  1.000000  1.000000  1.000000  1.000000 ScalE2=  1.000000  1.000000
 IRadAn=      5 IRanWt=     -1 IRanGd=            0 ICorTp=0 IEmpDi=121
 HFx  wShort=  0.000000 wLong=  0.200000 cFull=  0.222036 cShort=  0.000000 cLong=  0.777964
 DFx  wShort=  0.000000 wLong=  0.200000 cFull=  0.000000 cShort=  0.000000 cLong=  1.000000
 NAtoms=   24 NActive=   24 NUniq=   24 SFac= 1.00D+00 NAtFMM=   60 NAOKFM=F Big=F
 Integral buffers will be    131072 words long.
 Raffenetti 2 integral format.
 Two-electron integral symmetry is turned on.
 R6Disp:  Grimme-D2 Dispersion energy=       -0.0141626180 Hartrees.
 Nuclear repulsion after empirical dispersion term =      783.2419541528 Hartrees.
 Leave Link  301 at Tue Nov 22 14:58:56 2022, MaxMem= 16106127360 cpu:               1.2 elap:               0.0
 (Enter /opt/ap/G16/B01/g16/l302.exe)
 NPDir=0 NMtPBC=     1 NCelOv=     1 NCel=       1 NClECP=     1 NCelD=      1
         NCelK=      1 NCelE2=     1 NClLst=     1 CellRange=     0.0.
 One-electron integrals computed using PRISM.
 One-electron integral symmetry used in STVInt
 NBasis=   378 RedAO= T EigKep=  1.66D-06  NBF=   378
 NBsUse=   376 1.00D-06 EigRej=  8.13D-07 NBFU=   376
 Precomputing XC quadrature grid using
 IXCGrd= 4 IRadAn=           5 IRanWt=          -1 IRanGd=           0 AccXCQ= 0.00D+00.
 Generated NRdTot=       0 NPtTot=           0 NUsed=           0 NTot=          32
 NSgBfM=   392   392   392   392   392 MxSgAt=    24 MxSgA2=    24.
 Leave Link  302 at Tue Nov 22 14:58:56 2022, MaxMem= 16106127360 cpu:               8.5 elap:               0.3
 (Enter /opt/ap/G16/B01/g16/l303.exe)
 DipDrv:  MaxL=1.
 Leave Link  303 at Tue Nov 22 14:58:57 2022, MaxMem= 16106127360 cpu:               3.9 elap:               0.1
 (Enter /opt/ap/G16/B01/g16/l401.exe)
 ExpMin= 3.60D-02 ExpMax= 8.59D+03 ExpMxC= 1.30D+03 IAcc=3 IRadAn=         5 AccDes= 0.00D+00
 Harris functional with IExCor= 4639 and IRadAn=       5 diagonalized for initial guess.
 HarFok:  IExCor= 4639 AccDes= 0.00D+00 IRadAn=         5 IDoV= 1 UseB2=F ITyADJ=14
 ICtDFT=  3500011 ScaDFX=  1.000000  1.000000  1.000000  1.000000
 FoFCou: FMM=F IPFlag=           0 FMFlag=      100000 FMFlg1=           0
         NFxFlg=           0 DoJE=T BraDBF=F KetDBF=T FulRan=T
         wScrn=  0.000000 ICntrl=       500 IOpCl=  0 I1Cent=   200000004 NGrid=           0
         NMat0=    1 NMatS0=      1 NMatT0=    0 NMatD0=    1 NMtDS0=    0 NMtDT0=    0
 Petite list used in FoFCou.
 Harris En= -550.901424568717    
 JPrj=0 DoOrth=F DoCkMO=F.
 Leave Link  401 at Tue Nov 22 14:58:57 2022, MaxMem= 16106127360 cpu:              22.6 elap:               0.7
 (Enter /opt/ap/G16/B01/g16/l502.exe)
 Integral symmetry usage will be decided dynamically.
 Closed shell SCF:
 Using DIIS extrapolation, IDIIS=  1040.
 NGot= 16106127360 LenX= 16105803762 LenY= 16105649657
 Requested convergence on RMS density matrix=1.00D-08 within 512 cycles.
 Requested convergence on MAX density matrix=1.00D-06.
 Requested convergence on             energy=1.00D-06.
 No special actions if energy rises.
 Fock matrices will be formed incrementally for  20 cycles.

 Cycle   1  Pass 1  IDiag  1:
 FoFJK:  IHMeth= 1 ICntrl=       0 DoSepK=T KAlg= 0 I1Cent=           0 FoldK=F
 IRaf=         1 NMat=       1 IRICut=       1 DoRegI=T DoRafI=F ISym2E= 0 IDoP0=0 IntGTp=1.
 FoFCou: FMM=F IPFlag=           0 FMFlag=      100000 FMFlg1=           0
         NFxFlg=           0 DoJE=T BraDBF=F KetDBF=F FulRan=T
         wScrn=  0.000000 ICntrl=       500 IOpCl=  0 I1Cent=           0 NGrid=           0
         NMat0=    1 NMatS0=      1 NMatT0=    0 NMatD0=    1 NMtDS0=    0 NMtDT0=    0
 Symmetry not used in FoFCou.
 E= -576.255551098060    
 DIIS: error= 4.79D-02 at cycle   1 NSaved=   1.
 NSaved= 1 IEnMin= 1 EnMin= -576.255551098060     IErMin= 1 ErrMin= 4.79D-02
 ErrMax= 4.79D-02  0.00D+00 EMaxC= 1.00D-01 BMatC= 1.20D+00 BMatP= 1.20D+00
 IDIUse=3 WtCom= 5.21D-01 WtEn= 4.79D-01
 Coeff-Com:  0.100D+01
 Coeff-En:   0.100D+01
 Coeff:      0.100D+01
 Gap=     0.415 Goal=   None    Shift=    0.000
 GapD=    0.415 DampG=2.000 DampE=0.500 DampFc=1.0000 IDamp=-1.
 RMSDP=2.45D-02 MaxDP=3.89D+00              OVMax= 1.22D-01

 Cycle   2  Pass 1  IDiag  1:
 RMSU=  1.53D-02    CP:  7.48D-01
 E= -576.346363562881     Delta-E=       -0.090812464821 Rises=F Damp=F
 DIIS: error= 1.15D-02 at cycle   2 NSaved=   2.
 NSaved= 2 IEnMin= 2 EnMin= -576.346363562881     IErMin= 2 ErrMin= 1.15D-02
 ErrMax= 1.15D-02  0.00D+00 EMaxC= 1.00D-01 BMatC= 7.49D-02 BMatP= 1.20D+00
 IDIUse=3 WtCom= 8.85D-01 WtEn= 1.15D-01
 Coeff-Com:  0.126D+00 0.874D+00
 Coeff-En:   0.142D+00 0.858D+00
 Coeff:      0.128D+00 0.872D+00
 Gap=     0.438 Goal=   None    Shift=    0.000
 RMSDP=1.05D-02 MaxDP=1.21D+00 DE=-9.08D-02 OVMax= 1.47D-01

 Cycle   3  Pass 1  IDiag  1:
 RMSU=  5.80D-03    CP:  6.90D-01  5.07D-01
 E= -576.364929147698     Delta-E=       -0.018565584817 Rises=F Damp=F
 DIIS: error= 1.13D-02 at cycle   3 NSaved=   3.
 NSaved= 3 IEnMin= 3 EnMin= -576.364929147698     IErMin= 3 ErrMin= 1.13D-02
 ErrMax= 1.13D-02  0.00D+00 EMaxC= 1.00D-01 BMatC= 5.25D-02 BMatP= 7.49D-02
 IDIUse=3 WtCom= 8.87D-01 WtEn= 1.13D-01
 Coeff-Com:  0.237D-01 0.459D+00 0.517D+00
 Coeff-En:   0.000D+00 0.420D+00 0.580D+00
 Coeff:      0.210D-01 0.455D+00 0.524D+00
 Gap=     0.355 Goal=   None    Shift=    0.000
 RMSDP=4.28D-03 MaxDP=3.44D-01 DE=-1.86D-02 OVMax= 6.13D-02

 Cycle   4  Pass 1  IDiag  1:
 RMSU=  1.55D-03    CP:  6.76D-01  7.18D-01  6.39D-01
 E= -576.411717740163     Delta-E=       -0.046788592465 Rises=F Damp=F
 DIIS: error= 1.60D-03 at cycle   4 NSaved=   4.
 NSaved= 4 IEnMin= 4 EnMin= -576.411717740163     IErMin= 4 ErrMin= 1.60D-03
 ErrMax= 1.60D-03  0.00D+00 EMaxC= 1.00D-01 BMatC= 7.83D-04 BMatP= 5.25D-02
 IDIUse=3 WtCom= 9.84D-01 WtEn= 1.60D-02
 Coeff-Com:  0.916D-02 0.189D+00 0.237D+00 0.565D+00
 Coeff-En:   0.000D+00 0.000D+00 0.000D+00 0.100D+01
 Coeff:      0.901D-02 0.186D+00 0.233D+00 0.572D+00
 Gap=     0.325 Goal=   None    Shift=    0.000
 RMSDP=6.37D-04 MaxDP=5.01D-02 DE=-4.68D-02 OVMax= 6.22D-03

 Cycle   5  Pass 1  IDiag  1:
 RMSU=  4.70D-04    CP:  6.77D-01  7.42D-01  6.70D-01  1.01D+00
 E= -576.412275918628     Delta-E=       -0.000558178466 Rises=F Damp=F
 DIIS: error= 5.33D-04 at cycle   5 NSaved=   5.
 NSaved= 5 IEnMin= 5 EnMin= -576.412275918628     IErMin= 5 ErrMin= 5.33D-04
 ErrMax= 5.33D-04  0.00D+00 EMaxC= 1.00D-01 BMatC= 7.54D-05 BMatP= 7.83D-04
 IDIUse=3 WtCom= 9.95D-01 WtEn= 5.33D-03
 Coeff-Com: -0.565D-03-0.778D-02-0.875D-04 0.223D+00 0.786D+00
 Coeff-En:   0.000D+00 0.000D+00 0.000D+00 0.000D+00 0.100D+01
 Coeff:     -0.562D-03-0.774D-02-0.870D-04 0.222D+00 0.787D+00
 Gap=     0.326 Goal=   None    Shift=    0.000
 RMSDP=3.68D-04 MaxDP=4.56D-02 DE=-5.58D-04 OVMax= 2.52D-03

 Cycle   6  Pass 1  IDiag  1:
 RMSU=  2.22D-04    CP:  6.74D-01  7.46D-01  6.81D-01  1.12D+00  8.78D-01
 E= -576.412332558176     Delta-E=       -0.000056639548 Rises=F Damp=F
 DIIS: error= 2.20D-04 at cycle   6 NSaved=   6.
 NSaved= 6 IEnMin= 6 EnMin= -576.412332558176     IErMin= 6 ErrMin= 2.20D-04
 ErrMax= 2.20D-04  0.00D+00 EMaxC= 1.00D-01 BMatC= 1.83D-05 BMatP= 7.54D-05
 IDIUse=3 WtCom= 9.98D-01 WtEn= 2.20D-03
 Coeff-Com: -0.122D-02-0.228D-01-0.228D-01 0.666D-01 0.435D+00 0.546D+00
 Coeff-En:   0.000D+00 0.000D+00 0.000D+00 0.000D+00 0.000D+00 0.100D+01
 Coeff:     -0.122D-02-0.228D-01-0.227D-01 0.664D-01 0.434D+00 0.547D+00
 Gap=     0.326 Goal=   None    Shift=    0.000
 RMSDP=1.03D-04 MaxDP=6.24D-03 DE=-5.66D-05 OVMax= 1.36D-03

 Cycle   7  Pass 1  IDiag  1:
 RMSU=  7.15D-05    CP:  6.74D-01  7.46D-01  6.85D-01  1.16D+00  9.38D-01
                    CP:  9.15D-01
 E= -576.412350916779     Delta-E=       -0.000018358603 Rises=F Damp=F
 DIIS: error= 4.58D-05 at cycle   7 NSaved=   7.
 NSaved= 7 IEnMin= 7 EnMin= -576.412350916779     IErMin= 7 ErrMin= 4.58D-05
 ErrMax= 4.58D-05  0.00D+00 EMaxC= 1.00D-01 BMatC= 4.99D-07 BMatP= 1.83D-05
 IDIUse=1 WtCom= 1.00D+00 WtEn= 0.00D+00
 Coeff-Com: -0.233D-03-0.450D-02-0.529D-02-0.100D-01-0.649D-02 0.112D+00
 Coeff-Com:  0.915D+00
 Coeff:     -0.233D-03-0.450D-02-0.529D-02-0.100D-01-0.649D-02 0.112D+00
 Coeff:      0.915D+00
 Gap=     0.326 Goal=   None    Shift=    0.000
 RMSDP=4.22D-05 MaxDP=3.44D-03 DE=-1.84D-05 OVMax= 5.62D-04

 Cycle   8  Pass 1  IDiag  1:
 RMSU=  1.58D-05    CP:  6.74D-01  7.47D-01  6.86D-01  1.17D+00  9.45D-01
                    CP:  1.04D+00  1.10D+00
 E= -576.412352106359     Delta-E=       -0.000001189580 Rises=F Damp=F
 DIIS: error= 1.24D-05 at cycle   8 NSaved=   8.
 NSaved= 8 IEnMin= 8 EnMin= -576.412352106359     IErMin= 8 ErrMin= 1.24D-05
 ErrMax= 1.24D-05  0.00D+00 EMaxC= 1.00D-01 BMatC= 8.45D-08 BMatP= 4.99D-07
 IDIUse=1 WtCom= 1.00D+00 WtEn= 0.00D+00
 Coeff-Com:  0.525D-04 0.787D-03 0.397D-03-0.127D-01-0.592D-01-0.234D-01
 Coeff-Com:  0.319D+00 0.775D+00
 Coeff:      0.525D-04 0.787D-03 0.397D-03-0.127D-01-0.592D-01-0.234D-01
 Coeff:      0.319D+00 0.775D+00
 Gap=     0.326 Goal=   None    Shift=    0.000
 RMSDP=1.45D-05 MaxDP=1.38D-03 DE=-1.19D-06 OVMax= 2.29D-04

 Cycle   9  Pass 1  IDiag  1:
 RMSU=  6.21D-06    CP:  6.74D-01  7.47D-01  6.86D-01  1.17D+00  9.41D-01
                    CP:  1.08D+00  1.15D+00  1.28D+00
 E= -576.412352273850     Delta-E=       -0.000000167491 Rises=F Damp=F
 DIIS: error= 4.51D-06 at cycle   9 NSaved=   9.
 NSaved= 9 IEnMin= 9 EnMin= -576.412352273850     IErMin= 9 ErrMin= 4.51D-06
 ErrMax= 4.51D-06  0.00D+00 EMaxC= 1.00D-01 BMatC= 6.01D-09 BMatP= 8.45D-08
 IDIUse=1 WtCom= 1.00D+00 WtEn= 0.00D+00
 Coeff-Com:  0.401D-04 0.711D-03 0.716D-03-0.849D-03-0.103D-01-0.161D-01
 Coeff-Com: -0.584D-01 0.147D+00 0.938D+00
 Coeff:      0.401D-04 0.711D-03 0.716D-03-0.849D-03-0.103D-01-0.161D-01
 Coeff:     -0.584D-01 0.147D+00 0.938D+00
 Gap=     0.326 Goal=   None    Shift=    0.000
 RMSDP=7.39D-06 MaxDP=6.22D-04 DE=-1.67D-07 OVMax= 8.06D-05

 Cycle  10  Pass 1  IDiag  1:
 RMSU=  1.97D-06    CP:  6.74D-01  7.47D-01  6.86D-01  1.17D+00  9.34D-01
                    CP:  1.09D+00  1.16D+00  1.49D+00  1.33D+00
 E= -576.412352289919     Delta-E=       -0.000000016068 Rises=F Damp=F
 DIIS: error= 9.07D-07 at cycle  10 NSaved=  10.
 NSaved=10 IEnMin=10 EnMin= -576.412352289919     IErMin=10 ErrMin= 9.07D-07
 ErrMax= 9.07D-07  0.00D+00 EMaxC= 1.00D-01 BMatC= 4.71D-10 BMatP= 6.01D-09
 IDIUse=1 WtCom= 1.00D+00 WtEn= 0.00D+00
 Coeff-Com: -0.110D-05 0.665D-05 0.319D-04 0.125D-02 0.410D-02 0.150D-02
 Coeff-Com: -0.303D-01-0.540D-01 0.104D+00 0.973D+00
 Coeff:     -0.110D-05 0.665D-05 0.319D-04 0.125D-02 0.410D-02 0.150D-02
 Coeff:     -0.303D-01-0.540D-01 0.104D+00 0.973D+00
 Gap=     0.326 Goal=   None    Shift=    0.000
 RMSDP=2.34D-06 MaxDP=2.50D-04 DE=-1.61D-08 OVMax= 1.53D-05

 Cycle  11  Pass 1  IDiag  1:
 RMSU=  6.80D-07    CP:  6.74D-01  7.47D-01  6.85D-01  1.17D+00  9.31D-01
                    CP:  1.09D+00  1.15D+00  1.55D+00  1.41D+00  1.11D+00
 E= -576.412352291073     Delta-E=       -0.000000001154 Rises=F Damp=F
 DIIS: error= 3.70D-07 at cycle  11 NSaved=  11.
 NSaved=11 IEnMin=11 EnMin= -576.412352291073     IErMin=11 ErrMin= 3.70D-07
 ErrMax= 3.70D-07  0.00D+00 EMaxC= 1.00D-01 BMatC= 7.66D-11 BMatP= 4.71D-10
 IDIUse=1 WtCom= 1.00D+00 WtEn= 0.00D+00
 Coeff-Com: -0.284D-05-0.396D-04-0.332D-04 0.508D-03 0.193D-02 0.150D-02
 Coeff-Com: -0.601D-02-0.295D-01-0.345D-01 0.321D+00 0.745D+00
 Coeff:     -0.284D-05-0.396D-04-0.332D-04 0.508D-03 0.193D-02 0.150D-02
 Coeff:     -0.601D-02-0.295D-01-0.345D-01 0.321D+00 0.745D+00
 Gap=     0.326 Goal=   None    Shift=    0.000
 RMSDP=5.87D-07 MaxDP=5.96D-05 DE=-1.15D-09 OVMax= 4.71D-06

 Cycle  12  Pass 1  IDiag  1:
 RMSU=  1.53D-07    CP:  6.74D-01  7.47D-01  6.85D-01  1.17D+00  9.31D-01
                    CP:  1.09D+00  1.15D+00  1.56D+00  1.44D+00  1.19D+00
                    CP:  1.14D+00
 E= -576.412352291193     Delta-E=       -0.000000000121 Rises=F Damp=F
 DIIS: error= 1.43D-07 at cycle  12 NSaved=  12.
 NSaved=12 IEnMin=12 EnMin= -576.412352291193     IErMin=12 ErrMin= 1.43D-07
 ErrMax= 1.43D-07  0.00D+00 EMaxC= 1.00D-01 BMatC= 7.18D-12 BMatP= 7.66D-11
 IDIUse=1 WtCom= 1.00D+00 WtEn= 0.00D+00
 Coeff-Com: -0.309D-06-0.824D-05-0.116D-04-0.607D-04-0.248D-03 0.595D-04
 Coeff-Com:  0.326D-02 0.207D-02-0.198D-01-0.724D-01 0.120D+00 0.968D+00
 Coeff:     -0.309D-06-0.824D-05-0.116D-04-0.607D-04-0.248D-03 0.595D-04
 Coeff:      0.326D-02 0.207D-02-0.198D-01-0.724D-01 0.120D+00 0.968D+00
 Gap=     0.326 Goal=   None    Shift=    0.000
 RMSDP=2.21D-07 MaxDP=1.91D-05 DE=-1.21D-10 OVMax= 2.24D-06

 Cycle  13  Pass 1  IDiag  1:
 RMSU=  6.81D-08    CP:  6.74D-01  7.47D-01  6.85D-01  1.17D+00  9.30D-01
                    CP:  1.09D+00  1.15D+00  1.55D+00  1.44D+00  1.21D+00
                    CP:  1.22D+00  1.29D+00
 E= -576.412352291206     Delta-E=       -0.000000000013 Rises=F Damp=F
 DIIS: error= 7.42D-08 at cycle  13 NSaved=  13.
 NSaved=13 IEnMin=13 EnMin= -576.412352291206     IErMin=13 ErrMin= 7.42D-08
 ErrMax= 7.42D-08  0.00D+00 EMaxC= 1.00D-01 BMatC= 1.67D-12 BMatP= 7.18D-12
 IDIUse=1 WtCom= 1.00D+00 WtEn= 0.00D+00
 Coeff-Com:  0.225D-06 0.132D-05-0.746D-06-0.840D-04-0.330D-03-0.175D-03
 Coeff-Com:  0.189D-02 0.430D-02-0.289D-02-0.654D-01-0.511D-01 0.380D+00
 Coeff-Com:  0.733D+00
 Coeff:      0.225D-06 0.132D-05-0.746D-06-0.840D-04-0.330D-03-0.175D-03
 Coeff:      0.189D-02 0.430D-02-0.289D-02-0.654D-01-0.511D-01 0.380D+00
 Coeff:      0.733D+00
 Gap=     0.326 Goal=   None    Shift=    0.000
 RMSDP=6.58D-08 MaxDP=7.69D-06 DE=-1.25D-11 OVMax= 9.96D-07

 Cycle  14  Pass 1  IDiag  1:
 RMSU=  2.42D-08    CP:  6.74D-01  7.47D-01  6.85D-01  1.17D+00  9.30D-01
                    CP:  1.09D+00  1.15D+00  1.55D+00  1.44D+00  1.20D+00
                    CP:  1.26D+00  1.33D+00  1.03D+00
 E= -576.412352291207     Delta-E=       -0.000000000001 Rises=F Damp=F
 DIIS: error= 3.03D-08 at cycle  14 NSaved=  14.
 NSaved=14 IEnMin=14 EnMin= -576.412352291207     IErMin=14 ErrMin= 3.03D-08
 ErrMax= 3.03D-08  0.00D+00 EMaxC= 1.00D-01 BMatC= 1.85D-13 BMatP= 1.67D-12
 IDIUse=1 WtCom= 1.00D+00 WtEn= 0.00D+00
 Coeff-Com:  0.803D-07 0.151D-05 0.187D-05-0.956D-05-0.264D-04-0.518D-04
 Coeff-Com: -0.112D-03 0.502D-03 0.221D-02-0.239D-02-0.293D-01-0.731D-01
 Coeff-Com:  0.112D+00 0.990D+00
 Coeff:      0.803D-07 0.151D-05 0.187D-05-0.956D-05-0.264D-04-0.518D-04
 Coeff:     -0.112D-03 0.502D-03 0.221D-02-0.239D-02-0.293D-01-0.731D-01
 Coeff:      0.112D+00 0.990D+00
 Gap=     0.326 Goal=   None    Shift=    0.000
 RMSDP=3.35D-08 MaxDP=2.89D-06 DE=-1.14D-12 OVMax= 5.52D-07

 Cycle  15  Pass 1  IDiag  1:
 RMSU=  1.21D-08    CP:  6.74D-01  7.47D-01  6.85D-01  1.17D+00  9.30D-01
                    CP:  1.09D+00  1.15D+00  1.55D+00  1.44D+00  1.20D+00
                    CP:  1.25D+00  1.34D+00  1.22D+00  1.26D+00
 E= -576.412352291205     Delta-E=        0.000000000002 Rises=F Damp=F
 DIIS: error= 1.54D-08 at cycle  15 NSaved=  15.
 NSaved=15 IEnMin=14 EnMin= -576.412352291207     IErMin=15 ErrMin= 1.54D-08
 ErrMax= 1.54D-08  0.00D+00 EMaxC= 1.00D-01 BMatC= 4.84D-14 BMatP= 1.85D-13
 IDIUse=1 WtCom= 1.00D+00 WtEn= 0.00D+00
 Coeff-Com: -0.142D-07 0.343D-06 0.948D-06 0.129D-04 0.555D-04 0.172D-04
 Coeff-Com: -0.391D-03-0.638D-03 0.146D-02 0.124D-01 0.527D-03-0.965D-01
 Coeff-Com: -0.106D+00 0.358D+00 0.831D+00
 Coeff:     -0.142D-07 0.343D-06 0.948D-06 0.129D-04 0.555D-04 0.172D-04
 Coeff:     -0.391D-03-0.638D-03 0.146D-02 0.124D-01 0.527D-03-0.965D-01
 Coeff:     -0.106D+00 0.358D+00 0.831D+00
 Gap=     0.326 Goal=   None    Shift=    0.000
 RMSDP=1.64D-08 MaxDP=1.86D-06 DE= 2.27D-12 OVMax= 2.65D-07

 Cycle  16  Pass 1  IDiag  1:
 RMSU=  3.60D-09    CP:  6.74D-01  7.47D-01  6.85D-01  1.17D+00  9.30D-01
                    CP:  1.09D+00  1.15D+00  1.55D+00  1.44D+00  1.20D+00
                    CP:  1.25D+00  1.34D+00  1.26D+00  1.43D+00  1.38D+00
 E= -576.412352291206     Delta-E=       -0.000000000001 Rises=F Damp=F
 DIIS: error= 6.40D-09 at cycle  16 NSaved=  16.
 NSaved=16 IEnMin=14 EnMin= -576.412352291207     IErMin=16 ErrMin= 6.40D-09
 ErrMax= 6.40D-09  0.00D+00 EMaxC= 1.00D-01 BMatC= 4.33D-15 BMatP= 4.84D-14
 IDIUse=1 WtCom= 1.00D+00 WtEn= 0.00D+00
 Coeff-Com: -0.964D-08-0.215D-06-0.262D-06 0.190D-05 0.553D-05 0.106D-04
 Coeff-Com:  0.710D-05-0.108D-03-0.363D-03 0.564D-03 0.467D-02 0.954D-02
 Coeff-Com: -0.234D-01-0.159D+00-0.919D-02 0.118D+01
 Coeff:     -0.964D-08-0.215D-06-0.262D-06 0.190D-05 0.553D-05 0.106D-04
 Coeff:      0.710D-05-0.108D-03-0.363D-03 0.564D-03 0.467D-02 0.954D-02
 Coeff:     -0.234D-01-0.159D+00-0.919D-02 0.118D+01
 Gap=     0.326 Goal=   None    Shift=    0.000
 RMSDP=6.70D-09 MaxDP=6.68D-07 DE=-1.36D-12 OVMax= 1.55D-07

 SCF Done:  E(RwB97XD) =  -576.412352291     A.U. after   16 cycles
            NFock= 16  Conv=0.67D-08     -V/T= 2.0000
 KE= 5.764105841559D+02 PE=-2.908612654940D+03 EE= 9.725477643403D+02
 Leave Link  502 at Tue Nov 22 14:59:35 2022, MaxMem= 16106127360 cpu:            1208.1 elap:              37.8
 (Enter /opt/ap/G16/B01/g16/l601.exe)
 Copying SCF densities to generalized density rwf, IOpCl= 0 IROHF=0.

 **********************************************************************

            Population analysis using the SCF Density.

 **********************************************************************

 Orbital symmetries:
       Occupied  (A) (A) (A) (A) (A) (A) (A) (A) (A) (A) (A) (A)
                 (A) (A) (A) (A) (A) (A) (A) (A) (A) (A) (A) (A)
                 (A) (A) (A) (A) (A) (A) (A) (A) (A) (A) (A) (A)
                 (A) (A) (A) (A) (A) (A) (A) (A) (A) (A) (A) (A)
       Virtual   (A) (A) (A) (A) (A) (A) (A) (A) (A) (A) (A) (A)
                 (A) (A) (A) (A) (A) (A) (A) (A) (A) (A) (A) (A)
                 (A) (A) (A) (A) (A) (A) (A) (A) (A) (A) (A) (A)
                 (A) (A) (A) (A) (A) (A) (A) (A) (A) (A) (A) (A)
                 (A) (A) (A) (A) (A) (A) (A) (A) (A) (A) (A) (A)
                 (A) (A) (A) (A) (A) (A) (A) (A) (A) (A) (A) (A)
                 (A) (A) (A) (A) (A) (A) (A) (A) (A) (A) (A) (A)
                 (A) (A) (A) (A) (A) (A) (A) (A) (A) (A) (A) (A)
                 (A) (A) (A) (A) (A) (A) (A) (A) (A) (A) (A) (A)
                 (A) (A) (A) (A) (A) (A) (A) (A) (A) (A) (A) (A)
                 (A) (A) (A) (A) (A) (A) (A) (A) (A) (A) (A) (A)
                 (A) (A) (A) (A) (A) (A) (A) (A) (A) (A) (A) (A)
                 (A) (A) (A) (A) (A) (A) (A) (A) (A) (A) (A) (A)
                 (A) (A) (A) (A) (A) (A) (A) (A) (A) (A) (A) (A)
                 (A) (A) (A) (A) (A) (A) (A) (A) (A) (A) (A) (A)
                 (A) (A) (A) (A) (A) (A) (A) (A) (A) (A) (A) (A)
                 (A) (A) (A) (A) (A) (A) (A) (A) (A) (A) (A) (A)
                 (A) (A) (A) (A) (A) (A) (A) (A) (A) (A) (A) (A)
                 (A) (A) (A) (A) (A) (A) (A) (A) (A) (A) (A) (A)
                 (A) (A) (A) (A) (A) (A) (A) (A) (A) (A) (A) (A)
                 (A) (A) (A) (A) (A) (A) (A) (A) (A) (A) (A) (A)
                 (A) (A) (A) (A) (A) (A) (A) (A) (A) (A) (A) (A)
                 (A) (A) (A) (A) (A) (A) (A) (A) (A) (A) (A) (A)
                 (A) (A) (A) (A) (A) (A) (A) (A) (A) (A) (A) (A)
                 (A) (A) (A) (A) (A) (A) (A) (A) (A) (A) (A) (A)
                 (A) (A) (A) (A) (A) (A) (A) (A) (A) (A) (A) (A)
                 (A) (A) (A) (A) (A) (A) (A) (A) (A) (A) (A) (A)
                 (A) (A) (A) (A)
 The electronic state is 1-A.
 Alpha  occ. eigenvalues --  -19.24212 -10.38478 -10.30735 -10.30684 -10.29071
 Alpha  occ. eigenvalues --  -10.28782 -10.28716 -10.28535 -10.28530 -10.28517
 Alpha  occ. eigenvalues --  -10.28387 -10.28321 -10.28156 -10.28071  -1.15137
 Alpha  occ. eigenvalues --   -0.97968  -0.97427  -0.89182  -0.87455  -0.87328
 Alpha  occ. eigenvalues --   -0.86818  -0.76849  -0.74069  -0.73516  -0.72567
 Alpha  occ. eigenvalues --   -0.68115  -0.65430  -0.63187  -0.60246  -0.57039
 Alpha  occ. eigenvalues --   -0.56355  -0.55717  -0.54187  -0.54134  -0.53774
 Alpha  occ. eigenvalues --   -0.52504  -0.49286  -0.47217  -0.46839  -0.46045
 Alpha  occ. eigenvalues --   -0.45923  -0.44820  -0.44403  -0.35249  -0.34605
 Alpha  occ. eigenvalues --   -0.34354  -0.34203  -0.32850
 Alpha virt. eigenvalues --   -0.00204   0.03587   0.04080   0.04337   0.04541
 Alpha virt. eigenvalues --    0.04774   0.04917   0.05685   0.05854   0.07068
 Alpha virt. eigenvalues --    0.07436   0.08109   0.09134   0.09300   0.10282
 Alpha virt. eigenvalues --    0.11569   0.11903   0.12098   0.13277   0.14166
 Alpha virt. eigenvalues --    0.15063   0.15431   0.15677   0.16118   0.16568
 Alpha virt. eigenvalues --    0.16893   0.16996   0.17285   0.17533   0.17899
 Alpha virt. eigenvalues --    0.17990   0.18557   0.18729   0.18946   0.19203
 Alpha virt. eigenvalues --    0.19905   0.20109   0.20574   0.21274   0.21419
 Alpha virt. eigenvalues --    0.21704   0.22112   0.22757   0.23403   0.23675
 Alpha virt. eigenvalues --    0.24133   0.24572   0.24888   0.25172   0.25448
 Alpha virt. eigenvalues --    0.25753   0.26906   0.27158   0.27560   0.28250
 Alpha virt. eigenvalues --    0.29129   0.29330   0.29952   0.30421   0.31048
 Alpha virt. eigenvalues --    0.31434   0.31799   0.32515   0.32942   0.33731
 Alpha virt. eigenvalues --    0.34054   0.34814   0.35359   0.35623   0.35995
 Alpha virt. eigenvalues --    0.37193   0.37426   0.37652   0.38207   0.38473
 Alpha virt. eigenvalues --    0.38820   0.39348   0.40625   0.41378   0.41764
 Alpha virt. eigenvalues --    0.42178   0.43017   0.43365   0.44567   0.44798
 Alpha virt. eigenvalues --    0.45470   0.45858   0.47016   0.48121   0.48872
 Alpha virt. eigenvalues --    0.51324   0.56329   0.56848   0.57869   0.60069
 Alpha virt. eigenvalues --    0.61117   0.62338   0.62655   0.63035   0.63682
 Alpha virt. eigenvalues --    0.64219   0.64304   0.65161   0.65487   0.65789
 Alpha virt. eigenvalues --    0.66380   0.67435   0.68125   0.68498   0.69393
 Alpha virt. eigenvalues --    0.70342   0.71711   0.72475   0.74034   0.75160
 Alpha virt. eigenvalues --    0.75300   0.76916   0.77180   0.78186   0.78809
 Alpha virt. eigenvalues --    0.79520   0.80544   0.81062   0.81788   0.82529
 Alpha virt. eigenvalues --    0.83194   0.83946   0.84322   0.86416   0.87560
 Alpha virt. eigenvalues --    0.88805   0.90166   0.92511   0.93323   0.93660
 Alpha virt. eigenvalues --    0.94149   0.94438   0.94934   0.95343   0.95758
 Alpha virt. eigenvalues --    0.96794   0.96886   0.99632   1.00463   1.01620
 Alpha virt. eigenvalues --    1.02142   1.02943   1.03717   1.04570   1.05191
 Alpha virt. eigenvalues --    1.06151   1.09791   1.10556   1.12473   1.13342
 Alpha virt. eigenvalues --    1.14075   1.16004   1.16590   1.17679   1.18268
 Alpha virt. eigenvalues --    1.19086   1.21536   1.21698   1.23592   1.24832
 Alpha virt. eigenvalues --    1.27993   1.31003   1.33657   1.36486   1.39113
 Alpha virt. eigenvalues --    1.40880   1.43751   1.46167   1.48386   1.55619
 Alpha virt. eigenvalues --    1.55999   1.59244   1.59584   1.59878   1.61709
 Alpha virt. eigenvalues --    1.62047   1.63941   1.65468   1.65946   1.67138
 Alpha virt. eigenvalues --    1.68036   1.68776   1.69018   1.69241   1.73593
 Alpha virt. eigenvalues --    1.75961   1.76400   1.76803   1.76982   1.78577
 Alpha virt. eigenvalues --    1.78927   1.81482   1.85142   1.86786   1.89365
 Alpha virt. eigenvalues --    1.89403   1.90849   1.91966   1.92464   1.94490
 Alpha virt. eigenvalues --    1.95501   1.96372   1.97427   1.99814   2.00909
 Alpha virt. eigenvalues --    2.01851   2.03430   2.04689   2.04958   2.05262
 Alpha virt. eigenvalues --    2.06039   2.07053   2.08260   2.08780   2.10363
 Alpha virt. eigenvalues --    2.11085   2.14976   2.16429   2.19298   2.21527
 Alpha virt. eigenvalues --    2.21590   2.26106   2.27152   2.27326   2.30645
 Alpha virt. eigenvalues --    2.32217   2.42576   2.43674   2.47373   2.48118
 Alpha virt. eigenvalues --    2.49799   2.50012   2.50457   2.51236   2.53811
 Alpha virt. eigenvalues --    2.58960   2.59386   2.60513   2.67013   2.68372
 Alpha virt. eigenvalues --    2.73112   2.76825   2.78239   2.81184   2.82152
 Alpha virt. eigenvalues --    2.82993   2.83402   2.84846   2.87860   2.88170
 Alpha virt. eigenvalues --    2.91651   2.92017   2.93727   2.95095   2.96057
 Alpha virt. eigenvalues --    2.97507   2.97687   2.98727   2.99955   3.00361
 Alpha virt. eigenvalues --    3.00659   3.01309   3.01977   3.02826   3.05256
 Alpha virt. eigenvalues --    3.05344   3.10279   3.13051   3.14471   3.17865
 Alpha virt. eigenvalues --    3.19680   3.21936   3.22910   3.25278   3.25960
 Alpha virt. eigenvalues --    3.28054   3.30721   3.33143   3.36599   3.44845
 Alpha virt. eigenvalues --    3.48641   3.50322   3.51670   3.52911   3.64513
 Alpha virt. eigenvalues --    3.69058   3.70705   3.71985   3.75810   3.77038
 Alpha virt. eigenvalues --    3.83567   3.89128   3.90692   3.98937   4.30309
 Alpha virt. eigenvalues --    4.36813   4.37278   4.39099   4.40756   4.42037
 Alpha virt. eigenvalues --    4.42757   4.50351   4.51459   4.52699   4.95184
 Alpha virt. eigenvalues --    4.95467   5.23616   5.35212   5.84708  23.88529
 Alpha virt. eigenvalues --   23.96336  23.98492  24.17143  24.19312  24.24151
 Alpha virt. eigenvalues --   24.24831  24.30138  24.31295  24.33935  24.34206
 Alpha virt. eigenvalues --   24.43513  24.44377  50.13500
          Condensed to atoms (all electrons):
               1          2          3          4          5          6
     1  C   13.959331  -0.822005   0.486182  -0.749345   0.026795  -5.197964
     2  C   -0.822005   9.389829  -3.623246   0.151110   0.417720   0.283631
     3  C    0.486182  -3.623246  14.915511  -0.399981   0.077249  -6.317141
     4  C   -0.749345   0.151110  -0.399981   6.008896  -0.075609   0.637090
     5  H    0.026795   0.417720   0.077249  -0.075609   0.496766  -0.137111
     6  C   -5.197964   0.283631  -6.317141   0.637090  -0.137111  21.705460
     7  C   -0.677975   0.644873  -1.470047   0.055835   0.005066   0.941705
     8  H    0.087276  -0.024845   0.563970  -0.015222  -0.000190  -0.140849
     9  C   -0.293620  -0.697555   1.124929   0.392441  -0.014197  -0.867628
    10  H   -0.013214  -0.066577  -0.024378   0.474411  -0.008320   0.029158
    11  C   -1.809410   0.553650   1.555440  -0.116699   0.068365  -5.300875
    12  O    0.262704   0.120690  -0.156147   0.017573  -0.004198   0.198040
    13  H    0.004582   0.016963  -0.124589   0.019127   0.001643   0.034079
    14  H    0.039247  -0.004794   0.032746  -0.086844  -0.000225  -0.027816
    15  C    1.731049  -0.807540   0.758240  -0.107288  -0.049568  -0.997281
    16  C   -1.448098   0.418678  -0.602410   0.059964   0.007552   0.821122
    17  C   -0.044784  -0.069763  -0.419138   0.028375  -0.026867   1.146274
    18  H    0.036573  -0.002264   0.035562  -0.034497  -0.010532  -0.016104
    19  C   -0.512530   0.218796  -0.099739  -0.003017   0.003614  -0.215412
    20  H   -0.021032   0.007816  -0.048122   0.001590  -0.001409   0.061033
    21  C    0.117858  -0.141588   0.098406  -0.000393  -0.001207   0.141165
    22  H   -0.021018   0.012777  -0.009882   0.003384   0.000826   0.002332
    23  H   -0.001237   0.002638   0.003867  -0.000350   0.000461  -0.012025
    24  H    0.004933  -0.004598   0.002364  -0.000441  -0.000110   0.000718
               7          8          9         10         11         12
     1  C   -0.677975   0.087276  -0.293620  -0.013214  -1.809410   0.262704
     2  C    0.644873  -0.024845  -0.697555  -0.066577   0.553650   0.120690
     3  C   -1.470047   0.563970   1.124929  -0.024378   1.555440  -0.156147
     4  C    0.055835  -0.015222   0.392441   0.474411  -0.116699   0.017573
     5  H    0.005066  -0.000190  -0.014197  -0.008320   0.068365  -0.004198
     6  C    0.941705  -0.140849  -0.867628   0.029158  -5.300875   0.198040
     7  C    6.734515  -0.182949  -0.101212   0.021541  -0.188594  -0.046558
     8  H   -0.182949   0.500736   0.021315   0.000042   0.021105  -0.009882
     9  C   -0.101212   0.021315   6.116729  -0.075279   0.279846   0.008510
    10  H    0.021541   0.000042  -0.075279   0.487891   0.002396   0.000224
    11  C   -0.188594   0.021105   0.279846   0.002396  14.503338  -0.018671
    12  O   -0.046558  -0.009882   0.008510   0.000224  -0.018671   7.907277
    13  H    0.502309  -0.018695  -0.095508   0.000524  -0.004504   0.000162
    14  H   -0.094494   0.002775   0.483427  -0.013859   0.001160   0.000025
    15  C   -0.213878   0.054697   0.070335  -0.011571  -1.037966  -0.087972
    16  C    0.259748  -0.068746  -0.066030   0.002728  -0.426190   0.035086
    17  C    0.088937  -0.013716  -0.083357   0.005602  -2.451345  -0.050424
    18  H    0.004473  -0.001728   0.018314  -0.003709  -0.067207  -0.001586
    19  C    0.039676  -0.008165  -0.001029  -0.000012  -0.135569   0.021454
    20  H   -0.003113  -0.001098  -0.001137  -0.000057  -0.003891  -0.018765
    21  C   -0.000103   0.001387  -0.005348   0.000857  -0.542410  -0.004845
    22  H   -0.000635  -0.000024   0.000012   0.000122   0.066227   0.000349
    23  H    0.000387  -0.000125   0.000228  -0.000004  -0.005023   0.002743
    24  H    0.000128   0.000043  -0.000044  -0.000000   0.006940  -0.000238
              13         14         15         16         17         18
     1  C    0.004582   0.039247   1.731049  -1.448098  -0.044784   0.036573
     2  C    0.016963  -0.004794  -0.807540   0.418678  -0.069763  -0.002264
     3  C   -0.124589   0.032746   0.758240  -0.602410  -0.419138   0.035562
     4  C    0.019127  -0.086844  -0.107288   0.059964   0.028375  -0.034497
     5  H    0.001643  -0.000225  -0.049568   0.007552  -0.026867  -0.010532
     6  C    0.034079  -0.027816  -0.997281   0.821122   1.146274  -0.016104
     7  C    0.502309  -0.094494  -0.213878   0.259748   0.088937   0.004473
     8  H   -0.018695   0.002775   0.054697  -0.068746  -0.013716  -0.001728
     9  C   -0.095508   0.483427   0.070335  -0.066030  -0.083357   0.018314
    10  H    0.000524  -0.013859  -0.011571   0.002728   0.005602  -0.003709
    11  C   -0.004504   0.001160  -1.037966  -0.426190  -2.451345  -0.067207
    12  O    0.000162   0.000025  -0.087972   0.035086  -0.050424  -0.001586
    13  H    0.490760  -0.015336  -0.012036   0.009467   0.002957  -0.000756
    14  H   -0.015336   0.498272   0.004101  -0.003308  -0.002265  -0.000193
    15  C   -0.012036   0.004101  14.037652  -4.694058  -2.006940   0.602846
    16  C    0.009467  -0.003308  -4.694058   9.922134   1.125280  -0.064986
    17  C    0.002957  -0.002265  -2.006940   1.125280   8.529788  -0.096382
    18  H   -0.000756  -0.000193   0.602846  -0.064986  -0.096382   0.577676
    19  C    0.000631  -0.000288  -0.239037   0.725750  -0.497632   0.019561
    20  H   -0.000072   0.000029   0.020378   0.418391   0.048895  -0.001549
    21  C    0.000149  -0.000177   0.126035  -0.640286   0.678453  -0.005390
    22  H   -0.000004   0.000046  -0.114706   0.045388   0.410152  -0.023693
    23  H    0.000011   0.000001  -0.021521  -0.047870  -0.002474  -0.001025
    24  H    0.000004  -0.000004  -0.032013  -0.020232  -0.039256  -0.000155
              19         20         21         22         23         24
     1  C   -0.512530  -0.021032   0.117858  -0.021018  -0.001237   0.004933
     2  C    0.218796   0.007816  -0.141588   0.012777   0.002638  -0.004598
     3  C   -0.099739  -0.048122   0.098406  -0.009882   0.003867   0.002364
     4  C   -0.003017   0.001590  -0.000393   0.003384  -0.000350  -0.000441
     5  H    0.003614  -0.001409  -0.001207   0.000826   0.000461  -0.000110
     6  C   -0.215412   0.061033   0.141165   0.002332  -0.012025   0.000718
     7  C    0.039676  -0.003113  -0.000103  -0.000635   0.000387   0.000128
     8  H   -0.008165  -0.001098   0.001387  -0.000024  -0.000125   0.000043
     9  C   -0.001029  -0.001137  -0.005348   0.000012   0.000228  -0.000044
    10  H   -0.000012  -0.000057   0.000857   0.000122  -0.000004  -0.000000
    11  C   -0.135569  -0.003891  -0.542410   0.066227  -0.005023   0.006940
    12  O    0.021454  -0.018765  -0.004845   0.000349   0.002743  -0.000238
    13  H    0.000631  -0.000072   0.000149  -0.000004   0.000011   0.000004
    14  H   -0.000288   0.000029  -0.000177   0.000046   0.000001  -0.000004
    15  C   -0.239037   0.020378   0.126035  -0.114706  -0.021521  -0.032013
    16  C    0.725750   0.418391  -0.640286   0.045388  -0.047870  -0.020232
    17  C   -0.497632   0.048895   0.678453   0.410152  -0.002474  -0.039256
    18  H    0.019561  -0.001549  -0.005390  -0.023693  -0.001025  -0.000155
    19  C    6.602786  -0.143385   0.246427   0.011447   0.503057  -0.087221
    20  H   -0.143385   0.466077   0.008722   0.000340  -0.015598   0.002263
    21  C    0.246427   0.008722   5.818576  -0.081523  -0.075134   0.521225
    22  H    0.011447   0.000340  -0.081523   0.491275   0.001628  -0.014793
    23  H    0.503057  -0.015598  -0.075134   0.001628   0.486209  -0.017497
    24  H   -0.087221   0.002263   0.521225  -0.014793  -0.017497   0.498911
 Mulliken charges:
               1
     1  C    0.855704
     2  C    0.025603
     3  C   -0.359647
     4  C   -0.260112
     5  H    0.223487
     6  C   -0.771600
     7  C   -0.319633
     8  H    0.232890
     9  C   -0.214142
    10  H    0.191482
    11  C    1.049885
    12  O   -0.175549
    13  H    0.188131
    14  H    0.187775
    15  C   -0.971960
    16  C    0.230926
    17  C   -0.260368
    18  H    0.036749
    19  C   -0.450163
    20  H    0.223695
    21  C   -0.260856
    22  H    0.219974
    23  H    0.198653
    24  H    0.179073
 Sum of Mulliken charges =  -0.00000
 Mulliken charges with hydrogens summed into heavy atoms:
               1
     1  C    0.855704
     2  C    0.249091
     3  C   -0.126757
     4  C   -0.068630
     6  C   -0.771600
     7  C   -0.131502
     9  C   -0.026367
    11  C    1.049885
    12  O   -0.175549
    15  C   -0.935211
    16  C    0.454622
    17  C   -0.040394
    19  C   -0.251510
    21  C   -0.081782
 Electronic spatial extent (au):  <R**2>=           3012.5418
 Charge=             -0.0000 electrons
 Dipole moment (field-independent basis, Debye):
    X=              0.2326    Y=             -2.9773    Z=              1.5322  Tot=              3.3565
 Quadrupole moment (field-independent basis, Debye-Ang):
   XX=            -66.2557   YY=            -80.3513   ZZ=            -82.6702
   XY=              1.5119   XZ=             -0.5165   YZ=              7.6979
 Traceless Quadrupole moment (field-independent basis, Debye-Ang):
   XX=             10.1701   YY=             -3.9256   ZZ=             -6.2445
   XY=              1.5119   XZ=             -0.5165   YZ=              7.6979
 Octapole moment (field-independent basis, Debye-Ang**2):
  XXX=             14.6854  YYY=            -18.6959  ZZZ=             -3.2268  XYY=              5.8537
  XXY=            -10.1645  XXZ=             23.9292  XZZ=             -9.7378  YZZ=              0.3569
  YYZ=              8.4403  XYZ=             -7.1789
 Hexadecapole moment (field-independent basis, Debye-Ang**3):
 XXXX=          -2816.9107 YYYY=           -711.8207 ZZZZ=           -283.1181 XXXY=             41.5735
 XXXZ=            -13.2855 YYYX=              0.0887 YYYZ=             32.8299 ZZZX=            -12.4356
 ZZZY=              8.8223 XXYY=           -580.1384 XXZZ=           -580.3278 YYZZ=           -171.3105
 XXYZ=             18.1262 YYXZ=              8.1460 ZZXY=             -0.2846
 N-N= 7.832419541528D+02 E-N=-2.908612654694D+03  KE= 5.764105841559D+02
 No NMR shielding tensors so no spin-rotation constants.
 Leave Link  601 at Tue Nov 22 14:59:35 2022, MaxMem= 16106127360 cpu:               4.7 elap:               0.2
 (Enter /opt/ap/G16/B01/g16/l9999.exe)
 1\1\GINC-N17\SP\RwB97XD\6-311++G(d,p)\C13H10O1\ROOT\22-Nov-2022\0\\#P 
 wB97XD/6-311++G(d,p) scf=maxcycle=512\\_conf005.gjf nmol_natom 1_24\\0
 ,1\C\C,1,1.39746343\C,1,1.39996263,2,119.28066518\C,2,1.39288453,1,120
 .37436646,3,-0.51002981,0\H,2,0.95014703,1,119.82324024,3,179.45634896
 ,0\C,1,1.49653039,2,122.77761373,4,174.46828757,0\C,3,1.3870125,1,120.
 10017821,2,-0.37315804,0\H,3,0.9501092,1,119.95246451,2,179.5923884,0\
 C,7,1.38720039,3,120.16568731,1,1.0745106,0\H,4,0.95011919,2,120.18755
 644,1,-179.31195299,0\C,6,1.49516902,1,120.70972921,2,-65.,0\O,6,1.221
 50059,1,119.67074267,2,115.,0\H,7,0.94956661,3,119.91274826,1,-178.886
 36029,0\H,9,0.94992259,7,119.76037934,3,179.10763853,0\C,11,1.39713972
 ,6,122.62585705,1,30.97749054,0\C,11,1.40039562,6,117.74753532,1,-153.
 15467779,0\C,15,1.39455701,11,119.80747484,6,175.4763048,0\H,15,0.9496
 2854,11,120.10535689,6,-4.50802339,0\C,16,1.38466431,11,120.4617377,6,
 -176.88197195,0\H,16,0.9497464,11,119.75779177,6,3.14699974,0\C,17,1.3
 9088945,15,120.3475273,11,0.7973643,0\H,17,0.94984298,15,119.8156451,1
 1,-179.16676483,0\H,19,0.94974749,16,119.98566335,11,-178.40987425,0\H
 ,21,0.94938585,17,120.0744529,15,179.91636093,0\\Version=ES64L-G16RevB
 .01\State=1-A\HF=-576.4123523\RMSD=6.701e-09\Dipole=0.2702972,-1.11615
 08,0.6519019\Quadrupole=4.083424,-6.7136056,2.6301816,5.8878278,1.2282
 661,2.6981866\PG=C01 [X(C13H10O1)]\\@


 ... THE UNIVERSE IS NOT ONLY QUEERER THAN WE SUPPOSE,
 BUT QUEERER THAN WE CAN SUPPOSE ... 

                                   -- J. B. S. HALDANE
 Job cpu time:       0 days  0 hours 20 minutes 58.0 seconds.
 Elapsed time:       0 days  0 hours  0 minutes 39.5 seconds.
 File lengths (MBytes):  RWF=     78 Int=      0 D2E=      0 Chk=      9 Scr=      1
 Normal termination of Gaussian 16 at Tue Nov 22 14:59:35 2022.
