 Entering Gaussian System, Link 0=g16
 Input=_conf017.gjf
 Output=_conf017.log
 Initial command:
 /opt/ap/G16/B01/g16/l1.exe "/tmp2/scr/Gau-13259.inp" -scrdir="/tmp2/scr/"
 Entering Link 1 = /opt/ap/G16/B01/g16/l1.exe PID=     13260.
  
 Copyright (c) 1988-2017, Gaussian, Inc.  All Rights Reserved.
  
 This is part of the Gaussian(R) 16 program.  It is based on
 the Gaussian(R) 09 system (copyright 2009, Gaussian, Inc.),
 the Gaussian(R) 03 system (copyright 2003, Gaussian, Inc.),
 the Gaussian(R) 98 system (copyright 1998, Gaussian, Inc.),
 the Gaussian(R) 94 system (copyright 1995, Gaussian, Inc.),
 the Gaussian 92(TM) system (copyright 1992, Gaussian, Inc.),
 the Gaussian 90(TM) system (copyright 1990, Gaussian, Inc.),
 the Gaussian 88(TM) system (copyright 1988, Gaussian, Inc.),
 the Gaussian 86(TM) system (copyright 1986, Carnegie Mellon
 University), and the Gaussian 82(TM) system (copyright 1983,
 Carnegie Mellon University). Gaussian is a federally registered
 trademark of Gaussian, Inc.
  
 This software contains proprietary and confidential information,
 including trade secrets, belonging to Gaussian, Inc.
  
 This software is provided under written license and may be
 used, copied, transmitted, or stored only in accord with that
 written license.
  
 The following legend is applicable only to US Government
 contracts under FAR:
  
                    RESTRICTED RIGHTS LEGEND
  
 Use, reproduction and disclosure by the US Government is
 subject to restrictions as set forth in subparagraphs (a)
 and (c) of the Commercial Computer Software - Restricted
 Rights clause in FAR 52.227-19.
  
 Gaussian, Inc.
 340 Quinnipiac St., Bldg. 40, Wallingford CT 06492
  
  
 ---------------------------------------------------------------
 Warning -- This program may not be used in any manner that
 competes with the business of Gaussian, Inc. or will provide
 assistance to any competitor of Gaussian, Inc.  The licensee
 of this program is prohibited from giving any competitor of
 Gaussian, Inc. access to this program.  By using this program,
 the user acknowledges that Gaussian, Inc. is engaged in the
 business of creating and licensing software in the field of
 computational chemistry and represents and warrants to the
 licensee that it is not a competitor of Gaussian, Inc. and that
 it will not use this program in any manner prohibited above.
 ---------------------------------------------------------------
  

 Cite this work as:
 Gaussian 16, Revision B.01,
 M. J. Frisch, G. W. Trucks, H. B. Schlegel, G. E. Scuseria, 
 M. A. Robb, J. R. Cheeseman, G. Scalmani, V. Barone, 
 G. A. Petersson, H. Nakatsuji, X. Li, M. Caricato, A. V. Marenich, 
 J. Bloino, B. G. Janesko, R. Gomperts, B. Mennucci, H. P. Hratchian, 
 J. V. Ortiz, A. F. Izmaylov, J. L. Sonnenberg, D. Williams-Young, 
 F. Ding, F. Lipparini, F. Egidi, J. Goings, B. Peng, A. Petrone, 
 T. Henderson, D. Ranasinghe, V. G. Zakrzewski, J. Gao, N. Rega, 
 G. Zheng, W. Liang, M. Hada, M. Ehara, K. Toyota, R. Fukuda, 
 J. Hasegawa, M. Ishida, T. Nakajima, Y. Honda, O. Kitao, H. Nakai, 
 T. Vreven, K. Throssell, J. A. Montgomery, Jr., J. E. Peralta, 
 F. Ogliaro, M. J. Bearpark, J. J. Heyd, E. N. Brothers, K. N. Kudin, 
 V. N. Staroverov, T. A. Keith, R. Kobayashi, J. Normand, 
 K. Raghavachari, A. P. Rendell, J. C. Burant, S. S. Iyengar, 
 J. Tomasi, M. Cossi, J. M. Millam, M. Klene, C. Adamo, R. Cammi, 
 J. W. Ochterski, R. L. Martin, K. Morokuma, O. Farkas, 
 J. B. Foresman, and D. J. Fox, Gaussian, Inc., Wallingford CT, 2016.
 
 ******************************************
 Gaussian 16:  ES64L-G16RevB.01 20-Dec-2017
                22-Nov-2022 
 ******************************************
 %nprocshared=32
 Will use up to   32 processors via shared memory.
 %mem=120GB
 %chk=_conf017.chk
 ----------------------------------------
 #P wB97XD/6-311++G(d,p) scf=maxcycle=512
 ----------------------------------------
 1/38=1,172=1/1;
 2/12=2,17=6,18=5,40=1/2;
 3/5=4,6=6,7=1111,11=2,25=1,30=1,74=-58/1,2,3;
 4//1;
 5/5=2,7=512,38=5/2;
 6/7=2,8=2,9=2,10=2,28=1/1;
 99/5=1,9=1/99;
 Leave Link    1 at Tue Nov 22 15:00:51 2022, MaxMem= 16106127360 cpu:               2.0 elap:               0.1
 (Enter /opt/ap/G16/B01/g16/l101.exe)
 ----------------------------
 _conf017.gjf nmol_natom 1_24
 ----------------------------
 Symbolic Z-matrix:
 Charge =  0 Multiplicity = 1
 C
 C                    1     1.39746 
 C                    1     1.39996  2     119.28067 
 C                    2     1.39288  1     120.37437  3    -0.51003  0
 H                    2     0.95015  1     119.82324  3     179.45635  0
 C                    1     1.49653  2     122.77761  4     174.46829  0
 C                    3     1.38701  1     120.10018  2    -0.37316  0
 H                    3     0.95011  1     119.95246  2     179.59239  0
 C                    7     1.3872   3     120.16569  1     1.07451  0
 H                    4     0.95012  2     120.18756  1    -179.31195  0
 C                    6     1.49517  1     120.70973  2    -5.       0
 O                    6     1.2215   1     119.67074  2     175.     0
 H                    7     0.94957  3     119.91275  1    -178.88636  0
 H                    9     0.94992  7     119.76038  3     179.10764  0
 C                    11    1.39714  6     122.62586  1     30.97749  0
 C                    11    1.4004   6     117.74754  1    -153.15468  0
 C                    15    1.39456  11    119.80747  6     175.4763  0
 H                    15    0.94963  11    120.10536  6    -4.50802  0
 C                    16    1.38466  11    120.46174  6    -176.88197  0
 H                    16    0.94975  11    119.75779  6     3.147    0
 C                    17    1.39089  15    120.34753  11    0.79736  0
 H                    17    0.94984  15    119.81565  11   -179.16676  0
 H                    19    0.94975  16    119.98566  11   -178.40987  0
 H                    21    0.94939  17    120.07445  15    179.91636  0
 
 ITRead=  0  0  0  0  0  0  0  0  0  0  0  0  0  0  0  0  0  0  0  0
 ITRead=  0  0  0  0
 MicOpt= -1 -1 -1 -1 -1 -1 -1 -1 -1 -1 -1 -1 -1 -1 -1 -1 -1 -1 -1 -1
 MicOpt= -1 -1 -1 -1
 NAtoms=     24 NQM=       24 NQMF=       0 NMMI=      0 NMMIF=      0
                NMic=       0 NMicF=      0.
                    Isotopes and Nuclear Properties:
 (Nuclear quadrupole moments (NQMom) in fm**2, nuclear magnetic moments (NMagM)
  in nuclear magnetons)

  Atom         1           2           3           4           5           6           7           8           9          10
 IAtWgt=          12          12          12          12           1          12          12           1          12           1
 AtmWgt=  12.0000000  12.0000000  12.0000000  12.0000000   1.0078250  12.0000000  12.0000000   1.0078250  12.0000000   1.0078250
 NucSpn=           0           0           0           0           1           0           0           1           0           1
 AtZEff=  -0.0000000  -0.0000000  -0.0000000  -0.0000000  -0.0000000  -0.0000000  -0.0000000  -0.0000000  -0.0000000  -0.0000000
 NQMom=    0.0000000   0.0000000   0.0000000   0.0000000   0.0000000   0.0000000   0.0000000   0.0000000   0.0000000   0.0000000
 NMagM=    0.0000000   0.0000000   0.0000000   0.0000000   2.7928460   0.0000000   0.0000000   2.7928460   0.0000000   2.7928460
 AtZNuc=   6.0000000   6.0000000   6.0000000   6.0000000   1.0000000   6.0000000   6.0000000   1.0000000   6.0000000   1.0000000

  Atom        11          12          13          14          15          16          17          18          19          20
 IAtWgt=          12          16           1           1          12          12          12           1          12           1
 AtmWgt=  12.0000000  15.9949146   1.0078250   1.0078250  12.0000000  12.0000000  12.0000000   1.0078250  12.0000000   1.0078250
 NucSpn=           0           0           1           1           0           0           0           1           0           1
 AtZEff=  -0.0000000  -0.0000000  -0.0000000  -0.0000000  -0.0000000  -0.0000000  -0.0000000  -0.0000000  -0.0000000  -0.0000000
 NQMom=    0.0000000   0.0000000   0.0000000   0.0000000   0.0000000   0.0000000   0.0000000   0.0000000   0.0000000   0.0000000
 NMagM=    0.0000000   0.0000000   2.7928460   2.7928460   0.0000000   0.0000000   0.0000000   2.7928460   0.0000000   2.7928460
 AtZNuc=   6.0000000   8.0000000   1.0000000   1.0000000   6.0000000   6.0000000   6.0000000   1.0000000   6.0000000   1.0000000

  Atom        21          22          23          24
 IAtWgt=          12           1           1           1
 AtmWgt=  12.0000000   1.0078250   1.0078250   1.0078250
 NucSpn=           0           1           1           1
 AtZEff=  -0.0000000  -0.0000000  -0.0000000  -0.0000000
 NQMom=    0.0000000   0.0000000   0.0000000   0.0000000
 NMagM=    0.0000000   2.7928460   2.7928460   2.7928460
 AtZNuc=   6.0000000   1.0000000   1.0000000   1.0000000
 Leave Link  101 at Tue Nov 22 15:00:51 2022, MaxMem= 16106127360 cpu:               5.4 elap:               0.2
 (Enter /opt/ap/G16/B01/g16/l202.exe)
                          Input orientation:                          
 ---------------------------------------------------------------------
 Center     Atomic      Atomic             Coordinates (Angstroms)
 Number     Number       Type             X           Y           Z
 ---------------------------------------------------------------------
      1          6           0        0.000000    0.000000    0.000000
      2          6           0        0.000000    0.000000    1.397463
      3          6           0        1.221096    0.000000   -0.684705
      4          6           0        1.201650   -0.010697    2.101772
      5          1           0       -0.824276    0.007821    1.869996
      6          6           0       -1.253421   -0.110138   -0.810191
      7          6           0        2.414707    0.007815    0.021719
      8          1           0        1.232246   -0.005856   -1.634731
      9          6           0        2.403895   -0.006831    1.408800
     10          1           0        1.198494   -0.020531    3.051836
     11          6           0       -2.573771   -0.338627   -0.146867
     12          8           0       -1.197746   -0.012387   -2.026501
     13          1           0        3.241298    0.023792   -0.445367
     14          1           0        3.224827   -0.014217    1.886678
     15          6           0       -2.866638    0.139560    1.132806
     16          6           0       -3.571613   -0.985637   -0.886324
     17          6           0       -4.147969   -0.025242    1.657992
     18          1           0       -2.195284    0.575753    1.643506
     19          6           0       -4.835192   -1.168692   -0.350457
     20          1           0       -3.380022   -1.301387   -1.761317
     21          6           0       -5.130883   -0.677632    0.921215
     22          1           0       -4.350501    0.310301    2.523205
     23          1           0       -5.500182   -1.628331   -0.848995
     24          1           0       -6.001572   -0.788725    1.283004
 ---------------------------------------------------------------------
                    Distance matrix (angstroms):
                    1          2          3          4          5
     1  C    0.000000
     2  C    1.397463   0.000000
     3  C    1.399963   2.413814   0.000000
     4  C    2.421058   1.392885   2.786566   0.000000
     5  H    2.043619   0.950147   3.272630   2.039225   0.000000
     6  C    1.496530   2.541049   2.480142   3.810091   2.716889
     7  C    2.414817   2.779127   1.387013   2.408002   3.729228
     8  H    2.047146   3.273021   0.950109   3.736632   4.063567
     9  C    2.786301   2.403931   2.404542   1.387667   3.260982
    10  H    3.278797   2.042977   3.736665   0.950119   2.342893
    11  C    2.600103   3.020583   3.847720   4.406554   2.692303
    12  O    2.354029   3.627434   2.766110   4.774908   3.914406
    13  H    3.271839   3.728619   2.034469   3.263323   4.678681
    14  H    3.736210   3.261755   3.259932   2.034583   4.049198
    15  C    3.085505   2.882210   4.475756   4.184786   2.175326
    16  C    3.809655   4.352423   4.897161   5.715179   4.016481
    17  C    4.467127   4.156219   5.857962   5.368014   3.330611
    18  H    2.802120   2.282827   4.174172   3.477512   1.501169
    19  C    4.986757   5.272585   6.177069   6.617994   4.733080
    20  H    4.027455   4.805835   4.901325   6.130339   4.629503
    21  C    5.256784   5.197303   6.586789   6.476070   4.462835
    22  H    5.038821   4.504491   6.436588   5.577367   3.598950
    23  H    5.798643   6.160361   6.917661   7.499221   5.651018
    24  H    6.187654   6.054260   7.527343   7.291235   5.271000
                    6          7          8          9         10
     6  C    0.000000
     7  C    3.763130   0.000000
     8  H    2.620930   2.035246   0.000000
     9  C    4.279082   1.387200   3.261263   0.000000
    10  H    4.575496   3.265208   4.686711   2.037829   0.000000
    11  C    1.495169   5.003334   4.100029   5.225642   4.956094
    12  O    1.221501   4.152761   2.461379   4.977262   5.615295
    13  H    4.511488   0.949567   2.334899   2.034727   4.050363
    14  H    5.228480   2.033434   4.046081   0.949923   2.337447
    15  C    2.537727   5.398562   4.947853   5.279783   4.498177
    16  C    2.479176   6.135757   4.959551   6.475519   6.260547
    17  C    3.804937   6.763667   6.307861   6.556626   5.525168
    18  H    2.716281   4.919834   4.778396   4.641868   3.722456
    19  C    3.763108   7.354164   6.309941   7.539846   7.021341
    20  H    2.616515   6.202589   4.792436   6.721548   6.765341
    21  C    4.284219   7.629866   6.890105   7.580276   6.710613
    22  H    4.569487   7.219209   6.968174   6.853053   5.583928
    23  H    4.510144   8.128997   6.969605   8.378623   7.916676
    24  H    5.233249   8.547460   7.839272   8.442692   7.453847
                   11         12         13         14         15
    11  C    0.000000
    12  O    2.352211   0.000000
    13  H    5.833993   4.712367   0.000000
    14  H    6.153396   5.905263   2.332413   0.000000
    15  C    1.397140   3.576242   6.309589   6.139863   0.000000
    16  C    1.400396   2.807573   6.901387   7.404377   2.416598
    17  C    2.415332   4.720113   7.682954   7.376350   1.394557
    18  H    2.045674   3.848369   5.850169   5.457546   0.949629
    19  C    2.417537   4.168594   8.164602   8.444022   2.790484
    20  H    2.045335   2.548367   6.879659   7.654326   3.273506
    21  C    2.791872   4.959954   8.511930   8.437424   2.416481
    22  H    3.272181   5.544711   8.156588   7.608947   2.040640
    23  H    3.274172   4.744339   8.905386   9.285207   3.740125
    24  H    3.741249   5.884919   9.438119   9.278509   3.272933
                   16         17         18         19         20
    16  C    0.000000
    17  C    2.779944   0.000000
    18  H    3.276013   2.043131   0.000000
    19  C    1.384664   2.411145   3.740066   0.000000
    20  H    0.949746   3.729607   4.064490   2.031171   0.000000
    21  C    2.406945   1.390889   3.272678   1.394891   3.263520
    22  H    3.729747   0.949843   2.342925   3.268069   4.679370
    23  H    2.033181   3.268541   4.689659   0.949747   2.331159
    24  H    3.263351   2.039453   4.059507   2.042795   4.050092
                   21         22         23         24
    21  C    0.000000
    22  H    2.037493   0.000000
    23  H    2.043001   4.056081   0.000000
    24  H    0.949386   2.339229   2.345581   0.000000
 Stoichiometry    C13H10O
 Framework group  C1[X(C13H10O)]
 Deg. of freedom    66
 Full point group                 C1      NOp   1
 Largest Abelian subgroup         C1      NOp   1
 Largest concise Abelian subgroup C1      NOp   1
                         Standard orientation:                         
 ---------------------------------------------------------------------
 Center     Atomic      Atomic             Coordinates (Angstroms)
 Number     Number       Type             X           Y           Z
 ---------------------------------------------------------------------
      1          6           0       -1.310221    0.333319   -0.118182
      2          6           0       -1.387104   -1.056136    0.009911
      3          6           0       -2.484742    1.092651   -0.056458
      4          6           0       -2.617592   -1.678196    0.207568
      5          1           0       -0.595674   -1.579653   -0.038554
      6          6           0       -0.009554    1.067641   -0.211128
      7          6           0       -3.709353    0.466391    0.122236
      8          1           0       -2.442916    2.038449   -0.136601
      9          6           0       -3.773360   -0.912186    0.262783
     10          1           0       -2.665674   -2.622178    0.304072
     11          6           0        1.289182    0.342692   -0.058599
     12          8           0       -0.008390    2.272215   -0.413769
     13          1           0       -4.505932    0.982609    0.147863
     14          1           0       -4.613805   -1.333886    0.397593
     15          6           0        1.458222   -0.989318   -0.444831
     16          6           0        2.389827    1.068966    0.412797
     17          6           0        2.718992   -1.579848   -0.364072
     18          1           0        0.716882   -1.491148   -0.761653
     19          6           0        3.634345    0.470516    0.514425
     20          1           0        2.281639    1.978230    0.664894
     21          6           0        3.805246   -0.854818    0.114421
     22          1           0        2.836457   -2.481782   -0.637787
     23          1           0        4.371213    0.962666    0.856235
     24          1           0        4.661598   -1.261058    0.168864
 ---------------------------------------------------------------------
 Rotational constants (GHZ):           1.7546208           0.4217575           0.3479124
 Leave Link  202 at Tue Nov 22 15:00:52 2022, MaxMem= 16106127360 cpu:               0.2 elap:               0.0
 (Enter /opt/ap/G16/B01/g16/l301.exe)
 Standard basis: 6-311++G(d,p) (5D, 7F)
 Ernie: Thresh=  0.10000D-02 Tol=  0.10000D-05 Strict=F.
 There are   392 symmetry adapted cartesian basis functions of A   symmetry.
 There are   378 symmetry adapted basis functions of A   symmetry.
   378 basis functions,   594 primitive gaussians,   392 cartesian basis functions
    48 alpha electrons       48 beta electrons
       nuclear repulsion energy       785.4278845230 Hartrees.
 IExCor= 4639 DFT=T Ex+Corr=wB97XD ExCW=0 ScaHFX=  1.000000
 ScaDFX=  1.000000  1.000000  1.000000  1.000000 ScalE2=  1.000000  1.000000
 IRadAn=      5 IRanWt=     -1 IRanGd=            0 ICorTp=0 IEmpDi=121
 HFx  wShort=  0.000000 wLong=  0.200000 cFull=  0.222036 cShort=  0.000000 cLong=  0.777964
 DFx  wShort=  0.000000 wLong=  0.200000 cFull=  0.000000 cShort=  0.000000 cLong=  1.000000
 NAtoms=   24 NActive=   24 NUniq=   24 SFac= 1.00D+00 NAtFMM=   60 NAOKFM=F Big=F
 Integral buffers will be    131072 words long.
 Raffenetti 2 integral format.
 Two-electron integral symmetry is turned on.
 R6Disp:  Grimme-D2 Dispersion energy=       -0.0137799169 Hartrees.
 Nuclear repulsion after empirical dispersion term =      785.4141046061 Hartrees.
 Leave Link  301 at Tue Nov 22 15:00:52 2022, MaxMem= 16106127360 cpu:               1.2 elap:               0.0
 (Enter /opt/ap/G16/B01/g16/l302.exe)
 NPDir=0 NMtPBC=     1 NCelOv=     1 NCel=       1 NClECP=     1 NCelD=      1
         NCelK=      1 NCelE2=     1 NClLst=     1 CellRange=     0.0.
 One-electron integrals computed using PRISM.
 One-electron integral symmetry used in STVInt
 NBasis=   378 RedAO= T EigKep=  1.07D-06  NBF=   378
 NBsUse=   376 1.00D-06 EigRej=  6.75D-07 NBFU=   376
 Precomputing XC quadrature grid using
 IXCGrd= 4 IRadAn=           5 IRanWt=          -1 IRanGd=           0 AccXCQ= 0.00D+00.
 Generated NRdTot=       0 NPtTot=           0 NUsed=           0 NTot=          32
 NSgBfM=   392   392   392   392   392 MxSgAt=    24 MxSgA2=    24.
 Leave Link  302 at Tue Nov 22 15:00:52 2022, MaxMem= 16106127360 cpu:               8.3 elap:               0.3
 (Enter /opt/ap/G16/B01/g16/l303.exe)
 DipDrv:  MaxL=1.
 Leave Link  303 at Tue Nov 22 15:00:52 2022, MaxMem= 16106127360 cpu:               1.6 elap:               0.1
 (Enter /opt/ap/G16/B01/g16/l401.exe)
 ExpMin= 3.60D-02 ExpMax= 8.59D+03 ExpMxC= 1.30D+03 IAcc=3 IRadAn=         5 AccDes= 0.00D+00
 Harris functional with IExCor= 4639 and IRadAn=       5 diagonalized for initial guess.
 HarFok:  IExCor= 4639 AccDes= 0.00D+00 IRadAn=         5 IDoV= 1 UseB2=F ITyADJ=14
 ICtDFT=  3500011 ScaDFX=  1.000000  1.000000  1.000000  1.000000
 FoFCou: FMM=F IPFlag=           0 FMFlag=      100000 FMFlg1=           0
         NFxFlg=           0 DoJE=T BraDBF=F KetDBF=T FulRan=T
         wScrn=  0.000000 ICntrl=       500 IOpCl=  0 I1Cent=   200000004 NGrid=           0
         NMat0=    1 NMatS0=      1 NMatT0=    0 NMatD0=    1 NMtDS0=    0 NMtDT0=    0
 Petite list used in FoFCou.
 Harris En= -550.889459759816    
 JPrj=0 DoOrth=F DoCkMO=F.
 Leave Link  401 at Tue Nov 22 15:00:53 2022, MaxMem= 16106127360 cpu:              24.0 elap:               0.8
 (Enter /opt/ap/G16/B01/g16/l502.exe)
 Integral symmetry usage will be decided dynamically.
 Closed shell SCF:
 Using DIIS extrapolation, IDIIS=  1040.
 NGot= 16106127360 LenX= 16105803762 LenY= 16105649657
 Requested convergence on RMS density matrix=1.00D-08 within 512 cycles.
 Requested convergence on MAX density matrix=1.00D-06.
 Requested convergence on             energy=1.00D-06.
 No special actions if energy rises.
 Fock matrices will be formed incrementally for  20 cycles.

 Cycle   1  Pass 1  IDiag  1:
 FoFJK:  IHMeth= 1 ICntrl=       0 DoSepK=T KAlg= 0 I1Cent=           0 FoldK=F
 IRaf=         1 NMat=       1 IRICut=       1 DoRegI=T DoRafI=F ISym2E= 0 IDoP0=0 IntGTp=1.
 FoFCou: FMM=F IPFlag=           0 FMFlag=      100000 FMFlg1=           0
         NFxFlg=           0 DoJE=T BraDBF=F KetDBF=F FulRan=T
         wScrn=  0.000000 ICntrl=       500 IOpCl=  0 I1Cent=           0 NGrid=           0
         NMat0=    1 NMatS0=      1 NMatT0=    0 NMatD0=    1 NMtDS0=    0 NMtDT0=    0
 Symmetry not used in FoFCou.
 E= -576.254111998637    
 DIIS: error= 5.52D-02 at cycle   1 NSaved=   1.
 NSaved= 1 IEnMin= 1 EnMin= -576.254111998637     IErMin= 1 ErrMin= 5.52D-02
 ErrMax= 5.52D-02  0.00D+00 EMaxC= 1.00D-01 BMatC= 1.19D+00 BMatP= 1.19D+00
 IDIUse=3 WtCom= 4.48D-01 WtEn= 5.52D-01
 Coeff-Com:  0.100D+01
 Coeff-En:   0.100D+01
 Coeff:      0.100D+01
 Gap=     0.401 Goal=   None    Shift=    0.000
 GapD=    0.401 DampG=2.000 DampE=0.500 DampFc=1.0000 IDamp=-1.
 RMSDP=4.60D-02 MaxDP=5.37D+00              OVMax= 1.34D-01

 Cycle   2  Pass 1  IDiag  1:
 RMSU=  1.94D-02    CP:  6.15D-01
 E= -576.343032986718     Delta-E=       -0.088920988081 Rises=F Damp=F
 DIIS: error= 1.87D-02 at cycle   2 NSaved=   2.
 NSaved= 2 IEnMin= 2 EnMin= -576.343032986718     IErMin= 2 ErrMin= 1.87D-02
 ErrMax= 1.87D-02  0.00D+00 EMaxC= 1.00D-01 BMatC= 7.45D-02 BMatP= 1.19D+00
 IDIUse=3 WtCom= 8.13D-01 WtEn= 1.87D-01
 Coeff-Com:  0.125D+00 0.875D+00
 Coeff-En:   0.140D+00 0.860D+00
 Coeff:      0.128D+00 0.872D+00
 Gap=     0.413 Goal=   None    Shift=    0.000
 RMSDP=1.40D-02 MaxDP=9.86D-01 DE=-8.89D-02 OVMax= 1.65D-01

 Cycle   3  Pass 1  IDiag  1:
 RMSU=  9.94D-03    CP:  6.43D-01  5.17D-01
 E= -576.358349238787     Delta-E=       -0.015316252069 Rises=F Damp=F
 DIIS: error= 2.04D-02 at cycle   3 NSaved=   3.
 NSaved= 3 IEnMin= 3 EnMin= -576.358349238787     IErMin= 2 ErrMin= 1.87D-02
 ErrMax= 2.04D-02  0.00D+00 EMaxC= 1.00D-01 BMatC= 5.59D-02 BMatP= 7.45D-02
 IDIUse=3 WtCom= 7.96D-01 WtEn= 2.04D-01
 Coeff-Com:  0.240D-01 0.467D+00 0.509D+00
 Coeff-En:   0.000D+00 0.436D+00 0.564D+00
 Coeff:      0.191D-01 0.461D+00 0.520D+00
 Gap=     0.344 Goal=   None    Shift=    0.000
 RMSDP=9.73D-03 MaxDP=9.10D-01 DE=-1.53D-02 OVMax= 6.04D-02

 Cycle   4  Pass 1  IDiag  1:
 RMSU=  3.04D-03    CP:  5.80D-01  7.02D-01  4.93D-01
 E= -576.407294426345     Delta-E=       -0.048945187558 Rises=F Damp=F
 DIIS: error= 2.03D-03 at cycle   4 NSaved=   4.
 NSaved= 4 IEnMin= 4 EnMin= -576.407294426345     IErMin= 4 ErrMin= 2.03D-03
 ErrMax= 2.03D-03  0.00D+00 EMaxC= 1.00D-01 BMatC= 1.02D-03 BMatP= 5.59D-02
 IDIUse=3 WtCom= 9.80D-01 WtEn= 2.03D-02
 Coeff-Com:  0.970D-02 0.202D+00 0.248D+00 0.540D+00
 Coeff-En:   0.000D+00 0.000D+00 0.000D+00 0.100D+01
 Coeff:      0.950D-02 0.198D+00 0.243D+00 0.550D+00
 Gap=     0.320 Goal=   None    Shift=    0.000
 RMSDP=6.82D-04 MaxDP=7.26D-02 DE=-4.89D-02 OVMax= 6.86D-03

 Cycle   5  Pass 1  IDiag  1:
 RMSU=  5.38D-04    CP:  5.80D-01  7.22D-01  5.08D-01  9.68D-01
 E= -576.407994148729     Delta-E=       -0.000699722385 Rises=F Damp=F
 DIIS: error= 5.35D-04 at cycle   5 NSaved=   5.
 NSaved= 5 IEnMin= 5 EnMin= -576.407994148729     IErMin= 5 ErrMin= 5.35D-04
 ErrMax= 5.35D-04  0.00D+00 EMaxC= 1.00D-01 BMatC= 8.28D-05 BMatP= 1.02D-03
 IDIUse=3 WtCom= 9.95D-01 WtEn= 5.35D-03
 Coeff-Com: -0.610D-03-0.879D-02 0.516D-03 0.211D+00 0.798D+00
 Coeff-En:   0.000D+00 0.000D+00 0.000D+00 0.000D+00 0.100D+01
 Coeff:     -0.607D-03-0.875D-02 0.513D-03 0.209D+00 0.799D+00
 Gap=     0.321 Goal=   None    Shift=    0.000
 RMSDP=5.87D-04 MaxDP=5.37D-02 DE=-7.00D-04 OVMax= 2.56D-03

 Cycle   6  Pass 1  IDiag  1:
 RMSU=  2.96D-04    CP:  5.76D-01  7.22D-01  5.20D-01  1.01D+00  5.61D-01
 E= -576.408058876450     Delta-E=       -0.000064727721 Rises=F Damp=F
 DIIS: error= 3.14D-04 at cycle   6 NSaved=   6.
 NSaved= 6 IEnMin= 6 EnMin= -576.408058876450     IErMin= 6 ErrMin= 3.14D-04
 ErrMax= 3.14D-04  0.00D+00 EMaxC= 1.00D-01 BMatC= 1.86D-05 BMatP= 8.28D-05
 IDIUse=3 WtCom= 9.97D-01 WtEn= 3.14D-03
 Coeff-Com: -0.123D-02-0.232D-01-0.220D-01 0.610D-01 0.431D+00 0.555D+00
 Coeff-En:   0.000D+00 0.000D+00 0.000D+00 0.000D+00 0.000D+00 0.100D+01
 Coeff:     -0.123D-02-0.231D-01-0.219D-01 0.608D-01 0.429D+00 0.556D+00
 Gap=     0.321 Goal=   None    Shift=    0.000
 RMSDP=1.22D-04 MaxDP=9.53D-03 DE=-6.47D-05 OVMax= 1.25D-03

 Cycle   7  Pass 1  IDiag  1:
 RMSU=  8.83D-05    CP:  5.76D-01  7.25D-01  5.17D-01  1.02D+00  5.99D-01
                    CP:  9.72D-01
 E= -576.408078189685     Delta-E=       -0.000019313235 Rises=F Damp=F
 DIIS: error= 4.00D-05 at cycle   7 NSaved=   7.
 NSaved= 7 IEnMin= 7 EnMin= -576.408078189685     IErMin= 7 ErrMin= 4.00D-05
 ErrMax= 4.00D-05  0.00D+00 EMaxC= 1.00D-01 BMatC= 4.62D-07 BMatP= 1.86D-05
 IDIUse=1 WtCom= 1.00D+00 WtEn= 0.00D+00
 Coeff-Com: -0.220D-03-0.423D-02-0.504D-02-0.107D-01-0.105D-01 0.103D+00
 Coeff-Com:  0.927D+00
 Coeff:     -0.220D-03-0.423D-02-0.504D-02-0.107D-01-0.105D-01 0.103D+00
 Coeff:      0.927D+00
 Gap=     0.321 Goal=   None    Shift=    0.000
 RMSDP=5.47D-05 MaxDP=4.77D-03 DE=-1.93D-05 OVMax= 4.40D-04

 Cycle   8  Pass 1  IDiag  1:
 RMSU=  2.33D-05    CP:  5.76D-01  7.25D-01  5.18D-01  1.03D+00  5.79D-01
                    CP:  1.09D+00  1.06D+00
 E= -576.408079323334     Delta-E=       -0.000001133649 Rises=F Damp=F
 DIIS: error= 1.56D-05 at cycle   8 NSaved=   8.
 NSaved= 8 IEnMin= 8 EnMin= -576.408079323334     IErMin= 8 ErrMin= 1.56D-05
 ErrMax= 1.56D-05  0.00D+00 EMaxC= 1.00D-01 BMatC= 7.93D-08 BMatP= 4.62D-07
 IDIUse=1 WtCom= 1.00D+00 WtEn= 0.00D+00
 Coeff-Com:  0.420D-04 0.568D-03 0.258D-04-0.116D-01-0.533D-01-0.214D-01
 Coeff-Com:  0.322D+00 0.764D+00
 Coeff:      0.420D-04 0.568D-03 0.258D-04-0.116D-01-0.533D-01-0.214D-01
 Coeff:      0.322D+00 0.764D+00
 Gap=     0.321 Goal=   None    Shift=    0.000
 RMSDP=1.51D-05 MaxDP=1.06D-03 DE=-1.13D-06 OVMax= 1.49D-04

 Cycle   9  Pass 1  IDiag  1:
 RMSU=  5.43D-06    CP:  5.76D-01  7.26D-01  5.18D-01  1.03D+00  5.71D-01
                    CP:  1.12D+00  1.10D+00  1.18D+00
 E= -576.408079467545     Delta-E=       -0.000000144211 Rises=F Damp=F
 DIIS: error= 3.30D-06 at cycle   9 NSaved=   9.
 NSaved= 9 IEnMin= 9 EnMin= -576.408079467545     IErMin= 9 ErrMin= 3.30D-06
 ErrMax= 3.30D-06  0.00D+00 EMaxC= 1.00D-01 BMatC= 5.31D-09 BMatP= 7.93D-08
 IDIUse=1 WtCom= 1.00D+00 WtEn= 0.00D+00
 Coeff-Com:  0.375D-04 0.657D-03 0.632D-03-0.882D-03-0.929D-02-0.162D-01
 Coeff-Com: -0.521D-01 0.152D+00 0.925D+00
 Coeff:      0.375D-04 0.657D-03 0.632D-03-0.882D-03-0.929D-02-0.162D-01
 Coeff:     -0.521D-01 0.152D+00 0.925D+00
 Gap=     0.321 Goal=   None    Shift=    0.000
 RMSDP=6.87D-06 MaxDP=4.73D-04 DE=-1.44D-07 OVMax= 5.90D-05

 Cycle  10  Pass 1  IDiag  1:
 RMSU=  3.15D-06    CP:  5.76D-01  7.26D-01  5.18D-01  1.03D+00  5.67D-01
                    CP:  1.13D+00  1.11D+00  1.30D+00  1.46D+00
 E= -576.408079482372     Delta-E=       -0.000000014827 Rises=F Damp=F
 DIIS: error= 1.18D-06 at cycle  10 NSaved=  10.
 NSaved=10 IEnMin=10 EnMin= -576.408079482372     IErMin=10 ErrMin= 1.18D-06
 ErrMax= 1.18D-06  0.00D+00 EMaxC= 1.00D-01 BMatC= 3.97D-10 BMatP= 5.31D-09
 IDIUse=1 WtCom= 1.00D+00 WtEn= 0.00D+00
 Coeff-Com: -0.208D-05-0.276D-05 0.323D-04 0.110D-02 0.394D-02 0.150D-02
 Coeff-Com: -0.245D-01-0.600D-01 0.548D-01 0.102D+01
 Coeff:     -0.208D-05-0.276D-05 0.323D-04 0.110D-02 0.394D-02 0.150D-02
 Coeff:     -0.245D-01-0.600D-01 0.548D-01 0.102D+01
 Gap=     0.321 Goal=   None    Shift=    0.000
 RMSDP=1.85D-06 MaxDP=8.84D-05 DE=-1.48D-08 OVMax= 2.04D-05

 Cycle  11  Pass 1  IDiag  1:
 RMSU=  9.83D-07    CP:  5.76D-01  7.26D-01  5.18D-01  1.03D+00  5.67D-01
                    CP:  1.13D+00  1.10D+00  1.33D+00  1.56D+00  1.19D+00
 E= -576.408079483806     Delta-E=       -0.000000001435 Rises=F Damp=F
 DIIS: error= 4.34D-07 at cycle  11 NSaved=  11.
 NSaved=11 IEnMin=11 EnMin= -576.408079483806     IErMin=11 ErrMin= 4.34D-07
 ErrMax= 4.34D-07  0.00D+00 EMaxC= 1.00D-01 BMatC= 7.69D-11 BMatP= 3.97D-10
 IDIUse=1 WtCom= 1.00D+00 WtEn= 0.00D+00
 Coeff-Com: -0.280D-05-0.409D-04-0.306D-04 0.418D-03 0.167D-02 0.137D-02
 Coeff-Com: -0.381D-02-0.299D-01-0.543D-01 0.281D+00 0.803D+00
 Coeff:     -0.280D-05-0.409D-04-0.306D-04 0.418D-03 0.167D-02 0.137D-02
 Coeff:     -0.381D-02-0.299D-01-0.543D-01 0.281D+00 0.803D+00
 Gap=     0.321 Goal=   None    Shift=    0.000
 RMSDP=4.94D-07 MaxDP=3.42D-05 DE=-1.43D-09 OVMax= 8.13D-06

 Cycle  12  Pass 1  IDiag  1:
 RMSU=  2.59D-07    CP:  5.76D-01  7.26D-01  5.18D-01  1.03D+00  5.67D-01
                    CP:  1.13D+00  1.10D+00  1.33D+00  1.60D+00  1.24D+00
                    CP:  1.19D+00
 E= -576.408079484034     Delta-E=       -0.000000000227 Rises=F Damp=F
 DIIS: error= 2.63D-07 at cycle  12 NSaved=  12.
 NSaved=12 IEnMin=12 EnMin= -576.408079484034     IErMin=12 ErrMin= 2.63D-07
 ErrMax= 2.63D-07  0.00D+00 EMaxC= 1.00D-01 BMatC= 1.06D-11 BMatP= 7.69D-11
 IDIUse=1 WtCom= 1.00D+00 WtEn= 0.00D+00
 Coeff-Com:  0.164D-06-0.441D-05-0.108D-04-0.172D-03-0.698D-03-0.211D-03
 Coeff-Com:  0.530D-02 0.102D-01-0.168D-01-0.180D+00 0.917D-01 0.109D+01
 Coeff:      0.164D-06-0.441D-05-0.108D-04-0.172D-03-0.698D-03-0.211D-03
 Coeff:      0.530D-02 0.102D-01-0.168D-01-0.180D+00 0.917D-01 0.109D+01
 Gap=     0.321 Goal=   None    Shift=    0.000
 RMSDP=3.48D-07 MaxDP=1.82D-05 DE=-2.27D-10 OVMax= 6.38D-06

 Cycle  13  Pass 1  IDiag  1:
 RMSU=  1.22D-07    CP:  5.76D-01  7.26D-01  5.18D-01  1.03D+00  5.67D-01
                    CP:  1.12D+00  1.10D+00  1.32D+00  1.60D+00  1.27D+00
                    CP:  1.33D+00  1.30D+00
 E= -576.408079484103     Delta-E=       -0.000000000070 Rises=F Damp=F
 DIIS: error= 1.03D-07 at cycle  13 NSaved=  13.
 NSaved=13 IEnMin=13 EnMin= -576.408079484103     IErMin=13 ErrMin= 1.03D-07
 ErrMax= 1.03D-07  0.00D+00 EMaxC= 1.00D-01 BMatC= 1.84D-12 BMatP= 1.06D-11
 IDIUse=1 WtCom= 1.00D+00 WtEn= 0.00D+00
 Coeff-Com:  0.340D-06 0.422D-05 0.300D-05-0.859D-04-0.318D-03-0.233D-03
 Coeff-Com:  0.121D-02 0.507D-02 0.301D-02-0.646D-01-0.889D-01 0.165D+00
 Coeff-Com:  0.980D+00
 Coeff:      0.340D-06 0.422D-05 0.300D-05-0.859D-04-0.318D-03-0.233D-03
 Coeff:      0.121D-02 0.507D-02 0.301D-02-0.646D-01-0.889D-01 0.165D+00
 Coeff:      0.980D+00
 Gap=     0.321 Goal=   None    Shift=    0.000
 RMSDP=1.11D-07 MaxDP=6.80D-06 DE=-6.96D-11 OVMax= 2.63D-06

 Cycle  14  Pass 1  IDiag  1:
 RMSU=  3.51D-08    CP:  5.76D-01  7.26D-01  5.18D-01  1.03D+00  5.67D-01
                    CP:  1.12D+00  1.10D+00  1.32D+00  1.60D+00  1.28D+00
                    CP:  1.37D+00  1.32D+00  1.44D+00
 E= -576.408079484106     Delta-E=       -0.000000000003 Rises=F Damp=F
 DIIS: error= 4.07D-08 at cycle  14 NSaved=  14.
 NSaved=14 IEnMin=14 EnMin= -576.408079484106     IErMin=14 ErrMin= 4.07D-08
 ErrMax= 4.07D-08  0.00D+00 EMaxC= 1.00D-01 BMatC= 4.03D-13 BMatP= 1.84D-12
 IDIUse=1 WtCom= 1.00D+00 WtEn= 0.00D+00
 Coeff-Com:  0.234D-07 0.154D-05 0.304D-05 0.139D-04 0.831D-04 0.288D-05
 Coeff-Com: -0.796D-03-0.984D-03 0.399D-02 0.240D-01-0.297D-01-0.206D+00
 Coeff-Com:  0.217D+00 0.992D+00
 Coeff:      0.234D-07 0.154D-05 0.304D-05 0.139D-04 0.831D-04 0.288D-05
 Coeff:     -0.796D-03-0.984D-03 0.399D-02 0.240D-01-0.297D-01-0.206D+00
 Coeff:      0.217D+00 0.992D+00
 Gap=     0.321 Goal=   None    Shift=    0.000
 RMSDP=4.90D-08 MaxDP=3.48D-06 DE=-2.50D-12 OVMax= 1.09D-06

 Cycle  15  Pass 1  IDiag  1:
 RMSU=  1.59D-08    CP:  5.76D-01  7.26D-01  5.18D-01  1.03D+00  5.67D-01
                    CP:  1.12D+00  1.10D+00  1.32D+00  1.60D+00  1.28D+00
                    CP:  1.37D+00  1.35D+00  1.65D+00  1.21D+00
 E= -576.408079484110     Delta-E=       -0.000000000004 Rises=F Damp=F
 DIIS: error= 1.12D-08 at cycle  15 NSaved=  15.
 NSaved=15 IEnMin=15 EnMin= -576.408079484110     IErMin=15 ErrMin= 1.12D-08
 ErrMax= 1.12D-08  0.00D+00 EMaxC= 1.00D-01 BMatC= 7.16D-14 BMatP= 4.03D-13
 IDIUse=1 WtCom= 1.00D+00 WtEn= 0.00D+00
 Coeff-Com: -0.335D-07 0.673D-07 0.819D-06 0.164D-04 0.756D-04 0.368D-04
 Coeff-Com: -0.459D-03-0.103D-02 0.111D-02 0.178D-01 0.356D-02-0.109D+00
 Coeff-Com: -0.353D-01 0.380D+00 0.744D+00
 Coeff:     -0.335D-07 0.673D-07 0.819D-06 0.164D-04 0.756D-04 0.368D-04
 Coeff:     -0.459D-03-0.103D-02 0.111D-02 0.178D-01 0.356D-02-0.109D+00
 Coeff:     -0.353D-01 0.380D+00 0.744D+00
 Gap=     0.321 Goal=   None    Shift=    0.000
 RMSDP=1.48D-08 MaxDP=1.58D-06 DE=-4.09D-12 OVMax= 2.56D-07

 Cycle  16  Pass 1  IDiag  1:
 RMSU=  5.91D-09    CP:  5.76D-01  7.26D-01  5.18D-01  1.03D+00  5.67D-01
                    CP:  1.12D+00  1.10D+00  1.32D+00  1.60D+00  1.28D+00
                    CP:  1.37D+00  1.35D+00  1.66D+00  1.37D+00  1.20D+00
 E= -576.408079484119     Delta-E=       -0.000000000010 Rises=F Damp=F
 DIIS: error= 5.14D-09 at cycle  16 NSaved=  16.
 NSaved=16 IEnMin=16 EnMin= -576.408079484119     IErMin=16 ErrMin= 5.14D-09
 ErrMax= 5.14D-09  0.00D+00 EMaxC= 1.00D-01 BMatC= 8.35D-15 BMatP= 7.16D-14
 IDIUse=1 WtCom= 1.00D+00 WtEn= 0.00D+00
 Coeff-Com: -0.104D-07-0.242D-06-0.379D-06 0.129D-05 0.325D-05 0.106D-04
 Coeff-Com:  0.320D-04-0.670D-04-0.558D-03-0.366D-03 0.833D-02 0.585D-02
 Coeff-Com: -0.438D-01-0.917D-01 0.192D+00 0.930D+00
 Coeff:     -0.104D-07-0.242D-06-0.379D-06 0.129D-05 0.325D-05 0.106D-04
 Coeff:      0.320D-04-0.670D-04-0.558D-03-0.366D-03 0.833D-02 0.585D-02
 Coeff:     -0.438D-01-0.917D-01 0.192D+00 0.930D+00
 Gap=     0.321 Goal=   None    Shift=    0.000
 RMSDP=6.33D-09 MaxDP=3.11D-07 DE=-9.55D-12 OVMax= 1.20D-07

 SCF Done:  E(RwB97XD) =  -576.408079484     A.U. after   16 cycles
            NFock= 16  Conv=0.63D-08     -V/T= 1.9999
 KE= 5.764797996393D+02 PE=-2.913040662913D+03 EE= 9.747386791832D+02
 Leave Link  502 at Tue Nov 22 15:01:34 2022, MaxMem= 16106127360 cpu:            1313.2 elap:              41.5
 (Enter /opt/ap/G16/B01/g16/l601.exe)
 Copying SCF densities to generalized density rwf, IOpCl= 0 IROHF=0.

 **********************************************************************

            Population analysis using the SCF Density.

 **********************************************************************

 Orbital symmetries:
       Occupied  (A) (A) (A) (A) (A) (A) (A) (A) (A) (A) (A) (A)
                 (A) (A) (A) (A) (A) (A) (A) (A) (A) (A) (A) (A)
                 (A) (A) (A) (A) (A) (A) (A) (A) (A) (A) (A) (A)
                 (A) (A) (A) (A) (A) (A) (A) (A) (A) (A) (A) (A)
       Virtual   (A) (A) (A) (A) (A) (A) (A) (A) (A) (A) (A) (A)
                 (A) (A) (A) (A) (A) (A) (A) (A) (A) (A) (A) (A)
                 (A) (A) (A) (A) (A) (A) (A) (A) (A) (A) (A) (A)
                 (A) (A) (A) (A) (A) (A) (A) (A) (A) (A) (A) (A)
                 (A) (A) (A) (A) (A) (A) (A) (A) (A) (A) (A) (A)
                 (A) (A) (A) (A) (A) (A) (A) (A) (A) (A) (A) (A)
                 (A) (A) (A) (A) (A) (A) (A) (A) (A) (A) (A) (A)
                 (A) (A) (A) (A) (A) (A) (A) (A) (A) (A) (A) (A)
                 (A) (A) (A) (A) (A) (A) (A) (A) (A) (A) (A) (A)
                 (A) (A) (A) (A) (A) (A) (A) (A) (A) (A) (A) (A)
                 (A) (A) (A) (A) (A) (A) (A) (A) (A) (A) (A) (A)
                 (A) (A) (A) (A) (A) (A) (A) (A) (A) (A) (A) (A)
                 (A) (A) (A) (A) (A) (A) (A) (A) (A) (A) (A) (A)
                 (A) (A) (A) (A) (A) (A) (A) (A) (A) (A) (A) (A)
                 (A) (A) (A) (A) (A) (A) (A) (A) (A) (A) (A) (A)
                 (A) (A) (A) (A) (A) (A) (A) (A) (A) (A) (A) (A)
                 (A) (A) (A) (A) (A) (A) (A) (A) (A) (A) (A) (A)
                 (A) (A) (A) (A) (A) (A) (A) (A) (A) (A) (A) (A)
                 (A) (A) (A) (A) (A) (A) (A) (A) (A) (A) (A) (A)
                 (A) (A) (A) (A) (A) (A) (A) (A) (A) (A) (A) (A)
                 (A) (A) (A) (A) (A) (A) (A) (A) (A) (A) (A) (A)
                 (A) (A) (A) (A) (A) (A) (A) (A) (A) (A) (A) (A)
                 (A) (A) (A) (A) (A) (A) (A) (A) (A) (A) (A) (A)
                 (A) (A) (A) (A) (A) (A) (A) (A) (A) (A) (A) (A)
                 (A) (A) (A) (A) (A) (A) (A) (A) (A) (A) (A) (A)
                 (A) (A) (A) (A) (A) (A) (A) (A) (A) (A) (A) (A)
                 (A) (A) (A) (A) (A) (A) (A) (A) (A) (A) (A) (A)
                 (A) (A) (A) (A)
 The electronic state is 1-A.
 Alpha  occ. eigenvalues --  -19.23616 -10.38143 -10.30562 -10.30485 -10.28951
 Alpha  occ. eigenvalues --  -10.28808 -10.28628 -10.28582 -10.28507 -10.28443
 Alpha  occ. eigenvalues --  -10.28403 -10.28394 -10.28240 -10.28172  -1.14792
 Alpha  occ. eigenvalues --   -0.98098  -0.97403  -0.89508  -0.87481  -0.87330
 Alpha  occ. eigenvalues --   -0.86601  -0.76949  -0.74725  -0.73347  -0.72335
 Alpha  occ. eigenvalues --   -0.68162  -0.64999  -0.64194  -0.59619  -0.57374
 Alpha  occ. eigenvalues --   -0.56254  -0.55915  -0.54531  -0.53686  -0.52714
 Alpha  occ. eigenvalues --   -0.51908  -0.50445  -0.47679  -0.46785  -0.46017
 Alpha  occ. eigenvalues --   -0.45203  -0.44943  -0.43913  -0.35072  -0.34770
 Alpha  occ. eigenvalues --   -0.34109  -0.33991  -0.33480
 Alpha virt. eigenvalues --   -0.01367   0.03555   0.03834   0.04295   0.04463
 Alpha virt. eigenvalues --    0.04930   0.05075   0.05764   0.06022   0.07494
 Alpha virt. eigenvalues --    0.07642   0.08066   0.08940   0.09950   0.11546
 Alpha virt. eigenvalues --    0.11842   0.12154   0.12471   0.12996   0.14303
 Alpha virt. eigenvalues --    0.15035   0.15307   0.15988   0.16194   0.16861
 Alpha virt. eigenvalues --    0.16918   0.17206   0.17482   0.17863   0.18319
 Alpha virt. eigenvalues --    0.18399   0.18712   0.19144   0.19285   0.20051
 Alpha virt. eigenvalues --    0.20056   0.20367   0.20763   0.21245   0.21983
 Alpha virt. eigenvalues --    0.22215   0.22310   0.22600   0.23275   0.24015
 Alpha virt. eigenvalues --    0.24285   0.24391   0.25059   0.25926   0.26424
 Alpha virt. eigenvalues --    0.27091   0.27179   0.27384   0.27952   0.28624
 Alpha virt. eigenvalues --    0.29133   0.29987   0.30756   0.31029   0.31316
 Alpha virt. eigenvalues --    0.31771   0.32167   0.32759   0.33338   0.33655
 Alpha virt. eigenvalues --    0.34249   0.34473   0.34735   0.35532   0.36090
 Alpha virt. eigenvalues --    0.37023   0.37194   0.37461   0.38196   0.38291
 Alpha virt. eigenvalues --    0.38825   0.39354   0.41042   0.41507   0.41889
 Alpha virt. eigenvalues --    0.42374   0.42727   0.43501   0.44473   0.44788
 Alpha virt. eigenvalues --    0.44811   0.46129   0.46957   0.49000   0.49952
 Alpha virt. eigenvalues --    0.51983   0.56973   0.57853   0.58160   0.59250
 Alpha virt. eigenvalues --    0.61543   0.62109   0.62882   0.63537   0.63828
 Alpha virt. eigenvalues --    0.64153   0.64570   0.65205   0.65517   0.66047
 Alpha virt. eigenvalues --    0.67062   0.67797   0.68220   0.68845   0.69390
 Alpha virt. eigenvalues --    0.70917   0.72096   0.72867   0.73818   0.74746
 Alpha virt. eigenvalues --    0.75126   0.75885   0.77064   0.77382   0.79164
 Alpha virt. eigenvalues --    0.79879   0.81409   0.81609   0.82655   0.83035
 Alpha virt. eigenvalues --    0.84201   0.86028   0.86735   0.88090   0.88949
 Alpha virt. eigenvalues --    0.89652   0.91605   0.92165   0.92770   0.94018
 Alpha virt. eigenvalues --    0.94552   0.94983   0.95244   0.95614   0.96735
 Alpha virt. eigenvalues --    0.98001   0.99464   1.00325   1.01376   1.02061
 Alpha virt. eigenvalues --    1.02584   1.03676   1.04511   1.05160   1.06467
 Alpha virt. eigenvalues --    1.08756   1.10050   1.11285   1.11745   1.13170
 Alpha virt. eigenvalues --    1.14333   1.15323   1.16952   1.17510   1.17961
 Alpha virt. eigenvalues --    1.18697   1.21874   1.22501   1.24385   1.26257
 Alpha virt. eigenvalues --    1.28718   1.29171   1.31199   1.32435   1.36798
 Alpha virt. eigenvalues --    1.39657   1.43875   1.45419   1.47340   1.54936
 Alpha virt. eigenvalues --    1.57451   1.58032   1.58561   1.59302   1.60552
 Alpha virt. eigenvalues --    1.61401   1.62778   1.63652   1.65521   1.66514
 Alpha virt. eigenvalues --    1.68061   1.68432   1.68508   1.69461   1.73124
 Alpha virt. eigenvalues --    1.74680   1.75411   1.76563   1.76928   1.79531
 Alpha virt. eigenvalues --    1.81124   1.83394   1.85290   1.86643   1.88572
 Alpha virt. eigenvalues --    1.88873   1.91529   1.91745   1.94100   1.95392
 Alpha virt. eigenvalues --    1.95961   1.96458   1.99189   2.00883   2.01369
 Alpha virt. eigenvalues --    2.02051   2.02590   2.04595   2.04996   2.05738
 Alpha virt. eigenvalues --    2.06251   2.06815   2.09032   2.10093   2.11022
 Alpha virt. eigenvalues --    2.11983   2.16059   2.17994   2.19431   2.22590
 Alpha virt. eigenvalues --    2.23600   2.26661   2.28079   2.29704   2.33357
 Alpha virt. eigenvalues --    2.34294   2.42438   2.43107   2.47879   2.48867
 Alpha virt. eigenvalues --    2.50180   2.50481   2.50703   2.52041   2.52753
 Alpha virt. eigenvalues --    2.57951   2.60288   2.61848   2.68336   2.69409
 Alpha virt. eigenvalues --    2.74129   2.77495   2.78716   2.81431   2.81963
 Alpha virt. eigenvalues --    2.82922   2.84145   2.85533   2.87071   2.90620
 Alpha virt. eigenvalues --    2.91620   2.92965   2.93768   2.94112   2.96904
 Alpha virt. eigenvalues --    2.97599   2.98021   2.98592   3.00130   3.00576
 Alpha virt. eigenvalues --    3.00740   3.01722   3.02747   3.04337   3.05511
 Alpha virt. eigenvalues --    3.06724   3.08901   3.12817   3.13481   3.19373
 Alpha virt. eigenvalues --    3.20639   3.21074   3.22844   3.25332   3.25590
 Alpha virt. eigenvalues --    3.31642   3.32779   3.33350   3.38844   3.45396
 Alpha virt. eigenvalues --    3.49381   3.50481   3.51450   3.52679   3.66539
 Alpha virt. eigenvalues --    3.69433   3.70844   3.71890   3.74953   3.76980
 Alpha virt. eigenvalues --    3.82921   3.88673   3.92934   3.96494   4.32546
 Alpha virt. eigenvalues --    4.37316   4.37858   4.39585   4.40745   4.42890
 Alpha virt. eigenvalues --    4.45520   4.51324   4.52429   4.64266   4.94838
 Alpha virt. eigenvalues --    4.96124   5.19825   5.36368   5.87088  23.88479
 Alpha virt. eigenvalues --   23.95731  24.00630  24.16945  24.18016  24.24495
 Alpha virt. eigenvalues --   24.25042  24.30526  24.31176  24.34068  24.34426
 Alpha virt. eigenvalues --   24.43816  24.44687  50.17062
          Condensed to atoms (all electrons):
               1          2          3          4          5          6
     1  C   17.525341  -1.238761  -1.750904  -0.767159  -0.194450  -6.997155
     2  C   -1.238761  14.461979  -5.429314  -2.035264   1.015593  -0.386152
     3  C   -1.750904  -5.429314  12.112106   1.345136  -0.252303   2.274862
     4  C   -0.767159  -2.035264   1.345136   8.195047  -0.194548  -0.973591
     5  H   -0.194450   1.015593  -0.252303  -0.194548   0.858734  -0.136519
     6  C   -6.997155  -0.386152   2.274862  -0.973591  -0.136519  22.534515
     7  C    0.027978   0.517655  -0.634650  -0.327014   0.096483  -0.913181
     8  H    0.042489  -0.007522   0.507943   0.023149  -0.003387   0.038379
     9  C   -0.722948   0.364318  -0.148675   0.326455  -0.039683   0.476466
    10  H    0.089627  -0.156675   0.068051   0.430187  -0.041993  -0.002761
    11  C   -1.664112  -0.165590  -1.408616   0.310940   0.236113  -5.572956
    12  O    0.142918  -0.244201   0.093976  -0.008800   0.000540   0.103385
    13  H   -0.028806  -0.008923  -0.073678  -0.001513   0.000155   0.010409
    14  H    0.028833   0.004439   0.000982  -0.075075  -0.002240  -0.008195
    15  C    0.796174  -0.965711   0.041802   0.281568  -0.195104  -3.035101
    16  C    0.492313   1.394536  -1.196248  -0.187652   0.204329  -3.647332
    17  C   -1.265438   0.198933   0.189577  -0.177081  -0.155552   3.251166
    18  H    0.123768  -0.260195   0.057776   0.004545  -0.158282   0.031615
    19  C   -0.315429  -0.145805   0.204564  -0.000742  -0.016116   1.710370
    20  H   -0.046942   0.026463  -0.040402   0.001094  -0.000579  -0.097331
    21  C    0.199177   0.161548  -0.149914   0.025934   0.029630  -1.450600
    22  H   -0.006744  -0.007691   0.003988  -0.003260  -0.001634   0.049349
    23  H   -0.002546  -0.004005   0.004406  -0.000085  -0.000734   0.058672
    24  H    0.002075   0.001234  -0.002299   0.000821   0.000379  -0.046165
               7          8          9         10         11         12
     1  C    0.027978   0.042489  -0.722948   0.089627  -1.664112   0.142918
     2  C    0.517655  -0.007522   0.364318  -0.156675  -0.165590  -0.244201
     3  C   -0.634650   0.507943  -0.148675   0.068051  -1.408616   0.093976
     4  C   -0.327014   0.023149   0.326455   0.430187   0.310940  -0.008800
     5  H    0.096483  -0.003387  -0.039683  -0.041993   0.236113   0.000540
     6  C   -0.913181   0.038379   0.476466  -0.002761  -5.572956   0.103385
     7  C    7.431371  -0.163287  -0.285383   0.004720   0.163411   0.101092
     8  H   -0.163287   0.450877   0.024292   0.000776  -0.080618  -0.015047
     9  C   -0.285383   0.024292   6.118549  -0.088455  -0.183964  -0.022478
    10  H    0.004720   0.000776  -0.088455   0.496138  -0.022539   0.000611
    11  C    0.163411  -0.080618  -0.183964  -0.022539  16.127808  -0.061911
    12  O    0.101092  -0.015047  -0.022478   0.000611  -0.061911   8.037815
    13  H    0.506346  -0.014270  -0.077150   0.000978   0.012396   0.003537
    14  H   -0.115655   0.001901   0.520291  -0.014435  -0.001222  -0.000456
    15  C    0.105185   0.004856  -0.150029   0.029422   0.431239   0.035116
    16  C   -0.008997  -0.019752   0.049636  -0.015721  -2.319336   0.113611
    17  C   -0.113743   0.007019   0.096384  -0.002280  -0.496336  -0.068636
    18  H   -0.001482  -0.001498  -0.001546   0.008569  -0.151187  -0.007075
    19  C   -0.016426   0.000279   0.013222  -0.000865  -0.045722  -0.027883
    20  H    0.002482  -0.001062  -0.001022  -0.000054   0.127874  -0.010092
    21  C    0.014378  -0.000849  -0.010830   0.000865  -0.707703   0.036615
    22  H   -0.001625  -0.000047   0.001697  -0.000126   0.022229  -0.000811
    23  H   -0.000496   0.000002   0.000300  -0.000028   0.022317  -0.000876
    24  H    0.000398  -0.000034  -0.000340   0.000042   0.030851   0.000745
              13         14         15         16         17         18
     1  C   -0.028806   0.028833   0.796174   0.492313  -1.265438   0.123768
     2  C   -0.008923   0.004439  -0.965711   1.394536   0.198933  -0.260195
     3  C   -0.073678   0.000982   0.041802  -1.196248   0.189577   0.057776
     4  C   -0.001513  -0.075075   0.281568  -0.187652  -0.177081   0.004545
     5  H    0.000155  -0.002240  -0.195104   0.204329  -0.155552  -0.158282
     6  C    0.010409  -0.008195  -3.035101  -3.647332   3.251166   0.031615
     7  C    0.506346  -0.115655   0.105185  -0.008997  -0.113743  -0.001482
     8  H   -0.014270   0.001901   0.004856  -0.019752   0.007019  -0.001498
     9  C   -0.077150   0.520291  -0.150029   0.049636   0.096384  -0.001546
    10  H    0.000978  -0.014435   0.029422  -0.015721  -0.002280   0.008569
    11  C    0.012396  -0.001222   0.431239  -2.319336  -0.496336  -0.151187
    12  O    0.003537  -0.000456   0.035116   0.113611  -0.068636  -0.007075
    13  H    0.483148  -0.016995   0.001515  -0.000474  -0.002140   0.000761
    14  H   -0.016995   0.501155  -0.006981   0.002546   0.001841  -0.000298
    15  C    0.001515  -0.006981  15.960892  -3.124646  -4.665131   0.563315
    16  C   -0.000474   0.002546  -3.124646  15.081429  -0.794828  -0.094148
    17  C   -0.002140   0.001841  -4.665131  -0.794828   9.868861   0.042700
    18  H    0.000761  -0.000298   0.563315  -0.094148   0.042700   0.723594
    19  C   -0.000356   0.000156  -1.292052  -1.516069   1.176092   0.045177
    20  H    0.000062  -0.000044   0.077526   0.396781  -0.018339  -0.001063
    21  C    0.000120  -0.000097   1.738612   1.398304  -1.253610  -0.074436
    22  H   -0.000016   0.000023  -0.177282  -0.020673   0.544879  -0.011755
    23  H   -0.000002   0.000008  -0.064756  -0.126733   0.064314   0.002612
    24  H    0.000003  -0.000007   0.062851  -0.007148  -0.098692  -0.004124
              19         20         21         22         23         24
     1  C   -0.315429  -0.046942   0.199177  -0.006744  -0.002546   0.002075
     2  C   -0.145805   0.026463   0.161548  -0.007691  -0.004005   0.001234
     3  C    0.204564  -0.040402  -0.149914   0.003988   0.004406  -0.002299
     4  C   -0.000742   0.001094   0.025934  -0.003260  -0.000085   0.000821
     5  H   -0.016116  -0.000579   0.029630  -0.001634  -0.000734   0.000379
     6  C    1.710370  -0.097331  -1.450600   0.049349   0.058672  -0.046165
     7  C   -0.016426   0.002482   0.014378  -0.001625  -0.000496   0.000398
     8  H    0.000279  -0.001062  -0.000849  -0.000047   0.000002  -0.000034
     9  C    0.013222  -0.001022  -0.010830   0.001697   0.000300  -0.000340
    10  H   -0.000865  -0.000054   0.000865  -0.000126  -0.000028   0.000042
    11  C   -0.045722   0.127874  -0.707703   0.022229   0.022317   0.030851
    12  O   -0.027883  -0.010092   0.036615  -0.000811  -0.000876   0.000745
    13  H   -0.000356   0.000062   0.000120  -0.000016  -0.000002   0.000003
    14  H    0.000156  -0.000044  -0.000097   0.000023   0.000008  -0.000007
    15  C   -1.292052   0.077526   1.738612  -0.177282  -0.064756   0.062851
    16  C   -1.516069   0.396781   1.398304  -0.020673  -0.126733  -0.007148
    17  C    1.176092  -0.018339  -1.253610   0.544879   0.064314  -0.098692
    18  H    0.045177  -0.001063  -0.074436  -0.011755   0.002612  -0.004124
    19  C    7.020966  -0.109865  -0.856630   0.038960   0.545575  -0.066669
    20  H   -0.109865   0.455160   0.030981  -0.000099  -0.016317   0.001554
    21  C   -0.856630   0.030981   6.883298  -0.102199  -0.154105   0.478735
    22  H    0.038960  -0.000099  -0.102199   0.491732   0.001565  -0.012440
    23  H    0.545575  -0.016317  -0.154105   0.001565   0.498088  -0.016661
    24  H   -0.066669   0.001554   0.478735  -0.012440  -0.016661   0.482941
 Mulliken charges:
               1
     1  C    1.530699
     2  C   -1.090889
     3  C    0.181834
     4  C   -0.193091
     5  H   -0.048831
     6  C   -1.272148
     7  C   -0.389561
     8  H    0.205410
     9  C   -0.259106
    10  H    0.215945
    11  C    1.396634
    12  O   -0.201694
    13  H    0.204892
    14  H    0.179524
    15  C   -0.453279
    16  C   -0.053725
    17  C   -0.329962
    18  H    0.162655
    19  C   -0.344732
    20  H    0.223233
    21  C   -0.237223
    22  H    0.191981
    23  H    0.189484
    24  H    0.191949
 Sum of Mulliken charges =  -0.00000
 Mulliken charges with hydrogens summed into heavy atoms:
               1
     1  C    1.530699
     2  C   -1.139720
     3  C    0.387244
     4  C    0.022854
     6  C   -1.272148
     7  C   -0.184669
     9  C   -0.079582
    11  C    1.396634
    12  O   -0.201694
    15  C   -0.290625
    16  C    0.169508
    17  C   -0.137981
    19  C   -0.155248
    21  C   -0.045274
 Electronic spatial extent (au):  <R**2>=           3047.0226
 Charge=              0.0000 electrons
 Dipole moment (field-independent basis, Debye):
    X=             -0.0666    Y=             -3.1592    Z=              0.7100  Tot=              3.2387
 Quadrupole moment (field-independent basis, Debye-Ang):
   XX=            -63.3079   YY=            -79.7469   ZZ=            -84.6897
   XY=             -0.5105   XZ=              0.7355   YZ=              3.4784
 Traceless Quadrupole moment (field-independent basis, Debye-Ang):
   XX=             12.6069   YY=             -3.8321   ZZ=             -8.7748
   XY=             -0.5105   XZ=              0.7355   YZ=              3.4784
 Octapole moment (field-independent basis, Debye-Ang**2):
  XXX=             -2.7837  YYY=            -23.8562  ZZZ=             -2.3872  XYY=             -1.7820
  XXY=             -0.4446  XXZ=             13.3011  XZZ=              2.3272  YZZ=              4.2495
  YYZ=              4.2630  XYZ=              8.2047
 Hexadecapole moment (field-independent basis, Debye-Ang**3):
 XXXX=          -2820.0364 YYYY=           -788.8014 ZZZZ=           -144.9459 XXXY=            -13.7547
 XXXZ=             18.6601 YYYX=             -0.8260 YYYZ=             18.1617 ZZZX=              2.5779
 ZZZY=             -1.0638 XXYY=           -597.8630 XXZZ=           -612.3120 YYZZ=           -158.8865
 XXYZ=              8.4771 YYXZ=             -4.1909 ZZXY=              2.2364
 N-N= 7.854141046061D+02 E-N=-2.913040663121D+03  KE= 5.764797996393D+02
 No NMR shielding tensors so no spin-rotation constants.
 Leave Link  601 at Tue Nov 22 15:01:35 2022, MaxMem= 16106127360 cpu:               5.1 elap:               0.2
 (Enter /opt/ap/G16/B01/g16/l9999.exe)
 1\1\GINC-N17\SP\RwB97XD\6-311++G(d,p)\C13H10O1\ROOT\22-Nov-2022\0\\#P 
 wB97XD/6-311++G(d,p) scf=maxcycle=512\\_conf017.gjf nmol_natom 1_24\\0
 ,1\C\C,1,1.39746343\C,1,1.39996263,2,119.28066518\C,2,1.39288453,1,120
 .37436646,3,-0.51002981,0\H,2,0.95014703,1,119.82324024,3,179.45634896
 ,0\C,1,1.49653039,2,122.77761373,4,174.46828757,0\C,3,1.3870125,1,120.
 10017821,2,-0.37315804,0\H,3,0.9501092,1,119.95246451,2,179.5923884,0\
 C,7,1.38720039,3,120.16568731,1,1.0745106,0\H,4,0.95011919,2,120.18755
 644,1,-179.31195299,0\C,6,1.49516902,1,120.70972921,2,-5.,0\O,6,1.2215
 0059,1,119.67074267,2,175.,0\H,7,0.94956661,3,119.91274826,1,-178.8863
 6029,0\H,9,0.94992259,7,119.76037934,3,179.10763853,0\C,11,1.39713972,
 6,122.62585705,1,30.97749054,0\C,11,1.40039562,6,117.74753532,1,-153.1
 5467779,0\C,15,1.39455701,11,119.80747484,6,175.4763048,0\H,15,0.94962
 854,11,120.10535689,6,-4.50802339,0\C,16,1.38466431,11,120.4617377,6,-
 176.88197195,0\H,16,0.9497464,11,119.75779177,6,3.14699974,0\C,17,1.39
 088945,15,120.3475273,11,0.7973643,0\H,17,0.94984298,15,119.8156451,11
 ,-179.16676483,0\H,19,0.94974749,16,119.98566335,11,-178.40987425,0\H,
 21,0.94938585,17,120.0744529,15,179.91636093,0\\Version=ES64L-G16RevB.
 01\State=1-A\HF=-576.4080795\RMSD=6.328e-09\Dipole=-0.0254571,-0.16776
 03,1.2628366\Quadrupole=9.1288474,-5.7674916,-3.3613559,1.9873097,-0.0
 398504,2.9147259\PG=C01 [X(C13H10O1)]\\@


 ALL THINGS ARE POSSIBLE EXCEPT SKIING THROUGH A REVOLVING DOOR.
 Job cpu time:       0 days  0 hours 22 minutes 42.7 seconds.
 Elapsed time:       0 days  0 hours  0 minutes 43.2 seconds.
 File lengths (MBytes):  RWF=     78 Int=      0 D2E=      0 Chk=      9 Scr=      1
 Normal termination of Gaussian 16 at Tue Nov 22 15:01:35 2022.
