 Entering Gaussian System, Link 0=g16
 Input=_conf007.gjf
 Output=_conf007.log
 Initial command:
 /opt/ap/G16/B01/g16/l1.exe "/tmp2/scr/Gau-15284.inp" -scrdir="/tmp2/scr/"
 Entering Link 1 = /opt/ap/G16/B01/g16/l1.exe PID=     15285.
  
 Copyright (c) 1988-2017, Gaussian, Inc.  All Rights Reserved.
  
 This is part of the Gaussian(R) 16 program.  It is based on
 the Gaussian(R) 09 system (copyright 2009, Gaussian, Inc.),
 the Gaussian(R) 03 system (copyright 2003, Gaussian, Inc.),
 the Gaussian(R) 98 system (copyright 1998, Gaussian, Inc.),
 the Gaussian(R) 94 system (copyright 1995, Gaussian, Inc.),
 the Gaussian 92(TM) system (copyright 1992, Gaussian, Inc.),
 the Gaussian 90(TM) system (copyright 1990, Gaussian, Inc.),
 the Gaussian 88(TM) system (copyright 1988, Gaussian, Inc.),
 the Gaussian 86(TM) system (copyright 1986, Carnegie Mellon
 University), and the Gaussian 82(TM) system (copyright 1983,
 Carnegie Mellon University). Gaussian is a federally registered
 trademark of Gaussian, Inc.
  
 This software contains proprietary and confidential information,
 including trade secrets, belonging to Gaussian, Inc.
  
 This software is provided under written license and may be
 used, copied, transmitted, or stored only in accord with that
 written license.
  
 The following legend is applicable only to US Government
 contracts under FAR:
  
                    RESTRICTED RIGHTS LEGEND
  
 Use, reproduction and disclosure by the US Government is
 subject to restrictions as set forth in subparagraphs (a)
 and (c) of the Commercial Computer Software - Restricted
 Rights clause in FAR 52.227-19.
  
 Gaussian, Inc.
 340 Quinnipiac St., Bldg. 40, Wallingford CT 06492
  
  
 ---------------------------------------------------------------
 Warning -- This program may not be used in any manner that
 competes with the business of Gaussian, Inc. or will provide
 assistance to any competitor of Gaussian, Inc.  The licensee
 of this program is prohibited from giving any competitor of
 Gaussian, Inc. access to this program.  By using this program,
 the user acknowledges that Gaussian, Inc. is engaged in the
 business of creating and licensing software in the field of
 computational chemistry and represents and warrants to the
 licensee that it is not a competitor of Gaussian, Inc. and that
 it will not use this program in any manner prohibited above.
 ---------------------------------------------------------------
  

 Cite this work as:
 Gaussian 16, Revision B.01,
 M. J. Frisch, G. W. Trucks, H. B. Schlegel, G. E. Scuseria, 
 M. A. Robb, J. R. Cheeseman, G. Scalmani, V. Barone, 
 G. A. Petersson, H. Nakatsuji, X. Li, M. Caricato, A. V. Marenich, 
 J. Bloino, B. G. Janesko, R. Gomperts, B. Mennucci, H. P. Hratchian, 
 J. V. Ortiz, A. F. Izmaylov, J. L. Sonnenberg, D. Williams-Young, 
 F. Ding, F. Lipparini, F. Egidi, J. Goings, B. Peng, A. Petrone, 
 T. Henderson, D. Ranasinghe, V. G. Zakrzewski, J. Gao, N. Rega, 
 G. Zheng, W. Liang, M. Hada, M. Ehara, K. Toyota, R. Fukuda, 
 J. Hasegawa, M. Ishida, T. Nakajima, Y. Honda, O. Kitao, H. Nakai, 
 T. Vreven, K. Throssell, J. A. Montgomery, Jr., J. E. Peralta, 
 F. Ogliaro, M. J. Bearpark, J. J. Heyd, E. N. Brothers, K. N. Kudin, 
 V. N. Staroverov, T. A. Keith, R. Kobayashi, J. Normand, 
 K. Raghavachari, A. P. Rendell, J. C. Burant, S. S. Iyengar, 
 J. Tomasi, M. Cossi, J. M. Millam, M. Klene, C. Adamo, R. Cammi, 
 J. W. Ochterski, R. L. Martin, K. Morokuma, O. Farkas, 
 J. B. Foresman, and D. J. Fox, Gaussian, Inc., Wallingford CT, 2016.
 
 ******************************************
 Gaussian 16:  ES64L-G16RevB.01 20-Dec-2017
                22-Nov-2022 
 ******************************************
 %nprocshared=32
 Will use up to   32 processors via shared memory.
 %mem=120GB
 %chk=_conf007.chk
 ----------------------------------------
 #P wB97XD/6-311++G(d,p) scf=maxcycle=512
 ----------------------------------------
 1/38=1,172=1/1;
 2/12=2,17=6,18=5,40=1/2;
 3/5=4,6=6,7=1111,11=2,25=1,30=1,74=-58/1,2,3;
 4//1;
 5/5=2,7=512,38=5/2;
 6/7=2,8=2,9=2,10=2,28=1/1;
 99/5=1,9=1/99;
 Leave Link    1 at Tue Nov 22 14:58:56 2022, MaxMem= 16106127360 cpu:               1.5 elap:               0.1
 (Enter /opt/ap/G16/B01/g16/l101.exe)
 ----------------------------
 _conf007.gjf nmol_natom 1_24
 ----------------------------
 Symbolic Z-matrix:
 Charge =  0 Multiplicity = 1
 C
 C                    1     1.39746 
 C                    1     1.39996  2     119.28067 
 C                    2     1.39288  1     120.37437  3    -0.51003  0
 H                    2     0.95015  1     119.82324  3     179.45635  0
 C                    1     1.49653  2     122.77761  4     174.46829  0
 C                    3     1.38701  1     120.10018  2    -0.37316  0
 H                    3     0.95011  1     119.95246  2     179.59239  0
 C                    7     1.3872   3     120.16569  1     1.07451  0
 H                    4     0.95012  2     120.18756  1    -179.31195  0
 C                    6     1.49517  1     120.70973  2    -55.      0
 O                    6     1.2215   1     119.67074  2     125.     0
 H                    7     0.94957  3     119.91275  1    -178.88636  0
 H                    9     0.94992  7     119.76038  3     179.10764  0
 C                    11    1.39714  6     122.62586  1     30.97749  0
 C                    11    1.4004   6     117.74754  1    -153.15468  0
 C                    15    1.39456  11    119.80747  6     175.4763  0
 H                    15    0.94963  11    120.10536  6    -4.50802  0
 C                    16    1.38466  11    120.46174  6    -176.88197  0
 H                    16    0.94975  11    119.75779  6     3.147    0
 C                    17    1.39089  15    120.34753  11    0.79736  0
 H                    17    0.94984  15    119.81565  11   -179.16676  0
 H                    19    0.94975  16    119.98566  11   -178.40987  0
 H                    21    0.94939  17    120.07445  15    179.91636  0
 
 ITRead=  0  0  0  0  0  0  0  0  0  0  0  0  0  0  0  0  0  0  0  0
 ITRead=  0  0  0  0
 MicOpt= -1 -1 -1 -1 -1 -1 -1 -1 -1 -1 -1 -1 -1 -1 -1 -1 -1 -1 -1 -1
 MicOpt= -1 -1 -1 -1
 NAtoms=     24 NQM=       24 NQMF=       0 NMMI=      0 NMMIF=      0
                NMic=       0 NMicF=      0.
                    Isotopes and Nuclear Properties:
 (Nuclear quadrupole moments (NQMom) in fm**2, nuclear magnetic moments (NMagM)
  in nuclear magnetons)

  Atom         1           2           3           4           5           6           7           8           9          10
 IAtWgt=          12          12          12          12           1          12          12           1          12           1
 AtmWgt=  12.0000000  12.0000000  12.0000000  12.0000000   1.0078250  12.0000000  12.0000000   1.0078250  12.0000000   1.0078250
 NucSpn=           0           0           0           0           1           0           0           1           0           1
 AtZEff=  -0.0000000  -0.0000000  -0.0000000  -0.0000000  -0.0000000  -0.0000000  -0.0000000  -0.0000000  -0.0000000  -0.0000000
 NQMom=    0.0000000   0.0000000   0.0000000   0.0000000   0.0000000   0.0000000   0.0000000   0.0000000   0.0000000   0.0000000
 NMagM=    0.0000000   0.0000000   0.0000000   0.0000000   2.7928460   0.0000000   0.0000000   2.7928460   0.0000000   2.7928460
 AtZNuc=   6.0000000   6.0000000   6.0000000   6.0000000   1.0000000   6.0000000   6.0000000   1.0000000   6.0000000   1.0000000

  Atom        11          12          13          14          15          16          17          18          19          20
 IAtWgt=          12          16           1           1          12          12          12           1          12           1
 AtmWgt=  12.0000000  15.9949146   1.0078250   1.0078250  12.0000000  12.0000000  12.0000000   1.0078250  12.0000000   1.0078250
 NucSpn=           0           0           1           1           0           0           0           1           0           1
 AtZEff=  -0.0000000  -0.0000000  -0.0000000  -0.0000000  -0.0000000  -0.0000000  -0.0000000  -0.0000000  -0.0000000  -0.0000000
 NQMom=    0.0000000   0.0000000   0.0000000   0.0000000   0.0000000   0.0000000   0.0000000   0.0000000   0.0000000   0.0000000
 NMagM=    0.0000000   0.0000000   2.7928460   2.7928460   0.0000000   0.0000000   0.0000000   2.7928460   0.0000000   2.7928460
 AtZNuc=   6.0000000   8.0000000   1.0000000   1.0000000   6.0000000   6.0000000   6.0000000   1.0000000   6.0000000   1.0000000

  Atom        21          22          23          24
 IAtWgt=          12           1           1           1
 AtmWgt=  12.0000000   1.0078250   1.0078250   1.0078250
 NucSpn=           0           1           1           1
 AtZEff=  -0.0000000  -0.0000000  -0.0000000  -0.0000000
 NQMom=    0.0000000   0.0000000   0.0000000   0.0000000
 NMagM=    0.0000000   2.7928460   2.7928460   2.7928460
 AtZNuc=   6.0000000   1.0000000   1.0000000   1.0000000
 Leave Link  101 at Tue Nov 22 14:58:56 2022, MaxMem= 16106127360 cpu:               5.2 elap:               0.2
 (Enter /opt/ap/G16/B01/g16/l202.exe)
                          Input orientation:                          
 ---------------------------------------------------------------------
 Center     Atomic      Atomic             Coordinates (Angstroms)
 Number     Number       Type             X           Y           Z
 ---------------------------------------------------------------------
      1          6           0        0.000000    0.000000    0.000000
      2          6           0        0.000000    0.000000    1.397463
      3          6           0        1.221096    0.000000   -0.684705
      4          6           0        1.201650   -0.010697    2.101772
      5          1           0       -0.824276    0.007821    1.869996
      6          6           0       -1.253421   -0.110138   -0.810191
      7          6           0        2.414707    0.007815    0.021719
      8          1           0        1.232246   -0.005856   -1.634731
      9          6           0        2.403895   -0.006831    1.408800
     10          1           0        1.198494   -0.020531    3.051836
     11          6           0       -2.198416   -1.250248   -0.603640
     12          8           0       -1.507650    0.740274   -1.649376
     13          1           0        3.241298    0.023792   -0.445367
     14          1           0        3.224827   -0.014217    1.886678
     15          6           0       -2.368424   -1.872684    0.635582
     16          6           0       -2.997235   -1.639275   -1.686069
     17          6           0       -3.333733   -2.868029    0.784765
     18          1           0       -1.828440   -1.618651    1.374283
     19          6           0       -3.937186   -2.645336   -1.538997
     20          1           0       -2.893132   -1.210227   -2.526961
     21          6           0       -4.116517   -3.255686   -0.297613
     22          1           0       -3.457519   -3.282958    1.630172
     23          1           0       -4.459621   -2.919336   -2.283313
     24          1           0       -4.771742   -3.934550   -0.191980
 ---------------------------------------------------------------------
                    Distance matrix (angstroms):
                    1          2          3          4          5
     1  C    0.000000
     2  C    1.397463   0.000000
     3  C    1.399963   2.413814   0.000000
     4  C    2.421058   1.392885   2.786566   0.000000
     5  H    2.043619   0.950147   3.272630   2.039225   0.000000
     6  C    1.496530   2.541049   2.480142   3.810091   2.716889
     7  C    2.414817   2.779127   1.387013   2.408002   3.729228
     8  H    2.047146   3.273021   0.950109   3.736632   4.063567
     9  C    2.786301   2.403931   2.404542   1.387667   3.260982
    10  H    3.278797   2.042977   3.736665   0.950119   2.342893
    11  C    2.600103   3.224991   3.641806   4.518428   3.096752
    12  O    2.354029   3.479115   2.987415   4.687790   3.659162
    13  H    3.271839   3.728619   2.034469   3.263323   4.678681
    14  H    3.736210   3.261755   3.259932   2.034583   4.049198
    15  C    3.085505   3.113975   4.258492   4.285106   2.728456
    16  C    3.809655   4.602045   4.635112   5.884781   4.481103
    17  C    4.467127   4.440131   5.579552   5.519832   3.968074
    18  H    2.802120   2.442081   4.019842   3.506594   1.974712
    19  C    4.986757   5.578713   5.859649   6.826724   5.324536
    20  H    4.027455   5.023542   4.667486   6.295338   5.009695
    21  C    5.256784   5.515296   6.264139   6.676070   5.117408
    22  H    5.038821   4.773511   6.166515   5.712963   4.221459
    23  H    5.798643   6.477566   6.583966   7.729110   6.247716
    24  H    6.187654   6.385651   7.185928   7.505953   5.947817
                    6          7          8          9         10
     6  C    0.000000
     7  C    3.763130   0.000000
     8  H    2.620930   2.035246   0.000000
     9  C    4.279082   1.387200   3.261263   0.000000
    10  H    4.575496   3.265208   4.686711   2.037829   0.000000
    11  C    1.495169   4.822313   3.792242   5.174675   5.139426
    12  O    1.221501   4.325961   2.839710   5.021034   5.477539
    13  H    4.511488   0.949567   2.334899   2.034727   4.050363
    14  H    5.228480   2.033434   4.046081   0.949923   2.337447
    15  C    2.537727   5.176045   4.648030   5.182113   4.689526
    16  C    2.479176   5.909193   4.534225   6.435471   6.532398
    17  C    3.804937   6.472811   5.907127   6.441758   5.812825
    18  H    2.716281   4.741215   4.585092   4.528997   3.811889
    19  C    3.763108   7.058441   5.805087   7.473989   7.371604
    20  H    2.616515   6.012699   4.389228   6.707970   7.019954
    21  C    4.284219   7.308167   6.399886   7.482157   7.066426
    22  H    4.569487   6.920935   6.587327   6.718496   5.860291
    23  H    4.510144   7.819064   6.427003   8.319990   8.299466
    24  H    5.233249   8.199570   7.318745   8.335420   7.841275
                   11         12         13         14         15
    11  C    0.000000
    12  O    2.352211   0.000000
    13  H    5.589160   4.951312   0.000000
    14  H    6.094344   5.955609   2.332413   0.000000
    15  C    1.397140   3.576242   6.019472   6.025247   0.000000
    16  C    1.400396   2.807573   6.574529   7.356589   2.416598
    17  C    2.415332   4.720113   7.287447   7.236931   1.394557
    18  H    2.045674   3.848369   5.631251   5.326562   0.949629
    19  C    2.417537   4.168594   7.736336   8.363759   2.790484
    20  H    2.045335   2.548367   6.594472   7.638068   3.273506
    21  C    2.791872   4.959954   8.056938   8.317066   2.416481
    22  H    3.272181   5.544711   7.753490   7.443401   2.040640
    23  H    3.274172   4.744339   8.446549   9.212995   3.740125
    24  H    3.741249   5.884919   8.941000   9.145214   3.272933
                   16         17         18         19         20
    16  C    0.000000
    17  C    2.779944   0.000000
    18  H    3.276013   2.043131   0.000000
    19  C    1.384664   2.411145   3.740066   0.000000
    20  H    0.949746   3.729607   4.064490   2.031171   0.000000
    21  C    2.406945   1.390889   3.272678   1.394891   3.263520
    22  H    3.729747   0.949843   2.342925   3.268069   4.679370
    23  H    2.033181   3.268541   4.689659   0.949747   2.331159
    24  H    3.263351   2.039453   4.059507   2.042795   4.050092
                   21         22         23         24
    21  C    0.000000
    22  H    2.037493   0.000000
    23  H    2.043001   4.056081   0.000000
    24  H    0.949386   2.339229   2.345581   0.000000
 Stoichiometry    C13H10O
 Framework group  C1[X(C13H10O)]
 Deg. of freedom    66
 Full point group                 C1      NOp   1
 Largest Abelian subgroup         C1      NOp   1
 Largest concise Abelian subgroup C1      NOp   1
                         Standard orientation:                         
 ---------------------------------------------------------------------
 Center     Atomic      Atomic             Coordinates (Angstroms)
 Number     Number       Type             X           Y           Z
 ---------------------------------------------------------------------
      1          6           0        1.311311    0.388795    0.243683
      2          6           0        1.651574   -0.860411    0.769622
      3          6           0        2.207313    1.037589   -0.614304
      4          6           0        2.864277   -1.458638    0.435552
      5          1           0        1.052611   -1.304108    1.358821
      6          6           0       -0.023962    1.026072    0.468464
      7          6           0        3.421461    0.445509   -0.929088
      8          1           0        1.983192    1.884542   -0.981928
      9          6           0        3.743515   -0.801291   -0.413244
     10          1           0        3.088647   -2.312402    0.786939
     11          6           0       -1.284213    0.303109    0.115446
     12          8           0       -0.085460    2.148916    0.945437
     13          1           0        4.033953    0.895050   -1.498687
     14          1           0        4.571166   -1.207081   -0.642768
     15          6           0       -1.396921   -1.088133    0.176612
     16          6           0       -2.409534    1.072687   -0.204725
     17          6           0       -2.626842   -1.695681   -0.074327
     18          1           0       -0.638352   -1.618609    0.388655
     19          6           0       -3.622487    0.462997   -0.477341
     20          1           0       -2.339990    2.019386   -0.235446
     21          6           0       -3.737609   -0.925053   -0.401286
     22          1           0       -2.706372   -2.640694   -0.021144
     23          1           0       -4.375699    0.990090   -0.715803
     24          1           0       -4.572772   -1.342802   -0.572525
 ---------------------------------------------------------------------
 Rotational constants (GHZ):           1.6380845           0.4203322           0.3616216
 Leave Link  202 at Tue Nov 22 14:58:56 2022, MaxMem= 16106127360 cpu:               0.4 elap:               0.0
 (Enter /opt/ap/G16/B01/g16/l301.exe)
 Standard basis: 6-311++G(d,p) (5D, 7F)
 Ernie: Thresh=  0.10000D-02 Tol=  0.10000D-05 Strict=F.
 There are   392 symmetry adapted cartesian basis functions of A   symmetry.
 There are   378 symmetry adapted basis functions of A   symmetry.
   378 basis functions,   594 primitive gaussians,   392 cartesian basis functions
    48 alpha electrons       48 beta electrons
       nuclear repulsion energy       783.7715754383 Hartrees.
 IExCor= 4639 DFT=T Ex+Corr=wB97XD ExCW=0 ScaHFX=  1.000000
 ScaDFX=  1.000000  1.000000  1.000000  1.000000 ScalE2=  1.000000  1.000000
 IRadAn=      5 IRanWt=     -1 IRanGd=            0 ICorTp=0 IEmpDi=121
 HFx  wShort=  0.000000 wLong=  0.200000 cFull=  0.222036 cShort=  0.000000 cLong=  0.777964
 DFx  wShort=  0.000000 wLong=  0.200000 cFull=  0.000000 cShort=  0.000000 cLong=  1.000000
 NAtoms=   24 NActive=   24 NUniq=   24 SFac= 1.00D+00 NAtFMM=   60 NAOKFM=F Big=F
 Integral buffers will be    131072 words long.
 Raffenetti 2 integral format.
 Two-electron integral symmetry is turned on.
 R6Disp:  Grimme-D2 Dispersion energy=       -0.0140708811 Hartrees.
 Nuclear repulsion after empirical dispersion term =      783.7575045572 Hartrees.
 Leave Link  301 at Tue Nov 22 14:58:56 2022, MaxMem= 16106127360 cpu:               1.2 elap:               0.0
 (Enter /opt/ap/G16/B01/g16/l302.exe)
 NPDir=0 NMtPBC=     1 NCelOv=     1 NCel=       1 NClECP=     1 NCelD=      1
         NCelK=      1 NCelE2=     1 NClLst=     1 CellRange=     0.0.
 One-electron integrals computed using PRISM.
 One-electron integral symmetry used in STVInt
 NBasis=   378 RedAO= T EigKep=  1.51D-06  NBF=   378
 NBsUse=   376 1.00D-06 EigRej=  7.86D-07 NBFU=   376
 Precomputing XC quadrature grid using
 IXCGrd= 4 IRadAn=           5 IRanWt=          -1 IRanGd=           0 AccXCQ= 0.00D+00.
 Generated NRdTot=       0 NPtTot=           0 NUsed=           0 NTot=          32
 NSgBfM=   392   392   392   392   392 MxSgAt=    24 MxSgA2=    24.
 Leave Link  302 at Tue Nov 22 14:58:56 2022, MaxMem= 16106127360 cpu:               8.3 elap:               0.3
 (Enter /opt/ap/G16/B01/g16/l303.exe)
 DipDrv:  MaxL=1.
 Leave Link  303 at Tue Nov 22 14:58:56 2022, MaxMem= 16106127360 cpu:               1.8 elap:               0.1
 (Enter /opt/ap/G16/B01/g16/l401.exe)
 ExpMin= 3.60D-02 ExpMax= 8.59D+03 ExpMxC= 1.30D+03 IAcc=3 IRadAn=         5 AccDes= 0.00D+00
 Harris functional with IExCor= 4639 and IRadAn=       5 diagonalized for initial guess.
 HarFok:  IExCor= 4639 AccDes= 0.00D+00 IRadAn=         5 IDoV= 1 UseB2=F ITyADJ=14
 ICtDFT=  3500011 ScaDFX=  1.000000  1.000000  1.000000  1.000000
 FoFCou: FMM=F IPFlag=           0 FMFlag=      100000 FMFlg1=           0
         NFxFlg=           0 DoJE=T BraDBF=F KetDBF=T FulRan=T
         wScrn=  0.000000 ICntrl=       500 IOpCl=  0 I1Cent=   200000004 NGrid=           0
         NMat0=    1 NMatS0=      1 NMatT0=    0 NMatD0=    1 NMtDS0=    0 NMtDT0=    0
 Petite list used in FoFCou.
 Harris En= -550.899581368957    
 JPrj=0 DoOrth=F DoCkMO=F.
 Leave Link  401 at Tue Nov 22 14:58:57 2022, MaxMem= 16106127360 cpu:              22.9 elap:               0.7
 (Enter /opt/ap/G16/B01/g16/l502.exe)
 Integral symmetry usage will be decided dynamically.
 Closed shell SCF:
 Using DIIS extrapolation, IDIIS=  1040.
 NGot= 16106127360 LenX= 16105803762 LenY= 16105649657
 Requested convergence on RMS density matrix=1.00D-08 within 512 cycles.
 Requested convergence on MAX density matrix=1.00D-06.
 Requested convergence on             energy=1.00D-06.
 No special actions if energy rises.
 Fock matrices will be formed incrementally for  20 cycles.

 Cycle   1  Pass 1  IDiag  1:
 FoFJK:  IHMeth= 1 ICntrl=       0 DoSepK=T KAlg= 0 I1Cent=           0 FoldK=F
 IRaf=         1 NMat=       1 IRICut=       1 DoRegI=T DoRafI=F ISym2E= 0 IDoP0=0 IntGTp=1.
 FoFCou: FMM=F IPFlag=           0 FMFlag=      100000 FMFlg1=           0
         NFxFlg=           0 DoJE=T BraDBF=F KetDBF=F FulRan=T
         wScrn=  0.000000 ICntrl=       500 IOpCl=  0 I1Cent=           0 NGrid=           0
         NMat0=    1 NMatS0=      1 NMatT0=    0 NMatD0=    1 NMtDS0=    0 NMtDT0=    0
 Symmetry not used in FoFCou.
 E= -576.255548289276    
 DIIS: error= 4.57D-02 at cycle   1 NSaved=   1.
 NSaved= 1 IEnMin= 1 EnMin= -576.255548289276     IErMin= 1 ErrMin= 4.57D-02
 ErrMax= 4.57D-02  0.00D+00 EMaxC= 1.00D-01 BMatC= 1.20D+00 BMatP= 1.20D+00
 IDIUse=3 WtCom= 5.43D-01 WtEn= 4.57D-01
 Coeff-Com:  0.100D+01
 Coeff-En:   0.100D+01
 Coeff:      0.100D+01
 Gap=     0.411 Goal=   None    Shift=    0.000
 GapD=    0.411 DampG=2.000 DampE=0.500 DampFc=1.0000 IDamp=-1.
 RMSDP=2.66D-02 MaxDP=4.29D+00              OVMax= 1.25D-01

 Cycle   2  Pass 1  IDiag  1:
 RMSU=  1.49D-02    CP:  7.11D-01
 E= -576.345936534125     Delta-E=       -0.090388244849 Rises=F Damp=F
 DIIS: error= 1.18D-02 at cycle   2 NSaved=   2.
 NSaved= 2 IEnMin= 2 EnMin= -576.345936534125     IErMin= 2 ErrMin= 1.18D-02
 ErrMax= 1.18D-02  0.00D+00 EMaxC= 1.00D-01 BMatC= 7.48D-02 BMatP= 1.20D+00
 IDIUse=3 WtCom= 8.82D-01 WtEn= 1.18D-01
 Coeff-Com:  0.126D+00 0.874D+00
 Coeff-En:   0.142D+00 0.858D+00
 Coeff:      0.128D+00 0.872D+00
 Gap=     0.435 Goal=   None    Shift=    0.000
 RMSDP=9.37D-03 MaxDP=8.72D-01 DE=-9.04D-02 OVMax= 1.51D-01

 Cycle   3  Pass 1  IDiag  1:
 RMSU=  5.90D-03    CP:  6.72D-01  5.54D-01
 E= -576.363974999007     Delta-E=       -0.018038464882 Rises=F Damp=F
 DIIS: error= 1.20D-02 at cycle   3 NSaved=   3.
 NSaved= 3 IEnMin= 3 EnMin= -576.363974999007     IErMin= 2 ErrMin= 1.18D-02
 ErrMax= 1.20D-02  0.00D+00 EMaxC= 1.00D-01 BMatC= 5.31D-02 BMatP= 7.48D-02
 IDIUse=3 WtCom= 8.80D-01 WtEn= 1.20D-01
 Coeff-Com:  0.237D-01 0.461D+00 0.516D+00
 Coeff-En:   0.000D+00 0.423D+00 0.577D+00
 Coeff:      0.209D-01 0.456D+00 0.523D+00
 Gap=     0.352 Goal=   None    Shift=    0.000
 RMSDP=4.29D-03 MaxDP=4.31D-01 DE=-1.80D-02 OVMax= 5.48D-02

 Cycle   4  Pass 1  IDiag  1:
 RMSU=  1.65D-03    CP:  6.47D-01  7.29D-01  6.04D-01
 E= -576.411173043813     Delta-E=       -0.047198044806 Rises=F Damp=F
 DIIS: error= 1.62D-03 at cycle   4 NSaved=   4.
 NSaved= 4 IEnMin= 4 EnMin= -576.411173043813     IErMin= 4 ErrMin= 1.62D-03
 ErrMax= 1.62D-03  0.00D+00 EMaxC= 1.00D-01 BMatC= 8.05D-04 BMatP= 5.31D-02
 IDIUse=3 WtCom= 9.84D-01 WtEn= 1.62D-02
 Coeff-Com:  0.923D-02 0.191D+00 0.237D+00 0.562D+00
 Coeff-En:   0.000D+00 0.000D+00 0.000D+00 0.100D+01
 Coeff:      0.908D-02 0.188D+00 0.234D+00 0.569D+00
 Gap=     0.323 Goal=   None    Shift=    0.000
 RMSDP=6.05D-04 MaxDP=3.68D-02 DE=-4.72D-02 OVMax= 6.26D-03

 Cycle   5  Pass 1  IDiag  1:
 RMSU=  4.82D-04    CP:  6.46D-01  7.52D-01  6.14D-01  1.03D+00
 E= -576.411743713811     Delta-E=       -0.000570669998 Rises=F Damp=F
 DIIS: error= 5.40D-04 at cycle   5 NSaved=   5.
 NSaved= 5 IEnMin= 5 EnMin= -576.411743713811     IErMin= 5 ErrMin= 5.40D-04
 ErrMax= 5.40D-04  0.00D+00 EMaxC= 1.00D-01 BMatC= 7.65D-05 BMatP= 8.05D-04
 IDIUse=3 WtCom= 9.95D-01 WtEn= 5.40D-03
 Coeff-Com: -0.581D-03-0.817D-02-0.443D-03 0.222D+00 0.788D+00
 Coeff-En:   0.000D+00 0.000D+00 0.000D+00 0.000D+00 0.100D+01
 Coeff:     -0.578D-03-0.813D-02-0.441D-03 0.220D+00 0.789D+00
 Gap=     0.324 Goal=   None    Shift=    0.000
 RMSDP=3.26D-04 MaxDP=3.73D-02 DE=-5.71D-04 OVMax= 2.45D-03

 Cycle   6  Pass 1  IDiag  1:
 RMSU=  2.48D-04    CP:  6.44D-01  7.58D-01  6.25D-01  1.08D+00  8.89D-01
 E= -576.411801564845     Delta-E=       -0.000057851034 Rises=F Damp=F
 DIIS: error= 2.26D-04 at cycle   6 NSaved=   6.
 NSaved= 6 IEnMin= 6 EnMin= -576.411801564845     IErMin= 6 ErrMin= 2.26D-04
 ErrMax= 2.26D-04  0.00D+00 EMaxC= 1.00D-01 BMatC= 1.83D-05 BMatP= 7.65D-05
 IDIUse=3 WtCom= 9.98D-01 WtEn= 2.26D-03
 Coeff-Com: -0.122D-02-0.230D-01-0.228D-01 0.661D-01 0.434D+00 0.547D+00
 Coeff-En:   0.000D+00 0.000D+00 0.000D+00 0.000D+00 0.000D+00 0.100D+01
 Coeff:     -0.122D-02-0.229D-01-0.227D-01 0.659D-01 0.433D+00 0.548D+00
 Gap=     0.325 Goal=   None    Shift=    0.000
 RMSDP=9.66D-05 MaxDP=5.01D-03 DE=-5.79D-05 OVMax= 1.25D-03

 Cycle   7  Pass 1  IDiag  1:
 RMSU=  6.86D-05    CP:  6.44D-01  7.58D-01  6.24D-01  1.12D+00  9.39D-01
                    CP:  8.84D-01
 E= -576.411820070378     Delta-E=       -0.000018505532 Rises=F Damp=F
 DIIS: error= 5.22D-05 at cycle   7 NSaved=   7.
 NSaved= 7 IEnMin= 7 EnMin= -576.411820070378     IErMin= 7 ErrMin= 5.22D-05
 ErrMax= 5.22D-05  0.00D+00 EMaxC= 1.00D-01 BMatC= 4.93D-07 BMatP= 1.83D-05
 IDIUse=1 WtCom= 1.00D+00 WtEn= 0.00D+00
 Coeff-Com: -0.229D-03-0.442D-02-0.521D-02-0.103D-01-0.805D-02 0.110D+00
 Coeff-Com:  0.918D+00
 Coeff:     -0.229D-03-0.442D-02-0.521D-02-0.103D-01-0.805D-02 0.110D+00
 Coeff:      0.918D+00
 Gap=     0.325 Goal=   None    Shift=    0.000
 RMSDP=4.04D-05 MaxDP=3.02D-03 DE=-1.85D-05 OVMax= 4.69D-04

 Cycle   8  Pass 1  IDiag  1:
 RMSU=  1.43D-05    CP:  6.44D-01  7.59D-01  6.25D-01  1.12D+00  9.52D-01
                    CP:  1.01D+00  1.09D+00
 E= -576.411821258817     Delta-E=       -0.000001188439 Rises=F Damp=F
 DIIS: error= 1.31D-05 at cycle   8 NSaved=   8.
 NSaved= 8 IEnMin= 8 EnMin= -576.411821258817     IErMin= 8 ErrMin= 1.31D-05
 ErrMax= 1.31D-05  0.00D+00 EMaxC= 1.00D-01 BMatC= 8.34D-08 BMatP= 4.93D-07
 IDIUse=1 WtCom= 1.00D+00 WtEn= 0.00D+00
 Coeff-Com:  0.508D-04 0.754D-03 0.336D-03-0.127D-01-0.584D-01-0.226D-01
 Coeff-Com:  0.320D+00 0.772D+00
 Coeff:      0.508D-04 0.754D-03 0.336D-03-0.127D-01-0.584D-01-0.226D-01
 Coeff:      0.320D+00 0.772D+00
 Gap=     0.325 Goal=   None    Shift=    0.000
 RMSDP=1.33D-05 MaxDP=1.20D-03 DE=-1.19D-06 OVMax= 1.85D-04

 Cycle   9  Pass 1  IDiag  1:
 RMSU=  5.40D-06    CP:  6.45D-01  7.60D-01  6.25D-01  1.12D+00  9.52D-01
                    CP:  1.04D+00  1.13D+00  1.24D+00
 E= -576.411821421509     Delta-E=       -0.000000162693 Rises=F Damp=F
 DIIS: error= 5.23D-06 at cycle   9 NSaved=   9.
 NSaved= 9 IEnMin= 9 EnMin= -576.411821421509     IErMin= 9 ErrMin= 5.23D-06
 ErrMax= 5.23D-06  0.00D+00 EMaxC= 1.00D-01 BMatC= 5.87D-09 BMatP= 8.34D-08
 IDIUse=1 WtCom= 1.00D+00 WtEn= 0.00D+00
 Coeff-Com:  0.396D-04 0.701D-03 0.696D-03-0.866D-03-0.101D-01-0.159D-01
 Coeff-Com: -0.573D-01 0.149D+00 0.934D+00
 Coeff:      0.396D-04 0.701D-03 0.696D-03-0.866D-03-0.101D-01-0.159D-01
 Coeff:     -0.573D-01 0.149D+00 0.934D+00
 Gap=     0.325 Goal=   None    Shift=    0.000
 RMSDP=6.77D-06 MaxDP=5.47D-04 DE=-1.63D-07 OVMax= 6.11D-05

 Cycle  10  Pass 1  IDiag  1:
 RMSU=  2.01D-06    CP:  6.45D-01  7.60D-01  6.25D-01  1.12D+00  9.46D-01
                    CP:  1.04D+00  1.15D+00  1.42D+00  1.32D+00
 E= -576.411821436947     Delta-E=       -0.000000015438 Rises=F Damp=F
 DIIS: error= 8.31D-07 at cycle  10 NSaved=  10.
 NSaved=10 IEnMin=10 EnMin= -576.411821436947     IErMin=10 ErrMin= 8.31D-07
 ErrMax= 8.31D-07  0.00D+00 EMaxC= 1.00D-01 BMatC= 4.41D-10 BMatP= 5.87D-09
 IDIUse=1 WtCom= 1.00D+00 WtEn= 0.00D+00
 Coeff-Com: -0.118D-05 0.629D-05 0.302D-04 0.121D-02 0.398D-02 0.145D-02
 Coeff-Com: -0.290D-01-0.531D-01 0.977D-01 0.978D+00
 Coeff:     -0.118D-05 0.629D-05 0.302D-04 0.121D-02 0.398D-02 0.145D-02
 Coeff:     -0.290D-01-0.531D-01 0.977D-01 0.978D+00
 Gap=     0.325 Goal=   None    Shift=    0.000
 RMSDP=1.83D-06 MaxDP=1.45D-04 DE=-1.54D-08 OVMax= 1.44D-05

 Cycle  11  Pass 1  IDiag  1:
 RMSU=  7.13D-07    CP:  6.45D-01  7.60D-01  6.25D-01  1.12D+00  9.44D-01
                    CP:  1.04D+00  1.14D+00  1.46D+00  1.41D+00  1.10D+00
 E= -576.411821437993     Delta-E=       -0.000000001046 Rises=F Damp=F
 DIIS: error= 3.30D-07 at cycle  11 NSaved=  11.
 NSaved=11 IEnMin=11 EnMin= -576.411821437993     IErMin=11 ErrMin= 3.30D-07
 ErrMax= 3.30D-07  0.00D+00 EMaxC= 1.00D-01 BMatC= 7.10D-11 BMatP= 4.41D-10
 IDIUse=1 WtCom= 1.00D+00 WtEn= 0.00D+00
 Coeff-Com: -0.271D-05-0.374D-04-0.312D-04 0.501D-03 0.188D-02 0.143D-02
 Coeff-Com: -0.604D-02-0.292D-01-0.329D-01 0.323D+00 0.741D+00
 Coeff:     -0.271D-05-0.374D-04-0.312D-04 0.501D-03 0.188D-02 0.143D-02
 Coeff:     -0.604D-02-0.292D-01-0.329D-01 0.323D+00 0.741D+00
 Gap=     0.325 Goal=   None    Shift=    0.000
 RMSDP=4.80D-07 MaxDP=4.75D-05 DE=-1.05D-09 OVMax= 3.58D-06

 Cycle  12  Pass 1  IDiag  1:
 RMSU=  1.84D-07    CP:  6.45D-01  7.60D-01  6.25D-01  1.12D+00  9.44D-01
                    CP:  1.04D+00  1.14D+00  1.46D+00  1.44D+00  1.16D+00
                    CP:  1.15D+00
 E= -576.411821438080     Delta-E=       -0.000000000086 Rises=F Damp=F
 DIIS: error= 1.32D-07 at cycle  12 NSaved=  12.
 NSaved=12 IEnMin=12 EnMin= -576.411821438080     IErMin=12 ErrMin= 1.32D-07
 ErrMax= 1.32D-07  0.00D+00 EMaxC= 1.00D-01 BMatC= 5.96D-12 BMatP= 7.10D-11
 IDIUse=1 WtCom= 1.00D+00 WtEn= 0.00D+00
 Coeff-Com: -0.241D-06-0.727D-05-0.107D-04-0.594D-04-0.256D-03 0.321D-04
 Coeff-Com:  0.305D-02 0.238D-02-0.175D-01-0.741D-01 0.104D+00 0.982D+00
 Coeff:     -0.241D-06-0.727D-05-0.107D-04-0.594D-04-0.256D-03 0.321D-04
 Coeff:      0.305D-02 0.238D-02-0.175D-01-0.741D-01 0.104D+00 0.982D+00
 Gap=     0.325 Goal=   None    Shift=    0.000
 RMSDP=1.82D-07 MaxDP=1.40D-05 DE=-8.62D-11 OVMax= 2.14D-06

 Cycle  13  Pass 1  IDiag  1:
 RMSU=  6.69D-08    CP:  6.45D-01  7.59D-01  6.25D-01  1.12D+00  9.44D-01
                    CP:  1.04D+00  1.14D+00  1.46D+00  1.44D+00  1.17D+00
                    CP:  1.23D+00  1.19D+00
 E= -576.411821438122     Delta-E=       -0.000000000042 Rises=F Damp=F
 DIIS: error= 5.91D-08 at cycle  13 NSaved=  13.
 NSaved=13 IEnMin=13 EnMin= -576.411821438122     IErMin=13 ErrMin= 5.91D-08
 ErrMax= 5.91D-08  0.00D+00 EMaxC= 1.00D-01 BMatC= 1.36D-12 BMatP= 5.96D-12
 IDIUse=1 WtCom= 1.00D+00 WtEn= 0.00D+00
 Coeff-Com:  0.200D-06 0.107D-05-0.901D-06-0.756D-04-0.301D-03-0.160D-03
 Coeff-Com:  0.172D-02 0.397D-02-0.267D-02-0.621D-01-0.488D-01 0.386D+00
 Coeff-Com:  0.722D+00
 Coeff:      0.200D-06 0.107D-05-0.901D-06-0.756D-04-0.301D-03-0.160D-03
 Coeff:      0.172D-02 0.397D-02-0.267D-02-0.621D-01-0.488D-01 0.386D+00
 Coeff:      0.722D+00
 Gap=     0.325 Goal=   None    Shift=    0.000
 RMSDP=5.06D-08 MaxDP=6.28D-06 DE=-4.23D-11 OVMax= 7.03D-07

 Cycle  14  Pass 1  IDiag  1:
 RMSU=  2.25D-08    CP:  6.45D-01  7.59D-01  6.25D-01  1.12D+00  9.44D-01
                    CP:  1.04D+00  1.14D+00  1.46D+00  1.44D+00  1.17D+00
                    CP:  1.27D+00  1.22D+00  9.60D-01
 E= -576.411821438118     Delta-E=        0.000000000003 Rises=F Damp=F
 DIIS: error= 2.88D-08 at cycle  14 NSaved=  14.
 NSaved=14 IEnMin=13 EnMin= -576.411821438122     IErMin=14 ErrMin= 2.88D-08
 ErrMax= 2.88D-08  0.00D+00 EMaxC= 1.00D-01 BMatC= 1.36D-13 BMatP= 1.36D-12
 IDIUse=1 WtCom= 1.00D+00 WtEn= 0.00D+00
 Coeff-Com:  0.706D-07 0.132D-05 0.165D-05-0.920D-05-0.261D-04-0.481D-04
 Coeff-Com: -0.771D-04 0.479D-03 0.191D-02-0.278D-02-0.278D-01-0.625D-01
 Coeff-Com:  0.117D+00 0.974D+00
 Coeff:      0.706D-07 0.132D-05 0.165D-05-0.920D-05-0.261D-04-0.481D-04
 Coeff:     -0.771D-04 0.479D-03 0.191D-02-0.278D-02-0.278D-01-0.625D-01
 Coeff:      0.117D+00 0.974D+00
 Gap=     0.325 Goal=   None    Shift=    0.000
 RMSDP=2.17D-08 MaxDP=1.77D-06 DE= 3.41D-12 OVMax= 3.96D-07

 Cycle  15  Pass 1  IDiag  1:
 RMSU=  8.62D-09    CP:  6.45D-01  7.59D-01  6.25D-01  1.12D+00  9.44D-01
                    CP:  1.04D+00  1.14D+00  1.46D+00  1.44D+00  1.17D+00
                    CP:  1.27D+00  1.22D+00  1.13D+00  1.08D+00
 E= -576.411821438121     Delta-E=       -0.000000000003 Rises=F Damp=F
 DIIS: error= 9.32D-09 at cycle  15 NSaved=  15.
 NSaved=15 IEnMin=13 EnMin= -576.411821438122     IErMin=15 ErrMin= 9.32D-09
 ErrMax= 9.32D-09  0.00D+00 EMaxC= 1.00D-01 BMatC= 3.39D-14 BMatP= 1.36D-13
 IDIUse=1 WtCom= 1.00D+00 WtEn= 0.00D+00
 Coeff-Com: -0.844D-08 0.338D-06 0.864D-06 0.997D-05 0.441D-04 0.117D-04
 Coeff-Com: -0.318D-03-0.507D-03 0.128D-02 0.103D-01-0.595D-03-0.861D-01
 Coeff-Com: -0.868D-01 0.356D+00 0.806D+00
 Coeff:     -0.844D-08 0.338D-06 0.864D-06 0.997D-05 0.441D-04 0.117D-04
 Coeff:     -0.318D-03-0.507D-03 0.128D-02 0.103D-01-0.595D-03-0.861D-01
 Coeff:     -0.868D-01 0.356D+00 0.806D+00
 Gap=     0.325 Goal=   None    Shift=    0.000
 RMSDP=9.07D-09 MaxDP=1.09D-06 DE=-2.50D-12 OVMax= 1.62D-07

 Cycle  16  Pass 1  IDiag  1:
 RMSU=  2.79D-09    CP:  6.45D-01  7.59D-01  6.25D-01  1.12D+00  9.44D-01
                    CP:  1.04D+00  1.14D+00  1.46D+00  1.44D+00  1.17D+00
                    CP:  1.27D+00  1.23D+00  1.15D+00  1.14D+00  1.33D+00
 E= -576.411821438131     Delta-E=       -0.000000000010 Rises=F Damp=F
 DIIS: error= 4.34D-09 at cycle  16 NSaved=  16.
 NSaved=16 IEnMin=16 EnMin= -576.411821438131     IErMin=16 ErrMin= 4.34D-09
 ErrMax= 4.34D-09  0.00D+00 EMaxC= 1.00D-01 BMatC= 2.70D-15 BMatP= 3.39D-14
 IDIUse=1 WtCom= 1.00D+00 WtEn= 0.00D+00
 Large coefficients: NSaved= 16 BigCof=    0.00 CofMax=   10.00 Det=-8.79D-15
 Inversion failed.  Reducing to 15 matrices.
 Coeff-Com: -0.652D-07-0.102D-06 0.113D-05 0.239D-05 0.642D-05 0.806D-05
 Coeff-Com: -0.640D-04-0.258D-03 0.232D-03 0.392D-02 0.807D-02-0.214D-01
 Coeff-Com: -0.152D+00 0.508D-02 0.116D+01
 Coeff:     -0.652D-07-0.102D-06 0.113D-05 0.239D-05 0.642D-05 0.806D-05
 Coeff:     -0.640D-04-0.258D-03 0.232D-03 0.392D-02 0.807D-02-0.214D-01
 Coeff:     -0.152D+00 0.508D-02 0.116D+01
 Gap=     0.325 Goal=   None    Shift=    0.000
 RMSDP=4.79D-09 MaxDP=6.72D-07 DE=-1.05D-11 OVMax= 9.35D-08

 SCF Done:  E(RwB97XD) =  -576.411821438     A.U. after   16 cycles
            NFock= 16  Conv=0.48D-08     -V/T= 2.0000
 KE= 5.764206595435D+02 PE=-2.909642461628D+03 EE= 9.730524760897D+02
 Leave Link  502 at Tue Nov 22 14:59:37 2022, MaxMem= 16106127360 cpu:            1258.8 elap:              39.6
 (Enter /opt/ap/G16/B01/g16/l601.exe)
 Copying SCF densities to generalized density rwf, IOpCl= 0 IROHF=0.

 **********************************************************************

            Population analysis using the SCF Density.

 **********************************************************************

 Orbital symmetries:
       Occupied  (A) (A) (A) (A) (A) (A) (A) (A) (A) (A) (A) (A)
                 (A) (A) (A) (A) (A) (A) (A) (A) (A) (A) (A) (A)
                 (A) (A) (A) (A) (A) (A) (A) (A) (A) (A) (A) (A)
                 (A) (A) (A) (A) (A) (A) (A) (A) (A) (A) (A) (A)
       Virtual   (A) (A) (A) (A) (A) (A) (A) (A) (A) (A) (A) (A)
                 (A) (A) (A) (A) (A) (A) (A) (A) (A) (A) (A) (A)
                 (A) (A) (A) (A) (A) (A) (A) (A) (A) (A) (A) (A)
                 (A) (A) (A) (A) (A) (A) (A) (A) (A) (A) (A) (A)
                 (A) (A) (A) (A) (A) (A) (A) (A) (A) (A) (A) (A)
                 (A) (A) (A) (A) (A) (A) (A) (A) (A) (A) (A) (A)
                 (A) (A) (A) (A) (A) (A) (A) (A) (A) (A) (A) (A)
                 (A) (A) (A) (A) (A) (A) (A) (A) (A) (A) (A) (A)
                 (A) (A) (A) (A) (A) (A) (A) (A) (A) (A) (A) (A)
                 (A) (A) (A) (A) (A) (A) (A) (A) (A) (A) (A) (A)
                 (A) (A) (A) (A) (A) (A) (A) (A) (A) (A) (A) (A)
                 (A) (A) (A) (A) (A) (A) (A) (A) (A) (A) (A) (A)
                 (A) (A) (A) (A) (A) (A) (A) (A) (A) (A) (A) (A)
                 (A) (A) (A) (A) (A) (A) (A) (A) (A) (A) (A) (A)
                 (A) (A) (A) (A) (A) (A) (A) (A) (A) (A) (A) (A)
                 (A) (A) (A) (A) (A) (A) (A) (A) (A) (A) (A) (A)
                 (A) (A) (A) (A) (A) (A) (A) (A) (A) (A) (A) (A)
                 (A) (A) (A) (A) (A) (A) (A) (A) (A) (A) (A) (A)
                 (A) (A) (A) (A) (A) (A) (A) (A) (A) (A) (A) (A)
                 (A) (A) (A) (A) (A) (A) (A) (A) (A) (A) (A) (A)
                 (A) (A) (A) (A) (A) (A) (A) (A) (A) (A) (A) (A)
                 (A) (A) (A) (A) (A) (A) (A) (A) (A) (A) (A) (A)
                 (A) (A) (A) (A) (A) (A) (A) (A) (A) (A) (A) (A)
                 (A) (A) (A) (A) (A) (A) (A) (A) (A) (A) (A) (A)
                 (A) (A) (A) (A) (A) (A) (A) (A) (A) (A) (A) (A)
                 (A) (A) (A) (A) (A) (A) (A) (A) (A) (A) (A) (A)
                 (A) (A) (A) (A) (A) (A) (A) (A) (A) (A) (A) (A)
                 (A) (A) (A) (A)
 The electronic state is 1-A.
 Alpha  occ. eigenvalues --  -19.24106 -10.38421 -10.30728 -10.30673 -10.29045
 Alpha  occ. eigenvalues --  -10.28866 -10.28690 -10.28543 -10.28528 -10.28502
 Alpha  occ. eigenvalues --  -10.28441 -10.28303 -10.28211 -10.28147  -1.15074
 Alpha  occ. eigenvalues --   -0.98006  -0.97436  -0.89246  -0.87487  -0.87347
 Alpha  occ. eigenvalues --   -0.86785  -0.76878  -0.74222  -0.73485  -0.72535
 Alpha  occ. eigenvalues --   -0.68157  -0.65335  -0.63437  -0.60117  -0.57135
 Alpha  occ. eigenvalues --   -0.56394  -0.55750  -0.54302  -0.53985  -0.53572
 Alpha  occ. eigenvalues --   -0.52507  -0.49464  -0.47290  -0.46921  -0.46069
 Alpha  occ. eigenvalues --   -0.45785  -0.44800  -0.44397  -0.35240  -0.34616
 Alpha  occ. eigenvalues --   -0.34421  -0.34118  -0.32907
 Alpha virt. eigenvalues --   -0.00436   0.03546   0.03953   0.04334   0.04735
 Alpha virt. eigenvalues --    0.04799   0.04914   0.05731   0.05879   0.07177
 Alpha virt. eigenvalues --    0.07481   0.08145   0.09146   0.09635   0.10226
 Alpha virt. eigenvalues --    0.11566   0.11819   0.12348   0.13199   0.14192
 Alpha virt. eigenvalues --    0.15120   0.15482   0.15704   0.16155   0.16636
 Alpha virt. eigenvalues --    0.16908   0.16994   0.17307   0.17550   0.17892
 Alpha virt. eigenvalues --    0.18121   0.18611   0.18966   0.19109   0.19447
 Alpha virt. eigenvalues --    0.19844   0.20113   0.20722   0.21270   0.21545
 Alpha virt. eigenvalues --    0.21761   0.22223   0.22661   0.23387   0.23751
 Alpha virt. eigenvalues --    0.24381   0.24641   0.24691   0.25318   0.25527
 Alpha virt. eigenvalues --    0.25767   0.26911   0.27174   0.27725   0.28450
 Alpha virt. eigenvalues --    0.28944   0.29292   0.30037   0.30796   0.31062
 Alpha virt. eigenvalues --    0.31327   0.32346   0.32518   0.32973   0.33853
 Alpha virt. eigenvalues --    0.33954   0.34581   0.35499   0.35579   0.35640
 Alpha virt. eigenvalues --    0.36900   0.37242   0.37319   0.38133   0.38402
 Alpha virt. eigenvalues --    0.38817   0.39213   0.40720   0.41464   0.41664
 Alpha virt. eigenvalues --    0.42195   0.43046   0.43382   0.44666   0.45039
 Alpha virt. eigenvalues --    0.45583   0.45951   0.46924   0.47432   0.48166
 Alpha virt. eigenvalues --    0.50950   0.56378   0.57025   0.57960   0.59843
 Alpha virt. eigenvalues --    0.61032   0.62360   0.62712   0.63279   0.63618
 Alpha virt. eigenvalues --    0.64119   0.64391   0.65173   0.65434   0.65572
 Alpha virt. eigenvalues --    0.66598   0.67529   0.67804   0.68467   0.69787
 Alpha virt. eigenvalues --    0.70449   0.71781   0.72406   0.73804   0.74829
 Alpha virt. eigenvalues --    0.75211   0.76377   0.77172   0.77794   0.79078
 Alpha virt. eigenvalues --    0.79541   0.80556   0.81076   0.82277   0.82634
 Alpha virt. eigenvalues --    0.83389   0.83819   0.84614   0.87055   0.87656
 Alpha virt. eigenvalues --    0.88872   0.90325   0.92143   0.93331   0.93692
 Alpha virt. eigenvalues --    0.94149   0.94269   0.94897   0.95434   0.95700
 Alpha virt. eigenvalues --    0.96891   0.97262   0.99500   1.00437   1.01622
 Alpha virt. eigenvalues --    1.02012   1.02546   1.03797   1.04336   1.05614
 Alpha virt. eigenvalues --    1.06479   1.08215   1.10934   1.12081   1.13105
 Alpha virt. eigenvalues --    1.13887   1.16420   1.16930   1.17795   1.18359
 Alpha virt. eigenvalues --    1.19467   1.21314   1.22363   1.24486   1.25470
 Alpha virt. eigenvalues --    1.28234   1.30379   1.32762   1.36186   1.38916
 Alpha virt. eigenvalues --    1.39810   1.44067   1.46610   1.47831   1.55127
 Alpha virt. eigenvalues --    1.56772   1.58864   1.59523   1.59632   1.61820
 Alpha virt. eigenvalues --    1.62391   1.63832   1.64948   1.66195   1.66281
 Alpha virt. eigenvalues --    1.68033   1.68358   1.68781   1.69193   1.73294
 Alpha virt. eigenvalues --    1.75275   1.75941   1.76506   1.76648   1.78786
 Alpha virt. eigenvalues --    1.79522   1.81062   1.86156   1.86945   1.88767
 Alpha virt. eigenvalues --    1.88971   1.90979   1.92275   1.92527   1.94090
 Alpha virt. eigenvalues --    1.95973   1.96639   1.98231   1.99784   2.00628
 Alpha virt. eigenvalues --    2.01670   2.03004   2.04662   2.04979   2.05762
 Alpha virt. eigenvalues --    2.06189   2.06916   2.08666   2.10032   2.10389
 Alpha virt. eigenvalues --    2.11948   2.14355   2.15529   2.19334   2.21470
 Alpha virt. eigenvalues --    2.23038   2.25276   2.27503   2.27874   2.31178
 Alpha virt. eigenvalues --    2.31644   2.42621   2.44058   2.47230   2.48384
 Alpha virt. eigenvalues --    2.49222   2.50093   2.50838   2.51005   2.53385
 Alpha virt. eigenvalues --    2.58736   2.59400   2.61104   2.66731   2.68682
 Alpha virt. eigenvalues --    2.73804   2.77019   2.78282   2.81097   2.82352
 Alpha virt. eigenvalues --    2.83051   2.83506   2.83873   2.87460   2.89295
 Alpha virt. eigenvalues --    2.91508   2.92081   2.93846   2.94996   2.95467
 Alpha virt. eigenvalues --    2.97514   2.98158   2.98898   2.99787   3.00425
 Alpha virt. eigenvalues --    3.00527   3.01801   3.02098   3.02514   3.05064
 Alpha virt. eigenvalues --    3.05810   3.10247   3.13210   3.14163   3.16951
 Alpha virt. eigenvalues --    3.19916   3.21748   3.22660   3.25112   3.26025
 Alpha virt. eigenvalues --    3.28216   3.30948   3.32738   3.36621   3.44969
 Alpha virt. eigenvalues --    3.48506   3.50064   3.51588   3.53035   3.64751
 Alpha virt. eigenvalues --    3.69083   3.70868   3.72592   3.75220   3.77323
 Alpha virt. eigenvalues --    3.83321   3.89014   3.90670   3.98331   4.31192
 Alpha virt. eigenvalues --    4.36561   4.37741   4.39079   4.40692   4.42515
 Alpha virt. eigenvalues --    4.42748   4.50978   4.51516   4.53575   4.95157
 Alpha virt. eigenvalues --    4.95779   5.22703   5.35283   5.84531  23.87951
 Alpha virt. eigenvalues --   23.96462  23.98607  24.17123  24.18915  24.24199
 Alpha virt. eigenvalues --   24.24856  24.30149  24.31168  24.34030  24.34098
 Alpha virt. eigenvalues --   24.43672  24.44281  50.13857
          Condensed to atoms (all electrons):
               1          2          3          4          5          6
     1  C   14.976693  -0.768270   0.524107  -0.841786   0.001788  -6.240459
     2  C   -0.768270   9.891602  -3.738333  -0.078071   0.406191   0.224417
     3  C    0.524107  -3.738333  13.956559  -0.150788   0.037415  -5.221775
     4  C   -0.841786  -0.078071  -0.150788   6.030432  -0.070235   0.617822
     5  H    0.001788   0.406191   0.037415  -0.070235   0.534987  -0.026358
     6  C   -6.240459   0.224417  -5.221775   0.617822  -0.026358  20.933281
     7  C   -0.732248   0.556233  -1.029670  -0.074765   0.017409   0.823329
     8  H    0.119358   0.010984   0.483007  -0.005533   0.000049  -0.102368
     9  C   -0.190909  -0.680215   0.824918   0.450149  -0.041606  -0.613545
    10  H   -0.015738  -0.071363  -0.016814   0.481712  -0.008144   0.020400
    11  C   -2.252997   0.783736   0.836810   0.181076   0.035412  -4.133236
    12  O    0.177866   0.149466  -0.154599   0.020691  -0.008315   0.207258
    13  H   -0.002511   0.010133  -0.104131   0.017575   0.001781   0.027477
    14  H    0.041088  -0.006468   0.019900  -0.086953  -0.000546  -0.027935
    15  C    1.999142  -0.972990   0.994910  -0.239495  -0.071755  -1.157587
    16  C   -1.322372   0.292735  -0.622424   0.074472   0.012697   0.886112
    17  C   -0.012774  -0.018177  -0.368152  -0.049782  -0.014515   0.682638
    18  H    0.088027  -0.061298   0.105696  -0.061346  -0.024926  -0.077007
    19  C   -0.632030   0.195862  -0.049483   0.001583   0.004864  -0.058856
    20  H   -0.031948   0.012492  -0.045206   0.001317  -0.001045   0.043195
    21  C    0.193158  -0.178534   0.104339  -0.011884  -0.002856   0.121086
    22  H   -0.032255   0.020774  -0.014675   0.006610   0.002234   0.010540
    23  H   -0.001005   0.001702   0.003929  -0.000291   0.000534  -0.006677
    24  H    0.006542  -0.005591   0.002392  -0.000581  -0.000128  -0.001480
               7          8          9         10         11         12
     1  C   -0.732248   0.119358  -0.190909  -0.015738  -2.252997   0.177866
     2  C    0.556233   0.010984  -0.680215  -0.071363   0.783736   0.149466
     3  C   -1.029670   0.483007   0.824918  -0.016814   0.836810  -0.154599
     4  C   -0.074765  -0.005533   0.450149   0.481712   0.181076   0.020691
     5  H    0.017409   0.000049  -0.041606  -0.008144   0.035412  -0.008315
     6  C    0.823329  -0.102368  -0.613545   0.020400  -4.133236   0.207258
     7  C    6.555120  -0.156280   0.002928   0.016843  -0.192647  -0.048521
     8  H   -0.156280   0.485457   0.006473   0.000368  -0.021912  -0.012188
     9  C    0.002928   0.006473   5.957600  -0.067060   0.189841   0.011091
    10  H    0.016843   0.000368  -0.067060   0.487792   0.005577   0.000241
    11  C   -0.192647  -0.021912   0.189841   0.005577  13.819749   0.017728
    12  O   -0.048521  -0.012188   0.011091   0.000241   0.017728   7.945672
    13  H    0.497964  -0.016645  -0.092234   0.000418  -0.004548   0.000110
    14  H   -0.083048   0.002023   0.486618  -0.013902   0.001016   0.000084
    15  C   -0.154812   0.044714   0.103690  -0.014671  -1.571554  -0.114671
    16  C    0.211839  -0.052228  -0.070424   0.002535  -0.315837   0.031261
    17  C    0.077796  -0.009102  -0.069730   0.004743  -1.885508  -0.037454
    18  H    0.004269  -0.002245   0.021081  -0.004346  -0.058702   0.000395
    19  C    0.033775  -0.005776   0.000240  -0.000199  -0.009986   0.026010
    20  H   -0.001998  -0.001471  -0.000716  -0.000071   0.003445  -0.018027
    21  C    0.002061   0.000714  -0.005379   0.000818  -0.723520  -0.011455
    22  H   -0.000834   0.000012   0.000438   0.000124   0.078891   0.000368
    23  H    0.000192   0.000001   0.000201  -0.000006  -0.000824   0.002713
    24  H    0.000280  -0.000025  -0.000120   0.000001   0.001968  -0.000387
              13         14         15         16         17         18
     1  C   -0.002511   0.041088   1.999142  -1.322372  -0.012774   0.088027
     2  C    0.010133  -0.006468  -0.972990   0.292735  -0.018177  -0.061298
     3  C   -0.104131   0.019900   0.994910  -0.622424  -0.368152   0.105696
     4  C    0.017575  -0.086953  -0.239495   0.074472  -0.049782  -0.061346
     5  H    0.001781  -0.000546  -0.071755   0.012697  -0.014515  -0.024926
     6  C    0.027477  -0.027935  -1.157587   0.886112   0.682638  -0.077007
     7  C    0.497964  -0.083048  -0.154812   0.211839   0.077796   0.004269
     8  H   -0.016645   0.002023   0.044714  -0.052228  -0.009102  -0.002245
     9  C   -0.092234   0.486618   0.103690  -0.070424  -0.069730   0.021081
    10  H    0.000418  -0.013902  -0.014671   0.002535   0.004743  -0.004346
    11  C   -0.004548   0.001016  -1.571554  -0.315837  -1.885508  -0.058702
    12  O    0.000110   0.000084  -0.114671   0.031261  -0.037454   0.000395
    13  H    0.489945  -0.015589  -0.007899   0.007143   0.002616  -0.000495
    14  H   -0.015589   0.498446   0.003536  -0.002892  -0.001888  -0.000443
    15  C   -0.007899   0.003536  14.260536  -4.486187  -2.155776   0.664208
    16  C    0.007143  -0.002892  -4.486187   9.477845   1.426141  -0.064739
    17  C    0.002616  -0.001888  -2.155776   1.426141   8.361447  -0.161714
    18  H   -0.000495  -0.000443   0.664208  -0.064739  -0.161714   0.673129
    19  C    0.000253  -0.000232  -0.279120   0.490896  -0.534107   0.029629
    20  H   -0.000011   0.000013  -0.003774   0.447040   0.048215  -0.003657
    21  C    0.000243  -0.000185   0.405254  -0.660052   0.594937  -0.002994
    22  H   -0.000026   0.000063  -0.130684   0.045241   0.416696  -0.034801
    23  H   -0.000000   0.000004  -0.022550  -0.053806  -0.002287  -0.000871
    24  H    0.000013  -0.000008  -0.028689  -0.011637  -0.034999   0.000065
              19         20         21         22         23         24
     1  C   -0.632030  -0.031948   0.193158  -0.032255  -0.001005   0.006542
     2  C    0.195862   0.012492  -0.178534   0.020774   0.001702  -0.005591
     3  C   -0.049483  -0.045206   0.104339  -0.014675   0.003929   0.002392
     4  C    0.001583   0.001317  -0.011884   0.006610  -0.000291  -0.000581
     5  H    0.004864  -0.001045  -0.002856   0.002234   0.000534  -0.000128
     6  C   -0.058856   0.043195   0.121086   0.010540  -0.006677  -0.001480
     7  C    0.033775  -0.001998   0.002061  -0.000834   0.000192   0.000280
     8  H   -0.005776  -0.001471   0.000714   0.000012   0.000001  -0.000025
     9  C    0.000240  -0.000716  -0.005379   0.000438   0.000201  -0.000120
    10  H   -0.000199  -0.000071   0.000818   0.000124  -0.000006   0.000001
    11  C   -0.009986   0.003445  -0.723520   0.078891  -0.000824   0.001968
    12  O    0.026010  -0.018027  -0.011455   0.000368   0.002713  -0.000387
    13  H    0.000253  -0.000011   0.000243  -0.000026  -0.000000   0.000013
    14  H   -0.000232   0.000013  -0.000185   0.000063   0.000004  -0.000008
    15  C   -0.279120  -0.003774   0.405254  -0.130684  -0.022550  -0.028689
    16  C    0.490896   0.447040  -0.660052   0.045241  -0.053806  -0.011637
    17  C   -0.534107   0.048215   0.594937   0.416696  -0.002287  -0.034999
    18  H    0.029629  -0.003657  -0.002994  -0.034801  -0.000871   0.000065
    19  C    6.806341  -0.131619   0.102205   0.015429   0.505519  -0.099076
    20  H   -0.131619   0.464065   0.011406   0.000823  -0.014683   0.002046
    21  C    0.102205   0.011406   5.978063  -0.091893  -0.082079   0.523416
    22  H    0.015429   0.000823  -0.091893   0.496699   0.001520  -0.015034
    23  H    0.505519  -0.014683  -0.082079   0.001520   0.485384  -0.017095
    24  H   -0.099076   0.002046   0.523416  -0.015034  -0.017095   0.498869
 Mulliken charges:
               1
     1  C    0.949533
     2  C    0.022983
     3  C   -0.377932
     4  C   -0.211928
     5  H    0.215068
     6  C   -0.930269
     7  C   -0.325215
     8  H    0.232614
     9  C   -0.223327
    10  H    0.190741
    11  C    1.216024
    12  O   -0.185337
    13  H    0.188416
    14  H    0.187297
    15  C   -1.063776
    16  C    0.256641
    17  C   -0.259263
    18  H   -0.026916
    19  C   -0.412123
    20  H    0.220169
    21  C   -0.266869
    22  H    0.223740
    23  H    0.200473
    24  H    0.179258
 Sum of Mulliken charges =  -0.00000
 Mulliken charges with hydrogens summed into heavy atoms:
               1
     1  C    0.949533
     2  C    0.238051
     3  C   -0.145318
     4  C   -0.021187
     6  C   -0.930269
     7  C   -0.136800
     9  C   -0.036030
    11  C    1.216024
    12  O   -0.185337
    15  C   -1.090692
    16  C    0.476810
    17  C   -0.035523
    19  C   -0.211650
    21  C   -0.087611
 Electronic spatial extent (au):  <R**2>=           3017.6958
 Charge=             -0.0000 electrons
 Dipole moment (field-independent basis, Debye):
    X=             -0.1630    Y=             -2.9768    Z=             -1.5047  Tot=              3.3394
 Quadrupole moment (field-independent basis, Debye-Ang):
   XX=            -65.7561   YY=            -79.4880   ZZ=            -83.7860
   XY=             -1.0042   XZ=             -0.7106   YZ=             -7.4499
 Traceless Quadrupole moment (field-independent basis, Debye-Ang):
   XX=             10.5873   YY=             -3.1447   ZZ=             -7.4427
   XY=             -1.0042   XZ=             -0.7106   YZ=             -7.4499
 Octapole moment (field-independent basis, Debye-Ang**2):
  XXX=            -11.4220  YYY=            -19.4556  ZZZ=              3.5715  XYY=             -3.3055
  XXY=             -7.1403  XXZ=            -24.9413  XZZ=              6.3940  YZZ=              0.7905
  YYZ=             -8.2841  XYZ=             -5.9381
 Hexadecapole moment (field-independent basis, Debye-Ang**3):
 XXXX=          -2817.1652 YYYY=           -734.9482 ZZZZ=           -248.5065 XXXY=            -28.0723
 XXXZ=            -17.4404 YYYX=             -1.3383 YYYZ=            -35.0150 ZZZX=             -9.0823
 ZZZY=             -4.5233 XXYY=           -581.1081 XXZZ=           -586.1302 YYZZ=           -170.8859
 XXYZ=            -17.7995 YYXZ=              5.1175 ZZXY=              1.3535
 N-N= 7.837575045572D+02 E-N=-2.909642461459D+03  KE= 5.764206595435D+02
 No NMR shielding tensors so no spin-rotation constants.
 Leave Link  601 at Tue Nov 22 14:59:37 2022, MaxMem= 16106127360 cpu:               4.6 elap:               0.2
 (Enter /opt/ap/G16/B01/g16/l9999.exe)
 1\1\GINC-N19\SP\RwB97XD\6-311++G(d,p)\C13H10O1\ROOT\22-Nov-2022\0\\#P 
 wB97XD/6-311++G(d,p) scf=maxcycle=512\\_conf007.gjf nmol_natom 1_24\\0
 ,1\C\C,1,1.39746343\C,1,1.39996263,2,119.28066518\C,2,1.39288453,1,120
 .37436646,3,-0.51002981,0\H,2,0.95014703,1,119.82324024,3,179.45634896
 ,0\C,1,1.49653039,2,122.77761373,4,174.46828757,0\C,3,1.3870125,1,120.
 10017821,2,-0.37315804,0\H,3,0.9501092,1,119.95246451,2,179.5923884,0\
 C,7,1.38720039,3,120.16568731,1,1.0745106,0\H,4,0.95011919,2,120.18755
 644,1,-179.31195299,0\C,6,1.49516902,1,120.70972921,2,-55.,0\O,6,1.221
 50059,1,119.67074267,2,125.,0\H,7,0.94956661,3,119.91274826,1,-178.886
 36029,0\H,9,0.94992259,7,119.76037934,3,179.10763853,0\C,11,1.39713972
 ,6,122.62585705,1,30.97749054,0\C,11,1.40039562,6,117.74753532,1,-153.
 15467779,0\C,15,1.39455701,11,119.80747484,6,175.4763048,0\H,15,0.9496
 2854,11,120.10535689,6,-4.50802339,0\C,16,1.38466431,11,120.4617377,6,
 -176.88197195,0\H,16,0.9497464,11,119.75779177,6,3.14699974,0\C,17,1.3
 9088945,15,120.3475273,11,0.7973643,0\H,17,0.94984298,15,119.8156451,1
 1,-179.16676483,0\H,19,0.94974749,16,119.98566335,11,-178.40987425,0\H
 ,21,0.94938585,17,120.0744529,15,179.91636093,0\\Version=ES64L-G16RevB
 .01\State=1-A\HF=-576.4118214\RMSD=4.786e-09\Dipole=0.1999937,-1.01612
 74,0.8084925\Quadrupole=5.1993152,-6.9689513,1.769636,5.574502,0.72348
 37,3.0939859\PG=C01 [X(C13H10O1)]\\@


 When cryptography is outlawed, bayl bhgynjf jvyy unir cevinpl.
 Job cpu time:       0 days  0 hours 21 minutes 47.2 seconds.
 Elapsed time:       0 days  0 hours  0 minutes 41.2 seconds.
 File lengths (MBytes):  RWF=     78 Int=      0 D2E=      0 Chk=      9 Scr=      1
 Normal termination of Gaussian 16 at Tue Nov 22 14:59:37 2022.
