 Entering Gaussian System, Link 0=g16
 Input=_conf012.gjf
 Output=_conf012.log
 Initial command:
 /opt/ap/G16/B01/g16/l1.exe "/tmp2/scr/Gau-27235.inp" -scrdir="/tmp2/scr/"
 Entering Link 1 = /opt/ap/G16/B01/g16/l1.exe PID=     27236.
  
 Copyright (c) 1988-2017, Gaussian, Inc.  All Rights Reserved.
  
 This is part of the Gaussian(R) 16 program.  It is based on
 the Gaussian(R) 09 system (copyright 2009, Gaussian, Inc.),
 the Gaussian(R) 03 system (copyright 2003, Gaussian, Inc.),
 the Gaussian(R) 98 system (copyright 1998, Gaussian, Inc.),
 the Gaussian(R) 94 system (copyright 1995, Gaussian, Inc.),
 the Gaussian 92(TM) system (copyright 1992, Gaussian, Inc.),
 the Gaussian 90(TM) system (copyright 1990, Gaussian, Inc.),
 the Gaussian 88(TM) system (copyright 1988, Gaussian, Inc.),
 the Gaussian 86(TM) system (copyright 1986, Carnegie Mellon
 University), and the Gaussian 82(TM) system (copyright 1983,
 Carnegie Mellon University). Gaussian is a federally registered
 trademark of Gaussian, Inc.
  
 This software contains proprietary and confidential information,
 including trade secrets, belonging to Gaussian, Inc.
  
 This software is provided under written license and may be
 used, copied, transmitted, or stored only in accord with that
 written license.
  
 The following legend is applicable only to US Government
 contracts under FAR:
  
                    RESTRICTED RIGHTS LEGEND
  
 Use, reproduction and disclosure by the US Government is
 subject to restrictions as set forth in subparagraphs (a)
 and (c) of the Commercial Computer Software - Restricted
 Rights clause in FAR 52.227-19.
  
 Gaussian, Inc.
 340 Quinnipiac St., Bldg. 40, Wallingford CT 06492
  
  
 ---------------------------------------------------------------
 Warning -- This program may not be used in any manner that
 competes with the business of Gaussian, Inc. or will provide
 assistance to any competitor of Gaussian, Inc.  The licensee
 of this program is prohibited from giving any competitor of
 Gaussian, Inc. access to this program.  By using this program,
 the user acknowledges that Gaussian, Inc. is engaged in the
 business of creating and licensing software in the field of
 computational chemistry and represents and warrants to the
 licensee that it is not a competitor of Gaussian, Inc. and that
 it will not use this program in any manner prohibited above.
 ---------------------------------------------------------------
  

 Cite this work as:
 Gaussian 16, Revision B.01,
 M. J. Frisch, G. W. Trucks, H. B. Schlegel, G. E. Scuseria, 
 M. A. Robb, J. R. Cheeseman, G. Scalmani, V. Barone, 
 G. A. Petersson, H. Nakatsuji, X. Li, M. Caricato, A. V. Marenich, 
 J. Bloino, B. G. Janesko, R. Gomperts, B. Mennucci, H. P. Hratchian, 
 J. V. Ortiz, A. F. Izmaylov, J. L. Sonnenberg, D. Williams-Young, 
 F. Ding, F. Lipparini, F. Egidi, J. Goings, B. Peng, A. Petrone, 
 T. Henderson, D. Ranasinghe, V. G. Zakrzewski, J. Gao, N. Rega, 
 G. Zheng, W. Liang, M. Hada, M. Ehara, K. Toyota, R. Fukuda, 
 J. Hasegawa, M. Ishida, T. Nakajima, Y. Honda, O. Kitao, H. Nakai, 
 T. Vreven, K. Throssell, J. A. Montgomery, Jr., J. E. Peralta, 
 F. Ogliaro, M. J. Bearpark, J. J. Heyd, E. N. Brothers, K. N. Kudin, 
 V. N. Staroverov, T. A. Keith, R. Kobayashi, J. Normand, 
 K. Raghavachari, A. P. Rendell, J. C. Burant, S. S. Iyengar, 
 J. Tomasi, M. Cossi, J. M. Millam, M. Klene, C. Adamo, R. Cammi, 
 J. W. Ochterski, R. L. Martin, K. Morokuma, O. Farkas, 
 J. B. Foresman, and D. J. Fox, Gaussian, Inc., Wallingford CT, 2016.
 
 ******************************************
 Gaussian 16:  ES64L-G16RevB.01 20-Dec-2017
                22-Nov-2022 
 ******************************************
 %nprocshared=32
 Will use up to   32 processors via shared memory.
 %mem=120GB
 %chk=_conf012.chk
 ----------------------------------------
 #P wB97XD/6-311++G(d,p) scf=maxcycle=512
 ----------------------------------------
 1/38=1,172=1/1;
 2/12=2,17=6,18=5,40=1/2;
 3/5=4,6=6,7=1111,11=2,25=1,30=1,74=-58/1,2,3;
 4//1;
 5/5=2,7=512,38=5/2;
 6/7=2,8=2,9=2,10=2,28=1/1;
 99/5=1,9=1/99;
 Leave Link    1 at Tue Nov 22 15:00:17 2022, MaxMem= 16106127360 cpu:               2.4 elap:               0.1
 (Enter /opt/ap/G16/B01/g16/l101.exe)
 ----------------------------
 _conf012.gjf nmol_natom 1_24
 ----------------------------
 Symbolic Z-matrix:
 Charge =  0 Multiplicity = 1
 C
 C                    1     1.39746 
 C                    1     1.39996  2     119.28067 
 C                    2     1.39288  1     120.37437  3    -0.51003  0
 H                    2     0.95015  1     119.82324  3     179.45635  0
 C                    1     1.49653  2     122.77761  4     174.46829  0
 C                    3     1.38701  1     120.10018  2    -0.37316  0
 H                    3     0.95011  1     119.95246  2     179.59239  0
 C                    7     1.3872   3     120.16569  1     1.07451  0
 H                    4     0.95012  2     120.18756  1    -179.31195  0
 C                    6     1.49517  1     120.70973  2    -30.      0
 O                    6     1.2215   1     119.67074  2     150.     0
 H                    7     0.94957  3     119.91275  1    -178.88636  0
 H                    9     0.94992  7     119.76038  3     179.10764  0
 C                    11    1.39714  6     122.62586  1     30.97749  0
 C                    11    1.4004   6     117.74754  1    -153.15468  0
 C                    15    1.39456  11    119.80747  6     175.4763  0
 H                    15    0.94963  11    120.10536  6    -4.50802  0
 C                    16    1.38466  11    120.46174  6    -176.88197  0
 H                    16    0.94975  11    119.75779  6     3.147    0
 C                    17    1.39089  15    120.34753  11    0.79736  0
 H                    17    0.94984  15    119.81565  11   -179.16676  0
 H                    19    0.94975  16    119.98566  11   -178.40987  0
 H                    21    0.94939  17    120.07445  15    179.91636  0
 
 ITRead=  0  0  0  0  0  0  0  0  0  0  0  0  0  0  0  0  0  0  0  0
 ITRead=  0  0  0  0
 MicOpt= -1 -1 -1 -1 -1 -1 -1 -1 -1 -1 -1 -1 -1 -1 -1 -1 -1 -1 -1 -1
 MicOpt= -1 -1 -1 -1
 NAtoms=     24 NQM=       24 NQMF=       0 NMMI=      0 NMMIF=      0
                NMic=       0 NMicF=      0.
                    Isotopes and Nuclear Properties:
 (Nuclear quadrupole moments (NQMom) in fm**2, nuclear magnetic moments (NMagM)
  in nuclear magnetons)

  Atom         1           2           3           4           5           6           7           8           9          10
 IAtWgt=          12          12          12          12           1          12          12           1          12           1
 AtmWgt=  12.0000000  12.0000000  12.0000000  12.0000000   1.0078250  12.0000000  12.0000000   1.0078250  12.0000000   1.0078250
 NucSpn=           0           0           0           0           1           0           0           1           0           1
 AtZEff=  -0.0000000  -0.0000000  -0.0000000  -0.0000000  -0.0000000  -0.0000000  -0.0000000  -0.0000000  -0.0000000  -0.0000000
 NQMom=    0.0000000   0.0000000   0.0000000   0.0000000   0.0000000   0.0000000   0.0000000   0.0000000   0.0000000   0.0000000
 NMagM=    0.0000000   0.0000000   0.0000000   0.0000000   2.7928460   0.0000000   0.0000000   2.7928460   0.0000000   2.7928460
 AtZNuc=   6.0000000   6.0000000   6.0000000   6.0000000   1.0000000   6.0000000   6.0000000   1.0000000   6.0000000   1.0000000

  Atom        11          12          13          14          15          16          17          18          19          20
 IAtWgt=          12          16           1           1          12          12          12           1          12           1
 AtmWgt=  12.0000000  15.9949146   1.0078250   1.0078250  12.0000000  12.0000000  12.0000000   1.0078250  12.0000000   1.0078250
 NucSpn=           0           0           1           1           0           0           0           1           0           1
 AtZEff=  -0.0000000  -0.0000000  -0.0000000  -0.0000000  -0.0000000  -0.0000000  -0.0000000  -0.0000000  -0.0000000  -0.0000000
 NQMom=    0.0000000   0.0000000   0.0000000   0.0000000   0.0000000   0.0000000   0.0000000   0.0000000   0.0000000   0.0000000
 NMagM=    0.0000000   0.0000000   2.7928460   2.7928460   0.0000000   0.0000000   0.0000000   2.7928460   0.0000000   2.7928460
 AtZNuc=   6.0000000   8.0000000   1.0000000   1.0000000   6.0000000   6.0000000   6.0000000   1.0000000   6.0000000   1.0000000

  Atom        21          22          23          24
 IAtWgt=          12           1           1           1
 AtmWgt=  12.0000000   1.0078250   1.0078250   1.0078250
 NucSpn=           0           1           1           1
 AtZEff=  -0.0000000  -0.0000000  -0.0000000  -0.0000000
 NQMom=    0.0000000   0.0000000   0.0000000   0.0000000
 NMagM=    0.0000000   2.7928460   2.7928460   2.7928460
 AtZNuc=   6.0000000   1.0000000   1.0000000   1.0000000
 Leave Link  101 at Tue Nov 22 15:00:17 2022, MaxMem= 16106127360 cpu:               8.0 elap:               0.3
 (Enter /opt/ap/G16/B01/g16/l202.exe)
                          Input orientation:                          
 ---------------------------------------------------------------------
 Center     Atomic      Atomic             Coordinates (Angstroms)
 Number     Number       Type             X           Y           Z
 ---------------------------------------------------------------------
      1          6           0        0.000000    0.000000    0.000000
      2          6           0        0.000000    0.000000    1.397463
      3          6           0        1.221096    0.000000   -0.684705
      4          6           0        1.201650   -0.010697    2.101772
      5          1           0       -0.824276    0.007821    1.869996
      6          6           0       -1.253421   -0.110138   -0.810191
      7          6           0        2.414707    0.007815    0.021719
      8          1           0        1.232246   -0.005856   -1.634731
      9          6           0        2.403895   -0.006831    1.408800
     10          1           0        1.198494   -0.020531    3.051836
     11          6           0       -2.437074   -0.859370   -0.287556
     12          8           0       -1.310607    0.417553   -1.910344
     13          1           0        3.241298    0.023792   -0.445367
     14          1           0        3.224827   -0.014217    1.886678
     15          6           0       -2.734230   -0.942622    1.075076
     16          6           0       -3.317125   -1.421174   -1.220827
     17          6           0       -3.904324   -1.576569    1.491947
     18          1           0       -2.141353   -0.568458    1.715616
     19          6           0       -4.465107   -2.071248   -0.800309
     20          1           0       -3.124861   -1.356109   -2.148630
     21          6           0       -4.768467   -2.140688    0.559423
     22          1           0       -4.112358   -1.622827    2.417573
     23          1           0       -5.045674   -2.469440   -1.437808
     24          1           0       -5.563407   -2.572378    0.847604
 ---------------------------------------------------------------------
                    Distance matrix (angstroms):
                    1          2          3          4          5
     1  C    0.000000
     2  C    1.397463   0.000000
     3  C    1.399963   2.413814   0.000000
     4  C    2.421058   1.392885   2.786566   0.000000
     5  H    2.043619   0.950147   3.272630   2.039225   0.000000
     6  C    1.496530   2.541049   2.480142   3.810091   2.716889
     7  C    2.414817   2.779127   1.387013   2.408002   3.729228
     8  H    2.047146   3.273021   0.950109   3.736632   4.063567
     9  C    2.786301   2.403931   2.404542   1.387667   3.260982
    10  H    3.278797   2.042977   3.736665   0.950119   2.342893
    11  C    2.600103   3.084986   3.778683   4.435025   2.829871
    12  O    2.354029   3.582406   2.843600   4.753095   3.833454
    13  H    3.271839   3.728619   2.034469   3.263323   4.678681
    14  H    3.736210   3.261755   3.259932   2.034583   4.049198
    15  C    3.085505   2.910066   4.430572   4.172977   2.276657
    16  C    3.809655   4.458531   4.785667   5.783462   4.220132
    17  C    4.467127   4.211679   5.787340   5.375389   3.484237
    18  H    2.802120   2.238249   4.170221   3.411141   1.445899
    19  C    4.986757   5.390497   6.052796   6.691792   4.970786
    20  H    4.027455   4.917170   4.782201   6.212467   4.827251
    21  C    5.256784   5.293688   6.481147   6.523649   4.678711
    22  H    5.038821   4.537144   6.379923   5.562137   3.710840
    23  H    5.798643   6.292514   6.777736   7.589671   5.907504
    24  H    6.187654   6.153939   7.415833   7.341739   5.492001
                    6          7          8          9         10
     6  C    0.000000
     7  C    3.763130   0.000000
     8  H    2.620930   2.035246   0.000000
     9  C    4.279082   1.387200   3.261263   0.000000
    10  H    4.575496   3.265208   4.686711   2.037829   0.000000
    11  C    1.495169   4.938364   4.000908   5.199944   5.007249
    12  O    1.221501   4.216481   2.592554   4.999434   5.577699
    13  H    4.511488   0.949567   2.334899   2.034727   4.050363
    14  H    5.228480   2.033434   4.046081   0.949923   2.337447
    15  C    2.537727   5.340828   4.894233   5.233298   4.497127
    16  C    2.479176   6.036541   4.782386   6.453322   6.372461
    17  C    3.804937   6.678473   6.215110   6.501124   5.558171
    18  H    2.716281   4.894799   4.787746   4.590080   3.638720
    19  C    3.763108   7.233953   6.117347   7.505009   7.149884
    20  H    2.616515   6.103893   4.590386   6.711408   6.893476
    21  C    4.284219   7.516860   6.736496   7.531106   6.805278
    22  H    4.569487   7.141546   6.899315   6.789007   5.583439
    23  H    4.510144   7.995268   6.746874   8.346478   8.071164
    24  H    5.233249   8.425543   7.676582   8.388973   7.556048
                   11         12         13         14         15
    11  C    0.000000
    12  O    2.352211   0.000000
    13  H    5.748807   4.798025   0.000000
    14  H    6.123618   5.930764   2.332413   0.000000
    15  C    1.397140   3.576242   6.241205   6.085310   0.000000
    16  C    1.400396   2.807573   6.760338   7.377890   2.416598
    17  C    2.415332   4.720113   7.574579   7.309005   1.394557
    18  H    2.045674   3.848369   5.830398   5.397438   0.949629
    19  C    2.417537   4.168594   7.993989   8.401569   2.790484
    20  H    2.045335   2.548367   6.732994   7.642180   3.273506
    21  C    2.791872   4.959954   8.357686   8.377126   2.416481
    22  H    3.272181   5.544711   8.061267   7.530190   2.040640
    23  H    3.274172   4.744339   8.710629   9.245622   3.740125
    24  H    3.741249   5.884919   9.270097   9.211782   3.272933
                   16         17         18         19         20
    16  C    0.000000
    17  C    2.779944   0.000000
    18  H    3.276013   2.043131   0.000000
    19  C    1.384664   2.411145   3.740066   0.000000
    20  H    0.949746   3.729607   4.064490   2.031171   0.000000
    21  C    2.406945   1.390889   3.272678   1.394891   3.263520
    22  H    3.729747   0.949843   2.342925   3.268069   4.679370
    23  H    2.033181   3.268541   4.689659   0.949747   2.331159
    24  H    3.263351   2.039453   4.059507   2.042795   4.050092
                   21         22         23         24
    21  C    0.000000
    22  H    2.037493   0.000000
    23  H    2.043001   4.056081   0.000000
    24  H    0.949386   2.339229   2.345581   0.000000
 Stoichiometry    C13H10O
 Framework group  C1[X(C13H10O)]
 Deg. of freedom    66
 Full point group                 C1      NOp   1
 Largest Abelian subgroup         C1      NOp   1
 Largest concise Abelian subgroup C1      NOp   1
                         Standard orientation:                         
 ---------------------------------------------------------------------
 Center     Atomic      Atomic             Coordinates (Angstroms)
 Number     Number       Type             X           Y           Z
 ---------------------------------------------------------------------
      1          6           0        1.312450    0.353836    0.195990
      2          6           0        1.471855   -1.020246    0.394466
      3          6           0        2.394567    1.107939   -0.273314
      4          6           0        2.690833   -1.635020    0.118290
      5          1           0        0.744842   -1.538125    0.720094
      6          6           0       -0.002861    1.048786    0.359099
      7          6           0        3.611521    0.493696   -0.529306
      8          1           0        2.295094    2.041814   -0.417156
      9          6           0        3.755219   -0.873379   -0.342803
     10          1           0        2.793353   -2.571064    0.244924
     11          6           0       -1.285309    0.329375    0.088348
     12          8           0       -0.029558    2.216294    0.717253
     13          1           0        4.348260    1.010410   -0.832452
     14          1           0        4.587592   -1.290157   -0.532019
     15          6           0       -1.436377   -1.044263    0.294011
     16          6           0       -2.390972    1.093419   -0.305165
     17          6           0       -2.684551   -1.639218    0.112683
     18          1           0       -0.691414   -1.571333    0.556729
     19          6           0       -3.622400    0.493605   -0.507902
     20          1           0       -2.295244    2.029471   -0.434241
     21          6           0       -3.775686   -0.875248   -0.287752
     22          1           0       -2.790053   -2.570982    0.263967
     23          1           0       -4.362294    1.014422   -0.796568
     24          1           0       -4.623395   -1.284502   -0.411178
 ---------------------------------------------------------------------
 Rotational constants (GHZ):           1.7009353           0.4239451           0.3523374
 Leave Link  202 at Tue Nov 22 15:00:17 2022, MaxMem= 16106127360 cpu:               2.0 elap:               0.1
 (Enter /opt/ap/G16/B01/g16/l301.exe)
 Standard basis: 6-311++G(d,p) (5D, 7F)
 Ernie: Thresh=  0.10000D-02 Tol=  0.10000D-05 Strict=F.
 There are   392 symmetry adapted cartesian basis functions of A   symmetry.
 There are   378 symmetry adapted basis functions of A   symmetry.
   378 basis functions,   594 primitive gaussians,   392 cartesian basis functions
    48 alpha electrons       48 beta electrons
       nuclear repulsion energy       785.1549744924 Hartrees.
 IExCor= 4639 DFT=T Ex+Corr=wB97XD ExCW=0 ScaHFX=  1.000000
 ScaDFX=  1.000000  1.000000  1.000000  1.000000 ScalE2=  1.000000  1.000000
 IRadAn=      5 IRanWt=     -1 IRanGd=            0 ICorTp=0 IEmpDi=121
 HFx  wShort=  0.000000 wLong=  0.200000 cFull=  0.222036 cShort=  0.000000 cLong=  0.777964
 DFx  wShort=  0.000000 wLong=  0.200000 cFull=  0.000000 cShort=  0.000000 cLong=  1.000000
 NAtoms=   24 NActive=   24 NUniq=   24 SFac= 1.00D+00 NAtFMM=   60 NAOKFM=F Big=F
 Integral buffers will be    131072 words long.
 Raffenetti 2 integral format.
 Two-electron integral symmetry is turned on.
 R6Disp:  Grimme-D2 Dispersion energy=       -0.0138334188 Hartrees.
 Nuclear repulsion after empirical dispersion term =      785.1411410736 Hartrees.
 Leave Link  301 at Tue Nov 22 15:00:17 2022, MaxMem= 16106127360 cpu:               2.3 elap:               0.1
 (Enter /opt/ap/G16/B01/g16/l302.exe)
 NPDir=0 NMtPBC=     1 NCelOv=     1 NCel=       1 NClECP=     1 NCelD=      1
         NCelK=      1 NCelE2=     1 NClLst=     1 CellRange=     0.0.
 One-electron integrals computed using PRISM.
 One-electron integral symmetry used in STVInt
 NBasis=   378 RedAO= T EigKep=  2.28D-06  NBF=   378
 NBsUse=   375 1.00D-06 EigRej=  8.55D-07 NBFU=   375
 Precomputing XC quadrature grid using
 IXCGrd= 4 IRadAn=           5 IRanWt=          -1 IRanGd=           0 AccXCQ= 0.00D+00.
 Generated NRdTot=       0 NPtTot=           0 NUsed=           0 NTot=          32
 NSgBfM=   392   392   392   392   392 MxSgAt=    24 MxSgA2=    24.
 Leave Link  302 at Tue Nov 22 15:00:18 2022, MaxMem= 16106127360 cpu:               9.3 elap:               0.3
 (Enter /opt/ap/G16/B01/g16/l303.exe)
 DipDrv:  MaxL=1.
 Leave Link  303 at Tue Nov 22 15:00:18 2022, MaxMem= 16106127360 cpu:               1.7 elap:               0.1
 (Enter /opt/ap/G16/B01/g16/l401.exe)
 ExpMin= 3.60D-02 ExpMax= 8.59D+03 ExpMxC= 1.30D+03 IAcc=3 IRadAn=         5 AccDes= 0.00D+00
 Harris functional with IExCor= 4639 and IRadAn=       5 diagonalized for initial guess.
 HarFok:  IExCor= 4639 AccDes= 0.00D+00 IRadAn=         5 IDoV= 1 UseB2=F ITyADJ=14
 ICtDFT=  3500011 ScaDFX=  1.000000  1.000000  1.000000  1.000000
 FoFCou: FMM=F IPFlag=           0 FMFlag=      100000 FMFlg1=           0
         NFxFlg=           0 DoJE=T BraDBF=F KetDBF=T FulRan=T
         wScrn=  0.000000 ICntrl=       500 IOpCl=  0 I1Cent=   200000004 NGrid=           0
         NMat0=    1 NMatS0=      1 NMatT0=    0 NMatD0=    1 NMtDS0=    0 NMtDT0=    0
 Petite list used in FoFCou.
 Harris En= -550.887214057592    
 JPrj=0 DoOrth=F DoCkMO=F.
 Leave Link  401 at Tue Nov 22 15:00:19 2022, MaxMem= 16106127360 cpu:              41.9 elap:               1.4
 (Enter /opt/ap/G16/B01/g16/l502.exe)
 Integral symmetry usage will be decided dynamically.
 Closed shell SCF:
 Using DIIS extrapolation, IDIIS=  1040.
 NGot= 16106127360 LenX= 16105803762 LenY= 16105649657
 Requested convergence on RMS density matrix=1.00D-08 within 512 cycles.
 Requested convergence on MAX density matrix=1.00D-06.
 Requested convergence on             energy=1.00D-06.
 No special actions if energy rises.
 Fock matrices will be formed incrementally for  20 cycles.

 Cycle   1  Pass 1  IDiag  1:
 FoFJK:  IHMeth= 1 ICntrl=       0 DoSepK=T KAlg= 0 I1Cent=           0 FoldK=F
 IRaf=         1 NMat=       1 IRICut=       1 DoRegI=T DoRafI=F ISym2E= 0 IDoP0=0 IntGTp=1.
 FoFCou: FMM=F IPFlag=           0 FMFlag=      100000 FMFlg1=           0
         NFxFlg=           0 DoJE=T BraDBF=F KetDBF=F FulRan=T
         wScrn=  0.000000 ICntrl=       500 IOpCl=  0 I1Cent=           0 NGrid=           0
         NMat0=    1 NMatS0=      1 NMatT0=    0 NMatD0=    1 NMtDS0=    0 NMtDT0=    0
 Symmetry not used in FoFCou.
 E= -576.249475357264    
 DIIS: error= 5.69D-02 at cycle   1 NSaved=   1.
 NSaved= 1 IEnMin= 1 EnMin= -576.249475357264     IErMin= 1 ErrMin= 5.69D-02
 ErrMax= 5.69D-02  0.00D+00 EMaxC= 1.00D-01 BMatC= 1.19D+00 BMatP= 1.19D+00
 IDIUse=3 WtCom= 4.31D-01 WtEn= 5.69D-01
 Coeff-Com:  0.100D+01
 Coeff-En:   0.100D+01
 Coeff:      0.100D+01
 Gap=     0.403 Goal=   None    Shift=    0.000
 GapD=    0.403 DampG=2.000 DampE=0.500 DampFc=1.0000 IDamp=-1.
 RMSDP=3.99D-02 MaxDP=7.13D+00              OVMax= 1.29D-01

 Cycle   2  Pass 1  IDiag  1:
 RMSU=  1.22D-02    CP:  5.72D-01
 E= -576.338802657684     Delta-E=       -0.089327300420 Rises=F Damp=F
 DIIS: error= 1.51D-02 at cycle   2 NSaved=   2.
 NSaved= 2 IEnMin= 2 EnMin= -576.338802657684     IErMin= 2 ErrMin= 1.51D-02
 ErrMax= 1.51D-02  0.00D+00 EMaxC= 1.00D-01 BMatC= 7.49D-02 BMatP= 1.19D+00
 IDIUse=3 WtCom= 8.49D-01 WtEn= 1.51D-01
 Coeff-Com:  0.126D+00 0.874D+00
 Coeff-En:   0.143D+00 0.857D+00
 Coeff:      0.128D+00 0.872D+00
 Gap=     0.419 Goal=   None    Shift=    0.000
 RMSDP=9.50D-03 MaxDP=5.45D-01 DE=-8.93D-02 OVMax= 1.61D-01

 Cycle   3  Pass 1  IDiag  1:
 RMSU=  6.84D-03    CP:  5.97D-01  4.94D-01
 E= -576.355383195465     Delta-E=       -0.016580537781 Rises=F Damp=F
 DIIS: error= 1.54D-02 at cycle   3 NSaved=   3.
 NSaved= 3 IEnMin= 3 EnMin= -576.355383195465     IErMin= 2 ErrMin= 1.51D-02
 ErrMax= 1.54D-02  0.00D+00 EMaxC= 1.00D-01 BMatC= 5.49D-02 BMatP= 7.49D-02
 IDIUse=3 WtCom= 8.46D-01 WtEn= 1.54D-01
 Coeff-Com:  0.239D-01 0.464D+00 0.512D+00
 Coeff-En:   0.000D+00 0.430D+00 0.570D+00
 Coeff:      0.202D-01 0.459D+00 0.521D+00
 Gap=     0.346 Goal=   None    Shift=    0.000
 RMSDP=6.93D-03 MaxDP=8.01D-01 DE=-1.66D-02 OVMax= 6.21D-02

 Cycle   4  Pass 1  IDiag  1:
 RMSU=  1.96D-03    CP:  5.44D-01  7.62D-01  5.12D-01
 E= -576.403758618693     Delta-E=       -0.048375423228 Rises=F Damp=F
 DIIS: error= 1.98D-03 at cycle   4 NSaved=   4.
 NSaved= 4 IEnMin= 4 EnMin= -576.403758618693     IErMin= 4 ErrMin= 1.98D-03
 ErrMax= 1.98D-03  0.00D+00 EMaxC= 1.00D-01 BMatC= 9.23D-04 BMatP= 5.49D-02
 IDIUse=3 WtCom= 9.80D-01 WtEn= 1.98D-02
 Coeff-Com:  0.952D-02 0.198D+00 0.243D+00 0.549D+00
 Coeff-En:   0.000D+00 0.000D+00 0.000D+00 0.100D+01
 Coeff:      0.933D-02 0.194D+00 0.238D+00 0.558D+00
 Gap=     0.319 Goal=   None    Shift=    0.000
 RMSDP=5.28D-04 MaxDP=6.01D-02 DE=-4.84D-02 OVMax= 6.53D-03

 Cycle   5  Pass 1  IDiag  1:
 RMSU=  3.72D-04    CP:  5.42D-01  7.85D-01  5.14D-01  9.66D-01
 E= -576.404399303175     Delta-E=       -0.000640684482 Rises=F Damp=F
 DIIS: error= 4.92D-04 at cycle   5 NSaved=   5.
 NSaved= 5 IEnMin= 5 EnMin= -576.404399303175     IErMin= 5 ErrMin= 4.92D-04
 ErrMax= 4.92D-04  0.00D+00 EMaxC= 1.00D-01 BMatC= 8.13D-05 BMatP= 9.23D-04
 IDIUse=3 WtCom= 9.95D-01 WtEn= 4.92D-03
 Coeff-Com: -0.594D-03-0.849D-02-0.808D-04 0.216D+00 0.793D+00
 Coeff-En:   0.000D+00 0.000D+00 0.000D+00 0.000D+00 0.100D+01
 Coeff:     -0.591D-03-0.845D-02-0.804D-04 0.215D+00 0.794D+00
 Gap=     0.320 Goal=   None    Shift=    0.000
 RMSDP=4.66D-04 MaxDP=6.71D-02 DE=-6.41D-04 OVMax= 2.36D-03

 Cycle   6  Pass 1  IDiag  1:
 RMSU=  2.39D-04    CP:  5.38D-01  7.84D-01  5.35D-01  1.00D+00  6.34D-01
 E= -576.404461972149     Delta-E=       -0.000062668974 Rises=F Damp=F
 DIIS: error= 2.42D-04 at cycle   6 NSaved=   6.
 NSaved= 6 IEnMin= 6 EnMin= -576.404461972149     IErMin= 6 ErrMin= 2.42D-04
 ErrMax= 2.42D-04  0.00D+00 EMaxC= 1.00D-01 BMatC= 1.86D-05 BMatP= 8.13D-05
 IDIUse=3 WtCom= 9.98D-01 WtEn= 2.42D-03
 Coeff-Com: -0.123D-02-0.231D-01-0.225D-01 0.635D-01 0.432D+00 0.552D+00
 Coeff-En:   0.000D+00 0.000D+00 0.000D+00 0.000D+00 0.000D+00 0.100D+01
 Coeff:     -0.123D-02-0.231D-01-0.224D-01 0.634D-01 0.431D+00 0.553D+00
 Gap=     0.321 Goal=   None    Shift=    0.000
 RMSDP=1.18D-04 MaxDP=1.12D-02 DE=-6.27D-05 OVMax= 1.27D-03

 Cycle   7  Pass 1  IDiag  1:
 RMSU=  7.15D-05    CP:  5.38D-01  7.88D-01  5.31D-01  1.04D+00  6.82D-01
                    CP:  8.92D-01
 E= -576.404481151810     Delta-E=       -0.000019179660 Rises=F Damp=F
 DIIS: error= 6.60D-05 at cycle   7 NSaved=   7.
 NSaved= 7 IEnMin= 7 EnMin= -576.404481151810     IErMin= 7 ErrMin= 6.60D-05
 ErrMax= 6.60D-05  0.00D+00 EMaxC= 1.00D-01 BMatC= 4.68D-07 BMatP= 1.86D-05
 IDIUse=1 WtCom= 1.00D+00 WtEn= 0.00D+00
 Coeff-Com: -0.221D-03-0.425D-02-0.506D-02-0.108D-01-0.108D-01 0.104D+00
 Coeff-Com:  0.927D+00
 Coeff:     -0.221D-03-0.425D-02-0.506D-02-0.108D-01-0.108D-01 0.104D+00
 Coeff:      0.927D+00
 Gap=     0.321 Goal=   None    Shift=    0.000
 RMSDP=4.45D-05 MaxDP=5.57D-03 DE=-1.92D-05 OVMax= 5.36D-04

 Cycle   8  Pass 1  IDiag  1:
 RMSU=  1.39D-05    CP:  5.38D-01  7.89D-01  5.32D-01  1.04D+00  6.59D-01
                    CP:  1.01D+00  1.06D+00
 E= -576.404482306466     Delta-E=       -0.000001154656 Rises=F Damp=F
 DIIS: error= 1.49D-05 at cycle   8 NSaved=   8.
 NSaved= 8 IEnMin= 8 EnMin= -576.404482306466     IErMin= 8 ErrMin= 1.49D-05
 ErrMax= 1.49D-05  0.00D+00 EMaxC= 1.00D-01 BMatC= 7.97D-08 BMatP= 4.68D-07
 IDIUse=1 WtCom= 1.00D+00 WtEn= 0.00D+00
 Coeff-Com:  0.445D-04 0.624D-03 0.135D-03-0.121D-01-0.549D-01-0.217D-01
 Coeff-Com:  0.322D+00 0.766D+00
 Coeff:      0.445D-04 0.624D-03 0.135D-03-0.121D-01-0.549D-01-0.217D-01
 Coeff:      0.322D+00 0.766D+00
 Gap=     0.321 Goal=   None    Shift=    0.000
 RMSDP=1.18D-05 MaxDP=1.52D-03 DE=-1.15D-06 OVMax= 1.79D-04

 Cycle   9  Pass 1  IDiag  1:
 RMSU=  4.16D-06    CP:  5.38D-01  7.89D-01  5.33D-01  1.04D+00  6.55D-01
                    CP:  1.03D+00  1.08D+00  1.18D+00
 E= -576.404482454615     Delta-E=       -0.000000148150 Rises=F Damp=F
 DIIS: error= 5.58D-06 at cycle   9 NSaved=   9.
 NSaved= 9 IEnMin= 9 EnMin= -576.404482454615     IErMin= 9 ErrMin= 5.58D-06
 ErrMax= 5.58D-06  0.00D+00 EMaxC= 1.00D-01 BMatC= 5.45D-09 BMatP= 7.97D-08
 IDIUse=1 WtCom= 1.00D+00 WtEn= 0.00D+00
 Coeff-Com:  0.377D-04 0.662D-03 0.641D-03-0.869D-03-0.943D-02-0.158D-01
 Coeff-Com: -0.542D-01 0.153D+00 0.926D+00
 Coeff:      0.377D-04 0.662D-03 0.641D-03-0.869D-03-0.943D-02-0.158D-01
 Coeff:     -0.542D-01 0.153D+00 0.926D+00
 Gap=     0.321 Goal=   None    Shift=    0.000
 RMSDP=4.27D-06 MaxDP=4.27D-04 DE=-1.48D-07 OVMax= 7.53D-05

 Cycle  10  Pass 1  IDiag  1:
 RMSU=  2.05D-06    CP:  5.38D-01  7.89D-01  5.33D-01  1.04D+00  6.50D-01
                    CP:  1.04D+00  1.09D+00  1.33D+00  1.30D+00
 E= -576.404482468922     Delta-E=       -0.000000014306 Rises=F Damp=F
 DIIS: error= 1.22D-06 at cycle  10 NSaved=  10.
 NSaved=10 IEnMin=10 EnMin= -576.404482468922     IErMin=10 ErrMin= 1.22D-06
 ErrMax= 1.22D-06  0.00D+00 EMaxC= 1.00D-01 BMatC= 3.90D-10 BMatP= 5.45D-09
 IDIUse=1 WtCom= 1.00D+00 WtEn= 0.00D+00
 Coeff-Com: -0.162D-05 0.191D-05 0.278D-04 0.112D-02 0.383D-02 0.143D-02
 Coeff-Com: -0.259D-01-0.545D-01 0.744D-01 0.100D+01
 Coeff:     -0.162D-05 0.191D-05 0.278D-04 0.112D-02 0.383D-02 0.143D-02
 Coeff:     -0.259D-01-0.545D-01 0.744D-01 0.100D+01
 Gap=     0.321 Goal=   None    Shift=    0.000
 RMSDP=1.33D-06 MaxDP=1.38D-04 DE=-1.43D-08 OVMax= 1.72D-05

 Cycle  11  Pass 1  IDiag  1:
 RMSU=  7.29D-07    CP:  5.38D-01  7.89D-01  5.33D-01  1.04D+00  6.50D-01
                    CP:  1.04D+00  1.09D+00  1.36D+00  1.35D+00  1.15D+00
 E= -576.404482470015     Delta-E=       -0.000000001093 Rises=F Damp=F
 DIIS: error= 3.70D-07 at cycle  11 NSaved=  11.
 NSaved=11 IEnMin=11 EnMin= -576.404482470015     IErMin=11 ErrMin= 3.70D-07
 ErrMax= 3.70D-07  0.00D+00 EMaxC= 1.00D-01 BMatC= 6.94D-11 BMatP= 3.90D-10
 IDIUse=1 WtCom= 1.00D+00 WtEn= 0.00D+00
 Coeff-Com: -0.264D-05-0.368D-04-0.295D-04 0.465D-03 0.176D-02 0.135D-02
 Coeff-Com: -0.534D-02-0.294D-01-0.396D-01 0.318D+00 0.753D+00
 Coeff:     -0.264D-05-0.368D-04-0.295D-04 0.465D-03 0.176D-02 0.135D-02
 Coeff:     -0.534D-02-0.294D-01-0.396D-01 0.318D+00 0.753D+00
 Gap=     0.321 Goal=   None    Shift=    0.000
 RMSDP=3.40D-07 MaxDP=2.24D-05 DE=-1.09D-09 OVMax= 4.81D-06

 Cycle  12  Pass 1  IDiag  1:
 RMSU=  1.52D-07    CP:  5.38D-01  7.89D-01  5.33D-01  1.04D+00  6.50D-01
                    CP:  1.04D+00  1.09D+00  1.36D+00  1.37D+00  1.21D+00
                    CP:  1.13D+00
 E= -576.404482470156     Delta-E=       -0.000000000141 Rises=F Damp=F
 DIIS: error= 1.99D-07 at cycle  12 NSaved=  12.
 NSaved=12 IEnMin=12 EnMin= -576.404482470156     IErMin=12 ErrMin= 1.99D-07
 ErrMax= 1.99D-07  0.00D+00 EMaxC= 1.00D-01 BMatC= 6.70D-12 BMatP= 6.94D-11
 IDIUse=1 WtCom= 1.00D+00 WtEn= 0.00D+00
 Coeff-Com: -0.698D-08-0.512D-05-0.981D-05-0.109D-03-0.453D-03-0.105D-03
 Coeff-Com:  0.386D-02 0.584D-02-0.156D-01-0.122D+00 0.713D-01 0.106D+01
 Coeff:     -0.698D-08-0.512D-05-0.981D-05-0.109D-03-0.453D-03-0.105D-03
 Coeff:      0.386D-02 0.584D-02-0.156D-01-0.122D+00 0.713D-01 0.106D+01
 Gap=     0.321 Goal=   None    Shift=    0.000
 RMSDP=1.70D-07 MaxDP=1.04D-05 DE=-1.41D-10 OVMax= 2.94D-06

 Cycle  13  Pass 1  IDiag  1:
 RMSU=  7.50D-08    CP:  5.38D-01  7.89D-01  5.33D-01  1.04D+00  6.50D-01
                    CP:  1.04D+00  1.09D+00  1.35D+00  1.37D+00  1.24D+00
                    CP:  1.25D+00  1.30D+00
 E= -576.404482470179     Delta-E=       -0.000000000023 Rises=F Damp=F
 DIIS: error= 9.01D-08 at cycle  13 NSaved=  13.
 NSaved=13 IEnMin=13 EnMin= -576.404482470179     IErMin=13 ErrMin= 9.01D-08
 ErrMax= 9.01D-08  0.00D+00 EMaxC= 1.00D-01 BMatC= 1.46D-12 BMatP= 6.70D-12
 IDIUse=1 WtCom= 1.00D+00 WtEn= 0.00D+00
 Coeff-Com:  0.267D-06 0.226D-05 0.396D-06-0.842D-04-0.327D-03-0.200D-03
 Coeff-Com:  0.166D-02 0.481D-02-0.574D-03-0.713D-01-0.675D-01 0.337D+00
 Coeff-Com:  0.796D+00
 Coeff:      0.267D-06 0.226D-05 0.396D-06-0.842D-04-0.327D-03-0.200D-03
 Coeff:      0.166D-02 0.481D-02-0.574D-03-0.713D-01-0.675D-01 0.337D+00
 Coeff:      0.796D+00
 Gap=     0.321 Goal=   None    Shift=    0.000
 RMSDP=5.52D-08 MaxDP=5.49D-06 DE=-2.25D-11 OVMax= 1.18D-06

 Cycle  14  Pass 1  IDiag  1:
 RMSU=  2.47D-08    CP:  5.38D-01  7.89D-01  5.33D-01  1.04D+00  6.50D-01
                    CP:  1.04D+00  1.09D+00  1.35D+00  1.37D+00  1.24D+00
                    CP:  1.30D+00  1.39D+00  1.17D+00
 E= -576.404482470173     Delta-E=        0.000000000006 Rises=F Damp=F
 DIIS: error= 4.08D-08 at cycle  14 NSaved=  14.
 NSaved=14 IEnMin=13 EnMin= -576.404482470179     IErMin=14 ErrMin= 4.08D-08
 ErrMax= 4.08D-08  0.00D+00 EMaxC= 1.00D-01 BMatC= 2.68D-13 BMatP= 1.46D-12
 IDIUse=1 WtCom= 1.00D+00 WtEn= 0.00D+00
 Coeff-Com:  0.595D-07 0.170D-05 0.265D-05 0.660D-06 0.228D-04-0.318D-04
 Coeff-Com: -0.447D-03-0.110D-03 0.329D-02 0.941D-02-0.323D-01-0.158D+00
 Coeff-Com:  0.164D+00 0.101D+01
 Coeff:      0.595D-07 0.170D-05 0.265D-05 0.660D-06 0.228D-04-0.318D-04
 Coeff:     -0.447D-03-0.110D-03 0.329D-02 0.941D-02-0.323D-01-0.158D+00
 Coeff:      0.164D+00 0.101D+01
 Gap=     0.321 Goal=   None    Shift=    0.000
 RMSDP=3.22D-08 MaxDP=3.93D-06 DE= 5.91D-12 OVMax= 7.65D-07

 Cycle  15  Pass 1  IDiag  1:
 RMSU=  1.04D-08    CP:  5.38D-01  7.89D-01  5.33D-01  1.04D+00  6.51D-01
                    CP:  1.04D+00  1.09D+00  1.35D+00  1.37D+00  1.24D+00
                    CP:  1.30D+00  1.41D+00  1.48D+00  1.07D+00
 E= -576.404482470171     Delta-E=        0.000000000001 Rises=F Damp=F
 DIIS: error= 1.38D-08 at cycle  15 NSaved=  15.
 NSaved=15 IEnMin=13 EnMin= -576.404482470179     IErMin=15 ErrMin= 1.38D-08
 ErrMax= 1.38D-08  0.00D+00 EMaxC= 1.00D-01 BMatC= 5.87D-14 BMatP= 2.68D-13
 IDIUse=1 WtCom= 1.00D+00 WtEn= 0.00D+00
 Coeff-Com: -0.202D-07 0.284D-06 0.100D-05 0.143D-04 0.649D-04 0.255D-04
 Coeff-Com: -0.434D-03-0.822D-03 0.144D-02 0.159D-01 0.176D-02-0.116D+00
 Coeff-Com: -0.682D-01 0.388D+00 0.778D+00
 Coeff:     -0.202D-07 0.284D-06 0.100D-05 0.143D-04 0.649D-04 0.255D-04
 Coeff:     -0.434D-03-0.822D-03 0.144D-02 0.159D-01 0.176D-02-0.116D+00
 Coeff:     -0.682D-01 0.388D+00 0.778D+00
 Gap=     0.321 Goal=   None    Shift=    0.000
 RMSDP=8.02D-09 MaxDP=9.12D-07 DE= 1.36D-12 OVMax= 2.47D-07

 SCF Done:  E(RwB97XD) =  -576.404482470     A.U. after   15 cycles
            NFock= 15  Conv=0.80D-08     -V/T= 1.9999
 KE= 5.764744350245D+02 PE=-2.912442194953D+03 EE= 9.744221363849D+02
 Leave Link  502 at Tue Nov 22 15:00:58 2022, MaxMem= 16106127360 cpu:            1218.2 elap:              38.5
 (Enter /opt/ap/G16/B01/g16/l601.exe)
 Copying SCF densities to generalized density rwf, IOpCl= 0 IROHF=0.

 **********************************************************************

            Population analysis using the SCF Density.

 **********************************************************************

 Orbital symmetries:
       Occupied  (A) (A) (A) (A) (A) (A) (A) (A) (A) (A) (A) (A)
                 (A) (A) (A) (A) (A) (A) (A) (A) (A) (A) (A) (A)
                 (A) (A) (A) (A) (A) (A) (A) (A) (A) (A) (A) (A)
                 (A) (A) (A) (A) (A) (A) (A) (A) (A) (A) (A) (A)
       Virtual   (A) (A) (A) (A) (A) (A) (A) (A) (A) (A) (A) (A)
                 (A) (A) (A) (A) (A) (A) (A) (A) (A) (A) (A) (A)
                 (A) (A) (A) (A) (A) (A) (A) (A) (A) (A) (A) (A)
                 (A) (A) (A) (A) (A) (A) (A) (A) (A) (A) (A) (A)
                 (A) (A) (A) (A) (A) (A) (A) (A) (A) (A) (A) (A)
                 (A) (A) (A) (A) (A) (A) (A) (A) (A) (A) (A) (A)
                 (A) (A) (A) (A) (A) (A) (A) (A) (A) (A) (A) (A)
                 (A) (A) (A) (A) (A) (A) (A) (A) (A) (A) (A) (A)
                 (A) (A) (A) (A) (A) (A) (A) (A) (A) (A) (A) (A)
                 (A) (A) (A) (A) (A) (A) (A) (A) (A) (A) (A) (A)
                 (A) (A) (A) (A) (A) (A) (A) (A) (A) (A) (A) (A)
                 (A) (A) (A) (A) (A) (A) (A) (A) (A) (A) (A) (A)
                 (A) (A) (A) (A) (A) (A) (A) (A) (A) (A) (A) (A)
                 (A) (A) (A) (A) (A) (A) (A) (A) (A) (A) (A) (A)
                 (A) (A) (A) (A) (A) (A) (A) (A) (A) (A) (A) (A)
                 (A) (A) (A) (A) (A) (A) (A) (A) (A) (A) (A) (A)
                 (A) (A) (A) (A) (A) (A) (A) (A) (A) (A) (A) (A)
                 (A) (A) (A) (A) (A) (A) (A) (A) (A) (A) (A) (A)
                 (A) (A) (A) (A) (A) (A) (A) (A) (A) (A) (A) (A)
                 (A) (A) (A) (A) (A) (A) (A) (A) (A) (A) (A) (A)
                 (A) (A) (A) (A) (A) (A) (A) (A) (A) (A) (A) (A)
                 (A) (A) (A) (A) (A) (A) (A) (A) (A) (A) (A) (A)
                 (A) (A) (A) (A) (A) (A) (A) (A) (A) (A) (A) (A)
                 (A) (A) (A) (A) (A) (A) (A) (A) (A) (A) (A) (A)
                 (A) (A) (A) (A) (A) (A) (A) (A) (A) (A) (A) (A)
                 (A) (A) (A) (A) (A) (A) (A) (A) (A) (A) (A) (A)
                 (A) (A) (A) (A) (A) (A) (A) (A) (A) (A) (A) (A)
                 (A) (A) (A)
 The electronic state is 1-A.
 Alpha  occ. eigenvalues --  -19.23837 -10.38267 -10.30635 -10.30630 -10.28921
 Alpha  occ. eigenvalues --  -10.28878 -10.28629 -10.28520 -10.28502 -10.28501
 Alpha  occ. eigenvalues --  -10.28434 -10.28432 -10.28261 -10.28195  -1.14922
 Alpha  occ. eigenvalues --   -0.98113  -0.97419  -0.89490  -0.87563  -0.87340
 Alpha  occ. eigenvalues --   -0.86650  -0.76986  -0.74828  -0.73322  -0.72415
 Alpha  occ. eigenvalues --   -0.68277  -0.65024  -0.64248  -0.59694  -0.57509
 Alpha  occ. eigenvalues --   -0.56396  -0.55806  -0.54625  -0.53700  -0.52775
 Alpha  occ. eigenvalues --   -0.52242  -0.50096  -0.47673  -0.46884  -0.46057
 Alpha  occ. eigenvalues --   -0.45433  -0.44914  -0.43867  -0.35132  -0.34973
 Alpha  occ. eigenvalues --   -0.34259  -0.33907  -0.33158
 Alpha virt. eigenvalues --   -0.01085   0.03391   0.03719   0.04304   0.04850
 Alpha virt. eigenvalues --    0.04899   0.05256   0.05774   0.05975   0.07536
 Alpha virt. eigenvalues --    0.07801   0.08580   0.09665   0.10142   0.10661
 Alpha virt. eigenvalues --    0.11264   0.11794   0.12629   0.13393   0.14426
 Alpha virt. eigenvalues --    0.14967   0.15190   0.15992   0.16213   0.16799
 Alpha virt. eigenvalues --    0.16926   0.17154   0.17371   0.17641   0.18252
 Alpha virt. eigenvalues --    0.18451   0.18738   0.19461   0.19741   0.19894
 Alpha virt. eigenvalues --    0.20047   0.20262   0.20346   0.20981   0.21566
 Alpha virt. eigenvalues --    0.22398   0.22494   0.23077   0.23532   0.24050
 Alpha virt. eigenvalues --    0.24261   0.24616   0.25269   0.25611   0.26109
 Alpha virt. eigenvalues --    0.26351   0.27279   0.27369   0.28567   0.28791
 Alpha virt. eigenvalues --    0.29594   0.30317   0.30897   0.31153   0.31310
 Alpha virt. eigenvalues --    0.32274   0.32586   0.33477   0.34019   0.34311
 Alpha virt. eigenvalues --    0.34832   0.35008   0.35420   0.35744   0.35938
 Alpha virt. eigenvalues --    0.36541   0.36947   0.38190   0.38708   0.38854
 Alpha virt. eigenvalues --    0.39150   0.40808   0.41095   0.41969   0.42561
 Alpha virt. eigenvalues --    0.42779   0.42920   0.44151   0.44404   0.45751
 Alpha virt. eigenvalues --    0.45774   0.47372   0.47508   0.49701   0.53695
 Alpha virt. eigenvalues --    0.56282   0.57755   0.58038   0.58781   0.60871
 Alpha virt. eigenvalues --    0.61753   0.62742   0.63136   0.63452   0.63999
 Alpha virt. eigenvalues --    0.64485   0.64786   0.65190   0.65260   0.66169
 Alpha virt. eigenvalues --    0.67287   0.68160   0.68474   0.69103   0.70163
 Alpha virt. eigenvalues --    0.72048   0.72861   0.73544   0.73984   0.75481
 Alpha virt. eigenvalues --    0.75732   0.76435   0.77290   0.78548   0.80305
 Alpha virt. eigenvalues --    0.81299   0.81450   0.82557   0.82957   0.83643
 Alpha virt. eigenvalues --    0.83875   0.85600   0.86172   0.87537   0.90462
 Alpha virt. eigenvalues --    0.90569   0.92722   0.93351   0.93757   0.94426
 Alpha virt. eigenvalues --    0.94683   0.95457   0.95696   0.95877   0.96874
 Alpha virt. eigenvalues --    0.98977   0.99955   1.01115   1.01478   1.02288
 Alpha virt. eigenvalues --    1.02659   1.03260   1.04942   1.05479   1.08038
 Alpha virt. eigenvalues --    1.09635   1.11339   1.11968   1.13178   1.13643
 Alpha virt. eigenvalues --    1.15587   1.16896   1.17581   1.17936   1.19241
 Alpha virt. eigenvalues --    1.19807   1.22121   1.25228   1.27493   1.28779
 Alpha virt. eigenvalues --    1.29096   1.31325   1.36259   1.36992   1.39382
 Alpha virt. eigenvalues --    1.43974   1.45628   1.47145   1.54509   1.56702
 Alpha virt. eigenvalues --    1.57980   1.58186   1.59660   1.60732   1.61979
 Alpha virt. eigenvalues --    1.62685   1.64432   1.65665   1.67265   1.67956
 Alpha virt. eigenvalues --    1.68236   1.68542   1.68640   1.71134   1.74067
 Alpha virt. eigenvalues --    1.75802   1.76278   1.76724   1.78490   1.81463
 Alpha virt. eigenvalues --    1.82454   1.84442   1.87296   1.88905   1.90014
 Alpha virt. eigenvalues --    1.90940   1.91925   1.92891   1.94327   1.95181
 Alpha virt. eigenvalues --    1.96940   1.98988   2.00686   2.01076   2.01656
 Alpha virt. eigenvalues --    2.03389   2.04775   2.05239   2.05377   2.05900
 Alpha virt. eigenvalues --    2.06755   2.08726   2.09220   2.10649   2.11190
 Alpha virt. eigenvalues --    2.14733   2.18006   2.19762   2.21761   2.24871
 Alpha virt. eigenvalues --    2.25634   2.27579   2.29165   2.31461   2.34573
 Alpha virt. eigenvalues --    2.42913   2.44332   2.46893   2.47863   2.48421
 Alpha virt. eigenvalues --    2.50192   2.51167   2.51587   2.55600   2.58102
 Alpha virt. eigenvalues --    2.59522   2.60875   2.64680   2.69625   2.72937
 Alpha virt. eigenvalues --    2.76431   2.76751   2.79051   2.80673   2.82416
 Alpha virt. eigenvalues --    2.84217   2.85534   2.85941   2.90974   2.91529
 Alpha virt. eigenvalues --    2.92174   2.92666   2.94282   2.96568   2.97940
 Alpha virt. eigenvalues --    2.98345   2.99407   2.99856   3.00505   3.00785
 Alpha virt. eigenvalues --    3.01891   3.02695   3.04770   3.06620   3.07448
 Alpha virt. eigenvalues --    3.09387   3.12930   3.14586   3.19506   3.20808
 Alpha virt. eigenvalues --    3.20866   3.24173   3.25282   3.26086   3.30996
 Alpha virt. eigenvalues --    3.31341   3.36876   3.38770   3.45073   3.48398
 Alpha virt. eigenvalues --    3.50538   3.51664   3.55052   3.67582   3.68454
 Alpha virt. eigenvalues --    3.70299   3.73121   3.74588   3.76791   3.84445
 Alpha virt. eigenvalues --    3.88310   3.94654   3.95548   4.30928   4.36280
 Alpha virt. eigenvalues --    4.38030   4.39686   4.40272   4.41047   4.49361
 Alpha virt. eigenvalues --    4.50162   4.54873   4.62610   4.95384   4.95704
 Alpha virt. eigenvalues --    5.20435   5.35568   5.85203  23.86307  23.97218
 Alpha virt. eigenvalues --   23.98836  24.17119  24.18023  24.23422  24.25767
 Alpha virt. eigenvalues --   24.29916  24.31781  24.33856  24.34842  24.43565
 Alpha virt. eigenvalues --   24.44407  50.15075
          Condensed to atoms (all electrons):
               1          2          3          4          5          6
     1  C   15.965186   2.071278  -1.614818  -1.086349   0.011282  -9.703864
     2  C    2.071278   9.684379  -1.986224  -1.202920   0.477198  -2.536897
     3  C   -1.614818  -1.986224   8.357124   1.027149  -0.041965  -0.078480
     4  C   -1.086349  -1.202920   1.027149   6.868713  -0.056510   0.419372
     5  H    0.011282   0.477198  -0.041965  -0.056510   0.748456   0.227521
     6  C   -9.703864  -2.536897  -0.078480   0.419372   0.227521  25.970829
     7  C   -0.592084   0.562213  -0.105940  -0.564295   0.053321   0.260521
     8  H    0.045282   0.037919   0.399949   0.018902   0.002289   0.018405
     9  C   -0.067394  -0.397276  -0.145853   0.671751  -0.058719  -0.086906
    10  H    0.027671  -0.076446   0.018590   0.432069  -0.026997   0.006546
    11  C    0.975475  -0.006995   0.948543   0.145494  -0.342780  -9.080611
    12  O    0.099088   0.000676   0.016915  -0.002084  -0.014440   0.069354
    13  H   -0.012179   0.004737  -0.064020  -0.002133  -0.000003   0.003800
    14  H    0.041544  -0.019673   0.004875  -0.062488  -0.002746  -0.022973
    15  C   -1.492435   1.022929  -0.828955  -0.039680  -0.096737   0.821759
    16  C    0.807999  -0.719839   0.205013  -0.150623   0.021665  -0.514558
    17  C   -0.151412  -0.238850  -0.237620  -0.190606   0.147400   0.874600
    18  H   -0.033760  -0.055801   0.076971  -0.037113  -0.178656  -0.209831
    19  C   -0.414673  -0.035365   0.204369   0.017995  -0.040784   0.272096
    20  H   -0.053431   0.003852  -0.023781  -0.002665  -0.000623   0.018012
    21  C   -0.091476   0.040867  -0.067959  -0.013212   0.036190   0.218188
    22  H    0.001965   0.001014  -0.001180   0.001747   0.010274   0.008456
    23  H    0.007834  -0.002381   0.005500  -0.000065   0.000327   0.004825
    24  H   -0.001467  -0.000505  -0.001875  -0.000248   0.000597  -0.013261
               7          8          9         10         11         12
     1  C   -0.592084   0.045282  -0.067394   0.027671   0.975475   0.099088
     2  C    0.562213   0.037919  -0.397276  -0.076446  -0.006995   0.000676
     3  C   -0.105940   0.399949  -0.145853   0.018590   0.948543   0.016915
     4  C   -0.564295   0.018902   0.671751   0.432069   0.145494  -0.002084
     5  H    0.053321   0.002289  -0.058719  -0.026997  -0.342780  -0.014440
     6  C    0.260521   0.018405  -0.086906   0.006546  -9.080611   0.069354
     7  C    6.409653  -0.109585   0.221123  -0.002236  -0.292709  -0.008047
     8  H   -0.109585   0.462724   0.000408   0.000386  -0.055891  -0.006840
     9  C    0.221123   0.000408   5.592239  -0.068837   0.111358   0.006260
    10  H   -0.002236   0.000386  -0.068837   0.493434   0.006977   0.000456
    11  C   -0.292709  -0.055891   0.111358   0.006977  15.000147   0.135628
    12  O   -0.008047  -0.006840   0.006260   0.000456   0.135628   8.008591
    13  H    0.481544  -0.014683  -0.072503   0.000391   0.005513   0.000898
    14  H   -0.086634   0.001137   0.493791  -0.012726   0.003389   0.000089
    15  C    0.047521   0.004554   0.041126  -0.002072   0.793652  -0.095711
    16  C    0.109216  -0.012555  -0.036690  -0.000376  -1.268945   0.030514
    17  C    0.023441  -0.002981  -0.029051  -0.004597  -1.998514  -0.022362
    18  H    0.005456  -0.003203   0.007957   0.007372   0.312309   0.000198
    19  C    0.018870  -0.000009   0.002507   0.000197  -0.289407  -0.002755
    20  H    0.000442  -0.001088  -0.000369  -0.000064   0.051563  -0.013103
    21  C    0.002445  -0.000219  -0.002976  -0.000176  -0.243451  -0.003626
    22  H   -0.001098   0.000025   0.000927  -0.000440   0.016068   0.000425
    23  H    0.000246   0.000024   0.000027  -0.000003  -0.007186   0.001304
    24  H    0.000109  -0.000043  -0.000058   0.000003   0.030860  -0.000141
              13         14         15         16         17         18
     1  C   -0.012179   0.041544  -1.492435   0.807999  -0.151412  -0.033760
     2  C    0.004737  -0.019673   1.022929  -0.719839  -0.238850  -0.055801
     3  C   -0.064020   0.004875  -0.828955   0.205013  -0.237620   0.076971
     4  C   -0.002133  -0.062488  -0.039680  -0.150623  -0.190606  -0.037113
     5  H   -0.000003  -0.002746  -0.096737   0.021665   0.147400  -0.178656
     6  C    0.003800  -0.022973   0.821759  -0.514558   0.874600  -0.209831
     7  C    0.481544  -0.086634   0.047521   0.109216   0.023441   0.005456
     8  H   -0.014683   0.001137   0.004554  -0.012555  -0.002981  -0.003203
     9  C   -0.072503   0.493791   0.041126  -0.036690  -0.029051   0.007957
    10  H    0.000391  -0.012726  -0.002072  -0.000376  -0.004597   0.007372
    11  C    0.005513   0.003389   0.793652  -1.268945  -1.998514   0.312309
    12  O    0.000898   0.000089  -0.095711   0.030514  -0.022362   0.000198
    13  H    0.486210  -0.015652  -0.003189   0.003534  -0.000211   0.000833
    14  H   -0.015652   0.497168  -0.000942  -0.000864  -0.000409  -0.000330
    15  C   -0.003189  -0.000942   9.135756  -1.993529  -1.308643   0.647418
    16  C    0.003534  -0.000864  -1.993529   8.451132   1.303422  -0.024503
    17  C   -0.000211  -0.000409  -1.308643   1.303422   7.726133  -0.322975
    18  H    0.000833  -0.000330   0.647418  -0.024503  -0.322975   0.842075
    19  C    0.000144  -0.000080   0.634112  -0.489520  -0.710192   0.140159
    20  H   -0.000003  -0.000029   0.037369   0.401337   0.032447  -0.001673
    21  C    0.000033  -0.000096  -0.518245  -0.195191   0.888892  -0.108746
    22  H   -0.000032   0.000057  -0.074656   0.018963   0.419627  -0.039777
    23  H    0.000009   0.000004   0.001293  -0.056553  -0.009594   0.000921
    24  H    0.000005  -0.000005  -0.027303   0.008622  -0.049710  -0.005180
              19         20         21         22         23         24
     1  C   -0.414673  -0.053431  -0.091476   0.001965   0.007834  -0.001467
     2  C   -0.035365   0.003852   0.040867   0.001014  -0.002381  -0.000505
     3  C    0.204369  -0.023781  -0.067959  -0.001180   0.005500  -0.001875
     4  C    0.017995  -0.002665  -0.013212   0.001747  -0.000065  -0.000248
     5  H   -0.040784  -0.000623   0.036190   0.010274   0.000327   0.000597
     6  C    0.272096   0.018012   0.218188   0.008456   0.004825  -0.013261
     7  C    0.018870   0.000442   0.002445  -0.001098   0.000246   0.000109
     8  H   -0.000009  -0.001088  -0.000219   0.000025   0.000024  -0.000043
     9  C    0.002507  -0.000369  -0.002976   0.000927   0.000027  -0.000058
    10  H    0.000197  -0.000064  -0.000176  -0.000440  -0.000003   0.000003
    11  C   -0.289407   0.051563  -0.243451   0.016068  -0.007186   0.030860
    12  O   -0.002755  -0.013103  -0.003626   0.000425   0.001304  -0.000141
    13  H    0.000144  -0.000003   0.000033  -0.000032   0.000009   0.000005
    14  H   -0.000080  -0.000029  -0.000096   0.000057   0.000004  -0.000005
    15  C    0.634112   0.037369  -0.518245  -0.074656   0.001293  -0.027303
    16  C   -0.489520   0.401337  -0.195191   0.018963  -0.056553   0.008622
    17  C   -0.710192   0.032447   0.888892   0.419627  -0.009594  -0.049710
    18  H    0.140159  -0.001673  -0.108746  -0.039777   0.000921  -0.005180
    19  C    6.745941  -0.138943   0.175948  -0.004504   0.476144  -0.092524
    20  H   -0.138943   0.464341   0.017262   0.000376  -0.013938   0.002042
    21  C    0.175948   0.017262   5.664914  -0.057444  -0.074944   0.497668
    22  H   -0.004504   0.000376  -0.057444   0.496757   0.000276  -0.012061
    23  H    0.476144  -0.013938  -0.074944   0.000276   0.481824  -0.014418
    24  H   -0.092524   0.002042   0.497668  -0.012061  -0.014418   0.496804
 Mulliken charges:
               1
     1  C    1.260736
     2  C   -0.627888
     3  C   -0.066327
     4  C   -0.192201
     5  H    0.124440
     6  C   -0.946903
     7  C   -0.433492
     8  H    0.215093
     9  C   -0.182842
    10  H    0.200877
    11  C    1.049514
    12  O   -0.201288
    13  H    0.196958
    14  H    0.183593
    15  C   -0.705391
    16  C    0.102329
    17  C   -0.138235
    18  H   -0.020122
    19  C   -0.469724
    20  H    0.220667
    21  C   -0.164646
    22  H    0.214239
    23  H    0.198525
    24  H    0.182089
 Sum of Mulliken charges =  -0.00000
 Mulliken charges with hydrogens summed into heavy atoms:
               1
     1  C    1.260736
     2  C   -0.503448
     3  C    0.148766
     4  C    0.008675
     6  C   -0.946903
     7  C   -0.236534
     9  C    0.000751
    11  C    1.049514
    12  O   -0.201288
    15  C   -0.725513
    16  C    0.322995
    17  C    0.076004
    19  C   -0.271199
    21  C    0.017443
 Electronic spatial extent (au):  <R**2>=           3032.2264
 Charge=              0.0000 electrons
 Dipole moment (field-independent basis, Debye):
    X=              0.0033    Y=             -3.0553    Z=             -1.1959  Tot=              3.2810
 Quadrupole moment (field-independent basis, Debye-Ang):
   XX=            -64.3311   YY=            -78.8829   ZZ=            -85.0972
   XY=              0.0316   XZ=             -0.3798   YZ=             -5.8520
 Traceless Quadrupole moment (field-independent basis, Debye-Ang):
   XX=             11.7727   YY=             -2.7792   ZZ=             -8.9935
   XY=              0.0316   XZ=             -0.3798   YZ=             -5.8520
 Octapole moment (field-independent basis, Debye-Ang**2):
  XXX=             -2.5217  YYY=            -22.2680  ZZZ=              3.5686  XYY=              0.4648
  XXY=             -1.7952  XXZ=            -21.7432  XZZ=              0.3982  YZZ=              2.7933
  YYZ=             -6.7860  XYZ=              0.4947
 Hexadecapole moment (field-independent basis, Debye-Ang**3):
 XXXX=          -2815.4491 YYYY=           -777.1532 ZZZZ=           -171.8763 XXXY=              0.5379
 XXXZ=             -8.5948 YYYX=             -0.4403 YYYZ=            -31.5896 ZZZX=             -1.1894
 ZZZY=              2.1208 XXYY=           -588.2434 XXZZ=           -601.6019 YYZZ=           -167.8882
 XXYZ=            -14.3994 YYXZ=             -1.2542 ZZXY=             -0.6768
 N-N= 7.851411410736D+02 E-N=-2.912442194802D+03  KE= 5.764744350245D+02
 No NMR shielding tensors so no spin-rotation constants.
 Leave Link  601 at Tue Nov 22 15:00:58 2022, MaxMem= 16106127360 cpu:               5.9 elap:               0.2
 (Enter /opt/ap/G16/B01/g16/l9999.exe)
 1\1\GINC-N13\SP\RwB97XD\6-311++G(d,p)\C13H10O1\ROOT\22-Nov-2022\0\\#P 
 wB97XD/6-311++G(d,p) scf=maxcycle=512\\_conf012.gjf nmol_natom 1_24\\0
 ,1\C\C,1,1.39746343\C,1,1.39996263,2,119.28066518\C,2,1.39288453,1,120
 .37436646,3,-0.51002981,0\H,2,0.95014703,1,119.82324024,3,179.45634896
 ,0\C,1,1.49653039,2,122.77761373,4,174.46828757,0\C,3,1.3870125,1,120.
 10017821,2,-0.37315804,0\H,3,0.9501092,1,119.95246451,2,179.5923884,0\
 C,7,1.38720039,3,120.16568731,1,1.0745106,0\H,4,0.95011919,2,120.18755
 644,1,-179.31195299,0\C,6,1.49516902,1,120.70972921,2,-30.,0\O,6,1.221
 50059,1,119.67074267,2,150.,0\H,7,0.94956661,3,119.91274826,1,-178.886
 36029,0\H,9,0.94992259,7,119.76037934,3,179.10763853,0\C,11,1.39713972
 ,6,122.62585705,1,30.97749054,0\C,11,1.40039562,6,117.74753532,1,-153.
 15467779,0\C,15,1.39455701,11,119.80747484,6,175.4763048,0\H,15,0.9496
 2854,11,120.10535689,6,-4.50802339,0\C,16,1.38466431,11,120.4617377,6,
 -176.88197195,0\H,16,0.9497464,11,119.75779177,6,3.14699974,0\C,17,1.3
 9088945,15,120.3475273,11,0.7973643,0\H,17,0.94984298,15,119.8156451,1
 1,-179.16676483,0\H,19,0.94974749,16,119.98566335,11,-178.40987425,0\H
 ,21,0.94938585,17,120.0744529,15,179.91636093,0\\Version=ES64L-G16RevB
 .01\State=1-A\HF=-576.4044825\RMSD=8.025e-09\Dipole=0.064996,-0.646727
 5,1.1152732\Quadrupole=7.6139463,-6.7960281,-0.8179181,4.0389794,-0.02
 19397,3.6160585\PG=C01 [X(C13H10O1)]\\@


 RESEARCH IS WHAT I AM DOING WHEN I DON'T KNOW WHAT I AM DOING.
     -- WERNER VON BRAUN
 Job cpu time:       0 days  0 hours 21 minutes 33.5 seconds.
 Elapsed time:       0 days  0 hours  0 minutes 41.0 seconds.
 File lengths (MBytes):  RWF=     78 Int=      0 D2E=      0 Chk=      9 Scr=      1
 Normal termination of Gaussian 16 at Tue Nov 22 15:00:58 2022.
