 Entering Gaussian System, Link 0=g16
 Input=_conf028.gjf
 Output=_conf028.log
 Initial command:
 /opt/ap/G16/B01/g16/l1.exe "/tmp2/scr/Gau-28562.inp" -scrdir="/tmp2/scr/"
 Entering Link 1 = /opt/ap/G16/B01/g16/l1.exe PID=     28563.
  
 Copyright (c) 1988-2017, Gaussian, Inc.  All Rights Reserved.
  
 This is part of the Gaussian(R) 16 program.  It is based on
 the Gaussian(R) 09 system (copyright 2009, Gaussian, Inc.),
 the Gaussian(R) 03 system (copyright 2003, Gaussian, Inc.),
 the Gaussian(R) 98 system (copyright 1998, Gaussian, Inc.),
 the Gaussian(R) 94 system (copyright 1995, Gaussian, Inc.),
 the Gaussian 92(TM) system (copyright 1992, Gaussian, Inc.),
 the Gaussian 90(TM) system (copyright 1990, Gaussian, Inc.),
 the Gaussian 88(TM) system (copyright 1988, Gaussian, Inc.),
 the Gaussian 86(TM) system (copyright 1986, Carnegie Mellon
 University), and the Gaussian 82(TM) system (copyright 1983,
 Carnegie Mellon University). Gaussian is a federally registered
 trademark of Gaussian, Inc.
  
 This software contains proprietary and confidential information,
 including trade secrets, belonging to Gaussian, Inc.
  
 This software is provided under written license and may be
 used, copied, transmitted, or stored only in accord with that
 written license.
  
 The following legend is applicable only to US Government
 contracts under FAR:
  
                    RESTRICTED RIGHTS LEGEND
  
 Use, reproduction and disclosure by the US Government is
 subject to restrictions as set forth in subparagraphs (a)
 and (c) of the Commercial Computer Software - Restricted
 Rights clause in FAR 52.227-19.
  
 Gaussian, Inc.
 340 Quinnipiac St., Bldg. 40, Wallingford CT 06492
  
  
 ---------------------------------------------------------------
 Warning -- This program may not be used in any manner that
 competes with the business of Gaussian, Inc. or will provide
 assistance to any competitor of Gaussian, Inc.  The licensee
 of this program is prohibited from giving any competitor of
 Gaussian, Inc. access to this program.  By using this program,
 the user acknowledges that Gaussian, Inc. is engaged in the
 business of creating and licensing software in the field of
 computational chemistry and represents and warrants to the
 licensee that it is not a competitor of Gaussian, Inc. and that
 it will not use this program in any manner prohibited above.
 ---------------------------------------------------------------
  

 Cite this work as:
 Gaussian 16, Revision B.01,
 M. J. Frisch, G. W. Trucks, H. B. Schlegel, G. E. Scuseria, 
 M. A. Robb, J. R. Cheeseman, G. Scalmani, V. Barone, 
 G. A. Petersson, H. Nakatsuji, X. Li, M. Caricato, A. V. Marenich, 
 J. Bloino, B. G. Janesko, R. Gomperts, B. Mennucci, H. P. Hratchian, 
 J. V. Ortiz, A. F. Izmaylov, J. L. Sonnenberg, D. Williams-Young, 
 F. Ding, F. Lipparini, F. Egidi, J. Goings, B. Peng, A. Petrone, 
 T. Henderson, D. Ranasinghe, V. G. Zakrzewski, J. Gao, N. Rega, 
 G. Zheng, W. Liang, M. Hada, M. Ehara, K. Toyota, R. Fukuda, 
 J. Hasegawa, M. Ishida, T. Nakajima, Y. Honda, O. Kitao, H. Nakai, 
 T. Vreven, K. Throssell, J. A. Montgomery, Jr., J. E. Peralta, 
 F. Ogliaro, M. J. Bearpark, J. J. Heyd, E. N. Brothers, K. N. Kudin, 
 V. N. Staroverov, T. A. Keith, R. Kobayashi, J. Normand, 
 K. Raghavachari, A. P. Rendell, J. C. Burant, S. S. Iyengar, 
 J. Tomasi, M. Cossi, J. M. Millam, M. Klene, C. Adamo, R. Cammi, 
 J. W. Ochterski, R. L. Martin, K. Morokuma, O. Farkas, 
 J. B. Foresman, and D. J. Fox, Gaussian, Inc., Wallingford CT, 2016.
 
 ******************************************
 Gaussian 16:  ES64L-G16RevB.01 20-Dec-2017
                22-Nov-2022 
 ******************************************
 %nprocshared=32
 Will use up to   32 processors via shared memory.
 %mem=120GB
 %chk=_conf028.chk
 ----------------------------------------
 #P wB97XD/6-311++G(d,p) scf=maxcycle=512
 ----------------------------------------
 1/38=1,172=1/1;
 2/12=2,17=6,18=5,40=1/2;
 3/5=4,6=6,7=1111,11=2,25=1,30=1,74=-58/1,2,3;
 4//1;
 5/5=2,7=512,38=5/2;
 6/7=2,8=2,9=2,10=2,28=1/1;
 99/5=1,9=1/99;
 Leave Link    1 at Tue Nov 22 15:03:00 2022, MaxMem= 16106127360 cpu:               1.6 elap:               0.1
 (Enter /opt/ap/G16/B01/g16/l101.exe)
 ----------------------------
 _conf028.gjf nmol_natom 1_24
 ----------------------------
 Symbolic Z-matrix:
 Charge =  0 Multiplicity = 1
 C
 C                    1     1.39746 
 C                    1     1.39996  2     119.28067 
 C                    2     1.39288  1     120.37437  3    -0.51003  0
 H                    2     0.95015  1     119.82324  3     179.45635  0
 C                    1     1.49653  2     122.77761  4     174.46829  0
 C                    3     1.38701  1     120.10018  2    -0.37316  0
 H                    3     0.95011  1     119.95246  2     179.59239  0
 C                    7     1.3872   3     120.16569  1     1.07451  0
 H                    4     0.95012  2     120.18756  1    -179.31195  0
 C                    6     1.49517  1     120.70973  2     50.      0
 O                    6     1.2215   1     119.67074  2    -130.     0
 H                    7     0.94957  3     119.91275  1    -178.88636  0
 H                    9     0.94992  7     119.76038  3     179.10764  0
 C                    11    1.39714  6     122.62586  1     30.97749  0
 C                    11    1.4004   6     117.74754  1    -153.15468  0
 C                    15    1.39456  11    119.80747  6     175.4763  0
 H                    15    0.94963  11    120.10536  6    -4.50802  0
 C                    16    1.38466  11    120.46174  6    -176.88197  0
 H                    16    0.94975  11    119.75779  6     3.147    0
 C                    17    1.39089  15    120.34753  11    0.79736  0
 H                    17    0.94984  15    119.81565  11   -179.16676  0
 H                    19    0.94975  16    119.98566  11   -178.40987  0
 H                    21    0.94939  17    120.07445  15    179.91636  0
 
 ITRead=  0  0  0  0  0  0  0  0  0  0  0  0  0  0  0  0  0  0  0  0
 ITRead=  0  0  0  0
 MicOpt= -1 -1 -1 -1 -1 -1 -1 -1 -1 -1 -1 -1 -1 -1 -1 -1 -1 -1 -1 -1
 MicOpt= -1 -1 -1 -1
 NAtoms=     24 NQM=       24 NQMF=       0 NMMI=      0 NMMIF=      0
                NMic=       0 NMicF=      0.
                    Isotopes and Nuclear Properties:
 (Nuclear quadrupole moments (NQMom) in fm**2, nuclear magnetic moments (NMagM)
  in nuclear magnetons)

  Atom         1           2           3           4           5           6           7           8           9          10
 IAtWgt=          12          12          12          12           1          12          12           1          12           1
 AtmWgt=  12.0000000  12.0000000  12.0000000  12.0000000   1.0078250  12.0000000  12.0000000   1.0078250  12.0000000   1.0078250
 NucSpn=           0           0           0           0           1           0           0           1           0           1
 AtZEff=  -0.0000000  -0.0000000  -0.0000000  -0.0000000  -0.0000000  -0.0000000  -0.0000000  -0.0000000  -0.0000000  -0.0000000
 NQMom=    0.0000000   0.0000000   0.0000000   0.0000000   0.0000000   0.0000000   0.0000000   0.0000000   0.0000000   0.0000000
 NMagM=    0.0000000   0.0000000   0.0000000   0.0000000   2.7928460   0.0000000   0.0000000   2.7928460   0.0000000   2.7928460
 AtZNuc=   6.0000000   6.0000000   6.0000000   6.0000000   1.0000000   6.0000000   6.0000000   1.0000000   6.0000000   1.0000000

  Atom        11          12          13          14          15          16          17          18          19          20
 IAtWgt=          12          16           1           1          12          12          12           1          12           1
 AtmWgt=  12.0000000  15.9949146   1.0078250   1.0078250  12.0000000  12.0000000  12.0000000   1.0078250  12.0000000   1.0078250
 NucSpn=           0           0           1           1           0           0           0           1           0           1
 AtZEff=  -0.0000000  -0.0000000  -0.0000000  -0.0000000  -0.0000000  -0.0000000  -0.0000000  -0.0000000  -0.0000000  -0.0000000
 NQMom=    0.0000000   0.0000000   0.0000000   0.0000000   0.0000000   0.0000000   0.0000000   0.0000000   0.0000000   0.0000000
 NMagM=    0.0000000   0.0000000   2.7928460   2.7928460   0.0000000   0.0000000   0.0000000   2.7928460   0.0000000   2.7928460
 AtZNuc=   6.0000000   8.0000000   1.0000000   1.0000000   6.0000000   6.0000000   6.0000000   1.0000000   6.0000000   1.0000000

  Atom        21          22          23          24
 IAtWgt=          12           1           1           1
 AtmWgt=  12.0000000   1.0078250   1.0078250   1.0078250
 NucSpn=           0           1           1           1
 AtZEff=  -0.0000000  -0.0000000  -0.0000000  -0.0000000
 NQMom=    0.0000000   0.0000000   0.0000000   0.0000000
 NMagM=    0.0000000   2.7928460   2.7928460   2.7928460
 AtZNuc=   6.0000000   1.0000000   1.0000000   1.0000000
 Leave Link  101 at Tue Nov 22 15:03:00 2022, MaxMem= 16106127360 cpu:               5.4 elap:               0.2
 (Enter /opt/ap/G16/B01/g16/l202.exe)
                          Input orientation:                          
 ---------------------------------------------------------------------
 Center     Atomic      Atomic             Coordinates (Angstroms)
 Number     Number       Type             X           Y           Z
 ---------------------------------------------------------------------
      1          6           0        0.000000    0.000000    0.000000
      2          6           0        0.000000    0.000000    1.397463
      3          6           0        1.221096    0.000000   -0.684705
      4          6           0        1.201650   -0.010697    2.101772
      5          1           0       -0.824276    0.007821    1.869996
      6          6           0       -1.253421   -0.110138   -0.810191
      7          6           0        2.414707    0.007815    0.021719
      8          1           0        1.232246   -0.005856   -1.634731
      9          6           0        2.403895   -0.006831    1.408800
     10          1           0        1.198494   -0.020531    3.051836
     11          6           0       -2.424769    0.775476   -0.528835
     12          8           0       -1.320766   -0.932224   -1.711137
     13          1           0        3.241298    0.023792   -0.445367
     14          1           0        3.224827   -0.014217    1.886678
     15          6           0       -2.285440    2.072740   -0.029143
     16          6           0       -3.697931    0.299268   -0.865573
     17          6           0       -3.411201    2.881632    0.122999
     18          1           0       -1.426681    2.402916    0.206039
     19          6           0       -4.815352    1.097753   -0.689253
     20          1           0       -3.795488   -0.577680   -1.216945
     21          6           0       -4.673505    2.397982   -0.204480
     22          1           0       -3.315196    3.767667    0.451522
     23          1           0       -5.677953    0.759970   -0.898639
     24          1           0       -5.437408    2.951609   -0.098260
 ---------------------------------------------------------------------
                    Distance matrix (angstroms):
                    1          2          3          4          5
     1  C    0.000000
     2  C    1.397463   0.000000
     3  C    1.399963   2.413814   0.000000
     4  C    2.421058   1.392885   2.786566   0.000000
     5  H    2.043619   0.950147   3.272630   2.039225   0.000000
     6  C    1.496530   2.541049   2.480142   3.810091   2.716889
     7  C    2.414817   2.779127   1.387013   2.408002   3.729228
     8  H    2.047146   3.273021   0.950109   3.736632   4.063567
     9  C    2.786301   2.403931   2.404542   1.387667   3.260982
    10  H    3.278797   2.042977   3.736665   0.950119   2.342893
    11  C    2.600103   3.192412   3.730682   4.548525   2.984169
    12  O    2.354029   3.503835   2.895456   4.663697   3.735599
    13  H    3.271839   3.728619   2.034469   3.263323   4.678681
    14  H    3.736210   3.261755   3.259932   2.034583   4.049198
    15  C    3.085505   3.399220   4.125749   4.587081   3.163167
    16  C    3.809655   4.345755   4.931440   5.736472   3.978212
    17  C    4.467127   4.643743   5.514921   5.793056   4.242990
    18  H    2.802120   3.037913   3.684854   4.040724   2.977939
    19  C    4.986757   5.361629   6.135453   6.724790   4.864812
    20  H    4.027455   4.644844   5.077706   6.025507   4.324363
    21  C    5.256784   5.491647   6.381791   6.755589   4.983260
    22  H    5.038821   5.106921   6.005353   6.115657   4.727916
    23  H    5.798643   6.171612   6.944076   7.544888   5.638196
    24  H    6.187654   6.365107   7.306954   7.595557   5.815574
                    6          7          8          9         10
     6  C    0.000000
     7  C    3.763130   0.000000
     8  H    2.620930   2.035246   0.000000
     9  C    4.279082   1.387200   3.261263   0.000000
    10  H    4.575496   3.265208   4.686711   2.037829   0.000000
    11  C    1.495169   4.930815   3.899646   5.261409   5.155857
    12  O    1.221501   4.223769   2.716959   4.946054   5.464775
    13  H    4.511488   0.949567   2.334899   2.034727   4.050363
    14  H    5.228480   2.033434   4.046081   0.949923   2.337447
    15  C    2.537727   5.133993   4.390056   5.327491   5.100198
    16  C    2.479176   6.183573   4.999135   6.519106   6.278801
    17  C    3.804937   6.496944   5.743588   6.619051   6.184652
    18  H    2.716281   4.530645   4.032432   4.682608   4.567625
    19  C    3.763108   7.346237   6.219752   7.598648   7.170261
    20  H    2.616515   6.359529   5.077364   6.756681   6.593387
    21  C    4.284219   7.483770   6.534673   7.646920   7.136748
    22  H    4.569487   6.866805   6.266670   6.918903   6.440922
    23  H    4.510144   8.179483   6.991364   8.439699   7.968749
    24  H    5.233249   8.386658   7.455979   8.515258   7.924135
                   11         12         13         14         15
    11  C    0.000000
    12  O    2.352211   0.000000
    13  H    5.716319   4.829966   0.000000
    14  H    6.194857   5.869364   2.332413   0.000000
    15  C    1.397140   3.576242   5.908999   6.195870   0.000000
    16  C    1.400396   2.807573   6.957396   7.456389   2.416598
    17  C    2.415332   4.720113   7.262646   7.452071   1.394557
    18  H    2.045674   3.848369   5.279639   5.504871   0.949629
    19  C    2.417537   4.168594   8.131573   8.515655   2.790484
    20  H    2.045335   2.548367   7.104467   7.696414   3.273506
    21  C    2.791872   4.959954   8.266735   8.519114   2.416481
    22  H    3.272181   5.544711   7.603198   7.689878   2.040640
    23  H    3.274172   4.744339   8.961052   9.360388   3.740125
    24  H    3.741249   5.884919   9.165835   9.368587   3.272933
                   16         17         18         19         20
    16  C    0.000000
    17  C    2.779944   0.000000
    18  H    3.276013   2.043131   0.000000
    19  C    1.384664   2.411145   3.740066   0.000000
    20  H    0.949746   3.729607   4.064490   2.031171   0.000000
    21  C    2.406945   1.390889   3.272678   1.394891   3.263520
    22  H    3.729747   0.949843   2.342925   3.268069   4.679370
    23  H    2.033181   3.268541   4.689659   0.949747   2.331159
    24  H    3.263351   2.039453   4.059507   2.042795   4.050092
                   21         22         23         24
    21  C    0.000000
    22  H    2.037493   0.000000
    23  H    2.043001   4.056081   0.000000
    24  H    0.949386   2.339229   2.345581   0.000000
 Stoichiometry    C13H10O
 Framework group  C1[X(C13H10O)]
 Deg. of freedom    66
 Full point group                 C1      NOp   1
 Largest Abelian subgroup         C1      NOp   1
 Largest concise Abelian subgroup C1      NOp   1
                         Standard orientation:                         
 ---------------------------------------------------------------------
 Center     Atomic      Atomic             Coordinates (Angstroms)
 Number     Number       Type             X           Y           Z
 ---------------------------------------------------------------------
      1          6           0       -1.292717    0.328981    0.043710
      2          6           0       -1.568205   -0.732610    0.909757
      3          6           0       -2.304881    0.807124   -0.797003
      4          6           0       -2.838922   -1.302022    0.944046
      5          1           0       -0.884810   -1.068303    1.478140
      6          6           0        0.013632    1.059080    0.046871
      7          6           0       -3.563273    0.224360   -0.771748
      8          1           0       -2.129714    1.532236   -1.385422
      9          6           0       -3.830663   -0.819460    0.101903
     10          1           0       -3.026005   -2.017247    1.540853
     11          6           0        1.306857    0.310499   -0.005358
     12          8           0        0.024036    2.279680    0.092602
     13          1           0       -4.243245    0.540380   -1.354368
     14          1           0       -4.698155   -1.205920    0.123348
     15          6           0        1.441147   -0.916350   -0.660190
     16          6           0        2.435791    0.919347    0.556710
     17          6           0        2.695508   -1.518517   -0.753809
     18          1           0        0.680599   -1.338964   -1.040661
     19          6           0        3.674633    0.305287    0.482587
     20          1           0        2.350855    1.759128    0.992108
     21          6           0        3.810330   -0.912242   -0.184444
     22          1           0        2.788954   -2.346787   -1.209262
     23          1           0        4.431573    0.713376    0.885733
     24          1           0        4.662238   -1.326195   -0.249475
 ---------------------------------------------------------------------
 Rotational constants (GHZ):           1.7379678           0.4021841           0.3578072
 Leave Link  202 at Tue Nov 22 15:03:00 2022, MaxMem= 16106127360 cpu:               0.3 elap:               0.0
 (Enter /opt/ap/G16/B01/g16/l301.exe)
 Standard basis: 6-311++G(d,p) (5D, 7F)
 Ernie: Thresh=  0.10000D-02 Tol=  0.10000D-05 Strict=F.
 There are   392 symmetry adapted cartesian basis functions of A   symmetry.
 There are   378 symmetry adapted basis functions of A   symmetry.
   378 basis functions,   594 primitive gaussians,   392 cartesian basis functions
    48 alpha electrons       48 beta electrons
       nuclear repulsion energy       781.7285894353 Hartrees.
 IExCor= 4639 DFT=T Ex+Corr=wB97XD ExCW=0 ScaHFX=  1.000000
 ScaDFX=  1.000000  1.000000  1.000000  1.000000 ScalE2=  1.000000  1.000000
 IRadAn=      5 IRanWt=     -1 IRanGd=            0 ICorTp=0 IEmpDi=121
 HFx  wShort=  0.000000 wLong=  0.200000 cFull=  0.222036 cShort=  0.000000 cLong=  0.777964
 DFx  wShort=  0.000000 wLong=  0.200000 cFull=  0.000000 cShort=  0.000000 cLong=  1.000000
 NAtoms=   24 NActive=   24 NUniq=   24 SFac= 1.00D+00 NAtFMM=   60 NAOKFM=F Big=F
 Integral buffers will be    131072 words long.
 Raffenetti 2 integral format.
 Two-electron integral symmetry is turned on.
 R6Disp:  Grimme-D2 Dispersion energy=       -0.0139698800 Hartrees.
 Nuclear repulsion after empirical dispersion term =      781.7146195553 Hartrees.
 Leave Link  301 at Tue Nov 22 15:03:00 2022, MaxMem= 16106127360 cpu:               1.3 elap:               0.0
 (Enter /opt/ap/G16/B01/g16/l302.exe)
 NPDir=0 NMtPBC=     1 NCelOv=     1 NCel=       1 NClECP=     1 NCelD=      1
         NCelK=      1 NCelE2=     1 NClLst=     1 CellRange=     0.0.
 One-electron integrals computed using PRISM.
 One-electron integral symmetry used in STVInt
 NBasis=   378 RedAO= T EigKep=  1.45D-06  NBF=   378
 NBsUse=   376 1.00D-06 EigRej=  8.59D-07 NBFU=   376
 Precomputing XC quadrature grid using
 IXCGrd= 4 IRadAn=           5 IRanWt=          -1 IRanGd=           0 AccXCQ= 0.00D+00.
 Generated NRdTot=       0 NPtTot=           0 NUsed=           0 NTot=          32
 NSgBfM=   392   392   392   392   392 MxSgAt=    24 MxSgA2=    24.
 Leave Link  302 at Tue Nov 22 15:03:00 2022, MaxMem= 16106127360 cpu:               8.5 elap:               0.3
 (Enter /opt/ap/G16/B01/g16/l303.exe)
 DipDrv:  MaxL=1.
 Leave Link  303 at Tue Nov 22 15:03:01 2022, MaxMem= 16106127360 cpu:               1.6 elap:               0.1
 (Enter /opt/ap/G16/B01/g16/l401.exe)
 ExpMin= 3.60D-02 ExpMax= 8.59D+03 ExpMxC= 1.30D+03 IAcc=3 IRadAn=         5 AccDes= 0.00D+00
 Harris functional with IExCor= 4639 and IRadAn=       5 diagonalized for initial guess.
 HarFok:  IExCor= 4639 AccDes= 0.00D+00 IRadAn=         5 IDoV= 1 UseB2=F ITyADJ=14
 ICtDFT=  3500011 ScaDFX=  1.000000  1.000000  1.000000  1.000000
 FoFCou: FMM=F IPFlag=           0 FMFlag=      100000 FMFlg1=           0
         NFxFlg=           0 DoJE=T BraDBF=F KetDBF=T FulRan=T
         wScrn=  0.000000 ICntrl=       500 IOpCl=  0 I1Cent=   200000004 NGrid=           0
         NMat0=    1 NMatS0=      1 NMatT0=    0 NMatD0=    1 NMtDS0=    0 NMtDT0=    0
 Petite list used in FoFCou.
 Harris En= -550.906447242393    
 JPrj=0 DoOrth=F DoCkMO=F.
 Leave Link  401 at Tue Nov 22 15:03:01 2022, MaxMem= 16106127360 cpu:              22.7 elap:               0.7
 (Enter /opt/ap/G16/B01/g16/l502.exe)
 Integral symmetry usage will be decided dynamically.
 Closed shell SCF:
 Using DIIS extrapolation, IDIIS=  1040.
 NGot= 16106127360 LenX= 16105803762 LenY= 16105649657
 Requested convergence on RMS density matrix=1.00D-08 within 512 cycles.
 Requested convergence on MAX density matrix=1.00D-06.
 Requested convergence on             energy=1.00D-06.
 No special actions if energy rises.
 Fock matrices will be formed incrementally for  20 cycles.

 Cycle   1  Pass 1  IDiag  1:
 FoFJK:  IHMeth= 1 ICntrl=       0 DoSepK=T KAlg= 0 I1Cent=           0 FoldK=F
 IRaf=         1 NMat=       1 IRICut=       1 DoRegI=T DoRafI=F ISym2E= 0 IDoP0=0 IntGTp=1.
 FoFCou: FMM=F IPFlag=           0 FMFlag=      100000 FMFlg1=           0
         NFxFlg=           0 DoJE=T BraDBF=F KetDBF=F FulRan=T
         wScrn=  0.000000 ICntrl=       500 IOpCl=  0 I1Cent=           0 NGrid=           0
         NMat0=    1 NMatS0=      1 NMatT0=    0 NMatD0=    1 NMtDS0=    0 NMtDT0=    0
 Symmetry not used in FoFCou.
 E= -576.262376221635    
 DIIS: error= 6.12D-02 at cycle   1 NSaved=   1.
 NSaved= 1 IEnMin= 1 EnMin= -576.262376221635     IErMin= 1 ErrMin= 6.12D-02
 ErrMax= 6.12D-02  0.00D+00 EMaxC= 1.00D-01 BMatC= 1.20D+00 BMatP= 1.20D+00
 IDIUse=3 WtCom= 3.88D-01 WtEn= 6.12D-01
 Coeff-Com:  0.100D+01
 Coeff-En:   0.100D+01
 Coeff:      0.100D+01
 Gap=     0.407 Goal=   None    Shift=    0.000
 GapD=    0.407 DampG=2.000 DampE=0.500 DampFc=1.0000 IDamp=-1.
 RMSDP=3.08D-02 MaxDP=3.11D+00              OVMax= 1.32D-01

 Cycle   2  Pass 1  IDiag  1:
 RMSU=  1.64D-02    CP:  6.45D-01
 E= -576.351003353803     Delta-E=       -0.088627132168 Rises=F Damp=F
 DIIS: error= 1.55D-02 at cycle   2 NSaved=   2.
 NSaved= 2 IEnMin= 2 EnMin= -576.351003353803     IErMin= 2 ErrMin= 1.55D-02
 ErrMax= 1.55D-02  0.00D+00 EMaxC= 1.00D-01 BMatC= 7.72D-02 BMatP= 1.20D+00
 IDIUse=3 WtCom= 8.45D-01 WtEn= 1.55D-01
 Coeff-Com:  0.128D+00 0.872D+00
 Coeff-En:   0.155D+00 0.845D+00
 Coeff:      0.132D+00 0.868D+00
 Gap=     0.430 Goal=   None    Shift=    0.000
 RMSDP=9.10D-03 MaxDP=1.08D+00 DE=-8.86D-02 OVMax= 1.57D-01

 Cycle   3  Pass 1  IDiag  1:
 RMSU=  8.44D-03    CP:  6.34D-01  8.00D-01
 E= -576.368553923873     Delta-E=       -0.017550570071 Rises=F Damp=F
 DIIS: error= 1.24D-02 at cycle   3 NSaved=   3.
 NSaved= 3 IEnMin= 3 EnMin= -576.368553923873     IErMin= 3 ErrMin= 1.24D-02
 ErrMax= 1.24D-02  0.00D+00 EMaxC= 1.00D-01 BMatC= 5.60D-02 BMatP= 7.72D-02
 IDIUse=3 WtCom= 8.76D-01 WtEn= 1.24D-01
 Coeff-Com:  0.240D-01 0.463D+00 0.513D+00
 Coeff-En:   0.000D+00 0.428D+00 0.572D+00
 Coeff:      0.210D-01 0.459D+00 0.520D+00
 Gap=     0.353 Goal=   None    Shift=    0.000
 RMSDP=4.67D-03 MaxDP=3.97D-01 DE=-1.76D-02 OVMax= 7.01D-02

 Cycle   4  Pass 1  IDiag  1:
 RMSU=  1.51D-03    CP:  6.00D-01  8.66D-01  5.84D-01
 E= -576.417786873366     Delta-E=       -0.049232949493 Rises=F Damp=F
 DIIS: error= 2.56D-03 at cycle   4 NSaved=   4.
 NSaved= 4 IEnMin= 4 EnMin= -576.417786873366     IErMin= 4 ErrMin= 2.56D-03
 ErrMax= 2.56D-03  0.00D+00 EMaxC= 1.00D-01 BMatC= 9.50D-04 BMatP= 5.60D-02
 IDIUse=3 WtCom= 9.74D-01 WtEn= 2.56D-02
 Coeff-Com:  0.958D-02 0.198D+00 0.243D+00 0.549D+00
 Coeff-En:   0.000D+00 0.000D+00 0.000D+00 0.100D+01
 Coeff:      0.933D-02 0.193D+00 0.237D+00 0.560D+00
 Gap=     0.325 Goal=   None    Shift=    0.000
 RMSDP=5.30D-04 MaxDP=3.68D-02 DE=-4.92D-02 OVMax= 7.00D-03

 Cycle   5  Pass 1  IDiag  1:
 RMSU=  4.09D-04    CP:  6.00D-01  8.86D-01  5.79D-01  9.74D-01
 E= -576.418441359354     Delta-E=       -0.000654485988 Rises=F Damp=F
 DIIS: error= 7.53D-04 at cycle   5 NSaved=   5.
 NSaved= 5 IEnMin= 5 EnMin= -576.418441359354     IErMin= 5 ErrMin= 7.53D-04
 ErrMax= 7.53D-04  0.00D+00 EMaxC= 1.00D-01 BMatC= 9.05D-05 BMatP= 9.50D-04
 IDIUse=3 WtCom= 9.92D-01 WtEn= 7.53D-03
 Coeff-Com: -0.555D-03-0.773D-02 0.482D-03 0.224D+00 0.784D+00
 Coeff-En:   0.000D+00 0.000D+00 0.000D+00 0.000D+00 0.100D+01
 Coeff:     -0.551D-03-0.767D-02 0.478D-03 0.222D+00 0.786D+00
 Gap=     0.327 Goal=   None    Shift=    0.000
 RMSDP=3.90D-04 MaxDP=3.95D-02 DE=-6.54D-04 OVMax= 2.85D-03

 Cycle   6  Pass 1  IDiag  1:
 RMSU=  2.52D-04    CP:  5.98D-01  8.93D-01  5.97D-01  1.05D+00  6.44D-01
 E= -576.418511509391     Delta-E=       -0.000070150037 Rises=F Damp=F
 DIIS: error= 3.65D-04 at cycle   6 NSaved=   6.
 NSaved= 6 IEnMin= 6 EnMin= -576.418511509391     IErMin= 6 ErrMin= 3.65D-04
 ErrMax= 3.65D-04  0.00D+00 EMaxC= 1.00D-01 BMatC= 1.92D-05 BMatP= 9.05D-05
 IDIUse=3 WtCom= 9.96D-01 WtEn= 3.65D-03
 Coeff-Com: -0.123D-02-0.231D-01-0.227D-01 0.657D-01 0.424D+00 0.558D+00
 Coeff-En:   0.000D+00 0.000D+00 0.000D+00 0.000D+00 0.000D+00 0.100D+01
 Coeff:     -0.123D-02-0.230D-01-0.226D-01 0.654D-01 0.422D+00 0.559D+00
 Gap=     0.327 Goal=   None    Shift=    0.000
 RMSDP=8.35D-05 MaxDP=3.83D-03 DE=-7.02D-05 OVMax= 1.31D-03

 Cycle   7  Pass 1  IDiag  1:
 RMSU=  6.40D-05    CP:  5.98D-01  8.93D-01  5.97D-01  1.08D+00  7.32D-01
                    CP:  9.63D-01
 E= -576.418531582044     Delta-E=       -0.000020072653 Rises=F Damp=F
 DIIS: error= 5.50D-05 at cycle   7 NSaved=   7.
 NSaved= 7 IEnMin= 7 EnMin= -576.418531582044     IErMin= 7 ErrMin= 5.50D-05
 ErrMax= 5.50D-05  0.00D+00 EMaxC= 1.00D-01 BMatC= 5.15D-07 BMatP= 1.92D-05
 IDIUse=1 WtCom= 1.00D+00 WtEn= 0.00D+00
 Coeff-Com: -0.233D-03-0.446D-02-0.527D-02-0.102D-01-0.893D-02 0.107D+00
 Coeff-Com:  0.922D+00
 Coeff:     -0.233D-03-0.446D-02-0.527D-02-0.102D-01-0.893D-02 0.107D+00
 Coeff:      0.922D+00
 Gap=     0.327 Goal=   None    Shift=    0.000
 RMSDP=4.27D-05 MaxDP=3.97D-03 DE=-2.01D-05 OVMax= 6.59D-04

 Cycle   8  Pass 1  IDiag  1:
 RMSU=  1.99D-05    CP:  5.98D-01  8.94D-01  5.98D-01  1.09D+00  7.34D-01
                    CP:  1.07D+00  1.10D+00
 E= -576.418532919589     Delta-E=       -0.000001337546 Rises=F Damp=F
 DIIS: error= 2.60D-05 at cycle   8 NSaved=   8.
 NSaved= 8 IEnMin= 8 EnMin= -576.418532919589     IErMin= 8 ErrMin= 2.60D-05
 ErrMax= 2.60D-05  0.00D+00 EMaxC= 1.00D-01 BMatC= 8.92D-08 BMatP= 5.15D-07
 IDIUse=1 WtCom= 1.00D+00 WtEn= 0.00D+00
 Coeff-Com:  0.520D-04 0.767D-03 0.312D-03-0.124D-01-0.569D-01-0.271D-01
 Coeff-Com:  0.310D+00 0.785D+00
 Coeff:      0.520D-04 0.767D-03 0.312D-03-0.124D-01-0.569D-01-0.271D-01
 Coeff:      0.310D+00 0.785D+00
 Gap=     0.327 Goal=   None    Shift=    0.000
 RMSDP=1.63D-05 MaxDP=1.64D-03 DE=-1.34D-06 OVMax= 2.62D-04

 Cycle   9  Pass 1  IDiag  1:
 RMSU=  6.20D-06    CP:  5.98D-01  8.94D-01  5.98D-01  1.09D+00  7.34D-01
                    CP:  1.10D+00  1.14D+00  1.27D+00
 E= -576.418533118655     Delta-E=       -0.000000199066 Rises=F Damp=F
 DIIS: error= 5.56D-06 at cycle   9 NSaved=   9.
 NSaved= 9 IEnMin= 9 EnMin= -576.418533118655     IErMin= 9 ErrMin= 5.56D-06
 ErrMax= 5.56D-06  0.00D+00 EMaxC= 1.00D-01 BMatC= 7.74D-09 BMatP= 8.92D-08
 IDIUse=1 WtCom= 1.00D+00 WtEn= 0.00D+00
 Coeff-Com:  0.424D-04 0.753D-03 0.759D-03-0.642D-03-0.916D-02-0.180D-01
 Coeff-Com: -0.694D-01 0.148D+00 0.948D+00
 Coeff:      0.424D-04 0.753D-03 0.759D-03-0.642D-03-0.916D-02-0.180D-01
 Coeff:     -0.694D-01 0.148D+00 0.948D+00
 Gap=     0.327 Goal=   None    Shift=    0.000
 RMSDP=6.17D-06 MaxDP=7.89D-04 DE=-1.99D-07 OVMax= 1.34D-04

 Cycle  10  Pass 1  IDiag  1:
 RMSU=  1.78D-06    CP:  5.99D-01  8.95D-01  5.98D-01  1.09D+00  7.32D-01
                    CP:  1.11D+00  1.15D+00  1.43D+00  1.35D+00
 E= -576.418533146888     Delta-E=       -0.000000028232 Rises=F Damp=F
 DIIS: error= 2.45D-06 at cycle  10 NSaved=  10.
 NSaved=10 IEnMin=10 EnMin= -576.418533146888     IErMin=10 ErrMin= 2.45D-06
 ErrMax= 2.45D-06  0.00D+00 EMaxC= 1.00D-01 BMatC= 8.46D-10 BMatP= 7.74D-09
 IDIUse=1 WtCom= 1.00D+00 WtEn= 0.00D+00
 Coeff-Com: -0.393D-05-0.331D-04 0.792D-05 0.156D-02 0.573D-02 0.272D-02
 Coeff-Com: -0.326D-01-0.786D-01 0.509D-01 0.105D+01
 Coeff:     -0.393D-05-0.331D-04 0.792D-05 0.156D-02 0.573D-02 0.272D-02
 Coeff:     -0.326D-01-0.786D-01 0.509D-01 0.105D+01
 Gap=     0.327 Goal=   None    Shift=    0.000
 RMSDP=2.39D-06 MaxDP=1.56D-04 DE=-2.82D-08 OVMax= 5.32D-05

 Cycle  11  Pass 1  IDiag  1:
 RMSU=  8.34D-07    CP:  5.99D-01  8.95D-01  5.97D-01  1.09D+00  7.32D-01
                    CP:  1.11D+00  1.14D+00  1.48D+00  1.46D+00  1.19D+00
 E= -576.418533151413     Delta-E=       -0.000000004525 Rises=F Damp=F
 DIIS: error= 1.24D-06 at cycle  11 NSaved=  11.
 NSaved=11 IEnMin=11 EnMin= -576.418533151413     IErMin=11 ErrMin= 1.24D-06
 ErrMax= 1.24D-06  0.00D+00 EMaxC= 1.00D-01 BMatC= 1.72D-10 BMatP= 8.46D-10
 IDIUse=1 WtCom= 1.00D+00 WtEn= 0.00D+00
 Coeff-Com: -0.449D-05-0.730D-04-0.659D-04 0.384D-03 0.181D-02 0.200D-02
 Coeff-Com:  0.113D-02-0.313D-01-0.101D+00 0.192D+00 0.935D+00
 Coeff:     -0.449D-05-0.730D-04-0.659D-04 0.384D-03 0.181D-02 0.200D-02
 Coeff:      0.113D-02-0.313D-01-0.101D+00 0.192D+00 0.935D+00
 Gap=     0.327 Goal=   None    Shift=    0.000
 RMSDP=7.81D-07 MaxDP=5.75D-05 DE=-4.53D-09 OVMax= 2.32D-05

 Cycle  12  Pass 1  IDiag  1:
 RMSU=  4.11D-07    CP:  5.99D-01  8.94D-01  5.97D-01  1.09D+00  7.32D-01
                    CP:  1.11D+00  1.14D+00  1.48D+00  1.51D+00  1.27D+00
                    CP:  1.30D+00
 E= -576.418533152280     Delta-E=       -0.000000000867 Rises=F Damp=F
 DIIS: error= 6.31D-07 at cycle  12 NSaved=  12.
 NSaved=12 IEnMin=12 EnMin= -576.418533152280     IErMin=12 ErrMin= 6.31D-07
 ErrMax= 6.31D-07  0.00D+00 EMaxC= 1.00D-01 BMatC= 3.94D-11 BMatP= 1.72D-10
 IDIUse=1 WtCom= 1.00D+00 WtEn= 0.00D+00
 Coeff-Com:  0.112D-06-0.818D-05-0.156D-04-0.331D-03-0.115D-02-0.368D-03
 Coeff-Com:  0.929D-02 0.152D-01-0.359D-01-0.227D+00 0.218D+00 0.102D+01
 Coeff:      0.112D-06-0.818D-05-0.156D-04-0.331D-03-0.115D-02-0.368D-03
 Coeff:      0.929D-02 0.152D-01-0.359D-01-0.227D+00 0.218D+00 0.102D+01
 Gap=     0.327 Goal=   None    Shift=    0.000
 RMSDP=3.53D-07 MaxDP=1.51D-05 DE=-8.67D-10 OVMax= 1.39D-05

 Cycle  13  Pass 1  IDiag  1:
 RMSU=  1.32D-07    CP:  5.99D-01  8.94D-01  5.97D-01  1.09D+00  7.33D-01
                    CP:  1.10D+00  1.14D+00  1.47D+00  1.52D+00  1.28D+00
                    CP:  1.52D+00  1.51D+00
 E= -576.418533152517     Delta-E=       -0.000000000237 Rises=F Damp=F
 DIIS: error= 1.99D-07 at cycle  13 NSaved=  13.
 NSaved=13 IEnMin=13 EnMin= -576.418533152517     IErMin=13 ErrMin= 1.99D-07
 ErrMax= 1.99D-07  0.00D+00 EMaxC= 1.00D-01 BMatC= 6.69D-12 BMatP= 3.94D-11
 IDIUse=1 WtCom= 1.00D+00 WtEn= 0.00D+00
 Coeff-Com:  0.658D-06 0.738D-05 0.563D-05-0.177D-03-0.625D-03-0.445D-03
 Coeff-Com:  0.272D-02 0.941D-02 0.255D-02-0.101D+00-0.570D-01 0.309D+00
 Coeff-Com:  0.835D+00
 Coeff:      0.658D-06 0.738D-05 0.563D-05-0.177D-03-0.625D-03-0.445D-03
 Coeff:      0.272D-02 0.941D-02 0.255D-02-0.101D+00-0.570D-01 0.309D+00
 Coeff:      0.835D+00
 Gap=     0.327 Goal=   None    Shift=    0.000
 RMSDP=1.36D-07 MaxDP=7.99D-06 DE=-2.37D-10 OVMax= 4.40D-06

 Cycle  14  Pass 1  IDiag  1:
 RMSU=  5.83D-08    CP:  5.99D-01  8.94D-01  5.97D-01  1.09D+00  7.33D-01
                    CP:  1.10D+00  1.14D+00  1.47D+00  1.51D+00  1.27D+00
                    CP:  1.57D+00  1.66D+00  1.27D+00
 E= -576.418533152526     Delta-E=       -0.000000000009 Rises=F Damp=F
 DIIS: error= 6.12D-08 at cycle  14 NSaved=  14.
 NSaved=14 IEnMin=14 EnMin= -576.418533152526     IErMin=14 ErrMin= 6.12D-08
 ErrMax= 6.12D-08  0.00D+00 EMaxC= 1.00D-01 BMatC= 1.04D-12 BMatP= 6.69D-12
 IDIUse=1 WtCom= 1.00D+00 WtEn= 0.00D+00
 Coeff-Com:  0.121D-06 0.300D-05 0.474D-05 0.257D-05 0.394D-04-0.490D-04
 Coeff-Com: -0.808D-03-0.203D-03 0.574D-02 0.113D-01-0.423D-01-0.104D+00
 Coeff-Com:  0.201D+00 0.929D+00
 Coeff:      0.121D-06 0.300D-05 0.474D-05 0.257D-05 0.394D-04-0.490D-04
 Coeff:     -0.808D-03-0.203D-03 0.574D-02 0.113D-01-0.423D-01-0.104D+00
 Coeff:      0.201D+00 0.929D+00
 Gap=     0.327 Goal=   None    Shift=    0.000
 RMSDP=7.31D-08 MaxDP=6.64D-06 DE=-9.09D-12 OVMax= 1.64D-06

 Cycle  15  Pass 1  IDiag  1:
 RMSU=  1.58D-08    CP:  5.99D-01  8.94D-01  5.97D-01  1.09D+00  7.33D-01
                    CP:  1.10D+00  1.14D+00  1.47D+00  1.51D+00  1.26D+00
                    CP:  1.59D+00  1.73D+00  1.46D+00  1.07D+00
 E= -576.418533152544     Delta-E=       -0.000000000018 Rises=F Damp=F
 DIIS: error= 1.80D-08 at cycle  15 NSaved=  15.
 NSaved=15 IEnMin=15 EnMin= -576.418533152544     IErMin=15 ErrMin= 1.80D-08
 ErrMax= 1.80D-08  0.00D+00 EMaxC= 1.00D-01 BMatC= 1.73D-13 BMatP= 1.04D-12
 IDIUse=1 WtCom= 1.00D+00 WtEn= 0.00D+00
 Coeff-Com: -0.312D-07 0.390D-06 0.147D-05 0.229D-04 0.969D-04 0.425D-04
 Coeff-Com: -0.643D-03-0.122D-02 0.215D-02 0.176D-01-0.870D-02-0.868D-01
 Coeff-Com: -0.268D-01 0.384D+00 0.720D+00
 Coeff:     -0.312D-07 0.390D-06 0.147D-05 0.229D-04 0.969D-04 0.425D-04
 Coeff:     -0.643D-03-0.122D-02 0.215D-02 0.176D-01-0.870D-02-0.868D-01
 Coeff:     -0.268D-01 0.384D+00 0.720D+00
 Gap=     0.327 Goal=   None    Shift=    0.000
 RMSDP=1.73D-08 MaxDP=1.33D-06 DE=-1.82D-11 OVMax= 3.72D-07

 Cycle  16  Pass 1  IDiag  1:
 RMSU=  4.67D-09    CP:  5.99D-01  8.94D-01  5.97D-01  1.09D+00  7.33D-01
                    CP:  1.10D+00  1.14D+00  1.47D+00  1.51D+00  1.26D+00
                    CP:  1.58D+00  1.74D+00  1.49D+00  1.15D+00  1.11D+00
 E= -576.418533152529     Delta-E=        0.000000000015 Rises=F Damp=F
 DIIS: error= 3.54D-09 at cycle  16 NSaved=  16.
 NSaved=16 IEnMin=15 EnMin= -576.418533152544     IErMin=16 ErrMin= 3.54D-09
 ErrMax= 3.54D-09  0.00D+00 EMaxC= 1.00D-01 BMatC= 4.49D-15 BMatP= 1.73D-13
 IDIUse=1 WtCom= 1.00D+00 WtEn= 0.00D+00
 Coeff-Com: -0.813D-08-0.196D-06-0.289D-06 0.142D-05 0.258D-05 0.102D-04
 Coeff-Com:  0.318D-04-0.770D-04-0.457D-03 0.836D-05 0.418D-02 0.282D-02
 Coeff-Com: -0.201D-01-0.591D-01 0.410D-01 0.103D+01
 Coeff:     -0.813D-08-0.196D-06-0.289D-06 0.142D-05 0.258D-05 0.102D-04
 Coeff:      0.318D-04-0.770D-04-0.457D-03 0.836D-05 0.418D-02 0.282D-02
 Coeff:     -0.201D-01-0.591D-01 0.410D-01 0.103D+01
 Gap=     0.327 Goal=   None    Shift=    0.000
 RMSDP=4.45D-09 MaxDP=2.45D-07 DE= 1.55D-11 OVMax= 8.76D-08

 SCF Done:  E(RwB97XD) =  -576.418533153     A.U. after   16 cycles
            NFock= 16  Conv=0.45D-08     -V/T= 2.0000
 KE= 5.764061187854D+02 PE=-2.905657570451D+03 EE= 9.711182989578D+02
 Leave Link  502 at Tue Nov 22 15:03:39 2022, MaxMem= 16106127360 cpu:            1200.2 elap:              37.6
 (Enter /opt/ap/G16/B01/g16/l601.exe)
 Copying SCF densities to generalized density rwf, IOpCl= 0 IROHF=0.

 **********************************************************************

            Population analysis using the SCF Density.

 **********************************************************************

 Orbital symmetries:
       Occupied  (A) (A) (A) (A) (A) (A) (A) (A) (A) (A) (A) (A)
                 (A) (A) (A) (A) (A) (A) (A) (A) (A) (A) (A) (A)
                 (A) (A) (A) (A) (A) (A) (A) (A) (A) (A) (A) (A)
                 (A) (A) (A) (A) (A) (A) (A) (A) (A) (A) (A) (A)
       Virtual   (A) (A) (A) (A) (A) (A) (A) (A) (A) (A) (A) (A)
                 (A) (A) (A) (A) (A) (A) (A) (A) (A) (A) (A) (A)
                 (A) (A) (A) (A) (A) (A) (A) (A) (A) (A) (A) (A)
                 (A) (A) (A) (A) (A) (A) (A) (A) (A) (A) (A) (A)
                 (A) (A) (A) (A) (A) (A) (A) (A) (A) (A) (A) (A)
                 (A) (A) (A) (A) (A) (A) (A) (A) (A) (A) (A) (A)
                 (A) (A) (A) (A) (A) (A) (A) (A) (A) (A) (A) (A)
                 (A) (A) (A) (A) (A) (A) (A) (A) (A) (A) (A) (A)
                 (A) (A) (A) (A) (A) (A) (A) (A) (A) (A) (A) (A)
                 (A) (A) (A) (A) (A) (A) (A) (A) (A) (A) (A) (A)
                 (A) (A) (A) (A) (A) (A) (A) (A) (A) (A) (A) (A)
                 (A) (A) (A) (A) (A) (A) (A) (A) (A) (A) (A) (A)
                 (A) (A) (A) (A) (A) (A) (A) (A) (A) (A) (A) (A)
                 (A) (A) (A) (A) (A) (A) (A) (A) (A) (A) (A) (A)
                 (A) (A) (A) (A) (A) (A) (A) (A) (A) (A) (A) (A)
                 (A) (A) (A) (A) (A) (A) (A) (A) (A) (A) (A) (A)
                 (A) (A) (A) (A) (A) (A) (A) (A) (A) (A) (A) (A)
                 (A) (A) (A) (A) (A) (A) (A) (A) (A) (A) (A) (A)
                 (A) (A) (A) (A) (A) (A) (A) (A) (A) (A) (A) (A)
                 (A) (A) (A) (A) (A) (A) (A) (A) (A) (A) (A) (A)
                 (A) (A) (A) (A) (A) (A) (A) (A) (A) (A) (A) (A)
                 (A) (A) (A) (A) (A) (A) (A) (A) (A) (A) (A) (A)
                 (A) (A) (A) (A) (A) (A) (A) (A) (A) (A) (A) (A)
                 (A) (A) (A) (A) (A) (A) (A) (A) (A) (A) (A) (A)
                 (A) (A) (A) (A) (A) (A) (A) (A) (A) (A) (A) (A)
                 (A) (A) (A) (A) (A) (A) (A) (A) (A) (A) (A) (A)
                 (A) (A) (A) (A) (A) (A) (A) (A) (A) (A) (A) (A)
                 (A) (A) (A) (A)
 The electronic state is 1-A.
 Alpha  occ. eigenvalues --  -19.23907 -10.38227 -10.30516 -10.30475 -10.28985
 Alpha  occ. eigenvalues --  -10.28829 -10.28666 -10.28455 -10.28432 -10.28416
 Alpha  occ. eigenvalues --  -10.28347 -10.28269 -10.28235 -10.28070  -1.14920
 Alpha  occ. eigenvalues --   -0.97853  -0.97391  -0.89055  -0.87347  -0.87237
 Alpha  occ. eigenvalues --   -0.86789  -0.76754  -0.73813  -0.73482  -0.72494
 Alpha  occ. eigenvalues --   -0.67954  -0.65447  -0.62901  -0.60250  -0.56747
 Alpha  occ. eigenvalues --   -0.56170  -0.55713  -0.54180  -0.53914  -0.53875
 Alpha  occ. eigenvalues --   -0.52127  -0.49406  -0.47121  -0.46620  -0.46230
 Alpha  occ. eigenvalues --   -0.45416  -0.44898  -0.44241  -0.35215  -0.34710
 Alpha  occ. eigenvalues --   -0.34235  -0.33996  -0.33087
 Alpha virt. eigenvalues --   -0.00353   0.03598   0.03724   0.04114   0.04322
 Alpha virt. eigenvalues --    0.05203   0.05231   0.05304   0.05948   0.06788
 Alpha virt. eigenvalues --    0.07487   0.08023   0.08844   0.09878   0.10689
 Alpha virt. eigenvalues --    0.11341   0.11842   0.13265   0.13597   0.14360
 Alpha virt. eigenvalues --    0.14755   0.14846   0.15434   0.15837   0.16530
 Alpha virt. eigenvalues --    0.16997   0.17108   0.17307   0.17718   0.17781
 Alpha virt. eigenvalues --    0.18159   0.18431   0.18712   0.19078   0.19585
 Alpha virt. eigenvalues --    0.19715   0.20123   0.20349   0.20740   0.20756
 Alpha virt. eigenvalues --    0.21508   0.21650   0.22195   0.23140   0.23740
 Alpha virt. eigenvalues --    0.24066   0.24847   0.25064   0.25232   0.26400
 Alpha virt. eigenvalues --    0.26505   0.27220   0.27910   0.28071   0.28525
 Alpha virt. eigenvalues --    0.28596   0.29816   0.30056   0.30364   0.31109
 Alpha virt. eigenvalues --    0.31278   0.31905   0.32385   0.32976   0.33995
 Alpha virt. eigenvalues --    0.34275   0.34676   0.34905   0.35539   0.35812
 Alpha virt. eigenvalues --    0.36776   0.37300   0.37940   0.38397   0.39081
 Alpha virt. eigenvalues --    0.39408   0.40045   0.41385   0.41538   0.41955
 Alpha virt. eigenvalues --    0.42134   0.42662   0.43550   0.44308   0.44553
 Alpha virt. eigenvalues --    0.45502   0.45658   0.46547   0.48026   0.50390
 Alpha virt. eigenvalues --    0.51324   0.56941   0.57352   0.57971   0.61296
 Alpha virt. eigenvalues --    0.61868   0.62157   0.62817   0.63643   0.63814
 Alpha virt. eigenvalues --    0.63870   0.64453   0.65299   0.65621   0.65707
 Alpha virt. eigenvalues --    0.66242   0.66273   0.68054   0.69258   0.70325
 Alpha virt. eigenvalues --    0.71175   0.71767   0.72796   0.73342   0.74060
 Alpha virt. eigenvalues --    0.75174   0.76300   0.76514   0.77978   0.78858
 Alpha virt. eigenvalues --    0.79441   0.80403   0.81485   0.82097   0.82771
 Alpha virt. eigenvalues --    0.83582   0.84337   0.84994   0.86153   0.88135
 Alpha virt. eigenvalues --    0.88677   0.89243   0.92687   0.93123   0.93446
 Alpha virt. eigenvalues --    0.94211   0.94568   0.95234   0.96502   0.96806
 Alpha virt. eigenvalues --    0.97669   0.98063   0.98561   0.99739   1.02277
 Alpha virt. eigenvalues --    1.02342   1.03131   1.03998   1.04711   1.05420
 Alpha virt. eigenvalues --    1.07275   1.07944   1.10445   1.12528   1.12943
 Alpha virt. eigenvalues --    1.14006   1.16439   1.16868   1.17106   1.17692
 Alpha virt. eigenvalues --    1.19523   1.20557   1.21679   1.22660   1.23823
 Alpha virt. eigenvalues --    1.27791   1.29691   1.31977   1.34712   1.39030
 Alpha virt. eigenvalues --    1.40429   1.43414   1.44804   1.46471   1.54562
 Alpha virt. eigenvalues --    1.57364   1.58480   1.58966   1.60219   1.61620
 Alpha virt. eigenvalues --    1.62482   1.63143   1.64429   1.65496   1.66573
 Alpha virt. eigenvalues --    1.68017   1.68304   1.68650   1.70334   1.73445
 Alpha virt. eigenvalues --    1.75274   1.75827   1.76266   1.77099   1.77868
 Alpha virt. eigenvalues --    1.78628   1.83873   1.86194   1.87172   1.89049
 Alpha virt. eigenvalues --    1.89945   1.91530   1.91737   1.92730   1.94195
 Alpha virt. eigenvalues --    1.95489   1.95777   1.98983   2.00504   2.00909
 Alpha virt. eigenvalues --    2.01299   2.01782   2.05428   2.05593   2.05750
 Alpha virt. eigenvalues --    2.06394   2.06929   2.07937   2.10172   2.10905
 Alpha virt. eigenvalues --    2.11632   2.14728   2.15113   2.19281   2.20467
 Alpha virt. eigenvalues --    2.22917   2.26867   2.27092   2.28188   2.30283
 Alpha virt. eigenvalues --    2.31519   2.42316   2.44784   2.46884   2.48270
 Alpha virt. eigenvalues --    2.48822   2.49775   2.50677   2.51330   2.53435
 Alpha virt. eigenvalues --    2.58448   2.59289   2.60302   2.67018   2.67865
 Alpha virt. eigenvalues --    2.70547   2.77966   2.80464   2.81504   2.82932
 Alpha virt. eigenvalues --    2.83311   2.83814   2.86379   2.88046   2.88068
 Alpha virt. eigenvalues --    2.90591   2.92416   2.93280   2.93770   2.96405
 Alpha virt. eigenvalues --    2.96640   2.97242   2.98039   3.00434   3.00661
 Alpha virt. eigenvalues --    3.00972   3.01193   3.02066   3.02903   3.04490
 Alpha virt. eigenvalues --    3.05964   3.08543   3.12603   3.14791   3.17306
 Alpha virt. eigenvalues --    3.19519   3.20472   3.22058   3.25300   3.25358
 Alpha virt. eigenvalues --    3.27405   3.32209   3.32392   3.37313   3.45047
 Alpha virt. eigenvalues --    3.48680   3.49982   3.50991   3.53510   3.65643
 Alpha virt. eigenvalues --    3.70009   3.70514   3.71247   3.75299   3.76541
 Alpha virt. eigenvalues --    3.83315   3.88811   3.91373   3.98442   4.31235
 Alpha virt. eigenvalues --    4.36904   4.37407   4.39546   4.40477   4.41712
 Alpha virt. eigenvalues --    4.42540   4.50781   4.51848   4.54820   4.94879
 Alpha virt. eigenvalues --    4.95664   5.21835   5.35276   5.85877  23.89528
 Alpha virt. eigenvalues --   23.95992  23.98504  24.17134  24.19192  24.23972
 Alpha virt. eigenvalues --   24.24939  24.30152  24.31073  24.33990  24.34302
 Alpha virt. eigenvalues --   24.43288  24.44338  50.14440
          Condensed to atoms (all electrons):
               1          2          3          4          5          6
     1  C   13.286027  -0.138334  -0.648237  -0.626799   0.054152  -3.621482
     2  C   -0.138334  15.125037  -4.413508  -2.397123   0.653510  -2.565035
     3  C   -0.648237  -4.413508   9.912363   0.512164  -0.030009  -0.328318
     4  C   -0.626799  -2.397123   0.512164   7.505447  -0.223099   1.685487
     5  H    0.054152   0.653510  -0.030009  -0.223099   0.499952  -0.181231
     6  C   -3.621482  -2.565035  -0.328318   1.685487  -0.181231  18.380222
     7  C   -0.669574  -0.236760   0.628597  -0.089460   0.018556   0.184512
     8  H    0.093016   0.089164   0.311109  -0.004094  -0.000761  -0.006119
     9  C   -0.339524   1.028402  -0.679060  -0.178012   0.020869  -0.618237
    10  H    0.048346  -0.176311   0.034710   0.508635  -0.017756   0.039944
    11  C   -1.589047   0.029774   0.233904  -0.551468   0.052160  -5.562874
    12  O    0.048714   0.082952  -0.060004  -0.012787  -0.000494   0.252495
    13  H   -0.004330  -0.023381  -0.048609   0.016114   0.001487   0.011911
    14  H    0.022569   0.040573  -0.021487  -0.095108   0.000704  -0.031723
    15  C   -0.396142  -0.234765   0.415096   0.022368   0.004480  -2.054659
    16  C   -0.370563  -0.254411  -0.077148   0.197601  -0.032919   1.554375
    17  C   -0.283134  -0.008130   0.071761   0.101992  -0.013435   0.705822
    18  H    0.011337   0.020498  -0.014246  -0.014692   0.000007  -0.098071
    19  C   -0.098955   0.030439  -0.118720   0.048207  -0.005822  -0.212172
    20  H   -0.003769  -0.045178   0.038704  -0.006251  -0.002541  -0.000148
    21  C    0.071971  -0.068363   0.060663  -0.015104   0.007200  -0.137942
    22  H   -0.007471  -0.001560   0.000368   0.002867  -0.001430   0.018206
    23  H   -0.010259   0.007221  -0.005744   0.001317  -0.000286   0.010179
    24  H    0.007122  -0.006386   0.003456  -0.001511   0.000251  -0.023989
               7          8          9         10         11         12
     1  C   -0.669574   0.093016  -0.339524   0.048346  -1.589047   0.048714
     2  C   -0.236760   0.089164   1.028402  -0.176311   0.029774   0.082952
     3  C    0.628597   0.311109  -0.679060   0.034710   0.233904  -0.060004
     4  C   -0.089460  -0.004094  -0.178012   0.508635  -0.551468  -0.012787
     5  H    0.018556  -0.000761   0.020869  -0.017756   0.052160  -0.000494
     6  C    0.184512  -0.006119  -0.618237   0.039944  -5.562874   0.252495
     7  C    5.720905  -0.095587   0.515513   0.007354  -0.124538  -0.017086
     8  H   -0.095587   0.474321  -0.008781   0.000217  -0.030425  -0.011404
     9  C    0.515513  -0.008781   5.997925  -0.113581   0.203588   0.015314
    10  H    0.007354   0.000217  -0.113581   0.491825  -0.014353  -0.000079
    11  C   -0.124538  -0.030425   0.203588  -0.014353  14.927892   0.044801
    12  O   -0.017086  -0.011404   0.015314  -0.000079   0.044801   7.915467
    13  H    0.459906  -0.014056  -0.064723   0.000682  -0.010728  -0.000648
    14  H   -0.065242   0.002116   0.495590  -0.014432   0.008577   0.000189
    15  C    0.147649  -0.058974  -0.040954   0.002239   0.831416  -0.015031
    16  C   -0.100005   0.029282  -0.011720   0.000357  -1.751533  -0.027113
    17  C    0.061771  -0.007658  -0.024144   0.004660  -1.279058  -0.008072
    18  H   -0.007697  -0.002563   0.011042  -0.001922   0.039705  -0.001589
    19  C   -0.033880   0.002465   0.004262  -0.000746  -0.507636  -0.008857
    20  H    0.004576  -0.000729  -0.000173   0.000117   0.068786  -0.013654
    21  C    0.014454  -0.001579  -0.007422   0.000893  -0.239450   0.002715
    22  H   -0.000575   0.000119   0.000560   0.000118   0.040098   0.000216
    23  H   -0.000818   0.000072   0.000232  -0.000018  -0.003354   0.000600
    24  H    0.000355  -0.000074  -0.000166   0.000011   0.027438   0.000110
              13         14         15         16         17         18
     1  C   -0.004330   0.022569  -0.396142  -0.370563  -0.283134   0.011337
     2  C   -0.023381   0.040573  -0.234765  -0.254411  -0.008130   0.020498
     3  C   -0.048609  -0.021487   0.415096  -0.077148   0.071761  -0.014246
     4  C    0.016114  -0.095108   0.022368   0.197601   0.101992  -0.014692
     5  H    0.001487   0.000704   0.004480  -0.032919  -0.013435   0.000007
     6  C    0.011911  -0.031723  -2.054659   1.554375   0.705822  -0.098071
     7  C    0.459906  -0.065242   0.147649  -0.100005   0.061771  -0.007697
     8  H   -0.014056   0.002116  -0.058974   0.029282  -0.007658  -0.002563
     9  C   -0.064723   0.495590  -0.040954  -0.011720  -0.024144   0.011042
    10  H    0.000682  -0.014432   0.002239   0.000357   0.004660  -0.001922
    11  C   -0.010728   0.008577   0.831416  -1.751533  -1.279058   0.039705
    12  O   -0.000648   0.000189  -0.015031  -0.027113  -0.008072  -0.001589
    13  H    0.486902  -0.014623   0.009540  -0.004078   0.002136  -0.000887
    14  H   -0.014623   0.493921  -0.007602   0.001625  -0.001903   0.000085
    15  C    0.009540  -0.007602  13.148761  -5.350168  -0.892765   0.628343
    16  C   -0.004078   0.001625  -5.350168  11.576747   0.783409  -0.090867
    17  C    0.002136  -0.001903  -0.892765   0.783409   6.745715  -0.170126
    18  H   -0.000887   0.000085   0.628343  -0.090867  -0.170126   0.501150
    19  C   -0.000619   0.000250   0.724398  -0.156490  -0.437231   0.047369
    20  H    0.000016  -0.000033   0.031730   0.389667   0.012443  -0.001314
    21  C    0.000469  -0.000258   0.018653  -0.579262   0.620725  -0.007511
    22  H   -0.000010   0.000013  -0.125888   0.058217   0.445036  -0.016700
    23  H   -0.000013   0.000005   0.003168  -0.087771   0.001604   0.000545
    24  H    0.000010  -0.000004   0.003855  -0.034849  -0.077777   0.000508
              19         20         21         22         23         24
     1  C   -0.098955  -0.003769   0.071971  -0.007471  -0.010259   0.007122
     2  C    0.030439  -0.045178  -0.068363  -0.001560   0.007221  -0.006386
     3  C   -0.118720   0.038704   0.060663   0.000368  -0.005744   0.003456
     4  C    0.048207  -0.006251  -0.015104   0.002867   0.001317  -0.001511
     5  H   -0.005822  -0.002541   0.007200  -0.001430  -0.000286   0.000251
     6  C   -0.212172  -0.000148  -0.137942   0.018206   0.010179  -0.023989
     7  C   -0.033880   0.004576   0.014454  -0.000575  -0.000818   0.000355
     8  H    0.002465  -0.000729  -0.001579   0.000119   0.000072  -0.000074
     9  C    0.004262  -0.000173  -0.007422   0.000560   0.000232  -0.000166
    10  H   -0.000746   0.000117   0.000893   0.000118  -0.000018   0.000011
    11  C   -0.507636   0.068786  -0.239450   0.040098  -0.003354   0.027438
    12  O   -0.008857  -0.013654   0.002715   0.000216   0.000600   0.000110
    13  H   -0.000619   0.000016   0.000469  -0.000010  -0.000013   0.000010
    14  H    0.000250  -0.000033  -0.000258   0.000013   0.000005  -0.000004
    15  C    0.724398   0.031730   0.018653  -0.125888   0.003168   0.003855
    16  C   -0.156490   0.389667  -0.579262   0.058217  -0.087771  -0.034849
    17  C   -0.437231   0.012443   0.620725   0.445036   0.001604  -0.077777
    18  H    0.047369  -0.001314  -0.007511  -0.016700   0.000545   0.000508
    19  C    6.401181  -0.152639   0.483191  -0.006911   0.486259  -0.066818
    20  H   -0.152639   0.461379  -0.007401   0.000576  -0.012517   0.001956
    21  C    0.483191  -0.007401   5.670122  -0.086968  -0.056518   0.517457
    22  H   -0.006911   0.000576  -0.086968   0.489999   0.000800  -0.015552
    23  H    0.486259  -0.012517  -0.056518   0.000800   0.481793  -0.016499
    24  H   -0.066818   0.001956   0.517457  -0.015552  -0.016499   0.499367
 Mulliken charges:
               1
     1  C    1.164368
     2  C   -0.538324
     3  C    0.222196
     4  C   -0.386691
     5  H    0.196453
     6  C   -1.401153
     7  C   -0.322925
     8  H    0.240924
     9  C   -0.206798
    10  H    0.199090
    11  C    1.156325
    12  O   -0.186754
    13  H    0.197532
    14  H    0.186199
    15  C   -0.814749
    16  C    0.337617
    17  C   -0.353643
    18  H    0.167594
    19  C   -0.420525
    20  H    0.236396
    21  C   -0.260736
    22  H    0.205873
    23  H    0.200002
    24  H    0.181729
 Sum of Mulliken charges =  -0.00000
 Mulliken charges with hydrogens summed into heavy atoms:
               1
     1  C    1.164368
     2  C   -0.341871
     3  C    0.463120
     4  C   -0.187600
     6  C   -1.401153
     7  C   -0.125393
     9  C   -0.020599
    11  C    1.156325
    12  O   -0.186754
    15  C   -0.647155
    16  C    0.574012
    17  C   -0.147770
    19  C   -0.220523
    21  C   -0.079007
 Electronic spatial extent (au):  <R**2>=           3067.9937
 Charge=             -0.0000 electrons
 Dipole moment (field-independent basis, Debye):
    X=              0.1365    Y=             -3.2421    Z=             -0.1498  Tot=              3.2484
 Quadrupole moment (field-independent basis, Debye-Ang):
   XX=            -64.4004   YY=            -84.4871   ZZ=            -79.1711
   XY=              0.6829   XZ=              2.7852   YZ=             -0.7883
 Traceless Quadrupole moment (field-independent basis, Debye-Ang):
   XX=             11.6191   YY=             -8.4675   ZZ=             -3.1516
   XY=              0.6829   XZ=              2.7852   YZ=             -0.7883
 Octapole moment (field-independent basis, Debye-Ang**2):
  XXX=              5.4496  YYY=            -20.3827  ZZZ=              0.9210  XYY=              4.0905
  XXY=            -10.4219  XXZ=             -1.9528  XZZ=             -5.1818  YZZ=              2.3974
  YYZ=             -1.3580  XYZ=             19.0327
 Hexadecapole moment (field-independent basis, Debye-Ang**3):
 XXXX=          -2869.0569 YYYY=           -697.0943 ZZZZ=           -283.8670 XXXY=             17.1229
 XXXZ=             69.5456 YYYX=             -1.6978 YYYZ=              1.6723 ZZZX=              8.0541
 ZZZY=             -6.4529 XXYY=           -614.2523 XXZZ=           -600.0621 YYZZ=           -139.2188
 XXYZ=             -1.8865 YYXZ=            -10.8756 ZZXY=              1.5449
 N-N= 7.817146195553D+02 E-N=-2.905657570488D+03  KE= 5.764061187854D+02
 No NMR shielding tensors so no spin-rotation constants.
 Leave Link  601 at Tue Nov 22 15:03:39 2022, MaxMem= 16106127360 cpu:               4.6 elap:               0.2
 (Enter /opt/ap/G16/B01/g16/l9999.exe)
 1\1\GINC-N13\SP\RwB97XD\6-311++G(d,p)\C13H10O1\ROOT\22-Nov-2022\0\\#P 
 wB97XD/6-311++G(d,p) scf=maxcycle=512\\_conf028.gjf nmol_natom 1_24\\0
 ,1\C\C,1,1.39746343\C,1,1.39996263,2,119.28066518\C,2,1.39288453,1,120
 .37436646,3,-0.51002981,0\H,2,0.95014703,1,119.82324024,3,179.45634896
 ,0\C,1,1.49653039,2,122.77761373,4,174.46828757,0\C,3,1.3870125,1,120.
 10017821,2,-0.37315804,0\H,3,0.9501092,1,119.95246451,2,179.5923884,0\
 C,7,1.38720039,3,120.16568731,1,1.0745106,0\H,4,0.95011919,2,120.18755
 644,1,-179.31195299,0\C,6,1.49516902,1,120.70972921,2,50.,0\O,6,1.2215
 0059,1,119.67074267,2,-130.,0\H,7,0.94956661,3,119.91274826,1,-178.886
 36029,0\H,9,0.94992259,7,119.76037934,3,179.10763853,0\C,11,1.39713972
 ,6,122.62585705,1,30.97749054,0\C,11,1.40039562,6,117.74753532,1,-153.
 15467779,0\C,15,1.39455701,11,119.80747484,6,175.4763048,0\H,15,0.9496
 2854,11,120.10535689,6,-4.50802339,0\C,16,1.38466431,11,120.4617377,6,
 -176.88197195,0\H,16,0.9497464,11,119.75779177,6,3.14699974,0\C,17,1.3
 9088945,15,120.3475273,11,0.7973643,0\H,17,0.94984298,15,119.8156451,1
 1,-179.16676483,0\H,19,0.94974749,16,119.98566335,11,-178.40987425,0\H
 ,21,0.94938585,17,120.0744529,15,179.91636093,0\\Version=ES64L-G16RevB
 .01\State=1-A\HF=-576.4185332\RMSD=4.453e-09\Dipole=0.0135078,0.885060
 1,0.9218689\Quadrupole=8.6897266,-4.6905433,-3.9991832,-1.6425625,1.09
 05528,-2.030349\PG=C01 [X(C13H10O1)]\\@


 SLITHERY-DITHERY
 FRIEDRICH A. KEKULE
 DREAMT ON A BUS OF THINGS
 FREUD WOULD THINK KEEN.
 MOST OF THE TIME THEY WERE
 HERPETOLOGICAL
 BITING THEIR TAILS IN THE
 SHAPE OF BENZENE.
 Job cpu time:       0 days  0 hours 20 minutes 48.2 seconds.
 Elapsed time:       0 days  0 hours  0 minutes 39.2 seconds.
 File lengths (MBytes):  RWF=     78 Int=      0 D2E=      0 Chk=      9 Scr=      1
 Normal termination of Gaussian 16 at Tue Nov 22 15:03:39 2022.
