 Entering Gaussian System, Link 0=g16
 Input=_conf035.gjf
 Output=_conf035.log
 Initial command:
 /opt/ap/G16/B01/g16/l1.exe "/tmp2/scr/Gau-17833.inp" -scrdir="/tmp2/scr/"
 Entering Link 1 = /opt/ap/G16/B01/g16/l1.exe PID=     17834.
  
 Copyright (c) 1988-2017, Gaussian, Inc.  All Rights Reserved.
  
 This is part of the Gaussian(R) 16 program.  It is based on
 the Gaussian(R) 09 system (copyright 2009, Gaussian, Inc.),
 the Gaussian(R) 03 system (copyright 2003, Gaussian, Inc.),
 the Gaussian(R) 98 system (copyright 1998, Gaussian, Inc.),
 the Gaussian(R) 94 system (copyright 1995, Gaussian, Inc.),
 the Gaussian 92(TM) system (copyright 1992, Gaussian, Inc.),
 the Gaussian 90(TM) system (copyright 1990, Gaussian, Inc.),
 the Gaussian 88(TM) system (copyright 1988, Gaussian, Inc.),
 the Gaussian 86(TM) system (copyright 1986, Carnegie Mellon
 University), and the Gaussian 82(TM) system (copyright 1983,
 Carnegie Mellon University). Gaussian is a federally registered
 trademark of Gaussian, Inc.
  
 This software contains proprietary and confidential information,
 including trade secrets, belonging to Gaussian, Inc.
  
 This software is provided under written license and may be
 used, copied, transmitted, or stored only in accord with that
 written license.
  
 The following legend is applicable only to US Government
 contracts under FAR:
  
                    RESTRICTED RIGHTS LEGEND
  
 Use, reproduction and disclosure by the US Government is
 subject to restrictions as set forth in subparagraphs (a)
 and (c) of the Commercial Computer Software - Restricted
 Rights clause in FAR 52.227-19.
  
 Gaussian, Inc.
 340 Quinnipiac St., Bldg. 40, Wallingford CT 06492
  
  
 ---------------------------------------------------------------
 Warning -- This program may not be used in any manner that
 competes with the business of Gaussian, Inc. or will provide
 assistance to any competitor of Gaussian, Inc.  The licensee
 of this program is prohibited from giving any competitor of
 Gaussian, Inc. access to this program.  By using this program,
 the user acknowledges that Gaussian, Inc. is engaged in the
 business of creating and licensing software in the field of
 computational chemistry and represents and warrants to the
 licensee that it is not a competitor of Gaussian, Inc. and that
 it will not use this program in any manner prohibited above.
 ---------------------------------------------------------------
  

 Cite this work as:
 Gaussian 16, Revision B.01,
 M. J. Frisch, G. W. Trucks, H. B. Schlegel, G. E. Scuseria, 
 M. A. Robb, J. R. Cheeseman, G. Scalmani, V. Barone, 
 G. A. Petersson, H. Nakatsuji, X. Li, M. Caricato, A. V. Marenich, 
 J. Bloino, B. G. Janesko, R. Gomperts, B. Mennucci, H. P. Hratchian, 
 J. V. Ortiz, A. F. Izmaylov, J. L. Sonnenberg, D. Williams-Young, 
 F. Ding, F. Lipparini, F. Egidi, J. Goings, B. Peng, A. Petrone, 
 T. Henderson, D. Ranasinghe, V. G. Zakrzewski, J. Gao, N. Rega, 
 G. Zheng, W. Liang, M. Hada, M. Ehara, K. Toyota, R. Fukuda, 
 J. Hasegawa, M. Ishida, T. Nakajima, Y. Honda, O. Kitao, H. Nakai, 
 T. Vreven, K. Throssell, J. A. Montgomery, Jr., J. E. Peralta, 
 F. Ogliaro, M. J. Bearpark, J. J. Heyd, E. N. Brothers, K. N. Kudin, 
 V. N. Staroverov, T. A. Keith, R. Kobayashi, J. Normand, 
 K. Raghavachari, A. P. Rendell, J. C. Burant, S. S. Iyengar, 
 J. Tomasi, M. Cossi, J. M. Millam, M. Klene, C. Adamo, R. Cammi, 
 J. W. Ochterski, R. L. Martin, K. Morokuma, O. Farkas, 
 J. B. Foresman, and D. J. Fox, Gaussian, Inc., Wallingford CT, 2016.
 
 ******************************************
 Gaussian 16:  ES64L-G16RevB.01 20-Dec-2017
                22-Nov-2022 
 ******************************************
 %nprocshared=32
 Will use up to   32 processors via shared memory.
 %mem=120GB
 %chk=_conf035.chk
 ----------------------------------------
 #P wB97XD/6-311++G(d,p) scf=maxcycle=512
 ----------------------------------------
 1/38=1,172=1/1;
 2/12=2,17=6,18=5,40=1/2;
 3/5=4,6=6,7=1111,11=2,25=1,30=1,74=-58/1,2,3;
 4//1;
 5/5=2,7=512,38=5/2;
 6/7=2,8=2,9=2,10=2,28=1/1;
 99/5=1,9=1/99;
 Leave Link    1 at Tue Nov 22 15:03:38 2022, MaxMem= 16106127360 cpu:               1.8 elap:               0.1
 (Enter /opt/ap/G16/B01/g16/l101.exe)
 ----------------------------
 _conf035.gjf nmol_natom 1_24
 ----------------------------
 Symbolic Z-matrix:
 Charge =  0 Multiplicity = 1
 C
 C                    1     1.39746 
 C                    1     1.39996  2     119.28067 
 C                    2     1.39288  1     120.37437  3    -0.51003  0
 H                    2     0.95015  1     119.82324  3     179.45635  0
 C                    1     1.49653  2     122.77761  4     174.46829  0
 C                    3     1.38701  1     120.10018  2    -0.37316  0
 H                    3     0.95011  1     119.95246  2     179.59239  0
 C                    7     1.3872   3     120.16569  1     1.07451  0
 H                    4     0.95012  2     120.18756  1    -179.31195  0
 C                    6     1.49517  1     120.70973  2     85.      0
 O                    6     1.2215   1     119.67074  2    -95.      0
 H                    7     0.94957  3     119.91275  1    -178.88636  0
 H                    9     0.94992  7     119.76038  3     179.10764  0
 C                    11    1.39714  6     122.62586  1     30.97749  0
 C                    11    1.4004   6     117.74754  1    -153.15468  0
 C                    15    1.39456  11    119.80747  6     175.4763  0
 H                    15    0.94963  11    120.10536  6    -4.50802  0
 C                    16    1.38466  11    120.46174  6    -176.88197  0
 H                    16    0.94975  11    119.75779  6     3.147    0
 C                    17    1.39089  15    120.34753  11    0.79736  0
 H                    17    0.94984  15    119.81565  11   -179.16676  0
 H                    19    0.94975  16    119.98566  11   -178.40987  0
 H                    21    0.94939  17    120.07445  15    179.91636  0
 
 ITRead=  0  0  0  0  0  0  0  0  0  0  0  0  0  0  0  0  0  0  0  0
 ITRead=  0  0  0  0
 MicOpt= -1 -1 -1 -1 -1 -1 -1 -1 -1 -1 -1 -1 -1 -1 -1 -1 -1 -1 -1 -1
 MicOpt= -1 -1 -1 -1
 NAtoms=     24 NQM=       24 NQMF=       0 NMMI=      0 NMMIF=      0
                NMic=       0 NMicF=      0.
                    Isotopes and Nuclear Properties:
 (Nuclear quadrupole moments (NQMom) in fm**2, nuclear magnetic moments (NMagM)
  in nuclear magnetons)

  Atom         1           2           3           4           5           6           7           8           9          10
 IAtWgt=          12          12          12          12           1          12          12           1          12           1
 AtmWgt=  12.0000000  12.0000000  12.0000000  12.0000000   1.0078250  12.0000000  12.0000000   1.0078250  12.0000000   1.0078250
 NucSpn=           0           0           0           0           1           0           0           1           0           1
 AtZEff=  -0.0000000  -0.0000000  -0.0000000  -0.0000000  -0.0000000  -0.0000000  -0.0000000  -0.0000000  -0.0000000  -0.0000000
 NQMom=    0.0000000   0.0000000   0.0000000   0.0000000   0.0000000   0.0000000   0.0000000   0.0000000   0.0000000   0.0000000
 NMagM=    0.0000000   0.0000000   0.0000000   0.0000000   2.7928460   0.0000000   0.0000000   2.7928460   0.0000000   2.7928460
 AtZNuc=   6.0000000   6.0000000   6.0000000   6.0000000   1.0000000   6.0000000   6.0000000   1.0000000   6.0000000   1.0000000

  Atom        11          12          13          14          15          16          17          18          19          20
 IAtWgt=          12          16           1           1          12          12          12           1          12           1
 AtmWgt=  12.0000000  15.9949146   1.0078250   1.0078250  12.0000000  12.0000000  12.0000000   1.0078250  12.0000000   1.0078250
 NucSpn=           0           0           1           1           0           0           0           1           0           1
 AtZEff=  -0.0000000  -0.0000000  -0.0000000  -0.0000000  -0.0000000  -0.0000000  -0.0000000  -0.0000000  -0.0000000  -0.0000000
 NQMom=    0.0000000   0.0000000   0.0000000   0.0000000   0.0000000   0.0000000   0.0000000   0.0000000   0.0000000   0.0000000
 NMagM=    0.0000000   0.0000000   2.7928460   2.7928460   0.0000000   0.0000000   0.0000000   2.7928460   0.0000000   2.7928460
 AtZNuc=   6.0000000   8.0000000   1.0000000   1.0000000   6.0000000   6.0000000   6.0000000   1.0000000   6.0000000   1.0000000

  Atom        21          22          23          24
 IAtWgt=          12           1           1           1
 AtmWgt=  12.0000000   1.0078250   1.0078250   1.0078250
 NucSpn=           0           1           1           1
 AtZEff=  -0.0000000  -0.0000000  -0.0000000  -0.0000000
 NQMom=    0.0000000   0.0000000   0.0000000   0.0000000
 NMagM=    0.0000000   2.7928460   2.7928460   2.7928460
 AtZNuc=   6.0000000   1.0000000   1.0000000   1.0000000
 Leave Link  101 at Tue Nov 22 15:03:39 2022, MaxMem= 16106127360 cpu:               5.1 elap:               0.2
 (Enter /opt/ap/G16/B01/g16/l202.exe)
                          Input orientation:                          
 ---------------------------------------------------------------------
 Center     Atomic      Atomic             Coordinates (Angstroms)
 Number     Number       Type             X           Y           Z
 ---------------------------------------------------------------------
      1          6           0        0.000000    0.000000    0.000000
      2          6           0        0.000000    0.000000    1.397463
      3          6           0        1.221096    0.000000   -0.684705
      4          6           0        1.201650   -0.010697    2.101772
      5          1           0       -0.824276    0.007821    1.869996
      6          6           0       -1.253421   -0.110138   -0.810191
      7          6           0        2.414707    0.007815    0.021719
      8          1           0        1.232246   -0.005856   -1.634731
      9          6           0        2.403895   -0.006831    1.408800
     10          1           0        1.198494   -0.020531    3.051836
     11          6           0       -2.065463    1.104045   -1.129371
     12          8           0       -1.617420   -1.203501   -1.215316
     13          1           0        3.241298    0.023792   -0.445367
     14          1           0        3.224827   -0.014217    1.886678
     15          6           0       -1.496482    2.369914   -1.290112
     16          6           0       -3.436475    0.930451   -1.355867
     17          6           0       -2.295219    3.444521   -1.680019
     18          1           0       -0.568518    2.498286   -1.134562
     19          6           0       -4.229708    2.005815   -1.718727
     20          1           0       -3.824834    0.069113   -1.259470
     21          6           0       -3.657985    3.266087   -1.893569
     22          1           0       -1.906315    4.302634   -1.800837
     23          1           0       -5.162728    1.884933   -1.848655
     24          1           0       -4.198337    4.000621   -2.157791
 ---------------------------------------------------------------------
                    Distance matrix (angstroms):
                    1          2          3          4          5
     1  C    0.000000
     2  C    1.397463   0.000000
     3  C    1.399963   2.413814   0.000000
     4  C    2.421058   1.392885   2.786566   0.000000
     5  H    2.043619   0.950147   3.272630   2.039225   0.000000
     6  C    1.496530   2.541049   2.480142   3.810091   2.716889
     7  C    2.414817   2.779127   1.387013   2.408002   3.729228
     8  H    2.047146   3.273021   0.950109   3.736632   4.063567
     9  C    2.786301   2.403931   2.404542   1.387667   3.260982
    10  H    3.278797   2.042977   3.736665   0.950119   2.342893
    11  C    2.600103   3.445279   3.495442   4.728315   3.426143
    12  O    2.354029   3.300163   3.128439   4.513647   3.408157
    13  H    3.271839   3.728619   2.034469   3.263323   4.678681
    14  H    3.736210   3.261755   3.259932   2.034583   4.049198
    15  C    3.085505   3.883171   3.656260   4.944907   4.002203
    16  C    3.809655   4.500658   4.796786   5.861162   4.252178
    17  C    4.467127   5.157873   5.021936   6.202304   5.155307
    18  H    2.802120   3.602194   3.105885   4.461205   3.910907
    19  C    4.986757   5.623555   5.899471   6.939898   5.335530
    20  H    4.027455   4.657620   5.079029   6.047302   4.335973
    21  C    5.256784   5.905851   5.994506   7.093385   5.728056
    22  H    5.038821   5.689976   5.434989   6.595046   5.752499
    23  H    5.798643   6.383104   6.757289   7.726875   6.014489
    24  H    6.187654   6.802266   6.895302   7.962060   6.599227
                    6          7          8          9         10
     6  C    0.000000
     7  C    3.763130   0.000000
     8  H    2.620930   2.035246   0.000000
     9  C    4.279082   1.387200   3.261263   0.000000
    10  H    4.575496   3.265208   4.686711   2.037829   0.000000
    11  C    1.495169   4.753804   3.515985   5.258471   5.422230
    12  O    1.221501   4.388119   3.119432   4.948633   5.247606
    13  H    4.511488   0.949567   2.334899   2.034727   4.050363
    14  H    5.228480   2.033434   4.046081   0.949923   2.337447
    15  C    2.537727   4.753716   3.634419   5.305278   5.641776
    16  C    2.479176   6.081556   4.769841   6.529302   6.466463
    17  C    3.804937   6.073735   4.934589   6.598053   6.826644
    18  H    2.716281   4.054511   3.124683   4.645377   5.195450
    19  C    3.763108   7.153279   5.821238   7.605054   7.505313
    20  H    2.616515   6.370014   5.071538   6.776613   6.620364
    21  C    4.284219   7.152779   5.889564   7.639634   7.671002
    22  H    4.569487   6.359120   5.333033   6.888480   7.202641
    23  H    4.510144   8.027415   6.672071   8.452429   8.252924
    24  H    5.233249   8.026525   6.768802   8.507038   8.510914
                   11         12         13         14         15
    11  C    0.000000
    12  O    2.352211   0.000000
    13  H    5.458619   5.070129   0.000000
    14  H    6.191465   5.872318   2.332413   0.000000
    15  C    1.397140   3.576242   5.353918   6.169833   0.000000
    16  C    1.400396   2.807573   6.800271   7.468563   2.416598
    17  C    2.415332   4.720113   6.624106   7.426649   1.394557
    18  H    2.045674   3.848369   4.594867   5.461687   0.949629
    19  C    2.417537   4.168594   7.833632   8.523472   2.790484
    20  H    2.045335   2.548367   7.113019   7.720292   3.273506
    21  C    2.791872   4.959954   7.759502   8.510215   2.416481
    22  H    3.272181   5.544711   6.829620   7.652555   2.040640
    23  H    3.274172   4.744339   8.721279   9.376064   3.740125
    24  H    3.741249   5.884919   8.607887   9.358419   3.272933
                   16         17         18         19         20
    16  C    0.000000
    17  C    2.779944   0.000000
    18  H    3.276013   2.043131   0.000000
    19  C    1.384664   2.411145   3.740066   0.000000
    20  H    0.949746   3.729607   4.064490   2.031171   0.000000
    21  C    2.406945   1.390889   3.272678   1.394891   3.263520
    22  H    3.729747   0.949843   2.342925   3.268069   4.679370
    23  H    2.033181   3.268541   4.689659   0.949747   2.331159
    24  H    3.263351   2.039453   4.059507   2.042795   4.050092
                   21         22         23         24
    21  C    0.000000
    22  H    2.037493   0.000000
    23  H    2.043001   4.056081   0.000000
    24  H    0.949386   2.339229   2.345581   0.000000
 Stoichiometry    C13H10O
 Framework group  C1[X(C13H10O)]
 Deg. of freedom    66
 Full point group                 C1      NOp   1
 Largest Abelian subgroup         C1      NOp   1
 Largest concise Abelian subgroup C1      NOp   1
                         Standard orientation:                         
 ---------------------------------------------------------------------
 Center     Atomic      Atomic             Coordinates (Angstroms)
 Number     Number       Type             X           Y           Z
 ---------------------------------------------------------------------
      1          6           0       -1.287009    0.360062   -0.044806
      2          6           0       -1.881494    0.292129    1.218079
      3          6           0       -1.988186   -0.117927   -1.158257
      4          6           0       -3.162014   -0.235541    1.366272
      5          1           0       -1.409463    0.607191    1.980117
      6          6           0        0.032529    1.024132   -0.284459
      7          6           0       -3.255702   -0.659122   -1.002331
      8          1           0       -1.595436   -0.071102   -2.022122
      9          6           0       -3.842813   -0.708742    0.253522
     10          1           0       -3.567523   -0.271487    2.224757
     11          6           0        1.311634    0.278604   -0.075636
     12          8           0        0.065474    2.187718   -0.654656
     13          1           0       -3.722459   -0.996998   -1.757085
     14          1           0       -4.716261   -1.069001    0.351783
     15          6           0        1.421480   -1.099733   -0.275943
     16          6           0        2.453179    1.021078    0.251037
     17          6           0        2.664297   -1.720824   -0.155772
     18          1           0        0.652202   -1.612245   -0.493512
     19          6           0        3.680318    0.395681    0.393525
     20          1           0        2.384937    1.960079    0.376093
     21          6           0        3.791706   -0.978042    0.178589
     22          1           0        2.741201   -2.655941   -0.303566
     23          1           0        4.445787    0.902273    0.637334
     24          1           0        4.635678   -1.405044    0.260529
 ---------------------------------------------------------------------
 Rotational constants (GHZ):           1.6957209           0.3951382           0.3660984
 Leave Link  202 at Tue Nov 22 15:03:39 2022, MaxMem= 16106127360 cpu:               0.3 elap:               0.0
 (Enter /opt/ap/G16/B01/g16/l301.exe)
 Standard basis: 6-311++G(d,p) (5D, 7F)
 Ernie: Thresh=  0.10000D-02 Tol=  0.10000D-05 Strict=F.
 There are   392 symmetry adapted cartesian basis functions of A   symmetry.
 There are   378 symmetry adapted basis functions of A   symmetry.
   378 basis functions,   594 primitive gaussians,   392 cartesian basis functions
    48 alpha electrons       48 beta electrons
       nuclear repulsion energy       780.6228978407 Hartrees.
 IExCor= 4639 DFT=T Ex+Corr=wB97XD ExCW=0 ScaHFX=  1.000000
 ScaDFX=  1.000000  1.000000  1.000000  1.000000 ScalE2=  1.000000  1.000000
 IRadAn=      5 IRanWt=     -1 IRanGd=            0 ICorTp=0 IEmpDi=121
 HFx  wShort=  0.000000 wLong=  0.200000 cFull=  0.222036 cShort=  0.000000 cLong=  0.777964
 DFx  wShort=  0.000000 wLong=  0.200000 cFull=  0.000000 cShort=  0.000000 cLong=  1.000000
 NAtoms=   24 NActive=   24 NUniq=   24 SFac= 1.00D+00 NAtFMM=   60 NAOKFM=F Big=F
 Integral buffers will be    131072 words long.
 Raffenetti 2 integral format.
 Two-electron integral symmetry is turned on.
 R6Disp:  Grimme-D2 Dispersion energy=       -0.0138876115 Hartrees.
 Nuclear repulsion after empirical dispersion term =      780.6090102291 Hartrees.
 Leave Link  301 at Tue Nov 22 15:03:39 2022, MaxMem= 16106127360 cpu:               1.2 elap:               0.0
 (Enter /opt/ap/G16/B01/g16/l302.exe)
 NPDir=0 NMtPBC=     1 NCelOv=     1 NCel=       1 NClECP=     1 NCelD=      1
         NCelK=      1 NCelE2=     1 NClLst=     1 CellRange=     0.0.
 One-electron integrals computed using PRISM.
 One-electron integral symmetry used in STVInt
 NBasis=   378 RedAO= T EigKep=  1.55D-06  NBF=   378
 NBsUse=   376 1.00D-06 EigRej=  8.61D-07 NBFU=   376
 Precomputing XC quadrature grid using
 IXCGrd= 4 IRadAn=           5 IRanWt=          -1 IRanGd=           0 AccXCQ= 0.00D+00.
 Generated NRdTot=       0 NPtTot=           0 NUsed=           0 NTot=          32
 NSgBfM=   392   392   392   392   392 MxSgAt=    24 MxSgA2=    24.
 Leave Link  302 at Tue Nov 22 15:03:39 2022, MaxMem= 16106127360 cpu:               8.4 elap:               0.3
 (Enter /opt/ap/G16/B01/g16/l303.exe)
 DipDrv:  MaxL=1.
 Leave Link  303 at Tue Nov 22 15:03:39 2022, MaxMem= 16106127360 cpu:               1.6 elap:               0.1
 (Enter /opt/ap/G16/B01/g16/l401.exe)
 ExpMin= 3.60D-02 ExpMax= 8.59D+03 ExpMxC= 1.30D+03 IAcc=3 IRadAn=         5 AccDes= 0.00D+00
 Harris functional with IExCor= 4639 and IRadAn=       5 diagonalized for initial guess.
 HarFok:  IExCor= 4639 AccDes= 0.00D+00 IRadAn=         5 IDoV= 1 UseB2=F ITyADJ=14
 ICtDFT=  3500011 ScaDFX=  1.000000  1.000000  1.000000  1.000000
 FoFCou: FMM=F IPFlag=           0 FMFlag=      100000 FMFlg1=           0
         NFxFlg=           0 DoJE=T BraDBF=F KetDBF=T FulRan=T
         wScrn=  0.000000 ICntrl=       500 IOpCl=  0 I1Cent=   200000004 NGrid=           0
         NMat0=    1 NMatS0=      1 NMatT0=    0 NMatD0=    1 NMtDS0=    0 NMtDT0=    0
 Petite list used in FoFCou.
 Harris En= -550.903342415033    
 JPrj=0 DoOrth=F DoCkMO=F.
 Leave Link  401 at Tue Nov 22 15:03:40 2022, MaxMem= 16106127360 cpu:              24.0 elap:               0.8
 (Enter /opt/ap/G16/B01/g16/l502.exe)
 Integral symmetry usage will be decided dynamically.
 Closed shell SCF:
 Using DIIS extrapolation, IDIIS=  1040.
 NGot= 16106127360 LenX= 16105803762 LenY= 16105649657
 Requested convergence on RMS density matrix=1.00D-08 within 512 cycles.
 Requested convergence on MAX density matrix=1.00D-06.
 Requested convergence on             energy=1.00D-06.
 No special actions if energy rises.
 Fock matrices will be formed incrementally for  20 cycles.

 Cycle   1  Pass 1  IDiag  1:
 FoFJK:  IHMeth= 1 ICntrl=       0 DoSepK=T KAlg= 0 I1Cent=           0 FoldK=F
 IRaf=         1 NMat=       1 IRICut=       1 DoRegI=T DoRafI=F ISym2E= 0 IDoP0=0 IntGTp=1.
 FoFCou: FMM=F IPFlag=           0 FMFlag=      100000 FMFlg1=           0
         NFxFlg=           0 DoJE=T BraDBF=F KetDBF=F FulRan=T
         wScrn=  0.000000 ICntrl=       500 IOpCl=  0 I1Cent=           0 NGrid=           0
         NMat0=    1 NMatS0=      1 NMatT0=    0 NMatD0=    1 NMtDS0=    0 NMtDT0=    0
 Symmetry not used in FoFCou.
 E= -576.254330515816    
 DIIS: error= 4.91D-02 at cycle   1 NSaved=   1.
 NSaved= 1 IEnMin= 1 EnMin= -576.254330515816     IErMin= 1 ErrMin= 4.91D-02
 ErrMax= 4.91D-02  0.00D+00 EMaxC= 1.00D-01 BMatC= 1.20D+00 BMatP= 1.20D+00
 IDIUse=3 WtCom= 5.09D-01 WtEn= 4.91D-01
 Coeff-Com:  0.100D+01
 Coeff-En:   0.100D+01
 Coeff:      0.100D+01
 Gap=     0.422 Goal=   None    Shift=    0.000
 GapD=    0.422 DampG=2.000 DampE=0.500 DampFc=1.0000 IDamp=-1.
 RMSDP=2.54D-02 MaxDP=1.97D+00              OVMax= 1.14D-01

 Cycle   2  Pass 1  IDiag  1:
 RMSU=  1.93D-02    CP:  7.55D-01
 E= -576.344820775702     Delta-E=       -0.090490259886 Rises=F Damp=F
 DIIS: error= 1.08D-02 at cycle   2 NSaved=   2.
 NSaved= 2 IEnMin= 2 EnMin= -576.344820775702     IErMin= 2 ErrMin= 1.08D-02
 ErrMax= 1.08D-02  0.00D+00 EMaxC= 1.00D-01 BMatC= 7.77D-02 BMatP= 1.20D+00
 IDIUse=3 WtCom= 8.92D-01 WtEn= 1.08D-01
 Coeff-Com:  0.128D+00 0.872D+00
 Coeff-En:   0.154D+00 0.846D+00
 Coeff:      0.131D+00 0.869D+00
 Gap=     0.442 Goal=   None    Shift=    0.000
 RMSDP=1.20D-02 MaxDP=9.66D-01 DE=-9.05D-02 OVMax= 1.42D-01

 Cycle   3  Pass 1  IDiag  1:
 RMSU=  7.88D-03    CP:  7.12D-01  5.52D-01
 E= -576.364539622265     Delta-E=       -0.019718846564 Rises=F Damp=F
 DIIS: error= 1.05D-02 at cycle   3 NSaved=   3.
 NSaved= 3 IEnMin= 3 EnMin= -576.364539622265     IErMin= 3 ErrMin= 1.05D-02
 ErrMax= 1.05D-02  0.00D+00 EMaxC= 1.00D-01 BMatC= 5.40D-02 BMatP= 7.77D-02
 IDIUse=3 WtCom= 8.95D-01 WtEn= 1.05D-01
 Coeff-Com:  0.238D-01 0.458D+00 0.518D+00
 Coeff-En:   0.000D+00 0.418D+00 0.582D+00
 Coeff:      0.213D-01 0.454D+00 0.525D+00
 Gap=     0.361 Goal=   None    Shift=    0.000
 RMSDP=5.32D-03 MaxDP=3.40D-01 DE=-1.97D-02 OVMax= 6.34D-02

 Cycle   4  Pass 1  IDiag  1:
 RMSU=  1.41D-03    CP:  6.81D-01  7.41D-01  6.25D-01
 E= -576.412215933326     Delta-E=       -0.047676311061 Rises=F Damp=F
 DIIS: error= 1.63D-03 at cycle   4 NSaved=   4.
 NSaved= 4 IEnMin= 4 EnMin= -576.412215933326     IErMin= 4 ErrMin= 1.63D-03
 ErrMax= 1.63D-03  0.00D+00 EMaxC= 1.00D-01 BMatC= 8.50D-04 BMatP= 5.40D-02
 IDIUse=3 WtCom= 9.84D-01 WtEn= 1.63D-02
 Coeff-Com:  0.927D-02 0.191D+00 0.240D+00 0.560D+00
 Coeff-En:   0.000D+00 0.000D+00 0.000D+00 0.100D+01
 Coeff:      0.912D-02 0.188D+00 0.236D+00 0.567D+00
 Gap=     0.329 Goal=   None    Shift=    0.000
 RMSDP=8.82D-04 MaxDP=6.23D-02 DE=-4.77D-02 OVMax= 6.54D-03

 Cycle   5  Pass 1  IDiag  1:
 RMSU=  4.52D-04    CP:  6.84D-01  7.79D-01  6.37D-01  9.60D-01
 E= -576.412813044988     Delta-E=       -0.000597111662 Rises=F Damp=F
 DIIS: error= 5.95D-04 at cycle   5 NSaved=   5.
 NSaved= 5 IEnMin= 5 EnMin= -576.412813044988     IErMin= 5 ErrMin= 5.95D-04
 ErrMax= 5.95D-04  0.00D+00 EMaxC= 1.00D-01 BMatC= 8.21D-05 BMatP= 8.50D-04
 IDIUse=3 WtCom= 9.94D-01 WtEn= 5.95D-03
 Coeff-Com: -0.474D-03-0.582D-02 0.252D-02 0.225D+00 0.779D+00
 Coeff-En:   0.000D+00 0.000D+00 0.000D+00 0.000D+00 0.100D+01
 Coeff:     -0.471D-03-0.579D-02 0.251D-02 0.224D+00 0.780D+00
 Gap=     0.330 Goal=   None    Shift=    0.000
 RMSDP=3.43D-04 MaxDP=3.93D-02 DE=-5.97D-04 OVMax= 2.89D-03

 Cycle   6  Pass 1  IDiag  1:
 RMSU=  2.01D-04    CP:  6.81D-01  7.75D-01  6.51D-01  1.04D+00  8.57D-01
 E= -576.412874746026     Delta-E=       -0.000061701038 Rises=F Damp=F
 DIIS: error= 2.42D-04 at cycle   6 NSaved=   6.
 NSaved= 6 IEnMin= 6 EnMin= -576.412874746026     IErMin= 6 ErrMin= 2.42D-04
 ErrMax= 2.42D-04  0.00D+00 EMaxC= 1.00D-01 BMatC= 1.94D-05 BMatP= 8.21D-05
 IDIUse=3 WtCom= 9.98D-01 WtEn= 2.42D-03
 EnCoef did     5 forward-backward iterations
 Coeff-Com: -0.122D-02-0.228D-01-0.227D-01 0.652D-01 0.429D+00 0.553D+00
 Coeff-En:   0.000D+00 0.000D+00 0.000D+00 0.000D+00 0.212D-02 0.998D+00
 Coeff:     -0.122D-02-0.227D-01-0.226D-01 0.651D-01 0.428D+00 0.554D+00
 Gap=     0.331 Goal=   None    Shift=    0.000
 RMSDP=1.16D-04 MaxDP=9.94D-03 DE=-6.17D-05 OVMax= 1.38D-03

 Cycle   7  Pass 1  IDiag  1:
 RMSU=  8.56D-05    CP:  6.81D-01  7.76D-01  6.51D-01  1.06D+00  1.01D+00
                    CP:  1.05D+00
 E= -576.412894494588     Delta-E=       -0.000019748562 Rises=F Damp=F
 DIIS: error= 5.83D-05 at cycle   7 NSaved=   7.
 NSaved= 7 IEnMin= 7 EnMin= -576.412894494588     IErMin= 7 ErrMin= 5.83D-05
 ErrMax= 5.83D-05  0.00D+00 EMaxC= 1.00D-01 BMatC= 5.23D-07 BMatP= 1.94D-05
 IDIUse=1 WtCom= 1.00D+00 WtEn= 0.00D+00
 Coeff-Com: -0.243D-03-0.470D-02-0.552D-02-0.908D-02-0.439D-02 0.111D+00
 Coeff-Com:  0.913D+00
 Coeff:     -0.243D-03-0.470D-02-0.552D-02-0.908D-02-0.439D-02 0.111D+00
 Coeff:      0.913D+00
 Gap=     0.331 Goal=   None    Shift=    0.000
 RMSDP=4.40D-05 MaxDP=3.87D-03 DE=-1.97D-05 OVMax= 5.14D-04

 Cycle   8  Pass 1  IDiag  1:
 RMSU=  2.60D-05    CP:  6.81D-01  7.76D-01  6.53D-01  1.07D+00  1.01D+00
                    CP:  1.18D+00  1.03D+00
 E= -576.412895778780     Delta-E=       -0.000001284192 Rises=F Damp=F
 DIIS: error= 1.66D-05 at cycle   8 NSaved=   8.
 NSaved= 8 IEnMin= 8 EnMin= -576.412895778780     IErMin= 8 ErrMin= 1.66D-05
 ErrMax= 1.66D-05  0.00D+00 EMaxC= 1.00D-01 BMatC= 9.00D-08 BMatP= 5.23D-07
 IDIUse=1 WtCom= 1.00D+00 WtEn= 0.00D+00
 Coeff-Com:  0.545D-04 0.816D-03 0.433D-03-0.122D-01-0.592D-01-0.285D-01
 Coeff-Com:  0.311D+00 0.788D+00
 Coeff:      0.545D-04 0.816D-03 0.433D-03-0.122D-01-0.592D-01-0.285D-01
 Coeff:      0.311D+00 0.788D+00
 Gap=     0.331 Goal=   None    Shift=    0.000
 RMSDP=1.48D-05 MaxDP=1.19D-03 DE=-1.28D-06 OVMax= 2.04D-04

 Cycle   9  Pass 1  IDiag  1:
 RMSU=  7.57D-06    CP:  6.81D-01  7.76D-01  6.53D-01  1.07D+00  1.01D+00
                    CP:  1.23D+00  1.04D+00  1.21D+00
 E= -576.412895973206     Delta-E=       -0.000000194426 Rises=F Damp=F
 DIIS: error= 5.29D-06 at cycle   9 NSaved=   9.
 NSaved= 9 IEnMin= 9 EnMin= -576.412895973206     IErMin= 9 ErrMin= 5.29D-06
 ErrMax= 5.29D-06  0.00D+00 EMaxC= 1.00D-01 BMatC= 7.26D-09 BMatP= 9.00D-08
 IDIUse=1 WtCom= 1.00D+00 WtEn= 0.00D+00
 Coeff-Com:  0.422D-04 0.752D-03 0.774D-03-0.706D-03-0.103D-01-0.177D-01
 Coeff-Com: -0.642D-01 0.148D+00 0.944D+00
 Coeff:      0.422D-04 0.752D-03 0.774D-03-0.706D-03-0.103D-01-0.177D-01
 Coeff:     -0.642D-01 0.148D+00 0.944D+00
 Gap=     0.331 Goal=   None    Shift=    0.000
 RMSDP=7.90D-06 MaxDP=5.63D-04 DE=-1.94D-07 OVMax= 8.65D-05

 Cycle  10  Pass 1  IDiag  1:
 RMSU=  1.80D-06    CP:  6.81D-01  7.76D-01  6.53D-01  1.07D+00  1.00D+00
                    CP:  1.24D+00  1.03D+00  1.39D+00  1.46D+00
 E= -576.412895995734     Delta-E=       -0.000000022528 Rises=F Damp=F
 DIIS: error= 1.20D-06 at cycle  10 NSaved=  10.
 NSaved=10 IEnMin=10 EnMin= -576.412895995734     IErMin=10 ErrMin= 1.20D-06
 ErrMax= 1.20D-06  0.00D+00 EMaxC= 1.00D-01 BMatC= 7.27D-10 BMatP= 7.26D-09
 IDIUse=1 WtCom= 1.00D+00 WtEn= 0.00D+00
 Coeff-Com: -0.177D-05-0.313D-05 0.311D-04 0.143D-02 0.502D-02 0.204D-02
 Coeff-Com: -0.349D-01-0.648D-01 0.104D+00 0.987D+00
 Coeff:     -0.177D-05-0.313D-05 0.311D-04 0.143D-02 0.502D-02 0.204D-02
 Coeff:     -0.349D-01-0.648D-01 0.104D+00 0.987D+00
 Gap=     0.331 Goal=   None    Shift=    0.000
 RMSDP=2.47D-06 MaxDP=1.81D-04 DE=-2.25D-08 OVMax= 3.32D-05

 Cycle  11  Pass 1  IDiag  1:
 RMSU=  1.05D-06    CP:  6.81D-01  7.76D-01  6.53D-01  1.07D+00  1.00D+00
                    CP:  1.24D+00  1.02D+00  1.44D+00  1.56D+00  1.07D+00
 E= -576.412895998371     Delta-E=       -0.000000002637 Rises=F Damp=F
 DIIS: error= 7.88D-07 at cycle  11 NSaved=  11.
 NSaved=11 IEnMin=11 EnMin= -576.412895998371     IErMin=11 ErrMin= 7.88D-07
 ErrMax= 7.88D-07  0.00D+00 EMaxC= 1.00D-01 BMatC= 1.34D-10 BMatP= 7.27D-10
 IDIUse=1 WtCom= 1.00D+00 WtEn= 0.00D+00
 Coeff-Com: -0.383D-05-0.578D-04-0.517D-04 0.476D-03 0.206D-02 0.190D-02
 Coeff-Com: -0.322D-02-0.315D-01-0.649D-01 0.263D+00 0.833D+00
 Coeff:     -0.383D-05-0.578D-04-0.517D-04 0.476D-03 0.206D-02 0.190D-02
 Coeff:     -0.322D-02-0.315D-01-0.649D-01 0.263D+00 0.833D+00
 Gap=     0.331 Goal=   None    Shift=    0.000
 RMSDP=6.17D-07 MaxDP=6.71D-05 DE=-2.64D-09 OVMax= 1.41D-05

 Cycle  12  Pass 1  IDiag  1:
 RMSU=  2.24D-07    CP:  6.81D-01  7.76D-01  6.53D-01  1.07D+00  1.00D+00
                    CP:  1.24D+00  1.02D+00  1.44D+00  1.60D+00  1.15D+00
                    CP:  1.26D+00
 E= -576.412895998835     Delta-E=       -0.000000000464 Rises=F Damp=F
 DIIS: error= 3.82D-07 at cycle  12 NSaved=  12.
 NSaved=12 IEnMin=12 EnMin= -576.412895998835     IErMin=12 ErrMin= 3.82D-07
 ErrMax= 3.82D-07  0.00D+00 EMaxC= 1.00D-01 BMatC= 2.58D-11 BMatP= 1.34D-10
 IDIUse=1 WtCom= 1.00D+00 WtEn= 0.00D+00
 Coeff-Com: -0.258D-06-0.104D-04-0.166D-04-0.208D-03-0.710D-03-0.145D-03
 Coeff-Com:  0.707D-02 0.832D-02-0.349D-01-0.159D+00 0.151D+00 0.103D+01
 Coeff:     -0.258D-06-0.104D-04-0.166D-04-0.208D-03-0.710D-03-0.145D-03
 Coeff:      0.707D-02 0.832D-02-0.349D-01-0.159D+00 0.151D+00 0.103D+01
 Gap=     0.331 Goal=   None    Shift=    0.000
 RMSDP=3.13D-07 MaxDP=2.04D-05 DE=-4.64D-10 OVMax= 9.54D-06

 Cycle  13  Pass 1  IDiag  1:
 RMSU=  1.36D-07    CP:  6.81D-01  7.76D-01  6.53D-01  1.07D+00  1.00D+00
                    CP:  1.24D+00  1.02D+00  1.44D+00  1.60D+00  1.17D+00
                    CP:  1.42D+00  1.50D+00
 E= -576.412895998977     Delta-E=       -0.000000000142 Rises=F Damp=F
 DIIS: error= 1.93D-07 at cycle  13 NSaved=  13.
 NSaved=13 IEnMin=13 EnMin= -576.412895998977     IErMin=13 ErrMin= 1.93D-07
 ErrMax= 1.93D-07  0.00D+00 EMaxC= 1.00D-01 BMatC= 6.29D-12 BMatP= 2.58D-11
 IDIUse=1 WtCom= 1.00D+00 WtEn= 0.00D+00
 Coeff-Com:  0.599D-06 0.604D-05 0.324D-05-0.169D-03-0.622D-03-0.429D-03
 Coeff-Com:  0.298D-02 0.881D-02-0.382D-04-0.103D+00-0.973D-01 0.369D+00
 Coeff-Com:  0.821D+00
 Coeff:      0.599D-06 0.604D-05 0.324D-05-0.169D-03-0.622D-03-0.429D-03
 Coeff:      0.298D-02 0.881D-02-0.382D-04-0.103D+00-0.973D-01 0.369D+00
 Coeff:      0.821D+00
 Gap=     0.331 Goal=   None    Shift=    0.000
 RMSDP=1.65D-07 MaxDP=1.56D-05 DE=-1.42D-10 OVMax= 3.75D-06

 Cycle  14  Pass 1  IDiag  1:
 RMSU=  5.88D-08    CP:  6.81D-01  7.76D-01  6.53D-01  1.07D+00  1.00D+00
                    CP:  1.24D+00  1.02D+00  1.43D+00  1.59D+00  1.16D+00
                    CP:  1.47D+00  1.69D+00  1.43D+00
 E= -576.412895998991     Delta-E=       -0.000000000014 Rises=F Damp=F
 DIIS: error= 6.22D-08 at cycle  14 NSaved=  14.
 NSaved=14 IEnMin=14 EnMin= -576.412895998991     IErMin=14 ErrMin= 6.22D-08
 ErrMax= 6.22D-08  0.00D+00 EMaxC= 1.00D-01 BMatC= 8.72D-13 BMatP= 6.29D-12
 IDIUse=1 WtCom= 1.00D+00 WtEn= 0.00D+00
 Coeff-Com:  0.138D-06 0.309D-05 0.443D-05-0.940D-06 0.216D-04-0.632D-04
 Coeff-Com: -0.726D-03 0.107D-03 0.573D-02 0.898D-02-0.439D-01-0.126D+00
 Coeff-Com:  0.121D+00 0.104D+01
 Coeff:      0.138D-06 0.309D-05 0.443D-05-0.940D-06 0.216D-04-0.632D-04
 Coeff:     -0.726D-03 0.107D-03 0.573D-02 0.898D-02-0.439D-01-0.126D+00
 Coeff:      0.121D+00 0.104D+01
 Gap=     0.331 Goal=   None    Shift=    0.000
 RMSDP=7.46D-08 MaxDP=5.58D-06 DE=-1.43D-11 OVMax= 1.81D-06

 Cycle  15  Pass 1  IDiag  1:
 RMSU=  1.73D-08    CP:  6.81D-01  7.76D-01  6.53D-01  1.07D+00  1.00D+00
                    CP:  1.24D+00  1.02D+00  1.43D+00  1.58D+00  1.15D+00
                    CP:  1.47D+00  1.80D+00  1.71D+00  1.23D+00
 E= -576.412895999007     Delta-E=       -0.000000000016 Rises=F Damp=F
 DIIS: error= 1.75D-08 at cycle  15 NSaved=  15.
 NSaved=15 IEnMin=15 EnMin= -576.412895999007     IErMin=15 ErrMin= 1.75D-08
 ErrMax= 1.75D-08  0.00D+00 EMaxC= 1.00D-01 BMatC= 1.81D-13 BMatP= 8.72D-13
 IDIUse=1 WtCom= 1.00D+00 WtEn= 0.00D+00
 Coeff-Com: -0.390D-07 0.369D-06 0.145D-05 0.258D-04 0.108D-03 0.482D-04
 Coeff-Com: -0.717D-03-0.130D-02 0.234D-02 0.202D-01-0.270D-03-0.106D+00
 Coeff-Com: -0.917D-01 0.397D+00 0.780D+00
 Coeff:     -0.390D-07 0.369D-06 0.145D-05 0.258D-04 0.108D-03 0.482D-04
 Coeff:     -0.717D-03-0.130D-02 0.234D-02 0.202D-01-0.270D-03-0.106D+00
 Coeff:     -0.917D-01 0.397D+00 0.780D+00
 Gap=     0.331 Goal=   None    Shift=    0.000
 RMSDP=2.32D-08 MaxDP=1.96D-06 DE=-1.57D-11 OVMax= 5.26D-07

 Cycle  16  Pass 1  IDiag  1:
 RMSU=  6.74D-09    CP:  6.81D-01  7.76D-01  6.53D-01  1.07D+00  1.00D+00
                    CP:  1.24D+00  1.02D+00  1.43D+00  1.58D+00  1.15D+00
                    CP:  1.47D+00  1.82D+00  1.78D+00  1.36D+00  1.12D+00
 E= -576.412895999003     Delta-E=        0.000000000004 Rises=F Damp=F
 DIIS: error= 4.19D-09 at cycle  16 NSaved=  16.
 NSaved=16 IEnMin=15 EnMin= -576.412895999007     IErMin=16 ErrMin= 4.19D-09
 ErrMax= 4.19D-09  0.00D+00 EMaxC= 1.00D-01 BMatC= 7.35D-15 BMatP= 1.81D-13
 IDIUse=1 WtCom= 1.00D+00 WtEn= 0.00D+00
 Coeff-Com: -0.115D-07-0.281D-06-0.395D-06 0.184D-05 0.346D-05 0.126D-04
 Coeff-Com:  0.357D-04-0.108D-03-0.562D-03 0.394D-04 0.464D-02 0.855D-02
 Coeff-Com: -0.189D-01-0.887D-01 0.254D-01 0.107D+01
 Coeff:     -0.115D-07-0.281D-06-0.395D-06 0.184D-05 0.346D-05 0.126D-04
 Coeff:      0.357D-04-0.108D-03-0.562D-03 0.394D-04 0.464D-02 0.855D-02
 Coeff:     -0.189D-01-0.887D-01 0.254D-01 0.107D+01
 Gap=     0.331 Goal=   None    Shift=    0.000
 RMSDP=7.45D-09 MaxDP=6.66D-07 DE= 3.87D-12 OVMax= 1.64D-07

 SCF Done:  E(RwB97XD) =  -576.412895999     A.U. after   16 cycles
            NFock= 16  Conv=0.74D-08     -V/T= 2.0000
 KE= 5.763997052391D+02 PE=-2.903387032891D+03 EE= 9.699654214242D+02
 Leave Link  502 at Tue Nov 22 15:04:18 2022, MaxMem= 16106127360 cpu:            1207.7 elap:              37.9
 (Enter /opt/ap/G16/B01/g16/l601.exe)
 Copying SCF densities to generalized density rwf, IOpCl= 0 IROHF=0.

 **********************************************************************

            Population analysis using the SCF Density.

 **********************************************************************

 Orbital symmetries:
       Occupied  (A) (A) (A) (A) (A) (A) (A) (A) (A) (A) (A) (A)
                 (A) (A) (A) (A) (A) (A) (A) (A) (A) (A) (A) (A)
                 (A) (A) (A) (A) (A) (A) (A) (A) (A) (A) (A) (A)
                 (A) (A) (A) (A) (A) (A) (A) (A) (A) (A) (A) (A)
       Virtual   (A) (A) (A) (A) (A) (A) (A) (A) (A) (A) (A) (A)
                 (A) (A) (A) (A) (A) (A) (A) (A) (A) (A) (A) (A)
                 (A) (A) (A) (A) (A) (A) (A) (A) (A) (A) (A) (A)
                 (A) (A) (A) (A) (A) (A) (A) (A) (A) (A) (A) (A)
                 (A) (A) (A) (A) (A) (A) (A) (A) (A) (A) (A) (A)
                 (A) (A) (A) (A) (A) (A) (A) (A) (A) (A) (A) (A)
                 (A) (A) (A) (A) (A) (A) (A) (A) (A) (A) (A) (A)
                 (A) (A) (A) (A) (A) (A) (A) (A) (A) (A) (A) (A)
                 (A) (A) (A) (A) (A) (A) (A) (A) (A) (A) (A) (A)
                 (A) (A) (A) (A) (A) (A) (A) (A) (A) (A) (A) (A)
                 (A) (A) (A) (A) (A) (A) (A) (A) (A) (A) (A) (A)
                 (A) (A) (A) (A) (A) (A) (A) (A) (A) (A) (A) (A)
                 (A) (A) (A) (A) (A) (A) (A) (A) (A) (A) (A) (A)
                 (A) (A) (A) (A) (A) (A) (A) (A) (A) (A) (A) (A)
                 (A) (A) (A) (A) (A) (A) (A) (A) (A) (A) (A) (A)
                 (A) (A) (A) (A) (A) (A) (A) (A) (A) (A) (A) (A)
                 (A) (A) (A) (A) (A) (A) (A) (A) (A) (A) (A) (A)
                 (A) (A) (A) (A) (A) (A) (A) (A) (A) (A) (A) (A)
                 (A) (A) (A) (A) (A) (A) (A) (A) (A) (A) (A) (A)
                 (A) (A) (A) (A) (A) (A) (A) (A) (A) (A) (A) (A)
                 (A) (A) (A) (A) (A) (A) (A) (A) (A) (A) (A) (A)
                 (A) (A) (A) (A) (A) (A) (A) (A) (A) (A) (A) (A)
                 (A) (A) (A) (A) (A) (A) (A) (A) (A) (A) (A) (A)
                 (A) (A) (A) (A) (A) (A) (A) (A) (A) (A) (A) (A)
                 (A) (A) (A) (A) (A) (A) (A) (A) (A) (A) (A) (A)
                 (A) (A) (A) (A) (A) (A) (A) (A) (A) (A) (A) (A)
                 (A) (A) (A) (A) (A) (A) (A) (A) (A) (A) (A) (A)
                 (A) (A) (A) (A)
 The electronic state is 1-A.
 Alpha  occ. eigenvalues --  -19.24390 -10.38534 -10.30653 -10.30599 -10.29068
 Alpha  occ. eigenvalues --  -10.28734 -10.28622 -10.28529 -10.28514 -10.28447
 Alpha  occ. eigenvalues --  -10.28312 -10.28210 -10.28066 -10.27926  -1.15236
 Alpha  occ. eigenvalues --   -0.97863  -0.97370  -0.89055  -0.87405  -0.87190
 Alpha  occ. eigenvalues --   -0.86844  -0.76797  -0.73920  -0.73397  -0.72596
 Alpha  occ. eigenvalues --   -0.68028  -0.65487  -0.62838  -0.60381  -0.56864
 Alpha  occ. eigenvalues --   -0.56321  -0.55449  -0.54570  -0.53989  -0.53810
 Alpha  occ. eigenvalues --   -0.52473  -0.49090  -0.47159  -0.46603  -0.46248
 Alpha  occ. eigenvalues --   -0.45693  -0.44966  -0.44170  -0.35207  -0.34786
 Alpha  occ. eigenvalues --   -0.34266  -0.33970  -0.32944
 Alpha virt. eigenvalues --    0.00129   0.03645   0.03938   0.04339   0.04395
 Alpha virt. eigenvalues --    0.04903   0.05014   0.05469   0.05826   0.06939
 Alpha virt. eigenvalues --    0.07344   0.07951   0.08911   0.09141   0.10218
 Alpha virt. eigenvalues --    0.11437   0.11890   0.12590   0.13441   0.14484
 Alpha virt. eigenvalues --    0.14737   0.15283   0.15403   0.15875   0.16501
 Alpha virt. eigenvalues --    0.16997   0.17075   0.17298   0.17601   0.17822
 Alpha virt. eigenvalues --    0.18048   0.18490   0.18697   0.18840   0.18952
 Alpha virt. eigenvalues --    0.19497   0.19973   0.20329   0.20625   0.20862
 Alpha virt. eigenvalues --    0.21698   0.21713   0.22658   0.23381   0.23733
 Alpha virt. eigenvalues --    0.23887   0.24502   0.24568   0.25504   0.25963
 Alpha virt. eigenvalues --    0.26046   0.26649   0.27475   0.28044   0.28155
 Alpha virt. eigenvalues --    0.28294   0.29377   0.30119   0.30430   0.30946
 Alpha virt. eigenvalues --    0.31224   0.31382   0.32293   0.32857   0.33385
 Alpha virt. eigenvalues --    0.34137   0.35002   0.35286   0.35811   0.36957
 Alpha virt. eigenvalues --    0.37267   0.37764   0.37837   0.38302   0.38657
 Alpha virt. eigenvalues --    0.39069   0.39500   0.40607   0.41056   0.42314
 Alpha virt. eigenvalues --    0.42677   0.42836   0.43752   0.44643   0.45062
 Alpha virt. eigenvalues --    0.45565   0.45942   0.46840   0.47262   0.50410
 Alpha virt. eigenvalues --    0.53352   0.55655   0.57559   0.57752   0.60704
 Alpha virt. eigenvalues --    0.61278   0.62165   0.62722   0.63307   0.63468
 Alpha virt. eigenvalues --    0.64080   0.64700   0.64763   0.65368   0.65793
 Alpha virt. eigenvalues --    0.66134   0.66393   0.68304   0.69083   0.70046
 Alpha virt. eigenvalues --    0.70872   0.71168   0.72666   0.74592   0.74862
 Alpha virt. eigenvalues --    0.75808   0.75936   0.76686   0.77085   0.78264
 Alpha virt. eigenvalues --    0.79503   0.80039   0.81044   0.81835   0.83204
 Alpha virt. eigenvalues --    0.83697   0.84309   0.84407   0.87462   0.87729
 Alpha virt. eigenvalues --    0.89165   0.89364   0.91843   0.93345   0.94036
 Alpha virt. eigenvalues --    0.94315   0.94627   0.95131   0.95573   0.96194
 Alpha virt. eigenvalues --    0.96899   0.97359   0.99017   0.99526   1.01293
 Alpha virt. eigenvalues --    1.01698   1.02761   1.03298   1.04537   1.06197
 Alpha virt. eigenvalues --    1.07577   1.09364   1.10311   1.12456   1.13152
 Alpha virt. eigenvalues --    1.14526   1.16002   1.16824   1.17121   1.17716
 Alpha virt. eigenvalues --    1.19108   1.21451   1.21734   1.22751   1.23149
 Alpha virt. eigenvalues --    1.28733   1.31731   1.32863   1.36022   1.39947
 Alpha virt. eigenvalues --    1.41970   1.43475   1.44734   1.49437   1.55225
 Alpha virt. eigenvalues --    1.56484   1.58975   1.59450   1.60816   1.61781
 Alpha virt. eigenvalues --    1.62726   1.63632   1.64604   1.65485   1.67569
 Alpha virt. eigenvalues --    1.68163   1.68561   1.69129   1.69359   1.74172
 Alpha virt. eigenvalues --    1.75177   1.75485   1.76138   1.77038   1.77973
 Alpha virt. eigenvalues --    1.80427   1.83068   1.84417   1.86374   1.89087
 Alpha virt. eigenvalues --    1.90500   1.91317   1.92180   1.92623   1.94226
 Alpha virt. eigenvalues --    1.94714   1.95056   1.97042   2.00431   2.01173
 Alpha virt. eigenvalues --    2.02789   2.03244   2.04303   2.04768   2.05105
 Alpha virt. eigenvalues --    2.05300   2.07377   2.08661   2.10045   2.10768
 Alpha virt. eigenvalues --    2.11205   2.16047   2.16216   2.17939   2.20502
 Alpha virt. eigenvalues --    2.21548   2.26274   2.27044   2.27909   2.30615
 Alpha virt. eigenvalues --    2.32841   2.42715   2.43339   2.47311   2.47372
 Alpha virt. eigenvalues --    2.48424   2.49815   2.50294   2.51009   2.54161
 Alpha virt. eigenvalues --    2.58522   2.59382   2.60587   2.66824   2.68091
 Alpha virt. eigenvalues --    2.71685   2.78135   2.79057   2.81224   2.82891
 Alpha virt. eigenvalues --    2.82969   2.84049   2.84697   2.87740   2.88287
 Alpha virt. eigenvalues --    2.91465   2.91661   2.92896   2.94475   2.96288
 Alpha virt. eigenvalues --    2.96671   2.97347   2.98818   2.99449   3.00301
 Alpha virt. eigenvalues --    3.00528   3.01168   3.02262   3.02761   3.03248
 Alpha virt. eigenvalues --    3.05780   3.10243   3.13313   3.15131   3.18213
 Alpha virt. eigenvalues --    3.19594   3.21230   3.23601   3.25696   3.25881
 Alpha virt. eigenvalues --    3.28339   3.30325   3.32246   3.37244   3.44673
 Alpha virt. eigenvalues --    3.48943   3.49698   3.51528   3.53317   3.64686
 Alpha virt. eigenvalues --    3.70133   3.70730   3.70956   3.75749   3.77095
 Alpha virt. eigenvalues --    3.83294   3.88960   3.91191   4.00748   4.28965
 Alpha virt. eigenvalues --    4.36749   4.37355   4.38965   4.40852   4.41492
 Alpha virt. eigenvalues --    4.42625   4.50631   4.51078   4.52374   4.94891
 Alpha virt. eigenvalues --    4.95509   5.23004   5.34832   5.85655  23.89298
 Alpha virt. eigenvalues --   23.95652  23.98472  24.17196  24.19971  24.24073
 Alpha virt. eigenvalues --   24.24718  24.30125  24.31653  24.33982  24.34209
 Alpha virt. eigenvalues --   24.43303  24.44431  50.13892
          Condensed to atoms (all electrons):
               1          2          3          4          5          6
     1  C   10.876251  -0.553972  -0.479201  -0.372751  -0.006151  -1.832499
     2  C   -0.553972  13.492534  -3.913885  -1.321400   0.568974  -4.114321
     3  C   -0.479201  -3.913885   9.461211   0.515406  -0.026882   0.337226
     4  C   -0.372751  -1.321400   0.515406   6.640474  -0.141162   0.814887
     5  H   -0.006151   0.568974  -0.026882  -0.141162   0.500067  -0.127821
     6  C   -1.832499  -4.114321   0.337226   0.814887  -0.127821  18.473756
     7  C   -0.744154  -0.468927   0.480490   0.063024  -0.002927   0.510306
     8  H    0.070250   0.072500   0.365957   0.000341  -0.001667  -0.069676
     9  C   -0.521683   1.139795  -0.742380  -0.190467   0.021388  -0.739668
    10  H    0.037110  -0.142585   0.025417   0.482892  -0.014114   0.022649
    11  C   -1.221697   1.709054  -0.232750  -0.108100   0.042862  -6.617803
    12  O    0.258235   0.187352  -0.222608  -0.011167  -0.000193   0.303044
    13  H   -0.010741  -0.043756  -0.024933   0.028237   0.001139   0.019445
    14  H    0.023297   0.031454  -0.012944  -0.081221   0.000191  -0.015154
    15  C    0.552162   0.690457   0.116170  -0.308774   0.040197  -3.049456
    16  C   -0.679292  -0.532408   0.127021   0.286329  -0.046784   1.488547
    17  C   -0.315412  -0.603445   0.266375   0.066036  -0.023909   1.680265
    18  H    0.048235   0.086194  -0.057842  -0.010154  -0.000145  -0.089772
    19  C   -0.162388  -0.204447   0.087610   0.040469  -0.008505   0.208425
    20  H    0.010362  -0.029980   0.020808  -0.010929  -0.000111  -0.027840
    21  C    0.092019   0.095369  -0.025932  -0.013420   0.007794  -0.173681
    22  H   -0.014241  -0.014686   0.009751   0.001229  -0.000460   0.018784
    23  H   -0.009536  -0.000686  -0.000222   0.001323  -0.000570   0.011292
    24  H    0.005042   0.003001  -0.001084  -0.000578   0.000345  -0.018484
               7          8          9         10         11         12
     1  C   -0.744154   0.070250  -0.521683   0.037110  -1.221697   0.258235
     2  C   -0.468927   0.072500   1.139795  -0.142585   1.709054   0.187352
     3  C    0.480490   0.365957  -0.742380   0.025417  -0.232750  -0.222608
     4  C    0.063024   0.000341  -0.190467   0.482892  -0.108100  -0.011167
     5  H   -0.002927  -0.001667   0.021388  -0.014114   0.042862  -0.000193
     6  C    0.510306  -0.069676  -0.739668   0.022649  -6.617803   0.303044
     7  C    5.904019  -0.071779   0.385313   0.008774  -0.376611  -0.048783
     8  H   -0.071779   0.491170  -0.003363   0.000629  -0.007196  -0.002417
     9  C    0.385313  -0.003363   6.325729  -0.093109   0.186726   0.019864
    10  H    0.008774   0.000629  -0.093109   0.489851   0.002544  -0.000590
    11  C   -0.376611  -0.007196   0.186726   0.002544  15.186950  -0.124361
    12  O   -0.048783  -0.002417   0.019864  -0.000590  -0.124361   7.843037
    13  H    0.457114  -0.014093  -0.096790   0.000647   0.003946  -0.000900
    14  H   -0.070880   0.000723   0.475939  -0.012697  -0.000566   0.000464
    15  C    0.119449  -0.044542   0.159262  -0.012307   0.881538   0.014860
    16  C   -0.012585   0.010696  -0.095575   0.006845  -1.465757  -0.000290
    17  C    0.143639  -0.006294  -0.053207   0.001996  -1.969471  -0.027454
    18  H   -0.018378  -0.000824   0.022854  -0.000930  -0.062252  -0.001174
    19  C   -0.009713  -0.003317  -0.013237   0.000939  -0.741473  -0.003641
    20  H    0.003327  -0.000583   0.001433  -0.000222   0.063222  -0.013281
    21  C    0.013069   0.000249   0.003446  -0.000224  -0.150777   0.011787
    22  H    0.001160  -0.000037  -0.001281   0.000075   0.051062  -0.000053
    23  H   -0.000482   0.000039  -0.000191   0.000036  -0.013362   0.000788
    24  H    0.000024  -0.000074   0.000206  -0.000014   0.018103   0.000283
              13         14         15         16         17         18
     1  C   -0.010741   0.023297   0.552162  -0.679292  -0.315412   0.048235
     2  C   -0.043756   0.031454   0.690457  -0.532408  -0.603445   0.086194
     3  C   -0.024933  -0.012944   0.116170   0.127021   0.266375  -0.057842
     4  C    0.028237  -0.081221  -0.308774   0.286329   0.066036  -0.010154
     5  H    0.001139   0.000191   0.040197  -0.046784  -0.023909  -0.000145
     6  C    0.019445  -0.015154  -3.049456   1.488547   1.680265  -0.089772
     7  C    0.457114  -0.070880   0.119449  -0.012585   0.143639  -0.018378
     8  H   -0.014093   0.000723  -0.044542   0.010696  -0.006294  -0.000824
     9  C   -0.096790   0.475939   0.159262  -0.095575  -0.053207   0.022854
    10  H    0.000647  -0.012697  -0.012307   0.006845   0.001996  -0.000930
    11  C    0.003946  -0.000566   0.881538  -1.465757  -1.969471  -0.062252
    12  O   -0.000900   0.000464   0.014860  -0.000290  -0.027454  -0.001174
    13  H    0.496717  -0.014028  -0.005091   0.002956   0.001707  -0.002815
    14  H   -0.014028   0.492275   0.002138  -0.001823  -0.001506   0.000470
    15  C   -0.005091   0.002138  14.100979  -4.274843  -2.842402   0.656158
    16  C    0.002956  -0.001823  -4.274843   9.885607   1.035659  -0.095108
    17  C    0.001707  -0.001506  -2.842402   1.035659   8.171186  -0.114095
    18  H   -0.002815   0.000470   0.656158  -0.095108  -0.114095   0.484618
    19  C    0.000642  -0.000259  -0.312124   0.722765   0.072348   0.004258
    20  H   -0.000144   0.000080   0.070759   0.356468   0.009756   0.000749
    21  C    0.000187   0.000010   0.266679  -0.671228   0.422885   0.014676
    22  H    0.000137  -0.000026  -0.165896   0.052872   0.459227  -0.016621
    23  H    0.000014  -0.000007  -0.034524  -0.044337   0.019633  -0.001480
    24  H   -0.000002   0.000003   0.012634  -0.044305  -0.080239   0.001706
              19         20         21         22         23         24
     1  C   -0.162388   0.010362   0.092019  -0.014241  -0.009536   0.005042
     2  C   -0.204447  -0.029980   0.095369  -0.014686  -0.000686   0.003001
     3  C    0.087610   0.020808  -0.025932   0.009751  -0.000222  -0.001084
     4  C    0.040469  -0.010929  -0.013420   0.001229   0.001323  -0.000578
     5  H   -0.008505  -0.000111   0.007794  -0.000460  -0.000570   0.000345
     6  C    0.208425  -0.027840  -0.173681   0.018784   0.011292  -0.018484
     7  C   -0.009713   0.003327   0.013069   0.001160  -0.000482   0.000024
     8  H   -0.003317  -0.000583   0.000249  -0.000037   0.000039  -0.000074
     9  C   -0.013237   0.001433   0.003446  -0.001281  -0.000191   0.000206
    10  H    0.000939  -0.000222  -0.000224   0.000075   0.000036  -0.000014
    11  C   -0.741473   0.063222  -0.150777   0.051062  -0.013362   0.018103
    12  O   -0.003641  -0.013281   0.011787  -0.000053   0.000788   0.000283
    13  H    0.000642  -0.000144   0.000187   0.000137   0.000014  -0.000002
    14  H   -0.000259   0.000080   0.000010  -0.000026  -0.000007   0.000003
    15  C   -0.312124   0.070759   0.266679  -0.165896  -0.034524   0.012634
    16  C    0.722765   0.356468  -0.671228   0.052872  -0.044337  -0.044305
    17  C    0.072348   0.009756   0.422885   0.459227   0.019633  -0.080239
    18  H    0.004258   0.000749   0.014676  -0.016621  -0.001480   0.001706
    19  C    6.177785  -0.135818   0.266407   0.011522   0.495544  -0.077058
    20  H   -0.135818   0.463746   0.001859  -0.000161  -0.014561   0.001932
    21  C    0.266407   0.001859   5.736821  -0.076655  -0.077360   0.532819
    22  H    0.011522  -0.000161  -0.076655   0.487846   0.002024  -0.016363
    23  H    0.495544  -0.014561  -0.077360   0.002024   0.486505  -0.018012
    24  H   -0.077058   0.001932   0.532819  -0.016363  -0.018012   0.501411
 Mulliken charges:
               1
     1  C    0.950753
     2  C   -0.132188
     3  C   -0.072779
     4  C   -0.370524
     5  H    0.218445
     6  C   -1.012451
     7  C   -0.264491
     8  H    0.213307
     9  C   -0.191002
    10  H    0.196389
    11  C    0.946168
    12  O   -0.182802
    13  H    0.200404
    14  H    0.184067
    15  C   -0.633483
    16  C   -0.011431
    17  C   -0.313278
    18  H    0.151674
    19  C   -0.416734
    20  H    0.229127
    21  C   -0.276798
    22  H    0.210790
    23  H    0.198130
    24  H    0.178705
 Sum of Mulliken charges =  -0.00000
 Mulliken charges with hydrogens summed into heavy atoms:
               1
     1  C    0.950753
     2  C    0.086257
     3  C    0.140528
     4  C   -0.174135
     6  C   -1.012451
     7  C   -0.064087
     9  C   -0.006935
    11  C    0.946168
    12  O   -0.182802
    15  C   -0.481808
    16  C    0.217696
    17  C   -0.102488
    19  C   -0.218604
    21  C   -0.098094
 Electronic spatial extent (au):  <R**2>=           3066.1052
 Charge=             -0.0000 electrons
 Dipole moment (field-independent basis, Debye):
    X=              0.3609    Y=             -3.0448    Z=              0.9556  Tot=              3.2116
 Quadrupole moment (field-independent basis, Debye-Ang):
   XX=            -65.7228   YY=            -85.1097   ZZ=            -77.8167
   XY=              2.3031   XZ=              1.0108   YZ=              5.1651
 Traceless Quadrupole moment (field-independent basis, Debye-Ang):
   XX=             10.4936   YY=             -8.8933   ZZ=             -1.6003
   XY=              2.3031   XZ=              1.0108   YZ=              5.1651
 Octapole moment (field-independent basis, Debye-Ang**2):
  XXX=             13.8402  YYY=            -17.4431  ZZZ=             -1.1470  XYY=             17.3002
  XXY=            -15.8630  XXZ=             10.4414  XZZ=            -19.9703  YZZ=              1.9010
  YYZ=              4.7422  XYZ=              0.6184
 Hexadecapole moment (field-independent basis, Debye-Ang**3):
 XXXX=          -2888.8793 YYYY=           -614.1950 ZZZZ=           -334.3995 XXXY=             59.5240
 XXXZ=             25.1067 YYYX=            -13.4622 YYYZ=             21.7606 ZZZX=             -8.1015
 ZZZY=              3.3736 XXYY=           -610.5770 XXZZ=           -590.2351 YYZZ=           -167.5777
 XXYZ=             14.2146 YYXZ=              5.0334 ZZXY=             11.6906
 N-N= 7.806090102291D+02 E-N=-2.903387032629D+03  KE= 5.763997052391D+02
 No NMR shielding tensors so no spin-rotation constants.
 Leave Link  601 at Tue Nov 22 15:04:18 2022, MaxMem= 16106127360 cpu:               5.0 elap:               0.2
 (Enter /opt/ap/G16/B01/g16/l9999.exe)
 1\1\GINC-N19\SP\RwB97XD\6-311++G(d,p)\C13H10O1\ROOT\22-Nov-2022\0\\#P 
 wB97XD/6-311++G(d,p) scf=maxcycle=512\\_conf035.gjf nmol_natom 1_24\\0
 ,1\C\C,1,1.39746343\C,1,1.39996263,2,119.28066518\C,2,1.39288453,1,120
 .37436646,3,-0.51002981,0\H,2,0.95014703,1,119.82324024,3,179.45634896
 ,0\C,1,1.49653039,2,122.77761373,4,174.46828757,0\C,3,1.3870125,1,120.
 10017821,2,-0.37315804,0\H,3,0.9501092,1,119.95246451,2,179.5923884,0\
 C,7,1.38720039,3,120.16568731,1,1.0745106,0\H,4,0.95011919,2,120.18755
 644,1,-179.31195299,0\C,6,1.49516902,1,120.70972921,2,85.,0\O,6,1.2215
 0059,1,119.67074267,2,-95.,0\H,7,0.94956661,3,119.91274826,1,-178.8863
 6029,0\H,9,0.94992259,7,119.76037934,3,179.10763853,0\C,11,1.39713972,
 6,122.62585705,1,30.97749054,0\C,11,1.40039562,6,117.74753532,1,-153.1
 5467779,0\C,15,1.39455701,11,119.80747484,6,175.4763048,0\H,15,0.94962
 854,11,120.10535689,6,-4.50802339,0\C,16,1.38466431,11,120.4617377,6,-
 176.88197195,0\H,16,0.9497464,11,119.75779177,6,3.14699974,0\C,17,1.39
 088945,15,120.3475273,11,0.7973643,0\H,17,0.94984298,15,119.8156451,11
 ,-179.16676483,0\H,19,0.94974749,16,119.98566335,11,-178.40987425,0\H,
 21,0.94938585,17,120.0744529,15,179.91636093,0\\Version=ES64L-G16RevB.
 01\State=1-A\HF=-576.412896\RMSD=7.446e-09\Dipole=0.2338681,1.1949332,
 0.3375937\Quadrupole=6.7621906,-6.3423914,-0.4197992,-3.0091367,1.5712
 372,-4.0810653\PG=C01 [X(C13H10O1)]\\@


 THE WISE MAN HAS THE POWER TO REASON AWAY
 WHAT A FOOL BELIEVES.
                     - DOOBIE BROTHERS
 Job cpu time:       0 days  0 hours 20 minutes 56.9 seconds.
 Elapsed time:       0 days  0 hours  0 minutes 39.5 seconds.
 File lengths (MBytes):  RWF=     78 Int=      0 D2E=      0 Chk=      9 Scr=      1
 Normal termination of Gaussian 16 at Tue Nov 22 15:04:18 2022.
