 Entering Gaussian System, Link 0=g16
 Input=_conf016.gjf
 Output=_conf016.log
 Initial command:
 /opt/ap/G16/B01/g16/l1.exe "/tmp2/scr/Gau-27558.inp" -scrdir="/tmp2/scr/"
 Entering Link 1 = /opt/ap/G16/B01/g16/l1.exe PID=     27559.
  
 Copyright (c) 1988-2017, Gaussian, Inc.  All Rights Reserved.
  
 This is part of the Gaussian(R) 16 program.  It is based on
 the Gaussian(R) 09 system (copyright 2009, Gaussian, Inc.),
 the Gaussian(R) 03 system (copyright 2003, Gaussian, Inc.),
 the Gaussian(R) 98 system (copyright 1998, Gaussian, Inc.),
 the Gaussian(R) 94 system (copyright 1995, Gaussian, Inc.),
 the Gaussian 92(TM) system (copyright 1992, Gaussian, Inc.),
 the Gaussian 90(TM) system (copyright 1990, Gaussian, Inc.),
 the Gaussian 88(TM) system (copyright 1988, Gaussian, Inc.),
 the Gaussian 86(TM) system (copyright 1986, Carnegie Mellon
 University), and the Gaussian 82(TM) system (copyright 1983,
 Carnegie Mellon University). Gaussian is a federally registered
 trademark of Gaussian, Inc.
  
 This software contains proprietary and confidential information,
 including trade secrets, belonging to Gaussian, Inc.
  
 This software is provided under written license and may be
 used, copied, transmitted, or stored only in accord with that
 written license.
  
 The following legend is applicable only to US Government
 contracts under FAR:
  
                    RESTRICTED RIGHTS LEGEND
  
 Use, reproduction and disclosure by the US Government is
 subject to restrictions as set forth in subparagraphs (a)
 and (c) of the Commercial Computer Software - Restricted
 Rights clause in FAR 52.227-19.
  
 Gaussian, Inc.
 340 Quinnipiac St., Bldg. 40, Wallingford CT 06492
  
  
 ---------------------------------------------------------------
 Warning -- This program may not be used in any manner that
 competes with the business of Gaussian, Inc. or will provide
 assistance to any competitor of Gaussian, Inc.  The licensee
 of this program is prohibited from giving any competitor of
 Gaussian, Inc. access to this program.  By using this program,
 the user acknowledges that Gaussian, Inc. is engaged in the
 business of creating and licensing software in the field of
 computational chemistry and represents and warrants to the
 licensee that it is not a competitor of Gaussian, Inc. and that
 it will not use this program in any manner prohibited above.
 ---------------------------------------------------------------
  

 Cite this work as:
 Gaussian 16, Revision B.01,
 M. J. Frisch, G. W. Trucks, H. B. Schlegel, G. E. Scuseria, 
 M. A. Robb, J. R. Cheeseman, G. Scalmani, V. Barone, 
 G. A. Petersson, H. Nakatsuji, X. Li, M. Caricato, A. V. Marenich, 
 J. Bloino, B. G. Janesko, R. Gomperts, B. Mennucci, H. P. Hratchian, 
 J. V. Ortiz, A. F. Izmaylov, J. L. Sonnenberg, D. Williams-Young, 
 F. Ding, F. Lipparini, F. Egidi, J. Goings, B. Peng, A. Petrone, 
 T. Henderson, D. Ranasinghe, V. G. Zakrzewski, J. Gao, N. Rega, 
 G. Zheng, W. Liang, M. Hada, M. Ehara, K. Toyota, R. Fukuda, 
 J. Hasegawa, M. Ishida, T. Nakajima, Y. Honda, O. Kitao, H. Nakai, 
 T. Vreven, K. Throssell, J. A. Montgomery, Jr., J. E. Peralta, 
 F. Ogliaro, M. J. Bearpark, J. J. Heyd, E. N. Brothers, K. N. Kudin, 
 V. N. Staroverov, T. A. Keith, R. Kobayashi, J. Normand, 
 K. Raghavachari, A. P. Rendell, J. C. Burant, S. S. Iyengar, 
 J. Tomasi, M. Cossi, J. M. Millam, M. Klene, C. Adamo, R. Cammi, 
 J. W. Ochterski, R. L. Martin, K. Morokuma, O. Farkas, 
 J. B. Foresman, and D. J. Fox, Gaussian, Inc., Wallingford CT, 2016.
 
 ******************************************
 Gaussian 16:  ES64L-G16RevB.01 20-Dec-2017
                22-Nov-2022 
 ******************************************
 %nprocshared=32
 Will use up to   32 processors via shared memory.
 %mem=120GB
 %chk=_conf016.chk
 ----------------------------------------
 #P wB97XD/6-311++G(d,p) scf=maxcycle=512
 ----------------------------------------
 1/38=1,172=1/1;
 2/12=2,17=6,18=5,40=1/2;
 3/5=4,6=6,7=1111,11=2,25=1,30=1,74=-58/1,2,3;
 4//1;
 5/5=2,7=512,38=5/2;
 6/7=2,8=2,9=2,10=2,28=1/1;
 99/5=1,9=1/99;
 Leave Link    1 at Tue Nov 22 15:00:58 2022, MaxMem= 16106127360 cpu:               1.6 elap:               0.1
 (Enter /opt/ap/G16/B01/g16/l101.exe)
 ----------------------------
 _conf016.gjf nmol_natom 1_24
 ----------------------------
 Symbolic Z-matrix:
 Charge =  0 Multiplicity = 1
 C
 C                    1     1.39746 
 C                    1     1.39996  2     119.28067 
 C                    2     1.39288  1     120.37437  3    -0.51003  0
 H                    2     0.95015  1     119.82324  3     179.45635  0
 C                    1     1.49653  2     122.77761  4     174.46829  0
 C                    3     1.38701  1     120.10018  2    -0.37316  0
 H                    3     0.95011  1     119.95246  2     179.59239  0
 C                    7     1.3872   3     120.16569  1     1.07451  0
 H                    4     0.95012  2     120.18756  1    -179.31195  0
 C                    6     1.49517  1     120.70973  2    -10.      0
 O                    6     1.2215   1     119.67074  2     170.     0
 H                    7     0.94957  3     119.91275  1    -178.88636  0
 H                    9     0.94992  7     119.76038  3     179.10764  0
 C                    11    1.39714  6     122.62586  1     30.97749  0
 C                    11    1.4004   6     117.74754  1    -153.15468  0
 C                    15    1.39456  11    119.80747  6     175.4763  0
 H                    15    0.94963  11    120.10536  6    -4.50802  0
 C                    16    1.38466  11    120.46174  6    -176.88197  0
 H                    16    0.94975  11    119.75779  6     3.147    0
 C                    17    1.39089  15    120.34753  11    0.79736  0
 H                    17    0.94984  15    119.81565  11   -179.16676  0
 H                    19    0.94975  16    119.98566  11   -178.40987  0
 H                    21    0.94939  17    120.07445  15    179.91636  0
 
 ITRead=  0  0  0  0  0  0  0  0  0  0  0  0  0  0  0  0  0  0  0  0
 ITRead=  0  0  0  0
 MicOpt= -1 -1 -1 -1 -1 -1 -1 -1 -1 -1 -1 -1 -1 -1 -1 -1 -1 -1 -1 -1
 MicOpt= -1 -1 -1 -1
 NAtoms=     24 NQM=       24 NQMF=       0 NMMI=      0 NMMIF=      0
                NMic=       0 NMicF=      0.
                    Isotopes and Nuclear Properties:
 (Nuclear quadrupole moments (NQMom) in fm**2, nuclear magnetic moments (NMagM)
  in nuclear magnetons)

  Atom         1           2           3           4           5           6           7           8           9          10
 IAtWgt=          12          12          12          12           1          12          12           1          12           1
 AtmWgt=  12.0000000  12.0000000  12.0000000  12.0000000   1.0078250  12.0000000  12.0000000   1.0078250  12.0000000   1.0078250
 NucSpn=           0           0           0           0           1           0           0           1           0           1
 AtZEff=  -0.0000000  -0.0000000  -0.0000000  -0.0000000  -0.0000000  -0.0000000  -0.0000000  -0.0000000  -0.0000000  -0.0000000
 NQMom=    0.0000000   0.0000000   0.0000000   0.0000000   0.0000000   0.0000000   0.0000000   0.0000000   0.0000000   0.0000000
 NMagM=    0.0000000   0.0000000   0.0000000   0.0000000   2.7928460   0.0000000   0.0000000   2.7928460   0.0000000   2.7928460
 AtZNuc=   6.0000000   6.0000000   6.0000000   6.0000000   1.0000000   6.0000000   6.0000000   1.0000000   6.0000000   1.0000000

  Atom        11          12          13          14          15          16          17          18          19          20
 IAtWgt=          12          16           1           1          12          12          12           1          12           1
 AtmWgt=  12.0000000  15.9949146   1.0078250   1.0078250  12.0000000  12.0000000  12.0000000   1.0078250  12.0000000   1.0078250
 NucSpn=           0           0           1           1           0           0           0           1           0           1
 AtZEff=  -0.0000000  -0.0000000  -0.0000000  -0.0000000  -0.0000000  -0.0000000  -0.0000000  -0.0000000  -0.0000000  -0.0000000
 NQMom=    0.0000000   0.0000000   0.0000000   0.0000000   0.0000000   0.0000000   0.0000000   0.0000000   0.0000000   0.0000000
 NMagM=    0.0000000   0.0000000   2.7928460   2.7928460   0.0000000   0.0000000   0.0000000   2.7928460   0.0000000   2.7928460
 AtZNuc=   6.0000000   8.0000000   1.0000000   1.0000000   6.0000000   6.0000000   6.0000000   1.0000000   6.0000000   1.0000000

  Atom        21          22          23          24
 IAtWgt=          12           1           1           1
 AtmWgt=  12.0000000   1.0078250   1.0078250   1.0078250
 NucSpn=           0           1           1           1
 AtZEff=  -0.0000000  -0.0000000  -0.0000000  -0.0000000
 NQMom=    0.0000000   0.0000000   0.0000000   0.0000000
 NMagM=    0.0000000   2.7928460   2.7928460   2.7928460
 AtZNuc=   6.0000000   1.0000000   1.0000000   1.0000000
 Leave Link  101 at Tue Nov 22 15:00:58 2022, MaxMem= 16106127360 cpu:               5.4 elap:               0.2
 (Enter /opt/ap/G16/B01/g16/l202.exe)
                          Input orientation:                          
 ---------------------------------------------------------------------
 Center     Atomic      Atomic             Coordinates (Angstroms)
 Number     Number       Type             X           Y           Z
 ---------------------------------------------------------------------
      1          6           0        0.000000    0.000000    0.000000
      2          6           0        0.000000    0.000000    1.397463
      3          6           0        1.221096    0.000000   -0.684705
      4          6           0        1.201650   -0.010697    2.101772
      5          1           0       -0.824276    0.007821    1.869996
      6          6           0       -1.253421   -0.110138   -0.810191
      7          6           0        2.414707    0.007815    0.021719
      8          1           0        1.232246   -0.005856   -1.634731
      9          6           0        2.403895   -0.006831    1.408800
     10          1           0        1.198494   -0.020531    3.051836
     11          6           0       -2.556144   -0.448692   -0.159175
     12          8           0       -1.212299    0.078486   -2.016340
     13          1           0        3.241298    0.023792   -0.445367
     14          1           0        3.224827   -0.014217    1.886678
     15          6           0       -2.860713   -0.079421    1.153409
     16          6           0       -3.528495   -1.086704   -0.939291
     17          6           0       -4.128576   -0.342616    1.671135
     18          1           0       -2.206444    0.349754    1.691494
     19          6           0       -4.777683   -1.368019   -0.412331
     20          1           0       -3.329419   -1.328435   -1.835926
     21          6           0       -5.085741   -0.985475    0.893227
     22          1           0       -4.339590   -0.080974    2.559515
     23          1           0       -5.424395   -1.821135   -0.940033
     24          1           0       -5.947281   -1.163790    1.249999
 ---------------------------------------------------------------------
                    Distance matrix (angstroms):
                    1          2          3          4          5
     1  C    0.000000
     2  C    1.397463   0.000000
     3  C    1.399963   2.413814   0.000000
     4  C    2.421058   1.392885   2.786566   0.000000
     5  H    2.043619   0.950147   3.272630   2.039225   0.000000
     6  C    1.496530   2.541049   2.480142   3.810091   2.716889
     7  C    2.414817   2.779127   1.387013   2.408002   3.729228
     8  H    2.047146   3.273021   0.950109   3.736632   4.063567
     9  C    2.786301   2.403931   2.404542   1.387667   3.260982
    10  H    3.278797   2.042977   3.736665   0.950119   2.342893
    11  C    2.600103   3.026271   3.839928   4.407350   2.706530
    12  O    2.354029   3.623518   2.775035   4.774301   3.906298
    13  H    3.271839   3.728619   2.034469   3.263323   4.678681
    14  H    3.736210   3.261755   3.259932   2.034583   4.049198
    15  C    3.085505   2.872203   4.477291   4.172159   2.160598
    16  C    3.809655   4.369397   4.878970   5.725393   4.050047
    17  C    4.467127   4.151798   5.855455   5.357885   3.328776
    18  H    2.802120   2.253259   4.185293   3.451573   1.434981
    19  C    4.986757   5.288959   6.158815   6.626874   4.767744
    20  H    4.027455   4.827482   4.878241   6.145933   4.668531
    21  C    5.256784   5.204823   6.575502   6.476269   4.483392
    22  H    5.038821   4.493213   6.438380   5.560558   3.583399
    23  H    5.798643   6.180978   6.895236   7.512306   5.692314
    24  H    6.187654   6.061873   7.515525   7.291252   5.291715
                    6          7          8          9         10
     6  C    0.000000
     7  C    3.763130   0.000000
     8  H    2.620930   2.035246   0.000000
     9  C    4.279082   1.387200   3.261263   0.000000
    10  H    4.575496   3.265208   4.686711   2.037829   0.000000
    11  C    1.495169   4.995046   4.089654   5.220706   4.958953
    12  O    1.221501   4.160991   2.475588   4.981537   5.613210
    13  H    4.511488   0.949567   2.334899   2.034727   4.050363
    14  H    5.228480   2.033434   4.046081   0.949923   2.337447
    15  C    2.537727   5.396146   4.952923   5.271298   4.481591
    16  C    2.479176   6.119082   4.931178   6.470928   6.277758
    17  C    3.804937   6.757065   6.307184   6.546354   5.512509
    18  H    2.716281   4.925455   4.797376   4.632741   3.685274
    19  C    3.763108   7.335652   6.282435   7.532888   7.037817
    20  H    2.616515   6.183154   4.753786   6.719060   6.789906
    21  C    4.284219   7.615962   6.875113   7.570879   6.714337
    22  H    4.569487   7.215873   6.974431   6.841361   5.560252
    23  H    4.510144   8.106883   6.934602   8.372027   7.939764
    24  H    5.233249   8.532536   7.823559   8.432432   7.457597
                   11         12         13         14         15
    11  C    0.000000
    12  O    2.352211   0.000000
    13  H    5.823700   4.722867   0.000000
    14  H    6.147675   5.910180   2.332413   0.000000
    15  C    1.397140   3.576242   6.308825   6.129905   0.000000
    16  C    1.400396   2.807573   6.878027   7.398898   2.416598
    17  C    2.415332   4.720113   7.676515   7.363888   1.394557
    18  H    2.045674   3.848369   5.860915   5.446952   0.949629
    19  C    2.417537   4.168594   8.138936   8.435543   2.790484
    20  H    2.045335   2.548367   6.851021   7.651346   3.273506
    21  C    2.791872   4.959954   8.494117   8.425903   2.416481
    22  H    3.272181   5.544711   8.155375   7.594575   2.040640
    23  H    3.274172   4.744339   8.873707   9.277084   3.740125
    24  H    3.741249   5.884919   9.418843   9.265768   3.272933
                   16         17         18         19         20
    16  C    0.000000
    17  C    2.779944   0.000000
    18  H    3.276013   2.043131   0.000000
    19  C    1.384664   2.411145   3.740066   0.000000
    20  H    0.949746   3.729607   4.064490   2.031171   0.000000
    21  C    2.406945   1.390889   3.272678   1.394891   3.263520
    22  H    3.729747   0.949843   2.342925   3.268069   4.679370
    23  H    2.033181   3.268541   4.689659   0.949747   2.331159
    24  H    3.263351   2.039453   4.059507   2.042795   4.050092
                   21         22         23         24
    21  C    0.000000
    22  H    2.037493   0.000000
    23  H    2.043001   4.056081   0.000000
    24  H    0.949386   2.339229   2.345581   0.000000
 Stoichiometry    C13H10O
 Framework group  C1[X(C13H10O)]
 Deg. of freedom    66
 Full point group                 C1      NOp   1
 Largest Abelian subgroup         C1      NOp   1
 Largest concise Abelian subgroup C1      NOp   1
                         Standard orientation:                         
 ---------------------------------------------------------------------
 Center     Atomic      Atomic             Coordinates (Angstroms)
 Number     Number       Type             X           Y           Z
 ---------------------------------------------------------------------
      1          6           0       -1.311043    0.336438   -0.135001
      2          6           0       -1.395573   -1.057062   -0.072421
      3          6           0       -2.475420    1.100198    0.009193
      4          6           0       -2.623208   -1.679286    0.141767
      5          1           0       -0.611349   -1.583208   -0.177026
      6          6           0       -0.008268    1.065107   -0.241876
      7          6           0       -3.697944    0.474673    0.204022
      8          1           0       -2.428111    2.048477   -0.025963
      9          6           0       -3.769035   -0.908670    0.279069
     10          1           0       -2.676127   -2.626515    0.193583
     11          6           0        1.288100    0.341564   -0.064546
     12          8           0       -0.003410    2.263855   -0.476489
     13          1           0       -4.488252    0.994695    0.285674
     14          1           0       -4.607510   -1.330477    0.425326
     15          6           0        1.455631   -1.000630   -0.414471
     16          6           0        2.388451    1.077658    0.392073
     17          6           0        2.714654   -1.591628   -0.312624
     18          1           0        0.714456   -1.509051   -0.721003
     19          6           0        3.631115    0.479335    0.514922
     20          1           0        2.281341    1.993550    0.619421
     21          6           0        3.800582   -0.856557    0.151061
     22          1           0        2.831149   -2.500788   -0.561737
     23          1           0        4.367690    0.978755    0.846672
     24          1           0        4.655737   -1.263123    0.219964
 ---------------------------------------------------------------------
 Rotational constants (GHZ):           1.7463642           0.4226483           0.3483378
 Leave Link  202 at Tue Nov 22 15:00:58 2022, MaxMem= 16106127360 cpu:               0.3 elap:               0.0
 (Enter /opt/ap/G16/B01/g16/l301.exe)
 Standard basis: 6-311++G(d,p) (5D, 7F)
 Ernie: Thresh=  0.10000D-02 Tol=  0.10000D-05 Strict=F.
 There are   392 symmetry adapted cartesian basis functions of A   symmetry.
 There are   378 symmetry adapted basis functions of A   symmetry.
   378 basis functions,   594 primitive gaussians,   392 cartesian basis functions
    48 alpha electrons       48 beta electrons
       nuclear repulsion energy       785.5178035907 Hartrees.
 IExCor= 4639 DFT=T Ex+Corr=wB97XD ExCW=0 ScaHFX=  1.000000
 ScaDFX=  1.000000  1.000000  1.000000  1.000000 ScalE2=  1.000000  1.000000
 IRadAn=      5 IRanWt=     -1 IRanGd=            0 ICorTp=0 IEmpDi=121
 HFx  wShort=  0.000000 wLong=  0.200000 cFull=  0.222036 cShort=  0.000000 cLong=  0.777964
 DFx  wShort=  0.000000 wLong=  0.200000 cFull=  0.000000 cShort=  0.000000 cLong=  1.000000
 NAtoms=   24 NActive=   24 NUniq=   24 SFac= 1.00D+00 NAtFMM=   60 NAOKFM=F Big=F
 Integral buffers will be    131072 words long.
 Raffenetti 2 integral format.
 Two-electron integral symmetry is turned on.
 R6Disp:  Grimme-D2 Dispersion energy=       -0.0137778282 Hartrees.
 Nuclear repulsion after empirical dispersion term =      785.5040257624 Hartrees.
 Leave Link  301 at Tue Nov 22 15:00:58 2022, MaxMem= 16106127360 cpu:               1.2 elap:               0.0
 (Enter /opt/ap/G16/B01/g16/l302.exe)
 NPDir=0 NMtPBC=     1 NCelOv=     1 NCel=       1 NClECP=     1 NCelD=      1
         NCelK=      1 NCelE2=     1 NClLst=     1 CellRange=     0.0.
 One-electron integrals computed using PRISM.
 One-electron integral symmetry used in STVInt
 NBasis=   378 RedAO= T EigKep=  1.19D-06  NBF=   378
 NBsUse=   376 1.00D-06 EigRej=  7.01D-07 NBFU=   376
 Precomputing XC quadrature grid using
 IXCGrd= 4 IRadAn=           5 IRanWt=          -1 IRanGd=           0 AccXCQ= 0.00D+00.
 Generated NRdTot=       0 NPtTot=           0 NUsed=           0 NTot=          32
 NSgBfM=   392   392   392   392   392 MxSgAt=    24 MxSgA2=    24.
 Leave Link  302 at Tue Nov 22 15:00:59 2022, MaxMem= 16106127360 cpu:               8.2 elap:               0.3
 (Enter /opt/ap/G16/B01/g16/l303.exe)
 DipDrv:  MaxL=1.
 Leave Link  303 at Tue Nov 22 15:00:59 2022, MaxMem= 16106127360 cpu:               3.9 elap:               0.1
 (Enter /opt/ap/G16/B01/g16/l401.exe)
 ExpMin= 3.60D-02 ExpMax= 8.59D+03 ExpMxC= 1.30D+03 IAcc=3 IRadAn=         5 AccDes= 0.00D+00
 Harris functional with IExCor= 4639 and IRadAn=       5 diagonalized for initial guess.
 HarFok:  IExCor= 4639 AccDes= 0.00D+00 IRadAn=         5 IDoV= 1 UseB2=F ITyADJ=14
 ICtDFT=  3500011 ScaDFX=  1.000000  1.000000  1.000000  1.000000
 FoFCou: FMM=F IPFlag=           0 FMFlag=      100000 FMFlg1=           0
         NFxFlg=           0 DoJE=T BraDBF=F KetDBF=T FulRan=T
         wScrn=  0.000000 ICntrl=       500 IOpCl=  0 I1Cent=   200000004 NGrid=           0
         NMat0=    1 NMatS0=      1 NMatT0=    0 NMatD0=    1 NMtDS0=    0 NMtDT0=    0
 Petite list used in FoFCou.
 Harris En= -550.886532240579    
 JPrj=0 DoOrth=F DoCkMO=F.
 Leave Link  401 at Tue Nov 22 15:00:59 2022, MaxMem= 16106127360 cpu:              22.8 elap:               0.7
 (Enter /opt/ap/G16/B01/g16/l502.exe)
 Integral symmetry usage will be decided dynamically.
 Closed shell SCF:
 Using DIIS extrapolation, IDIIS=  1040.
 NGot= 16106127360 LenX= 16105803762 LenY= 16105649657
 Requested convergence on RMS density matrix=1.00D-08 within 512 cycles.
 Requested convergence on MAX density matrix=1.00D-06.
 Requested convergence on             energy=1.00D-06.
 No special actions if energy rises.
 Fock matrices will be formed incrementally for  20 cycles.

 Cycle   1  Pass 1  IDiag  1:
 FoFJK:  IHMeth= 1 ICntrl=       0 DoSepK=T KAlg= 0 I1Cent=           0 FoldK=F
 IRaf=         1 NMat=       1 IRICut=       1 DoRegI=T DoRafI=F ISym2E= 0 IDoP0=0 IntGTp=1.
 FoFCou: FMM=F IPFlag=           0 FMFlag=      100000 FMFlg1=           0
         NFxFlg=           0 DoJE=T BraDBF=F KetDBF=F FulRan=T
         wScrn=  0.000000 ICntrl=       500 IOpCl=  0 I1Cent=           0 NGrid=           0
         NMat0=    1 NMatS0=      1 NMatT0=    0 NMatD0=    1 NMtDS0=    0 NMtDT0=    0
 Symmetry not used in FoFCou.
 E= -576.251254728586    
 DIIS: error= 5.41D-02 at cycle   1 NSaved=   1.
 NSaved= 1 IEnMin= 1 EnMin= -576.251254728586     IErMin= 1 ErrMin= 5.41D-02
 ErrMax= 5.41D-02  0.00D+00 EMaxC= 1.00D-01 BMatC= 1.19D+00 BMatP= 1.19D+00
 IDIUse=3 WtCom= 4.59D-01 WtEn= 5.41D-01
 Coeff-Com:  0.100D+01
 Coeff-En:   0.100D+01
 Coeff:      0.100D+01
 Gap=     0.401 Goal=   None    Shift=    0.000
 GapD=    0.401 DampG=2.000 DampE=0.500 DampFc=1.0000 IDamp=-1.
 RMSDP=5.03D-02 MaxDP=7.08D+00              OVMax= 1.33D-01

 Cycle   2  Pass 1  IDiag  1:
 RMSU=  2.19D-02    CP:  6.20D-01
 E= -576.340203973162     Delta-E=       -0.088949244576 Rises=F Damp=F
 DIIS: error= 1.82D-02 at cycle   2 NSaved=   2.
 NSaved= 2 IEnMin= 2 EnMin= -576.340203973162     IErMin= 2 ErrMin= 1.82D-02
 ErrMax= 1.82D-02  0.00D+00 EMaxC= 1.00D-01 BMatC= 7.47D-02 BMatP= 1.19D+00
 IDIUse=3 WtCom= 8.18D-01 WtEn= 1.82D-01
 Coeff-Com:  0.125D+00 0.875D+00
 Coeff-En:   0.141D+00 0.859D+00
 Coeff:      0.128D+00 0.872D+00
 Gap=     0.413 Goal=   None    Shift=    0.000
 RMSDP=1.80D-02 MaxDP=1.41D+00 DE=-8.89D-02 OVMax= 1.64D-01

 Cycle   3  Pass 1  IDiag  1:
 RMSU=  1.13D-02    CP:  6.53D-01  3.90D-01
 E= -576.355743497588     Delta-E=       -0.015539524426 Rises=F Damp=F
 DIIS: error= 1.97D-02 at cycle   3 NSaved=   3.
 NSaved= 3 IEnMin= 3 EnMin= -576.355743497588     IErMin= 2 ErrMin= 1.82D-02
 ErrMax= 1.97D-02  0.00D+00 EMaxC= 1.00D-01 BMatC= 5.58D-02 BMatP= 7.47D-02
 IDIUse=3 WtCom= 8.03D-01 WtEn= 1.97D-01
 Coeff-Com:  0.240D-01 0.467D+00 0.509D+00
 Coeff-En:   0.000D+00 0.435D+00 0.565D+00
 Coeff:      0.193D-01 0.461D+00 0.520D+00
 Gap=     0.344 Goal=   None    Shift=    0.000
 RMSDP=1.16D-02 MaxDP=1.24D+00 DE=-1.55D-02 OVMax= 5.45D-02

 Cycle   4  Pass 1  IDiag  1:
 RMSU=  3.07D-03    CP:  5.89D-01  6.40D-01  4.67D-01
 E= -576.404651346376     Delta-E=       -0.048907848788 Rises=F Damp=F
 DIIS: error= 1.92D-03 at cycle   4 NSaved=   4.
 NSaved= 4 IEnMin= 4 EnMin= -576.404651346376     IErMin= 4 ErrMin= 1.92D-03
 ErrMax= 1.92D-03  0.00D+00 EMaxC= 1.00D-01 BMatC= 1.01D-03 BMatP= 5.58D-02
 IDIUse=3 WtCom= 9.81D-01 WtEn= 1.92D-02
 Coeff-Com:  0.968D-02 0.202D+00 0.247D+00 0.541D+00
 Coeff-En:   0.000D+00 0.000D+00 0.000D+00 0.100D+01
 Coeff:      0.949D-02 0.198D+00 0.243D+00 0.550D+00
 Gap=     0.319 Goal=   None    Shift=    0.000
 RMSDP=7.49D-04 MaxDP=5.99D-02 DE=-4.89D-02 OVMax= 6.80D-03

 Cycle   5  Pass 1  IDiag  1:
 RMSU=  6.13D-04    CP:  5.91D-01  6.58D-01  4.76D-01  9.83D-01
 E= -576.405347461794     Delta-E=       -0.000696115418 Rises=F Damp=F
 DIIS: error= 4.86D-04 at cycle   5 NSaved=   5.
 NSaved= 5 IEnMin= 5 EnMin= -576.405347461794     IErMin= 5 ErrMin= 4.86D-04
 ErrMax= 4.86D-04  0.00D+00 EMaxC= 1.00D-01 BMatC= 8.22D-05 BMatP= 1.01D-03
 IDIUse=3 WtCom= 9.95D-01 WtEn= 4.86D-03
 Coeff-Com: -0.608D-03-0.874D-02 0.517D-03 0.210D+00 0.799D+00
 Coeff-En:   0.000D+00 0.000D+00 0.000D+00 0.000D+00 0.100D+01
 Coeff:     -0.605D-03-0.869D-02 0.515D-03 0.209D+00 0.800D+00
 Gap=     0.320 Goal=   None    Shift=    0.000
 RMSDP=6.96D-04 MaxDP=9.17D-02 DE=-6.96D-04 OVMax= 2.51D-03

 Cycle   6  Pass 1  IDiag  1:
 RMSU=  3.01D-04    CP:  5.86D-01  6.55D-01  4.92D-01  1.01D+00  5.49D-01
 E= -576.405411710489     Delta-E=       -0.000064248695 Rises=F Damp=F
 DIIS: error= 2.98D-04 at cycle   6 NSaved=   6.
 NSaved= 6 IEnMin= 6 EnMin= -576.405411710489     IErMin= 6 ErrMin= 2.98D-04
 ErrMax= 2.98D-04  0.00D+00 EMaxC= 1.00D-01 BMatC= 1.86D-05 BMatP= 8.22D-05
 IDIUse=3 WtCom= 9.97D-01 WtEn= 2.98D-03
 Coeff-Com: -0.123D-02-0.232D-01-0.220D-01 0.608D-01 0.431D+00 0.554D+00
 Coeff-En:   0.000D+00 0.000D+00 0.000D+00 0.000D+00 0.000D+00 0.100D+01
 Coeff:     -0.123D-02-0.231D-01-0.220D-01 0.606D-01 0.430D+00 0.556D+00
 Gap=     0.321 Goal=   None    Shift=    0.000
 RMSDP=1.53D-04 MaxDP=1.35D-02 DE=-6.42D-05 OVMax= 1.27D-03

 Cycle   7  Pass 1  IDiag  1:
 RMSU=  9.43D-05    CP:  5.87D-01  6.59D-01  4.88D-01  1.03D+00  6.10D-01
                    CP:  9.58D-01
 E= -576.405431069799     Delta-E=       -0.000019359310 Rises=F Damp=F
 DIIS: error= 4.73D-05 at cycle   7 NSaved=   7.
 NSaved= 7 IEnMin= 7 EnMin= -576.405431069799     IErMin= 7 ErrMin= 4.73D-05
 ErrMax= 4.73D-05  0.00D+00 EMaxC= 1.00D-01 BMatC= 4.61D-07 BMatP= 1.86D-05
 IDIUse=1 WtCom= 1.00D+00 WtEn= 0.00D+00
 Coeff-Com: -0.219D-03-0.422D-02-0.503D-02-0.107D-01-0.109D-01 0.103D+00
 Coeff-Com:  0.928D+00
 Coeff:     -0.219D-03-0.422D-02-0.503D-02-0.107D-01-0.109D-01 0.103D+00
 Coeff:      0.928D+00
 Gap=     0.321 Goal=   None    Shift=    0.000
 RMSDP=6.31D-05 MaxDP=6.65D-03 DE=-1.94D-05 OVMax= 4.80D-04

 Cycle   8  Pass 1  IDiag  1:
 RMSU=  2.48D-05    CP:  5.86D-01  6.59D-01  4.90D-01  1.04D+00  5.84D-01
                    CP:  1.08D+00  1.04D+00
 E= -576.405432204643     Delta-E=       -0.000001134843 Rises=F Damp=F
 DIIS: error= 1.42D-05 at cycle   8 NSaved=   8.
 NSaved= 8 IEnMin= 8 EnMin= -576.405432204643     IErMin= 8 ErrMin= 1.42D-05
 ErrMax= 1.42D-05  0.00D+00 EMaxC= 1.00D-01 BMatC= 7.90D-08 BMatP= 4.61D-07
 IDIUse=1 WtCom= 1.00D+00 WtEn= 0.00D+00
 Coeff-Com:  0.421D-04 0.570D-03 0.312D-04-0.116D-01-0.534D-01-0.215D-01
 Coeff-Com:  0.322D+00 0.764D+00
 Coeff:      0.421D-04 0.570D-03 0.312D-04-0.116D-01-0.534D-01-0.215D-01
 Coeff:      0.322D+00 0.764D+00
 Gap=     0.321 Goal=   None    Shift=    0.000
 RMSDP=1.52D-05 MaxDP=1.08D-03 DE=-1.13D-06 OVMax= 1.55D-04

 Cycle   9  Pass 1  IDiag  1:
 RMSU=  5.82D-06    CP:  5.86D-01  6.59D-01  4.90D-01  1.04D+00  5.77D-01
                    CP:  1.11D+00  1.08D+00  1.18D+00
 E= -576.405432348318     Delta-E=       -0.000000143675 Rises=F Damp=F
 DIIS: error= 3.44D-06 at cycle   9 NSaved=   9.
 NSaved= 9 IEnMin= 9 EnMin= -576.405432348318     IErMin= 9 ErrMin= 3.44D-06
 ErrMax= 3.44D-06  0.00D+00 EMaxC= 1.00D-01 BMatC= 5.30D-09 BMatP= 7.90D-08
 IDIUse=1 WtCom= 1.00D+00 WtEn= 0.00D+00
 Coeff-Com:  0.373D-04 0.654D-03 0.629D-03-0.866D-03-0.925D-02-0.161D-01
 Coeff-Com: -0.523D-01 0.153D+00 0.925D+00
 Coeff:      0.373D-04 0.654D-03 0.629D-03-0.866D-03-0.925D-02-0.161D-01
 Coeff:     -0.523D-01 0.153D+00 0.925D+00
 Gap=     0.321 Goal=   None    Shift=    0.000
 RMSDP=6.80D-06 MaxDP=4.83D-04 DE=-1.44D-07 OVMax= 6.62D-05

 Cycle  10  Pass 1  IDiag  1:
 RMSU=  3.19D-06    CP:  5.86D-01  6.59D-01  4.90D-01  1.04D+00  5.74D-01
                    CP:  1.11D+00  1.09D+00  1.32D+00  1.40D+00
 E= -576.405432362896     Delta-E=       -0.000000014579 Rises=F Damp=F
 DIIS: error= 1.17D-06 at cycle  10 NSaved=  10.
 NSaved=10 IEnMin=10 EnMin= -576.405432362896     IErMin=10 ErrMin= 1.17D-06
 ErrMax= 1.17D-06  0.00D+00 EMaxC= 1.00D-01 BMatC= 3.88D-10 BMatP= 5.30D-09
 IDIUse=1 WtCom= 1.00D+00 WtEn= 0.00D+00
 Coeff-Com: -0.201D-05-0.218D-05 0.313D-04 0.109D-02 0.390D-02 0.148D-02
 Coeff-Com: -0.246D-01-0.587D-01 0.574D-01 0.102D+01
 Coeff:     -0.201D-05-0.218D-05 0.313D-04 0.109D-02 0.390D-02 0.148D-02
 Coeff:     -0.246D-01-0.587D-01 0.574D-01 0.102D+01
 Gap=     0.321 Goal=   None    Shift=    0.000
 RMSDP=1.80D-06 MaxDP=9.15D-05 DE=-1.46D-08 OVMax= 1.93D-05

 Cycle  11  Pass 1  IDiag  1:
 RMSU=  1.04D-06    CP:  5.86D-01  6.59D-01  4.90D-01  1.04D+00  5.74D-01
                    CP:  1.11D+00  1.08D+00  1.35D+00  1.46D+00  1.19D+00
 E= -576.405432364230     Delta-E=       -0.000000001334 Rises=F Damp=F
 DIIS: error= 3.94D-07 at cycle  11 NSaved=  11.
 NSaved=11 IEnMin=11 EnMin= -576.405432364230     IErMin=11 ErrMin= 3.94D-07
 ErrMax= 3.94D-07  0.00D+00 EMaxC= 1.00D-01 BMatC= 7.45D-11 BMatP= 3.88D-10
 IDIUse=1 WtCom= 1.00D+00 WtEn= 0.00D+00
 Coeff-Com: -0.275D-05-0.397D-04-0.298D-04 0.424D-03 0.169D-02 0.135D-02
 Coeff-Com: -0.415D-02-0.299D-01-0.511D-01 0.291D+00 0.791D+00
 Coeff:     -0.275D-05-0.397D-04-0.298D-04 0.424D-03 0.169D-02 0.135D-02
 Coeff:     -0.415D-02-0.299D-01-0.511D-01 0.291D+00 0.791D+00
 Gap=     0.321 Goal=   None    Shift=    0.000
 RMSDP=5.40D-07 MaxDP=3.06D-05 DE=-1.33D-09 OVMax= 7.63D-06

 Cycle  12  Pass 1  IDiag  1:
 RMSU=  2.70D-07    CP:  5.86D-01  6.59D-01  4.90D-01  1.04D+00  5.74D-01
                    CP:  1.11D+00  1.08D+00  1.35D+00  1.49D+00  1.25D+00
                    CP:  1.17D+00
 E= -576.405432364412     Delta-E=       -0.000000000182 Rises=F Damp=F
 DIIS: error= 2.37D-07 at cycle  12 NSaved=  12.
 NSaved=12 IEnMin=12 EnMin= -576.405432364412     IErMin=12 ErrMin= 2.37D-07
 ErrMax= 2.37D-07  0.00D+00 EMaxC= 1.00D-01 BMatC= 9.53D-12 BMatP= 7.45D-11
 IDIUse=1 WtCom= 1.00D+00 WtEn= 0.00D+00
 Coeff-Com:  0.146D-06-0.433D-05-0.104D-04-0.159D-03-0.655D-03-0.197D-03
 Coeff-Com:  0.501D-02 0.940D-02-0.162D-01-0.171D+00 0.834D-01 0.109D+01
 Coeff:      0.146D-06-0.433D-05-0.104D-04-0.159D-03-0.655D-03-0.197D-03
 Coeff:      0.501D-02 0.940D-02-0.162D-01-0.171D+00 0.834D-01 0.109D+01
 Gap=     0.321 Goal=   None    Shift=    0.000
 RMSDP=4.21D-07 MaxDP=3.06D-05 DE=-1.82D-10 OVMax= 6.01D-06

 Cycle  13  Pass 1  IDiag  1:
 RMSU=  1.28D-07    CP:  5.86D-01  6.59D-01  4.90D-01  1.04D+00  5.74D-01
                    CP:  1.11D+00  1.08D+00  1.34D+00  1.49D+00  1.29D+00
                    CP:  1.29D+00  1.28D+00
 E= -576.405432364479     Delta-E=       -0.000000000067 Rises=F Damp=F
 DIIS: error= 9.53D-08 at cycle  13 NSaved=  13.
 NSaved=13 IEnMin=13 EnMin= -576.405432364479     IErMin=13 ErrMin= 9.53D-08
 ErrMax= 9.53D-08  0.00D+00 EMaxC= 1.00D-01 BMatC= 1.71D-12 BMatP= 9.53D-12
 IDIUse=1 WtCom= 1.00D+00 WtEn= 0.00D+00
 Coeff-Com:  0.324D-06 0.383D-05 0.247D-05-0.847D-04-0.318D-03-0.226D-03
 Coeff-Com:  0.130D-02 0.503D-02 0.235D-02-0.662D-01-0.844D-01 0.192D+00
 Coeff-Com:  0.951D+00
 Coeff:      0.324D-06 0.383D-05 0.247D-05-0.847D-04-0.318D-03-0.226D-03
 Coeff:      0.130D-02 0.503D-02 0.235D-02-0.662D-01-0.844D-01 0.192D+00
 Coeff:      0.951D+00
 Gap=     0.321 Goal=   None    Shift=    0.000
 RMSDP=1.31D-07 MaxDP=9.39D-06 DE=-6.71D-11 OVMax= 2.48D-06

 Cycle  14  Pass 1  IDiag  1:
 RMSU=  3.43D-08    CP:  5.86D-01  6.59D-01  4.90D-01  1.04D+00  5.74D-01
                    CP:  1.11D+00  1.08D+00  1.34D+00  1.49D+00  1.29D+00
                    CP:  1.33D+00  1.29D+00  1.44D+00
 E= -576.405432364495     Delta-E=       -0.000000000015 Rises=F Damp=F
 DIIS: error= 4.11D-08 at cycle  14 NSaved=  14.
 NSaved=14 IEnMin=14 EnMin= -576.405432364495     IErMin=14 ErrMin= 4.11D-08
 ErrMax= 4.11D-08  0.00D+00 EMaxC= 1.00D-01 BMatC= 3.93D-13 BMatP= 1.71D-12
 IDIUse=1 WtCom= 1.00D+00 WtEn= 0.00D+00
 Coeff-Com:  0.340D-07 0.166D-05 0.307D-05 0.107D-04 0.699D-04-0.600D-05
 Coeff-Com: -0.735D-03-0.785D-03 0.397D-02 0.212D-01-0.316D-01-0.202D+00
 Coeff-Com:  0.231D+00 0.979D+00
 Coeff:      0.340D-07 0.166D-05 0.307D-05 0.107D-04 0.699D-04-0.600D-05
 Coeff:     -0.735D-03-0.785D-03 0.397D-02 0.212D-01-0.316D-01-0.202D+00
 Coeff:      0.231D+00 0.979D+00
 Gap=     0.321 Goal=   None    Shift=    0.000
 RMSDP=5.29D-08 MaxDP=5.09D-06 DE=-1.52D-11 OVMax= 1.12D-06

 Cycle  15  Pass 1  IDiag  1:
 RMSU=  1.62D-08    CP:  5.86D-01  6.59D-01  4.90D-01  1.04D+00  5.74D-01
                    CP:  1.11D+00  1.08D+00  1.34D+00  1.49D+00  1.29D+00
                    CP:  1.32D+00  1.32D+00  1.66D+00  1.14D+00
 E= -576.405432364487     Delta-E=        0.000000000007 Rises=F Damp=F
 DIIS: error= 1.26D-08 at cycle  15 NSaved=  15.
 NSaved=15 IEnMin=14 EnMin= -576.405432364495     IErMin=15 ErrMin= 1.26D-08
 ErrMax= 1.26D-08  0.00D+00 EMaxC= 1.00D-01 BMatC= 7.39D-14 BMatP= 3.93D-13
 IDIUse=1 WtCom= 1.00D+00 WtEn= 0.00D+00
 Coeff-Com: -0.316D-07 0.111D-06 0.885D-06 0.163D-04 0.754D-04 0.356D-04
 Coeff-Com: -0.466D-03-0.102D-02 0.121D-02 0.181D-01 0.330D-02-0.114D+00
 Coeff-Com: -0.382D-01 0.380D+00 0.751D+00
 Coeff:     -0.316D-07 0.111D-06 0.885D-06 0.163D-04 0.754D-04 0.356D-04
 Coeff:     -0.466D-03-0.102D-02 0.121D-02 0.181D-01 0.330D-02-0.114D+00
 Coeff:     -0.382D-01 0.380D+00 0.751D+00
 Gap=     0.321 Goal=   None    Shift=    0.000
 RMSDP=1.67D-08 MaxDP=1.46D-06 DE= 7.28D-12 OVMax= 2.92D-07

 Cycle  16  Pass 1  IDiag  1:
 RMSU=  5.93D-09    CP:  5.86D-01  6.59D-01  4.90D-01  1.04D+00  5.74D-01
                    CP:  1.11D+00  1.08D+00  1.34D+00  1.49D+00  1.29D+00
                    CP:  1.32D+00  1.33D+00  1.68D+00  1.30D+00  1.25D+00
 E= -576.405432364500     Delta-E=       -0.000000000013 Rises=F Damp=F
 DIIS: error= 4.18D-09 at cycle  16 NSaved=  16.
 NSaved=16 IEnMin=16 EnMin= -576.405432364500     IErMin=16 ErrMin= 4.18D-09
 ErrMax= 4.18D-09  0.00D+00 EMaxC= 1.00D-01 BMatC= 7.67D-15 BMatP= 7.39D-14
 IDIUse=1 WtCom= 1.00D+00 WtEn= 0.00D+00
 Coeff-Com: -0.103D-07-0.245D-06-0.375D-06 0.132D-05 0.341D-05 0.107D-04
 Coeff-Com:  0.314D-04-0.714D-04-0.554D-03-0.316D-03 0.832D-02 0.662D-02
 Coeff-Com: -0.455D-01-0.961D-01 0.168D+00 0.960D+00
 Coeff:     -0.103D-07-0.245D-06-0.375D-06 0.132D-05 0.341D-05 0.107D-04
 Coeff:      0.314D-04-0.714D-04-0.554D-03-0.316D-03 0.832D-02 0.662D-02
 Coeff:     -0.455D-01-0.961D-01 0.168D+00 0.960D+00
 Gap=     0.321 Goal=   None    Shift=    0.000
 RMSDP=7.63D-09 MaxDP=5.31D-07 DE=-1.30D-11 OVMax= 1.26D-07

 SCF Done:  E(RwB97XD) =  -576.405432365     A.U. after   16 cycles
            NFock= 16  Conv=0.76D-08     -V/T= 1.9999
 KE= 5.764871717340D+02 PE=-2.913211867900D+03 EE= 9.748152380387D+02
 Leave Link  502 at Tue Nov 22 15:01:40 2022, MaxMem= 16106127360 cpu:            1293.6 elap:              40.9
 (Enter /opt/ap/G16/B01/g16/l601.exe)
 Copying SCF densities to generalized density rwf, IOpCl= 0 IROHF=0.

 **********************************************************************

            Population analysis using the SCF Density.

 **********************************************************************

 Orbital symmetries:
       Occupied  (A) (A) (A) (A) (A) (A) (A) (A) (A) (A) (A) (A)
                 (A) (A) (A) (A) (A) (A) (A) (A) (A) (A) (A) (A)
                 (A) (A) (A) (A) (A) (A) (A) (A) (A) (A) (A) (A)
                 (A) (A) (A) (A) (A) (A) (A) (A) (A) (A) (A) (A)
       Virtual   (A) (A) (A) (A) (A) (A) (A) (A) (A) (A) (A) (A)
                 (A) (A) (A) (A) (A) (A) (A) (A) (A) (A) (A) (A)
                 (A) (A) (A) (A) (A) (A) (A) (A) (A) (A) (A) (A)
                 (A) (A) (A) (A) (A) (A) (A) (A) (A) (A) (A) (A)
                 (A) (A) (A) (A) (A) (A) (A) (A) (A) (A) (A) (A)
                 (A) (A) (A) (A) (A) (A) (A) (A) (A) (A) (A) (A)
                 (A) (A) (A) (A) (A) (A) (A) (A) (A) (A) (A) (A)
                 (A) (A) (A) (A) (A) (A) (A) (A) (A) (A) (A) (A)
                 (A) (A) (A) (A) (A) (A) (A) (A) (A) (A) (A) (A)
                 (A) (A) (A) (A) (A) (A) (A) (A) (A) (A) (A) (A)
                 (A) (A) (A) (A) (A) (A) (A) (A) (A) (A) (A) (A)
                 (A) (A) (A) (A) (A) (A) (A) (A) (A) (A) (A) (A)
                 (A) (A) (A) (A) (A) (A) (A) (A) (A) (A) (A) (A)
                 (A) (A) (A) (A) (A) (A) (A) (A) (A) (A) (A) (A)
                 (A) (A) (A) (A) (A) (A) (A) (A) (A) (A) (A) (A)
                 (A) (A) (A) (A) (A) (A) (A) (A) (A) (A) (A) (A)
                 (A) (A) (A) (A) (A) (A) (A) (A) (A) (A) (A) (A)
                 (A) (A) (A) (A) (A) (A) (A) (A) (A) (A) (A) (A)
                 (A) (A) (A) (A) (A) (A) (A) (A) (A) (A) (A) (A)
                 (A) (A) (A) (A) (A) (A) (A) (A) (A) (A) (A) (A)
                 (A) (A) (A) (A) (A) (A) (A) (A) (A) (A) (A) (A)
                 (A) (A) (A) (A) (A) (A) (A) (A) (A) (A) (A) (A)
                 (A) (A) (A) (A) (A) (A) (A) (A) (A) (A) (A) (A)
                 (A) (A) (A) (A) (A) (A) (A) (A) (A) (A) (A) (A)
                 (A) (A) (A) (A) (A) (A) (A) (A) (A) (A) (A) (A)
                 (A) (A) (A) (A) (A) (A) (A) (A) (A) (A) (A) (A)
                 (A) (A) (A) (A) (A) (A) (A) (A) (A) (A) (A) (A)
                 (A) (A) (A) (A)
 The electronic state is 1-A.
 Alpha  occ. eigenvalues --  -19.23655 -10.38166 -10.30583 -10.30508 -10.28939
 Alpha  occ. eigenvalues --  -10.28784 -10.28627 -10.28564 -10.28509 -10.28441
 Alpha  occ. eigenvalues --  -10.28412 -10.28411 -10.28247 -10.28174  -1.14818
 Alpha  occ. eigenvalues --   -0.98116  -0.97403  -0.89542  -0.87510  -0.87330
 Alpha  occ. eigenvalues --   -0.86594  -0.76977  -0.74853  -0.73315  -0.72340
 Alpha  occ. eigenvalues --   -0.68209  -0.64966  -0.64314  -0.59586  -0.57468
 Alpha  occ. eigenvalues --   -0.56290  -0.55885  -0.54585  -0.53668  -0.52627
 Alpha  occ. eigenvalues --   -0.51928  -0.50448  -0.47722  -0.46802  -0.46020
 Alpha  occ. eigenvalues --   -0.45235  -0.44947  -0.43801  -0.35111  -0.34829
 Alpha  occ. eigenvalues --   -0.34103  -0.33970  -0.33425
 Alpha virt. eigenvalues --   -0.01360   0.03508   0.03747   0.04292   0.04594
 Alpha virt. eigenvalues --    0.04917   0.05161   0.05768   0.06011   0.07551
 Alpha virt. eigenvalues --    0.07766   0.08205   0.09020   0.09971   0.11452
 Alpha virt. eigenvalues --    0.11782   0.12055   0.12645   0.12927   0.14364
 Alpha virt. eigenvalues --    0.15041   0.15270   0.15979   0.16196   0.16845
 Alpha virt. eigenvalues --    0.16923   0.17187   0.17444   0.17798   0.18341
 Alpha virt. eigenvalues --    0.18420   0.18705   0.19235   0.19386   0.19970
 Alpha virt. eigenvalues --    0.20104   0.20373   0.20843   0.21220   0.21906
 Alpha virt. eigenvalues --    0.22122   0.22487   0.22712   0.23326   0.23920
 Alpha virt. eigenvalues --    0.24341   0.24446   0.25142   0.25867   0.26286
 Alpha virt. eigenvalues --    0.27047   0.27225   0.27681   0.27959   0.28542
 Alpha virt. eigenvalues --    0.29044   0.30212   0.30920   0.31078   0.31280
 Alpha virt. eigenvalues --    0.31724   0.32078   0.32777   0.33474   0.33783
 Alpha virt. eigenvalues --    0.34261   0.34691   0.34878   0.35696   0.36028
 Alpha virt. eigenvalues --    0.36898   0.37047   0.37655   0.38085   0.38365
 Alpha virt. eigenvalues --    0.38730   0.39396   0.41104   0.41532   0.42094
 Alpha virt. eigenvalues --    0.42374   0.42728   0.43665   0.44577   0.44749
 Alpha virt. eigenvalues --    0.44919   0.46161   0.47595   0.48948   0.49991
 Alpha virt. eigenvalues --    0.51767   0.56855   0.57828   0.58277   0.59155
 Alpha virt. eigenvalues --    0.61611   0.61968   0.62919   0.63333   0.63714
 Alpha virt. eigenvalues --    0.64063   0.64595   0.65227   0.65382   0.65923
 Alpha virt. eigenvalues --    0.66964   0.67480   0.68343   0.68707   0.69221
 Alpha virt. eigenvalues --    0.70492   0.71881   0.73206   0.73980   0.74639
 Alpha virt. eigenvalues --    0.75149   0.76041   0.77058   0.77289   0.78944
 Alpha virt. eigenvalues --    0.80128   0.81275   0.81618   0.82689   0.83147
 Alpha virt. eigenvalues --    0.84165   0.85672   0.86395   0.88278   0.88944
 Alpha virt. eigenvalues --    0.90329   0.91545   0.92648   0.93365   0.93982
 Alpha virt. eigenvalues --    0.94449   0.95114   0.95201   0.95499   0.96770
 Alpha virt. eigenvalues --    0.98238   0.98957   0.99947   1.01275   1.01898
 Alpha virt. eigenvalues --    1.02723   1.03422   1.04289   1.04883   1.06764
 Alpha virt. eigenvalues --    1.08959   1.09662   1.10630   1.11855   1.13100
 Alpha virt. eigenvalues --    1.14253   1.15497   1.16663   1.17352   1.18211
 Alpha virt. eigenvalues --    1.18460   1.21959   1.22631   1.24278   1.26460
 Alpha virt. eigenvalues --    1.28573   1.29293   1.32248   1.32339   1.36583
 Alpha virt. eigenvalues --    1.39538   1.43729   1.45416   1.47395   1.55049
 Alpha virt. eigenvalues --    1.57535   1.58181   1.58626   1.59562   1.60394
 Alpha virt. eigenvalues --    1.61471   1.62796   1.63981   1.65569   1.66449
 Alpha virt. eigenvalues --    1.68154   1.68352   1.68534   1.69303   1.72269
 Alpha virt. eigenvalues --    1.74642   1.75555   1.76542   1.76937   1.79399
 Alpha virt. eigenvalues --    1.81386   1.83281   1.85586   1.87659   1.88434
 Alpha virt. eigenvalues --    1.88962   1.91468   1.91827   1.93862   1.95161
 Alpha virt. eigenvalues --    1.95920   1.96513   1.99837   2.00759   2.01121
 Alpha virt. eigenvalues --    2.02017   2.02667   2.04619   2.04988   2.05590
 Alpha virt. eigenvalues --    2.06320   2.06765   2.08873   2.09367   2.11071
 Alpha virt. eigenvalues --    2.11664   2.15997   2.18191   2.19345   2.22678
 Alpha virt. eigenvalues --    2.24277   2.26893   2.28072   2.29739   2.32624
 Alpha virt. eigenvalues --    2.34196   2.42559   2.43319   2.48022   2.48405
 Alpha virt. eigenvalues --    2.49560   2.50646   2.50898   2.51576   2.53809
 Alpha virt. eigenvalues --    2.57619   2.60489   2.61087   2.67272   2.69631
 Alpha virt. eigenvalues --    2.75005   2.77106   2.78295   2.80246   2.81553
 Alpha virt. eigenvalues --    2.82820   2.84626   2.84731   2.86667   2.91097
 Alpha virt. eigenvalues --    2.91647   2.93224   2.93739   2.94540   2.95491
 Alpha virt. eigenvalues --    2.97122   2.98036   2.98735   2.99947   3.00304
 Alpha virt. eigenvalues --    3.00729   3.02022   3.02723   3.04689   3.05950
 Alpha virt. eigenvalues --    3.06730   3.09139   3.12812   3.13564   3.19976
 Alpha virt. eigenvalues --    3.20712   3.21734   3.23363   3.25333   3.25799
 Alpha virt. eigenvalues --    3.31688   3.32684   3.36869   3.38647   3.45351
 Alpha virt. eigenvalues --    3.49106   3.50755   3.51355   3.53925   3.67436
 Alpha virt. eigenvalues --    3.69411   3.71061   3.71664   3.74935   3.76930
 Alpha virt. eigenvalues --    3.83314   3.88624   3.93918   3.95919   4.32182
 Alpha virt. eigenvalues --    4.37397   4.37745   4.39650   4.40688   4.42260
 Alpha virt. eigenvalues --    4.46820   4.50796   4.53626   4.64095   4.94967
 Alpha virt. eigenvalues --    4.96061   5.19983   5.36117   5.86773  23.88079
 Alpha virt. eigenvalues --   23.96033  24.00269  24.16993  24.18012  24.24223
 Alpha virt. eigenvalues --   24.25303  24.30325  24.31397  24.33985  24.34531
 Alpha virt. eigenvalues --   24.43644  24.44740  50.16682
          Condensed to atoms (all electrons):
               1          2          3          4          5          6
     1  C   19.773578  -0.858903  -2.982840  -0.814870  -0.195170 -10.564100
     2  C   -0.858903  15.552136  -5.871753  -2.305488   1.217136  -1.582894
     3  C   -2.982840  -5.871753  12.033374   1.740788  -0.331661   3.889900
     4  C   -0.814870  -2.305488   1.740788   8.279157  -0.275144  -0.800411
     5  H   -0.195170   1.217136  -0.331661  -0.275144   0.954129  -0.253937
     6  C  -10.564100  -1.582894   3.889900  -0.800411  -0.253937  29.189175
     7  C   -0.104337   0.572336  -0.449956  -0.521560   0.104211  -0.657416
     8  H    0.009056  -0.014990   0.513500   0.027280  -0.003808   0.062891
     9  C   -0.868733   0.380464  -0.184841   0.425047  -0.025744   0.536683
    10  H    0.098453  -0.181264   0.073759   0.437735  -0.053630   0.003995
    11  C   -0.046635   0.776352  -1.950929   0.351930   0.338786  -9.616712
    12  O    0.268612  -0.230325   0.036978  -0.010562   0.001919  -0.105986
    13  H   -0.018672  -0.008849  -0.069865  -0.002938  -0.000254   0.004031
    14  H    0.026614   0.010271  -0.002890  -0.066720  -0.002288  -0.009610
    15  C    1.074359  -1.447934   0.206486   0.135237  -0.260644  -2.511843
    16  C    0.939701   1.374535  -1.142754  -0.264688   0.239200  -3.950084
    17  C   -1.266332   0.127364   0.150567  -0.222149  -0.146728   3.250182
    18  H    0.084592  -0.390012   0.126170   0.046624  -0.235308   0.188880
    19  C   -0.510437  -0.113703   0.221933   0.011671  -0.013399   1.858051
    20  H   -0.030647   0.020936  -0.037359  -0.001951  -0.000845  -0.106667
    21  C    0.336859   0.106881  -0.143024   0.001250   0.017896  -1.416205
    22  H   -0.004395  -0.005120   0.002491  -0.003797   0.003983   0.040422
    23  H   -0.005723  -0.002800   0.005041   0.000300  -0.000136   0.059431
    24  H    0.005176   0.001870  -0.003137   0.000467  -0.000056  -0.054673
               7          8          9         10         11         12
     1  C   -0.104337   0.009056  -0.868733   0.098453  -0.046635   0.268612
     2  C    0.572336  -0.014990   0.380464  -0.181264   0.776352  -0.230325
     3  C   -0.449956   0.513500  -0.184841   0.073759  -1.950929   0.036978
     4  C   -0.521560   0.027280   0.425047   0.437735   0.351930  -0.010562
     5  H    0.104211  -0.003808  -0.025744  -0.053630   0.338786   0.001919
     6  C   -0.657416   0.062891   0.536683   0.003995  -9.616712  -0.105986
     7  C    7.150698  -0.145550  -0.204146   0.001919   0.114835   0.095143
     8  H   -0.145550   0.451741   0.024309   0.000797  -0.091503  -0.016551
     9  C   -0.204146   0.024309   6.104947  -0.089945  -0.179600  -0.024538
    10  H    0.001919   0.000797  -0.089945   0.499007  -0.026699   0.000642
    11  C    0.114835  -0.091503  -0.179600  -0.026699  17.371788   0.075343
    12  O    0.095143  -0.016551  -0.024538   0.000642   0.075343   8.038814
    13  H    0.498196  -0.014221  -0.080752   0.001065   0.015869   0.003679
    14  H   -0.111951   0.001784   0.512763  -0.013924  -0.001358  -0.000506
    15  C    0.109879   0.006615  -0.151955   0.032118   0.650074   0.050709
    16  C   -0.001676  -0.020606   0.042066  -0.015387  -1.044069   0.101143
    17  C   -0.079658   0.005367   0.072425  -0.003164  -1.353465  -0.058322
    18  H   -0.011383  -0.000612  -0.000955   0.015142  -0.263227  -0.009767
    19  C   -0.003959  -0.000325   0.010790  -0.001003  -0.568791  -0.042126
    20  H    0.001850  -0.001223  -0.001035  -0.000045   0.133204  -0.009210
    21  C    0.007963  -0.000752  -0.009053   0.001246  -0.149618   0.035078
    22  H   -0.000687  -0.000077   0.000814  -0.000344   0.004810  -0.000541
    23  H   -0.000195   0.000019   0.000234  -0.000033   0.002565  -0.000685
    24  H    0.000241  -0.000040  -0.000257   0.000053   0.038074   0.000753
              13         14         15         16         17         18
     1  C   -0.018672   0.026614   1.074359   0.939701  -1.266332   0.084592
     2  C   -0.008849   0.010271  -1.447934   1.374535   0.127364  -0.390012
     3  C   -0.069865  -0.002890   0.206486  -1.142754   0.150567   0.126170
     4  C   -0.002938  -0.066720   0.135237  -0.264688  -0.222149   0.046624
     5  H   -0.000254  -0.002288  -0.260644   0.239200  -0.146728  -0.235308
     6  C    0.004031  -0.009610  -2.511843  -3.950084   3.250182   0.188880
     7  C    0.498196  -0.111951   0.109879  -0.001676  -0.079658  -0.011383
     8  H   -0.014221   0.001784   0.006615  -0.020606   0.005367  -0.000612
     9  C   -0.080752   0.512763  -0.151955   0.042066   0.072425  -0.000955
    10  H    0.001065  -0.013924   0.032118  -0.015387  -0.003164   0.015142
    11  C    0.015869  -0.001358   0.650074  -1.044069  -1.353465  -0.263227
    12  O    0.003679  -0.000506   0.050709   0.101143  -0.058322  -0.009767
    13  H    0.483018  -0.016452   0.000306   0.001162  -0.002040   0.000776
    14  H   -0.016452   0.498981  -0.006506   0.001855   0.001553  -0.000384
    15  C    0.000306  -0.006506  15.303113  -3.826342  -3.778914   0.587883
    16  C    0.001162   0.001855  -3.826342  13.789848  -0.081667  -0.171480
    17  C   -0.002040   0.001553  -3.778914  -0.081667   9.095205   0.101687
    18  H    0.000776  -0.000384   0.587883  -0.171480   0.101687   0.798921
    19  C   -0.000296   0.000138  -0.738337  -1.167240   0.734786   0.059602
    20  H    0.000092  -0.000048   0.067414   0.393848  -0.007775  -0.000733
    21  C    0.000150  -0.000099   1.086445   0.866749  -0.638688  -0.077309
    22  H   -0.000010   0.000017  -0.131006  -0.005224   0.497010  -0.017909
    23  H   -0.000002   0.000008  -0.044656  -0.113845   0.045104   0.001806
    24  H    0.000005  -0.000007   0.058565   0.006519  -0.111336  -0.003675
              19         20         21         22         23         24
     1  C   -0.510437  -0.030647   0.336859  -0.004395  -0.005723   0.005176
     2  C   -0.113703   0.020936   0.106881  -0.005120  -0.002800   0.001870
     3  C    0.221933  -0.037359  -0.143024   0.002491   0.005041  -0.003137
     4  C    0.011671  -0.001951   0.001250  -0.003797   0.000300   0.000467
     5  H   -0.013399  -0.000845   0.017896   0.003983  -0.000136  -0.000056
     6  C    1.858051  -0.106667  -1.416205   0.040422   0.059431  -0.054673
     7  C   -0.003959   0.001850   0.007963  -0.000687  -0.000195   0.000241
     8  H   -0.000325  -0.001223  -0.000752  -0.000077   0.000019  -0.000040
     9  C    0.010790  -0.001035  -0.009053   0.000814   0.000234  -0.000257
    10  H   -0.001003  -0.000045   0.001246  -0.000344  -0.000033   0.000053
    11  C   -0.568791   0.133204  -0.149618   0.004810   0.002565   0.038074
    12  O   -0.042126  -0.009210   0.035078  -0.000541  -0.000685   0.000753
    13  H   -0.000296   0.000092   0.000150  -0.000010  -0.000002   0.000005
    14  H    0.000138  -0.000048  -0.000099   0.000017   0.000008  -0.000007
    15  C   -0.738337   0.067414   1.086445  -0.131006  -0.044656   0.058565
    16  C   -1.167240   0.393848   0.866749  -0.005224  -0.113845   0.006519
    17  C    0.734786  -0.007775  -0.638688   0.497010   0.045104  -0.111336
    18  H    0.059602  -0.000733  -0.077309  -0.017909   0.001806  -0.003675
    19  C    6.895555  -0.112435  -0.577549   0.026240   0.535452  -0.091780
    20  H   -0.112435   0.459018   0.026838   0.000000  -0.016130   0.001798
    21  C   -0.577549   0.026838   6.413989  -0.078488  -0.134592   0.501201
    22  H    0.026240   0.000000  -0.078488   0.488824   0.001207  -0.013044
    23  H    0.535452  -0.016130  -0.134592   0.001207   0.495260  -0.017489
    24  H   -0.091780   0.001798   0.501201  -0.013044  -0.017489   0.490018
 Mulliken charges:
               1
     1  C    1.654793
     2  C   -1.126245
     3  C    0.170025
     4  C   -0.167208
     5  H   -0.078507
     6  C   -1.453105
     7  C   -0.364797
     8  H    0.206901
     9  C   -0.288988
    10  H    0.219508
    11  C    1.418975
    12  O   -0.199694
    13  H    0.206004
    14  H    0.178759
    15  C   -0.471065
    16  C    0.048439
    17  C   -0.331010
    18  H    0.170672
    19  C   -0.412839
    20  H    0.221104
    21  C   -0.177168
    22  H    0.194827
    23  H    0.189862
    24  H    0.190757
 Sum of Mulliken charges =  -0.00000
 Mulliken charges with hydrogens summed into heavy atoms:
               1
     1  C    1.654793
     2  C   -1.204752
     3  C    0.376926
     4  C    0.052300
     6  C   -1.453105
     7  C   -0.158793
     9  C   -0.110229
    11  C    1.418975
    12  O   -0.199694
    15  C   -0.300393
    16  C    0.269543
    17  C   -0.136183
    19  C   -0.222977
    21  C    0.013590
 Electronic spatial extent (au):  <R**2>=           3044.1715
 Charge=             -0.0000 electrons
 Dipole moment (field-independent basis, Debye):
    X=             -0.0551    Y=             -3.1379    Z=              0.8135  Tot=              3.2421
 Quadrupole moment (field-independent basis, Debye-Ang):
   XX=            -63.4573   YY=            -79.4835   ZZ=            -84.8893
   XY=             -0.4693   XZ=              0.4789   YZ=              3.9828
 Traceless Quadrupole moment (field-independent basis, Debye-Ang):
   XX=             12.4860   YY=             -3.5401   ZZ=             -8.9459
   XY=             -0.4693   XZ=              0.4789   YZ=              3.9828
 Octapole moment (field-independent basis, Debye-Ang**2):
  XXX=             -2.1074  YYY=            -23.7044  ZZZ=             -2.6936  XYY=             -1.6487
  XXY=             -0.3821  XXZ=             15.2057  XZZ=              2.0499  YZZ=              4.0757
  YYZ=              4.8281  XYZ=              6.6928
 Hexadecapole moment (field-independent basis, Debye-Ang**3):
 XXXX=          -2818.3779 YYYY=           -789.1068 ZZZZ=           -145.1674 XXXY=            -12.5511
 XXXZ=             12.4117 YYYX=             -0.7206 YYYZ=             21.2568 ZZZX=              2.1345
 ZZZY=             -1.6592 XXYY=           -595.9248 XXZZ=           -610.9225 YYZZ=           -161.0759
 XXYZ=              9.7441 YYXZ=             -3.7852 ZZXY=              2.1880
 N-N= 7.855040257624D+02 E-N=-2.913211868060D+03  KE= 5.764871717340D+02
 No NMR shielding tensors so no spin-rotation constants.
 Leave Link  601 at Tue Nov 22 15:01:41 2022, MaxMem= 16106127360 cpu:               5.7 elap:               0.2
 (Enter /opt/ap/G16/B01/g16/l9999.exe)
 1\1\GINC-N13\SP\RwB97XD\6-311++G(d,p)\C13H10O1\ROOT\22-Nov-2022\0\\#P 
 wB97XD/6-311++G(d,p) scf=maxcycle=512\\_conf016.gjf nmol_natom 1_24\\0
 ,1\C\C,1,1.39746343\C,1,1.39996263,2,119.28066518\C,2,1.39288453,1,120
 .37436646,3,-0.51002981,0\H,2,0.95014703,1,119.82324024,3,179.45634896
 ,0\C,1,1.49653039,2,122.77761373,4,174.46828757,0\C,3,1.3870125,1,120.
 10017821,2,-0.37315804,0\H,3,0.9501092,1,119.95246451,2,179.5923884,0\
 C,7,1.38720039,3,120.16568731,1,1.0745106,0\H,4,0.95011919,2,120.18755
 644,1,-179.31195299,0\C,6,1.49516902,1,120.70972921,2,-10.,0\O,6,1.221
 50059,1,119.67074267,2,170.,0\H,7,0.94956661,3,119.91274826,1,-178.886
 36029,0\H,9,0.94992259,7,119.76037934,3,179.10763853,0\C,11,1.39713972
 ,6,122.62585705,1,30.97749054,0\C,11,1.40039562,6,117.74753532,1,-153.
 15467779,0\C,15,1.39455701,11,119.80747484,6,175.4763048,0\H,15,0.9496
 2854,11,120.10535689,6,-4.50802339,0\C,16,1.38466431,11,120.4617377,6,
 -176.88197195,0\H,16,0.9497464,11,119.75779177,6,3.14699974,0\C,17,1.3
 9088945,15,120.3475273,11,0.7973643,0\H,17,0.94984298,15,119.8156451,1
 1,-179.16676483,0\H,19,0.94974749,16,119.98566335,11,-178.40987425,0\H
 ,21,0.94938585,17,120.0744529,15,179.91636093,0\\Version=ES64L-G16RevB
 .01\State=1-A\HF=-576.4054324\RMSD=7.634e-09\Dipole=-0.0146478,-0.2693
 544,1.2466929\Quadrupole=8.9051662,-6.0002479,-2.9049183,2.4060318,-0.
 0891045,3.1650772\PG=C01 [X(C13H10O1)]\\@


 Statistics are no substitute for judgment.
                            -- Henry Clay
 Job cpu time:       0 days  0 hours 22 minutes 25.7 seconds.
 Elapsed time:       0 days  0 hours  0 minutes 42.6 seconds.
 File lengths (MBytes):  RWF=     78 Int=      0 D2E=      0 Chk=      9 Scr=      1
 Normal termination of Gaussian 16 at Tue Nov 22 15:01:41 2022.
