 Entering Gaussian System, Link 0=g16
 Input=_conf004.gjf
 Output=_conf004.log
 Initial command:
 /opt/ap/G16/B01/g16/l1.exe "/tmp2/scr/Gau-26516.inp" -scrdir="/tmp2/scr/"
 Entering Link 1 = /opt/ap/G16/B01/g16/l1.exe PID=     26517.
  
 Copyright (c) 1988-2017, Gaussian, Inc.  All Rights Reserved.
  
 This is part of the Gaussian(R) 16 program.  It is based on
 the Gaussian(R) 09 system (copyright 2009, Gaussian, Inc.),
 the Gaussian(R) 03 system (copyright 2003, Gaussian, Inc.),
 the Gaussian(R) 98 system (copyright 1998, Gaussian, Inc.),
 the Gaussian(R) 94 system (copyright 1995, Gaussian, Inc.),
 the Gaussian 92(TM) system (copyright 1992, Gaussian, Inc.),
 the Gaussian 90(TM) system (copyright 1990, Gaussian, Inc.),
 the Gaussian 88(TM) system (copyright 1988, Gaussian, Inc.),
 the Gaussian 86(TM) system (copyright 1986, Carnegie Mellon
 University), and the Gaussian 82(TM) system (copyright 1983,
 Carnegie Mellon University). Gaussian is a federally registered
 trademark of Gaussian, Inc.
  
 This software contains proprietary and confidential information,
 including trade secrets, belonging to Gaussian, Inc.
  
 This software is provided under written license and may be
 used, copied, transmitted, or stored only in accord with that
 written license.
  
 The following legend is applicable only to US Government
 contracts under FAR:
  
                    RESTRICTED RIGHTS LEGEND
  
 Use, reproduction and disclosure by the US Government is
 subject to restrictions as set forth in subparagraphs (a)
 and (c) of the Commercial Computer Software - Restricted
 Rights clause in FAR 52.227-19.
  
 Gaussian, Inc.
 340 Quinnipiac St., Bldg. 40, Wallingford CT 06492
  
  
 ---------------------------------------------------------------
 Warning -- This program may not be used in any manner that
 competes with the business of Gaussian, Inc. or will provide
 assistance to any competitor of Gaussian, Inc.  The licensee
 of this program is prohibited from giving any competitor of
 Gaussian, Inc. access to this program.  By using this program,
 the user acknowledges that Gaussian, Inc. is engaged in the
 business of creating and licensing software in the field of
 computational chemistry and represents and warrants to the
 licensee that it is not a competitor of Gaussian, Inc. and that
 it will not use this program in any manner prohibited above.
 ---------------------------------------------------------------
  

 Cite this work as:
 Gaussian 16, Revision B.01,
 M. J. Frisch, G. W. Trucks, H. B. Schlegel, G. E. Scuseria, 
 M. A. Robb, J. R. Cheeseman, G. Scalmani, V. Barone, 
 G. A. Petersson, H. Nakatsuji, X. Li, M. Caricato, A. V. Marenich, 
 J. Bloino, B. G. Janesko, R. Gomperts, B. Mennucci, H. P. Hratchian, 
 J. V. Ortiz, A. F. Izmaylov, J. L. Sonnenberg, D. Williams-Young, 
 F. Ding, F. Lipparini, F. Egidi, J. Goings, B. Peng, A. Petrone, 
 T. Henderson, D. Ranasinghe, V. G. Zakrzewski, J. Gao, N. Rega, 
 G. Zheng, W. Liang, M. Hada, M. Ehara, K. Toyota, R. Fukuda, 
 J. Hasegawa, M. Ishida, T. Nakajima, Y. Honda, O. Kitao, H. Nakai, 
 T. Vreven, K. Throssell, J. A. Montgomery, Jr., J. E. Peralta, 
 F. Ogliaro, M. J. Bearpark, J. J. Heyd, E. N. Brothers, K. N. Kudin, 
 V. N. Staroverov, T. A. Keith, R. Kobayashi, J. Normand, 
 K. Raghavachari, A. P. Rendell, J. C. Burant, S. S. Iyengar, 
 J. Tomasi, M. Cossi, J. M. Millam, M. Klene, C. Adamo, R. Cammi, 
 J. W. Ochterski, R. L. Martin, K. Morokuma, O. Farkas, 
 J. B. Foresman, and D. J. Fox, Gaussian, Inc., Wallingford CT, 2016.
 
 ******************************************
 Gaussian 16:  ES64L-G16RevB.01 20-Dec-2017
                22-Nov-2022 
 ******************************************
 %nprocshared=32
 Will use up to   32 processors via shared memory.
 %mem=120GB
 %chk=_conf004.chk
 ----------------------------------------
 #P wB97XD/6-311++G(d,p) scf=maxcycle=512
 ----------------------------------------
 1/38=1,172=1/1;
 2/12=2,17=6,18=5,40=1/2;
 3/5=4,6=6,7=1111,11=2,25=1,30=1,74=-58/1,2,3;
 4//1;
 5/5=2,7=512,38=5/2;
 6/7=2,8=2,9=2,10=2,28=1/1;
 99/5=1,9=1/99;
 Leave Link    1 at Tue Nov 22 14:58:55 2022, MaxMem= 16106127360 cpu:               1.5 elap:               0.1
 (Enter /opt/ap/G16/B01/g16/l101.exe)
 ----------------------------
 _conf004.gjf nmol_natom 1_24
 ----------------------------
 Symbolic Z-matrix:
 Charge =  0 Multiplicity = 1
 C
 C                    1     1.39746 
 C                    1     1.39996  2     119.28067 
 C                    2     1.39288  1     120.37437  3    -0.51003  0
 H                    2     0.95015  1     119.82324  3     179.45635  0
 C                    1     1.49653  2     122.77761  4     174.46829  0
 C                    3     1.38701  1     120.10018  2    -0.37316  0
 H                    3     0.95011  1     119.95246  2     179.59239  0
 C                    7     1.3872   3     120.16569  1     1.07451  0
 H                    4     0.95012  2     120.18756  1    -179.31195  0
 C                    6     1.49517  1     120.70973  2    -70.      0
 O                    6     1.2215   1     119.67074  2     110.     0
 H                    7     0.94957  3     119.91275  1    -178.88636  0
 H                    9     0.94992  7     119.76038  3     179.10764  0
 C                    11    1.39714  6     122.62586  1     30.97749  0
 C                    11    1.4004   6     117.74754  1    -153.15468  0
 C                    15    1.39456  11    119.80747  6     175.4763  0
 H                    15    0.94963  11    120.10536  6    -4.50802  0
 C                    16    1.38466  11    120.46174  6    -176.88197  0
 H                    16    0.94975  11    119.75779  6     3.147    0
 C                    17    1.39089  15    120.34753  11    0.79736  0
 H                    17    0.94984  15    119.81565  11   -179.16676  0
 H                    19    0.94975  16    119.98566  11   -178.40987  0
 H                    21    0.94939  17    120.07445  15    179.91636  0
 
 ITRead=  0  0  0  0  0  0  0  0  0  0  0  0  0  0  0  0  0  0  0  0
 ITRead=  0  0  0  0
 MicOpt= -1 -1 -1 -1 -1 -1 -1 -1 -1 -1 -1 -1 -1 -1 -1 -1 -1 -1 -1 -1
 MicOpt= -1 -1 -1 -1
 NAtoms=     24 NQM=       24 NQMF=       0 NMMI=      0 NMMIF=      0
                NMic=       0 NMicF=      0.
                    Isotopes and Nuclear Properties:
 (Nuclear quadrupole moments (NQMom) in fm**2, nuclear magnetic moments (NMagM)
  in nuclear magnetons)

  Atom         1           2           3           4           5           6           7           8           9          10
 IAtWgt=          12          12          12          12           1          12          12           1          12           1
 AtmWgt=  12.0000000  12.0000000  12.0000000  12.0000000   1.0078250  12.0000000  12.0000000   1.0078250  12.0000000   1.0078250
 NucSpn=           0           0           0           0           1           0           0           1           0           1
 AtZEff=  -0.0000000  -0.0000000  -0.0000000  -0.0000000  -0.0000000  -0.0000000  -0.0000000  -0.0000000  -0.0000000  -0.0000000
 NQMom=    0.0000000   0.0000000   0.0000000   0.0000000   0.0000000   0.0000000   0.0000000   0.0000000   0.0000000   0.0000000
 NMagM=    0.0000000   0.0000000   0.0000000   0.0000000   2.7928460   0.0000000   0.0000000   2.7928460   0.0000000   2.7928460
 AtZNuc=   6.0000000   6.0000000   6.0000000   6.0000000   1.0000000   6.0000000   6.0000000   1.0000000   6.0000000   1.0000000

  Atom        11          12          13          14          15          16          17          18          19          20
 IAtWgt=          12          16           1           1          12          12          12           1          12           1
 AtmWgt=  12.0000000  15.9949146   1.0078250   1.0078250  12.0000000  12.0000000  12.0000000   1.0078250  12.0000000   1.0078250
 NucSpn=           0           0           1           1           0           0           0           1           0           1
 AtZEff=  -0.0000000  -0.0000000  -0.0000000  -0.0000000  -0.0000000  -0.0000000  -0.0000000  -0.0000000  -0.0000000  -0.0000000
 NQMom=    0.0000000   0.0000000   0.0000000   0.0000000   0.0000000   0.0000000   0.0000000   0.0000000   0.0000000   0.0000000
 NMagM=    0.0000000   0.0000000   2.7928460   2.7928460   0.0000000   0.0000000   0.0000000   2.7928460   0.0000000   2.7928460
 AtZNuc=   6.0000000   8.0000000   1.0000000   1.0000000   6.0000000   6.0000000   6.0000000   1.0000000   6.0000000   1.0000000

  Atom        21          22          23          24
 IAtWgt=          12           1           1           1
 AtmWgt=  12.0000000   1.0078250   1.0078250   1.0078250
 NucSpn=           0           1           1           1
 AtZEff=  -0.0000000  -0.0000000  -0.0000000  -0.0000000
 NQMom=    0.0000000   0.0000000   0.0000000   0.0000000
 NMagM=    0.0000000   2.7928460   2.7928460   2.7928460
 AtZNuc=   6.0000000   1.0000000   1.0000000   1.0000000
 Leave Link  101 at Tue Nov 22 14:58:55 2022, MaxMem= 16106127360 cpu:               5.5 elap:               0.2
 (Enter /opt/ap/G16/B01/g16/l202.exe)
                          Input orientation:                          
 ---------------------------------------------------------------------
 Center     Atomic      Atomic             Coordinates (Angstroms)
 Number     Number       Type             X           Y           Z
 ---------------------------------------------------------------------
      1          6           0        0.000000    0.000000    0.000000
      2          6           0        0.000000    0.000000    1.397463
      3          6           0        1.221096    0.000000   -0.684705
      4          6           0        1.201650   -0.010697    2.101772
      5          1           0       -0.824276    0.007821    1.869996
      6          6           0       -1.253421   -0.110138   -0.810191
      7          6           0        2.414707    0.007815    0.021719
      8          1           0        1.232246   -0.005856   -1.634731
      9          6           0        2.403895   -0.006831    1.408800
     10          1           0        1.198494   -0.020531    3.051836
     11          6           0       -2.024321   -1.390502   -0.853910
     12          8           0       -1.651388    0.856071   -1.442746
     13          1           0        3.241298    0.023792   -0.445367
     14          1           0        3.224827   -0.014217    1.886678
     15          6           0       -2.063941   -2.282971    0.220301
     16          6           0       -2.798664   -1.646780   -1.992252
     17          6           0       -2.876909   -3.414006    0.152248
     18          1           0       -1.539027   -2.119879    0.994679
     19          6           0       -3.585125   -2.784106   -2.064795
     20          1           0       -2.783846   -1.036325   -2.719674
     21          6           0       -3.635567   -3.666691   -0.985804
     22          1           0       -2.913002   -4.014594    0.887227
     23          1           0       -4.090107   -2.962783   -2.849070
     24          1           0       -4.186787   -4.438489   -1.028440
 ---------------------------------------------------------------------
                    Distance matrix (angstroms):
                    1          2          3          4          5
     1  C    0.000000
     2  C    1.397463   0.000000
     3  C    1.399963   2.413814   0.000000
     4  C    2.421058   1.392885   2.786566   0.000000
     5  H    2.043619   0.950147   3.272630   2.039225   0.000000
     6  C    1.496530   2.541049   2.480142   3.810091   2.716889
     7  C    2.414817   2.779127   1.387013   2.408002   3.729228
     8  H    2.047146   3.273021   0.950109   3.736632   4.063567
     9  C    2.786301   2.403931   2.404542   1.387667   3.260982
    10  H    3.278797   2.042977   3.736665   0.950119   2.342893
    11  C    2.600103   3.331674   3.534806   4.587680   3.288629
    12  O    2.354029   3.395103   3.091706   4.631924   3.518224
    13  H    3.271839   3.728619   2.034469   3.263323   4.678681
    14  H    3.736210   3.261755   3.259932   2.034583   4.049198
    15  C    3.085505   3.295075   4.101519   4.400823   3.083179
    16  C    3.809655   4.694100   4.536522   5.953177   4.642507
    17  C    4.467127   4.634933   5.399034   5.658427   4.344291
    18  H    2.802120   2.650420   3.864258   3.631200   2.409182
    19  C    4.986757   5.708905   5.723255   6.925698   5.558752
    20  H    4.027455   5.076868   4.610274   6.338962   5.098552
    21  C    5.256784   5.686997   6.092820   6.804269   5.437002
    22  H    5.038821   4.986269   5.973164   5.868276   4.637719
    23  H    5.798643   6.598493   6.455341   7.824854   6.462177
    24  H    6.187654   6.566154   7.004536   7.644529   6.283079
                    6          7          8          9         10
     6  C    0.000000
     7  C    3.763130   0.000000
     8  H    2.620930   2.035246   0.000000
     9  C    4.279082   1.387200   3.261263   0.000000
    10  H    4.575496   3.265208   4.686711   2.037829   0.000000
    11  C    1.495169   4.735714   3.623831   5.161734   5.245780
    12  O    1.221501   4.404239   3.015812   5.032020   5.393655
    13  H    4.511488   0.949567   2.334899   2.034727   4.050363
    14  H    5.228480   2.033434   4.046081   0.949923   2.337447
    15  C    2.537727   5.034424   4.414888   5.153144   4.876443
    16  C    2.479176   5.828636   4.366770   6.428312   6.638130
    17  C    3.804937   6.302943   5.629736   6.408951   6.044186
    18  H    2.716281   4.594099   4.366101   4.492560   4.016612
    19  C    3.763108   6.938757   5.577695   7.459723   7.529958
    20  H    2.616515   5.969122   4.285786   6.709457   7.085280
    21  C    4.284219   7.150029   6.125228   7.456795   7.277716
    22  H    4.569487   6.731520   6.293911   6.678592   6.127190
    23  H    4.510144   7.705744   6.208500   8.308981   8.452623
    24  H    5.233249   8.028211   7.027214   8.307636   8.072685
                   11         12         13         14         15
    11  C    0.000000
    12  O    2.352211   0.000000
    13  H    5.467529   5.062196   0.000000
    14  H    6.079354   5.968244   2.332413   0.000000
    15  C    1.397140   3.576242   5.823214   5.991254   0.000000
    16  C    1.400396   2.807573   6.454828   7.348048   2.416598
    17  C    2.415332   4.720113   7.043298   7.197082   1.394557
    18  H    2.045674   3.848369   5.433283   5.284296   0.949629
    19  C    2.417537   4.168594   7.556910   8.346369   2.790484
    20  H    2.045335   2.548367   6.526766   7.639852   3.273506
    21  C    2.791872   4.959954   7.823235   8.285936   2.416481
    22  H    3.272181   5.544711   7.480626   7.394245   2.040640
    23  H    3.274172   4.744339   8.273265   9.199436   3.740125
    24  H    3.741249   5.884919   8.684950   9.110660   3.272933
                   16         17         18         19         20
    16  C    0.000000
    17  C    2.779944   0.000000
    18  H    3.276013   2.043131   0.000000
    19  C    1.384664   2.411145   3.740066   0.000000
    20  H    0.949746   3.729607   4.064490   2.031171   0.000000
    21  C    2.406945   1.390889   3.272678   1.394891   3.263520
    22  H    3.729747   0.949843   2.342925   3.268069   4.679370
    23  H    2.033181   3.268541   4.689659   0.949747   2.331159
    24  H    3.263351   2.039453   4.059507   2.042795   4.050092
                   21         22         23         24
    21  C    0.000000
    22  H    2.037493   0.000000
    23  H    2.043001   4.056081   0.000000
    24  H    0.949386   2.339229   2.345581   0.000000
 Stoichiometry    C13H10O
 Framework group  C1[X(C13H10O)]
 Deg. of freedom    66
 Full point group                 C1      NOp   1
 Largest Abelian subgroup         C1      NOp   1
 Largest concise Abelian subgroup C1      NOp   1
                         Standard orientation:                         
 ---------------------------------------------------------------------
 Center     Atomic      Atomic             Coordinates (Angstroms)
 Number     Number       Type             X           Y           Z
 ---------------------------------------------------------------------
      1          6           0       -1.310578    0.420403   -0.241668
      2          6           0       -1.791953   -0.668029   -0.974128
      3          6           0       -2.062292    0.908136    0.833943
      4          6           0       -3.001304   -1.268119   -0.631363
      5          1           0       -1.291813   -1.000417   -1.710442
      6          6           0        0.034720    1.029239   -0.484762
      7          6           0       -3.274696    0.318288    1.159459
      8          1           0       -1.741269    1.643992    1.342044
      9          6           0       -3.736768   -0.770823    0.435131
     10          1           0       -3.321326   -2.014127   -1.125108
     11          6           0        1.283619    0.290437   -0.124275
     12          8           0        0.113863    2.141689   -0.983016
     13          1           0       -3.789929    0.661247    1.879592
     14          1           0       -4.561793   -1.178278    0.671069
     15          6           0        1.371090   -1.103508   -0.159856
     16          6           0        2.424163    1.045488    0.176002
     17          6           0        2.591207   -1.728296    0.096550
     18          1           0        0.602069   -1.624117   -0.358270
     19          6           0        3.627388    0.419269    0.454202
     20          1           0        2.371736    1.993693    0.189281
     21          6           0        3.717252   -0.971807    0.403663
     22          1           0        2.653533   -2.675415    0.060733
     23          1           0        4.391128    0.937086    0.679119
     24          1           0        4.545670   -1.401244    0.578712
 ---------------------------------------------------------------------
 Rotational constants (GHZ):           1.6110053           0.4161031           0.3682721
 Leave Link  202 at Tue Nov 22 14:58:55 2022, MaxMem= 16106127360 cpu:               0.2 elap:               0.0
 (Enter /opt/ap/G16/B01/g16/l301.exe)
 Standard basis: 6-311++G(d,p) (5D, 7F)
 Ernie: Thresh=  0.10000D-02 Tol=  0.10000D-05 Strict=F.
 There are   392 symmetry adapted cartesian basis functions of A   symmetry.
 There are   378 symmetry adapted basis functions of A   symmetry.
   378 basis functions,   594 primitive gaussians,   392 cartesian basis functions
    48 alpha electrons       48 beta electrons
       nuclear repulsion energy       783.0477680831 Hartrees.
 IExCor= 4639 DFT=T Ex+Corr=wB97XD ExCW=0 ScaHFX=  1.000000
 ScaDFX=  1.000000  1.000000  1.000000  1.000000 ScalE2=  1.000000  1.000000
 IRadAn=      5 IRanWt=     -1 IRanGd=            0 ICorTp=0 IEmpDi=121
 HFx  wShort=  0.000000 wLong=  0.200000 cFull=  0.222036 cShort=  0.000000 cLong=  0.777964
 DFx  wShort=  0.000000 wLong=  0.200000 cFull=  0.000000 cShort=  0.000000 cLong=  1.000000
 NAtoms=   24 NActive=   24 NUniq=   24 SFac= 1.00D+00 NAtFMM=   60 NAOKFM=F Big=F
 Integral buffers will be    131072 words long.
 Raffenetti 2 integral format.
 Two-electron integral symmetry is turned on.
 R6Disp:  Grimme-D2 Dispersion energy=       -0.0141663019 Hartrees.
 Nuclear repulsion after empirical dispersion term =      783.0336017812 Hartrees.
 Leave Link  301 at Tue Nov 22 14:58:55 2022, MaxMem= 16106127360 cpu:               1.3 elap:               0.0
 (Enter /opt/ap/G16/B01/g16/l302.exe)
 NPDir=0 NMtPBC=     1 NCelOv=     1 NCel=       1 NClECP=     1 NCelD=      1
         NCelK=      1 NCelE2=     1 NClLst=     1 CellRange=     0.0.
 One-electron integrals computed using PRISM.
 One-electron integral symmetry used in STVInt
 NBasis=   378 RedAO= T EigKep=  1.74D-06  NBF=   378
 NBsUse=   376 1.00D-06 EigRej=  8.37D-07 NBFU=   376
 Precomputing XC quadrature grid using
 IXCGrd= 4 IRadAn=           5 IRanWt=          -1 IRanGd=           0 AccXCQ= 0.00D+00.
 Generated NRdTot=       0 NPtTot=           0 NUsed=           0 NTot=          32
 NSgBfM=   392   392   392   392   392 MxSgAt=    24 MxSgA2=    24.
 Leave Link  302 at Tue Nov 22 14:58:56 2022, MaxMem= 16106127360 cpu:               8.3 elap:               0.3
 (Enter /opt/ap/G16/B01/g16/l303.exe)
 DipDrv:  MaxL=1.
 Leave Link  303 at Tue Nov 22 14:58:56 2022, MaxMem= 16106127360 cpu:               1.6 elap:               0.1
 (Enter /opt/ap/G16/B01/g16/l401.exe)
 ExpMin= 3.60D-02 ExpMax= 8.59D+03 ExpMxC= 1.30D+03 IAcc=3 IRadAn=         5 AccDes= 0.00D+00
 Harris functional with IExCor= 4639 and IRadAn=       5 diagonalized for initial guess.
 HarFok:  IExCor= 4639 AccDes= 0.00D+00 IRadAn=         5 IDoV= 1 UseB2=F ITyADJ=14
 ICtDFT=  3500011 ScaDFX=  1.000000  1.000000  1.000000  1.000000
 FoFCou: FMM=F IPFlag=           0 FMFlag=      100000 FMFlg1=           0
         NFxFlg=           0 DoJE=T BraDBF=F KetDBF=T FulRan=T
         wScrn=  0.000000 ICntrl=       500 IOpCl=  0 I1Cent=   200000004 NGrid=           0
         NMat0=    1 NMatS0=      1 NMatT0=    0 NMatD0=    1 NMtDS0=    0 NMtDT0=    0
 Petite list used in FoFCou.
 Harris En= -550.901825402621    
 JPrj=0 DoOrth=F DoCkMO=F.
 Leave Link  401 at Tue Nov 22 14:58:56 2022, MaxMem= 16106127360 cpu:              22.9 elap:               0.7
 (Enter /opt/ap/G16/B01/g16/l502.exe)
 Integral symmetry usage will be decided dynamically.
 Closed shell SCF:
 Using DIIS extrapolation, IDIIS=  1040.
 NGot= 16106127360 LenX= 16105803762 LenY= 16105649657
 Requested convergence on RMS density matrix=1.00D-08 within 512 cycles.
 Requested convergence on MAX density matrix=1.00D-06.
 Requested convergence on             energy=1.00D-06.
 No special actions if energy rises.
 Fock matrices will be formed incrementally for  20 cycles.

 Cycle   1  Pass 1  IDiag  1:
 FoFJK:  IHMeth= 1 ICntrl=       0 DoSepK=T KAlg= 0 I1Cent=           0 FoldK=F
 IRaf=         1 NMat=       1 IRICut=       1 DoRegI=T DoRafI=F ISym2E= 0 IDoP0=0 IntGTp=1.
 FoFCou: FMM=F IPFlag=           0 FMFlag=      100000 FMFlg1=           0
         NFxFlg=           0 DoJE=T BraDBF=F KetDBF=F FulRan=T
         wScrn=  0.000000 ICntrl=       500 IOpCl=  0 I1Cent=           0 NGrid=           0
         NMat0=    1 NMatS0=      1 NMatT0=    0 NMatD0=    1 NMtDS0=    0 NMtDT0=    0
 Symmetry not used in FoFCou.
 E= -576.255295744107    
 DIIS: error= 4.70D-02 at cycle   1 NSaved=   1.
 NSaved= 1 IEnMin= 1 EnMin= -576.255295744107     IErMin= 1 ErrMin= 4.70D-02
 ErrMax= 4.70D-02  0.00D+00 EMaxC= 1.00D-01 BMatC= 1.20D+00 BMatP= 1.20D+00
 IDIUse=3 WtCom= 5.30D-01 WtEn= 4.70D-01
 Coeff-Com:  0.100D+01
 Coeff-En:   0.100D+01
 Coeff:      0.100D+01
 Gap=     0.418 Goal=   None    Shift=    0.000
 GapD=    0.418 DampG=2.000 DampE=0.500 DampFc=1.0000 IDamp=-1.
 RMSDP=2.41D-02 MaxDP=4.05D+00              OVMax= 1.20D-01

 Cycle   2  Pass 1  IDiag  1:
 RMSU=  1.49D-02    CP:  7.54D-01
 E= -576.346268378308     Delta-E=       -0.090972634202 Rises=F Damp=F
 DIIS: error= 1.16D-02 at cycle   2 NSaved=   2.
 NSaved= 2 IEnMin= 2 EnMin= -576.346268378308     IErMin= 2 ErrMin= 1.16D-02
 ErrMax= 1.16D-02  0.00D+00 EMaxC= 1.00D-01 BMatC= 7.50D-02 BMatP= 1.20D+00
 IDIUse=3 WtCom= 8.84D-01 WtEn= 1.16D-01
 Coeff-Com:  0.126D+00 0.874D+00
 Coeff-En:   0.142D+00 0.858D+00
 Coeff:      0.128D+00 0.872D+00
 Gap=     0.438 Goal=   None    Shift=    0.000
 RMSDP=1.03D-02 MaxDP=1.23D+00 DE=-9.10D-02 OVMax= 1.45D-01

 Cycle   3  Pass 1  IDiag  1:
 RMSU=  5.89D-03    CP:  7.02D-01  5.06D-01
 E= -576.365052499997     Delta-E=       -0.018784121689 Rises=F Damp=F
 DIIS: error= 1.12D-02 at cycle   3 NSaved=   3.
 NSaved= 3 IEnMin= 3 EnMin= -576.365052499997     IErMin= 3 ErrMin= 1.12D-02
 ErrMax= 1.12D-02  0.00D+00 EMaxC= 1.00D-01 BMatC= 5.24D-02 BMatP= 7.50D-02
 IDIUse=3 WtCom= 8.88D-01 WtEn= 1.12D-01
 Coeff-Com:  0.237D-01 0.459D+00 0.517D+00
 Coeff-En:   0.000D+00 0.419D+00 0.581D+00
 Coeff:      0.210D-01 0.454D+00 0.525D+00
 Gap=     0.356 Goal=   None    Shift=    0.000
 RMSDP=4.27D-03 MaxDP=4.30D-01 DE=-1.88D-02 OVMax= 5.79D-02

 Cycle   4  Pass 1  IDiag  1:
 RMSU=  1.53D-03    CP:  6.84D-01  7.18D-01  6.52D-01
 E= -576.411696108951     Delta-E=       -0.046643608953 Rises=F Damp=F
 DIIS: error= 1.56D-03 at cycle   4 NSaved=   4.
 NSaved= 4 IEnMin= 4 EnMin= -576.411696108951     IErMin= 4 ErrMin= 1.56D-03
 ErrMax= 1.56D-03  0.00D+00 EMaxC= 1.00D-01 BMatC= 7.79D-04 BMatP= 5.24D-02
 IDIUse=3 WtCom= 9.84D-01 WtEn= 1.56D-02
 Coeff-Com:  0.913D-02 0.189D+00 0.236D+00 0.566D+00
 Coeff-En:   0.000D+00 0.000D+00 0.000D+00 0.100D+01
 Coeff:      0.899D-02 0.186D+00 0.233D+00 0.572D+00
 Gap=     0.325 Goal=   None    Shift=    0.000
 RMSDP=6.33D-04 MaxDP=5.05D-02 DE=-4.66D-02 OVMax= 6.22D-03

 Cycle   5  Pass 1  IDiag  1:
 RMSU=  4.49D-04    CP:  6.87D-01  7.42D-01  6.91D-01  9.85D-01
 E= -576.412252199539     Delta-E=       -0.000556090588 Rises=F Damp=F
 DIIS: error= 5.20D-04 at cycle   5 NSaved=   5.
 NSaved= 5 IEnMin= 5 EnMin= -576.412252199539     IErMin= 5 ErrMin= 5.20D-04
 ErrMax= 5.20D-04  0.00D+00 EMaxC= 1.00D-01 BMatC= 7.51D-05 BMatP= 7.79D-04
 IDIUse=3 WtCom= 9.95D-01 WtEn= 5.20D-03
 Coeff-Com: -0.555D-03-0.755D-02 0.192D-03 0.223D+00 0.785D+00
 Coeff-En:   0.000D+00 0.000D+00 0.000D+00 0.000D+00 0.100D+01
 Coeff:     -0.552D-03-0.751D-02 0.191D-03 0.222D+00 0.786D+00
 Gap=     0.327 Goal=   None    Shift=    0.000
 RMSDP=3.81D-04 MaxDP=4.72D-02 DE=-5.56D-04 OVMax= 2.55D-03

 Cycle   6  Pass 1  IDiag  1:
 RMSU=  2.10D-04    CP:  6.83D-01  7.44D-01  7.02D-01  1.10D+00  9.06D-01
 E= -576.412308421898     Delta-E=       -0.000056222359 Rises=F Damp=F
 DIIS: error= 2.18D-04 at cycle   6 NSaved=   6.
 NSaved= 6 IEnMin= 6 EnMin= -576.412308421898     IErMin= 6 ErrMin= 2.18D-04
 ErrMax= 2.18D-04  0.00D+00 EMaxC= 1.00D-01 BMatC= 1.83D-05 BMatP= 7.51D-05
 IDIUse=3 WtCom= 9.98D-01 WtEn= 2.18D-03
 Coeff-Com: -0.122D-02-0.228D-01-0.228D-01 0.666D-01 0.435D+00 0.546D+00
 Coeff-En:   0.000D+00 0.000D+00 0.000D+00 0.000D+00 0.000D+00 0.100D+01
 Coeff:     -0.121D-02-0.228D-01-0.227D-01 0.664D-01 0.434D+00 0.547D+00
 Gap=     0.327 Goal=   None    Shift=    0.000
 RMSDP=1.04D-04 MaxDP=7.52D-03 DE=-5.62D-05 OVMax= 1.33D-03

 Cycle   7  Pass 1  IDiag  1:
 RMSU=  7.31D-05    CP:  6.83D-01  7.44D-01  7.08D-01  1.14D+00  9.62D-01
                    CP:  9.62D-01
 E= -576.412326765751     Delta-E=       -0.000018343853 Rises=F Damp=F
 DIIS: error= 4.76D-05 at cycle   7 NSaved=   7.
 NSaved= 7 IEnMin= 7 EnMin= -576.412326765751     IErMin= 7 ErrMin= 4.76D-05
 ErrMax= 4.76D-05  0.00D+00 EMaxC= 1.00D-01 BMatC= 5.00D-07 BMatP= 1.83D-05
 IDIUse=1 WtCom= 1.00D+00 WtEn= 0.00D+00
 Coeff-Com: -0.234D-03-0.454D-02-0.532D-02-0.982D-02-0.578D-02 0.112D+00
 Coeff-Com:  0.913D+00
 Coeff:     -0.234D-03-0.454D-02-0.532D-02-0.982D-02-0.578D-02 0.112D+00
 Coeff:      0.913D+00
 Gap=     0.327 Goal=   None    Shift=    0.000
 RMSDP=4.36D-05 MaxDP=4.00D-03 DE=-1.83D-05 OVMax= 5.58D-04

 Cycle   8  Pass 1  IDiag  1:
 RMSU=  1.74D-05    CP:  6.83D-01  7.44D-01  7.09D-01  1.15D+00  9.69D-01
                    CP:  1.10D+00  1.11D+00
 E= -576.412327954700     Delta-E=       -0.000001188949 Rises=F Damp=F
 DIIS: error= 1.18D-05 at cycle   8 NSaved=   8.
 NSaved= 8 IEnMin= 8 EnMin= -576.412327954700     IErMin= 8 ErrMin= 1.18D-05
 ErrMax= 1.18D-05  0.00D+00 EMaxC= 1.00D-01 BMatC= 8.50D-08 BMatP= 5.00D-07
 IDIUse=1 WtCom= 1.00D+00 WtEn= 0.00D+00
 Coeff-Com:  0.531D-04 0.798D-03 0.418D-03-0.127D-01-0.595D-01-0.239D-01
 Coeff-Com:  0.319D+00 0.776D+00
 Coeff:      0.531D-04 0.798D-03 0.418D-03-0.127D-01-0.595D-01-0.239D-01
 Coeff:      0.319D+00 0.776D+00
 Gap=     0.327 Goal=   None    Shift=    0.000
 RMSDP=1.46D-05 MaxDP=1.36D-03 DE=-1.19D-06 OVMax= 2.27D-04

 Cycle   9  Pass 1  IDiag  1:
 RMSU=  6.55D-06    CP:  6.83D-01  7.45D-01  7.09D-01  1.16D+00  9.65D-01
                    CP:  1.14D+00  1.15D+00  1.28D+00
 E= -576.412328124336     Delta-E=       -0.000000169636 Rises=F Damp=F
 DIIS: error= 5.10D-06 at cycle   9 NSaved=   9.
 NSaved= 9 IEnMin= 9 EnMin= -576.412328124336     IErMin= 9 ErrMin= 5.10D-06
 ErrMax= 5.10D-06  0.00D+00 EMaxC= 1.00D-01 BMatC= 6.08D-09 BMatP= 8.50D-08
 IDIUse=1 WtCom= 1.00D+00 WtEn= 0.00D+00
 Coeff-Com:  0.402D-04 0.715D-03 0.724D-03-0.830D-03-0.104D-01-0.162D-01
 Coeff-Com: -0.591D-01 0.145D+00 0.940D+00
 Coeff:      0.402D-04 0.715D-03 0.724D-03-0.830D-03-0.104D-01-0.162D-01
 Coeff:     -0.591D-01 0.145D+00 0.940D+00
 Gap=     0.327 Goal=   None    Shift=    0.000
 RMSDP=7.88D-06 MaxDP=7.08D-04 DE=-1.70D-07 OVMax= 8.18D-05

 Cycle  10  Pass 1  IDiag  1:
 RMSU=  1.98D-06    CP:  6.83D-01  7.45D-01  7.09D-01  1.16D+00  9.57D-01
                    CP:  1.15D+00  1.17D+00  1.50D+00  1.32D+00
 E= -576.412328140847     Delta-E=       -0.000000016512 Rises=F Damp=F
 DIIS: error= 9.59D-07 at cycle  10 NSaved=  10.
 NSaved=10 IEnMin=10 EnMin= -576.412328140847     IErMin=10 ErrMin= 9.59D-07
 ErrMax= 9.59D-07  0.00D+00 EMaxC= 1.00D-01 BMatC= 4.91D-10 BMatP= 6.08D-09
 IDIUse=1 WtCom= 1.00D+00 WtEn= 0.00D+00
 Coeff-Com: -0.113D-05 0.599D-05 0.324D-04 0.127D-02 0.418D-02 0.155D-02
 Coeff-Com: -0.309D-01-0.548D-01 0.106D+00 0.973D+00
 Coeff:     -0.113D-05 0.599D-05 0.324D-04 0.127D-02 0.418D-02 0.155D-02
 Coeff:     -0.309D-01-0.548D-01 0.106D+00 0.973D+00
 Gap=     0.327 Goal=   None    Shift=    0.000
 RMSDP=2.54D-06 MaxDP=2.87D-04 DE=-1.65D-08 OVMax= 1.61D-05

 Cycle  11  Pass 1  IDiag  1:
 RMSU=  6.72D-07    CP:  6.83D-01  7.45D-01  7.09D-01  1.16D+00  9.54D-01
                    CP:  1.15D+00  1.16D+00  1.56D+00  1.40D+00  1.10D+00
 E= -576.412328142074     Delta-E=       -0.000000001227 Rises=F Damp=F
 DIIS: error= 3.80D-07 at cycle  11 NSaved=  11.
 NSaved=11 IEnMin=11 EnMin= -576.412328142074     IErMin=11 ErrMin= 3.80D-07
 ErrMax= 3.80D-07  0.00D+00 EMaxC= 1.00D-01 BMatC= 8.18D-11 BMatP= 4.91D-10
 IDIUse=1 WtCom= 1.00D+00 WtEn= 0.00D+00
 Coeff-Com: -0.295D-05-0.415D-04-0.348D-04 0.511D-03 0.197D-02 0.155D-02
 Coeff-Com: -0.589D-02-0.299D-01-0.369D-01 0.319D+00 0.749D+00
 Coeff:     -0.295D-05-0.415D-04-0.348D-04 0.511D-03 0.197D-02 0.155D-02
 Coeff:     -0.589D-02-0.299D-01-0.369D-01 0.319D+00 0.749D+00
 Gap=     0.327 Goal=   None    Shift=    0.000
 RMSDP=6.33D-07 MaxDP=6.58D-05 DE=-1.23D-09 OVMax= 5.16D-06

 Cycle  12  Pass 1  IDiag  1:
 RMSU=  1.47D-07    CP:  6.83D-01  7.45D-01  7.09D-01  1.15D+00  9.54D-01
                    CP:  1.15D+00  1.16D+00  1.57D+00  1.42D+00  1.18D+00
                    CP:  1.14D+00
 E= -576.412328142219     Delta-E=       -0.000000000145 Rises=F Damp=F
 DIIS: error= 1.60D-07 at cycle  12 NSaved=  12.
 NSaved=12 IEnMin=12 EnMin= -576.412328142219     IErMin=12 ErrMin= 1.60D-07
 ErrMax= 1.60D-07  0.00D+00 EMaxC= 1.00D-01 BMatC= 8.55D-12 BMatP= 8.18D-11
 IDIUse=1 WtCom= 1.00D+00 WtEn= 0.00D+00
 Coeff-Com: -0.325D-06-0.866D-05-0.122D-04-0.714D-04-0.279D-03 0.558D-04
 Coeff-Com:  0.359D-02 0.240D-02-0.216D-01-0.788D-01 0.125D+00 0.970D+00
 Coeff:     -0.325D-06-0.866D-05-0.122D-04-0.714D-04-0.279D-03 0.558D-04
 Coeff:      0.359D-02 0.240D-02-0.216D-01-0.788D-01 0.125D+00 0.970D+00
 Gap=     0.327 Goal=   None    Shift=    0.000
 RMSDP=2.47D-07 MaxDP=2.05D-05 DE=-1.45D-10 OVMax= 2.79D-06

 Cycle  13  Pass 1  IDiag  1:
 RMSU=  7.76D-08    CP:  6.83D-01  7.45D-01  7.09D-01  1.15D+00  9.54D-01
                    CP:  1.15D+00  1.16D+00  1.56D+00  1.43D+00  1.20D+00
                    CP:  1.23D+00  1.34D+00
 E= -576.412328142233     Delta-E=       -0.000000000014 Rises=F Damp=F
 DIIS: error= 9.21D-08 at cycle  13 NSaved=  13.
 NSaved=13 IEnMin=13 EnMin= -576.412328142233     IErMin=13 ErrMin= 9.21D-08
 ErrMax= 9.21D-08  0.00D+00 EMaxC= 1.00D-01 BMatC= 2.08D-12 BMatP= 8.55D-12
 IDIUse=1 WtCom= 1.00D+00 WtEn= 0.00D+00
 Coeff-Com:  0.269D-06 0.183D-05-0.352D-06-0.949D-04-0.368D-03-0.201D-03
 Coeff-Com:  0.206D-02 0.484D-02-0.273D-02-0.712D-01-0.584D-01 0.376D+00
 Coeff-Com:  0.750D+00
 Coeff:      0.269D-06 0.183D-05-0.352D-06-0.949D-04-0.368D-03-0.201D-03
 Coeff:      0.206D-02 0.484D-02-0.273D-02-0.712D-01-0.584D-01 0.376D+00
 Coeff:      0.750D+00
 Gap=     0.327 Goal=   None    Shift=    0.000
 RMSDP=8.65D-08 MaxDP=8.61D-06 DE=-1.39D-11 OVMax= 1.30D-06

 Cycle  14  Pass 1  IDiag  1:
 RMSU=  3.18D-08    CP:  6.83D-01  7.45D-01  7.09D-01  1.15D+00  9.54D-01
                    CP:  1.15D+00  1.16D+00  1.56D+00  1.42D+00  1.19D+00
                    CP:  1.27D+00  1.39D+00  1.12D+00
 E= -576.412328142245     Delta-E=       -0.000000000013 Rises=F Damp=F
 DIIS: error= 4.56D-08 at cycle  14 NSaved=  14.
 NSaved=14 IEnMin=14 EnMin= -576.412328142245     IErMin=14 ErrMin= 4.56D-08
 ErrMax= 4.56D-08  0.00D+00 EMaxC= 1.00D-01 BMatC= 2.65D-13 BMatP= 2.08D-12
 IDIUse=1 WtCom= 1.00D+00 WtEn= 0.00D+00
 Coeff-Com:  0.888D-07 0.178D-05 0.230D-05-0.752D-05-0.160D-04-0.533D-04
 Coeff-Com: -0.232D-03 0.411D-03 0.285D-02 0.272D-03-0.318D-01-0.101D+00
 Coeff-Com:  0.991D-01 0.103D+01
 Coeff:      0.888D-07 0.178D-05 0.230D-05-0.752D-05-0.160D-04-0.533D-04
 Coeff:     -0.232D-03 0.411D-03 0.285D-02 0.272D-03-0.318D-01-0.101D+00
 Coeff:      0.991D-01 0.103D+01
 Gap=     0.327 Goal=   None    Shift=    0.000
 RMSDP=4.70D-08 MaxDP=3.85D-06 DE=-1.25D-11 OVMax= 8.11D-07

 Cycle  15  Pass 1  IDiag  1:
 RMSU=  1.42D-08    CP:  6.83D-01  7.45D-01  7.09D-01  1.15D+00  9.54D-01
                    CP:  1.15D+00  1.16D+00  1.56D+00  1.42D+00  1.18D+00
                    CP:  1.27D+00  1.41D+00  1.37D+00  1.41D+00
 E= -576.412328142229     Delta-E=        0.000000000016 Rises=F Damp=F
 DIIS: error= 2.02D-08 at cycle  15 NSaved=  15.
 NSaved=15 IEnMin=14 EnMin= -576.412328142245     IErMin=15 ErrMin= 2.02D-08
 ErrMax= 2.02D-08  0.00D+00 EMaxC= 1.00D-01 BMatC= 7.07D-14 BMatP= 2.65D-13
 IDIUse=1 WtCom= 1.00D+00 WtEn= 0.00D+00
 Coeff-Com: -0.221D-07 0.340D-06 0.106D-05 0.166D-04 0.708D-04 0.247D-04
 Coeff-Com: -0.486D-03-0.821D-03 0.169D-02 0.152D-01 0.187D-02-0.110D+00
 Coeff-Com: -0.123D+00 0.376D+00 0.840D+00
 Coeff:     -0.221D-07 0.340D-06 0.106D-05 0.166D-04 0.708D-04 0.247D-04
 Coeff:     -0.486D-03-0.821D-03 0.169D-02 0.152D-01 0.187D-02-0.110D+00
 Coeff:     -0.123D+00 0.376D+00 0.840D+00
 Gap=     0.327 Goal=   None    Shift=    0.000
 RMSDP=2.10D-08 MaxDP=2.02D-06 DE= 1.64D-11 OVMax= 3.60D-07

 Cycle  16  Pass 1  IDiag  1:
 RMSU=  4.44D-09    CP:  6.83D-01  7.45D-01  7.09D-01  1.15D+00  9.54D-01
                    CP:  1.15D+00  1.16D+00  1.56D+00  1.42D+00  1.18D+00
                    CP:  1.26D+00  1.42D+00  1.44D+00  1.64D+00  1.35D+00
 E= -576.412328142229     Delta-E=        0.000000000000 Rises=F Damp=F
 DIIS: error= 7.61D-09 at cycle  16 NSaved=  16.
 NSaved=16 IEnMin=14 EnMin= -576.412328142245     IErMin=16 ErrMin= 7.61D-09
 ErrMax= 7.61D-09  0.00D+00 EMaxC= 1.00D-01 BMatC= 5.96D-15 BMatP= 7.07D-14
 IDIUse=1 WtCom= 1.00D+00 WtEn= 0.00D+00
 Coeff-Com: -0.118D-07-0.261D-06-0.323D-06 0.222D-05 0.635D-05 0.124D-04
 Coeff-Com:  0.948D-05-0.126D-03-0.433D-03 0.639D-03 0.523D-02 0.109D-01
 Coeff-Com: -0.247D-01-0.151D+00 0.598D-02 0.115D+01
 Coeff:     -0.118D-07-0.261D-06-0.323D-06 0.222D-05 0.635D-05 0.124D-04
 Coeff:      0.948D-05-0.126D-03-0.433D-03 0.639D-03 0.523D-02 0.109D-01
 Coeff:     -0.247D-01-0.151D+00 0.598D-02 0.115D+01
 Gap=     0.327 Goal=   None    Shift=    0.000
 RMSDP=7.70D-09 MaxDP=4.36D-07 DE= 4.55D-13 OVMax= 1.80D-07

 SCF Done:  E(RwB97XD) =  -576.412328142     A.U. after   16 cycles
            NFock= 16  Conv=0.77D-08     -V/T= 2.0000
 KE= 5.764076434593D+02 PE=-2.908198539363D+03 EE= 9.723449659801D+02
 Leave Link  502 at Tue Nov 22 14:59:37 2022, MaxMem= 16106127360 cpu:            1294.6 elap:              40.9
 (Enter /opt/ap/G16/B01/g16/l601.exe)
 Copying SCF densities to generalized density rwf, IOpCl= 0 IROHF=0.

 **********************************************************************

            Population analysis using the SCF Density.

 **********************************************************************

 Orbital symmetries:
       Occupied  (A) (A) (A) (A) (A) (A) (A) (A) (A) (A) (A) (A)
                 (A) (A) (A) (A) (A) (A) (A) (A) (A) (A) (A) (A)
                 (A) (A) (A) (A) (A) (A) (A) (A) (A) (A) (A) (A)
                 (A) (A) (A) (A) (A) (A) (A) (A) (A) (A) (A) (A)
       Virtual   (A) (A) (A) (A) (A) (A) (A) (A) (A) (A) (A) (A)
                 (A) (A) (A) (A) (A) (A) (A) (A) (A) (A) (A) (A)
                 (A) (A) (A) (A) (A) (A) (A) (A) (A) (A) (A) (A)
                 (A) (A) (A) (A) (A) (A) (A) (A) (A) (A) (A) (A)
                 (A) (A) (A) (A) (A) (A) (A) (A) (A) (A) (A) (A)
                 (A) (A) (A) (A) (A) (A) (A) (A) (A) (A) (A) (A)
                 (A) (A) (A) (A) (A) (A) (A) (A) (A) (A) (A) (A)
                 (A) (A) (A) (A) (A) (A) (A) (A) (A) (A) (A) (A)
                 (A) (A) (A) (A) (A) (A) (A) (A) (A) (A) (A) (A)
                 (A) (A) (A) (A) (A) (A) (A) (A) (A) (A) (A) (A)
                 (A) (A) (A) (A) (A) (A) (A) (A) (A) (A) (A) (A)
                 (A) (A) (A) (A) (A) (A) (A) (A) (A) (A) (A) (A)
                 (A) (A) (A) (A) (A) (A) (A) (A) (A) (A) (A) (A)
                 (A) (A) (A) (A) (A) (A) (A) (A) (A) (A) (A) (A)
                 (A) (A) (A) (A) (A) (A) (A) (A) (A) (A) (A) (A)
                 (A) (A) (A) (A) (A) (A) (A) (A) (A) (A) (A) (A)
                 (A) (A) (A) (A) (A) (A) (A) (A) (A) (A) (A) (A)
                 (A) (A) (A) (A) (A) (A) (A) (A) (A) (A) (A) (A)
                 (A) (A) (A) (A) (A) (A) (A) (A) (A) (A) (A) (A)
                 (A) (A) (A) (A) (A) (A) (A) (A) (A) (A) (A) (A)
                 (A) (A) (A) (A) (A) (A) (A) (A) (A) (A) (A) (A)
                 (A) (A) (A) (A) (A) (A) (A) (A) (A) (A) (A) (A)
                 (A) (A) (A) (A) (A) (A) (A) (A) (A) (A) (A) (A)
                 (A) (A) (A) (A) (A) (A) (A) (A) (A) (A) (A) (A)
                 (A) (A) (A) (A) (A) (A) (A) (A) (A) (A) (A) (A)
                 (A) (A) (A) (A) (A) (A) (A) (A) (A) (A) (A) (A)
                 (A) (A) (A) (A) (A) (A) (A) (A) (A) (A) (A) (A)
                 (A) (A) (A) (A)
 The electronic state is 1-A.
 Alpha  occ. eigenvalues --  -19.24256 -10.38500 -10.30734 -10.30685 -10.29075
 Alpha  occ. eigenvalues --  -10.28743 -10.28726 -10.28541 -10.28534 -10.28504
 Alpha  occ. eigenvalues --  -10.28361 -10.28327 -10.28144 -10.28031  -1.15163
 Alpha  occ. eigenvalues --   -0.97953  -0.97420  -0.89159  -0.87445  -0.87311
 Alpha  occ. eigenvalues --   -0.86830  -0.76837  -0.74018  -0.73519  -0.72579
 Alpha  occ. eigenvalues --   -0.68096  -0.65464  -0.63092  -0.60296  -0.57005
 Alpha  occ. eigenvalues --   -0.56333  -0.55698  -0.54264  -0.54097  -0.53824
 Alpha  occ. eigenvalues --   -0.52495  -0.49218  -0.47205  -0.46783  -0.46038
 Alpha  occ. eigenvalues --   -0.45975  -0.44837  -0.44382  -0.35247  -0.34647
 Alpha  occ. eigenvalues --   -0.34287  -0.34232  -0.32833
 Alpha virt. eigenvalues --   -0.00108   0.03603   0.04115   0.04340   0.04467
 Alpha virt. eigenvalues --    0.04770   0.04922   0.05655   0.05846   0.07032
 Alpha virt. eigenvalues --    0.07413   0.08098   0.09112   0.09188   0.10300
 Alpha virt. eigenvalues --    0.11592   0.11932   0.11985   0.13319   0.14172
 Alpha virt. eigenvalues --    0.15033   0.15384   0.15693   0.16107   0.16545
 Alpha virt. eigenvalues --    0.16894   0.17005   0.17273   0.17542   0.17910
 Alpha virt. eigenvalues --    0.17952   0.18507   0.18677   0.18869   0.19113
 Alpha virt. eigenvalues --    0.19903   0.20150   0.20464   0.21131   0.21477
 Alpha virt. eigenvalues --    0.21599   0.22091   0.22810   0.23428   0.23628
 Alpha virt. eigenvalues --    0.24054   0.24563   0.24979   0.25131   0.25456
 Alpha virt. eigenvalues --    0.25741   0.26830   0.27235   0.27527   0.28169
 Alpha virt. eigenvalues --    0.28885   0.29535   0.30007   0.30400   0.31028
 Alpha virt. eigenvalues --    0.31447   0.31782   0.32521   0.32995   0.33560
 Alpha virt. eigenvalues --    0.34078   0.34907   0.35234   0.35630   0.36212
 Alpha virt. eigenvalues --    0.37402   0.37478   0.37655   0.38184   0.38569
 Alpha virt. eigenvalues --    0.38895   0.39299   0.40730   0.41216   0.41887
 Alpha virt. eigenvalues --    0.42211   0.43054   0.43340   0.44411   0.44836
 Alpha virt. eigenvalues --    0.45492   0.45898   0.46921   0.48416   0.49207
 Alpha virt. eigenvalues --    0.51657   0.56286   0.56874   0.57812   0.60101
 Alpha virt. eigenvalues --    0.61110   0.62335   0.62591   0.62966   0.63755
 Alpha virt. eigenvalues --    0.64095   0.64295   0.65196   0.65510   0.65898
 Alpha virt. eigenvalues --    0.66251   0.67321   0.68254   0.68504   0.69185
 Alpha virt. eigenvalues --    0.70342   0.71751   0.72247   0.74220   0.75166
 Alpha virt. eigenvalues --    0.75324   0.76805   0.77427   0.77985   0.78703
 Alpha virt. eigenvalues --    0.79610   0.80509   0.81052   0.81553   0.82588
 Alpha virt. eigenvalues --    0.83144   0.83936   0.84324   0.86207   0.87428
 Alpha virt. eigenvalues --    0.88694   0.90051   0.92460   0.93429   0.93651
 Alpha virt. eigenvalues --    0.94134   0.94504   0.94957   0.95264   0.95876
 Alpha virt. eigenvalues --    0.96652   0.96982   0.99720   1.00349   1.01572
 Alpha virt. eigenvalues --    1.02049   1.02828   1.03969   1.04395   1.05073
 Alpha virt. eigenvalues --    1.06292   1.10201   1.10451   1.12642   1.13669
 Alpha virt. eigenvalues --    1.14159   1.15744   1.16433   1.17416   1.17907
 Alpha virt. eigenvalues --    1.19169   1.20926   1.21711   1.23285   1.24378
 Alpha virt. eigenvalues --    1.27925   1.31390   1.33906   1.36702   1.39192
 Alpha virt. eigenvalues --    1.41441   1.43700   1.45841   1.48646   1.55577
 Alpha virt. eigenvalues --    1.55817   1.59164   1.59625   1.60234   1.61657
 Alpha virt. eigenvalues --    1.62015   1.63830   1.65494   1.66146   1.67158
 Alpha virt. eigenvalues --    1.68067   1.68906   1.69054   1.69480   1.73672
 Alpha virt. eigenvalues --    1.76098   1.76452   1.76796   1.77014   1.78292
 Alpha virt. eigenvalues --    1.78750   1.81832   1.84602   1.86538   1.89539
 Alpha virt. eigenvalues --    1.89751   1.90807   1.91916   1.92328   1.94436
 Alpha virt. eigenvalues --    1.95272   1.96157   1.97365   1.99866   2.01201
 Alpha virt. eigenvalues --    2.01872   2.03502   2.04750   2.04987   2.05107
 Alpha virt. eigenvalues --    2.05882   2.07244   2.08058   2.08331   2.10213
 Alpha virt. eigenvalues --    2.10544   2.15208   2.16667   2.18924   2.21109
 Alpha virt. eigenvalues --    2.21187   2.26429   2.26850   2.27270   2.30565
 Alpha virt. eigenvalues --    2.32471   2.42563   2.43453   2.47287   2.47904
 Alpha virt. eigenvalues --    2.49902   2.50022   2.50180   2.51519   2.53922
 Alpha virt. eigenvalues --    2.59017   2.59626   2.60101   2.66844   2.68372
 Alpha virt. eigenvalues --    2.73007   2.76754   2.78295   2.81242   2.81802
 Alpha virt. eigenvalues --    2.83004   2.83594   2.84849   2.87946   2.88170
 Alpha virt. eigenvalues --    2.91674   2.92083   2.93655   2.95066   2.96387
 Alpha virt. eigenvalues --    2.97289   2.97482   2.98637   2.99710   3.00330
 Alpha virt. eigenvalues --    3.00860   3.01271   3.02181   3.03006   3.05047
 Alpha virt. eigenvalues --    3.05429   3.10416   3.13108   3.14757   3.18223
 Alpha virt. eigenvalues --    3.19574   3.21925   3.22883   3.25330   3.25971
 Alpha virt. eigenvalues --    3.27993   3.30652   3.33122   3.36638   3.44796
 Alpha virt. eigenvalues --    3.48727   3.50394   3.51616   3.52845   3.64442
 Alpha virt. eigenvalues --    3.69128   3.70681   3.71653   3.76019   3.76939
 Alpha virt. eigenvalues --    3.83561   3.89077   3.90819   3.99187   4.29848
 Alpha virt. eigenvalues --    4.36778   4.37223   4.39090   4.40759   4.41799
 Alpha virt. eigenvalues --    4.42813   4.50180   4.51416   4.52529   4.95192
 Alpha virt. eigenvalues --    4.95320   5.23908   5.35148   5.84895  23.88809
 Alpha virt. eigenvalues --   23.96237  23.98451  24.17148  24.19466  24.24091
 Alpha virt. eigenvalues --   24.24841  24.30095  24.31398  24.33873  24.34256
 Alpha virt. eigenvalues --   24.43471  24.44370  50.13358
          Condensed to atoms (all electrons):
               1          2          3          4          5          6
     1  C   13.524022  -0.875425   0.504174  -0.751606   0.030330  -4.781816
     2  C   -0.875425   9.442386  -3.844381   0.259449   0.433769   0.470919
     3  C    0.504174  -3.844381  15.263136  -0.475316   0.079357  -6.670818
     4  C   -0.751606   0.259449  -0.475316   6.009459  -0.071016   0.652625
     5  H    0.030330   0.433769   0.079357  -0.071016   0.488158  -0.172511
     6  C   -4.781816   0.470919  -6.670818   0.652625  -0.172511  22.121806
     7  C   -0.690299   0.732391  -1.610770   0.084907   0.004166   0.947074
     8  H    0.061147  -0.048008   0.606852  -0.017592  -0.000632  -0.157497
     9  C   -0.314556  -0.720213   1.222911   0.384507  -0.005234  -0.962907
    10  H   -0.014173  -0.063440  -0.029696   0.470860  -0.009096   0.033609
    11  C   -1.504056   0.313067   1.991713  -0.265107   0.076823  -6.137511
    12  O    0.300522   0.081083  -0.130136   0.010897  -0.002418   0.191388
    13  H    0.007108   0.022078  -0.134545   0.016822   0.001672   0.036923
    14  H    0.038304  -0.005959   0.039208  -0.084152  -0.000213  -0.028202
    15  C    1.545555  -0.795995   0.681380  -0.046984  -0.052056  -0.984278
    16  C   -1.407318   0.489379  -0.594567   0.048265   0.009086   0.789496
    17  C   -0.134907  -0.024914  -0.477150   0.068414  -0.025168   1.394288
    18  H    0.033029   0.002383   0.018448  -0.028181  -0.008104   0.000655
    19  C   -0.447522   0.233438  -0.140669  -0.001536   0.002459  -0.209474
    20  H   -0.016019   0.006351  -0.047754   0.001803  -0.001454   0.067454
    21  C    0.086824  -0.128607   0.099212   0.002830  -0.001124   0.128369
    22  H   -0.017831   0.011136  -0.008416   0.002506   0.000612  -0.000049
    23  H   -0.001521   0.003072   0.003269  -0.000340   0.000423  -0.012542
    24  H    0.004450  -0.004457   0.002641  -0.000419  -0.000128  -0.000606
               7          8          9         10         11         12
     1  C   -0.690299   0.061147  -0.314556  -0.014173  -1.504056   0.300522
     2  C    0.732391  -0.048008  -0.720213  -0.063440   0.313067   0.081083
     3  C   -1.610770   0.606852   1.222911  -0.029696   1.991713  -0.130136
     4  C    0.084907  -0.017592   0.384507   0.470860  -0.265107   0.010897
     5  H    0.004166  -0.000632  -0.005234  -0.009096   0.076823  -0.002418
     6  C    0.947074  -0.157497  -0.962907   0.033609  -6.137511   0.191388
     7  C    6.775182  -0.188517  -0.129124   0.023661  -0.156707  -0.043817
     8  H   -0.188517   0.506758   0.029445  -0.000053   0.044162  -0.007556
     9  C   -0.129124   0.029445   6.161714  -0.077747   0.307773   0.008181
    10  H    0.023661  -0.000053  -0.077747   0.488390   0.002103   0.000175
    11  C   -0.156707   0.044162   0.307773   0.002103  14.978728  -0.031211
    12  O   -0.043817  -0.007556   0.008181   0.000175  -0.031211   7.889733
    13  H    0.502098  -0.019208  -0.094644   0.000469  -0.003163   0.000122
    14  H   -0.099529   0.002913   0.482316  -0.013686   0.001090   0.000045
    15  C   -0.244979   0.057023   0.062564  -0.010111  -0.787366  -0.081895
    16  C    0.277456  -0.073307  -0.064568   0.002801  -0.528729   0.041018
    17  C    0.082457  -0.015944  -0.081227   0.004783  -2.556951  -0.054530
    18  H    0.004144  -0.001344   0.015555  -0.003165  -0.082940  -0.002793
    19  C    0.043910  -0.010109  -0.003835   0.000223  -0.272611   0.019589
    20  H   -0.004293  -0.000859  -0.001123  -0.000060  -0.003038  -0.018983
    21  C   -0.002376   0.002229  -0.004126   0.000687  -0.437698  -0.001279
    22  H   -0.000446  -0.000068  -0.000103   0.000117   0.062540   0.000371
    23  H    0.000578  -0.000224   0.000185  -0.000000  -0.008597   0.002637
    24  H   -0.000008   0.000103   0.000023  -0.000004   0.011042  -0.000152
              13         14         15         16         17         18
     1  C    0.007108   0.038304   1.545555  -1.407318  -0.134907   0.033029
     2  C    0.022078  -0.005959  -0.795995   0.489379  -0.024914   0.002383
     3  C   -0.134545   0.039208   0.681380  -0.594567  -0.477150   0.018448
     4  C    0.016822  -0.084152  -0.046984   0.048265   0.068414  -0.028181
     5  H    0.001672  -0.000213  -0.052056   0.009086  -0.025168  -0.008104
     6  C    0.036923  -0.028202  -0.984278   0.789496   1.394288   0.000655
     7  C    0.502098  -0.099529  -0.244979   0.277456   0.082457   0.004144
     8  H   -0.019208   0.002913   0.057023  -0.073307  -0.015944  -0.001344
     9  C   -0.094644   0.482316   0.062564  -0.064568  -0.081227   0.015555
    10  H    0.000469  -0.013686  -0.010111   0.002801   0.004783  -0.003165
    11  C   -0.003163   0.001090  -0.787366  -0.528729  -2.556951  -0.082940
    12  O    0.000122   0.000045  -0.081895   0.041018  -0.054530  -0.002793
    13  H    0.490869  -0.014955  -0.014525   0.010625   0.002643  -0.000848
    14  H   -0.014955   0.497685   0.004375  -0.003430  -0.002132  -0.000072
    15  C   -0.014525   0.004375  13.953718  -4.722303  -1.950704   0.598910
    16  C    0.010625  -0.003430  -4.722303  10.076327   0.979376  -0.073544
    17  C    0.002643  -0.002132  -1.950704   0.979376   8.467372  -0.073211
    18  H   -0.000848  -0.000072   0.598910  -0.073544  -0.073211   0.544237
    19  C    0.000976  -0.000361  -0.255691   0.796634  -0.409908   0.014750
    20  H   -0.000116   0.000038   0.034536   0.398344   0.047523  -0.000482
    21  C    0.000025  -0.000129   0.094283  -0.621476   0.643694  -0.001948
    22  H    0.000011   0.000034  -0.116981   0.046233   0.413648  -0.020300
    23  H    0.000021  -0.000001  -0.023230  -0.043158  -0.000492  -0.001223
    24  H   -0.000002  -0.000001  -0.025962  -0.024962  -0.045199   0.000018
              19         20         21         22         23         24
     1  C   -0.447522  -0.016019   0.086824  -0.017831  -0.001521   0.004450
     2  C    0.233438   0.006351  -0.128607   0.011136   0.003072  -0.004457
     3  C   -0.140669  -0.047754   0.099212  -0.008416   0.003269   0.002641
     4  C   -0.001536   0.001803   0.002830   0.002506  -0.000340  -0.000419
     5  H    0.002459  -0.001454  -0.001124   0.000612   0.000423  -0.000128
     6  C   -0.209474   0.067454   0.128369  -0.000049  -0.012542  -0.000606
     7  C    0.043910  -0.004293  -0.002376  -0.000446   0.000578  -0.000008
     8  H   -0.010109  -0.000859   0.002229  -0.000068  -0.000224   0.000103
     9  C   -0.003835  -0.001123  -0.004126  -0.000103   0.000185   0.000023
    10  H    0.000223  -0.000060   0.000687   0.000117  -0.000000  -0.000004
    11  C   -0.272611  -0.003038  -0.437698   0.062540  -0.008597   0.011042
    12  O    0.019589  -0.018983  -0.001279   0.000371   0.002637  -0.000152
    13  H    0.000976  -0.000116   0.000025   0.000011   0.000021  -0.000002
    14  H   -0.000361   0.000038  -0.000129   0.000034  -0.000001  -0.000001
    15  C   -0.255691   0.034536   0.094283  -0.116981  -0.023230  -0.025962
    16  C    0.796634   0.398344  -0.621476   0.046233  -0.043158  -0.024962
    17  C   -0.409908   0.047523   0.643694   0.413648  -0.000492  -0.045199
    18  H    0.014750  -0.000482  -0.001948  -0.020300  -0.001223   0.000018
    19  C    6.528497  -0.146552   0.284949   0.009898   0.500871  -0.083831
    20  H   -0.146552   0.466661   0.006319   0.000109  -0.015844   0.002289
    21  C    0.284949   0.006319   5.744760  -0.077414  -0.072562   0.519470
    22  H    0.009898   0.000109  -0.077414   0.489518   0.001697  -0.014777
    23  H    0.500871  -0.015844  -0.072562   0.001697   0.486392  -0.017626
    24  H   -0.083831   0.002289   0.519470  -0.014777  -0.017626   0.499246
 Mulliken charges:
               1
     1  C    0.821582
     2  C    0.010499
     3  C   -0.348084
     4  C   -0.271096
     5  H    0.222301
     6  C   -0.716397
     7  C   -0.307160
     8  H    0.230288
     9  C   -0.215767
    10  H    0.193354
    11  C    0.986644
    12  O   -0.170992
    13  H    0.189543
    14  H    0.186814
    15  C   -0.919283
    16  C    0.192323
    17  C   -0.251762
    18  H    0.066029
    19  C   -0.454095
    20  H    0.225150
    21  C   -0.264913
    22  H    0.217955
    23  H    0.198215
    24  H    0.178850
 Sum of Mulliken charges =  -0.00000
 Mulliken charges with hydrogens summed into heavy atoms:
               1
     1  C    0.821582
     2  C    0.232800
     3  C   -0.117796
     4  C   -0.077742
     6  C   -0.716397
     7  C   -0.117616
     9  C   -0.028952
    11  C    0.986644
    12  O   -0.170992
    15  C   -0.853254
    16  C    0.417473
    17  C   -0.033807
    19  C   -0.255880
    21  C   -0.086063
 Electronic spatial extent (au):  <R**2>=           3010.1828
 Charge=             -0.0000 electrons
 Dipole moment (field-independent basis, Debye):
    X=              0.2588    Y=             -2.9918    Z=              1.5144  Tot=              3.3632
 Quadrupole moment (field-independent basis, Debye-Ang):
   XX=            -66.4545   YY=            -80.9678   ZZ=            -81.9590
   XY=              1.7636   XZ=             -0.3379   YZ=              7.6890
 Traceless Quadrupole moment (field-independent basis, Debye-Ang):
   XX=             10.0059   YY=             -4.5074   ZZ=             -5.4986
   XY=              1.7636   XZ=             -0.3379   YZ=              7.6890
 Octapole moment (field-independent basis, Debye-Ang**2):
  XXX=             15.9923  YYY=            -18.5534  ZZZ=             -2.9910  XYY=              7.3777
  XXY=            -11.8067  XXZ=             22.8342  XZZ=            -11.5982  YZZ=              0.3235
  YYZ=              8.3772  XYZ=             -7.2458
 Hexadecapole moment (field-independent basis, Debye-Ang**3):
 XXXX=          -2816.1559 YYYY=           -699.8465 ZZZZ=           -299.0177 XXXY=             48.1363
 XXXZ=             -9.2318 YYYX=             -1.2058 YYYZ=             31.1706 ZZZX=            -13.7341
 ZZZY=             10.7036 XXYY=           -580.2767 XXZZ=           -577.6037 YYZZ=           -171.7370
 XXYZ=             17.9879 YYXZ=              9.4059 ZZXY=              1.0324
 N-N= 7.830336017812D+02 E-N=-2.908198539047D+03  KE= 5.764076434593D+02
 No NMR shielding tensors so no spin-rotation constants.
 Leave Link  601 at Tue Nov 22 14:59:38 2022, MaxMem= 16106127360 cpu:               4.8 elap:               0.2
 (Enter /opt/ap/G16/B01/g16/l9999.exe)
 1\1\GINC-N13\SP\RwB97XD\6-311++G(d,p)\C13H10O1\ROOT\22-Nov-2022\0\\#P 
 wB97XD/6-311++G(d,p) scf=maxcycle=512\\_conf004.gjf nmol_natom 1_24\\0
 ,1\C\C,1,1.39746343\C,1,1.39996263,2,119.28066518\C,2,1.39288453,1,120
 .37436646,3,-0.51002981,0\H,2,0.95014703,1,119.82324024,3,179.45634896
 ,0\C,1,1.49653039,2,122.77761373,4,174.46828757,0\C,3,1.3870125,1,120.
 10017821,2,-0.37315804,0\H,3,0.9501092,1,119.95246451,2,179.5923884,0\
 C,7,1.38720039,3,120.16568731,1,1.0745106,0\H,4,0.95011919,2,120.18755
 644,1,-179.31195299,0\C,6,1.49516902,1,120.70972921,2,-70.,0\O,6,1.221
 50059,1,119.67074267,2,110.,0\H,7,0.94956661,3,119.91274826,1,-178.886
 36029,0\H,9,0.94992259,7,119.76037934,3,179.10763853,0\C,11,1.39713972
 ,6,122.62585705,1,30.97749054,0\C,11,1.40039562,6,117.74753532,1,-153.
 15467779,0\C,15,1.39455701,11,119.80747484,6,175.4763048,0\H,15,0.9496
 2854,11,120.10535689,6,-4.50802339,0\C,16,1.38466431,11,120.4617377,6,
 -176.88197195,0\H,16,0.9497464,11,119.75779177,6,3.14699974,0\C,17,1.3
 9088945,15,120.3475273,11,0.7973643,0\H,17,0.94984298,15,119.8156451,1
 1,-179.16676483,0\H,19,0.94974749,16,119.98566335,11,-178.40987425,0\H
 ,21,0.94938585,17,120.0744529,15,179.91636093,0\\Version=ES64L-G16RevB
 .01\State=1-A\HF=-576.4123281\RMSD=7.696e-09\Dipole=0.3112726,-1.15313
 44,0.5694291\Quadrupole=3.5200883,-6.5270446,3.0069563,5.9637449,1.518
 2243,2.4929334\PG=C01 [X(C13H10O1)]\\@


 THERE ARE TWO THINGS THAT EVERYBODY THINKS THEY CAN DO BETTER THAN
 ANYONE ELSE - PUNCH THE FIRE, AND EDIT A DAILY PAPER.
 -- UNCLE ESEK, "CENTURY MAGAZINE", 1885
 Job cpu time:       0 days  0 hours 22 minutes 22.5 seconds.
 Elapsed time:       0 days  0 hours  0 minutes 42.5 seconds.
 File lengths (MBytes):  RWF=     78 Int=      0 D2E=      0 Chk=      9 Scr=      1
 Normal termination of Gaussian 16 at Tue Nov 22 14:59:38 2022.
