 Entering Gaussian System, Link 0=g16
 Input=_conf032.gjf
 Output=_conf032.log
 Initial command:
 /opt/ap/G16/B01/g16/l1.exe "/tmp2/scr/Gau-28880.inp" -scrdir="/tmp2/scr/"
 Entering Link 1 = /opt/ap/G16/B01/g16/l1.exe PID=     28881.
  
 Copyright (c) 1988-2017, Gaussian, Inc.  All Rights Reserved.
  
 This is part of the Gaussian(R) 16 program.  It is based on
 the Gaussian(R) 09 system (copyright 2009, Gaussian, Inc.),
 the Gaussian(R) 03 system (copyright 2003, Gaussian, Inc.),
 the Gaussian(R) 98 system (copyright 1998, Gaussian, Inc.),
 the Gaussian(R) 94 system (copyright 1995, Gaussian, Inc.),
 the Gaussian 92(TM) system (copyright 1992, Gaussian, Inc.),
 the Gaussian 90(TM) system (copyright 1990, Gaussian, Inc.),
 the Gaussian 88(TM) system (copyright 1988, Gaussian, Inc.),
 the Gaussian 86(TM) system (copyright 1986, Carnegie Mellon
 University), and the Gaussian 82(TM) system (copyright 1983,
 Carnegie Mellon University). Gaussian is a federally registered
 trademark of Gaussian, Inc.
  
 This software contains proprietary and confidential information,
 including trade secrets, belonging to Gaussian, Inc.
  
 This software is provided under written license and may be
 used, copied, transmitted, or stored only in accord with that
 written license.
  
 The following legend is applicable only to US Government
 contracts under FAR:
  
                    RESTRICTED RIGHTS LEGEND
  
 Use, reproduction and disclosure by the US Government is
 subject to restrictions as set forth in subparagraphs (a)
 and (c) of the Commercial Computer Software - Restricted
 Rights clause in FAR 52.227-19.
  
 Gaussian, Inc.
 340 Quinnipiac St., Bldg. 40, Wallingford CT 06492
  
  
 ---------------------------------------------------------------
 Warning -- This program may not be used in any manner that
 competes with the business of Gaussian, Inc. or will provide
 assistance to any competitor of Gaussian, Inc.  The licensee
 of this program is prohibited from giving any competitor of
 Gaussian, Inc. access to this program.  By using this program,
 the user acknowledges that Gaussian, Inc. is engaged in the
 business of creating and licensing software in the field of
 computational chemistry and represents and warrants to the
 licensee that it is not a competitor of Gaussian, Inc. and that
 it will not use this program in any manner prohibited above.
 ---------------------------------------------------------------
  

 Cite this work as:
 Gaussian 16, Revision B.01,
 M. J. Frisch, G. W. Trucks, H. B. Schlegel, G. E. Scuseria, 
 M. A. Robb, J. R. Cheeseman, G. Scalmani, V. Barone, 
 G. A. Petersson, H. Nakatsuji, X. Li, M. Caricato, A. V. Marenich, 
 J. Bloino, B. G. Janesko, R. Gomperts, B. Mennucci, H. P. Hratchian, 
 J. V. Ortiz, A. F. Izmaylov, J. L. Sonnenberg, D. Williams-Young, 
 F. Ding, F. Lipparini, F. Egidi, J. Goings, B. Peng, A. Petrone, 
 T. Henderson, D. Ranasinghe, V. G. Zakrzewski, J. Gao, N. Rega, 
 G. Zheng, W. Liang, M. Hada, M. Ehara, K. Toyota, R. Fukuda, 
 J. Hasegawa, M. Ishida, T. Nakajima, Y. Honda, O. Kitao, H. Nakai, 
 T. Vreven, K. Throssell, J. A. Montgomery, Jr., J. E. Peralta, 
 F. Ogliaro, M. J. Bearpark, J. J. Heyd, E. N. Brothers, K. N. Kudin, 
 V. N. Staroverov, T. A. Keith, R. Kobayashi, J. Normand, 
 K. Raghavachari, A. P. Rendell, J. C. Burant, S. S. Iyengar, 
 J. Tomasi, M. Cossi, J. M. Millam, M. Klene, C. Adamo, R. Cammi, 
 J. W. Ochterski, R. L. Martin, K. Morokuma, O. Farkas, 
 J. B. Foresman, and D. J. Fox, Gaussian, Inc., Wallingford CT, 2016.
 
 ******************************************
 Gaussian 16:  ES64L-G16RevB.01 20-Dec-2017
                22-Nov-2022 
 ******************************************
 %nprocshared=32
 Will use up to   32 processors via shared memory.
 %mem=120GB
 %chk=_conf032.chk
 ----------------------------------------
 #P wB97XD/6-311++G(d,p) scf=maxcycle=512
 ----------------------------------------
 1/38=1,172=1/1;
 2/12=2,17=6,18=5,40=1/2;
 3/5=4,6=6,7=1111,11=2,25=1,30=1,74=-58/1,2,3;
 4//1;
 5/5=2,7=512,38=5/2;
 6/7=2,8=2,9=2,10=2,28=1/1;
 99/5=1,9=1/99;
 Leave Link    1 at Tue Nov 22 15:03:39 2022, MaxMem= 16106127360 cpu:               1.4 elap:               0.1
 (Enter /opt/ap/G16/B01/g16/l101.exe)
 ----------------------------
 _conf032.gjf nmol_natom 1_24
 ----------------------------
 Symbolic Z-matrix:
 Charge =  0 Multiplicity = 1
 C
 C                    1     1.39746 
 C                    1     1.39996  2     119.28067 
 C                    2     1.39288  1     120.37437  3    -0.51003  0
 H                    2     0.95015  1     119.82324  3     179.45635  0
 C                    1     1.49653  2     122.77761  4     174.46829  0
 C                    3     1.38701  1     120.10018  2    -0.37316  0
 H                    3     0.95011  1     119.95246  2     179.59239  0
 C                    7     1.3872   3     120.16569  1     1.07451  0
 H                    4     0.95012  2     120.18756  1    -179.31195  0
 C                    6     1.49517  1     120.70973  2     70.      0
 O                    6     1.2215   1     119.67074  2    -110.     0
 H                    7     0.94957  3     119.91275  1    -178.88636  0
 H                    9     0.94992  7     119.76038  3     179.10764  0
 C                    11    1.39714  6     122.62586  1     30.97749  0
 C                    11    1.4004   6     117.74754  1    -153.15468  0
 C                    15    1.39456  11    119.80747  6     175.4763  0
 H                    15    0.94963  11    120.10536  6    -4.50802  0
 C                    16    1.38466  11    120.46174  6    -176.88197  0
 H                    16    0.94975  11    119.75779  6     3.147    0
 C                    17    1.39089  15    120.34753  11    0.79736  0
 H                    17    0.94984  15    119.81565  11   -179.16676  0
 H                    19    0.94975  16    119.98566  11   -178.40987  0
 H                    21    0.94939  17    120.07445  15    179.91636  0
 
 ITRead=  0  0  0  0  0  0  0  0  0  0  0  0  0  0  0  0  0  0  0  0
 ITRead=  0  0  0  0
 MicOpt= -1 -1 -1 -1 -1 -1 -1 -1 -1 -1 -1 -1 -1 -1 -1 -1 -1 -1 -1 -1
 MicOpt= -1 -1 -1 -1
 NAtoms=     24 NQM=       24 NQMF=       0 NMMI=      0 NMMIF=      0
                NMic=       0 NMicF=      0.
                    Isotopes and Nuclear Properties:
 (Nuclear quadrupole moments (NQMom) in fm**2, nuclear magnetic moments (NMagM)
  in nuclear magnetons)

  Atom         1           2           3           4           5           6           7           8           9          10
 IAtWgt=          12          12          12          12           1          12          12           1          12           1
 AtmWgt=  12.0000000  12.0000000  12.0000000  12.0000000   1.0078250  12.0000000  12.0000000   1.0078250  12.0000000   1.0078250
 NucSpn=           0           0           0           0           1           0           0           1           0           1
 AtZEff=  -0.0000000  -0.0000000  -0.0000000  -0.0000000  -0.0000000  -0.0000000  -0.0000000  -0.0000000  -0.0000000  -0.0000000
 NQMom=    0.0000000   0.0000000   0.0000000   0.0000000   0.0000000   0.0000000   0.0000000   0.0000000   0.0000000   0.0000000
 NMagM=    0.0000000   0.0000000   0.0000000   0.0000000   2.7928460   0.0000000   0.0000000   2.7928460   0.0000000   2.7928460
 AtZNuc=   6.0000000   6.0000000   6.0000000   6.0000000   1.0000000   6.0000000   6.0000000   1.0000000   6.0000000   1.0000000

  Atom        11          12          13          14          15          16          17          18          19          20
 IAtWgt=          12          16           1           1          12          12          12           1          12           1
 AtmWgt=  12.0000000  15.9949146   1.0078250   1.0078250  12.0000000  12.0000000  12.0000000   1.0078250  12.0000000   1.0078250
 NucSpn=           0           0           1           1           0           0           0           1           0           1
 AtZEff=  -0.0000000  -0.0000000  -0.0000000  -0.0000000  -0.0000000  -0.0000000  -0.0000000  -0.0000000  -0.0000000  -0.0000000
 NQMom=    0.0000000   0.0000000   0.0000000   0.0000000   0.0000000   0.0000000   0.0000000   0.0000000   0.0000000   0.0000000
 NMagM=    0.0000000   0.0000000   2.7928460   2.7928460   0.0000000   0.0000000   0.0000000   2.7928460   0.0000000   2.7928460
 AtZNuc=   6.0000000   8.0000000   1.0000000   1.0000000   6.0000000   6.0000000   6.0000000   1.0000000   6.0000000   1.0000000

  Atom        21          22          23          24
 IAtWgt=          12           1           1           1
 AtmWgt=  12.0000000   1.0078250   1.0078250   1.0078250
 NucSpn=           0           1           1           1
 AtZEff=  -0.0000000  -0.0000000  -0.0000000  -0.0000000
 NQMom=    0.0000000   0.0000000   0.0000000   0.0000000
 NMagM=    0.0000000   2.7928460   2.7928460   2.7928460
 AtZNuc=   6.0000000   1.0000000   1.0000000   1.0000000
 Leave Link  101 at Tue Nov 22 15:03:39 2022, MaxMem= 16106127360 cpu:               5.2 elap:               0.2
 (Enter /opt/ap/G16/B01/g16/l202.exe)
                          Input orientation:                          
 ---------------------------------------------------------------------
 Center     Atomic      Atomic             Coordinates (Angstroms)
 Number     Number       Type             X           Y           Z
 ---------------------------------------------------------------------
      1          6           0        0.000000    0.000000    0.000000
      2          6           0        0.000000    0.000000    1.397463
      3          6           0        1.221096    0.000000   -0.684705
      4          6           0        1.201650   -0.010697    2.101772
      5          1           0       -0.824276    0.007821    1.869996
      6          6           0       -1.253421   -0.110138   -0.810191
      7          6           0        2.414707    0.007815    0.021719
      8          1           0        1.232246   -0.005856   -1.634731
      9          6           0        2.403895   -0.006831    1.408800
     10          1           0        1.198494   -0.020531    3.051836
     11          6           0       -2.235795    1.016165   -0.853910
     12          8           0       -1.476789   -1.130944   -1.442746
     13          1           0        3.241298    0.023792   -0.445367
     14          1           0        3.224827   -0.014217    1.886678
     15          6           0       -1.852861    2.354680   -0.736700
     16          6           0       -3.576716    0.702260   -1.107884
     17          6           0       -2.805241    3.363266   -0.879935
     18          1           0       -0.946686    2.577169   -0.560233
     19          6           0       -4.522820    1.706533   -1.224579
     20          1           0       -3.838918   -0.205886   -1.200297
     21          6           0       -4.136885    3.043069   -1.122361
     22          1           0       -2.542896    4.273634   -0.812061
     23          1           0       -5.434148    1.485042   -1.374389
     24          1           0       -4.782236    3.732779   -1.218049
 ---------------------------------------------------------------------
                    Distance matrix (angstroms):
                    1          2          3          4          5
     1  C    0.000000
     2  C    1.397463   0.000000
     3  C    1.399963   2.413814   0.000000
     4  C    2.421058   1.392885   2.786566   0.000000
     5  H    2.043619   0.950147   3.272630   2.039225   0.000000
     6  C    1.496530   2.541049   2.480142   3.810091   2.716889
     7  C    2.414817   2.779127   1.387013   2.408002   3.729228
     8  H    2.047146   3.273021   0.950109   3.736632   4.063567
     9  C    2.786301   2.403931   2.404542   1.387667   3.260982
    10  H    3.278797   2.042977   3.736665   0.950119   2.342893
    11  C    2.600103   3.331674   3.607120   4.648282   3.229366
    12  O    2.354029   3.395103   3.021960   4.581768   3.563259
    13  H    3.271839   3.728619   2.034469   3.263323   4.678681
    14  H    3.736210   3.261755   3.259932   2.034583   4.049198
    15  C    3.085505   3.678623   3.872523   4.793951   3.655215
    16  C    3.809655   4.422989   4.867365   5.800257   4.114115
    17  C    4.467127   4.936343   5.249863   6.027386   4.769209
    18  H    2.802120   3.372031   3.369951   4.289367   3.538721
    19  C    4.986757   5.499387   6.016334   6.839813   5.112851
    20  H    4.027455   4.639832   5.090380   6.029020   4.308183
    21  C    5.256784   5.720455   6.177359   6.944096   5.398176
    22  H    5.038821   5.441715   5.696297   6.392772   5.323931
    23  H    5.798643   6.278414   6.853705   7.639028   5.827447
    24  H    6.187654   6.606385   7.089293   7.800109   6.251142
                    6          7          8          9         10
     6  C    0.000000
     7  C    3.763130   0.000000
     8  H    2.620930   2.035246   0.000000
     9  C    4.279082   1.387200   3.261263   0.000000
    10  H    4.575496   3.265208   4.686711   2.037829   0.000000
    11  C    1.495169   4.838457   3.698853   5.262423   5.303200
    12  O    1.221501   4.311052   2.939651   4.945164   5.347094
    13  H    4.511488   0.949567   2.334899   2.034727   4.050363
    14  H    5.228480   2.033434   4.046081   0.949923   2.337447
    15  C    2.537727   4.929007   3.987038   5.319762   5.413446
    16  C    2.479176   6.136400   4.889285   6.527190   6.374035
    17  C    3.804937   6.270557   5.312438   6.612938   6.552770
    18  H    2.716281   4.270739   3.546028   4.666962   4.939320
    19  C    3.763108   7.250391   6.018412   7.605897   7.348735
    20  H    2.616515   6.375486   5.093668   6.769027   6.594734
    21  C    4.284219   7.310611   6.195646   7.647906   7.434772
    22  H    4.569487   6.593196   5.765633   6.908353   6.882409
    23  H    4.510144   8.107764   6.836034   8.450250   8.114811
    24  H    5.233249   8.198070   7.094012   8.516189   8.251568
                   11         12         13         14         15
    11  C    0.000000
    12  O    2.352211   0.000000
    13  H    5.581242   4.958681   0.000000
    14  H    6.196040   5.868333   2.332413   0.000000
    15  C    1.397140   3.576242   5.609667   6.186817   0.000000
    16  C    1.400396   2.807573   6.883644   7.466038   2.416598
    17  C    2.415332   4.720113   6.921096   7.444680   1.394557
    18  H    2.045674   3.848369   4.906337   5.486728   0.949629
    19  C    2.417537   4.168594   7.982500   8.524490   2.790484
    20  H    2.045335   2.548367   7.124053   7.711203   3.273506
    21  C    2.791872   4.959954   8.000746   8.520336   2.416481
    22  H    3.272181   5.544711   7.186969   7.676945   2.040640
    23  H    3.274172   4.744339   8.846564   9.373376   3.740125
    24  H    3.741249   5.884919   8.873033   9.369758   3.272933
                   16         17         18         19         20
    16  C    0.000000
    17  C    2.779944   0.000000
    18  H    3.276013   2.043131   0.000000
    19  C    1.384664   2.411145   3.740066   0.000000
    20  H    0.949746   3.729607   4.064490   2.031171   0.000000
    21  C    2.406945   1.390889   3.272678   1.394891   3.263520
    22  H    3.729747   0.949843   2.342925   3.268069   4.679370
    23  H    2.033181   3.268541   4.689659   0.949747   2.331159
    24  H    3.263351   2.039453   4.059507   2.042795   4.050092
                   21         22         23         24
    21  C    0.000000
    22  H    2.037493   0.000000
    23  H    2.043001   4.056081   0.000000
    24  H    0.949386   2.339229   2.345581   0.000000
 Stoichiometry    C13H10O
 Framework group  C1[X(C13H10O)]
 Deg. of freedom    66
 Full point group                 C1      NOp   1
 Largest Abelian subgroup         C1      NOp   1
 Largest concise Abelian subgroup C1      NOp   1
                         Standard orientation:                         
 ---------------------------------------------------------------------
 Center     Atomic      Atomic             Coordinates (Angstroms)
 Number     Number       Type             X           Y           Z
 ---------------------------------------------------------------------
      1          6           0       -1.287794    0.348145    0.028517
      2          6           0       -1.735869   -0.279101    1.194149
      3          6           0       -2.135271    0.411632   -1.083979
      4          6           0       -3.015628   -0.825866    1.252369
      5          1           0       -1.164251   -0.333408    1.951172
      6          6           0        0.026981    1.058022   -0.055410
      7          6           0       -3.401918   -0.150602   -1.026507
      8          1           0       -1.842545    0.840922   -1.879422
      9          6           0       -3.842569   -0.758271    0.140065
     10          1           0       -3.321089   -1.243102    2.049448
     11          6           0        1.311148    0.292791   -0.025967
     12          8           0        0.051816    2.275680   -0.148984
     13          1           0       -3.968605   -0.119929   -1.787823
     14          1           0       -4.715840   -1.130263    0.177124
     15          6           0        1.428259   -1.002149   -0.537256
     16          6           0        2.449551    0.947969    0.459715
     17          6           0        2.675092   -1.626169   -0.565486
     18          1           0        0.661179   -1.456099   -0.864839
     19          6           0        3.680813    0.314540    0.452255
     20          1           0        2.376317    1.832813    0.796920
     21          6           0        3.799386   -0.972546   -0.072219
     22          1           0        2.756882   -2.501963   -0.923951
     23          1           0        4.444215    0.756685    0.804030
     24          1           0        4.646117   -1.401473   -0.092263
 ---------------------------------------------------------------------
 Rotational constants (GHZ):           1.7097121           0.3954718           0.3644762
 Leave Link  202 at Tue Nov 22 15:03:39 2022, MaxMem= 16106127360 cpu:               0.3 elap:               0.0
 (Enter /opt/ap/G16/B01/g16/l301.exe)
 Standard basis: 6-311++G(d,p) (5D, 7F)
 Ernie: Thresh=  0.10000D-02 Tol=  0.10000D-05 Strict=F.
 There are   392 symmetry adapted cartesian basis functions of A   symmetry.
 There are   378 symmetry adapted basis functions of A   symmetry.
   378 basis functions,   594 primitive gaussians,   392 cartesian basis functions
    48 alpha electrons       48 beta electrons
       nuclear repulsion energy       780.7477084012 Hartrees.
 IExCor= 4639 DFT=T Ex+Corr=wB97XD ExCW=0 ScaHFX=  1.000000
 ScaDFX=  1.000000  1.000000  1.000000  1.000000 ScalE2=  1.000000  1.000000
 IRadAn=      5 IRanWt=     -1 IRanGd=            0 ICorTp=0 IEmpDi=121
 HFx  wShort=  0.000000 wLong=  0.200000 cFull=  0.222036 cShort=  0.000000 cLong=  0.777964
 DFx  wShort=  0.000000 wLong=  0.200000 cFull=  0.000000 cShort=  0.000000 cLong=  1.000000
 NAtoms=   24 NActive=   24 NUniq=   24 SFac= 1.00D+00 NAtFMM=   60 NAOKFM=F Big=F
 Integral buffers will be    131072 words long.
 Raffenetti 2 integral format.
 Two-electron integral symmetry is turned on.
 R6Disp:  Grimme-D2 Dispersion energy=       -0.0138592447 Hartrees.
 Nuclear repulsion after empirical dispersion term =      780.7338491565 Hartrees.
 Leave Link  301 at Tue Nov 22 15:03:39 2022, MaxMem= 16106127360 cpu:               1.2 elap:               0.0
 (Enter /opt/ap/G16/B01/g16/l302.exe)
 NPDir=0 NMtPBC=     1 NCelOv=     1 NCel=       1 NClECP=     1 NCelD=      1
         NCelK=      1 NCelE2=     1 NClLst=     1 CellRange=     0.0.
 One-electron integrals computed using PRISM.
 One-electron integral symmetry used in STVInt
 NBasis=   378 RedAO= T EigKep=  1.52D-06  NBF=   378
 NBsUse=   376 1.00D-06 EigRej=  8.16D-07 NBFU=   376
 Precomputing XC quadrature grid using
 IXCGrd= 4 IRadAn=           5 IRanWt=          -1 IRanGd=           0 AccXCQ= 0.00D+00.
 Generated NRdTot=       0 NPtTot=           0 NUsed=           0 NTot=          32
 NSgBfM=   392   392   392   392   392 MxSgAt=    24 MxSgA2=    24.
 Leave Link  302 at Tue Nov 22 15:03:40 2022, MaxMem= 16106127360 cpu:               8.5 elap:               0.3
 (Enter /opt/ap/G16/B01/g16/l303.exe)
 DipDrv:  MaxL=1.
 Leave Link  303 at Tue Nov 22 15:03:40 2022, MaxMem= 16106127360 cpu:               1.6 elap:               0.1
 (Enter /opt/ap/G16/B01/g16/l401.exe)
 ExpMin= 3.60D-02 ExpMax= 8.59D+03 ExpMxC= 1.30D+03 IAcc=3 IRadAn=         5 AccDes= 0.00D+00
 Harris functional with IExCor= 4639 and IRadAn=       5 diagonalized for initial guess.
 HarFok:  IExCor= 4639 AccDes= 0.00D+00 IRadAn=         5 IDoV= 1 UseB2=F ITyADJ=14
 ICtDFT=  3500011 ScaDFX=  1.000000  1.000000  1.000000  1.000000
 FoFCou: FMM=F IPFlag=           0 FMFlag=      100000 FMFlg1=           0
         NFxFlg=           0 DoJE=T BraDBF=F KetDBF=T FulRan=T
         wScrn=  0.000000 ICntrl=       500 IOpCl=  0 I1Cent=   200000004 NGrid=           0
         NMat0=    1 NMatS0=      1 NMatT0=    0 NMatD0=    1 NMtDS0=    0 NMtDT0=    0
 Petite list used in FoFCou.
 Harris En= -550.904539616383    
 JPrj=0 DoOrth=F DoCkMO=F.
 Leave Link  401 at Tue Nov 22 15:03:41 2022, MaxMem= 16106127360 cpu:              22.7 elap:               0.7
 (Enter /opt/ap/G16/B01/g16/l502.exe)
 Integral symmetry usage will be decided dynamically.
 Closed shell SCF:
 Using DIIS extrapolation, IDIIS=  1040.
 NGot= 16106127360 LenX= 16105803762 LenY= 16105649657
 Requested convergence on RMS density matrix=1.00D-08 within 512 cycles.
 Requested convergence on MAX density matrix=1.00D-06.
 Requested convergence on             energy=1.00D-06.
 No special actions if energy rises.
 Fock matrices will be formed incrementally for  20 cycles.

 Cycle   1  Pass 1  IDiag  1:
 FoFJK:  IHMeth= 1 ICntrl=       0 DoSepK=T KAlg= 0 I1Cent=           0 FoldK=F
 IRaf=         1 NMat=       1 IRICut=       1 DoRegI=T DoRafI=F ISym2E= 0 IDoP0=0 IntGTp=1.
 FoFCou: FMM=F IPFlag=           0 FMFlag=      100000 FMFlg1=           0
         NFxFlg=           0 DoJE=T BraDBF=F KetDBF=F FulRan=T
         wScrn=  0.000000 ICntrl=       500 IOpCl=  0 I1Cent=           0 NGrid=           0
         NMat0=    1 NMatS0=      1 NMatT0=    0 NMatD0=    1 NMtDS0=    0 NMtDT0=    0
 Symmetry not used in FoFCou.
 E= -576.256953932023    
 DIIS: error= 5.41D-02 at cycle   1 NSaved=   1.
 NSaved= 1 IEnMin= 1 EnMin= -576.256953932023     IErMin= 1 ErrMin= 5.41D-02
 ErrMax= 5.41D-02  0.00D+00 EMaxC= 1.00D-01 BMatC= 1.20D+00 BMatP= 1.20D+00
 IDIUse=3 WtCom= 4.59D-01 WtEn= 5.41D-01
 Coeff-Com:  0.100D+01
 Coeff-En:   0.100D+01
 Coeff:      0.100D+01
 Gap=     0.416 Goal=   None    Shift=    0.000
 GapD=    0.416 DampG=2.000 DampE=0.500 DampFc=1.0000 IDamp=-1.
 RMSDP=2.75D-02 MaxDP=2.17D+00              OVMax= 1.15D-01

 Cycle   2  Pass 1  IDiag  1:
 RMSU=  1.68D-02    CP:  6.81D-01
 E= -576.346574808263     Delta-E=       -0.089620876240 Rises=F Damp=F
 DIIS: error= 1.38D-02 at cycle   2 NSaved=   2.
 NSaved= 2 IEnMin= 2 EnMin= -576.346574808263     IErMin= 2 ErrMin= 1.38D-02
 ErrMax= 1.38D-02  0.00D+00 EMaxC= 1.00D-01 BMatC= 7.80D-02 BMatP= 1.20D+00
 IDIUse=3 WtCom= 8.62D-01 WtEn= 1.38D-01
 Coeff-Com:  0.129D+00 0.871D+00
 Coeff-En:   0.157D+00 0.843D+00
 Coeff:      0.132D+00 0.868D+00
 Gap=     0.439 Goal=   None    Shift=    0.000
 RMSDP=1.05D-02 MaxDP=9.18D-01 DE=-8.96D-02 OVMax= 1.48D-01

 Cycle   3  Pass 1  IDiag  1:
 RMSU=  8.31D-03    CP:  6.70D-01  6.19D-01
 E= -576.365789931945     Delta-E=       -0.019215123682 Rises=F Damp=F
 DIIS: error= 1.34D-02 at cycle   3 NSaved=   3.
 NSaved= 3 IEnMin= 3 EnMin= -576.365789931945     IErMin= 3 ErrMin= 1.34D-02
 ErrMax= 1.34D-02  0.00D+00 EMaxC= 1.00D-01 BMatC= 5.49D-02 BMatP= 7.80D-02
 IDIUse=3 WtCom= 8.66D-01 WtEn= 1.34D-01
 Coeff-Com:  0.238D-01 0.460D+00 0.517D+00
 Coeff-En:   0.000D+00 0.421D+00 0.579D+00
 Coeff:      0.206D-01 0.454D+00 0.525D+00
 Gap=     0.360 Goal=   None    Shift=    0.000
 RMSDP=5.86D-03 MaxDP=4.21D-01 DE=-1.92D-02 OVMax= 6.76D-02

 Cycle   4  Pass 1  IDiag  1:
 RMSU=  1.63D-03    CP:  6.22D-01  8.01D-01  5.94D-01
 E= -576.414132912697     Delta-E=       -0.048342980752 Rises=F Damp=F
 DIIS: error= 1.89D-03 at cycle   4 NSaved=   4.
 NSaved= 4 IEnMin= 4 EnMin= -576.414132912697     IErMin= 4 ErrMin= 1.89D-03
 ErrMax= 1.89D-03  0.00D+00 EMaxC= 1.00D-01 BMatC= 9.13D-04 BMatP= 5.49D-02
 IDIUse=3 WtCom= 9.81D-01 WtEn= 1.89D-02
 Coeff-Com:  0.940D-02 0.194D+00 0.243D+00 0.554D+00
 Coeff-En:   0.000D+00 0.000D+00 0.000D+00 0.100D+01
 Coeff:      0.922D-02 0.190D+00 0.239D+00 0.562D+00
 Gap=     0.328 Goal=   None    Shift=    0.000
 RMSDP=7.75D-04 MaxDP=5.52D-02 DE=-4.83D-02 OVMax= 6.77D-03

 Cycle   5  Pass 1  IDiag  1:
 RMSU=  4.61D-04    CP:  6.23D-01  8.38D-01  5.94D-01  1.01D+00
 E= -576.414768674346     Delta-E=       -0.000635761649 Rises=F Damp=F
 DIIS: error= 5.43D-04 at cycle   5 NSaved=   5.
 NSaved= 5 IEnMin= 5 EnMin= -576.414768674346     IErMin= 5 ErrMin= 5.43D-04
 ErrMax= 5.43D-04  0.00D+00 EMaxC= 1.00D-01 BMatC= 8.57D-05 BMatP= 9.13D-04
 IDIUse=3 WtCom= 9.95D-01 WtEn= 5.43D-03
 Coeff-Com: -0.508D-03-0.653D-02 0.227D-02 0.223D+00 0.781D+00
 Coeff-En:   0.000D+00 0.000D+00 0.000D+00 0.000D+00 0.100D+01
 Coeff:     -0.506D-03-0.650D-02 0.226D-02 0.222D+00 0.783D+00
 Gap=     0.330 Goal=   None    Shift=    0.000
 RMSDP=4.22D-04 MaxDP=4.30D-02 DE=-6.36D-04 OVMax= 2.98D-03

 Cycle   6  Pass 1  IDiag  1:
 RMSU=  2.49D-04    CP:  6.19D-01  8.37D-01  6.18D-01  1.05D+00  7.27D-01
 E= -576.414834092606     Delta-E=       -0.000065418260 Rises=F Damp=F
 DIIS: error= 2.69D-04 at cycle   6 NSaved=   6.
 NSaved= 6 IEnMin= 6 EnMin= -576.414834092606     IErMin= 6 ErrMin= 2.69D-04
 ErrMax= 2.69D-04  0.00D+00 EMaxC= 1.00D-01 BMatC= 1.95D-05 BMatP= 8.57D-05
 IDIUse=3 WtCom= 9.97D-01 WtEn= 2.69D-03
 Coeff-Com: -0.123D-02-0.230D-01-0.227D-01 0.649D-01 0.427D+00 0.555D+00
 Coeff-En:   0.000D+00 0.000D+00 0.000D+00 0.000D+00 0.000D+00 0.100D+01
 Coeff:     -0.123D-02-0.229D-01-0.226D-01 0.647D-01 0.425D+00 0.557D+00
 Gap=     0.330 Goal=   None    Shift=    0.000
 RMSDP=1.00D-04 MaxDP=7.25D-03 DE=-6.54D-05 OVMax= 1.39D-03

 Cycle   7  Pass 1  IDiag  1:
 RMSU=  8.63D-05    CP:  6.19D-01  8.37D-01  6.14D-01  1.07D+00  7.90D-01
                    CP:  1.03D+00
 E= -576.414854209462     Delta-E=       -0.000020116856 Rises=F Damp=F
 DIIS: error= 5.82D-05 at cycle   7 NSaved=   7.
 NSaved= 7 IEnMin= 7 EnMin= -576.414854209462     IErMin= 7 ErrMin= 5.82D-05
 ErrMax= 5.82D-05  0.00D+00 EMaxC= 1.00D-01 BMatC= 5.24D-07 BMatP= 1.95D-05
 IDIUse=1 WtCom= 1.00D+00 WtEn= 0.00D+00
 Coeff-Com: -0.239D-03-0.460D-02-0.545D-02-0.950D-02-0.663D-02 0.109D+00
 Coeff-Com:  0.918D+00
 Coeff:     -0.239D-03-0.460D-02-0.545D-02-0.950D-02-0.663D-02 0.109D+00
 Coeff:      0.918D+00
 Gap=     0.330 Goal=   None    Shift=    0.000
 RMSDP=4.46D-05 MaxDP=3.62D-03 DE=-2.01D-05 OVMax= 6.26D-04

 Cycle   8  Pass 1  IDiag  1:
 RMSU=  2.21D-05    CP:  6.19D-01  8.37D-01  6.16D-01  1.08D+00  7.80D-01
                    CP:  1.14D+00  1.08D+00
 E= -576.414855553430     Delta-E=       -0.000001343968 Rises=F Damp=F
 DIIS: error= 1.78D-05 at cycle   8 NSaved=   8.
 NSaved= 8 IEnMin= 8 EnMin= -576.414855553430     IErMin= 8 ErrMin= 1.78D-05
 ErrMax= 1.78D-05  0.00D+00 EMaxC= 1.00D-01 BMatC= 9.17D-08 BMatP= 5.24D-07
 IDIUse=1 WtCom= 1.00D+00 WtEn= 0.00D+00
 Coeff-Com:  0.556D-04 0.832D-03 0.392D-03-0.123D-01-0.589D-01-0.291D-01
 Coeff-Com:  0.310D+00 0.789D+00
 Coeff:      0.556D-04 0.832D-03 0.392D-03-0.123D-01-0.589D-01-0.291D-01
 Coeff:      0.310D+00 0.789D+00
 Gap=     0.330 Goal=   None    Shift=    0.000
 RMSDP=1.50D-05 MaxDP=9.39D-04 DE=-1.34D-06 OVMax= 2.49D-04

 Cycle   9  Pass 1  IDiag  1:
 RMSU=  6.66D-06    CP:  6.19D-01  8.38D-01  6.17D-01  1.08D+00  7.79D-01
                    CP:  1.19D+00  1.10D+00  1.17D+00
 E= -576.414855760547     Delta-E=       -0.000000207116 Rises=F Damp=F
 DIIS: error= 5.87D-06 at cycle   9 NSaved=   9.
 NSaved= 9 IEnMin= 9 EnMin= -576.414855760547     IErMin= 9 ErrMin= 5.87D-06
 ErrMax= 5.87D-06  0.00D+00 EMaxC= 1.00D-01 BMatC= 7.90D-09 BMatP= 9.17D-08
 IDIUse=1 WtCom= 1.00D+00 WtEn= 0.00D+00
 Coeff-Com:  0.431D-04 0.767D-03 0.785D-03-0.609D-03-0.968D-02-0.181D-01
 Coeff-Com: -0.698D-01 0.146D+00 0.951D+00
 Coeff:      0.431D-04 0.767D-03 0.785D-03-0.609D-03-0.968D-02-0.181D-01
 Coeff:     -0.698D-01 0.146D+00 0.951D+00
 Gap=     0.330 Goal=   None    Shift=    0.000
 RMSDP=5.73D-06 MaxDP=4.13D-04 DE=-2.07D-07 OVMax= 1.26D-04

 Cycle  10  Pass 1  IDiag  1:
 RMSU=  1.83D-06    CP:  6.19D-01  8.38D-01  6.17D-01  1.08D+00  7.76D-01
                    CP:  1.20D+00  1.10D+00  1.32D+00  1.44D+00
 E= -576.414855788227     Delta-E=       -0.000000027680 Rises=F Damp=F
 DIIS: error= 1.72D-06 at cycle  10 NSaved=  10.
 NSaved=10 IEnMin=10 EnMin= -576.414855788227     IErMin=10 ErrMin= 1.72D-06
 ErrMax= 1.72D-06  0.00D+00 EMaxC= 1.00D-01 BMatC= 8.55D-10 BMatP= 7.90D-09
 IDIUse=1 WtCom= 1.00D+00 WtEn= 0.00D+00
 Coeff-Com: -0.321D-05-0.241D-04 0.177D-04 0.155D-02 0.569D-02 0.260D-02
 Coeff-Com: -0.351D-01-0.740D-01 0.784D-01 0.102D+01
 Coeff:     -0.321D-05-0.241D-04 0.177D-04 0.155D-02 0.569D-02 0.260D-02
 Coeff:     -0.351D-01-0.740D-01 0.784D-01 0.102D+01
 Gap=     0.330 Goal=   None    Shift=    0.000
 RMSDP=2.21D-06 MaxDP=1.44D-04 DE=-2.77D-08 OVMax= 4.90D-05

 Cycle  11  Pass 1  IDiag  1:
 RMSU=  1.04D-06    CP:  6.19D-01  8.38D-01  6.17D-01  1.08D+00  7.76D-01
                    CP:  1.19D+00  1.09D+00  1.36D+00  1.55D+00  1.08D+00
 E= -576.414855792225     Delta-E=       -0.000000003999 Rises=F Damp=F
 DIIS: error= 9.52D-07 at cycle  11 NSaved=  11.
 NSaved=11 IEnMin=11 EnMin= -576.414855792225     IErMin=11 ErrMin= 9.52D-07
 ErrMax= 9.52D-07  0.00D+00 EMaxC= 1.00D-01 BMatC= 1.71D-10 BMatP= 8.55D-10
 IDIUse=1 WtCom= 1.00D+00 WtEn= 0.00D+00
 Coeff-Com: -0.449D-05-0.705D-04-0.632D-04 0.432D-03 0.203D-02 0.207D-02
 Coeff-Com: -0.651D-03-0.323D-01-0.883D-01 0.229D+00 0.888D+00
 Coeff:     -0.449D-05-0.705D-04-0.632D-04 0.432D-03 0.203D-02 0.207D-02
 Coeff:     -0.651D-03-0.323D-01-0.883D-01 0.229D+00 0.888D+00
 Gap=     0.330 Goal=   None    Shift=    0.000
 RMSDP=7.63D-07 MaxDP=6.76D-05 DE=-4.00D-09 OVMax= 2.10D-05

 Cycle  12  Pass 1  IDiag  1:
 RMSU=  3.32D-07    CP:  6.19D-01  8.38D-01  6.17D-01  1.08D+00  7.76D-01
                    CP:  1.19D+00  1.09D+00  1.35D+00  1.59D+00  1.15D+00
                    CP:  1.30D+00
 E= -576.414855792993     Delta-E=       -0.000000000768 Rises=F Damp=F
 DIIS: error= 4.73D-07 at cycle  12 NSaved=  12.
 NSaved=12 IEnMin=12 EnMin= -576.414855792993     IErMin=12 ErrMin= 4.73D-07
 ErrMax= 4.73D-07  0.00D+00 EMaxC= 1.00D-01 BMatC= 3.79D-11 BMatP= 1.71D-10
 IDIUse=1 WtCom= 1.00D+00 WtEn= 0.00D+00
 Coeff-Com: -0.410D-07-0.921D-05-0.172D-04-0.296D-03-0.102D-02-0.313D-03
 Coeff-Com:  0.893D-02 0.127D-01-0.385D-01-0.204D+00 0.186D+00 0.104D+01
 Coeff:     -0.410D-07-0.921D-05-0.172D-04-0.296D-03-0.102D-02-0.313D-03
 Coeff:      0.893D-02 0.127D-01-0.385D-01-0.204D+00 0.186D+00 0.104D+01
 Gap=     0.330 Goal=   None    Shift=    0.000
 RMSDP=3.88D-07 MaxDP=2.71D-05 DE=-7.68D-10 OVMax= 1.26D-05

 Cycle  13  Pass 1  IDiag  1:
 RMSU=  1.52D-07    CP:  6.19D-01  8.38D-01  6.17D-01  1.08D+00  7.76D-01
                    CP:  1.19D+00  1.09D+00  1.35D+00  1.60D+00  1.16D+00
                    CP:  1.48D+00  1.55D+00
 E= -576.414855793203     Delta-E=       -0.000000000210 Rises=F Damp=F
 DIIS: error= 1.80D-07 at cycle  13 NSaved=  13.
 NSaved=13 IEnMin=13 EnMin= -576.414855793203     IErMin=13 ErrMin= 1.80D-07
 ErrMax= 1.80D-07  0.00D+00 EMaxC= 1.00D-01 BMatC= 7.86D-12 BMatP= 3.79D-11
 IDIUse=1 WtCom= 1.00D+00 WtEn= 0.00D+00
 Coeff-Com:  0.709D-06 0.762D-05 0.469D-05-0.188D-03-0.685D-03-0.486D-03
 Coeff-Com:  0.311D-02 0.988D-02 0.128D-02-0.108D+00-0.772D-01 0.357D+00
 Coeff-Com:  0.815D+00
 Coeff:      0.709D-06 0.762D-05 0.469D-05-0.188D-03-0.685D-03-0.486D-03
 Coeff:      0.311D-02 0.988D-02 0.128D-02-0.108D+00-0.772D-01 0.357D+00
 Coeff:      0.815D+00
 Gap=     0.330 Goal=   None    Shift=    0.000
 RMSDP=1.72D-07 MaxDP=1.19D-05 DE=-2.10D-10 OVMax= 4.27D-06

 Cycle  14  Pass 1  IDiag  1:
 RMSU=  6.34D-08    CP:  6.19D-01  8.38D-01  6.17D-01  1.08D+00  7.76D-01
                    CP:  1.19D+00  1.09D+00  1.34D+00  1.59D+00  1.14D+00
                    CP:  1.54D+00  1.75D+00  1.30D+00
 E= -576.414855793245     Delta-E=       -0.000000000042 Rises=F Damp=F
 DIIS: error= 5.60D-08 at cycle  14 NSaved=  14.
 NSaved=14 IEnMin=14 EnMin= -576.414855793245     IErMin=14 ErrMin= 5.60D-08
 ErrMax= 5.60D-08  0.00D+00 EMaxC= 1.00D-01 BMatC= 1.05D-12 BMatP= 7.86D-12
 IDIUse=1 WtCom= 1.00D+00 WtEn= 0.00D+00
 Coeff-Com:  0.142D-06 0.329D-05 0.492D-05 0.947D-06 0.308D-04-0.598D-04
 Coeff-Com: -0.814D-03-0.193D-04 0.608D-02 0.997D-02-0.440D-01-0.106D+00
 Coeff-Com:  0.156D+00 0.979D+00
 Coeff:      0.142D-06 0.329D-05 0.492D-05 0.947D-06 0.308D-04-0.598D-04
 Coeff:     -0.814D-03-0.193D-04 0.608D-02 0.997D-02-0.440D-01-0.106D+00
 Coeff:      0.156D+00 0.979D+00
 Gap=     0.330 Goal=   None    Shift=    0.000
 RMSDP=7.16D-08 MaxDP=5.77D-06 DE=-4.23D-11 OVMax= 1.90D-06

 Cycle  15  Pass 1  IDiag  1:
 RMSU=  1.69D-08    CP:  6.19D-01  8.38D-01  6.17D-01  1.08D+00  7.76D-01
                    CP:  1.19D+00  1.09D+00  1.34D+00  1.58D+00  1.13D+00
                    CP:  1.55D+00  1.84D+00  1.51D+00  1.15D+00
 E= -576.414855793238     Delta-E=        0.000000000007 Rises=F Damp=F
 DIIS: error= 2.21D-08 at cycle  15 NSaved=  15.
 NSaved=15 IEnMin=14 EnMin= -576.414855793245     IErMin=15 ErrMin= 2.21D-08
 ErrMax= 2.21D-08  0.00D+00 EMaxC= 1.00D-01 BMatC= 1.92D-13 BMatP= 1.05D-12
 IDIUse=1 WtCom= 1.00D+00 WtEn= 0.00D+00
 Coeff-Com: -0.371D-07 0.396D-06 0.158D-05 0.253D-04 0.106D-03 0.478D-04
 Coeff-Com: -0.709D-03-0.129D-02 0.236D-02 0.189D-01-0.583D-02-0.921D-01
 Coeff-Com: -0.569D-01 0.385D+00 0.751D+00
 Coeff:     -0.371D-07 0.396D-06 0.158D-05 0.253D-04 0.106D-03 0.478D-04
 Coeff:     -0.709D-03-0.129D-02 0.236D-02 0.189D-01-0.583D-02-0.921D-01
 Coeff:     -0.569D-01 0.385D+00 0.751D+00
 Gap=     0.330 Goal=   None    Shift=    0.000
 RMSDP=2.00D-08 MaxDP=1.76D-06 DE= 7.28D-12 OVMax= 4.77D-07

 Cycle  16  Pass 1  IDiag  1:
 RMSU=  6.61D-09    CP:  6.19D-01  8.38D-01  6.17D-01  1.08D+00  7.76D-01
                    CP:  1.19D+00  1.09D+00  1.34D+00  1.58D+00  1.13D+00
                    CP:  1.54D+00  1.86D+00  1.55D+00  1.24D+00  1.05D+00
 E= -576.414855793235     Delta-E=        0.000000000003 Rises=F Damp=F
 DIIS: error= 4.72D-09 at cycle  16 NSaved=  16.
 NSaved=16 IEnMin=14 EnMin= -576.414855793245     IErMin=16 ErrMin= 4.72D-09
 ErrMax= 4.72D-09  0.00D+00 EMaxC= 1.00D-01 BMatC= 5.98D-15 BMatP= 1.92D-13
 IDIUse=1 WtCom= 1.00D+00 WtEn= 0.00D+00
 Coeff-Com: -0.974D-08-0.245D-06-0.343D-06 0.164D-05 0.267D-05 0.114D-04
 Coeff-Com:  0.366D-04-0.921D-04-0.512D-03 0.100D-04 0.413D-02 0.533D-02
 Coeff-Com: -0.188D-01-0.710D-01 0.312D-01 0.105D+01
 Coeff:     -0.974D-08-0.245D-06-0.343D-06 0.164D-05 0.267D-05 0.114D-04
 Coeff:      0.366D-04-0.921D-04-0.512D-03 0.100D-04 0.413D-02 0.533D-02
 Coeff:     -0.188D-01-0.710D-01 0.312D-01 0.105D+01
 Gap=     0.330 Goal=   None    Shift=    0.000
 RMSDP=5.91D-09 MaxDP=3.57D-07 DE= 2.73D-12 OVMax= 1.30D-07

 SCF Done:  E(RwB97XD) =  -576.414855793     A.U. after   16 cycles
            NFock= 16  Conv=0.59D-08     -V/T= 2.0000
 KE= 5.764007864365D+02 PE=-2.903664410189D+03 EE= 9.701149188028D+02
 Leave Link  502 at Tue Nov 22 15:04:18 2022, MaxMem= 16106127360 cpu:            1201.3 elap:              37.6
 (Enter /opt/ap/G16/B01/g16/l601.exe)
 Copying SCF densities to generalized density rwf, IOpCl= 0 IROHF=0.

 **********************************************************************

            Population analysis using the SCF Density.

 **********************************************************************

 Orbital symmetries:
       Occupied  (A) (A) (A) (A) (A) (A) (A) (A) (A) (A) (A) (A)
                 (A) (A) (A) (A) (A) (A) (A) (A) (A) (A) (A) (A)
                 (A) (A) (A) (A) (A) (A) (A) (A) (A) (A) (A) (A)
                 (A) (A) (A) (A) (A) (A) (A) (A) (A) (A) (A) (A)
       Virtual   (A) (A) (A) (A) (A) (A) (A) (A) (A) (A) (A) (A)
                 (A) (A) (A) (A) (A) (A) (A) (A) (A) (A) (A) (A)
                 (A) (A) (A) (A) (A) (A) (A) (A) (A) (A) (A) (A)
                 (A) (A) (A) (A) (A) (A) (A) (A) (A) (A) (A) (A)
                 (A) (A) (A) (A) (A) (A) (A) (A) (A) (A) (A) (A)
                 (A) (A) (A) (A) (A) (A) (A) (A) (A) (A) (A) (A)
                 (A) (A) (A) (A) (A) (A) (A) (A) (A) (A) (A) (A)
                 (A) (A) (A) (A) (A) (A) (A) (A) (A) (A) (A) (A)
                 (A) (A) (A) (A) (A) (A) (A) (A) (A) (A) (A) (A)
                 (A) (A) (A) (A) (A) (A) (A) (A) (A) (A) (A) (A)
                 (A) (A) (A) (A) (A) (A) (A) (A) (A) (A) (A) (A)
                 (A) (A) (A) (A) (A) (A) (A) (A) (A) (A) (A) (A)
                 (A) (A) (A) (A) (A) (A) (A) (A) (A) (A) (A) (A)
                 (A) (A) (A) (A) (A) (A) (A) (A) (A) (A) (A) (A)
                 (A) (A) (A) (A) (A) (A) (A) (A) (A) (A) (A) (A)
                 (A) (A) (A) (A) (A) (A) (A) (A) (A) (A) (A) (A)
                 (A) (A) (A) (A) (A) (A) (A) (A) (A) (A) (A) (A)
                 (A) (A) (A) (A) (A) (A) (A) (A) (A) (A) (A) (A)
                 (A) (A) (A) (A) (A) (A) (A) (A) (A) (A) (A) (A)
                 (A) (A) (A) (A) (A) (A) (A) (A) (A) (A) (A) (A)
                 (A) (A) (A) (A) (A) (A) (A) (A) (A) (A) (A) (A)
                 (A) (A) (A) (A) (A) (A) (A) (A) (A) (A) (A) (A)
                 (A) (A) (A) (A) (A) (A) (A) (A) (A) (A) (A) (A)
                 (A) (A) (A) (A) (A) (A) (A) (A) (A) (A) (A) (A)
                 (A) (A) (A) (A) (A) (A) (A) (A) (A) (A) (A) (A)
                 (A) (A) (A) (A) (A) (A) (A) (A) (A) (A) (A) (A)
                 (A) (A) (A) (A) (A) (A) (A) (A) (A) (A) (A) (A)
                 (A) (A) (A) (A)
 The electronic state is 1-A.
 Alpha  occ. eigenvalues --  -19.24232 -10.38421 -10.30594 -10.30539 -10.29035
 Alpha  occ. eigenvalues --  -10.28710 -10.28694 -10.28486 -10.28483 -10.28429
 Alpha  occ. eigenvalues --  -10.28279 -10.28249 -10.28069 -10.28010  -1.15128
 Alpha  occ. eigenvalues --   -0.97841  -0.97374  -0.89027  -0.87376  -0.87201
 Alpha  occ. eigenvalues --   -0.86826  -0.76767  -0.73881  -0.73402  -0.72563
 Alpha  occ. eigenvalues --   -0.67993  -0.65480  -0.62813  -0.60351  -0.56807
 Alpha  occ. eigenvalues --   -0.56253  -0.55532  -0.54472  -0.53953  -0.53819
 Alpha  occ. eigenvalues --   -0.52340  -0.49155  -0.47125  -0.46555  -0.46300
 Alpha  occ. eigenvalues --   -0.45577  -0.44948  -0.44166  -0.35222  -0.34792
 Alpha  occ. eigenvalues --   -0.34260  -0.33905  -0.33000
 Alpha virt. eigenvalues --    0.00015   0.03610   0.03883   0.04153   0.04334
 Alpha virt. eigenvalues --    0.05092   0.05115   0.05364   0.05861   0.06849
 Alpha virt. eigenvalues --    0.07399   0.07957   0.08848   0.09598   0.10176
 Alpha virt. eigenvalues --    0.11348   0.11876   0.13122   0.13468   0.14439
 Alpha virt. eigenvalues --    0.14747   0.14982   0.15376   0.15844   0.16496
 Alpha virt. eigenvalues --    0.17004   0.17130   0.17274   0.17655   0.17762
 Alpha virt. eigenvalues --    0.18039   0.18464   0.18710   0.19014   0.19145
 Alpha virt. eigenvalues --    0.19436   0.19902   0.20398   0.20521   0.20693
 Alpha virt. eigenvalues --    0.21551   0.21855   0.22452   0.23261   0.23714
 Alpha virt. eigenvalues --    0.23974   0.24408   0.24664   0.25327   0.26153
 Alpha virt. eigenvalues --    0.26245   0.27313   0.27643   0.27957   0.28102
 Alpha virt. eigenvalues --    0.28617   0.29271   0.30050   0.30234   0.30980
 Alpha virt. eigenvalues --    0.31267   0.31526   0.32418   0.33134   0.33792
 Alpha virt. eigenvalues --    0.34675   0.35117   0.35247   0.35468   0.36388
 Alpha virt. eigenvalues --    0.37165   0.37632   0.37909   0.38616   0.38829
 Alpha virt. eigenvalues --    0.39450   0.39580   0.41131   0.41380   0.42273
 Alpha virt. eigenvalues --    0.42354   0.43116   0.43837   0.44361   0.45111
 Alpha virt. eigenvalues --    0.45769   0.46208   0.46623   0.47516   0.50459
 Alpha virt. eigenvalues --    0.50842   0.56080   0.57365   0.57948   0.61078
 Alpha virt. eigenvalues --    0.61550   0.62023   0.62704   0.63325   0.63632
 Alpha virt. eigenvalues --    0.64000   0.64380   0.64993   0.65308   0.65698
 Alpha virt. eigenvalues --    0.66040   0.66302   0.67884   0.69014   0.70488
 Alpha virt. eigenvalues --    0.71335   0.71883   0.73259   0.73475   0.74698
 Alpha virt. eigenvalues --    0.75382   0.75993   0.76578   0.77110   0.78457
 Alpha virt. eigenvalues --    0.80134   0.80726   0.81168   0.82079   0.82926
 Alpha virt. eigenvalues --    0.83600   0.84051   0.85106   0.87641   0.88020
 Alpha virt. eigenvalues --    0.88444   0.90057   0.92604   0.93213   0.93803
 Alpha virt. eigenvalues --    0.94115   0.94665   0.95119   0.95783   0.96866
 Alpha virt. eigenvalues --    0.97136   0.97729   0.98620   0.99485   1.01596
 Alpha virt. eigenvalues --    1.02318   1.02708   1.03163   1.04815   1.05834
 Alpha virt. eigenvalues --    1.06574   1.08626   1.11410   1.12033   1.13326
 Alpha virt. eigenvalues --    1.14687   1.16108   1.16774   1.17386   1.18090
 Alpha virt. eigenvalues --    1.19202   1.21069   1.22015   1.22980   1.23389
 Alpha virt. eigenvalues --    1.28494   1.30232   1.32815   1.35134   1.39690
 Alpha virt. eigenvalues --    1.41763   1.43469   1.44742   1.48348   1.54714
 Alpha virt. eigenvalues --    1.57329   1.58289   1.59266   1.60539   1.61209
 Alpha virt. eigenvalues --    1.62816   1.63241   1.64244   1.65676   1.66383
 Alpha virt. eigenvalues --    1.68174   1.68773   1.68862   1.69353   1.73814
 Alpha virt. eigenvalues --    1.74949   1.75311   1.75952   1.77005   1.77659
 Alpha virt. eigenvalues --    1.79578   1.84251   1.85559   1.86755   1.88530
 Alpha virt. eigenvalues --    1.90007   1.91401   1.91935   1.92200   1.94434
 Alpha virt. eigenvalues --    1.95116   1.95371   1.98204   2.00689   2.00997
 Alpha virt. eigenvalues --    2.01821   2.02944   2.04473   2.05054   2.05439
 Alpha virt. eigenvalues --    2.05735   2.07810   2.08961   2.09847   2.10686
 Alpha virt. eigenvalues --    2.11588   2.15513   2.15828   2.17751   2.20977
 Alpha virt. eigenvalues --    2.21457   2.26647   2.26865   2.27685   2.30574
 Alpha virt. eigenvalues --    2.32690   2.42539   2.44135   2.47165   2.47755
 Alpha virt. eigenvalues --    2.48596   2.49807   2.50627   2.50986   2.54437
 Alpha virt. eigenvalues --    2.58676   2.59395   2.60313   2.66854   2.68309
 Alpha virt. eigenvalues --    2.70684   2.78159   2.79781   2.81066   2.82582
 Alpha virt. eigenvalues --    2.83374   2.84285   2.85353   2.87794   2.88292
 Alpha virt. eigenvalues --    2.91340   2.92023   2.93075   2.94533   2.95909
 Alpha virt. eigenvalues --    2.96477   2.98071   2.99426   2.99957   3.00412
 Alpha virt. eigenvalues --    3.00774   3.01158   3.02240   3.02817   3.03563
 Alpha virt. eigenvalues --    3.05917   3.09188   3.12997   3.15030   3.18446
 Alpha virt. eigenvalues --    3.19624   3.20394   3.24071   3.25217   3.25399
 Alpha virt. eigenvalues --    3.27923   3.30949   3.31977   3.37357   3.44775
 Alpha virt. eigenvalues --    3.48821   3.49387   3.51020   3.53457   3.64935
 Alpha virt. eigenvalues --    3.70135   3.70720   3.70924   3.75351   3.76814
 Alpha virt. eigenvalues --    3.83400   3.89048   3.91164   4.00243   4.29687
 Alpha virt. eigenvalues --    4.36854   4.37409   4.39088   4.40712   4.41562
 Alpha virt. eigenvalues --    4.42738   4.50835   4.51167   4.52566   4.94966
 Alpha virt. eigenvalues --    4.95482   5.22338   5.35020   5.85694  23.89323
 Alpha virt. eigenvalues --   23.95805  23.98415  24.17241  24.19592  24.24073
 Alpha virt. eigenvalues --   24.24736  24.30158  24.31393  24.34066  24.34137
 Alpha virt. eigenvalues --   24.43240  24.44451  50.14076
          Condensed to atoms (all electrons):
               1          2          3          4          5          6
     1  C   11.453807  -0.685997  -0.448226  -0.486227   0.017180  -1.618477
     2  C   -0.685997  13.216790  -4.058392  -1.410806   0.557167  -3.065067
     3  C   -0.448226  -4.058392   9.667371   0.443621  -0.019250   0.168837
     4  C   -0.486227  -1.410806   0.443621   6.837033  -0.156251   1.055810
     5  H    0.017180   0.557167  -0.019250  -0.156251   0.494054  -0.107977
     6  C   -1.618477  -3.065067   0.168837   1.055810  -0.107977  17.289431
     7  C   -0.679701  -0.155267   0.496056  -0.069355   0.015003   0.245914
     8  H    0.102782   0.062170   0.338342   0.003757  -0.001639  -0.018945
     9  C   -0.464149   0.857211  -0.678612  -0.095850   0.009311  -0.568752
    10  H    0.034602  -0.129630   0.024788   0.475671  -0.013646   0.021220
    11  C   -1.832571   1.093683  -0.146304  -0.286253   0.023817  -6.291798
    12  O    0.146947   0.199916  -0.198036  -0.008249   0.000320   0.273778
    13  H   -0.009038  -0.024252  -0.032529   0.015397   0.001857   0.011242
    14  H    0.026922   0.019724  -0.013719  -0.070999  -0.000709  -0.016262
    15  C   -0.142378   0.583831   0.368927  -0.194950   0.028142  -2.868603
    16  C   -0.307267  -0.499700  -0.060167   0.255638  -0.039363   1.629928
    17  C   -0.190938  -0.304090   0.154624   0.095643  -0.017926   1.239853
    18  H   -0.000562   0.070743  -0.042193  -0.013668   0.000215  -0.121065
    19  C   -0.058853  -0.161462  -0.002171   0.041604  -0.009583   0.245597
    20  H    0.015466  -0.031809   0.031456  -0.010681  -0.000659  -0.047580
    21  C    0.040998   0.062597   0.007164  -0.014492   0.009844  -0.175785
    22  H   -0.004365  -0.011888   0.006352   0.001620  -0.000692   0.019531
    23  H   -0.009374   0.001183  -0.002922   0.001446  -0.000630   0.015941
    24  H    0.002972   0.000660   0.001011  -0.000912   0.000408  -0.022810
               7          8          9         10         11         12
     1  C   -0.679701   0.102782  -0.464149   0.034602  -1.832571   0.146947
     2  C   -0.155267   0.062170   0.857211  -0.129630   1.093683   0.199916
     3  C    0.496056   0.338342  -0.678612   0.024788  -0.146304  -0.198036
     4  C   -0.069355   0.003757  -0.095850   0.475671  -0.286253  -0.008249
     5  H    0.015003  -0.001639   0.009311  -0.013646   0.023817   0.000320
     6  C    0.245914  -0.018945  -0.568752   0.021220  -6.291798   0.273778
     7  C    5.735180  -0.083644   0.471583   0.004929  -0.191866  -0.038009
     8  H   -0.083644   0.488024  -0.010226   0.000404  -0.041800  -0.009421
     9  C    0.471583  -0.010226   6.164260  -0.091166   0.180734   0.019215
    10  H    0.004929   0.000404  -0.091166   0.489006  -0.001584  -0.000321
    11  C   -0.191866  -0.041800   0.180734  -0.001584  15.623131  -0.015771
    12  O   -0.038009  -0.009421   0.019215  -0.000321  -0.015771   7.868813
    13  H    0.452323  -0.015425  -0.081018   0.000386  -0.001308  -0.000664
    14  H   -0.067689   0.001778   0.472420  -0.012119   0.001067   0.000263
    15  C    0.168488  -0.061030   0.098523  -0.006024   1.433027   0.035374
    16  C   -0.075506   0.026241  -0.069424   0.003450  -1.961987  -0.048513
    17  C    0.085035  -0.004741  -0.039202   0.002729  -1.832302  -0.014690
    18  H   -0.011292  -0.002116   0.021459  -0.001186   0.015274   0.000137
    19  C   -0.022896  -0.000075  -0.007121   0.000266  -0.811989  -0.016919
    20  H    0.003746  -0.000585   0.001299  -0.000091   0.080655  -0.012316
    21  C    0.014629  -0.001239   0.000294  -0.000014  -0.158051   0.008951
    22  H    0.000268   0.000071  -0.000835   0.000105   0.040367  -0.000031
    23  H   -0.000647   0.000040  -0.000077   0.000023  -0.011719   0.000487
    24  H    0.000248  -0.000093   0.000101  -0.000013   0.021092   0.000256
              13         14         15         16         17         18
     1  C   -0.009038   0.026922  -0.142378  -0.307267  -0.190938  -0.000562
     2  C   -0.024252   0.019724   0.583831  -0.499700  -0.304090   0.070743
     3  C   -0.032529  -0.013719   0.368927  -0.060167   0.154624  -0.042193
     4  C    0.015397  -0.070999  -0.194950   0.255638   0.095643  -0.013668
     5  H    0.001857  -0.000709   0.028142  -0.039363  -0.017926   0.000215
     6  C    0.011242  -0.016262  -2.868603   1.629928   1.239853  -0.121065
     7  C    0.452323  -0.067689   0.168488  -0.075506   0.085035  -0.011292
     8  H   -0.015425   0.001778  -0.061030   0.026241  -0.004741  -0.002116
     9  C   -0.081018   0.472420   0.098523  -0.069424  -0.039202   0.021459
    10  H    0.000386  -0.012119  -0.006024   0.003450   0.002729  -0.001186
    11  C   -0.001308   0.001067   1.433027  -1.961987  -1.832302   0.015274
    12  O   -0.000664   0.000263   0.035374  -0.048513  -0.014690   0.000137
    13  H    0.492870  -0.013742   0.004165  -0.001032   0.001892  -0.001927
    14  H   -0.013742   0.491631  -0.002918   0.000365  -0.001499   0.000236
    15  C    0.004165  -0.002918  12.823436  -4.309025  -1.945919   0.672697
    16  C   -0.001032   0.000365  -4.309025  10.518262   0.861519  -0.101214
    17  C    0.001892  -0.001499  -1.945919   0.861519   7.554330  -0.153866
    18  H   -0.001927   0.000236   0.672697  -0.101214  -0.153866   0.488822
    19  C   -0.000086   0.000037  -0.013597   0.407054  -0.084861   0.018126
    20  H   -0.000077   0.000043   0.053409   0.368728   0.004162   0.000083
    21  C    0.000434  -0.000132   0.067990  -0.616992   0.570139   0.007662
    22  H    0.000067  -0.000008  -0.147165   0.053296   0.453660  -0.017551
    23  H   -0.000000  -0.000002  -0.022878  -0.058483   0.013618  -0.000761
    24  H    0.000007  -0.000001   0.011213  -0.043766  -0.079981   0.001672
              19         20         21         22         23         24
     1  C   -0.058853   0.015466   0.040998  -0.004365  -0.009374   0.002972
     2  C   -0.161462  -0.031809   0.062597  -0.011888   0.001183   0.000660
     3  C   -0.002171   0.031456   0.007164   0.006352  -0.002922   0.001011
     4  C    0.041604  -0.010681  -0.014492   0.001620   0.001446  -0.000912
     5  H   -0.009583  -0.000659   0.009844  -0.000692  -0.000630   0.000408
     6  C    0.245597  -0.047580  -0.175785   0.019531   0.015941  -0.022810
     7  C   -0.022896   0.003746   0.014629   0.000268  -0.000647   0.000248
     8  H   -0.000075  -0.000585  -0.001239   0.000071   0.000040  -0.000093
     9  C   -0.007121   0.001299   0.000294  -0.000835  -0.000077   0.000101
    10  H    0.000266  -0.000091  -0.000014   0.000105   0.000023  -0.000013
    11  C   -0.811989   0.080655  -0.158051   0.040367  -0.011719   0.021092
    12  O   -0.016919  -0.012316   0.008951  -0.000031   0.000487   0.000256
    13  H   -0.000086  -0.000077   0.000434   0.000067  -0.000000   0.000007
    14  H    0.000037   0.000043  -0.000132  -0.000008  -0.000002  -0.000001
    15  C   -0.013597   0.053409   0.067990  -0.147165  -0.022878   0.011213
    16  C    0.407054   0.368728  -0.616992   0.053296  -0.058483  -0.043766
    17  C   -0.084861   0.004162   0.570139   0.453660   0.013618  -0.079981
    18  H    0.018126   0.000083   0.007662  -0.017551  -0.000761   0.001672
    19  C    6.219105  -0.137651   0.378020   0.002600   0.486491  -0.062718
    20  H   -0.137651   0.461809  -0.002032   0.000176  -0.013658   0.001788
    21  C    0.378020  -0.002032   5.686687  -0.077863  -0.066030   0.522450
    22  H    0.002600   0.000176  -0.077863   0.489280   0.001425  -0.015989
    23  H    0.486491  -0.013658  -0.066030   0.001425   0.484523  -0.016831
    24  H   -0.062718   0.001788   0.522450  -0.015989  -0.016831   0.498533
 Mulliken charges:
               1
     1  C    1.096448
     2  C   -0.187317
     3  C   -0.006028
     4  C   -0.408546
     5  H    0.211008
     6  C   -1.293962
     7  C   -0.297527
     8  H    0.227371
     9  C   -0.189977
    10  H    0.198215
    11  C    1.072456
    12  O   -0.191516
    13  H    0.200459
    14  H    0.185316
    15  C   -0.634734
    16  C    0.067959
    17  C   -0.367192
    18  H    0.170277
    19  C   -0.408916
    20  H    0.234321
    21  C   -0.265226
    22  H    0.207568
    23  H    0.198836
    24  H    0.180706
 Sum of Mulliken charges =  -0.00000
 Mulliken charges with hydrogens summed into heavy atoms:
               1
     1  C    1.096448
     2  C    0.023691
     3  C    0.221343
     4  C   -0.210331
     6  C   -1.293962
     7  C   -0.097068
     9  C   -0.004661
    11  C    1.072456
    12  O   -0.191516
    15  C   -0.464458
    16  C    0.302280
    17  C   -0.159623
    19  C   -0.210080
    21  C   -0.084520
 Electronic spatial extent (au):  <R**2>=           3068.5695
 Charge=             -0.0000 electrons
 Dipole moment (field-independent basis, Debye):
    X=              0.2932    Y=             -3.2058    Z=              0.2143  Tot=              3.2263
 Quadrupole moment (field-independent basis, Debye-Ang):
   XX=            -65.3302   YY=            -86.4160   ZZ=            -76.7070
   XY=              1.7491   XZ=              2.2334   YZ=              1.2123
 Traceless Quadrupole moment (field-independent basis, Debye-Ang):
   XX=             10.8209   YY=            -10.2649   ZZ=             -0.5560
   XY=              1.7491   XZ=              2.2334   YZ=              1.2123
 Octapole moment (field-independent basis, Debye-Ang**2):
  XXX=             11.3691  YYY=            -19.1166  ZZZ=              0.7301  XYY=             13.3797
  XXY=            -15.7798  XXZ=              2.0173  XZZ=            -15.5728  YZZ=              2.5068
  YYZ=              0.2005  XYZ=             13.7378
 Hexadecapole moment (field-independent basis, Debye-Ang**3):
 XXXX=          -2885.9345 YYYY=           -637.9271 ZZZZ=           -333.4351 XXXY=             44.9420
 XXXZ=             55.8932 YYYX=            -11.1637 YYYZ=             17.5530 ZZZX=              5.2846
 ZZZY=            -13.0698 XXYY=           -616.4672 XXZZ=           -589.8093 YYZZ=           -151.9388
 XXYZ=              3.6875 YYXZ=             -8.4346 ZZXY=             10.2593
 N-N= 7.807338491565D+02 E-N=-2.903664410008D+03  KE= 5.764007864365D+02
 No NMR shielding tensors so no spin-rotation constants.
 Leave Link  601 at Tue Nov 22 15:04:19 2022, MaxMem= 16106127360 cpu:               5.8 elap:               0.2
 (Enter /opt/ap/G16/B01/g16/l9999.exe)
 1\1\GINC-N13\SP\RwB97XD\6-311++G(d,p)\C13H10O1\ROOT\22-Nov-2022\0\\#P 
 wB97XD/6-311++G(d,p) scf=maxcycle=512\\_conf032.gjf nmol_natom 1_24\\0
 ,1\C\C,1,1.39746343\C,1,1.39996263,2,119.28066518\C,2,1.39288453,1,120
 .37436646,3,-0.51002981,0\H,2,0.95014703,1,119.82324024,3,179.45634896
 ,0\C,1,1.49653039,2,122.77761373,4,174.46828757,0\C,3,1.3870125,1,120.
 10017821,2,-0.37315804,0\H,3,0.9501092,1,119.95246451,2,179.5923884,0\
 C,7,1.38720039,3,120.16568731,1,1.0745106,0\H,4,0.95011919,2,120.18755
 644,1,-179.31195299,0\C,6,1.49516902,1,120.70972921,2,70.,0\O,6,1.2215
 0059,1,119.67074267,2,-110.,0\H,7,0.94956661,3,119.91274826,1,-178.886
 36029,0\H,9,0.94992259,7,119.76037934,3,179.10763853,0\C,11,1.39713972
 ,6,122.62585705,1,30.97749054,0\C,11,1.40039562,6,117.74753532,1,-153.
 15467779,0\C,15,1.39455701,11,119.80747484,6,175.4763048,0\H,15,0.9496
 2854,11,120.10535689,6,-4.50802339,0\C,16,1.38466431,11,120.4617377,6,
 -176.88197195,0\H,16,0.9497464,11,119.75779177,6,3.14699974,0\C,17,1.3
 9088945,15,120.3475273,11,0.7973643,0\H,17,0.94984298,15,119.8156451,1
 1,-179.16676483,0\H,19,0.94974749,16,119.98566335,11,-178.40987425,0\H
 ,21,0.94938585,17,120.0744529,15,179.91636093,0\\Version=ES64L-G16RevB
 .01\State=1-A\HF=-576.4148558\RMSD=5.914e-09\Dipole=0.1136869,1.113052
 6,0.5994416\Quadrupole=7.6573382,-5.4705875,-2.1867507,-2.4483837,1.37
 11739,-3.5046343\PG=C01 [X(C13H10O1)]\\@


 DO NOT LET SELFISH MEN OR GREEDY INTERESTS SKIN YOUR COUNTRY OF ITS
 BEAUTY, ITS RICHES, OR ITS ROMANCE. -- THEODORE ROOSEVELT
 Job cpu time:       0 days  0 hours 20 minutes 50.0 seconds.
 Elapsed time:       0 days  0 hours  0 minutes 39.2 seconds.
 File lengths (MBytes):  RWF=     78 Int=      0 D2E=      0 Chk=      9 Scr=      1
 Normal termination of Gaussian 16 at Tue Nov 22 15:04:19 2022.
