 Entering Gaussian System, Link 0=g16
 Input=_conf029.gjf
 Output=_conf029.log
 Initial command:
 /opt/ap/G16/B01/g16/l1.exe "/tmp2/scr/Gau-14259.inp" -scrdir="/tmp2/scr/"
 Entering Link 1 = /opt/ap/G16/B01/g16/l1.exe PID=     14260.
  
 Copyright (c) 1988-2017, Gaussian, Inc.  All Rights Reserved.
  
 This is part of the Gaussian(R) 16 program.  It is based on
 the Gaussian(R) 09 system (copyright 2009, Gaussian, Inc.),
 the Gaussian(R) 03 system (copyright 2003, Gaussian, Inc.),
 the Gaussian(R) 98 system (copyright 1998, Gaussian, Inc.),
 the Gaussian(R) 94 system (copyright 1995, Gaussian, Inc.),
 the Gaussian 92(TM) system (copyright 1992, Gaussian, Inc.),
 the Gaussian 90(TM) system (copyright 1990, Gaussian, Inc.),
 the Gaussian 88(TM) system (copyright 1988, Gaussian, Inc.),
 the Gaussian 86(TM) system (copyright 1986, Carnegie Mellon
 University), and the Gaussian 82(TM) system (copyright 1983,
 Carnegie Mellon University). Gaussian is a federally registered
 trademark of Gaussian, Inc.
  
 This software contains proprietary and confidential information,
 including trade secrets, belonging to Gaussian, Inc.
  
 This software is provided under written license and may be
 used, copied, transmitted, or stored only in accord with that
 written license.
  
 The following legend is applicable only to US Government
 contracts under FAR:
  
                    RESTRICTED RIGHTS LEGEND
  
 Use, reproduction and disclosure by the US Government is
 subject to restrictions as set forth in subparagraphs (a)
 and (c) of the Commercial Computer Software - Restricted
 Rights clause in FAR 52.227-19.
  
 Gaussian, Inc.
 340 Quinnipiac St., Bldg. 40, Wallingford CT 06492
  
  
 ---------------------------------------------------------------
 Warning -- This program may not be used in any manner that
 competes with the business of Gaussian, Inc. or will provide
 assistance to any competitor of Gaussian, Inc.  The licensee
 of this program is prohibited from giving any competitor of
 Gaussian, Inc. access to this program.  By using this program,
 the user acknowledges that Gaussian, Inc. is engaged in the
 business of creating and licensing software in the field of
 computational chemistry and represents and warrants to the
 licensee that it is not a competitor of Gaussian, Inc. and that
 it will not use this program in any manner prohibited above.
 ---------------------------------------------------------------
  

 Cite this work as:
 Gaussian 16, Revision B.01,
 M. J. Frisch, G. W. Trucks, H. B. Schlegel, G. E. Scuseria, 
 M. A. Robb, J. R. Cheeseman, G. Scalmani, V. Barone, 
 G. A. Petersson, H. Nakatsuji, X. Li, M. Caricato, A. V. Marenich, 
 J. Bloino, B. G. Janesko, R. Gomperts, B. Mennucci, H. P. Hratchian, 
 J. V. Ortiz, A. F. Izmaylov, J. L. Sonnenberg, D. Williams-Young, 
 F. Ding, F. Lipparini, F. Egidi, J. Goings, B. Peng, A. Petrone, 
 T. Henderson, D. Ranasinghe, V. G. Zakrzewski, J. Gao, N. Rega, 
 G. Zheng, W. Liang, M. Hada, M. Ehara, K. Toyota, R. Fukuda, 
 J. Hasegawa, M. Ishida, T. Nakajima, Y. Honda, O. Kitao, H. Nakai, 
 T. Vreven, K. Throssell, J. A. Montgomery, Jr., J. E. Peralta, 
 F. Ogliaro, M. J. Bearpark, J. J. Heyd, E. N. Brothers, K. N. Kudin, 
 V. N. Staroverov, T. A. Keith, R. Kobayashi, J. Normand, 
 K. Raghavachari, A. P. Rendell, J. C. Burant, S. S. Iyengar, 
 J. Tomasi, M. Cossi, J. M. Millam, M. Klene, C. Adamo, R. Cammi, 
 J. W. Ochterski, R. L. Martin, K. Morokuma, O. Farkas, 
 J. B. Foresman, and D. J. Fox, Gaussian, Inc., Wallingford CT, 2016.
 
 ******************************************
 Gaussian 16:  ES64L-G16RevB.01 20-Dec-2017
                22-Nov-2022 
 ******************************************
 %nprocshared=32
 Will use up to   32 processors via shared memory.
 %mem=120GB
 %chk=_conf029.chk
 ----------------------------------------
 #P wB97XD/6-311++G(d,p) scf=maxcycle=512
 ----------------------------------------
 1/38=1,172=1/1;
 2/12=2,17=6,18=5,40=1/2;
 3/5=4,6=6,7=1111,11=2,25=1,30=1,74=-58/1,2,3;
 4//1;
 5/5=2,7=512,38=5/2;
 6/7=2,8=2,9=2,10=2,28=1/1;
 99/5=1,9=1/99;
 Leave Link    1 at Tue Nov 22 15:02:55 2022, MaxMem= 16106127360 cpu:               1.6 elap:               0.1
 (Enter /opt/ap/G16/B01/g16/l101.exe)
 ----------------------------
 _conf029.gjf nmol_natom 1_24
 ----------------------------
 Symbolic Z-matrix:
 Charge =  0 Multiplicity = 1
 C
 C                    1     1.39746 
 C                    1     1.39996  2     119.28067 
 C                    2     1.39288  1     120.37437  3    -0.51003  0
 H                    2     0.95015  1     119.82324  3     179.45635  0
 C                    1     1.49653  2     122.77761  4     174.46829  0
 C                    3     1.38701  1     120.10018  2    -0.37316  0
 H                    3     0.95011  1     119.95246  2     179.59239  0
 C                    7     1.3872   3     120.16569  1     1.07451  0
 H                    4     0.95012  2     120.18756  1    -179.31195  0
 C                    6     1.49517  1     120.70973  2     55.      0
 O                    6     1.2215   1     119.67074  2    -125.     0
 H                    7     0.94957  3     119.91275  1    -178.88636  0
 H                    9     0.94992  7     119.76038  3     179.10764  0
 C                    11    1.39714  6     122.62586  1     30.97749  0
 C                    11    1.4004   6     117.74754  1    -153.15468  0
 C                    15    1.39456  11    119.80747  6     175.4763  0
 H                    15    0.94963  11    120.10536  6    -4.50802  0
 C                    16    1.38466  11    120.46174  6    -176.88197  0
 H                    16    0.94975  11    119.75779  6     3.147    0
 C                    17    1.39089  15    120.34753  11    0.79736  0
 H                    17    0.94984  15    119.81565  11   -179.16676  0
 H                    19    0.94975  16    119.98566  11   -178.40987  0
 H                    21    0.94939  17    120.07445  15    179.91636  0
 
 ITRead=  0  0  0  0  0  0  0  0  0  0  0  0  0  0  0  0  0  0  0  0
 ITRead=  0  0  0  0
 MicOpt= -1 -1 -1 -1 -1 -1 -1 -1 -1 -1 -1 -1 -1 -1 -1 -1 -1 -1 -1 -1
 MicOpt= -1 -1 -1 -1
 NAtoms=     24 NQM=       24 NQMF=       0 NMMI=      0 NMMIF=      0
                NMic=       0 NMicF=      0.
                    Isotopes and Nuclear Properties:
 (Nuclear quadrupole moments (NQMom) in fm**2, nuclear magnetic moments (NMagM)
  in nuclear magnetons)

  Atom         1           2           3           4           5           6           7           8           9          10
 IAtWgt=          12          12          12          12           1          12          12           1          12           1
 AtmWgt=  12.0000000  12.0000000  12.0000000  12.0000000   1.0078250  12.0000000  12.0000000   1.0078250  12.0000000   1.0078250
 NucSpn=           0           0           0           0           1           0           0           1           0           1
 AtZEff=  -0.0000000  -0.0000000  -0.0000000  -0.0000000  -0.0000000  -0.0000000  -0.0000000  -0.0000000  -0.0000000  -0.0000000
 NQMom=    0.0000000   0.0000000   0.0000000   0.0000000   0.0000000   0.0000000   0.0000000   0.0000000   0.0000000   0.0000000
 NMagM=    0.0000000   0.0000000   0.0000000   0.0000000   2.7928460   0.0000000   0.0000000   2.7928460   0.0000000   2.7928460
 AtZNuc=   6.0000000   6.0000000   6.0000000   6.0000000   1.0000000   6.0000000   6.0000000   1.0000000   6.0000000   1.0000000

  Atom        11          12          13          14          15          16          17          18          19          20
 IAtWgt=          12          16           1           1          12          12          12           1          12           1
 AtmWgt=  12.0000000  15.9949146   1.0078250   1.0078250  12.0000000  12.0000000  12.0000000   1.0078250  12.0000000   1.0078250
 NucSpn=           0           0           1           1           0           0           0           1           0           1
 AtZEff=  -0.0000000  -0.0000000  -0.0000000  -0.0000000  -0.0000000  -0.0000000  -0.0000000  -0.0000000  -0.0000000  -0.0000000
 NQMom=    0.0000000   0.0000000   0.0000000   0.0000000   0.0000000   0.0000000   0.0000000   0.0000000   0.0000000   0.0000000
 NMagM=    0.0000000   0.0000000   2.7928460   2.7928460   0.0000000   0.0000000   0.0000000   2.7928460   0.0000000   2.7928460
 AtZNuc=   6.0000000   8.0000000   1.0000000   1.0000000   6.0000000   6.0000000   6.0000000   1.0000000   6.0000000   1.0000000

  Atom        21          22          23          24
 IAtWgt=          12           1           1           1
 AtmWgt=  12.0000000   1.0078250   1.0078250   1.0078250
 NucSpn=           0           1           1           1
 AtZEff=  -0.0000000  -0.0000000  -0.0000000  -0.0000000
 NQMom=    0.0000000   0.0000000   0.0000000   0.0000000
 NMagM=    0.0000000   2.7928460   2.7928460   2.7928460
 AtZNuc=   6.0000000   1.0000000   1.0000000   1.0000000
 Leave Link  101 at Tue Nov 22 15:02:55 2022, MaxMem= 16106127360 cpu:               5.2 elap:               0.2
 (Enter /opt/ap/G16/B01/g16/l202.exe)
                          Input orientation:                          
 ---------------------------------------------------------------------
 Center     Atomic      Atomic             Coordinates (Angstroms)
 Number     Number       Type             X           Y           Z
 ---------------------------------------------------------------------
      1          6           0        0.000000    0.000000    0.000000
      2          6           0        0.000000    0.000000    1.397463
      3          6           0        1.221096    0.000000   -0.684705
      4          6           0        1.201650   -0.010697    2.101772
      5          1           0       -0.824276    0.007821    1.869996
      6          6           0       -1.253421   -0.110138   -0.810191
      7          6           0        2.414707    0.007815    0.021719
      8          1           0        1.232246   -0.005856   -1.634731
      9          6           0        2.403895   -0.006831    1.408800
     10          1           0        1.198494   -0.020531    3.051836
     11          6           0       -2.382763    0.847700   -0.603640
     12          8           0       -1.355448   -0.991854   -1.649376
     13          1           0        3.241298    0.023792   -0.445367
     14          1           0        3.224827   -0.014217    1.886678
     15          6           0       -2.184420    2.170065   -0.198658
     16          6           0       -3.675481    0.408437   -0.915145
     17          6           0       -3.271259    3.039878   -0.115012
     18          1           0       -1.312083    2.475876    0.018830
     19          6           0       -4.754596    1.269260   -0.806562
     20          1           0       -3.812863   -0.486315   -1.202484
     21          6           0       -4.553528    2.593369   -0.416654
     22          1           0       -3.134889    3.942084    0.148864
     23          1           0       -5.631253    0.957938   -0.997799
     24          1           0       -5.290809    3.188536   -0.357267
 ---------------------------------------------------------------------
                    Distance matrix (angstroms):
                    1          2          3          4          5
     1  C    0.000000
     2  C    1.397463   0.000000
     3  C    1.399963   2.413814   0.000000
     4  C    2.421058   1.392885   2.786566   0.000000
     5  H    2.043619   0.950147   3.272630   2.039225   0.000000
     6  C    1.496530   2.541049   2.480142   3.810091   2.716889
     7  C    2.414817   2.779127   1.387013   2.408002   3.729228
     8  H    2.047146   3.273021   0.950109   3.736632   4.063567
     9  C    2.786301   2.403931   2.404542   1.387667   3.260982
    10  H    3.278797   2.042977   3.736665   0.950119   2.342893
    11  C    2.600103   3.224991   3.703101   4.572101   3.041899
    12  O    2.354029   3.479115   2.924541   4.644624   3.696955
    13  H    3.271839   3.728619   2.034469   3.263323   4.678681
    14  H    3.736210   3.261755   3.259932   2.034583   4.049198
    15  C    3.085505   3.468210   4.067304   4.638230   3.287038
    16  C    3.809655   4.361667   4.918982   5.750119   4.005855
    17  C    4.467127   4.714825   5.454050   5.850389   4.372797
    18  H    2.802120   3.122844   3.611359   4.103723   3.123470
    19  C    4.986757   5.392117   6.110218   6.750819   4.919614
    20  H    4.027455   4.640491   5.083831   6.024090   4.314622
    21  C    5.256784   5.545376   6.335905   6.800419   5.081451
    22  H    5.038821   5.189080   5.933756   6.184165   4.876438
    23  H    5.798643   6.194024   6.926063   7.565326   5.677499
    24  H    6.187654   6.421721   7.258021   7.644212   5.918409
                    6          7          8          9         10
     6  C    0.000000
     7  C    3.763130   0.000000
     8  H    2.620930   2.035246   0.000000
     9  C    4.279082   1.387200   3.261263   0.000000
    10  H    4.575496   3.265208   4.686711   2.037829   0.000000
    11  C    1.495169   4.910417   3.854866   5.262340   5.190542
    12  O    1.221501   4.243343   2.769217   4.945236   5.437598
    13  H    4.511488   0.949567   2.334899   2.034727   4.050363
    14  H    5.228480   2.033434   4.046081   0.949923   2.337447
    15  C    2.537727   5.086832   4.297737   5.326859   5.177696
    16  C    2.479176   6.174836   4.977472   6.521654   6.298935
    17  C    3.804937   6.445332   5.645139   6.619048   6.274848
    18  H    2.716281   4.469932   3.920059   4.680207   4.661992
    19  C    3.763108   7.326404   6.176897   7.601330   7.210414
    20  H    2.616515   6.365962   5.086335   6.759940   6.590136
    21  C    4.284219   7.445371   6.458704   7.648467   7.207541
    22  H    4.569487   6.803870   6.151366   6.918055   6.550402
    23  H    4.510144   8.165759   6.960043   8.443109   8.000149
    24  H    5.233249   8.344794   7.374706   8.516914   8.001946
                   11         12         13         14         15
    11  C    0.000000
    12  O    2.352211   0.000000
    13  H    5.686293   4.859140   0.000000
    14  H    6.195938   5.868422   2.332413   0.000000
    15  C    1.397140   3.576242   5.840015   6.195133   0.000000
    16  C    1.400396   2.807573   6.943376   7.459430   2.416598
    17  C    2.415332   4.720113   7.184657   7.452073   1.394557
    18  H    2.045674   3.848369   5.192443   5.502088   0.949629
    19  C    2.417537   4.168594   8.100368   8.518923   2.790484
    20  H    2.045335   2.548367   7.112990   7.700317   3.273506
    21  C    2.791872   4.959954   8.207488   8.521012   2.416481
    22  H    3.272181   5.544711   7.507455   7.688843   2.040640
    23  H    3.274172   4.744339   8.938678   9.364585   3.740125
    24  H    3.741249   5.884919   9.100561   9.370644   3.272933
                   16         17         18         19         20
    16  C    0.000000
    17  C    2.779944   0.000000
    18  H    3.276013   2.043131   0.000000
    19  C    1.384664   2.411145   3.740066   0.000000
    20  H    0.949746   3.729607   4.064490   2.031171   0.000000
    21  C    2.406945   1.390889   3.272678   1.394891   3.263520
    22  H    3.729747   0.949843   2.342925   3.268069   4.679370
    23  H    2.033181   3.268541   4.689659   0.949747   2.331159
    24  H    3.263351   2.039453   4.059507   2.042795   4.050092
                   21         22         23         24
    21  C    0.000000
    22  H    2.037493   0.000000
    23  H    2.043001   4.056081   0.000000
    24  H    0.949386   2.339229   2.345581   0.000000
 Stoichiometry    C13H10O
 Framework group  C1[X(C13H10O)]
 Deg. of freedom    66
 Full point group                 C1      NOp   1
 Largest Abelian subgroup         C1      NOp   1
 Largest concise Abelian subgroup C1      NOp   1
                         Standard orientation:                         
 ---------------------------------------------------------------------
 Center     Atomic      Atomic             Coordinates (Angstroms)
 Number     Number       Type             X           Y           Z
 ---------------------------------------------------------------------
      1          6           0       -1.291172    0.332292    0.048155
      2          6           0       -1.606338   -0.652625    0.988108
      3          6           0       -2.266301    0.739486   -0.870110
      4          6           0       -2.880011   -1.215633    1.018227
      5          1           0       -0.948037   -0.940306    1.609927
      6          6           0        0.017330    1.058518    0.043321
      7          6           0       -3.527356    0.162401   -0.847367
      8          1           0       -2.064148    1.412505   -1.509554
      9          6           0       -3.834657   -0.804180    0.099000
     10          1           0       -3.094364   -1.878082    1.664710
     11          6           0        1.308241    0.305729   -0.005549
     12          8           0        0.031420    2.279396    0.079679
     13          1           0       -4.181752    0.429281   -1.481574
     14          1           0       -4.704077   -1.186440    0.117417
     15          6           0        1.437692   -0.926491   -0.651207
     16          6           0        2.440010    0.915512    0.549762
     17          6           0        2.690094   -1.533073   -0.742515
     18          1           0        0.675193   -1.349749   -1.027030
     19          6           0        3.676896    0.297233    0.478069
     20          1           0        2.358363    1.758851    0.978868
     21          6           0        3.807758   -0.925764   -0.179863
     22          1           0        2.780248   -2.365080   -1.191779
     23          1           0        4.435785    0.706150    0.876684
     24          1           0        4.658318   -1.342727   -0.243286
 ---------------------------------------------------------------------
 Rotational constants (GHZ):           1.7305127           0.4001712           0.3596124
 Leave Link  202 at Tue Nov 22 15:02:55 2022, MaxMem= 16106127360 cpu:               0.3 elap:               0.0
 (Enter /opt/ap/G16/B01/g16/l301.exe)
 Standard basis: 6-311++G(d,p) (5D, 7F)
 Ernie: Thresh=  0.10000D-02 Tol=  0.10000D-05 Strict=F.
 There are   392 symmetry adapted cartesian basis functions of A   symmetry.
 There are   378 symmetry adapted basis functions of A   symmetry.
   378 basis functions,   594 primitive gaussians,   392 cartesian basis functions
    48 alpha electrons       48 beta electrons
       nuclear repulsion energy       781.4116710977 Hartrees.
 IExCor= 4639 DFT=T Ex+Corr=wB97XD ExCW=0 ScaHFX=  1.000000
 ScaDFX=  1.000000  1.000000  1.000000  1.000000 ScalE2=  1.000000  1.000000
 IRadAn=      5 IRanWt=     -1 IRanGd=            0 ICorTp=0 IEmpDi=121
 HFx  wShort=  0.000000 wLong=  0.200000 cFull=  0.222036 cShort=  0.000000 cLong=  0.777964
 DFx  wShort=  0.000000 wLong=  0.200000 cFull=  0.000000 cShort=  0.000000 cLong=  1.000000
 NAtoms=   24 NActive=   24 NUniq=   24 SFac= 1.00D+00 NAtFMM=   60 NAOKFM=F Big=F
 Integral buffers will be    131072 words long.
 Raffenetti 2 integral format.
 Two-electron integral symmetry is turned on.
 R6Disp:  Grimme-D2 Dispersion energy=       -0.0139321684 Hartrees.
 Nuclear repulsion after empirical dispersion term =      781.3977389294 Hartrees.
 Leave Link  301 at Tue Nov 22 15:02:55 2022, MaxMem= 16106127360 cpu:               1.2 elap:               0.0
 (Enter /opt/ap/G16/B01/g16/l302.exe)
 NPDir=0 NMtPBC=     1 NCelOv=     1 NCel=       1 NClECP=     1 NCelD=      1
         NCelK=      1 NCelE2=     1 NClLst=     1 CellRange=     0.0.
 One-electron integrals computed using PRISM.
 One-electron integral symmetry used in STVInt
 NBasis=   378 RedAO= T EigKep=  1.46D-06  NBF=   378
 NBsUse=   376 1.00D-06 EigRej=  8.41D-07 NBFU=   376
 Precomputing XC quadrature grid using
 IXCGrd= 4 IRadAn=           5 IRanWt=          -1 IRanGd=           0 AccXCQ= 0.00D+00.
 Generated NRdTot=       0 NPtTot=           0 NUsed=           0 NTot=          32
 NSgBfM=   392   392   392   392   392 MxSgAt=    24 MxSgA2=    24.
 Leave Link  302 at Tue Nov 22 15:02:55 2022, MaxMem= 16106127360 cpu:               8.5 elap:               0.3
 (Enter /opt/ap/G16/B01/g16/l303.exe)
 DipDrv:  MaxL=1.
 Leave Link  303 at Tue Nov 22 15:02:56 2022, MaxMem= 16106127360 cpu:               1.6 elap:               0.1
 (Enter /opt/ap/G16/B01/g16/l401.exe)
 ExpMin= 3.60D-02 ExpMax= 8.59D+03 ExpMxC= 1.30D+03 IAcc=3 IRadAn=         5 AccDes= 0.00D+00
 Harris functional with IExCor= 4639 and IRadAn=       5 diagonalized for initial guess.
 HarFok:  IExCor= 4639 AccDes= 0.00D+00 IRadAn=         5 IDoV= 1 UseB2=F ITyADJ=14
 ICtDFT=  3500011 ScaDFX=  1.000000  1.000000  1.000000  1.000000
 FoFCou: FMM=F IPFlag=           0 FMFlag=      100000 FMFlg1=           0
         NFxFlg=           0 DoJE=T BraDBF=F KetDBF=T FulRan=T
         wScrn=  0.000000 ICntrl=       500 IOpCl=  0 I1Cent=   200000004 NGrid=           0
         NMat0=    1 NMatS0=      1 NMatT0=    0 NMatD0=    1 NMtDS0=    0 NMtDT0=    0
 Petite list used in FoFCou.
 Harris En= -550.906032399535    
 JPrj=0 DoOrth=F DoCkMO=F.
 Leave Link  401 at Tue Nov 22 15:02:57 2022, MaxMem= 16106127360 cpu:              40.3 elap:               1.3
 (Enter /opt/ap/G16/B01/g16/l502.exe)
 Integral symmetry usage will be decided dynamically.
 Closed shell SCF:
 Using DIIS extrapolation, IDIIS=  1040.
 NGot= 16106127360 LenX= 16105803762 LenY= 16105649657
 Requested convergence on RMS density matrix=1.00D-08 within 512 cycles.
 Requested convergence on MAX density matrix=1.00D-06.
 Requested convergence on             energy=1.00D-06.
 No special actions if energy rises.
 Fock matrices will be formed incrementally for  20 cycles.

 Cycle   1  Pass 1  IDiag  1:
 FoFJK:  IHMeth= 1 ICntrl=       0 DoSepK=T KAlg= 0 I1Cent=           0 FoldK=F
 IRaf=         1 NMat=       1 IRICut=       1 DoRegI=T DoRafI=F ISym2E= 0 IDoP0=0 IntGTp=1.
 FoFCou: FMM=F IPFlag=           0 FMFlag=      100000 FMFlg1=           0
         NFxFlg=           0 DoJE=T BraDBF=F KetDBF=F FulRan=T
         wScrn=  0.000000 ICntrl=       500 IOpCl=  0 I1Cent=           0 NGrid=           0
         NMat0=    1 NMatS0=      1 NMatT0=    0 NMatD0=    1 NMtDS0=    0 NMtDT0=    0
 Symmetry not used in FoFCou.
 E= -576.260970265191    
 DIIS: error= 5.91D-02 at cycle   1 NSaved=   1.
 NSaved= 1 IEnMin= 1 EnMin= -576.260970265191     IErMin= 1 ErrMin= 5.91D-02
 ErrMax= 5.91D-02  0.00D+00 EMaxC= 1.00D-01 BMatC= 1.20D+00 BMatP= 1.20D+00
 IDIUse=3 WtCom= 4.09D-01 WtEn= 5.91D-01
 Coeff-Com:  0.100D+01
 Coeff-En:   0.100D+01
 Coeff:      0.100D+01
 Gap=     0.409 Goal=   None    Shift=    0.000
 GapD=    0.409 DampG=2.000 DampE=0.500 DampFc=1.0000 IDamp=-1.
 RMSDP=3.12D-02 MaxDP=2.85D+00              OVMax= 1.26D-01

 Cycle   2  Pass 1  IDiag  1:
 RMSU=  1.66D-02    CP:  6.32D-01
 E= -576.349772261951     Delta-E=       -0.088801996759 Rises=F Damp=F
 DIIS: error= 1.46D-02 at cycle   2 NSaved=   2.
 NSaved= 2 IEnMin= 2 EnMin= -576.349772261951     IErMin= 2 ErrMin= 1.46D-02
 ErrMax= 1.46D-02  0.00D+00 EMaxC= 1.00D-01 BMatC= 7.75D-02 BMatP= 1.20D+00
 IDIUse=3 WtCom= 8.54D-01 WtEn= 1.46D-01
 Coeff-Com:  0.128D+00 0.872D+00
 Coeff-En:   0.156D+00 0.844D+00
 Coeff:      0.132D+00 0.868D+00
 Gap=     0.433 Goal=   None    Shift=    0.000
 RMSDP=9.74D-03 MaxDP=1.01D+00 DE=-8.88D-02 OVMax= 1.55D-01

 Cycle   3  Pass 1  IDiag  1:
 RMSU=  8.75D-03    CP:  6.32D-01  7.42D-01
 E= -576.367769749859     Delta-E=       -0.017997487909 Rises=F Damp=F
 DIIS: error= 1.27D-02 at cycle   3 NSaved=   3.
 NSaved= 3 IEnMin= 3 EnMin= -576.367769749859     IErMin= 3 ErrMin= 1.27D-02
 ErrMax= 1.27D-02  0.00D+00 EMaxC= 1.00D-01 BMatC= 5.59D-02 BMatP= 7.75D-02
 IDIUse=3 WtCom= 8.73D-01 WtEn= 1.27D-01
 Coeff-Com:  0.239D-01 0.462D+00 0.514D+00
 Coeff-En:   0.000D+00 0.426D+00 0.574D+00
 Coeff:      0.209D-01 0.458D+00 0.521D+00
 Gap=     0.355 Goal=   None    Shift=    0.000
 RMSDP=5.48D-03 MaxDP=4.94D-01 DE=-1.80D-02 OVMax= 6.99D-02

 Cycle   4  Pass 1  IDiag  1:
 RMSU=  1.51D-03    CP:  5.89D-01  8.49D-01  5.59D-01
 E= -576.416881442268     Delta-E=       -0.049111692408 Rises=F Damp=F
 DIIS: error= 2.42D-03 at cycle   4 NSaved=   4.
 NSaved= 4 IEnMin= 4 EnMin= -576.416881442268     IErMin= 4 ErrMin= 2.42D-03
 ErrMax= 2.42D-03  0.00D+00 EMaxC= 1.00D-01 BMatC= 9.44D-04 BMatP= 5.59D-02
 IDIUse=3 WtCom= 9.76D-01 WtEn= 2.42D-02
 Coeff-Com:  0.954D-02 0.197D+00 0.243D+00 0.550D+00
 Coeff-En:   0.000D+00 0.000D+00 0.000D+00 0.100D+01
 Coeff:      0.931D-02 0.192D+00 0.238D+00 0.561D+00
 Gap=     0.326 Goal=   None    Shift=    0.000
 RMSDP=5.84D-04 MaxDP=4.35D-02 DE=-4.91D-02 OVMax= 6.96D-03

 Cycle   5  Pass 1  IDiag  1:
 RMSU=  4.10D-04    CP:  5.88D-01  8.73D-01  5.51D-01  9.86D-01
 E= -576.417533279467     Delta-E=       -0.000651837199 Rises=F Damp=F
 DIIS: error= 7.13D-04 at cycle   5 NSaved=   5.
 NSaved= 5 IEnMin= 5 EnMin= -576.417533279467     IErMin= 5 ErrMin= 7.13D-04
 ErrMax= 7.13D-04  0.00D+00 EMaxC= 1.00D-01 BMatC= 8.98D-05 BMatP= 9.44D-04
 IDIUse=3 WtCom= 9.93D-01 WtEn= 7.13D-03
 Coeff-Com: -0.544D-03-0.744D-02 0.914D-03 0.224D+00 0.783D+00
 Coeff-En:   0.000D+00 0.000D+00 0.000D+00 0.000D+00 0.100D+01
 Coeff:     -0.541D-03-0.739D-02 0.908D-03 0.222D+00 0.785D+00
 Gap=     0.328 Goal=   None    Shift=    0.000
 RMSDP=4.01D-04 MaxDP=4.03D-02 DE=-6.52D-04 OVMax= 2.91D-03

 Cycle   6  Pass 1  IDiag  1:
 RMSU=  2.56D-04    CP:  5.86D-01  8.78D-01  5.71D-01  1.05D+00  6.38D-01
 E= -576.417602710856     Delta-E=       -0.000069431389 Rises=F Damp=F
 DIIS: error= 3.52D-04 at cycle   6 NSaved=   6.
 NSaved= 6 IEnMin= 6 EnMin= -576.417602710856     IErMin= 6 ErrMin= 3.52D-04
 ErrMax= 3.52D-04  0.00D+00 EMaxC= 1.00D-01 BMatC= 1.93D-05 BMatP= 8.98D-05
 IDIUse=3 WtCom= 9.96D-01 WtEn= 3.52D-03
 Coeff-Com: -0.123D-02-0.231D-01-0.227D-01 0.656D-01 0.424D+00 0.557D+00
 Coeff-En:   0.000D+00 0.000D+00 0.000D+00 0.000D+00 0.000D+00 0.100D+01
 Coeff:     -0.123D-02-0.230D-01-0.226D-01 0.653D-01 0.423D+00 0.559D+00
 Gap=     0.328 Goal=   None    Shift=    0.000
 RMSDP=8.57D-05 MaxDP=3.52D-03 DE=-6.94D-05 OVMax= 1.34D-03

 Cycle   7  Pass 1  IDiag  1:
 RMSU=  7.01D-05    CP:  5.86D-01  8.78D-01  5.71D-01  1.07D+00  7.06D-01
                    CP:  9.87D-01
 E= -576.417622881620     Delta-E=       -0.000020170764 Rises=F Damp=F
 DIIS: error= 5.57D-05 at cycle   7 NSaved=   7.
 NSaved= 7 IEnMin= 7 EnMin= -576.417622881620     IErMin= 7 ErrMin= 5.57D-05
 ErrMax= 5.57D-05  0.00D+00 EMaxC= 1.00D-01 BMatC= 5.20D-07 BMatP= 1.93D-05
 IDIUse=1 WtCom= 1.00D+00 WtEn= 0.00D+00
 Coeff-Com: -0.234D-03-0.449D-02-0.531D-02-0.101D-01-0.863D-02 0.107D+00
 Coeff-Com:  0.921D+00
 Coeff:     -0.234D-03-0.449D-02-0.531D-02-0.101D-01-0.863D-02 0.107D+00
 Coeff:      0.921D+00
 Gap=     0.328 Goal=   None    Shift=    0.000
 RMSDP=4.28D-05 MaxDP=3.23D-03 DE=-2.02D-05 OVMax= 6.64D-04

 Cycle   8  Pass 1  IDiag  1:
 RMSU=  1.97D-05    CP:  5.86D-01  8.79D-01  5.72D-01  1.08D+00  7.00D-01
                    CP:  1.10D+00  1.09D+00
 E= -576.417624235260     Delta-E=       -0.000001353640 Rises=F Damp=F
 DIIS: error= 2.57D-05 at cycle   8 NSaved=   8.
 NSaved= 8 IEnMin= 8 EnMin= -576.417624235260     IErMin= 8 ErrMin= 2.57D-05
 ErrMax= 2.57D-05  0.00D+00 EMaxC= 1.00D-01 BMatC= 9.04D-08 BMatP= 5.20D-07
 IDIUse=1 WtCom= 1.00D+00 WtEn= 0.00D+00
 Coeff-Com:  0.534D-04 0.792D-03 0.339D-03-0.124D-01-0.575D-01-0.278D-01
 Coeff-Com:  0.309D+00 0.787D+00
 Coeff:      0.534D-04 0.792D-03 0.339D-03-0.124D-01-0.575D-01-0.278D-01
 Coeff:      0.309D+00 0.787D+00
 Gap=     0.328 Goal=   None    Shift=    0.000
 RMSDP=1.60D-05 MaxDP=1.31D-03 DE=-1.35D-06 OVMax= 2.66D-04

 Cycle   9  Pass 1  IDiag  1:
 RMSU=  6.30D-06    CP:  5.86D-01  8.80D-01  5.71D-01  1.09D+00  6.99D-01
                    CP:  1.14D+00  1.12D+00  1.22D+00
 E= -576.417624439584     Delta-E=       -0.000000204325 Rises=F Damp=F
 DIIS: error= 5.57D-06 at cycle   9 NSaved=   9.
 NSaved= 9 IEnMin= 9 EnMin= -576.417624439584     IErMin= 9 ErrMin= 5.57D-06
 ErrMax= 5.57D-06  0.00D+00 EMaxC= 1.00D-01 BMatC= 7.93D-09 BMatP= 9.04D-08
 IDIUse=1 WtCom= 1.00D+00 WtEn= 0.00D+00
 Coeff-Com:  0.428D-04 0.761D-03 0.770D-03-0.613D-03-0.921D-02-0.181D-01
 Coeff-Com: -0.706D-01 0.147D+00 0.950D+00
 Coeff:      0.428D-04 0.761D-03 0.770D-03-0.613D-03-0.921D-02-0.181D-01
 Coeff:     -0.706D-01 0.147D+00 0.950D+00
 Gap=     0.328 Goal=   None    Shift=    0.000
 RMSDP=5.78D-06 MaxDP=6.85D-04 DE=-2.04D-07 OVMax= 1.36D-04

 Cycle  10  Pass 1  IDiag  1:
 RMSU=  1.79D-06    CP:  5.86D-01  8.80D-01  5.71D-01  1.09D+00  6.97D-01
                    CP:  1.14D+00  1.13D+00  1.38D+00  1.38D+00
 E= -576.417624468620     Delta-E=       -0.000000029036 Rises=F Damp=F
 DIIS: error= 2.50D-06 at cycle  10 NSaved=  10.
 NSaved=10 IEnMin=10 EnMin= -576.417624468620     IErMin=10 ErrMin= 2.50D-06
 ErrMax= 2.50D-06  0.00D+00 EMaxC= 1.00D-01 BMatC= 8.73D-10 BMatP= 7.93D-09
 IDIUse=1 WtCom= 1.00D+00 WtEn= 0.00D+00
 Coeff-Com: -0.392D-05-0.333D-04 0.847D-05 0.158D-02 0.583D-02 0.277D-02
 Coeff-Com: -0.335D-01-0.785D-01 0.562D-01 0.105D+01
 Coeff:     -0.392D-05-0.333D-04 0.847D-05 0.158D-02 0.583D-02 0.277D-02
 Coeff:     -0.335D-01-0.785D-01 0.562D-01 0.105D+01
 Gap=     0.328 Goal=   None    Shift=    0.000
 RMSDP=2.32D-06 MaxDP=1.51D-04 DE=-2.90D-08 OVMax= 5.38D-05

 Cycle  11  Pass 1  IDiag  1:
 RMSU=  8.97D-07    CP:  5.86D-01  8.80D-01  5.71D-01  1.09D+00  6.97D-01
                    CP:  1.14D+00  1.12D+00  1.42D+00  1.48D+00  1.14D+00
 E= -576.417624473218     Delta-E=       -0.000000004598 Rises=F Damp=F
 DIIS: error= 1.26D-06 at cycle  11 NSaved=  11.
 NSaved=11 IEnMin=11 EnMin= -576.417624473218     IErMin=11 ErrMin= 1.26D-06
 ErrMax= 1.26D-06  0.00D+00 EMaxC= 1.00D-01 BMatC= 1.78D-10 BMatP= 8.73D-10
 IDIUse=1 WtCom= 1.00D+00 WtEn= 0.00D+00
 Coeff-Com: -0.457D-05-0.738D-04-0.667D-04 0.393D-03 0.187D-02 0.204D-02
 Coeff-Com:  0.956D-03-0.317D-01-0.100D+00 0.199D+00 0.928D+00
 Coeff:     -0.457D-05-0.738D-04-0.667D-04 0.393D-03 0.187D-02 0.204D-02
 Coeff:      0.956D-03-0.317D-01-0.100D+00 0.199D+00 0.928D+00
 Gap=     0.328 Goal=   None    Shift=    0.000
 RMSDP=8.12D-07 MaxDP=6.53D-05 DE=-4.60D-09 OVMax= 2.33D-05

 Cycle  12  Pass 1  IDiag  1:
 RMSU=  4.14D-07    CP:  5.86D-01  8.80D-01  5.71D-01  1.09D+00  6.97D-01
                    CP:  1.14D+00  1.12D+00  1.42D+00  1.54D+00  1.21D+00
                    CP:  1.29D+00
 E= -576.417624474103     Delta-E=       -0.000000000885 Rises=F Damp=F
 DIIS: error= 6.42D-07 at cycle  12 NSaved=  12.
 NSaved=12 IEnMin=12 EnMin= -576.417624474103     IErMin=12 ErrMin= 6.42D-07
 ErrMax= 6.42D-07  0.00D+00 EMaxC= 1.00D-01 BMatC= 4.08D-11 BMatP= 1.78D-10
 IDIUse=1 WtCom= 1.00D+00 WtEn= 0.00D+00
 Coeff-Com:  0.862D-07-0.842D-05-0.161D-04-0.330D-03-0.114D-02-0.367D-03
 Coeff-Com:  0.939D-02 0.148D-01-0.372D-01-0.223D+00 0.215D+00 0.102D+01
 Coeff:      0.862D-07-0.842D-05-0.161D-04-0.330D-03-0.114D-02-0.367D-03
 Coeff:      0.939D-02 0.148D-01-0.372D-01-0.223D+00 0.215D+00 0.102D+01
 Gap=     0.328 Goal=   None    Shift=    0.000
 RMSDP=3.59D-07 MaxDP=1.62D-05 DE=-8.85D-10 OVMax= 1.39D-05

 Cycle  13  Pass 1  IDiag  1:
 RMSU=  1.31D-07    CP:  5.86D-01  8.80D-01  5.71D-01  1.09D+00  6.97D-01
                    CP:  1.14D+00  1.12D+00  1.41D+00  1.54D+00  1.21D+00
                    CP:  1.50D+00  1.52D+00
 E= -576.417624474337     Delta-E=       -0.000000000234 Rises=F Damp=F
 DIIS: error= 2.04D-07 at cycle  13 NSaved=  13.
 NSaved=13 IEnMin=13 EnMin= -576.417624474337     IErMin=13 ErrMin= 2.04D-07
 ErrMax= 2.04D-07  0.00D+00 EMaxC= 1.00D-01 BMatC= 7.22D-12 BMatP= 4.08D-11
 IDIUse=1 WtCom= 1.00D+00 WtEn= 0.00D+00
 Coeff-Com:  0.683D-06 0.758D-05 0.554D-05-0.182D-03-0.650D-03-0.462D-03
 Coeff-Com:  0.286D-02 0.967D-02 0.222D-02-0.103D+00-0.592D-01 0.323D+00
 Coeff-Com:  0.826D+00
 Coeff:      0.683D-06 0.758D-05 0.554D-05-0.182D-03-0.650D-03-0.462D-03
 Coeff:      0.286D-02 0.967D-02 0.222D-02-0.103D+00-0.592D-01 0.323D+00
 Coeff:      0.826D+00
 Gap=     0.328 Goal=   None    Shift=    0.000
 RMSDP=1.47D-07 MaxDP=9.58D-06 DE=-2.34D-10 OVMax= 4.43D-06

 Cycle  14  Pass 1  IDiag  1:
 RMSU=  6.09D-08    CP:  5.86D-01  8.80D-01  5.71D-01  1.09D+00  6.97D-01
                    CP:  1.14D+00  1.12D+00  1.41D+00  1.54D+00  1.20D+00
                    CP:  1.55D+00  1.68D+00  1.25D+00
 E= -576.417624474368     Delta-E=       -0.000000000031 Rises=F Damp=F
 DIIS: error= 6.40D-08 at cycle  14 NSaved=  14.
 NSaved=14 IEnMin=14 EnMin= -576.417624474368     IErMin=14 ErrMin= 6.40D-08
 ErrMax= 6.40D-08  0.00D+00 EMaxC= 1.00D-01 BMatC= 1.07D-12 BMatP= 7.22D-12
 IDIUse=1 WtCom= 1.00D+00 WtEn= 0.00D+00
 Coeff-Com:  0.129D-06 0.312D-05 0.486D-05 0.198D-05 0.366D-04-0.529D-04
 Coeff-Com: -0.813D-03-0.143D-03 0.587D-02 0.107D-01-0.428D-01-0.101D+00
 Coeff-Com:  0.189D+00 0.939D+00
 Coeff:      0.129D-06 0.312D-05 0.486D-05 0.198D-05 0.366D-04-0.529D-04
 Coeff:     -0.813D-03-0.143D-03 0.587D-02 0.107D-01-0.428D-01-0.101D+00
 Coeff:      0.189D+00 0.939D+00
 Gap=     0.328 Goal=   None    Shift=    0.000
 RMSDP=6.96D-08 MaxDP=5.18D-06 DE=-3.14D-11 OVMax= 1.72D-06

 Cycle  15  Pass 1  IDiag  1:
 RMSU=  1.59D-08    CP:  5.86D-01  8.80D-01  5.71D-01  1.09D+00  6.97D-01
                    CP:  1.14D+00  1.12D+00  1.41D+00  1.54D+00  1.19D+00
                    CP:  1.57D+00  1.74D+00  1.44D+00  1.08D+00
 E= -576.417624474371     Delta-E=       -0.000000000003 Rises=F Damp=F
 DIIS: error= 1.76D-08 at cycle  15 NSaved=  15.
 NSaved=15 IEnMin=15 EnMin= -576.417624474371     IErMin=15 ErrMin= 1.76D-08
 ErrMax= 1.76D-08  0.00D+00 EMaxC= 1.00D-01 BMatC= 1.79D-13 BMatP= 1.07D-12
 IDIUse=1 WtCom= 1.00D+00 WtEn= 0.00D+00
 Coeff-Com: -0.321D-07 0.405D-06 0.152D-05 0.236D-04 0.992D-04 0.437D-04
 Coeff-Com: -0.661D-03-0.124D-02 0.223D-02 0.178D-01-0.853D-02-0.866D-01
 Coeff-Com: -0.334D-01 0.383D+00 0.728D+00
 Coeff:     -0.321D-07 0.405D-06 0.152D-05 0.236D-04 0.992D-04 0.437D-04
 Coeff:     -0.661D-03-0.124D-02 0.223D-02 0.178D-01-0.853D-02-0.866D-01
 Coeff:     -0.334D-01 0.383D+00 0.728D+00
 Gap=     0.328 Goal=   None    Shift=    0.000
 RMSDP=1.72D-08 MaxDP=1.38D-06 DE=-2.50D-12 OVMax= 3.96D-07

 Cycle  16  Pass 1  IDiag  1:
 RMSU=  5.22D-09    CP:  5.86D-01  8.80D-01  5.71D-01  1.09D+00  6.97D-01
                    CP:  1.14D+00  1.12D+00  1.41D+00  1.54D+00  1.19D+00
                    CP:  1.56D+00  1.76D+00  1.47D+00  1.16D+00  1.08D+00
 E= -576.417624474382     Delta-E=       -0.000000000011 Rises=F Damp=F
 DIIS: error= 3.99D-09 at cycle  16 NSaved=  16.
 NSaved=16 IEnMin=16 EnMin= -576.417624474382     IErMin=16 ErrMin= 3.99D-09
 ErrMax= 3.99D-09  0.00D+00 EMaxC= 1.00D-01 BMatC= 4.70D-15 BMatP= 1.79D-13
 IDIUse=1 WtCom= 1.00D+00 WtEn= 0.00D+00
 Coeff-Com: -0.833D-08-0.205D-06-0.296D-06 0.148D-05 0.253D-05 0.104D-04
 Coeff-Com:  0.330D-04-0.802D-04-0.464D-03 0.168D-04 0.407D-02 0.330D-02
 Coeff-Com: -0.196D-01-0.609D-01 0.379D-01 0.104D+01
 Coeff:     -0.833D-08-0.205D-06-0.296D-06 0.148D-05 0.253D-05 0.104D-04
 Coeff:      0.330D-04-0.802D-04-0.464D-03 0.168D-04 0.407D-02 0.330D-02
 Coeff:     -0.196D-01-0.609D-01 0.379D-01 0.104D+01
 Gap=     0.328 Goal=   None    Shift=    0.000
 RMSDP=4.76D-09 MaxDP=2.64D-07 DE=-1.07D-11 OVMax= 9.59D-08

 SCF Done:  E(RwB97XD) =  -576.417624474     A.U. after   16 cycles
            NFock= 16  Conv=0.48D-08     -V/T= 2.0000
 KE= 5.764042618315D+02 PE=-2.905017222811D+03 EE= 9.707975975754D+02
 Leave Link  502 at Tue Nov 22 15:03:35 2022, MaxMem= 16106127360 cpu:            1206.4 elap:              37.8
 (Enter /opt/ap/G16/B01/g16/l601.exe)
 Copying SCF densities to generalized density rwf, IOpCl= 0 IROHF=0.

 **********************************************************************

            Population analysis using the SCF Density.

 **********************************************************************

 Orbital symmetries:
       Occupied  (A) (A) (A) (A) (A) (A) (A) (A) (A) (A) (A) (A)
                 (A) (A) (A) (A) (A) (A) (A) (A) (A) (A) (A) (A)
                 (A) (A) (A) (A) (A) (A) (A) (A) (A) (A) (A) (A)
                 (A) (A) (A) (A) (A) (A) (A) (A) (A) (A) (A) (A)
       Virtual   (A) (A) (A) (A) (A) (A) (A) (A) (A) (A) (A) (A)
                 (A) (A) (A) (A) (A) (A) (A) (A) (A) (A) (A) (A)
                 (A) (A) (A) (A) (A) (A) (A) (A) (A) (A) (A) (A)
                 (A) (A) (A) (A) (A) (A) (A) (A) (A) (A) (A) (A)
                 (A) (A) (A) (A) (A) (A) (A) (A) (A) (A) (A) (A)
                 (A) (A) (A) (A) (A) (A) (A) (A) (A) (A) (A) (A)
                 (A) (A) (A) (A) (A) (A) (A) (A) (A) (A) (A) (A)
                 (A) (A) (A) (A) (A) (A) (A) (A) (A) (A) (A) (A)
                 (A) (A) (A) (A) (A) (A) (A) (A) (A) (A) (A) (A)
                 (A) (A) (A) (A) (A) (A) (A) (A) (A) (A) (A) (A)
                 (A) (A) (A) (A) (A) (A) (A) (A) (A) (A) (A) (A)
                 (A) (A) (A) (A) (A) (A) (A) (A) (A) (A) (A) (A)
                 (A) (A) (A) (A) (A) (A) (A) (A) (A) (A) (A) (A)
                 (A) (A) (A) (A) (A) (A) (A) (A) (A) (A) (A) (A)
                 (A) (A) (A) (A) (A) (A) (A) (A) (A) (A) (A) (A)
                 (A) (A) (A) (A) (A) (A) (A) (A) (A) (A) (A) (A)
                 (A) (A) (A) (A) (A) (A) (A) (A) (A) (A) (A) (A)
                 (A) (A) (A) (A) (A) (A) (A) (A) (A) (A) (A) (A)
                 (A) (A) (A) (A) (A) (A) (A) (A) (A) (A) (A) (A)
                 (A) (A) (A) (A) (A) (A) (A) (A) (A) (A) (A) (A)
                 (A) (A) (A) (A) (A) (A) (A) (A) (A) (A) (A) (A)
                 (A) (A) (A) (A) (A) (A) (A) (A) (A) (A) (A) (A)
                 (A) (A) (A) (A) (A) (A) (A) (A) (A) (A) (A) (A)
                 (A) (A) (A) (A) (A) (A) (A) (A) (A) (A) (A) (A)
                 (A) (A) (A) (A) (A) (A) (A) (A) (A) (A) (A) (A)
                 (A) (A) (A) (A) (A) (A) (A) (A) (A) (A) (A) (A)
                 (A) (A) (A) (A) (A) (A) (A) (A) (A) (A) (A) (A)
                 (A) (A) (A) (A)
 The electronic state is 1-A.
 Alpha  occ. eigenvalues --  -19.23991 -10.38274 -10.30535 -10.30487 -10.28996
 Alpha  occ. eigenvalues --  -10.28795 -10.28677 -10.28460 -10.28432 -10.28432
 Alpha  occ. eigenvalues --  -10.28318 -10.28244 -10.28212 -10.28056  -1.14972
 Alpha  occ. eigenvalues --   -0.97845  -0.97387  -0.89040  -0.87351  -0.87227
 Alpha  occ. eigenvalues --   -0.86800  -0.76754  -0.73833  -0.73451  -0.72513
 Alpha  occ. eigenvalues --   -0.67962  -0.65458  -0.62864  -0.60281  -0.56757
 Alpha  occ. eigenvalues --   -0.56189  -0.55664  -0.54263  -0.53921  -0.53858
 Alpha  occ. eigenvalues --   -0.52181  -0.49326  -0.47113  -0.46599  -0.46256
 Alpha  occ. eigenvalues --   -0.45454  -0.44911  -0.44216  -0.35228  -0.34737
 Alpha  occ. eigenvalues --   -0.34243  -0.33955  -0.33062
 Alpha virt. eigenvalues --   -0.00243   0.03597   0.03773   0.04082   0.04325
 Alpha virt. eigenvalues --    0.05198   0.05236   0.05282   0.05924   0.06795
 Alpha virt. eigenvalues --    0.07462   0.08007   0.08837   0.09868   0.10492
 Alpha virt. eigenvalues --    0.11330   0.11848   0.13345   0.13528   0.14408
 Alpha virt. eigenvalues --    0.14736   0.14808   0.15400   0.15835   0.16516
 Alpha virt. eigenvalues --    0.17005   0.17113   0.17288   0.17716   0.17744
 Alpha virt. eigenvalues --    0.18115   0.18429   0.18712   0.19069   0.19486
 Alpha virt. eigenvalues --    0.19673   0.20022   0.20352   0.20664   0.20675
 Alpha virt. eigenvalues --    0.21530   0.21709   0.22269   0.23167   0.23723
 Alpha virt. eigenvalues --    0.24041   0.24649   0.24977   0.25238   0.26350
 Alpha virt. eigenvalues --    0.26482   0.27330   0.27819   0.28095   0.28393
 Alpha virt. eigenvalues --    0.28454   0.29632   0.30056   0.30307   0.31120
 Alpha virt. eigenvalues --    0.31457   0.31851   0.32374   0.33094   0.33923
 Alpha virt. eigenvalues --    0.34556   0.34878   0.35006   0.35495   0.35865
 Alpha virt. eigenvalues --    0.36849   0.37358   0.38054   0.38263   0.38994
 Alpha virt. eigenvalues --    0.39433   0.39962   0.41355   0.41763   0.41981
 Alpha virt. eigenvalues --    0.42156   0.42655   0.43870   0.44367   0.44667
 Alpha virt. eigenvalues --    0.45689   0.45733   0.46516   0.47743   0.50115
 Alpha virt. eigenvalues --    0.51079   0.56733   0.57340   0.57988   0.61325
 Alpha virt. eigenvalues --    0.61998   0.62050   0.62671   0.63644   0.63751
 Alpha virt. eigenvalues --    0.63905   0.64360   0.65305   0.65432   0.65675
 Alpha virt. eigenvalues --    0.66156   0.66270   0.68056   0.69320   0.70800
 Alpha virt. eigenvalues --    0.71087   0.71738   0.72955   0.73172   0.74127
 Alpha virt. eigenvalues --    0.75146   0.76218   0.76726   0.78205   0.78621
 Alpha virt. eigenvalues --    0.79214   0.80592   0.81390   0.82193   0.82877
 Alpha virt. eigenvalues --    0.83570   0.84048   0.85169   0.86540   0.88137
 Alpha virt. eigenvalues --    0.88728   0.89402   0.92618   0.93269   0.93497
 Alpha virt. eigenvalues --    0.94206   0.94758   0.95232   0.96499   0.96870
 Alpha virt. eigenvalues --    0.97794   0.98098   0.98167   0.99641   1.02159
 Alpha virt. eigenvalues --    1.02384   1.03053   1.03699   1.04530   1.05436
 Alpha virt. eigenvalues --    1.06478   1.08006   1.10975   1.12278   1.13011
 Alpha virt. eigenvalues --    1.14248   1.16520   1.16692   1.17211   1.18036
 Alpha virt. eigenvalues --    1.19577   1.20993   1.21468   1.22690   1.23597
 Alpha virt. eigenvalues --    1.28012   1.29702   1.32479   1.34718   1.39197
 Alpha virt. eigenvalues --    1.40736   1.43416   1.44778   1.46926   1.54453
 Alpha virt. eigenvalues --    1.57315   1.58541   1.58790   1.60268   1.61558
 Alpha virt. eigenvalues --    1.62617   1.63144   1.64380   1.65515   1.66493
 Alpha virt. eigenvalues --    1.68164   1.68520   1.68681   1.70098   1.73521
 Alpha virt. eigenvalues --    1.75104   1.75685   1.76100   1.77055   1.77812
 Alpha virt. eigenvalues --    1.78829   1.84566   1.86059   1.87046   1.88903
 Alpha virt. eigenvalues --    1.89964   1.91488   1.91733   1.92356   1.94330
 Alpha virt. eigenvalues --    1.95468   1.95671   1.99103   2.00604   2.01061
 Alpha virt. eigenvalues --    2.01308   2.01846   2.05210   2.05535   2.05614
 Alpha virt. eigenvalues --    2.06191   2.07264   2.08227   2.09962   2.10952
 Alpha virt. eigenvalues --    2.11678   2.14772   2.15198   2.19049   2.20814
 Alpha virt. eigenvalues --    2.22262   2.26873   2.27066   2.28051   2.30428
 Alpha virt. eigenvalues --    2.31905   2.42356   2.44733   2.47044   2.48154
 Alpha virt. eigenvalues --    2.48787   2.49859   2.50731   2.51207   2.53932
 Alpha virt. eigenvalues --    2.58492   2.59243   2.60226   2.67041   2.67899
 Alpha virt. eigenvalues --    2.70635   2.77976   2.80357   2.81272   2.82822
 Alpha virt. eigenvalues --    2.83386   2.84136   2.86007   2.87933   2.88138
 Alpha virt. eigenvalues --    2.90920   2.92345   2.93219   2.94004   2.96252
 Alpha virt. eigenvalues --    2.96609   2.97632   2.98388   3.00487   3.00640
 Alpha virt. eigenvalues --    3.00952   3.01218   3.02059   3.02921   3.04154
 Alpha virt. eigenvalues --    3.06035   3.08527   3.12674   3.14870   3.17795
 Alpha virt. eigenvalues --    3.19629   3.20384   3.22602   3.25219   3.25354
 Alpha virt. eigenvalues --    3.27560   3.32055   3.32101   3.37319   3.44968
 Alpha virt. eigenvalues --    3.48625   3.49867   3.50924   3.53525   3.65497
 Alpha virt. eigenvalues --    3.70142   3.70418   3.71266   3.75321   3.76658
 Alpha virt. eigenvalues --    3.83311   3.88913   3.91256   3.99017   4.30824
 Alpha virt. eigenvalues --    4.36901   4.37408   4.39427   4.40512   4.41710
 Alpha virt. eigenvalues --    4.42582   4.50799   4.51733   4.53906   4.94951
 Alpha virt. eigenvalues --    4.95618   5.21959   5.35198   5.85828  23.89482
 Alpha virt. eigenvalues --   23.95970  23.98425  24.17201  24.19264  24.23999
 Alpha virt. eigenvalues --   24.24901  24.30172  24.31132  24.34014  24.34234
 Alpha virt. eigenvalues --   24.43271  24.44362  50.14321
          Condensed to atoms (all electrons):
               1          2          3          4          5          6
     1  C   12.745707  -0.254105  -0.635038  -0.617056   0.052955  -3.044143
     2  C   -0.254105  14.286971  -4.334763  -1.997851   0.612508  -2.576353
     3  C   -0.635038  -4.334763   9.948521   0.455054  -0.023966  -0.184646
     4  C   -0.617056  -1.997851   0.455054   7.276736  -0.202792   1.517722
     5  H    0.052955   0.612508  -0.023966  -0.202792   0.495900  -0.160279
     6  C   -3.044143  -2.576353  -0.184646   1.517722  -0.160279  17.688230
     7  C   -0.642864  -0.112752   0.529613  -0.101293   0.019623   0.184200
     8  H    0.093244   0.079003   0.318194  -0.002157  -0.001066  -0.014142
     9  C   -0.352961   0.866766  -0.638387  -0.122593   0.015084  -0.575524
    10  H    0.043196  -0.158530   0.031798   0.497895  -0.016528   0.034757
    11  C   -1.662358   0.307200   0.128110  -0.503197   0.043768  -5.565188
    12  O    0.083461   0.130370  -0.114070  -0.010953  -0.000292   0.254329
    13  H   -0.003710  -0.019496  -0.045550   0.014628   0.001727   0.011995
    14  H    0.024470   0.032022  -0.018746  -0.088632   0.000213  -0.027925
    15  C   -0.366667   0.032536   0.417787  -0.034868   0.012005  -2.105905
    16  C   -0.310425  -0.345664  -0.065860   0.206873  -0.034278   1.540882
    17  C   -0.270749  -0.055688   0.080769   0.106592  -0.014548   0.737312
    18  H    0.005637   0.030826  -0.020710  -0.014681   0.000514  -0.097751
    19  C   -0.088952  -0.028151  -0.085658   0.047342  -0.007812  -0.074637
    20  H    0.006258  -0.040489   0.038029  -0.008034  -0.001875  -0.016224
    21  C    0.066926  -0.027634   0.046601  -0.015883   0.008888  -0.123289
    22  H   -0.005585  -0.004662   0.002217   0.002381  -0.001207   0.015917
    23  H   -0.010702   0.005393  -0.005046   0.001407  -0.000433   0.011881
    24  H    0.005991  -0.004175   0.002837  -0.001405   0.000360  -0.022622
               7          8          9         10         11         12
     1  C   -0.642864   0.093244  -0.352961   0.043196  -1.662358   0.083461
     2  C   -0.112752   0.079003   0.866766  -0.158530   0.307200   0.130370
     3  C    0.529613   0.318194  -0.638387   0.031798   0.128110  -0.114070
     4  C   -0.101293  -0.002157  -0.122593   0.497895  -0.503197  -0.010953
     5  H    0.019623  -0.001066   0.015084  -0.016528   0.043768  -0.000292
     6  C    0.184200  -0.014142  -0.575524   0.034757  -5.565188   0.254329
     7  C    5.701363  -0.089113   0.507298   0.005328  -0.148646  -0.023557
     8  H   -0.089113   0.477495  -0.009160   0.000299  -0.027294  -0.011059
     9  C    0.507298  -0.009160   6.007718  -0.106527   0.205909   0.016665
    10  H    0.005328   0.000299  -0.106527   0.490659  -0.011455  -0.000106
    11  C   -0.148646  -0.027294   0.205909  -0.011455  15.039871   0.034588
    12  O   -0.023557  -0.011059   0.016665  -0.000106   0.034588   7.900640
    13  H    0.455884  -0.014417  -0.068759   0.000506  -0.010169  -0.000710
    14  H   -0.064671   0.002006   0.489067  -0.013659   0.007260   0.000193
    15  C    0.158648  -0.061388  -0.002456  -0.000057   1.033339   0.004252
    16  C   -0.099633   0.030424  -0.025366   0.001018  -1.933465  -0.044981
    17  C    0.064836  -0.008538  -0.026389   0.004254  -1.410506  -0.008695
    18  H   -0.008226  -0.002224   0.013647  -0.001759   0.038128  -0.001038
    19  C   -0.030976   0.001623   0.001368  -0.000459  -0.593604  -0.012872
    20  H    0.004214  -0.000635   0.000410   0.000058   0.074274  -0.013049
    21  C    0.014264  -0.001308  -0.005136   0.000583  -0.240493   0.004037
    22  H   -0.000396   0.000083   0.000229   0.000118   0.039118   0.000182
    23  H   -0.000767   0.000055   0.000147  -0.000006  -0.003664   0.000530
    24  H    0.000318  -0.000063  -0.000083   0.000001   0.026185   0.000139
              13         14         15         16         17         18
     1  C   -0.003710   0.024470  -0.366667  -0.310425  -0.270749   0.005637
     2  C   -0.019496   0.032022   0.032536  -0.345664  -0.055688   0.030826
     3  C   -0.045550  -0.018746   0.417787  -0.065860   0.080769  -0.020710
     4  C    0.014628  -0.088632  -0.034868   0.206873   0.106592  -0.014681
     5  H    0.001727   0.000213   0.012005  -0.034278  -0.014548   0.000514
     6  C    0.011995  -0.027925  -2.105905   1.540882   0.737312  -0.097751
     7  C    0.455884  -0.064671   0.158648  -0.099633   0.064836  -0.008226
     8  H   -0.014417   0.002006  -0.061388   0.030424  -0.008538  -0.002224
     9  C   -0.068759   0.489067  -0.002456  -0.025366  -0.026389   0.013647
    10  H    0.000506  -0.013659  -0.000057   0.001018   0.004254  -0.001759
    11  C   -0.010169   0.007260   1.033339  -1.933465  -1.410506   0.038128
    12  O   -0.000710   0.000193   0.004252  -0.044981  -0.008695  -0.001038
    13  H    0.488225  -0.014221   0.008696  -0.003503   0.002267  -0.001182
    14  H   -0.014221   0.493096  -0.006489   0.001413  -0.001906   0.000175
    15  C    0.008696  -0.006489  12.546772  -5.083347  -0.849932   0.624575
    16  C   -0.003503   0.001413  -5.083347  11.561852   0.693742  -0.089829
    17  C    0.002267  -0.001906  -0.849932   0.693742   6.815346  -0.160457
    18  H   -0.001182   0.000175   0.624575  -0.089829  -0.160457   0.496198
    19  C   -0.000503   0.000192   0.588270  -0.072632  -0.365232   0.041645
    20  H   -0.000011  -0.000009   0.031602   0.385898   0.010462  -0.001039
    21  C    0.000454  -0.000210  -0.069705  -0.532301   0.658182  -0.006459
    22  H    0.000009   0.000004  -0.120596   0.055767   0.440376  -0.016573
    23  H   -0.000011   0.000003  -0.000238  -0.083122   0.003176   0.000276
    24  H    0.000008  -0.000003   0.001827  -0.037120  -0.075506   0.000667
              19         20         21         22         23         24
     1  C   -0.088952   0.006258   0.066926  -0.005585  -0.010702   0.005991
     2  C   -0.028151  -0.040489  -0.027634  -0.004662   0.005393  -0.004175
     3  C   -0.085658   0.038029   0.046601   0.002217  -0.005046   0.002837
     4  C    0.047342  -0.008034  -0.015883   0.002381   0.001407  -0.001405
     5  H   -0.007812  -0.001875   0.008888  -0.001207  -0.000433   0.000360
     6  C   -0.074637  -0.016224  -0.123289   0.015917   0.011881  -0.022622
     7  C   -0.030976   0.004214   0.014264  -0.000396  -0.000767   0.000318
     8  H    0.001623  -0.000635  -0.001308   0.000083   0.000055  -0.000063
     9  C    0.001368   0.000410  -0.005136   0.000229   0.000147  -0.000083
    10  H   -0.000459   0.000058   0.000583   0.000118  -0.000006   0.000001
    11  C   -0.593604   0.074274  -0.240493   0.039118  -0.003664   0.026185
    12  O   -0.012872  -0.013049   0.004037   0.000182   0.000530   0.000139
    13  H   -0.000503  -0.000011   0.000454   0.000009  -0.000011   0.000008
    14  H    0.000192  -0.000009  -0.000210   0.000004   0.000003  -0.000003
    15  C    0.588270   0.031602  -0.069705  -0.120596  -0.000238   0.001827
    16  C   -0.072632   0.385898  -0.532301   0.055767  -0.083122  -0.037120
    17  C   -0.365232   0.010462   0.658182   0.440376   0.003176  -0.075506
    18  H    0.041645  -0.001039  -0.006459  -0.016573   0.000276   0.000667
    19  C    6.379701  -0.151665   0.461444  -0.006357   0.486566  -0.063275
    20  H   -0.151665   0.461059  -0.006286   0.000513  -0.012878   0.001899
    21  C    0.461444  -0.006286   5.646215  -0.082374  -0.058831   0.515559
    22  H   -0.006357   0.000513  -0.082374   0.489399   0.000862  -0.015360
    23  H    0.486566  -0.012878  -0.058831   0.000862   0.482581  -0.016542
    24  H   -0.063275   0.001899   0.515559  -0.015360  -0.016542   0.498419
 Mulliken charges:
               1
     1  C    1.137472
     2  C   -0.423282
     3  C    0.172910
     4  C   -0.405233
     5  H    0.201532
     6  C   -1.408596
     7  C   -0.322694
     8  H    0.240141
     9  C   -0.190965
    10  H    0.198614
    11  C    1.132291
    12  O   -0.188004
    13  H    0.197843
    14  H    0.186356
    15  C   -0.758661
    16  C    0.283656
    17  C   -0.369169
    18  H    0.169640
    19  C   -0.425367
    20  H    0.237520
    21  C   -0.253241
    22  H    0.205934
    23  H    0.199362
    24  H    0.181943
 Sum of Mulliken charges =  -0.00000
 Mulliken charges with hydrogens summed into heavy atoms:
               1
     1  C    1.137472
     2  C   -0.221750
     3  C    0.413051
     4  C   -0.206619
     6  C   -1.408596
     7  C   -0.124851
     9  C   -0.004609
    11  C    1.132291
    12  O   -0.188004
    15  C   -0.589021
    16  C    0.521176
    17  C   -0.163235
    19  C   -0.226005
    21  C   -0.071299
 Electronic spatial extent (au):  <R**2>=           3068.5497
 Charge=             -0.0000 electrons
 Dipole moment (field-independent basis, Debye):
    X=              0.1784    Y=             -3.2361    Z=             -0.1293  Tot=              3.2435
 Quadrupole moment (field-independent basis, Debye-Ang):
   XX=            -64.6536   YY=            -85.0558   ZZ=            -78.4537
   XY=              0.9244   XZ=              2.7582   YZ=             -0.6812
 Traceless Quadrupole moment (field-independent basis, Debye-Ang):
   XX=             11.4008   YY=             -9.0014   ZZ=             -2.3994
   XY=              0.9244   XZ=              2.7582   YZ=             -0.6812
 Octapole moment (field-independent basis, Debye-Ang**2):
  XXX=              7.0575  YYY=            -19.9298  ZZZ=              1.0596  XYY=              5.9310
  XXY=            -11.9027  XXZ=             -1.7796  XZZ=             -7.3223  YZZ=              2.2823
  YYZ=             -1.4116  XYZ=             18.7659
 Hexadecapole moment (field-independent basis, Debye-Ang**3):
 XXXX=          -2874.2148 YYYY=           -682.5367 ZZZZ=           -300.5468 XXXY=             23.4587
 XXXZ=             68.9047 YYYX=             -3.2711 YYYZ=              4.5032 ZZZX=              8.4905
 ZZZY=             -9.0231 XXYY=           -615.1908 XXZZ=           -597.2399 YYZZ=           -140.2046
 XXYZ=             -1.5167 YYXZ=            -11.4078 ZZXY=              2.9554
 N-N= 7.813977389294D+02 E-N=-2.905017222789D+03  KE= 5.764042618315D+02
 No NMR shielding tensors so no spin-rotation constants.
 Leave Link  601 at Tue Nov 22 15:03:35 2022, MaxMem= 16106127360 cpu:               4.6 elap:               0.2
 (Enter /opt/ap/G16/B01/g16/l9999.exe)
 1\1\GINC-N17\SP\RwB97XD\6-311++G(d,p)\C13H10O1\ROOT\22-Nov-2022\0\\#P 
 wB97XD/6-311++G(d,p) scf=maxcycle=512\\_conf029.gjf nmol_natom 1_24\\0
 ,1\C\C,1,1.39746343\C,1,1.39996263,2,119.28066518\C,2,1.39288453,1,120
 .37436646,3,-0.51002981,0\H,2,0.95014703,1,119.82324024,3,179.45634896
 ,0\C,1,1.49653039,2,122.77761373,4,174.46828757,0\C,3,1.3870125,1,120.
 10017821,2,-0.37315804,0\H,3,0.9501092,1,119.95246451,2,179.5923884,0\
 C,7,1.38720039,3,120.16568731,1,1.0745106,0\H,4,0.95011919,2,120.18755
 644,1,-179.31195299,0\C,6,1.49516902,1,120.70972921,2,55.,0\O,6,1.2215
 0059,1,119.67074267,2,-125.,0\H,7,0.94956661,3,119.91274826,1,-178.886
 36029,0\H,9,0.94992259,7,119.76037934,3,179.10763853,0\C,11,1.39713972
 ,6,122.62585705,1,30.97749054,0\C,11,1.40039562,6,117.74753532,1,-153.
 15467779,0\C,15,1.39455701,11,119.80747484,6,175.4763048,0\H,15,0.9496
 2854,11,120.10535689,6,-4.50802339,0\C,16,1.38466431,11,120.4617377,6,
 -176.88197195,0\H,16,0.9497464,11,119.75779177,6,3.14699974,0\C,17,1.3
 9088945,15,120.3475273,11,0.7973643,0\H,17,0.94984298,15,119.8156451,1
 1,-179.16676483,0\H,19,0.94974749,16,119.98566335,11,-178.40987425,0\H
 ,21,0.94938585,17,120.0744529,15,179.91636093,0\\Version=ES64L-G16RevB
 .01\State=1-A\HF=-576.4176245\RMSD=4.758e-09\Dipole=0.0327398,0.953680
 7,0.8472751\Quadrupole=8.4539252,-4.8302176,-3.6237076,-1.8580716,1.16
 92107,-2.461047\PG=C01 [X(C13H10O1)]\\@


 IF YOU WISH TO UNDERSTAND THE FRAGRANCE OF THE ROSE, 
 OR THE TENACITY OF THE OAK; 
 IF YOU ARE NOT SATISFIED UNTIL YOU KNOW THE SECRET PATHS 
 BY WHICH THE SUNSHINE AND THE AIR ACHIEVE THESE WONDERS; 
 IF YOU WISH TO SEE THE PATTERN WHICH UNDERLIES ONE LARGE FIELD OF 
 HUMAN EXPERIENCE AND HUMAN MEASUREMENT, THEN TAKE UP CHEMISTRY.

                                         -- C. A. COULSON, 1973.
 Job cpu time:       0 days  0 hours 21 minutes 12.6 seconds.
 Elapsed time:       0 days  0 hours  0 minutes 40.0 seconds.
 File lengths (MBytes):  RWF=     78 Int=      0 D2E=      0 Chk=      9 Scr=      1
 Normal termination of Gaussian 16 at Tue Nov 22 15:03:35 2022.
