 Entering Gaussian System, Link 0=g16
 Input=_conf014.gjf
 Output=_conf014.log
 Initial command:
 /opt/ap/G16/B01/g16/l1.exe "/tmp2/scr/Gau-4876.inp" -scrdir="/tmp2/scr/"
 Entering Link 1 = /opt/ap/G16/B01/g16/l1.exe PID=      4877.
  
 Copyright (c) 1988-2017, Gaussian, Inc.  All Rights Reserved.
  
 This is part of the Gaussian(R) 16 program.  It is based on
 the Gaussian(R) 09 system (copyright 2009, Gaussian, Inc.),
 the Gaussian(R) 03 system (copyright 2003, Gaussian, Inc.),
 the Gaussian(R) 98 system (copyright 1998, Gaussian, Inc.),
 the Gaussian(R) 94 system (copyright 1995, Gaussian, Inc.),
 the Gaussian 92(TM) system (copyright 1992, Gaussian, Inc.),
 the Gaussian 90(TM) system (copyright 1990, Gaussian, Inc.),
 the Gaussian 88(TM) system (copyright 1988, Gaussian, Inc.),
 the Gaussian 86(TM) system (copyright 1986, Carnegie Mellon
 University), and the Gaussian 82(TM) system (copyright 1983,
 Carnegie Mellon University). Gaussian is a federally registered
 trademark of Gaussian, Inc.
  
 This software contains proprietary and confidential information,
 including trade secrets, belonging to Gaussian, Inc.
  
 This software is provided under written license and may be
 used, copied, transmitted, or stored only in accord with that
 written license.
  
 The following legend is applicable only to US Government
 contracts under FAR:
  
                    RESTRICTED RIGHTS LEGEND
  
 Use, reproduction and disclosure by the US Government is
 subject to restrictions as set forth in subparagraphs (a)
 and (c) of the Commercial Computer Software - Restricted
 Rights clause in FAR 52.227-19.
  
 Gaussian, Inc.
 340 Quinnipiac St., Bldg. 40, Wallingford CT 06492
  
  
 ---------------------------------------------------------------
 Warning -- This program may not be used in any manner that
 competes with the business of Gaussian, Inc. or will provide
 assistance to any competitor of Gaussian, Inc.  The licensee
 of this program is prohibited from giving any competitor of
 Gaussian, Inc. access to this program.  By using this program,
 the user acknowledges that Gaussian, Inc. is engaged in the
 business of creating and licensing software in the field of
 computational chemistry and represents and warrants to the
 licensee that it is not a competitor of Gaussian, Inc. and that
 it will not use this program in any manner prohibited above.
 ---------------------------------------------------------------
  

 Cite this work as:
 Gaussian 16, Revision B.01,
 M. J. Frisch, G. W. Trucks, H. B. Schlegel, G. E. Scuseria, 
 M. A. Robb, J. R. Cheeseman, G. Scalmani, V. Barone, 
 G. A. Petersson, H. Nakatsuji, X. Li, M. Caricato, A. V. Marenich, 
 J. Bloino, B. G. Janesko, R. Gomperts, B. Mennucci, H. P. Hratchian, 
 J. V. Ortiz, A. F. Izmaylov, J. L. Sonnenberg, D. Williams-Young, 
 F. Ding, F. Lipparini, F. Egidi, J. Goings, B. Peng, A. Petrone, 
 T. Henderson, D. Ranasinghe, V. G. Zakrzewski, J. Gao, N. Rega, 
 G. Zheng, W. Liang, M. Hada, M. Ehara, K. Toyota, R. Fukuda, 
 J. Hasegawa, M. Ishida, T. Nakajima, Y. Honda, O. Kitao, H. Nakai, 
 T. Vreven, K. Throssell, J. A. Montgomery, Jr., J. E. Peralta, 
 F. Ogliaro, M. J. Bearpark, J. J. Heyd, E. N. Brothers, K. N. Kudin, 
 V. N. Staroverov, T. A. Keith, R. Kobayashi, J. Normand, 
 K. Raghavachari, A. P. Rendell, J. C. Burant, S. S. Iyengar, 
 J. Tomasi, M. Cossi, J. M. Millam, M. Klene, C. Adamo, R. Cammi, 
 J. W. Ochterski, R. L. Martin, K. Morokuma, O. Farkas, 
 J. B. Foresman, and D. J. Fox, Gaussian, Inc., Wallingford CT, 2016.
 
 ******************************************
 Gaussian 16:  ES64L-G16RevB.01 20-Dec-2017
                22-Nov-2022 
 ******************************************
 %nprocshared=32
 Will use up to   32 processors via shared memory.
 %mem=120GB
 %chk=_conf014.chk
 ----------------------------------------
 #P wB97XD/6-311++G(d,p) scf=maxcycle=512
 ----------------------------------------
 1/38=1,172=1/1;
 2/12=2,17=6,18=5,40=1/2;
 3/5=4,6=6,7=1111,11=2,25=1,30=1,74=-58/1,2,3;
 4//1;
 5/5=2,7=512,38=5/2;
 6/7=2,8=2,9=2,10=2,28=1/1;
 99/5=1,9=1/99;
 Leave Link    1 at Tue Nov 22 15:00:16 2022, MaxMem= 16106127360 cpu:               2.1 elap:               0.1
 (Enter /opt/ap/G16/B01/g16/l101.exe)
 ----------------------------
 _conf014.gjf nmol_natom 1_24
 ----------------------------
 Symbolic Z-matrix:
 Charge =  0 Multiplicity = 1
 C
 C                    1     1.39746 
 C                    1     1.39996  2     119.28067 
 C                    2     1.39288  1     120.37437  3    -0.51003  0
 H                    2     0.95015  1     119.82324  3     179.45635  0
 C                    1     1.49653  2     122.77761  4     174.46829  0
 C                    3     1.38701  1     120.10018  2    -0.37316  0
 H                    3     0.95011  1     119.95246  2     179.59239  0
 C                    7     1.3872   3     120.16569  1     1.07451  0
 H                    4     0.95012  2     120.18756  1    -179.31195  0
 C                    6     1.49517  1     120.70973  2    -20.      0
 O                    6     1.2215   1     119.67074  2     160.     0
 H                    7     0.94957  3     119.91275  1    -178.88636  0
 H                    9     0.94992  7     119.76038  3     179.10764  0
 C                    11    1.39714  6     122.62586  1     30.97749  0
 C                    11    1.4004   6     117.74754  1    -153.15468  0
 C                    15    1.39456  11    119.80747  6     175.4763  0
 H                    15    0.94963  11    120.10536  6    -4.50802  0
 C                    16    1.38466  11    120.46174  6    -176.88197  0
 H                    16    0.94975  11    119.75779  6     3.147    0
 C                    17    1.39089  15    120.34753  11    0.79736  0
 H                    17    0.94984  15    119.81565  11   -179.16676  0
 H                    19    0.94975  16    119.98566  11   -178.40987  0
 H                    21    0.94939  17    120.07445  15    179.91636  0
 
 ITRead=  0  0  0  0  0  0  0  0  0  0  0  0  0  0  0  0  0  0  0  0
 ITRead=  0  0  0  0
 MicOpt= -1 -1 -1 -1 -1 -1 -1 -1 -1 -1 -1 -1 -1 -1 -1 -1 -1 -1 -1 -1
 MicOpt= -1 -1 -1 -1
 NAtoms=     24 NQM=       24 NQMF=       0 NMMI=      0 NMMIF=      0
                NMic=       0 NMicF=      0.
                    Isotopes and Nuclear Properties:
 (Nuclear quadrupole moments (NQMom) in fm**2, nuclear magnetic moments (NMagM)
  in nuclear magnetons)

  Atom         1           2           3           4           5           6           7           8           9          10
 IAtWgt=          12          12          12          12           1          12          12           1          12           1
 AtmWgt=  12.0000000  12.0000000  12.0000000  12.0000000   1.0078250  12.0000000  12.0000000   1.0078250  12.0000000   1.0078250
 NucSpn=           0           0           0           0           1           0           0           1           0           1
 AtZEff=  -0.0000000  -0.0000000  -0.0000000  -0.0000000  -0.0000000  -0.0000000  -0.0000000  -0.0000000  -0.0000000  -0.0000000
 NQMom=    0.0000000   0.0000000   0.0000000   0.0000000   0.0000000   0.0000000   0.0000000   0.0000000   0.0000000   0.0000000
 NMagM=    0.0000000   0.0000000   0.0000000   0.0000000   2.7928460   0.0000000   0.0000000   2.7928460   0.0000000   2.7928460
 AtZNuc=   6.0000000   6.0000000   6.0000000   6.0000000   1.0000000   6.0000000   6.0000000   1.0000000   6.0000000   1.0000000

  Atom        11          12          13          14          15          16          17          18          19          20
 IAtWgt=          12          16           1           1          12          12          12           1          12           1
 AtmWgt=  12.0000000  15.9949146   1.0078250   1.0078250  12.0000000  12.0000000  12.0000000   1.0078250  12.0000000   1.0078250
 NucSpn=           0           0           1           1           0           0           0           1           0           1
 AtZEff=  -0.0000000  -0.0000000  -0.0000000  -0.0000000  -0.0000000  -0.0000000  -0.0000000  -0.0000000  -0.0000000  -0.0000000
 NQMom=    0.0000000   0.0000000   0.0000000   0.0000000   0.0000000   0.0000000   0.0000000   0.0000000   0.0000000   0.0000000
 NMagM=    0.0000000   0.0000000   2.7928460   2.7928460   0.0000000   0.0000000   0.0000000   2.7928460   0.0000000   2.7928460
 AtZNuc=   6.0000000   8.0000000   1.0000000   1.0000000   6.0000000   6.0000000   6.0000000   1.0000000   6.0000000   1.0000000

  Atom        21          22          23          24
 IAtWgt=          12           1           1           1
 AtmWgt=  12.0000000   1.0078250   1.0078250   1.0078250
 NucSpn=           0           1           1           1
 AtZEff=  -0.0000000  -0.0000000  -0.0000000  -0.0000000
 NQMom=    0.0000000   0.0000000   0.0000000   0.0000000
 NMagM=    0.0000000   2.7928460   2.7928460   2.7928460
 AtZNuc=   6.0000000   1.0000000   1.0000000   1.0000000
 Leave Link  101 at Tue Nov 22 15:00:16 2022, MaxMem= 16106127360 cpu:               5.8 elap:               0.2
 (Enter /opt/ap/G16/B01/g16/l202.exe)
                          Input orientation:                          
 ---------------------------------------------------------------------
 Center     Atomic      Atomic             Coordinates (Angstroms)
 Number     Number       Type             X           Y           Z
 ---------------------------------------------------------------------
      1          6           0        0.000000    0.000000    0.000000
      2          6           0        0.000000    0.000000    1.397463
      3          6           0        1.221096    0.000000   -0.684705
      4          6           0        1.201650   -0.010697    2.101772
      5          1           0       -0.824276    0.007821    1.869996
      6          6           0       -1.253421   -0.110138   -0.810191
      7          6           0        2.414707    0.007815    0.021719
      8          1           0        1.232246   -0.005856   -1.634731
      9          6           0        2.403895   -0.006831    1.408800
     10          1           0        1.198494   -0.020531    3.051836
     11          6           0       -2.505921   -0.661555   -0.207936
     12          8           0       -1.253764    0.254231   -1.976081
     13          1           0        3.241298    0.023792   -0.445367
     14          1           0        3.224827   -0.014217    1.886678
     15          6           0       -2.817662   -0.516887    1.146276
     16          6           0       -3.429825   -1.269260   -1.067124
     17          6           0       -4.045096   -0.971468    1.627472
     18          1           0       -2.195722   -0.110010    1.737406
     19          6           0       -4.636800   -1.741251   -0.579549
     20          1           0       -3.226789   -1.358573   -1.990606
     21          6           0       -4.953388   -1.582825    0.769671
     22          1           0       -4.262032   -0.862482    2.545766
     23          1           0       -5.248786   -2.172494   -1.163948
     24          1           0       -5.787407   -1.891918    1.101645
 ---------------------------------------------------------------------
                    Distance matrix (angstroms):
                    1          2          3          4          5
     1  C    0.000000
     2  C    1.397463   0.000000
     3  C    1.399963   2.413814   0.000000
     4  C    2.421058   1.392885   2.786566   0.000000
     5  H    2.043619   0.950147   3.272630   2.039225   0.000000
     6  C    1.496530   2.541049   2.480142   3.810091   2.716889
     7  C    2.414817   2.779127   1.387013   2.408002   3.729228
     8  H    2.047146   3.273021   0.950109   3.736632   4.063567
     9  C    2.786301   2.403931   2.404542   1.387667   3.260982
    10  H    3.278797   2.042977   3.736665   0.950119   2.342893
    11  C    2.600103   3.048705   3.815183   4.416384   2.755684
    12  O    2.354029   3.607958   2.803073   4.767403   3.877820
    13  H    3.271839   3.728619   2.034469   3.263323   4.678681
    14  H    3.736210   3.261755   3.259932   2.034583   4.049198
    15  C    3.085505   2.875672   4.464440   4.162219   2.184646
    16  C    3.809655   4.410092   4.836148   5.751212   4.128740
    17  C    4.467127   4.166468   5.832897   5.355034   3.375131
    18  H    2.802120   2.224603   4.189674   3.418297   1.382869
    19  C    4.986757   5.332959   6.112115   6.653705   4.857454
    20  H    4.027455   4.872053   4.830608   6.178624   4.747983
    21  C    5.256784   5.237892   6.537950   6.490806   4.559653
    22  H    5.038821   4.497487   6.422188   5.547475   3.610022
    23  H    5.798643   6.231397   6.841693   7.546285   5.790931
    24  H    6.187654   6.095978   7.475929   7.306583   5.369548
                    6          7          8          9         10
     6  C    0.000000
     7  C    3.763130   0.000000
     8  H    2.620930   2.035246   0.000000
     9  C    4.279082   1.387200   3.261263   0.000000
    10  H    4.575496   3.265208   4.686711   2.037829   0.000000
    11  C    1.495169   4.971255   4.054575   5.210450   4.975913
    12  O    1.221501   4.184448   2.522778   4.990395   5.600804
    13  H    4.511488   0.949567   2.334899   2.034727   4.050363
    14  H    5.228480   2.033434   4.046081   0.949923   2.337447
    15  C    2.537727   5.377511   4.939322   5.252973   4.472923
    16  C    2.479176   6.080711   4.863462   6.461904   6.320323
    17  C    3.804937   6.728038   6.278910   6.524402   5.516188
    18  H    2.716281   4.920723   4.809690   4.612494   3.640938
    19  C    3.763108   7.290028   6.210531   7.518851   7.085089
    20  H    2.616515   6.143528   4.673272   6.714742   6.841030
    21  C    4.284219   7.574852   6.821293   7.551281   6.744975
    22  H    4.569487   7.190763   6.956827   6.816113   5.548182
    23  H    4.510144   8.055351   6.849797   8.358986   7.998199
    24  H    5.233249   8.488221   7.766628   8.411024   7.490537
                   11         12         13         14         15
    11  C    0.000000
    12  O    2.352211   0.000000
    13  H    5.792806   4.754132   0.000000
    14  H    6.135791   5.920368   2.332413   0.000000
    15  C    1.397140   3.576242   6.287818   6.108400   0.000000
    16  C    1.400396   2.807573   6.823668   7.388131   2.416598
    17  C    2.415332   4.720113   7.640598   7.337255   1.394557
    18  H    2.045674   3.848369   5.860340   5.423450   0.949629
    19  C    2.417537   4.168594   8.074516   8.418438   2.790484
    20  H    2.045335   2.548367   6.792263   7.646174   3.273506
    21  C    2.791872   4.959954   8.438626   8.401871   2.416481
    22  H    3.272181   5.544711   8.126027   7.563531   2.040640
    23  H    3.274172   4.744339   8.798952   9.261026   3.740125
    24  H    3.741249   5.884919   9.358456   9.239178   3.272933
                   16         17         18         19         20
    16  C    0.000000
    17  C    2.779944   0.000000
    18  H    3.276013   2.043131   0.000000
    19  C    1.384664   2.411145   3.740066   0.000000
    20  H    0.949746   3.729607   4.064490   2.031171   0.000000
    21  C    2.406945   1.390889   3.272678   1.394891   3.263520
    22  H    3.729747   0.949843   2.342925   3.268069   4.679370
    23  H    2.033181   3.268541   4.689659   0.949747   2.331159
    24  H    3.263351   2.039453   4.059507   2.042795   4.050092
                   21         22         23         24
    21  C    0.000000
    22  H    2.037493   0.000000
    23  H    2.043001   4.056081   0.000000
    24  H    0.949386   2.339229   2.345581   0.000000
 Stoichiometry    C13H10O
 Framework group  C1[X(C13H10O)]
 Deg. of freedom    66
 Full point group                 C1      NOp   1
 Largest Abelian subgroup         C1      NOp   1
 Largest concise Abelian subgroup C1      NOp   1
                         Standard orientation:                         
 ---------------------------------------------------------------------
 Center     Atomic      Atomic             Coordinates (Angstroms)
 Number     Number       Type             X           Y           Z
 ---------------------------------------------------------------------
      1          6           0        1.312106    0.344115    0.167081
      2          6           0        1.425406   -1.047079    0.235240
      3          6           0        2.443519    1.108964   -0.140824
      4          6           0        2.648175   -1.667040   -0.010957
      5          1           0        0.664231   -1.573152    0.451200
      6          6           0        0.003789    1.058024    0.302157
      7          6           0        3.662727    0.487565   -0.367095
      8          1           0        2.376042    2.055103   -0.195366
      9          6           0        3.761447   -0.894991   -0.311265
     10          1           0        2.719966   -2.613702    0.026519
     11          6           0       -1.286408    0.336922    0.076472
     12          8           0       -0.010737    2.242575    0.599968
     13          1           0        4.431841    1.009935   -0.560150
     14          1           0        4.596524   -1.315265   -0.479696
     15          6           0       -1.447736   -1.022963    0.353390
     16          6           0       -2.388100    1.089408   -0.349141
     17          6           0       -2.702033   -1.615485    0.210404
     18          1           0       -0.705567   -1.542353    0.638371
     19          6           0       -3.625833    0.490787   -0.513359
     20          1           0       -2.285309    2.016721   -0.526744
     21          6           0       -3.789243   -0.863557   -0.222206
     22          1           0       -2.814418   -2.537290    0.410024
     23          1           0       -4.363152    1.002554   -0.823962
     24          1           0       -4.641157   -1.271166   -0.319325
 ---------------------------------------------------------------------
 Rotational constants (GHZ):           1.7256161           0.4237657           0.3498916
 Leave Link  202 at Tue Nov 22 15:00:16 2022, MaxMem= 16106127360 cpu:               0.4 elap:               0.0
 (Enter /opt/ap/G16/B01/g16/l301.exe)
 Standard basis: 6-311++G(d,p) (5D, 7F)
 Ernie: Thresh=  0.10000D-02 Tol=  0.10000D-05 Strict=F.
 There are   392 symmetry adapted cartesian basis functions of A   symmetry.
 There are   378 symmetry adapted basis functions of A   symmetry.
   378 basis functions,   594 primitive gaussians,   392 cartesian basis functions
    48 alpha electrons       48 beta electrons
       nuclear repulsion energy       785.4732987312 Hartrees.
 IExCor= 4639 DFT=T Ex+Corr=wB97XD ExCW=0 ScaHFX=  1.000000
 ScaDFX=  1.000000  1.000000  1.000000  1.000000 ScalE2=  1.000000  1.000000
 IRadAn=      5 IRanWt=     -1 IRanGd=            0 ICorTp=0 IEmpDi=121
 HFx  wShort=  0.000000 wLong=  0.200000 cFull=  0.222036 cShort=  0.000000 cLong=  0.777964
 DFx  wShort=  0.000000 wLong=  0.200000 cFull=  0.000000 cShort=  0.000000 cLong=  1.000000
 NAtoms=   24 NActive=   24 NUniq=   24 SFac= 1.00D+00 NAtFMM=   60 NAOKFM=F Big=F
 Integral buffers will be    131072 words long.
 Raffenetti 2 integral format.
 Two-electron integral symmetry is turned on.
 R6Disp:  Grimme-D2 Dispersion energy=       -0.0137938912 Hartrees.
 Nuclear repulsion after empirical dispersion term =      785.4595048400 Hartrees.
 Leave Link  301 at Tue Nov 22 15:00:16 2022, MaxMem= 16106127360 cpu:               1.2 elap:               0.0
 (Enter /opt/ap/G16/B01/g16/l302.exe)
 NPDir=0 NMtPBC=     1 NCelOv=     1 NCel=       1 NClECP=     1 NCelD=      1
         NCelK=      1 NCelE2=     1 NClLst=     1 CellRange=     0.0.
 One-electron integrals computed using PRISM.
 One-electron integral symmetry used in STVInt
 NBasis=   378 RedAO= T EigKep=  1.99D-06  NBF=   378
 NBsUse=   375 1.00D-06 EigRej=  8.90D-07 NBFU=   375
 Precomputing XC quadrature grid using
 IXCGrd= 4 IRadAn=           5 IRanWt=          -1 IRanGd=           0 AccXCQ= 0.00D+00.
 Generated NRdTot=       0 NPtTot=           0 NUsed=           0 NTot=          32
 NSgBfM=   392   392   392   392   392 MxSgAt=    24 MxSgA2=    24.
 Leave Link  302 at Tue Nov 22 15:00:16 2022, MaxMem= 16106127360 cpu:               8.4 elap:               0.3
 (Enter /opt/ap/G16/B01/g16/l303.exe)
 DipDrv:  MaxL=1.
 Leave Link  303 at Tue Nov 22 15:00:16 2022, MaxMem= 16106127360 cpu:               1.6 elap:               0.1
 (Enter /opt/ap/G16/B01/g16/l401.exe)
 ExpMin= 3.60D-02 ExpMax= 8.59D+03 ExpMxC= 1.30D+03 IAcc=3 IRadAn=         5 AccDes= 0.00D+00
 Harris functional with IExCor= 4639 and IRadAn=       5 diagonalized for initial guess.
 HarFok:  IExCor= 4639 AccDes= 0.00D+00 IRadAn=         5 IDoV= 1 UseB2=F ITyADJ=14
 ICtDFT=  3500011 ScaDFX=  1.000000  1.000000  1.000000  1.000000
 FoFCou: FMM=F IPFlag=           0 FMFlag=      100000 FMFlg1=           0
         NFxFlg=           0 DoJE=T BraDBF=F KetDBF=T FulRan=T
         wScrn=  0.000000 ICntrl=       500 IOpCl=  0 I1Cent=   200000004 NGrid=           0
         NMat0=    1 NMatS0=      1 NMatT0=    0 NMatD0=    1 NMtDS0=    0 NMtDT0=    0
 Petite list used in FoFCou.
 Harris En= -550.884041523878    
 JPrj=0 DoOrth=F DoCkMO=F.
 Leave Link  401 at Tue Nov 22 15:00:17 2022, MaxMem= 16106127360 cpu:              23.0 elap:               0.7
 (Enter /opt/ap/G16/B01/g16/l502.exe)
 Integral symmetry usage will be decided dynamically.
 Closed shell SCF:
 Using DIIS extrapolation, IDIIS=  1040.
 NGot= 16106127360 LenX= 16105803762 LenY= 16105649657
 Requested convergence on RMS density matrix=1.00D-08 within 512 cycles.
 Requested convergence on MAX density matrix=1.00D-06.
 Requested convergence on             energy=1.00D-06.
 No special actions if energy rises.
 Fock matrices will be formed incrementally for  20 cycles.

 Cycle   1  Pass 1  IDiag  1:
 FoFJK:  IHMeth= 1 ICntrl=       0 DoSepK=T KAlg= 0 I1Cent=           0 FoldK=F
 IRaf=         1 NMat=       1 IRICut=       1 DoRegI=T DoRafI=F ISym2E= 0 IDoP0=0 IntGTp=1.
 FoFCou: FMM=F IPFlag=           0 FMFlag=      100000 FMFlg1=           0
         NFxFlg=           0 DoJE=T BraDBF=F KetDBF=F FulRan=T
         wScrn=  0.000000 ICntrl=       500 IOpCl=  0 I1Cent=           0 NGrid=           0
         NMat0=    1 NMatS0=      1 NMatT0=    0 NMatD0=    1 NMtDS0=    0 NMtDT0=    0
 Symmetry not used in FoFCou.
 E= -576.248108653604    
 DIIS: error= 5.54D-02 at cycle   1 NSaved=   1.
 NSaved= 1 IEnMin= 1 EnMin= -576.248108653604     IErMin= 1 ErrMin= 5.54D-02
 ErrMax= 5.54D-02  0.00D+00 EMaxC= 1.00D-01 BMatC= 1.19D+00 BMatP= 1.19D+00
 IDIUse=3 WtCom= 4.46D-01 WtEn= 5.54D-01
 Coeff-Com:  0.100D+01
 Coeff-En:   0.100D+01
 Coeff:      0.100D+01
 Gap=     0.401 Goal=   None    Shift=    0.000
 GapD=    0.401 DampG=2.000 DampE=0.500 DampFc=1.0000 IDamp=-1.
 RMSDP=4.07D-02 MaxDP=6.26D+00              OVMax= 1.31D-01

 Cycle   2  Pass 1  IDiag  1:
 RMSU=  1.48D-02    CP:  6.28D-01
 E= -576.337183549963     Delta-E=       -0.089074896359 Rises=F Damp=F
 DIIS: error= 1.69D-02 at cycle   2 NSaved=   2.
 NSaved= 2 IEnMin= 2 EnMin= -576.337183549963     IErMin= 2 ErrMin= 1.69D-02
 ErrMax= 1.69D-02  0.00D+00 EMaxC= 1.00D-01 BMatC= 7.49D-02 BMatP= 1.19D+00
 IDIUse=3 WtCom= 8.31D-01 WtEn= 1.69D-01
 Coeff-Com:  0.126D+00 0.874D+00
 Coeff-En:   0.143D+00 0.857D+00
 Coeff:      0.128D+00 0.872D+00
 Gap=     0.415 Goal=   None    Shift=    0.000
 RMSDP=1.17D-02 MaxDP=8.07D-01 DE=-8.91D-02 OVMax= 1.63D-01

 Cycle   3  Pass 1  IDiag  1:
 RMSU=  8.36D-03    CP:  6.19D-01  4.54D-01
 E= -576.353236463330     Delta-E=       -0.016052913367 Rises=F Damp=F
 DIIS: error= 1.76D-02 at cycle   3 NSaved=   3.
 NSaved= 3 IEnMin= 3 EnMin= -576.353236463330     IErMin= 2 ErrMin= 1.69D-02
 ErrMax= 1.76D-02  0.00D+00 EMaxC= 1.00D-01 BMatC= 5.54D-02 BMatP= 7.49D-02
 IDIUse=3 WtCom= 8.24D-01 WtEn= 1.76D-01
 Coeff-Com:  0.239D-01 0.466D+00 0.510D+00
 Coeff-En:   0.000D+00 0.433D+00 0.567D+00
 Coeff:      0.197D-01 0.460D+00 0.520D+00
 Gap=     0.345 Goal=   None    Shift=    0.000
 RMSDP=7.54D-03 MaxDP=5.81D-01 DE=-1.61D-02 OVMax= 6.39D-02

 Cycle   4  Pass 1  IDiag  1:
 RMSU=  2.15D-03    CP:  5.82D-01  7.39D-01  4.70D-01
 E= -576.401945205883     Delta-E=       -0.048708742553 Rises=F Damp=F
 DIIS: error= 2.15D-03 at cycle   4 NSaved=   4.
 NSaved= 4 IEnMin= 4 EnMin= -576.401945205883     IErMin= 4 ErrMin= 2.15D-03
 ErrMax= 2.15D-03  0.00D+00 EMaxC= 1.00D-01 BMatC= 9.77D-04 BMatP= 5.54D-02
 IDIUse=3 WtCom= 9.78D-01 WtEn= 2.15D-02
 Coeff-Com:  0.962D-02 0.200D+00 0.246D+00 0.544D+00
 Coeff-En:   0.000D+00 0.000D+00 0.000D+00 0.100D+01
 Coeff:      0.941D-02 0.196D+00 0.240D+00 0.554D+00
 Gap=     0.319 Goal=   None    Shift=    0.000
 RMSDP=6.03D-04 MaxDP=3.63D-02 DE=-4.87D-02 OVMax= 6.69D-03

 Cycle   5  Pass 1  IDiag  1:
 RMSU=  4.27D-04    CP:  5.82D-01  7.67D-01  4.67D-01  9.76D-01
 E= -576.402618956817     Delta-E=       -0.000673750934 Rises=F Damp=F
 DIIS: error= 5.11D-04 at cycle   5 NSaved=   5.
 NSaved= 5 IEnMin= 5 EnMin= -576.402618956817     IErMin= 5 ErrMin= 5.11D-04
 ErrMax= 5.11D-04  0.00D+00 EMaxC= 1.00D-01 BMatC= 8.30D-05 BMatP= 9.77D-04
 IDIUse=3 WtCom= 9.95D-01 WtEn= 5.11D-03
 Coeff-Com: -0.599D-03-0.856D-02 0.262D-03 0.214D+00 0.795D+00
 Coeff-En:   0.000D+00 0.000D+00 0.000D+00 0.000D+00 0.100D+01
 Coeff:     -0.596D-03-0.852D-02 0.261D-03 0.213D+00 0.796D+00
 Gap=     0.320 Goal=   None    Shift=    0.000
 RMSDP=6.35D-04 MaxDP=9.79D-02 DE=-6.74D-04 OVMax= 2.44D-03

 Cycle   6  Pass 1  IDiag  1:
 RMSU=  2.47D-04    CP:  5.77D-01  7.62D-01  4.88D-01  1.02D+00  5.22D-01
 E= -576.402683288644     Delta-E=       -0.000064331827 Rises=F Damp=F
 DIIS: error= 2.54D-04 at cycle   6 NSaved=   6.
 NSaved= 6 IEnMin= 6 EnMin= -576.402683288644     IErMin= 6 ErrMin= 2.54D-04
 ErrMax= 2.54D-04  0.00D+00 EMaxC= 1.00D-01 BMatC= 1.87D-05 BMatP= 8.30D-05
 IDIUse=3 WtCom= 9.97D-01 WtEn= 2.54D-03
 Coeff-Com: -0.123D-02-0.232D-01-0.223D-01 0.625D-01 0.431D+00 0.553D+00
 Coeff-En:   0.000D+00 0.000D+00 0.000D+00 0.000D+00 0.000D+00 0.100D+01
 Coeff:     -0.123D-02-0.231D-01-0.222D-01 0.623D-01 0.430D+00 0.554D+00
 Gap=     0.320 Goal=   None    Shift=    0.000
 RMSDP=1.50D-04 MaxDP=2.00D-02 DE=-6.43D-05 OVMax= 1.28D-03

 Cycle   7  Pass 1  IDiag  1:
 RMSU=  7.62D-05    CP:  5.77D-01  7.67D-01  4.83D-01  1.05D+00  5.92D-01
                    CP:  9.24D-01
 E= -576.402702652414     Delta-E=       -0.000019363770 Rises=F Damp=F
 DIIS: error= 6.28D-05 at cycle   7 NSaved=   7.
 NSaved= 7 IEnMin= 7 EnMin= -576.402702652414     IErMin= 7 ErrMin= 6.28D-05
 ErrMax= 6.28D-05  0.00D+00 EMaxC= 1.00D-01 BMatC= 4.61D-07 BMatP= 1.87D-05
 IDIUse=1 WtCom= 1.00D+00 WtEn= 0.00D+00
 Coeff-Com: -0.219D-03-0.422D-02-0.503D-02-0.108D-01-0.110D-01 0.102D+00
 Coeff-Com:  0.929D+00
 Coeff:     -0.219D-03-0.422D-02-0.503D-02-0.108D-01-0.110D-01 0.102D+00
 Coeff:      0.929D+00
 Gap=     0.320 Goal=   None    Shift=    0.000
 RMSDP=5.65D-05 MaxDP=7.46D-03 DE=-1.94D-05 OVMax= 5.21D-04

 Cycle   8  Pass 1  IDiag  1:
 RMSU=  1.66D-05    CP:  5.77D-01  7.67D-01  4.84D-01  1.05D+00  5.54D-01
                    CP:  1.04D+00  1.05D+00
 E= -576.402703793340     Delta-E=       -0.000001140927 Rises=F Damp=F
 DIIS: error= 1.61D-05 at cycle   8 NSaved=   8.
 NSaved= 8 IEnMin= 8 EnMin= -576.402703793340     IErMin= 8 ErrMin= 1.61D-05
 ErrMax= 1.61D-05  0.00D+00 EMaxC= 1.00D-01 BMatC= 7.89D-08 BMatP= 4.61D-07
 IDIUse=1 WtCom= 1.00D+00 WtEn= 0.00D+00
 Coeff-Com:  0.428D-04 0.587D-03 0.731D-04-0.118D-01-0.538D-01-0.217D-01
 Coeff-Com:  0.322D+00 0.764D+00
 Coeff:      0.428D-04 0.587D-03 0.731D-04-0.118D-01-0.538D-01-0.217D-01
 Coeff:      0.322D+00 0.764D+00
 Gap=     0.320 Goal=   None    Shift=    0.000
 RMSDP=1.36D-05 MaxDP=1.56D-03 DE=-1.14D-06 OVMax= 1.72D-04

 Cycle   9  Pass 1  IDiag  1:
 RMSU=  4.45D-06    CP:  5.77D-01  7.67D-01  4.85D-01  1.05D+00  5.45D-01
                    CP:  1.07D+00  1.06D+00  1.17D+00
 E= -576.402703937981     Delta-E=       -0.000000144640 Rises=F Damp=F
 DIIS: error= 5.46D-06 at cycle   9 NSaved=   9.
 NSaved= 9 IEnMin= 9 EnMin= -576.402703937981     IErMin= 9 ErrMin= 5.46D-06
 ErrMax= 5.46D-06  0.00D+00 EMaxC= 1.00D-01 BMatC= 5.33D-09 BMatP= 7.89D-08
 IDIUse=1 WtCom= 1.00D+00 WtEn= 0.00D+00
 Coeff-Com:  0.373D-04 0.653D-03 0.630D-03-0.872D-03-0.925D-02-0.159D-01
 Coeff-Com: -0.532D-01 0.153D+00 0.925D+00
 Coeff:      0.373D-04 0.653D-03 0.630D-03-0.872D-03-0.925D-02-0.159D-01
 Coeff:     -0.532D-01 0.153D+00 0.925D+00
 Gap=     0.320 Goal=   None    Shift=    0.000
 RMSDP=4.74D-06 MaxDP=1.93D-04 DE=-1.45D-07 OVMax= 7.21D-05

 Cycle  10  Pass 1  IDiag  1:
 RMSU=  2.08D-06    CP:  5.77D-01  7.67D-01  4.85D-01  1.05D+00  5.40D-01
                    CP:  1.07D+00  1.07D+00  1.32D+00  1.29D+00
 E= -576.402703952281     Delta-E=       -0.000000014301 Rises=F Damp=F
 DIIS: error= 1.25D-06 at cycle  10 NSaved=  10.
 NSaved=10 IEnMin=10 EnMin= -576.402703952281     IErMin=10 ErrMin= 1.25D-06
 ErrMax= 1.25D-06  0.00D+00 EMaxC= 1.00D-01 BMatC= 3.84D-10 BMatP= 5.33D-09
 IDIUse=1 WtCom= 1.00D+00 WtEn= 0.00D+00
 Coeff-Com: -0.183D-05-0.299D-06 0.289D-04 0.110D-02 0.384D-02 0.145D-02
 Coeff-Com: -0.251D-01-0.564D-01 0.649D-01 0.101D+01
 Coeff:     -0.183D-05-0.299D-06 0.289D-04 0.110D-02 0.384D-02 0.145D-02
 Coeff:     -0.251D-01-0.564D-01 0.649D-01 0.101D+01
 Gap=     0.320 Goal=   None    Shift=    0.000
 RMSDP=1.50D-06 MaxDP=1.39D-04 DE=-1.43D-08 OVMax= 1.69D-05

 Cycle  11  Pass 1  IDiag  1:
 RMSU=  8.55D-07    CP:  5.77D-01  7.67D-01  4.85D-01  1.05D+00  5.41D-01
                    CP:  1.07D+00  1.07D+00  1.36D+00  1.34D+00  1.25D+00
 E= -576.402703953461     Delta-E=       -0.000000001179 Rises=F Damp=F
 DIIS: error= 3.48D-07 at cycle  11 NSaved=  11.
 NSaved=11 IEnMin=11 EnMin= -576.402703953461     IErMin=11 ErrMin= 3.48D-07
 ErrMax= 3.48D-07  0.00D+00 EMaxC= 1.00D-01 BMatC= 7.14D-11 BMatP= 3.84D-10
 IDIUse=1 WtCom= 1.00D+00 WtEn= 0.00D+00
 Coeff-Com: -0.268D-05-0.380D-04-0.296D-04 0.445D-03 0.172D-02 0.135D-02
 Coeff-Com: -0.477D-02-0.297D-01-0.453D-01 0.306D+00 0.770D+00
 Coeff:     -0.268D-05-0.380D-04-0.296D-04 0.445D-03 0.172D-02 0.135D-02
 Coeff:     -0.477D-02-0.297D-01-0.453D-01 0.306D+00 0.770D+00
 Gap=     0.320 Goal=   None    Shift=    0.000
 RMSDP=4.31D-07 MaxDP=2.66D-05 DE=-1.18D-09 OVMax= 5.76D-06

 Cycle  12  Pass 1  IDiag  1:
 RMSU=  1.74D-07    CP:  5.77D-01  7.67D-01  4.85D-01  1.05D+00  5.41D-01
                    CP:  1.07D+00  1.07D+00  1.36D+00  1.36D+00  1.32D+00
                    CP:  1.12D+00
 E= -576.402703953635     Delta-E=       -0.000000000174 Rises=F Damp=F
 DIIS: error= 2.29D-07 at cycle  12 NSaved=  12.
 NSaved=12 IEnMin=12 EnMin= -576.402703953635     IErMin=12 ErrMin= 2.29D-07
 ErrMax= 2.29D-07  0.00D+00 EMaxC= 1.00D-01 BMatC= 7.92D-12 BMatP= 7.14D-11
 IDIUse=1 WtCom= 1.00D+00 WtEn= 0.00D+00
 Coeff-Com:  0.852D-07-0.454D-05-0.995D-05-0.137D-03-0.561D-03-0.161D-03
 Coeff-Com:  0.445D-02 0.775D-02-0.156D-01-0.149D+00 0.723D-01 0.108D+01
 Coeff:      0.852D-07-0.454D-05-0.995D-05-0.137D-03-0.561D-03-0.161D-03
 Coeff:      0.445D-02 0.775D-02-0.156D-01-0.149D+00 0.723D-01 0.108D+01
 Gap=     0.320 Goal=   None    Shift=    0.000
 RMSDP=2.91D-07 MaxDP=2.97D-05 DE=-1.74D-10 OVMax= 4.46D-06

 Cycle  13  Pass 1  IDiag  1:
 RMSU=  7.57D-08    CP:  5.77D-01  7.67D-01  4.85D-01  1.05D+00  5.41D-01
                    CP:  1.07D+00  1.07D+00  1.35D+00  1.36D+00  1.36D+00
                    CP:  1.25D+00  1.43D+00
 E= -576.402703953672     Delta-E=       -0.000000000037 Rises=F Damp=F
 DIIS: error= 8.58D-08 at cycle  13 NSaved=  13.
 NSaved=13 IEnMin=13 EnMin= -576.402703953672     IErMin=13 ErrMin= 8.58D-08
 ErrMax= 8.58D-08  0.00D+00 EMaxC= 1.00D-01 BMatC= 1.56D-12 BMatP= 7.92D-12
 IDIUse=1 WtCom= 1.00D+00 WtEn= 0.00D+00
 Coeff-Com:  0.298D-06 0.305D-05 0.142D-05-0.861D-04-0.327D-03-0.216D-03
 Coeff-Com:  0.151D-02 0.502D-02 0.878D-03-0.706D-01-0.758D-01 0.266D+00
 Coeff-Com:  0.874D+00
 Coeff:      0.298D-06 0.305D-05 0.142D-05-0.861D-04-0.327D-03-0.216D-03
 Coeff:      0.151D-02 0.502D-02 0.878D-03-0.706D-01-0.758D-01 0.266D+00
 Coeff:      0.874D+00
 Gap=     0.320 Goal=   None    Shift=    0.000
 RMSDP=9.04D-08 MaxDP=1.23D-05 DE=-3.73D-11 OVMax= 1.84D-06

 Cycle  14  Pass 1  IDiag  1:
 RMSU=  3.10D-08    CP:  5.77D-01  7.67D-01  4.85D-01  1.05D+00  5.41D-01
                    CP:  1.07D+00  1.07D+00  1.35D+00  1.35D+00  1.36D+00
                    CP:  1.29D+00  1.57D+00  1.36D+00
 E= -576.402703953680     Delta-E=       -0.000000000008 Rises=F Damp=F
 DIIS: error= 3.93D-08 at cycle  14 NSaved=  14.
 NSaved=14 IEnMin=14 EnMin= -576.402703953680     IErMin=14 ErrMin= 3.93D-08
 ErrMax= 3.93D-08  0.00D+00 EMaxC= 1.00D-01 BMatC= 3.48D-13 BMatP= 1.56D-12
 IDIUse=1 WtCom= 1.00D+00 WtEn= 0.00D+00
 Coeff-Com:  0.491D-07 0.176D-05 0.297D-05 0.572D-05 0.466D-04-0.198D-04
 Coeff-Com: -0.608D-03-0.441D-03 0.376D-02 0.156D-01-0.329D-01-0.188D+00
 Coeff-Com:  0.215D+00 0.987D+00
 Coeff:      0.491D-07 0.176D-05 0.297D-05 0.572D-05 0.466D-04-0.198D-04
 Coeff:     -0.608D-03-0.441D-03 0.376D-02 0.156D-01-0.329D-01-0.188D+00
 Coeff:      0.215D+00 0.987D+00
 Gap=     0.320 Goal=   None    Shift=    0.000
 RMSDP=3.63D-08 MaxDP=4.22D-06 DE=-7.73D-12 OVMax= 1.02D-06

 Cycle  15  Pass 1  IDiag  1:
 RMSU=  1.29D-08    CP:  5.77D-01  7.67D-01  4.85D-01  1.05D+00  5.41D-01
                    CP:  1.07D+00  1.07D+00  1.35D+00  1.35D+00  1.36D+00
                    CP:  1.29D+00  1.62D+00  1.64D+00  1.08D+00
 E= -576.402703953678     Delta-E=        0.000000000001 Rises=F Damp=F
 DIIS: error= 1.40D-08 at cycle  15 NSaved=  15.
 NSaved=15 IEnMin=14 EnMin= -576.402703953680     IErMin=15 ErrMin= 1.40D-08
 ErrMax= 1.40D-08  0.00D+00 EMaxC= 1.00D-01 BMatC= 6.94D-14 BMatP= 3.48D-13
 IDIUse=1 WtCom= 1.00D+00 WtEn= 0.00D+00
 Coeff-Com: -0.263D-07 0.206D-06 0.969D-06 0.157D-04 0.716D-04 0.315D-04
 Coeff-Com: -0.462D-03-0.942D-03 0.136D-02 0.175D-01 0.261D-02-0.119D+00
 Coeff-Com: -0.488D-01 0.381D+00 0.766D+00
 Coeff:     -0.263D-07 0.206D-06 0.969D-06 0.157D-04 0.716D-04 0.315D-04
 Coeff:     -0.462D-03-0.942D-03 0.136D-02 0.175D-01 0.261D-02-0.119D+00
 Coeff:     -0.488D-01 0.381D+00 0.766D+00
 Gap=     0.320 Goal=   None    Shift=    0.000
 RMSDP=9.48D-09 MaxDP=6.49D-07 DE= 1.36D-12 OVMax= 2.99D-07

 SCF Done:  E(RwB97XD) =  -576.402703954     A.U. after   15 cycles
            NFock= 15  Conv=0.95D-08     -V/T= 1.9998
 KE= 5.764898894112D+02 PE=-2.913101395163D+03 EE= 9.747492969576D+02
 Leave Link  502 at Tue Nov 22 15:00:53 2022, MaxMem= 16106127360 cpu:            1140.1 elap:              35.7
 (Enter /opt/ap/G16/B01/g16/l601.exe)
 Copying SCF densities to generalized density rwf, IOpCl= 0 IROHF=0.

 **********************************************************************

            Population analysis using the SCF Density.

 **********************************************************************

 Orbital symmetries:
       Occupied  (A) (A) (A) (A) (A) (A) (A) (A) (A) (A) (A) (A)
                 (A) (A) (A) (A) (A) (A) (A) (A) (A) (A) (A) (A)
                 (A) (A) (A) (A) (A) (A) (A) (A) (A) (A) (A) (A)
                 (A) (A) (A) (A) (A) (A) (A) (A) (A) (A) (A) (A)
       Virtual   (A) (A) (A) (A) (A) (A) (A) (A) (A) (A) (A) (A)
                 (A) (A) (A) (A) (A) (A) (A) (A) (A) (A) (A) (A)
                 (A) (A) (A) (A) (A) (A) (A) (A) (A) (A) (A) (A)
                 (A) (A) (A) (A) (A) (A) (A) (A) (A) (A) (A) (A)
                 (A) (A) (A) (A) (A) (A) (A) (A) (A) (A) (A) (A)
                 (A) (A) (A) (A) (A) (A) (A) (A) (A) (A) (A) (A)
                 (A) (A) (A) (A) (A) (A) (A) (A) (A) (A) (A) (A)
                 (A) (A) (A) (A) (A) (A) (A) (A) (A) (A) (A) (A)
                 (A) (A) (A) (A) (A) (A) (A) (A) (A) (A) (A) (A)
                 (A) (A) (A) (A) (A) (A) (A) (A) (A) (A) (A) (A)
                 (A) (A) (A) (A) (A) (A) (A) (A) (A) (A) (A) (A)
                 (A) (A) (A) (A) (A) (A) (A) (A) (A) (A) (A) (A)
                 (A) (A) (A) (A) (A) (A) (A) (A) (A) (A) (A) (A)
                 (A) (A) (A) (A) (A) (A) (A) (A) (A) (A) (A) (A)
                 (A) (A) (A) (A) (A) (A) (A) (A) (A) (A) (A) (A)
                 (A) (A) (A) (A) (A) (A) (A) (A) (A) (A) (A) (A)
                 (A) (A) (A) (A) (A) (A) (A) (A) (A) (A) (A) (A)
                 (A) (A) (A) (A) (A) (A) (A) (A) (A) (A) (A) (A)
                 (A) (A) (A) (A) (A) (A) (A) (A) (A) (A) (A) (A)
                 (A) (A) (A) (A) (A) (A) (A) (A) (A) (A) (A) (A)
                 (A) (A) (A) (A) (A) (A) (A) (A) (A) (A) (A) (A)
                 (A) (A) (A) (A) (A) (A) (A) (A) (A) (A) (A) (A)
                 (A) (A) (A) (A) (A) (A) (A) (A) (A) (A) (A) (A)
                 (A) (A) (A) (A) (A) (A) (A) (A) (A) (A) (A) (A)
                 (A) (A) (A) (A) (A) (A) (A) (A) (A) (A) (A) (A)
                 (A) (A) (A) (A) (A) (A) (A) (A) (A) (A) (A) (A)
                 (A) (A) (A) (A) (A) (A) (A) (A) (A) (A) (A) (A)
                 (A) (A) (A)
 The electronic state is 1-A.
 Alpha  occ. eigenvalues --  -19.23742 -10.38214 -10.30614 -10.30569 -10.28916
 Alpha  occ. eigenvalues --  -10.28804 -10.28625 -10.28526 -10.28506 -10.28464
 Alpha  occ. eigenvalues --  -10.28449 -10.28421 -10.28254 -10.28185  -1.14870
 Alpha  occ. eigenvalues --   -0.98130  -0.97408  -0.89556  -0.87552  -0.87335
 Alpha  occ. eigenvalues --   -0.86607  -0.77008  -0.74956  -0.73293  -0.72369
 Alpha  occ. eigenvalues --   -0.68274  -0.64957  -0.64401  -0.59592  -0.57564
 Alpha  occ. eigenvalues --   -0.56352  -0.55838  -0.54644  -0.53659  -0.52626
 Alpha  occ. eigenvalues --   -0.52024  -0.50334  -0.47747  -0.46840  -0.46035
 Alpha  occ. eigenvalues --   -0.45324  -0.44942  -0.43714  -0.35137  -0.34938
 Alpha  occ. eigenvalues --   -0.34177  -0.33907  -0.33291
 Alpha virt. eigenvalues --   -0.01268   0.03411   0.03701   0.04292   0.04784
 Alpha virt. eigenvalues --    0.04895   0.05278   0.05776   0.05995   0.07557
 Alpha virt. eigenvalues --    0.07881   0.08634   0.09711   0.10186   0.10995
 Alpha virt. eigenvalues --    0.11379   0.11917   0.12645   0.13336   0.14474
 Alpha virt. eigenvalues --    0.14967   0.15161   0.15998   0.16200   0.16820
 Alpha virt. eigenvalues --    0.16940   0.17172   0.17399   0.17723   0.18315
 Alpha virt. eigenvalues --    0.18502   0.18786   0.19535   0.19597   0.19824
 Alpha virt. eigenvalues --    0.20106   0.20384   0.20719   0.21037   0.21618
 Alpha virt. eigenvalues --    0.22293   0.22568   0.23079   0.23644   0.23856
 Alpha virt. eigenvalues --    0.24334   0.24678   0.25367   0.25804   0.26192
 Alpha virt. eigenvalues --    0.26681   0.27224   0.27746   0.28315   0.28816
 Alpha virt. eigenvalues --    0.29975   0.30165   0.31075   0.31093   0.31469
 Alpha virt. eigenvalues --    0.32051   0.32700   0.33612   0.33956   0.34153
 Alpha virt. eigenvalues --    0.34763   0.35090   0.35741   0.36123   0.36296
 Alpha virt. eigenvalues --    0.36426   0.37439   0.38098   0.38463   0.38637
 Alpha virt. eigenvalues --    0.39420   0.40932   0.41362   0.41948   0.42374
 Alpha virt. eigenvalues --    0.42490   0.42859   0.44340   0.44528   0.45210
 Alpha virt. eigenvalues --    0.45986   0.48013   0.48261   0.50238   0.54151
 Alpha virt. eigenvalues --    0.56189   0.57780   0.58368   0.58765   0.60696
 Alpha virt. eigenvalues --    0.62009   0.62818   0.63026   0.63438   0.64059
 Alpha virt. eigenvalues --    0.64442   0.64805   0.65168   0.65381   0.66354
 Alpha virt. eigenvalues --    0.67161   0.68105   0.68428   0.69547   0.69841
 Alpha virt. eigenvalues --    0.71714   0.73257   0.73959   0.74350   0.75081
 Alpha virt. eigenvalues --    0.75583   0.76728   0.77493   0.79331   0.80298
 Alpha virt. eigenvalues --    0.81132   0.81545   0.82723   0.83055   0.83913
 Alpha virt. eigenvalues --    0.84741   0.86162   0.86202   0.87909   0.90562
 Alpha virt. eigenvalues --    0.91468   0.93103   0.93415   0.94228   0.94781
 Alpha virt. eigenvalues --    0.94874   0.95599   0.95803   0.96705   0.97386
 Alpha virt. eigenvalues --    0.99365   1.00350   1.01302   1.01624   1.02442
 Alpha virt. eigenvalues --    1.03151   1.03408   1.05093   1.06297   1.08732
 Alpha virt. eigenvalues --    1.09725   1.10452   1.11949   1.13106   1.14154
 Alpha virt. eigenvalues --    1.15480   1.16729   1.17193   1.18313   1.19008
 Alpha virt. eigenvalues --    1.21570   1.22297   1.23591   1.26983   1.27932
 Alpha virt. eigenvalues --    1.29066   1.31396   1.34801   1.36737   1.39434
 Alpha virt. eigenvalues --    1.43542   1.45660   1.47421   1.54977   1.57203
 Alpha virt. eigenvalues --    1.57966   1.58458   1.59872   1.60731   1.61716
 Alpha virt. eigenvalues --    1.62782   1.64267   1.65884   1.66425   1.68055
 Alpha virt. eigenvalues --    1.68199   1.68587   1.68932   1.71126   1.74361
 Alpha virt. eigenvalues --    1.75856   1.76328   1.76935   1.78791   1.82194
 Alpha virt. eigenvalues --    1.83032   1.84475   1.87416   1.89079   1.89427
 Alpha virt. eigenvalues --    1.91153   1.91881   1.92846   1.94382   1.95289
 Alpha virt. eigenvalues --    1.97025   1.99808   2.00859   2.00953   2.01789
 Alpha virt. eigenvalues --    2.03436   2.04388   2.05088   2.05372   2.06068
 Alpha virt. eigenvalues --    2.07066   2.08748   2.08973   2.11033   2.11171
 Alpha virt. eigenvalues --    2.15178   2.18303   2.20386   2.22619   2.24581
 Alpha virt. eigenvalues --    2.26027   2.27686   2.30178   2.31397   2.34653
 Alpha virt. eigenvalues --    2.42769   2.43919   2.46370   2.48023   2.48475
 Alpha virt. eigenvalues --    2.50448   2.51141   2.52139   2.55118   2.57754
 Alpha virt. eigenvalues --    2.58697   2.61422   2.64631   2.69653   2.72376
 Alpha virt. eigenvalues --    2.76226   2.77124   2.78882   2.80855   2.82773
 Alpha virt. eigenvalues --    2.84573   2.85794   2.86635   2.90632   2.91323
 Alpha virt. eigenvalues --    2.92221   2.92861   2.94020   2.96434   2.98128
 Alpha virt. eigenvalues --    2.98317   2.99625   3.00118   3.00298   3.00894
 Alpha virt. eigenvalues --    3.02271   3.02715   3.04978   3.06748   3.08387
 Alpha virt. eigenvalues --    3.09166   3.12827   3.14059   3.19482   3.20675
 Alpha virt. eigenvalues --    3.21207   3.24476   3.25216   3.26447   3.31181
 Alpha virt. eigenvalues --    3.32149   3.37414   3.41642   3.45208   3.48461
 Alpha virt. eigenvalues --    3.50839   3.51363   3.56943   3.68281   3.69468
 Alpha virt. eigenvalues --    3.70329   3.73344   3.75003   3.76752   3.84519
 Alpha virt. eigenvalues --    3.88484   3.94979   3.96341   4.31076   4.36633
 Alpha virt. eigenvalues --    4.38197   4.39809   4.40485   4.41488   4.49614
 Alpha virt. eigenvalues --    4.50282   4.56460   4.65702   4.95326   4.95848
 Alpha virt. eigenvalues --    5.20040   5.35794   5.85977  23.86578  23.97148
 Alpha virt. eigenvalues --   23.99306  24.17113  24.17960  24.23260  24.25998
 Alpha virt. eigenvalues --   24.29807  24.32102  24.33797  24.35296  24.43486
 Alpha virt. eigenvalues --   24.44653  50.15782
          Condensed to atoms (all electrons):
               1          2          3          4          5          6
     1  C   16.727827   2.983838  -3.450870  -1.370379   0.313042 -10.263503
     2  C    2.983838  10.922872  -3.429143  -1.586147   0.868216  -4.252030
     3  C   -3.450870  -3.429143   9.639259   1.672319  -0.165929   3.246230
     4  C   -1.370379  -1.586147   1.672319   7.727996  -0.382347  -0.198803
     5  H    0.313042   0.868216  -0.165929  -0.382347   0.881356  -0.191488
     6  C  -10.263503  -4.252030   3.246230  -0.198803  -0.191488  29.519463
     7  C   -0.438265   0.971343  -0.545645  -0.887530   0.163394   0.064367
     8  H    0.011735   0.009180   0.459015   0.032798  -0.002070   0.042358
     9  C   -0.185044  -0.563583  -0.074344   0.875305  -0.119253   0.082507
    10  H    0.016670  -0.109854   0.041439   0.436823  -0.040675   0.023459
    11  C    1.210932   1.000020  -0.721458   0.470651  -0.067351 -11.938404
    12  O    0.131019   0.024591  -0.088370  -0.009900   0.004339   0.048246
    13  H   -0.016554   0.010018  -0.071413  -0.009684   0.001552   0.006029
    14  H    0.039698  -0.018019   0.005896  -0.052017  -0.007496  -0.019845
    15  C   -1.927989   0.954752  -0.584936  -0.153527  -0.047152   1.492850
    16  C    1.991919  -0.457241  -0.150951  -0.277340   0.077382  -2.972685
    17  C   -0.237633  -0.382032  -0.039179  -0.327789  -0.022663   1.731241
    18  H   -0.279970  -0.274190   0.097710   0.140787  -0.231897   0.231721
    19  C   -0.445513  -0.087266   0.213194   0.033492  -0.025700   0.744296
    20  H   -0.039303   0.006856  -0.023425  -0.005731  -0.001617  -0.032422
    21  C    0.051351   0.087509  -0.090215  -0.036442   0.024096  -0.165660
    22  H    0.010184   0.002609  -0.000069  -0.002733   0.010335  -0.006122
    23  H    0.005348  -0.002477   0.004534   0.000449   0.000453   0.014905
    24  H   -0.000673   0.001861  -0.002519  -0.000248  -0.000134  -0.026178
               7          8          9         10         11         12
     1  C   -0.438265   0.011735  -0.185044   0.016670   1.210932   0.131019
     2  C    0.971343   0.009180  -0.563583  -0.109854   1.000020   0.024591
     3  C   -0.545645   0.459015  -0.074344   0.041439  -0.721458  -0.088370
     4  C   -0.887530   0.032798   0.875305   0.436823   0.470651  -0.009900
     5  H    0.163394  -0.002070  -0.119253  -0.040675  -0.067351   0.004339
     6  C    0.064367   0.042358   0.082507   0.023459 -11.938404   0.048246
     7  C    6.839712  -0.145789   0.126602  -0.012717  -0.221418   0.024846
     8  H   -0.145789   0.459448   0.014145   0.000610  -0.061665  -0.008362
     9  C    0.126602   0.014145   5.674543  -0.058999  -0.016448  -0.003349
    10  H   -0.012717   0.000610  -0.058999   0.496161  -0.000731  -0.000047
    11  C   -0.221418  -0.061665  -0.016448  -0.000731  17.898370   0.092624
    12  O    0.024846  -0.008362  -0.003349  -0.000047   0.092624   8.015405
    13  H    0.484664  -0.015383  -0.072911   0.000381   0.011441   0.001770
    14  H   -0.093865   0.001737   0.493208  -0.011421   0.001389  -0.000055
    15  C    0.051991   0.005464   0.042665  -0.000435   0.445559  -0.141110
    16  C    0.113780  -0.019434  -0.048071  -0.002437  -0.555860   0.166104
    17  C    0.006628  -0.001767  -0.021984  -0.002067  -2.486793  -0.025056
    18  H   -0.043732  -0.000799   0.035628   0.013284  -0.070353  -0.016830
    19  C    0.011465  -0.000793   0.002577  -0.000072  -0.378411  -0.011609
    20  H    0.002513  -0.001117  -0.000553  -0.000070   0.084964  -0.010131
    21  C    0.001344  -0.000199  -0.001234  -0.000296  -0.152903   0.007634
    22  H    0.000140  -0.000043  -0.000174  -0.000485   0.036932   0.000727
    23  H    0.000180  -0.000009  -0.000001  -0.000010  -0.001420   0.000606
    24  H    0.000015  -0.000031   0.000003   0.000019   0.038550   0.000116
              13         14         15         16         17         18
     1  C   -0.016554   0.039698  -1.927989   1.991919  -0.237633  -0.279970
     2  C    0.010018  -0.018019   0.954752  -0.457241  -0.382032  -0.274190
     3  C   -0.071413   0.005896  -0.584936  -0.150951  -0.039179   0.097710
     4  C   -0.009684  -0.052017  -0.153527  -0.277340  -0.327789   0.140787
     5  H    0.001552  -0.007496  -0.047152   0.077382  -0.022663  -0.231897
     6  C    0.006029  -0.019845   1.492850  -2.972685   1.731241   0.231721
     7  C    0.484664  -0.093865   0.051991   0.113780   0.006628  -0.043732
     8  H   -0.015383   0.001737   0.005464  -0.019434  -0.001767  -0.000799
     9  C   -0.072911   0.493208   0.042665  -0.048071  -0.021984   0.035628
    10  H    0.000381  -0.011421  -0.000435  -0.002437  -0.002067   0.013284
    11  C    0.011441   0.001389   0.445559  -0.555860  -2.486793  -0.070353
    12  O    0.001770  -0.000055  -0.141110   0.166104  -0.025056  -0.016830
    13  H    0.484275  -0.015445  -0.003176   0.004386  -0.000639   0.000143
    14  H   -0.015445   0.496339  -0.002747  -0.000620  -0.000170   0.001058
    15  C   -0.003176  -0.002747   9.742761  -2.020613  -1.453374   0.501405
    16  C    0.004386  -0.000620  -2.020613   9.585984   0.734940  -0.070728
    17  C   -0.000639  -0.000170  -1.453374   0.734940   7.974446   0.024175
    18  H    0.000143   0.001058   0.501405  -0.070728   0.024175   0.824559
    19  C    0.000046  -0.000019   0.416673  -0.673287  -0.373323   0.085320
    20  H    0.000054  -0.000042   0.054370   0.376711   0.019424   0.001004
    21  C    0.000006  -0.000021  -0.483577   0.099209   0.773061  -0.064663
    22  H   -0.000004   0.000008  -0.046691   0.012479   0.400206  -0.034958
    23  H    0.000009   0.000004   0.001197  -0.069706  -0.003888   0.000365
    24  H    0.000002  -0.000003  -0.014072   0.008492  -0.063586  -0.002860
              19         20         21         22         23         24
     1  C   -0.445513  -0.039303   0.051351   0.010184   0.005348  -0.000673
     2  C   -0.087266   0.006856   0.087509   0.002609  -0.002477   0.001861
     3  C    0.213194  -0.023425  -0.090215  -0.000069   0.004534  -0.002519
     4  C    0.033492  -0.005731  -0.036442  -0.002733   0.000449  -0.000248
     5  H   -0.025700  -0.001617   0.024096   0.010335   0.000453  -0.000134
     6  C    0.744296  -0.032422  -0.165660  -0.006122   0.014905  -0.026178
     7  C    0.011465   0.002513   0.001344   0.000140   0.000180   0.000015
     8  H   -0.000793  -0.001117  -0.000199  -0.000043  -0.000009  -0.000031
     9  C    0.002577  -0.000553  -0.001234  -0.000174  -0.000001   0.000003
    10  H   -0.000072  -0.000070  -0.000296  -0.000485  -0.000010   0.000019
    11  C   -0.378411   0.084964  -0.152903   0.036932  -0.001420   0.038550
    12  O   -0.011609  -0.010131   0.007634   0.000727   0.000606   0.000116
    13  H    0.000046   0.000054   0.000006  -0.000004   0.000009   0.000002
    14  H   -0.000019  -0.000042  -0.000021   0.000008   0.000004  -0.000003
    15  C    0.416673   0.054370  -0.483577  -0.046691   0.001197  -0.014072
    16  C   -0.673287   0.376711   0.099209   0.012479  -0.069706   0.008492
    17  C   -0.373323   0.019424   0.773061   0.400206  -0.003888  -0.063586
    18  H    0.085320   0.001004  -0.064663  -0.034958   0.000365  -0.002860
    19  C    6.629929  -0.111495   0.011341   0.004789   0.485469  -0.087856
    20  H   -0.111495   0.463095   0.014827   0.000151  -0.014323   0.001488
    21  C    0.011341   0.014827   5.745607  -0.075061  -0.088072   0.495684
    22  H    0.004789   0.000151  -0.075061   0.496488   0.000538  -0.013182
    23  H    0.485469  -0.014323  -0.088072   0.000538   0.486330  -0.014963
    24  H   -0.087856   0.001488   0.495684  -0.013182  -0.014963   0.494664
 Mulliken charges:
               1
     1  C    1.162133
     2  C   -0.681681
     3  C    0.058869
     4  C   -0.090003
     5  H   -0.038393
     6  C   -1.180530
     7  C   -0.474021
     8  H    0.220974
     9  C   -0.181236
    10  H    0.211472
    11  C    1.381782
    12  O   -0.203208
    13  H    0.200429
    14  H    0.182446
    15  C   -0.830290
    16  C    0.147588
    17  C   -0.222178
    18  H    0.133821
    19  C   -0.443245
    20  H    0.214772
    21  C   -0.153326
    22  H    0.203936
    23  H    0.194479
    24  H    0.185411
 Sum of Mulliken charges =  -0.00000
 Mulliken charges with hydrogens summed into heavy atoms:
               1
     1  C    1.162133
     2  C   -0.720075
     3  C    0.279843
     4  C    0.121469
     6  C   -1.180530
     7  C   -0.273592
     9  C    0.001210
    11  C    1.381782
    12  O   -0.203208
    15  C   -0.696469
    16  C    0.362359
    17  C   -0.018242
    19  C   -0.248767
    21  C    0.032086
 Electronic spatial extent (au):  <R**2>=           3038.2619
 Charge=             -0.0000 electrons
 Dipole moment (field-independent basis, Debye):
    X=              0.0329    Y=             -3.0970    Z=             -1.0120  Tot=              3.2583
 Quadrupole moment (field-independent basis, Debye-Ang):
   XX=            -63.8446   YY=            -79.0799   ZZ=            -85.1201
   XY=              0.3040   XZ=              0.0036   YZ=             -4.9611
 Traceless Quadrupole moment (field-independent basis, Debye-Ang):
   XX=             12.1702   YY=             -3.0650   ZZ=             -9.1052
   XY=              0.3040   XZ=              0.0036   YZ=             -4.9611
 Octapole moment (field-independent basis, Debye-Ang**2):
  XXX=              0.1705  YYY=            -23.1616  ZZZ=              3.2120  XYY=              1.1993
  XXY=             -0.7528  XXZ=            -18.7576  XZZ=             -1.0950  YZZ=              3.5346
  YYZ=             -5.8632  XYZ=              3.5976
 Hexadecapole moment (field-independent basis, Debye-Ang**3):
 XXXX=          -2816.0928 YYYY=           -785.6366 ZZZZ=           -153.5654 XXXY=              7.9856
 XXXZ=              0.8538 YYYX=              0.2488 YYYZ=            -27.0080 ZZZX=              0.8258
 ZZZY=              2.3858 XXYY=           -592.0097 XXZZ=           -606.9290 YYZZ=           -164.9290
 XXYZ=            -12.2288 YYXZ=             -2.7627 ZZXY=             -1.6629
 N-N= 7.854595048400D+02 E-N=-2.913101394878D+03  KE= 5.764898894112D+02
 No NMR shielding tensors so no spin-rotation constants.
 Leave Link  601 at Tue Nov 22 15:00:53 2022, MaxMem= 16106127360 cpu:               4.9 elap:               0.2
 (Enter /opt/ap/G16/B01/g16/l9999.exe)
 1\1\GINC-N18\SP\RwB97XD\6-311++G(d,p)\C13H10O1\ROOT\22-Nov-2022\0\\#P 
 wB97XD/6-311++G(d,p) scf=maxcycle=512\\_conf014.gjf nmol_natom 1_24\\0
 ,1\C\C,1,1.39746343\C,1,1.39996263,2,119.28066518\C,2,1.39288453,1,120
 .37436646,3,-0.51002981,0\H,2,0.95014703,1,119.82324024,3,179.45634896
 ,0\C,1,1.49653039,2,122.77761373,4,174.46828757,0\C,3,1.3870125,1,120.
 10017821,2,-0.37315804,0\H,3,0.9501092,1,119.95246451,2,179.5923884,0\
 C,7,1.38720039,3,120.16568731,1,1.0745106,0\H,4,0.95011919,2,120.18755
 644,1,-179.31195299,0\C,6,1.49516902,1,120.70972921,2,-20.,0\O,6,1.221
 50059,1,119.67074267,2,160.,0\H,7,0.94956661,3,119.91274826,1,-178.886
 36029,0\H,9,0.94992259,7,119.76037934,3,179.10763853,0\C,11,1.39713972
 ,6,122.62585705,1,30.97749054,0\C,11,1.40039562,6,117.74753532,1,-153.
 15467779,0\C,15,1.39455701,11,119.80747484,6,175.4763048,0\H,15,0.9496
 2854,11,120.10535689,6,-4.50802339,0\C,16,1.38466431,11,120.4617377,6,
 -176.88197195,0\H,16,0.9497464,11,119.75779177,6,3.14699974,0\C,17,1.3
 9088945,15,120.3475273,11,0.7973643,0\H,17,0.94984298,15,119.8156451,1
 1,-179.16676483,0\H,19,0.94974749,16,119.98566335,11,-178.40987425,0\H
 ,21,0.94938585,17,120.0744529,15,179.91636093,0\\Version=ES64L-G16RevB
 .01\State=1-A\HF=-576.402704\RMSD=9.484e-09\Dipole=0.019038,-0.4646088
 ,1.1946175\Quadrupole=8.3380609,-6.4448015,-1.8932593,3.2398984,-0.113
 187,3.502778\PG=C01 [X(C13H10O1)]\\@


      TO SUSPECT YOUR OWN MORTALITY IS TO KNOW THE BEGINNING OF TERROR.
      TO LEARN IRREFUTABLY THAT YOU ARE MORTAL IS TO KNOW THE END
      OF TERROR.

                                                  -- JESSICA
                                                     CHILDREN OF DUNE
                                                     BY FRANK HERBERT
 Job cpu time:       0 days  0 hours 19 minutes 49.5 seconds.
 Elapsed time:       0 days  0 hours  0 minutes 37.3 seconds.
 File lengths (MBytes):  RWF=     78 Int=      0 D2E=      0 Chk=      9 Scr=      1
 Normal termination of Gaussian 16 at Tue Nov 22 15:00:53 2022.
