 Entering Gaussian System, Link 0=g16
 Input=_conf023.gjf
 Output=_conf023.log
 Initial command:
 /opt/ap/G16/B01/g16/l1.exe "/tmp2/scr/Gau-16867.inp" -scrdir="/tmp2/scr/"
 Entering Link 1 = /opt/ap/G16/B01/g16/l1.exe PID=     16868.
  
 Copyright (c) 1988-2017, Gaussian, Inc.  All Rights Reserved.
  
 This is part of the Gaussian(R) 16 program.  It is based on
 the Gaussian(R) 09 system (copyright 2009, Gaussian, Inc.),
 the Gaussian(R) 03 system (copyright 2003, Gaussian, Inc.),
 the Gaussian(R) 98 system (copyright 1998, Gaussian, Inc.),
 the Gaussian(R) 94 system (copyright 1995, Gaussian, Inc.),
 the Gaussian 92(TM) system (copyright 1992, Gaussian, Inc.),
 the Gaussian 90(TM) system (copyright 1990, Gaussian, Inc.),
 the Gaussian 88(TM) system (copyright 1988, Gaussian, Inc.),
 the Gaussian 86(TM) system (copyright 1986, Carnegie Mellon
 University), and the Gaussian 82(TM) system (copyright 1983,
 Carnegie Mellon University). Gaussian is a federally registered
 trademark of Gaussian, Inc.
  
 This software contains proprietary and confidential information,
 including trade secrets, belonging to Gaussian, Inc.
  
 This software is provided under written license and may be
 used, copied, transmitted, or stored only in accord with that
 written license.
  
 The following legend is applicable only to US Government
 contracts under FAR:
  
                    RESTRICTED RIGHTS LEGEND
  
 Use, reproduction and disclosure by the US Government is
 subject to restrictions as set forth in subparagraphs (a)
 and (c) of the Commercial Computer Software - Restricted
 Rights clause in FAR 52.227-19.
  
 Gaussian, Inc.
 340 Quinnipiac St., Bldg. 40, Wallingford CT 06492
  
  
 ---------------------------------------------------------------
 Warning -- This program may not be used in any manner that
 competes with the business of Gaussian, Inc. or will provide
 assistance to any competitor of Gaussian, Inc.  The licensee
 of this program is prohibited from giving any competitor of
 Gaussian, Inc. access to this program.  By using this program,
 the user acknowledges that Gaussian, Inc. is engaged in the
 business of creating and licensing software in the field of
 computational chemistry and represents and warrants to the
 licensee that it is not a competitor of Gaussian, Inc. and that
 it will not use this program in any manner prohibited above.
 ---------------------------------------------------------------
  

 Cite this work as:
 Gaussian 16, Revision B.01,
 M. J. Frisch, G. W. Trucks, H. B. Schlegel, G. E. Scuseria, 
 M. A. Robb, J. R. Cheeseman, G. Scalmani, V. Barone, 
 G. A. Petersson, H. Nakatsuji, X. Li, M. Caricato, A. V. Marenich, 
 J. Bloino, B. G. Janesko, R. Gomperts, B. Mennucci, H. P. Hratchian, 
 J. V. Ortiz, A. F. Izmaylov, J. L. Sonnenberg, D. Williams-Young, 
 F. Ding, F. Lipparini, F. Egidi, J. Goings, B. Peng, A. Petrone, 
 T. Henderson, D. Ranasinghe, V. G. Zakrzewski, J. Gao, N. Rega, 
 G. Zheng, W. Liang, M. Hada, M. Ehara, K. Toyota, R. Fukuda, 
 J. Hasegawa, M. Ishida, T. Nakajima, Y. Honda, O. Kitao, H. Nakai, 
 T. Vreven, K. Throssell, J. A. Montgomery, Jr., J. E. Peralta, 
 F. Ogliaro, M. J. Bearpark, J. J. Heyd, E. N. Brothers, K. N. Kudin, 
 V. N. Staroverov, T. A. Keith, R. Kobayashi, J. Normand, 
 K. Raghavachari, A. P. Rendell, J. C. Burant, S. S. Iyengar, 
 J. Tomasi, M. Cossi, J. M. Millam, M. Klene, C. Adamo, R. Cammi, 
 J. W. Ochterski, R. L. Martin, K. Morokuma, O. Farkas, 
 J. B. Foresman, and D. J. Fox, Gaussian, Inc., Wallingford CT, 2016.
 
 ******************************************
 Gaussian 16:  ES64L-G16RevB.01 20-Dec-2017
                22-Nov-2022 
 ******************************************
 %nprocshared=32
 Will use up to   32 processors via shared memory.
 %mem=120GB
 %chk=_conf023.chk
 ----------------------------------------
 #P wB97XD/6-311++G(d,p) scf=maxcycle=512
 ----------------------------------------
 1/38=1,172=1/1;
 2/12=2,17=6,18=5,40=1/2;
 3/5=4,6=6,7=1111,11=2,25=1,30=1,74=-58/1,2,3;
 4//1;
 5/5=2,7=512,38=5/2;
 6/7=2,8=2,9=2,10=2,28=1/1;
 99/5=1,9=1/99;
 Leave Link    1 at Tue Nov 22 15:01:38 2022, MaxMem= 16106127360 cpu:               2.2 elap:               0.1
 (Enter /opt/ap/G16/B01/g16/l101.exe)
 ----------------------------
 _conf023.gjf nmol_natom 1_24
 ----------------------------
 Symbolic Z-matrix:
 Charge =  0 Multiplicity = 1
 C
 C                    1     1.39746 
 C                    1     1.39996  2     119.28067 
 C                    2     1.39288  1     120.37437  3    -0.51003  0
 H                    2     0.95015  1     119.82324  3     179.45635  0
 C                    1     1.49653  2     122.77761  4     174.46829  0
 C                    3     1.38701  1     120.10018  2    -0.37316  0
 H                    3     0.95011  1     119.95246  2     179.59239  0
 C                    7     1.3872   3     120.16569  1     1.07451  0
 H                    4     0.95012  2     120.18756  1    -179.31195  0
 C                    6     1.49517  1     120.70973  2     25.      0
 O                    6     1.2215   1     119.67074  2    -155.     0
 H                    7     0.94957  3     119.91275  1    -178.88636  0
 H                    9     0.94992  7     119.76038  3     179.10764  0
 C                    11    1.39714  6     122.62586  1     30.97749  0
 C                    11    1.4004   6     117.74754  1    -153.15468  0
 C                    15    1.39456  11    119.80747  6     175.4763  0
 H                    15    0.94963  11    120.10536  6    -4.50802  0
 C                    16    1.38466  11    120.46174  6    -176.88197  0
 H                    16    0.94975  11    119.75779  6     3.147    0
 C                    17    1.39089  15    120.34753  11    0.79736  0
 H                    17    0.94984  15    119.81565  11   -179.16676  0
 H                    19    0.94975  16    119.98566  11   -178.40987  0
 H                    21    0.94939  17    120.07445  15    179.91636  0
 
 ITRead=  0  0  0  0  0  0  0  0  0  0  0  0  0  0  0  0  0  0  0  0
 ITRead=  0  0  0  0
 MicOpt= -1 -1 -1 -1 -1 -1 -1 -1 -1 -1 -1 -1 -1 -1 -1 -1 -1 -1 -1 -1
 MicOpt= -1 -1 -1 -1
 NAtoms=     24 NQM=       24 NQMF=       0 NMMI=      0 NMMIF=      0
                NMic=       0 NMicF=      0.
                    Isotopes and Nuclear Properties:
 (Nuclear quadrupole moments (NQMom) in fm**2, nuclear magnetic moments (NMagM)
  in nuclear magnetons)

  Atom         1           2           3           4           5           6           7           8           9          10
 IAtWgt=          12          12          12          12           1          12          12           1          12           1
 AtmWgt=  12.0000000  12.0000000  12.0000000  12.0000000   1.0078250  12.0000000  12.0000000   1.0078250  12.0000000   1.0078250
 NucSpn=           0           0           0           0           1           0           0           1           0           1
 AtZEff=  -0.0000000  -0.0000000  -0.0000000  -0.0000000  -0.0000000  -0.0000000  -0.0000000  -0.0000000  -0.0000000  -0.0000000
 NQMom=    0.0000000   0.0000000   0.0000000   0.0000000   0.0000000   0.0000000   0.0000000   0.0000000   0.0000000   0.0000000
 NMagM=    0.0000000   0.0000000   0.0000000   0.0000000   2.7928460   0.0000000   0.0000000   2.7928460   0.0000000   2.7928460
 AtZNuc=   6.0000000   6.0000000   6.0000000   6.0000000   1.0000000   6.0000000   6.0000000   1.0000000   6.0000000   1.0000000

  Atom        11          12          13          14          15          16          17          18          19          20
 IAtWgt=          12          16           1           1          12          12          12           1          12           1
 AtmWgt=  12.0000000  15.9949146   1.0078250   1.0078250  12.0000000  12.0000000  12.0000000   1.0078250  12.0000000   1.0078250
 NucSpn=           0           0           1           1           0           0           0           1           0           1
 AtZEff=  -0.0000000  -0.0000000  -0.0000000  -0.0000000  -0.0000000  -0.0000000  -0.0000000  -0.0000000  -0.0000000  -0.0000000
 NQMom=    0.0000000   0.0000000   0.0000000   0.0000000   0.0000000   0.0000000   0.0000000   0.0000000   0.0000000   0.0000000
 NMagM=    0.0000000   0.0000000   2.7928460   2.7928460   0.0000000   0.0000000   0.0000000   2.7928460   0.0000000   2.7928460
 AtZNuc=   6.0000000   8.0000000   1.0000000   1.0000000   6.0000000   6.0000000   6.0000000   1.0000000   6.0000000   1.0000000

  Atom        21          22          23          24
 IAtWgt=          12           1           1           1
 AtmWgt=  12.0000000   1.0078250   1.0078250   1.0078250
 NucSpn=           0           1           1           1
 AtZEff=  -0.0000000  -0.0000000  -0.0000000  -0.0000000
 NQMom=    0.0000000   0.0000000   0.0000000   0.0000000
 NMagM=    0.0000000   2.7928460   2.7928460   2.7928460
 AtZNuc=   6.0000000   1.0000000   1.0000000   1.0000000
 Leave Link  101 at Tue Nov 22 15:01:39 2022, MaxMem= 16106127360 cpu:               6.2 elap:               0.2
 (Enter /opt/ap/G16/B01/g16/l202.exe)
                          Input orientation:                          
 ---------------------------------------------------------------------
 Center     Atomic      Atomic             Coordinates (Angstroms)
 Number     Number       Type             X           Y           Z
 ---------------------------------------------------------------------
      1          6           0        0.000000    0.000000    0.000000
      2          6           0        0.000000    0.000000    1.397463
      3          6           0        1.221096    0.000000   -0.684705
      4          6           0        1.201650   -0.010697    2.101772
      5          1           0       -0.824276    0.007821    1.869996
      6          6           0       -1.253421   -0.110138   -0.810191
      7          6           0        2.414707    0.007815    0.021719
      8          1           0        1.232246   -0.005856   -1.634731
      9          6           0        2.403895   -0.006831    1.408800
     10          1           0        1.198494   -0.020531    3.051836
     11          6           0       -2.568816    0.319645   -0.244019
     12          8           0       -1.201837   -0.555877   -1.946290
     13          1           0        3.241298    0.023792   -0.445367
     14          1           0        3.224827   -0.014217    1.886678
     15          6           0       -2.685932    1.353699    0.688192
     16          6           0       -3.724945   -0.292900   -0.743281
     17          6           0       -3.949412    1.769857    1.106785
     18          1           0       -1.907521    1.772180    1.035674
     19          6           0       -4.976219    0.107310   -0.305740
     20          1           0       -3.650051   -0.987952   -1.386173
     21          6           0       -5.092646    1.149867    0.613629
     22          1           0       -4.029523    2.480788    1.731573
     23          1           0       -5.754770   -0.328006   -0.631898
     24          1           0       -5.950839    1.435514    0.902151
 ---------------------------------------------------------------------
                    Distance matrix (angstroms):
                    1          2          3          4          5
     1  C    0.000000
     2  C    1.397463   0.000000
     3  C    1.399963   2.413814   0.000000
     4  C    2.421058   1.392885   2.786566   0.000000
     5  H    2.043619   0.950147   3.272630   2.039225   0.000000
     6  C    1.496530   2.541049   2.480142   3.810091   2.716889
     7  C    2.414817   2.779127   1.387013   2.408002   3.729228
     8  H    2.047146   3.273021   0.950109   3.736632   4.063567
     9  C    2.786301   2.403931   2.404542   1.387667   3.260982
    10  H    3.278797   2.042977   3.736665   0.950119   2.342893
    11  C    2.600103   3.065200   3.828813   4.452895   2.758571
    12  O    2.354029   3.596400   2.787686   4.739280   3.876125
    13  H    3.271839   3.728619   2.034469   3.263323   4.678681
    14  H    3.736210   3.261755   3.259932   2.034583   4.049198
    15  C    3.085505   3.090275   4.356858   4.355810   2.583372
    16  C    3.809655   4.306250   4.955052   5.696078   3.915805
    17  C    4.467127   4.337597   5.751172   5.540199   3.667934
    18  H    2.802120   2.628716   3.986046   3.739272   2.232146
    19  C    4.986757   5.260720   6.209818   6.631448   4.688534
    20  H    4.027455   4.695482   5.019579   6.054733   4.424840
    21  C    5.256784   5.279359   6.547610   6.571122   4.593660
    22  H    5.038821   4.743732   6.289810   5.806007   4.050720
    23  H    5.798643   6.110914   6.983772   7.481003   5.539136
    24  H    6.187654   6.141540   7.484347   7.395181   5.408944
                    6          7          8          9         10
     6  C    0.000000
     7  C    3.763130   0.000000
     8  H    2.620930   2.035246   0.000000
     9  C    4.279082   1.387200   3.261263   0.000000
    10  H    4.575496   3.265208   4.686711   2.037829   0.000000
    11  C    1.495169   5.000335   4.060554   5.250357   5.017071
    12  O    1.221501   4.155742   2.514826   4.955742   5.570407
    13  H    4.511488   0.949567   2.334899   2.034727   4.050363
    14  H    5.228480   2.033434   4.046081   0.949923   2.337447
    15  C    2.537727   5.317152   4.753575   5.317580   4.750167
    16  C    2.479176   6.194431   5.044880   6.501997   6.222326
    17  C    3.804937   6.692098   6.125246   6.603964   5.787024
    18  H    2.716281   4.777315   4.488942   4.678932   4.114128
    19  C    3.763108   7.398845   6.350122   7.577516   7.029704
    20  H    2.616515   6.305156   4.986292   6.739787   6.643810
    21  C    4.284219   7.616757   6.811393   7.626819   6.847856
    22  H    4.569487   7.111069   6.723215   6.905164   5.944061
    23  H    4.510144   8.202459   7.065963   8.416139   7.874790
    24  H    5.233249   8.532048   7.753065   8.493446   7.606193
                   11         12         13         14         15
    11  C    0.000000
    12  O    2.352211   0.000000
    13  H    5.821125   4.725487   0.000000
    14  H    6.182041   5.880510   2.332413   0.000000
    15  C    1.397140   3.576242   6.179455   6.184225   0.000000
    16  C    1.400396   2.807573   6.979798   7.435972   2.416598
    17  C    2.415332   4.720113   7.560703   7.433765   1.394557
    18  H    2.045674   3.848369   5.635661   5.500583   0.949629
    19  C    2.417537   4.168594   8.219127   8.489913   2.790484
    20  H    2.045335   2.548367   7.028473   7.676175   3.273506
    21  C    2.791872   4.959954   8.476092   8.494475   2.416481
    22  H    3.272181   5.544711   7.977514   7.672986   2.040640
    23  H    3.274172   4.744339   9.004876   9.331391   3.740125
    24  H    3.741249   5.884919   9.397028   9.341513   3.272933
                   16         17         18         19         20
    16  C    0.000000
    17  C    2.779944   0.000000
    18  H    3.276013   2.043131   0.000000
    19  C    1.384664   2.411145   3.740066   0.000000
    20  H    0.949746   3.729607   4.064490   2.031171   0.000000
    21  C    2.406945   1.390889   3.272678   1.394891   3.263520
    22  H    3.729747   0.949843   2.342925   3.268069   4.679370
    23  H    2.033181   3.268541   4.689659   0.949747   2.331159
    24  H    3.263351   2.039453   4.059507   2.042795   4.050092
                   21         22         23         24
    21  C    0.000000
    22  H    2.037493   0.000000
    23  H    2.043001   4.056081   0.000000
    24  H    0.949386   2.339229   2.345581   0.000000
 Stoichiometry    C13H10O
 Framework group  C1[X(C13H10O)]
 Deg. of freedom    66
 Full point group                 C1      NOp   1
 Largest Abelian subgroup         C1      NOp   1
 Largest concise Abelian subgroup C1      NOp   1
                         Standard orientation:                         
 ---------------------------------------------------------------------
 Center     Atomic      Atomic             Coordinates (Angstroms)
 Number     Number       Type             X           Y           Z
 ---------------------------------------------------------------------
      1          6           0        1.301696    0.323768    0.016693
      2          6           0        1.426696   -0.966162   -0.506146
      3          6           0        2.447540    1.000209    0.451854
      4          6           0        2.678862   -1.568462   -0.603308
      5          1           0        0.653190   -1.435316   -0.796598
      6          6           0        0.003586    1.068194    0.035230
      7          6           0        3.689696    0.388575    0.369675
      8          1           0        2.374297    1.879780    0.803563
      9          6           0        3.804861   -0.886556   -0.164276
     10          1           0        2.761920   -2.441768   -0.968227
     11          6           0       -1.298379    0.333147    0.024152
     12          8           0        0.007199    2.289445    0.059674
     13          1           0        4.463082    0.843671    0.680220
     14          1           0        4.660021   -1.294968   -0.229497
     15          6           0       -1.456603   -0.927586    0.605115
     16          6           0       -2.411363    0.986508   -0.519441
     17          6           0       -2.718791   -1.519303    0.644385
     18          1           0       -0.706964   -1.380270    0.972420
     19          6           0       -3.657849    0.383853   -0.500075
     20          1           0       -2.310251    1.848828   -0.904407
     21          6           0       -3.817575   -0.868259    0.093579
     22          1           0       -2.828611   -2.371183    1.049900
     23          1           0       -4.403670    0.823295   -0.890795
     24          1           0       -4.674877   -1.275190    0.121410
 ---------------------------------------------------------------------
 Rotational constants (GHZ):           1.7670435           0.4126036           0.3503160
 Leave Link  202 at Tue Nov 22 15:01:39 2022, MaxMem= 16106127360 cpu:               0.4 elap:               0.0
 (Enter /opt/ap/G16/B01/g16/l301.exe)
 Standard basis: 6-311++G(d,p) (5D, 7F)
 Ernie: Thresh=  0.10000D-02 Tol=  0.10000D-05 Strict=F.
 There are   392 symmetry adapted cartesian basis functions of A   symmetry.
 There are   378 symmetry adapted basis functions of A   symmetry.
   378 basis functions,   594 primitive gaussians,   392 cartesian basis functions
    48 alpha electrons       48 beta electrons
       nuclear repulsion energy       783.6706649170 Hartrees.
 IExCor= 4639 DFT=T Ex+Corr=wB97XD ExCW=0 ScaHFX=  1.000000
 ScaDFX=  1.000000  1.000000  1.000000  1.000000 ScalE2=  1.000000  1.000000
 IRadAn=      5 IRanWt=     -1 IRanGd=            0 ICorTp=0 IEmpDi=121
 HFx  wShort=  0.000000 wLong=  0.200000 cFull=  0.222036 cShort=  0.000000 cLong=  0.777964
 DFx  wShort=  0.000000 wLong=  0.200000 cFull=  0.000000 cShort=  0.000000 cLong=  1.000000
 NAtoms=   24 NActive=   24 NUniq=   24 SFac= 1.00D+00 NAtFMM=   60 NAOKFM=F Big=F
 Integral buffers will be    131072 words long.
 Raffenetti 2 integral format.
 Two-electron integral symmetry is turned on.
 R6Disp:  Grimme-D2 Dispersion energy=       -0.0140252608 Hartrees.
 Nuclear repulsion after empirical dispersion term =      783.6566396561 Hartrees.
 Leave Link  301 at Tue Nov 22 15:01:39 2022, MaxMem= 16106127360 cpu:               1.2 elap:               0.0
 (Enter /opt/ap/G16/B01/g16/l302.exe)
 NPDir=0 NMtPBC=     1 NCelOv=     1 NCel=       1 NClECP=     1 NCelD=      1
         NCelK=      1 NCelE2=     1 NClLst=     1 CellRange=     0.0.
 One-electron integrals computed using PRISM.
 One-electron integral symmetry used in STVInt
 NBasis=   378 RedAO= T EigKep=  1.25D-06  NBF=   378
 NBsUse=   376 1.00D-06 EigRej=  7.53D-07 NBFU=   376
 Precomputing XC quadrature grid using
 IXCGrd= 4 IRadAn=           5 IRanWt=          -1 IRanGd=           0 AccXCQ= 0.00D+00.
 Generated NRdTot=       0 NPtTot=           0 NUsed=           0 NTot=          32
 NSgBfM=   392   392   392   392   392 MxSgAt=    24 MxSgA2=    24.
 Leave Link  302 at Tue Nov 22 15:01:39 2022, MaxMem= 16106127360 cpu:               8.4 elap:               0.3
 (Enter /opt/ap/G16/B01/g16/l303.exe)
 DipDrv:  MaxL=1.
 Leave Link  303 at Tue Nov 22 15:01:39 2022, MaxMem= 16106127360 cpu:               1.7 elap:               0.1
 (Enter /opt/ap/G16/B01/g16/l401.exe)
 ExpMin= 3.60D-02 ExpMax= 8.59D+03 ExpMxC= 1.30D+03 IAcc=3 IRadAn=         5 AccDes= 0.00D+00
 Harris functional with IExCor= 4639 and IRadAn=       5 diagonalized for initial guess.
 HarFok:  IExCor= 4639 AccDes= 0.00D+00 IRadAn=         5 IDoV= 1 UseB2=F ITyADJ=14
 ICtDFT=  3500011 ScaDFX=  1.000000  1.000000  1.000000  1.000000
 FoFCou: FMM=F IPFlag=           0 FMFlag=      100000 FMFlg1=           0
         NFxFlg=           0 DoJE=T BraDBF=F KetDBF=T FulRan=T
         wScrn=  0.000000 ICntrl=       500 IOpCl=  0 I1Cent=   200000004 NGrid=           0
         NMat0=    1 NMatS0=      1 NMatT0=    0 NMatD0=    1 NMtDS0=    0 NMtDT0=    0
 Petite list used in FoFCou.
 Harris En= -550.905277516238    
 JPrj=0 DoOrth=F DoCkMO=F.
 Leave Link  401 at Tue Nov 22 15:01:40 2022, MaxMem= 16106127360 cpu:              24.0 elap:               0.8
 (Enter /opt/ap/G16/B01/g16/l502.exe)
 Integral symmetry usage will be decided dynamically.
 Closed shell SCF:
 Using DIIS extrapolation, IDIIS=  1040.
 NGot= 16106127360 LenX= 16105803762 LenY= 16105649657
 Requested convergence on RMS density matrix=1.00D-08 within 512 cycles.
 Requested convergence on MAX density matrix=1.00D-06.
 Requested convergence on             energy=1.00D-06.
 No special actions if energy rises.
 Fock matrices will be formed incrementally for  20 cycles.

 Cycle   1  Pass 1  IDiag  1:
 FoFJK:  IHMeth= 1 ICntrl=       0 DoSepK=T KAlg= 0 I1Cent=           0 FoldK=F
 IRaf=         1 NMat=       1 IRICut=       1 DoRegI=T DoRafI=F ISym2E= 0 IDoP0=0 IntGTp=1.
 FoFCou: FMM=F IPFlag=           0 FMFlag=      100000 FMFlg1=           0
         NFxFlg=           0 DoJE=T BraDBF=F KetDBF=F FulRan=T
         wScrn=  0.000000 ICntrl=       500 IOpCl=  0 I1Cent=           0 NGrid=           0
         NMat0=    1 NMatS0=      1 NMatT0=    0 NMatD0=    1 NMtDS0=    0 NMtDT0=    0
 Symmetry not used in FoFCou.
 E= -576.266213179525    
 DIIS: error= 5.01D-02 at cycle   1 NSaved=   1.
 NSaved= 1 IEnMin= 1 EnMin= -576.266213179525     IErMin= 1 ErrMin= 5.01D-02
 ErrMax= 5.01D-02  0.00D+00 EMaxC= 1.00D-01 BMatC= 1.19D+00 BMatP= 1.19D+00
 IDIUse=3 WtCom= 4.99D-01 WtEn= 5.01D-01
 Coeff-Com:  0.100D+01
 Coeff-En:   0.100D+01
 Coeff:      0.100D+01
 Gap=     0.403 Goal=   None    Shift=    0.000
 GapD=    0.403 DampG=2.000 DampE=0.500 DampFc=1.0000 IDamp=-1.
 RMSDP=3.09D-02 MaxDP=4.27D+00              OVMax= 1.39D-01

 Cycle   2  Pass 1  IDiag  1:
 RMSU=  1.84D-02    CP:  7.27D-01
 E= -576.354806467819     Delta-E=       -0.088593288294 Rises=F Damp=F
 DIIS: error= 1.76D-02 at cycle   2 NSaved=   2.
 NSaved= 2 IEnMin= 2 EnMin= -576.354806467819     IErMin= 2 ErrMin= 1.76D-02
 ErrMax= 1.76D-02  0.00D+00 EMaxC= 1.00D-01 BMatC= 7.48D-02 BMatP= 1.19D+00
 IDIUse=3 WtCom= 8.24D-01 WtEn= 1.76D-01
 Coeff-Com:  0.125D+00 0.875D+00
 Coeff-En:   0.143D+00 0.857D+00
 Coeff:      0.128D+00 0.872D+00
 Gap=     0.419 Goal=   None    Shift=    0.000
 RMSDP=1.15D-02 MaxDP=1.59D+00 DE=-8.86D-02 OVMax= 1.62D-01

 Cycle   3  Pass 1  IDiag  1:
 RMSU=  7.37D-03    CP:  6.49D-01  7.17D-01
 E= -576.370188202493     Delta-E=       -0.015381734674 Rises=F Damp=F
 DIIS: error= 1.31D-02 at cycle   3 NSaved=   3.
 NSaved= 3 IEnMin= 3 EnMin= -576.370188202493     IErMin= 3 ErrMin= 1.31D-02
 ErrMax= 1.31D-02  0.00D+00 EMaxC= 1.00D-01 BMatC= 5.61D-02 BMatP= 7.48D-02
 IDIUse=3 WtCom= 8.69D-01 WtEn= 1.31D-01
 Coeff-Com:  0.240D-01 0.467D+00 0.509D+00
 Coeff-En:   0.000D+00 0.436D+00 0.564D+00
 Coeff:      0.209D-01 0.463D+00 0.516D+00
 Gap=     0.347 Goal=   None    Shift=    0.000
 RMSDP=3.59D-03 MaxDP=1.84D-01 DE=-1.54D-02 OVMax= 6.79D-02

 Cycle   4  Pass 1  IDiag  1:
 RMSU=  2.04D-03    CP:  6.36D-01  8.12D-01  7.19D-01
 E= -576.419407399896     Delta-E=       -0.049219197403 Rises=F Damp=F
 DIIS: error= 2.76D-03 at cycle   4 NSaved=   4.
 NSaved= 4 IEnMin= 4 EnMin= -576.419407399896     IErMin= 4 ErrMin= 2.76D-03
 ErrMax= 2.76D-03  0.00D+00 EMaxC= 1.00D-01 BMatC= 9.57D-04 BMatP= 5.61D-02
 IDIUse=3 WtCom= 9.72D-01 WtEn= 2.76D-02
 Coeff-Com:  0.969D-02 0.201D+00 0.243D+00 0.546D+00
 Coeff-En:   0.000D+00 0.000D+00 0.000D+00 0.100D+01
 Coeff:      0.942D-02 0.196D+00 0.237D+00 0.558D+00
 Gap=     0.322 Goal=   None    Shift=    0.000
 RMSDP=5.85D-04 MaxDP=5.18D-02 DE=-4.92D-02 OVMax= 7.04D-03

 Cycle   5  Pass 1  IDiag  1:
 RMSU=  4.22D-04    CP:  6.37D-01  8.30D-01  7.43D-01  9.87D-01
 E= -576.420064445706     Delta-E=       -0.000657045809 Rises=F Damp=F
 DIIS: error= 7.92D-04 at cycle   5 NSaved=   5.
 NSaved= 5 IEnMin= 5 EnMin= -576.420064445706     IErMin= 5 ErrMin= 7.92D-04
 ErrMax= 7.92D-04  0.00D+00 EMaxC= 1.00D-01 BMatC= 8.85D-05 BMatP= 9.57D-04
 IDIUse=3 WtCom= 9.92D-01 WtEn= 7.92D-03
 Coeff-Com: -0.590D-03-0.865D-02-0.628D-03 0.220D+00 0.789D+00
 Coeff-En:   0.000D+00 0.000D+00 0.000D+00 0.000D+00 0.100D+01
 Coeff:     -0.585D-03-0.858D-02-0.623D-03 0.219D+00 0.791D+00
 Gap=     0.323 Goal=   None    Shift=    0.000
 RMSDP=3.90D-04 MaxDP=4.76D-02 DE=-6.57D-04 OVMax= 2.68D-03

 Cycle   6  Pass 1  IDiag  1:
 RMSU=  2.43D-04    CP:  6.35D-01  8.35D-01  7.47D-01  1.05D+00  6.98D-01
 E= -576.420133318329     Delta-E=       -0.000068872623 Rises=F Damp=F
 DIIS: error= 3.62D-04 at cycle   6 NSaved=   6.
 NSaved= 6 IEnMin= 6 EnMin= -576.420133318329     IErMin= 6 ErrMin= 3.62D-04
 ErrMax= 3.62D-04  0.00D+00 EMaxC= 1.00D-01 BMatC= 1.85D-05 BMatP= 8.85D-05
 IDIUse=3 WtCom= 9.96D-01 WtEn= 3.62D-03
 Coeff-Com: -0.122D-02-0.231D-01-0.223D-01 0.651D-01 0.425D+00 0.557D+00
 Coeff-En:   0.000D+00 0.000D+00 0.000D+00 0.000D+00 0.000D+00 0.100D+01
 Coeff:     -0.122D-02-0.230D-01-0.222D-01 0.648D-01 0.423D+00 0.558D+00
 Gap=     0.323 Goal=   None    Shift=    0.000
 RMSDP=8.94D-05 MaxDP=4.34D-03 DE=-6.89D-05 OVMax= 1.31D-03

 Cycle   7  Pass 1  IDiag  1:
 RMSU=  7.23D-05    CP:  6.35D-01  8.35D-01  7.51D-01  1.07D+00  7.71D-01
                    CP:  9.64D-01
 E= -576.420152590741     Delta-E=       -0.000019272412 Rises=F Damp=F
 DIIS: error= 5.49D-05 at cycle   7 NSaved=   7.
 NSaved= 7 IEnMin= 7 EnMin= -576.420152590741     IErMin= 7 ErrMin= 5.49D-05
 ErrMax= 5.49D-05  0.00D+00 EMaxC= 1.00D-01 BMatC= 4.82D-07 BMatP= 1.85D-05
 IDIUse=1 WtCom= 1.00D+00 WtEn= 0.00D+00
 Coeff-Com: -0.228D-03-0.436D-02-0.511D-02-0.106D-01-0.882D-02 0.107D+00
 Coeff-Com:  0.922D+00
 Coeff:     -0.228D-03-0.436D-02-0.511D-02-0.106D-01-0.882D-02 0.107D+00
 Coeff:      0.922D+00
 Gap=     0.324 Goal=   None    Shift=    0.000
 RMSDP=4.07D-05 MaxDP=3.37D-03 DE=-1.93D-05 OVMax= 5.72D-04

 Cycle   8  Pass 1  IDiag  1:
 RMSU=  2.07D-05    CP:  6.35D-01  8.35D-01  7.52D-01  1.08D+00  7.85D-01
                    CP:  1.06D+00  1.06D+00
 E= -576.420153787964     Delta-E=       -0.000001197223 Rises=F Damp=F
 DIIS: error= 2.40D-05 at cycle   8 NSaved=   8.
 NSaved= 8 IEnMin= 8 EnMin= -576.420153787964     IErMin= 8 ErrMin= 2.40D-05
 ErrMax= 2.40D-05  0.00D+00 EMaxC= 1.00D-01 BMatC= 8.25D-08 BMatP= 4.82D-07
 IDIUse=1 WtCom= 1.00D+00 WtEn= 0.00D+00
 Coeff-Com:  0.446D-04 0.631D-03 0.160D-03-0.122D-01-0.541D-01-0.231D-01
 Coeff-Com:  0.315D+00 0.774D+00
 Coeff:      0.446D-04 0.631D-03 0.160D-03-0.122D-01-0.541D-01-0.231D-01
 Coeff:      0.315D+00 0.774D+00
 Gap=     0.324 Goal=   None    Shift=    0.000
 RMSDP=1.85D-05 MaxDP=2.10D-03 DE=-1.20D-06 OVMax= 2.18D-04

 Cycle   9  Pass 1  IDiag  1:
 RMSU=  5.27D-06    CP:  6.35D-01  8.35D-01  7.52D-01  1.08D+00  7.85D-01
                    CP:  1.09D+00  1.06D+00  1.24D+00
 E= -576.420153951170     Delta-E=       -0.000000163207 Rises=F Damp=F
 DIIS: error= 4.55D-06 at cycle   9 NSaved=   9.
 NSaved= 9 IEnMin= 9 EnMin= -576.420153951170     IErMin= 9 ErrMin= 4.55D-06
 ErrMax= 4.55D-06  0.00D+00 EMaxC= 1.00D-01 BMatC= 6.20D-09 BMatP= 8.25D-08
 IDIUse=1 WtCom= 1.00D+00 WtEn= 0.00D+00
 Coeff-Com:  0.397D-04 0.700D-03 0.687D-03-0.873D-03-0.936D-02-0.171D-01
 Coeff-Com: -0.578D-01 0.151D+00 0.932D+00
 Coeff:      0.397D-04 0.700D-03 0.687D-03-0.873D-03-0.936D-02-0.171D-01
 Coeff:     -0.578D-01 0.151D+00 0.932D+00
 Gap=     0.324 Goal=   None    Shift=    0.000
 RMSDP=8.01D-06 MaxDP=1.23D-03 DE=-1.63D-07 OVMax= 1.06D-04

 Cycle  10  Pass 1  IDiag  1:
 RMSU=  1.93D-06    CP:  6.35D-01  8.35D-01  7.52D-01  1.08D+00  7.84D-01
                    CP:  1.10D+00  1.06D+00  1.40D+00  1.28D+00
 E= -576.420153971203     Delta-E=       -0.000000020033 Rises=F Damp=F
 DIIS: error= 2.17D-06 at cycle  10 NSaved=  10.
 NSaved=10 IEnMin=10 EnMin= -576.420153971203     IErMin=10 ErrMin= 2.17D-06
 ErrMax= 2.17D-06  0.00D+00 EMaxC= 1.00D-01 BMatC= 5.82D-10 BMatP= 6.20D-09
 IDIUse=1 WtCom= 1.00D+00 WtEn= 0.00D+00
 Coeff-Com: -0.295D-05-0.162D-04 0.195D-04 0.133D-02 0.471D-02 0.206D-02
 Coeff-Com: -0.274D-01-0.706D-01 0.442D-01 0.105D+01
 Coeff:     -0.295D-05-0.162D-04 0.195D-04 0.133D-02 0.471D-02 0.206D-02
 Coeff:     -0.274D-01-0.706D-01 0.442D-01 0.105D+01
 Gap=     0.324 Goal=   None    Shift=    0.000
 RMSDP=2.21D-06 MaxDP=1.33D-04 DE=-2.00D-08 OVMax= 4.02D-05

 Cycle  11  Pass 1  IDiag  1:
 RMSU=  8.28D-07    CP:  6.35D-01  8.35D-01  7.52D-01  1.08D+00  7.84D-01
                    CP:  1.09D+00  1.05D+00  1.45D+00  1.38D+00  1.23D+00
 E= -576.420153974045     Delta-E=       -0.000000002842 Rises=F Damp=F
 DIIS: error= 1.00D-06 at cycle  11 NSaved=  11.
 NSaved=11 IEnMin=11 EnMin= -576.420153974045     IErMin=11 ErrMin= 1.00D-06
 ErrMax= 1.00D-06  0.00D+00 EMaxC= 1.00D-01 BMatC= 1.18D-10 BMatP= 5.82D-10
 IDIUse=1 WtCom= 1.00D+00 WtEn= 0.00D+00
 Coeff-Com: -0.363D-05-0.586D-04-0.507D-04 0.388D-03 0.165D-02 0.168D-02
 Coeff-Com: -0.608D-03-0.301D-01-0.851D-01 0.203D+00 0.909D+00
 Coeff:     -0.363D-05-0.586D-04-0.507D-04 0.388D-03 0.165D-02 0.168D-02
 Coeff:     -0.608D-03-0.301D-01-0.851D-01 0.203D+00 0.909D+00
 Gap=     0.324 Goal=   None    Shift=    0.000
 RMSDP=6.05D-07 MaxDP=6.77D-05 DE=-2.84D-09 OVMax= 1.76D-05

 Cycle  12  Pass 1  IDiag  1:
 RMSU=  3.59D-07    CP:  6.35D-01  8.35D-01  7.52D-01  1.08D+00  7.84D-01
                    CP:  1.09D+00  1.05D+00  1.46D+00  1.41D+00  1.29D+00
                    CP:  1.24D+00
 E= -576.420153974581     Delta-E=       -0.000000000536 Rises=F Damp=F
 DIIS: error= 5.01D-07 at cycle  12 NSaved=  12.
 NSaved=12 IEnMin=12 EnMin= -576.420153974581     IErMin=12 ErrMin= 5.01D-07
 ErrMax= 5.01D-07  0.00D+00 EMaxC= 1.00D-01 BMatC= 2.42D-11 BMatP= 1.18D-10
 IDIUse=1 WtCom= 1.00D+00 WtEn= 0.00D+00
 Coeff-Com:  0.174D-06-0.653D-05-0.131D-04-0.278D-03-0.999D-03-0.306D-03
 Coeff-Com:  0.771D-02 0.146D-01-0.260D-01-0.229D+00 0.177D+00 0.106D+01
 Coeff:      0.174D-06-0.653D-05-0.131D-04-0.278D-03-0.999D-03-0.306D-03
 Coeff:      0.771D-02 0.146D-01-0.260D-01-0.229D+00 0.177D+00 0.106D+01
 Gap=     0.324 Goal=   None    Shift=    0.000
 RMSDP=3.10D-07 MaxDP=1.98D-05 DE=-5.36D-10 OVMax= 1.11D-05

 Cycle  13  Pass 1  IDiag  1:
 RMSU=  1.21D-07    CP:  6.35D-01  8.35D-01  7.52D-01  1.08D+00  7.84D-01
                    CP:  1.09D+00  1.05D+00  1.45D+00  1.42D+00  1.31D+00
                    CP:  1.39D+00  1.50D+00
 E= -576.420153974734     Delta-E=       -0.000000000153 Rises=F Damp=F
 DIIS: error= 1.71D-07 at cycle  13 NSaved=  13.
 NSaved=13 IEnMin=13 EnMin= -576.420153974734     IErMin=13 ErrMin= 1.71D-07
 ErrMax= 1.71D-07  0.00D+00 EMaxC= 1.00D-01 BMatC= 3.70D-12 BMatP= 2.42D-11
 IDIUse=1 WtCom= 1.00D+00 WtEn= 0.00D+00
 Coeff-Com:  0.499D-06 0.612D-05 0.518D-05-0.131D-03-0.455D-03-0.337D-03
 Coeff-Com:  0.176D-02 0.730D-02 0.414D-02-0.823D-01-0.771D-01 0.215D+00
 Coeff-Com:  0.932D+00
 Coeff:      0.499D-06 0.612D-05 0.518D-05-0.131D-03-0.455D-03-0.337D-03
 Coeff:      0.176D-02 0.730D-02 0.414D-02-0.823D-01-0.771D-01 0.215D+00
 Coeff:      0.932D+00
 Gap=     0.324 Goal=   None    Shift=    0.000
 RMSDP=1.12D-07 MaxDP=5.04D-06 DE=-1.53D-10 OVMax= 3.98D-06

 Cycle  14  Pass 1  IDiag  1:
 RMSU=  3.82D-08    CP:  6.35D-01  8.35D-01  7.52D-01  1.08D+00  7.84D-01
                    CP:  1.09D+00  1.05D+00  1.45D+00  1.42D+00  1.30D+00
                    CP:  1.43D+00  1.64D+00  1.42D+00
 E= -576.420153974746     Delta-E=       -0.000000000012 Rises=F Damp=F
 DIIS: error= 4.46D-08 at cycle  14 NSaved=  14.
 NSaved=14 IEnMin=14 EnMin= -576.420153974746     IErMin=14 ErrMin= 4.46D-08
 ErrMax= 4.46D-08  0.00D+00 EMaxC= 1.00D-01 BMatC= 7.08D-13 BMatP= 3.70D-12
 IDIUse=1 WtCom= 1.00D+00 WtEn= 0.00D+00
 Coeff-Com:  0.554D-07 0.205D-05 0.364D-05 0.120D-04 0.756D-04-0.113D-04
 Coeff-Com: -0.852D-03-0.832D-03 0.479D-02 0.200D-01-0.371D-01-0.151D+00
 Coeff-Com:  0.225D+00 0.940D+00
 Coeff:      0.554D-07 0.205D-05 0.364D-05 0.120D-04 0.756D-04-0.113D-04
 Coeff:     -0.852D-03-0.832D-03 0.479D-02 0.200D-01-0.371D-01-0.151D+00
 Coeff:      0.225D+00 0.940D+00
 Gap=     0.324 Goal=   None    Shift=    0.000
 RMSDP=7.69D-08 MaxDP=8.34D-06 DE=-1.18D-11 OVMax= 1.33D-06

 Cycle  15  Pass 1  IDiag  1:
 RMSU=  1.51D-08    CP:  6.35D-01  8.35D-01  7.52D-01  1.08D+00  7.84D-01
                    CP:  1.09D+00  1.05D+00  1.45D+00  1.42D+00  1.29D+00
                    CP:  1.42D+00  1.70D+00  1.64D+00  1.07D+00
 E= -576.420153974749     Delta-E=       -0.000000000003 Rises=F Damp=F
 DIIS: error= 1.71D-08 at cycle  15 NSaved=  15.
 NSaved=15 IEnMin=15 EnMin= -576.420153974749     IErMin=15 ErrMin= 1.71D-08
 ErrMax= 1.71D-08  0.00D+00 EMaxC= 1.00D-01 BMatC= 1.22D-13 BMatP= 7.08D-13
 IDIUse=1 WtCom= 1.00D+00 WtEn= 0.00D+00
 Coeff-Com: -0.338D-07 0.195D-06 0.105D-05 0.201D-04 0.879D-04 0.404D-04
 Coeff-Com: -0.552D-03-0.118D-02 0.156D-02 0.184D-01-0.422D-02-0.981D-01
 Coeff-Com: -0.851D-02 0.408D+00 0.684D+00
 Coeff:     -0.338D-07 0.195D-06 0.105D-05 0.201D-04 0.879D-04 0.404D-04
 Coeff:     -0.552D-03-0.118D-02 0.156D-02 0.184D-01-0.422D-02-0.981D-01
 Coeff:     -0.851D-02 0.408D+00 0.684D+00
 Gap=     0.324 Goal=   None    Shift=    0.000
 RMSDP=1.89D-08 MaxDP=2.41D-06 DE=-3.18D-12 OVMax= 2.92D-07

 Cycle  16  Pass 1  IDiag  1:
 RMSU=  4.14D-09    CP:  6.35D-01  8.35D-01  7.52D-01  1.08D+00  7.84D-01
                    CP:  1.09D+00  1.05D+00  1.45D+00  1.42D+00  1.29D+00
                    CP:  1.42D+00  1.71D+00  1.65D+00  1.14D+00  1.04D+00
 E= -576.420153974751     Delta-E=       -0.000000000002 Rises=F Damp=F
 DIIS: error= 5.56D-09 at cycle  16 NSaved=  16.
 NSaved=16 IEnMin=16 EnMin= -576.420153974751     IErMin=16 ErrMin= 5.56D-09
 ErrMax= 5.56D-09  0.00D+00 EMaxC= 1.00D-01 BMatC= 5.85D-15 BMatP= 1.22D-13
 IDIUse=1 WtCom= 1.00D+00 WtEn= 0.00D+00
 Coeff-Com: -0.896D-08-0.203D-06-0.328D-06 0.118D-05 0.260D-05 0.970D-05
 Coeff-Com:  0.315D-04-0.596D-04-0.503D-03-0.257D-03 0.598D-02 0.238D-02
 Coeff-Com: -0.260D-01-0.673D-01 0.920D-01 0.994D+00
 Coeff:     -0.896D-08-0.203D-06-0.328D-06 0.118D-05 0.260D-05 0.970D-05
 Coeff:      0.315D-04-0.596D-04-0.503D-03-0.257D-03 0.598D-02 0.238D-02
 Coeff:     -0.260D-01-0.673D-01 0.920D-01 0.994D+00
 Gap=     0.324 Goal=   None    Shift=    0.000
 RMSDP=4.99D-09 MaxDP=4.19D-07 DE=-1.82D-12 OVMax= 7.83D-08

 SCF Done:  E(RwB97XD) =  -576.420153975     A.U. after   16 cycles
            NFock= 16  Conv=0.50D-08     -V/T= 2.0000
 KE= 5.764251173758D+02 PE=-2.909554713299D+03 EE= 9.730528022919D+02
 Leave Link  502 at Tue Nov 22 15:02:18 2022, MaxMem= 16106127360 cpu:            1203.6 elap:              37.7
 (Enter /opt/ap/G16/B01/g16/l601.exe)
 Copying SCF densities to generalized density rwf, IOpCl= 0 IROHF=0.

 **********************************************************************

            Population analysis using the SCF Density.

 **********************************************************************

 Orbital symmetries:
       Occupied  (A) (A) (A) (A) (A) (A) (A) (A) (A) (A) (A) (A)
                 (A) (A) (A) (A) (A) (A) (A) (A) (A) (A) (A) (A)
                 (A) (A) (A) (A) (A) (A) (A) (A) (A) (A) (A) (A)
                 (A) (A) (A) (A) (A) (A) (A) (A) (A) (A) (A) (A)
       Virtual   (A) (A) (A) (A) (A) (A) (A) (A) (A) (A) (A) (A)
                 (A) (A) (A) (A) (A) (A) (A) (A) (A) (A) (A) (A)
                 (A) (A) (A) (A) (A) (A) (A) (A) (A) (A) (A) (A)
                 (A) (A) (A) (A) (A) (A) (A) (A) (A) (A) (A) (A)
                 (A) (A) (A) (A) (A) (A) (A) (A) (A) (A) (A) (A)
                 (A) (A) (A) (A) (A) (A) (A) (A) (A) (A) (A) (A)
                 (A) (A) (A) (A) (A) (A) (A) (A) (A) (A) (A) (A)
                 (A) (A) (A) (A) (A) (A) (A) (A) (A) (A) (A) (A)
                 (A) (A) (A) (A) (A) (A) (A) (A) (A) (A) (A) (A)
                 (A) (A) (A) (A) (A) (A) (A) (A) (A) (A) (A) (A)
                 (A) (A) (A) (A) (A) (A) (A) (A) (A) (A) (A) (A)
                 (A) (A) (A) (A) (A) (A) (A) (A) (A) (A) (A) (A)
                 (A) (A) (A) (A) (A) (A) (A) (A) (A) (A) (A) (A)
                 (A) (A) (A) (A) (A) (A) (A) (A) (A) (A) (A) (A)
                 (A) (A) (A) (A) (A) (A) (A) (A) (A) (A) (A) (A)
                 (A) (A) (A) (A) (A) (A) (A) (A) (A) (A) (A) (A)
                 (A) (A) (A) (A) (A) (A) (A) (A) (A) (A) (A) (A)
                 (A) (A) (A) (A) (A) (A) (A) (A) (A) (A) (A) (A)
                 (A) (A) (A) (A) (A) (A) (A) (A) (A) (A) (A) (A)
                 (A) (A) (A) (A) (A) (A) (A) (A) (A) (A) (A) (A)
                 (A) (A) (A) (A) (A) (A) (A) (A) (A) (A) (A) (A)
                 (A) (A) (A) (A) (A) (A) (A) (A) (A) (A) (A) (A)
                 (A) (A) (A) (A) (A) (A) (A) (A) (A) (A) (A) (A)
                 (A) (A) (A) (A) (A) (A) (A) (A) (A) (A) (A) (A)
                 (A) (A) (A) (A) (A) (A) (A) (A) (A) (A) (A) (A)
                 (A) (A) (A) (A) (A) (A) (A) (A) (A) (A) (A) (A)
                 (A) (A) (A) (A) (A) (A) (A) (A) (A) (A) (A) (A)
                 (A) (A) (A) (A)
 The electronic state is 1-A.
 Alpha  occ. eigenvalues --  -19.23585 -10.38080 -10.30460 -10.30446 -10.28965
 Alpha  occ. eigenvalues --  -10.28941 -10.28630 -10.28544 -10.28464 -10.28426
 Alpha  occ. eigenvalues --  -10.28397 -10.28373 -10.28212 -10.28141  -1.14740
 Alpha  occ. eigenvalues --   -0.97943  -0.97402  -0.89207  -0.87343  -0.87301
 Alpha  occ. eigenvalues --   -0.86711  -0.76799  -0.73822  -0.73646  -0.72393
 Alpha  occ. eigenvalues --   -0.67960  -0.65321  -0.63279  -0.60014  -0.56816
 Alpha  occ. eigenvalues --   -0.56076  -0.55974  -0.54090  -0.53837  -0.53652
 Alpha  occ. eigenvalues --   -0.51903  -0.49935  -0.47289  -0.46699  -0.46087
 Alpha  occ. eigenvalues --   -0.45260  -0.44863  -0.44328  -0.35019  -0.34514
 Alpha  occ. eigenvalues --   -0.34341  -0.34142  -0.33310
 Alpha virt. eigenvalues --   -0.00956   0.03610   0.03704   0.04312   0.04469
 Alpha virt. eigenvalues --    0.04858   0.05091   0.05563   0.06041   0.06865
 Alpha virt. eigenvalues --    0.07620   0.08047   0.08839   0.09887   0.11414
 Alpha virt. eigenvalues --    0.11696   0.11877   0.12829   0.13509   0.14177
 Alpha virt. eigenvalues --    0.15010   0.15103   0.15672   0.16060   0.16697
 Alpha virt. eigenvalues --    0.16911   0.17220   0.17428   0.17868   0.18042
 Alpha virt. eigenvalues --    0.18227   0.18701   0.18788   0.19143   0.19499
 Alpha virt. eigenvalues --    0.19875   0.20466   0.20679   0.21027   0.21461
 Alpha virt. eigenvalues --    0.21592   0.21787   0.22045   0.23059   0.23841
 Alpha virt. eigenvalues --    0.24307   0.24933   0.25186   0.25999   0.26434
 Alpha virt. eigenvalues --    0.26582   0.27083   0.27703   0.28158   0.29022
 Alpha virt. eigenvalues --    0.29642   0.30022   0.30071   0.30581   0.30955
 Alpha virt. eigenvalues --    0.31409   0.32283   0.32768   0.32863   0.33323
 Alpha virt. eigenvalues --    0.33929   0.33997   0.34743   0.35772   0.36083
 Alpha virt. eigenvalues --    0.36730   0.37520   0.37933   0.38506   0.38828
 Alpha virt. eigenvalues --    0.39076   0.40583   0.40790   0.41554   0.41679
 Alpha virt. eigenvalues --    0.42111   0.42427   0.43382   0.43851   0.44528
 Alpha virt. eigenvalues --    0.44874   0.45716   0.46489   0.49655   0.50091
 Alpha virt. eigenvalues --    0.52037   0.57149   0.57304   0.58233   0.60327
 Alpha virt. eigenvalues --    0.61079   0.61642   0.62721   0.63231   0.63665
 Alpha virt. eigenvalues --    0.64331   0.64762   0.65172   0.65409   0.66601
 Alpha virt. eigenvalues --    0.66865   0.67301   0.68638   0.69649   0.70622
 Alpha virt. eigenvalues --    0.71307   0.71898   0.72585   0.74095   0.74637
 Alpha virt. eigenvalues --    0.74862   0.76461   0.77152   0.78152   0.79006
 Alpha virt. eigenvalues --    0.80186   0.81031   0.81713   0.82069   0.82869
 Alpha virt. eigenvalues --    0.83935   0.84739   0.84840   0.85946   0.87373
 Alpha virt. eigenvalues --    0.88580   0.89998   0.92456   0.92791   0.93506
 Alpha virt. eigenvalues --    0.94275   0.94910   0.95371   0.95899   0.96449
 Alpha virt. eigenvalues --    0.97205   0.98497   0.99422   1.00422   1.00806
 Alpha virt. eigenvalues --    1.01890   1.02625   1.04134   1.04965   1.05504
 Alpha virt. eigenvalues --    1.07656   1.07875   1.11487   1.12522   1.12877
 Alpha virt. eigenvalues --    1.13974   1.16609   1.17061   1.17668   1.18880
 Alpha virt. eigenvalues --    1.19384   1.21102   1.22193   1.24667   1.25467
 Alpha virt. eigenvalues --    1.26197   1.29273   1.30658   1.33517   1.37943
 Alpha virt. eigenvalues --    1.40386   1.44007   1.44508   1.46305   1.55692
 Alpha virt. eigenvalues --    1.57024   1.57567   1.58279   1.60734   1.61092
 Alpha virt. eigenvalues --    1.61824   1.63091   1.64159   1.66099   1.66296
 Alpha virt. eigenvalues --    1.67871   1.68389   1.68598   1.70483   1.73239
 Alpha virt. eigenvalues --    1.75272   1.76115   1.76395   1.78232   1.78631
 Alpha virt. eigenvalues --    1.78815   1.80574   1.86994   1.87442   1.88688
 Alpha virt. eigenvalues --    1.90583   1.91495   1.92176   1.92998   1.94286
 Alpha virt. eigenvalues --    1.95678   1.95887   1.97437   2.00398   2.00855
 Alpha virt. eigenvalues --    2.02027   2.02530   2.05198   2.05774   2.06174
 Alpha virt. eigenvalues --    2.06326   2.06546   2.09118   2.10117   2.10569
 Alpha virt. eigenvalues --    2.13745   2.15383   2.16421   2.16932   2.21413
 Alpha virt. eigenvalues --    2.25803   2.27109   2.27395   2.29151   2.30153
 Alpha virt. eigenvalues --    2.31855   2.42278   2.44063   2.47368   2.48179
 Alpha virt. eigenvalues --    2.49196   2.50187   2.50894   2.51176   2.52045
 Alpha virt. eigenvalues --    2.58251   2.60182   2.61847   2.67413   2.69107
 Alpha virt. eigenvalues --    2.69824   2.78252   2.80273   2.82272   2.82489
 Alpha virt. eigenvalues --    2.83424   2.84143   2.87514   2.87922   2.87960
 Alpha virt. eigenvalues --    2.90070   2.92491   2.93488   2.93828   2.96653
 Alpha virt. eigenvalues --    2.96991   2.97741   2.98338   3.00280   3.00459
 Alpha virt. eigenvalues --    3.00798   3.01188   3.02159   3.03713   3.05084
 Alpha virt. eigenvalues --    3.06548   3.08256   3.12248   3.14015   3.14610
 Alpha virt. eigenvalues --    3.19656   3.20476   3.22549   3.24863   3.25896
 Alpha virt. eigenvalues --    3.27490   3.32627   3.33299   3.39024   3.45232
 Alpha virt. eigenvalues --    3.49340   3.49813   3.51575   3.52757   3.65793
 Alpha virt. eigenvalues --    3.69681   3.69969   3.71968   3.75255   3.76428
 Alpha virt. eigenvalues --    3.83438   3.88683   3.91916   3.96098   4.32145
 Alpha virt. eigenvalues --    4.36986   4.37788   4.39618   4.40709   4.42855
 Alpha virt. eigenvalues --    4.43426   4.51466   4.51629   4.61150   4.94499
 Alpha virt. eigenvalues --    4.95980   5.20633   5.36095   5.86561  23.89415
 Alpha virt. eigenvalues --   23.96509  23.99432  24.16825  24.18509  24.24252
 Alpha virt. eigenvalues --   24.24796  24.30292  24.31041  24.34210  24.34318
 Alpha virt. eigenvalues --   24.43718  24.44372  50.15683
          Condensed to atoms (all electrons):
               1          2          3          4          5          6
     1  C   16.458098   0.875338  -1.119541  -1.249154   0.024321  -7.326820
     2  C    0.875338  17.398556  -5.477031  -3.273578   0.822842  -4.309897
     3  C   -1.119541  -5.477031  10.507097   1.341751  -0.105789   2.005879
     4  C   -1.249154  -3.273578   1.341751   7.969669  -0.247492   1.656434
     5  H    0.024321   0.822842  -0.105789  -0.247492   0.544908  -0.219218
     6  C   -7.326820  -4.309897   2.005879   1.656434  -0.219218  24.197940
     7  C   -0.538360   0.113123   0.415877  -0.378762   0.046124  -0.461866
     8  H    0.042970   0.042197   0.417620   0.007572  -0.000671   0.061064
     9  C   -0.229043   1.190407  -0.969138   0.041032   0.014383  -0.545990
    10  H    0.052440  -0.198335   0.060599   0.497269  -0.018320   0.050226
    11  C   -1.304909  -0.065388  -0.950687  -0.488399   0.050406  -5.318419
    12  O    0.048609  -0.114357   0.081420  -0.018555  -0.001551   0.244980
    13  H   -0.024883  -0.031458  -0.072506   0.016535   0.000513   0.014277
    14  H    0.027965   0.037908  -0.024614  -0.098709   0.001097  -0.036243
    15  C   -0.123001  -0.466703  -0.202206   0.350626  -0.037305  -3.839976
    16  C   -0.194767   0.254200  -0.239686   0.006105   0.016655  -0.956107
    17  C   -0.779362   0.244394   0.163647   0.114746  -0.025486   2.551919
    18  H    0.076113  -0.039875  -0.022593  -0.003655  -0.018891  -0.255320
    19  C   -0.163935   0.136606  -0.094794   0.047020   0.000469   0.625790
    20  H   -0.059486  -0.030462   0.010418  -0.000469  -0.003754   0.020278
    21  C    0.122405  -0.103827  -0.003534   0.004084   0.000173  -1.050486
    22  H   -0.025923   0.013930  -0.003467   0.004705  -0.002218   0.058804
    23  H   -0.002935   0.010231  -0.004640   0.000710   0.000310   0.023744
    24  H    0.008404  -0.010355   0.001956  -0.001068  -0.000677  -0.039961
               7          8          9         10         11         12
     1  C   -0.538360   0.042970  -0.229043   0.052440  -1.304909   0.048609
     2  C    0.113123   0.042197   1.190407  -0.198335  -0.065388  -0.114357
     3  C    0.415877   0.417620  -0.969138   0.060599  -0.950687   0.081420
     4  C   -0.378762   0.007572   0.041032   0.497269  -0.488399  -0.018555
     5  H    0.046124  -0.000671   0.014383  -0.018320   0.050406  -0.001551
     6  C   -0.461866   0.061064  -0.545990   0.050226  -5.318419   0.244980
     7  C    6.374652  -0.149666   0.497282   0.003566  -0.002617   0.030981
     8  H   -0.149666   0.460743   0.000375   0.000419  -0.062729  -0.016178
     9  C    0.497282   0.000375   6.025193  -0.119548   0.042575  -0.003131
    10  H    0.003566   0.000419  -0.119548   0.493697  -0.022218   0.000046
    11  C   -0.002617  -0.062729   0.042575  -0.022218  14.803108  -0.038792
    12  O    0.030981  -0.016178  -0.003131   0.000046  -0.038792   7.983327
    13  H    0.490362  -0.013196  -0.050770   0.001166  -0.001605   0.001656
    14  H   -0.081513   0.002170   0.523695  -0.016722   0.008173  -0.000022
    15  C    0.220672  -0.036051  -0.195178   0.017303  -0.267358  -0.083763
    16  C   -0.183715   0.017904   0.072559  -0.007517  -0.028526   0.099321
    17  C    0.004318   0.003406   0.016757   0.004010  -0.597468  -0.026261
    18  H    0.012449  -0.004393  -0.008603  -0.001268  -0.015902  -0.000893
    19  C   -0.039701   0.003668   0.015536  -0.001757  -0.895892   0.017917
    20  H    0.003770  -0.000625  -0.002003   0.000225   0.089463  -0.013439
    21  C    0.014902  -0.001956  -0.016177   0.002271  -0.371104   0.006074
    22  H   -0.002433   0.000237   0.002796  -0.000024   0.062729  -0.000205
    23  H   -0.000888   0.000065   0.000562  -0.000072  -0.022845   0.000742
    24  H    0.000500  -0.000088  -0.000502   0.000069   0.024577   0.000119
              13         14         15         16         17         18
     1  C   -0.024883   0.027965  -0.123001  -0.194767  -0.779362   0.076113
     2  C   -0.031458   0.037908  -0.466703   0.254200   0.244394  -0.039875
     3  C   -0.072506  -0.024614  -0.202206  -0.239686   0.163647  -0.022593
     4  C    0.016535  -0.098709   0.350626   0.006105   0.114746  -0.003655
     5  H    0.000513   0.001097  -0.037305   0.016655  -0.025486  -0.018891
     6  C    0.014277  -0.036243  -3.839976  -0.956107   2.551919  -0.255320
     7  C    0.490362  -0.081513   0.220672  -0.183715   0.004318   0.012449
     8  H   -0.013196   0.002170  -0.036051   0.017904   0.003406  -0.004393
     9  C   -0.050770   0.523695  -0.195178   0.072559   0.016757  -0.008603
    10  H    0.001166  -0.016722   0.017303  -0.007517   0.004010  -0.001268
    11  C   -0.001605   0.008173  -0.267358  -0.028526  -0.597468  -0.015902
    12  O    0.001656  -0.000022  -0.083763   0.099321  -0.026261  -0.000893
    13  H    0.480833  -0.016940   0.011218  -0.006253  -0.000172   0.000667
    14  H   -0.016940   0.501076  -0.012418   0.003806  -0.000642  -0.000762
    15  C    0.011218  -0.012418  18.195947  -3.584307  -4.689789   0.864500
    16  C   -0.006253   0.003806  -3.584307   9.558915   0.536266  -0.033959
    17  C   -0.000172  -0.000642  -4.689789   0.536266   9.036610  -0.299362
    18  H    0.000667  -0.000762   0.864500  -0.033959  -0.299362   0.539473
    19  C   -0.000983   0.000457  -1.245613   0.845190   0.343090  -0.000687
    20  H    0.000095  -0.000100   0.086209   0.347961  -0.009241   0.000550
    21  C    0.000516  -0.000479   2.205560  -0.702361  -0.777195   0.051483
    22  H   -0.000073   0.000075  -0.237395   0.032692   0.550519  -0.019329
    23  H   -0.000020   0.000015  -0.062603  -0.065736   0.037863   0.000258
    24  H    0.000013  -0.000012   0.058181  -0.019610  -0.103061   0.001698
              19         20         21         22         23         24
     1  C   -0.163935  -0.059486   0.122405  -0.025923  -0.002935   0.008404
     2  C    0.136606  -0.030462  -0.103827   0.013930   0.010231  -0.010355
     3  C   -0.094794   0.010418  -0.003534  -0.003467  -0.004640   0.001956
     4  C    0.047020  -0.000469   0.004084   0.004705   0.000710  -0.001068
     5  H    0.000469  -0.003754   0.000173  -0.002218   0.000310  -0.000677
     6  C    0.625790   0.020278  -1.050486   0.058804   0.023744  -0.039961
     7  C   -0.039701   0.003770   0.014902  -0.002433  -0.000888   0.000500
     8  H    0.003668  -0.000625  -0.001956   0.000237   0.000065  -0.000088
     9  C    0.015536  -0.002003  -0.016177   0.002796   0.000562  -0.000502
    10  H   -0.001757   0.000225   0.002271  -0.000024  -0.000072   0.000069
    11  C   -0.895892   0.089463  -0.371104   0.062729  -0.022845   0.024577
    12  O    0.017917  -0.013439   0.006074  -0.000205   0.000742   0.000119
    13  H   -0.000983   0.000095   0.000516  -0.000073  -0.000020   0.000013
    14  H    0.000457  -0.000100  -0.000479   0.000075   0.000015  -0.000012
    15  C   -1.245613   0.086209   2.205560  -0.237395  -0.062603   0.058181
    16  C    0.845190   0.347961  -0.702361   0.032692  -0.065736  -0.019610
    17  C    0.343090  -0.009241  -0.777195   0.550519   0.037863  -0.103061
    18  H   -0.000687   0.000550   0.051483  -0.019329   0.000258   0.001698
    19  C    6.162457  -0.121735   0.279903   0.023798   0.497452  -0.072495
    20  H   -0.121735   0.460831   0.001479   0.000090  -0.014242   0.002178
    21  C    0.279903   0.001479   6.357345  -0.140931  -0.066446   0.502845
    22  H    0.023798   0.000090  -0.140931   0.496023   0.001377  -0.015682
    23  H    0.497452  -0.014242  -0.066446   0.001377   0.484553  -0.015482
    24  H   -0.072495   0.002178   0.502845  -0.015682  -0.015482   0.491009
 Mulliken charges:
               1
     1  C    1.405457
     2  C   -1.018466
     3  C    0.283962
     4  C   -0.298415
     5  H    0.159172
     6  C   -1.151030
     7  C   -0.389058
     8  H    0.225143
     9  C   -0.303067
    10  H    0.202475
    11  C    1.373826
    12  O   -0.198045
    13  H    0.201007
    14  H    0.182738
    15  C   -0.926549
    16  C    0.230971
    17  C   -0.299506
    18  H    0.178302
    19  C   -0.361761
    20  H    0.232011
    21  C   -0.314544
    22  H    0.199907
    23  H    0.198026
    24  H    0.187445
 Sum of Mulliken charges =  -0.00000
 Mulliken charges with hydrogens summed into heavy atoms:
               1
     1  C    1.405457
     2  C   -0.859294
     3  C    0.509105
     4  C   -0.095940
     6  C   -1.151030
     7  C   -0.188052
     9  C   -0.120329
    11  C    1.373826
    12  O   -0.198045
    15  C   -0.748248
    16  C    0.462981
    17  C   -0.099599
    19  C   -0.163735
    21  C   -0.127099
 Electronic spatial extent (au):  <R**2>=           3061.4189
 Charge=             -0.0000 electrons
 Dipole moment (field-independent basis, Debye):
    X=              0.0360    Y=             -3.2524    Z=             -0.1046  Tot=              3.2543
 Quadrupole moment (field-independent basis, Debye-Ang):
   XX=            -63.3260   YY=            -81.9522   ZZ=            -82.3574
   XY=              0.1970   XZ=              2.2052   YZ=             -0.5144
 Traceless Quadrupole moment (field-independent basis, Debye-Ang):
   XX=             12.5525   YY=             -6.0737   ZZ=             -6.4789
   XY=              0.1970   XZ=              2.2052   YZ=             -0.5144
 Octapole moment (field-independent basis, Debye-Ang**2):
  XXX=              1.5018  YYY=            -22.9502  ZZZ=              0.4075  XYY=              0.8683
  XXY=             -4.0259  XXZ=             -2.3780  XZZ=             -1.1061  YZZ=              3.7274
  YYZ=             -0.6864  XYZ=             16.0356
 Hexadecapole moment (field-independent basis, Debye-Ang**3):
 XXXX=          -2841.1777 YYYY=           -757.4691 ZZZZ=           -196.7398 XXXY=              6.1328
 XXXZ=             55.1286 YYYX=             -0.2212 YYYZ=             -1.6319 ZZZX=              4.7043
 ZZZY=             -1.0113 XXYY=           -608.1066 XXZZ=           -611.2721 YYZZ=           -144.7571
 XXYZ=             -1.1312 YYXZ=             -6.9352 ZZXY=             -0.4922
 N-N= 7.836566396561D+02 E-N=-2.909554713567D+03  KE= 5.764251173758D+02
 No NMR shielding tensors so no spin-rotation constants.
 Leave Link  601 at Tue Nov 22 15:02:18 2022, MaxMem= 16106127360 cpu:               4.5 elap:               0.2
 (Enter /opt/ap/G16/B01/g16/l9999.exe)
 1\1\GINC-N19\SP\RwB97XD\6-311++G(d,p)\C13H10O1\ROOT\22-Nov-2022\0\\#P 
 wB97XD/6-311++G(d,p) scf=maxcycle=512\\_conf023.gjf nmol_natom 1_24\\0
 ,1\C\C,1,1.39746343\C,1,1.39996263,2,119.28066518\C,2,1.39288453,1,120
 .37436646,3,-0.51002981,0\H,2,0.95014703,1,119.82324024,3,179.45634896
 ,0\C,1,1.49653039,2,122.77761373,4,174.46828757,0\C,3,1.3870125,1,120.
 10017821,2,-0.37315804,0\H,3,0.9501092,1,119.95246451,2,179.5923884,0\
 C,7,1.38720039,3,120.16568731,1,1.0745106,0\H,4,0.95011919,2,120.18755
 644,1,-179.31195299,0\C,6,1.49516902,1,120.70972921,2,25.,0\O,6,1.2215
 0059,1,119.67074267,2,-155.,0\H,7,0.94956661,3,119.91274826,1,-178.886
 36029,0\H,9,0.94992259,7,119.76037934,3,179.10763853,0\C,11,1.39713972
 ,6,122.62585705,1,30.97749054,0\C,11,1.40039562,6,117.74753532,1,-153.
 15467779,0\C,15,1.39455701,11,119.80747484,6,175.4763048,0\H,15,0.9496
 2854,11,120.10535689,6,-4.50802339,0\C,16,1.38466431,11,120.4617377,6,
 -176.88197195,0\H,16,0.9497464,11,119.75779177,6,3.14699974,0\C,17,1.3
 9088945,15,120.3475273,11,0.7973643,0\H,17,0.94984298,15,119.8156451,1
 1,-179.16676483,0\H,19,0.94974749,16,119.98566335,11,-178.40987425,0\H
 ,21,0.94938585,17,120.0744529,15,179.91636093,0\\Version=ES64L-G16RevB
 .01\State=1-A\HF=-576.420154\RMSD=4.992e-09\Dipole=-0.0385762,0.450637
 4,1.1977994\Quadrupole=9.4917468,-4.6466631,-4.8450837,-0.2988285,0.57
 99137,0.4413403\PG=C01 [X(C13H10O1)]\\@


 TO SEE A WORLD IN A GRAIN OF SAND
 AND A HEAVEN IN A WILD FLOWER
 HOLD INFINITY IN THE PALM OF YOUR HAND
 AND ETERNITY IN AN HOUR

                       -- WILLIAM BLAKE
 Job cpu time:       0 days  0 hours 20 minutes 55.1 seconds.
 Elapsed time:       0 days  0 hours  0 minutes 39.4 seconds.
 File lengths (MBytes):  RWF=     78 Int=      0 D2E=      0 Chk=      9 Scr=      1
 Normal termination of Gaussian 16 at Tue Nov 22 15:02:18 2022.
