 Entering Gaussian System, Link 0=g16
 Input=_conf022.gjf
 Output=_conf022.log
 Initial command:
 /opt/ap/G16/B01/g16/l1.exe "/tmp2/scr/Gau-5600.inp" -scrdir="/tmp2/scr/"
 Entering Link 1 = /opt/ap/G16/B01/g16/l1.exe PID=      5601.
  
 Copyright (c) 1988-2017, Gaussian, Inc.  All Rights Reserved.
  
 This is part of the Gaussian(R) 16 program.  It is based on
 the Gaussian(R) 09 system (copyright 2009, Gaussian, Inc.),
 the Gaussian(R) 03 system (copyright 2003, Gaussian, Inc.),
 the Gaussian(R) 98 system (copyright 1998, Gaussian, Inc.),
 the Gaussian(R) 94 system (copyright 1995, Gaussian, Inc.),
 the Gaussian 92(TM) system (copyright 1992, Gaussian, Inc.),
 the Gaussian 90(TM) system (copyright 1990, Gaussian, Inc.),
 the Gaussian 88(TM) system (copyright 1988, Gaussian, Inc.),
 the Gaussian 86(TM) system (copyright 1986, Carnegie Mellon
 University), and the Gaussian 82(TM) system (copyright 1983,
 Carnegie Mellon University). Gaussian is a federally registered
 trademark of Gaussian, Inc.
  
 This software contains proprietary and confidential information,
 including trade secrets, belonging to Gaussian, Inc.
  
 This software is provided under written license and may be
 used, copied, transmitted, or stored only in accord with that
 written license.
  
 The following legend is applicable only to US Government
 contracts under FAR:
  
                    RESTRICTED RIGHTS LEGEND
  
 Use, reproduction and disclosure by the US Government is
 subject to restrictions as set forth in subparagraphs (a)
 and (c) of the Commercial Computer Software - Restricted
 Rights clause in FAR 52.227-19.
  
 Gaussian, Inc.
 340 Quinnipiac St., Bldg. 40, Wallingford CT 06492
  
  
 ---------------------------------------------------------------
 Warning -- This program may not be used in any manner that
 competes with the business of Gaussian, Inc. or will provide
 assistance to any competitor of Gaussian, Inc.  The licensee
 of this program is prohibited from giving any competitor of
 Gaussian, Inc. access to this program.  By using this program,
 the user acknowledges that Gaussian, Inc. is engaged in the
 business of creating and licensing software in the field of
 computational chemistry and represents and warrants to the
 licensee that it is not a competitor of Gaussian, Inc. and that
 it will not use this program in any manner prohibited above.
 ---------------------------------------------------------------
  

 Cite this work as:
 Gaussian 16, Revision B.01,
 M. J. Frisch, G. W. Trucks, H. B. Schlegel, G. E. Scuseria, 
 M. A. Robb, J. R. Cheeseman, G. Scalmani, V. Barone, 
 G. A. Petersson, H. Nakatsuji, X. Li, M. Caricato, A. V. Marenich, 
 J. Bloino, B. G. Janesko, R. Gomperts, B. Mennucci, H. P. Hratchian, 
 J. V. Ortiz, A. F. Izmaylov, J. L. Sonnenberg, D. Williams-Young, 
 F. Ding, F. Lipparini, F. Egidi, J. Goings, B. Peng, A. Petrone, 
 T. Henderson, D. Ranasinghe, V. G. Zakrzewski, J. Gao, N. Rega, 
 G. Zheng, W. Liang, M. Hada, M. Ehara, K. Toyota, R. Fukuda, 
 J. Hasegawa, M. Ishida, T. Nakajima, Y. Honda, O. Kitao, H. Nakai, 
 T. Vreven, K. Throssell, J. A. Montgomery, Jr., J. E. Peralta, 
 F. Ogliaro, M. J. Bearpark, J. J. Heyd, E. N. Brothers, K. N. Kudin, 
 V. N. Staroverov, T. A. Keith, R. Kobayashi, J. Normand, 
 K. Raghavachari, A. P. Rendell, J. C. Burant, S. S. Iyengar, 
 J. Tomasi, M. Cossi, J. M. Millam, M. Klene, C. Adamo, R. Cammi, 
 J. W. Ochterski, R. L. Martin, K. Morokuma, O. Farkas, 
 J. B. Foresman, and D. J. Fox, Gaussian, Inc., Wallingford CT, 2016.
 
 ******************************************
 Gaussian 16:  ES64L-G16RevB.01 20-Dec-2017
                22-Nov-2022 
 ******************************************
 %nprocshared=32
 Will use up to   32 processors via shared memory.
 %mem=120GB
 %chk=_conf022.chk
 ----------------------------------------
 #P wB97XD/6-311++G(d,p) scf=maxcycle=512
 ----------------------------------------
 1/38=1,172=1/1;
 2/12=2,17=6,18=5,40=1/2;
 3/5=4,6=6,7=1111,11=2,25=1,30=1,74=-58/1,2,3;
 4//1;
 5/5=2,7=512,38=5/2;
 6/7=2,8=2,9=2,10=2,28=1/1;
 99/5=1,9=1/99;
 Leave Link    1 at Tue Nov 22 15:01:33 2022, MaxMem= 16106127360 cpu:               1.5 elap:               0.1
 (Enter /opt/ap/G16/B01/g16/l101.exe)
 ----------------------------
 _conf022.gjf nmol_natom 1_24
 ----------------------------
 Symbolic Z-matrix:
 Charge =  0 Multiplicity = 1
 C
 C                    1     1.39746 
 C                    1     1.39996  2     119.28067 
 C                    2     1.39288  1     120.37437  3    -0.51003  0
 H                    2     0.95015  1     119.82324  3     179.45635  0
 C                    1     1.49653  2     122.77761  4     174.46829  0
 C                    3     1.38701  1     120.10018  2    -0.37316  0
 H                    3     0.95011  1     119.95246  2     179.59239  0
 C                    7     1.3872   3     120.16569  1     1.07451  0
 H                    4     0.95012  2     120.18756  1    -179.31195  0
 C                    6     1.49517  1     120.70973  2     20.      0
 O                    6     1.2215   1     119.67074  2    -160.     0
 H                    7     0.94957  3     119.91275  1    -178.88636  0
 H                    9     0.94992  7     119.76038  3     179.10764  0
 C                    11    1.39714  6     122.62586  1     30.97749  0
 C                    11    1.4004   6     117.74754  1    -153.15468  0
 C                    15    1.39456  11    119.80747  6     175.4763  0
 H                    15    0.94963  11    120.10536  6    -4.50802  0
 C                    16    1.38466  11    120.46174  6    -176.88197  0
 H                    16    0.94975  11    119.75779  6     3.147    0
 C                    17    1.39089  15    120.34753  11    0.79736  0
 H                    17    0.94984  15    119.81565  11   -179.16676  0
 H                    19    0.94975  16    119.98566  11   -178.40987  0
 H                    21    0.94939  17    120.07445  15    179.91636  0
 
 ITRead=  0  0  0  0  0  0  0  0  0  0  0  0  0  0  0  0  0  0  0  0
 ITRead=  0  0  0  0
 MicOpt= -1 -1 -1 -1 -1 -1 -1 -1 -1 -1 -1 -1 -1 -1 -1 -1 -1 -1 -1 -1
 MicOpt= -1 -1 -1 -1
 NAtoms=     24 NQM=       24 NQMF=       0 NMMI=      0 NMMIF=      0
                NMic=       0 NMicF=      0.
                    Isotopes and Nuclear Properties:
 (Nuclear quadrupole moments (NQMom) in fm**2, nuclear magnetic moments (NMagM)
  in nuclear magnetons)

  Atom         1           2           3           4           5           6           7           8           9          10
 IAtWgt=          12          12          12          12           1          12          12           1          12           1
 AtmWgt=  12.0000000  12.0000000  12.0000000  12.0000000   1.0078250  12.0000000  12.0000000   1.0078250  12.0000000   1.0078250
 NucSpn=           0           0           0           0           1           0           0           1           0           1
 AtZEff=  -0.0000000  -0.0000000  -0.0000000  -0.0000000  -0.0000000  -0.0000000  -0.0000000  -0.0000000  -0.0000000  -0.0000000
 NQMom=    0.0000000   0.0000000   0.0000000   0.0000000   0.0000000   0.0000000   0.0000000   0.0000000   0.0000000   0.0000000
 NMagM=    0.0000000   0.0000000   0.0000000   0.0000000   2.7928460   0.0000000   0.0000000   2.7928460   0.0000000   2.7928460
 AtZNuc=   6.0000000   6.0000000   6.0000000   6.0000000   1.0000000   6.0000000   6.0000000   1.0000000   6.0000000   1.0000000

  Atom        11          12          13          14          15          16          17          18          19          20
 IAtWgt=          12          16           1           1          12          12          12           1          12           1
 AtmWgt=  12.0000000  15.9949146   1.0078250   1.0078250  12.0000000  12.0000000  12.0000000   1.0078250  12.0000000   1.0078250
 NucSpn=           0           0           1           1           0           0           0           1           0           1
 AtZEff=  -0.0000000  -0.0000000  -0.0000000  -0.0000000  -0.0000000  -0.0000000  -0.0000000  -0.0000000  -0.0000000  -0.0000000
 NQMom=    0.0000000   0.0000000   0.0000000   0.0000000   0.0000000   0.0000000   0.0000000   0.0000000   0.0000000   0.0000000
 NMagM=    0.0000000   0.0000000   2.7928460   2.7928460   0.0000000   0.0000000   0.0000000   2.7928460   0.0000000   2.7928460
 AtZNuc=   6.0000000   8.0000000   1.0000000   1.0000000   6.0000000   6.0000000   6.0000000   1.0000000   6.0000000   1.0000000

  Atom        21          22          23          24
 IAtWgt=          12           1           1           1
 AtmWgt=  12.0000000   1.0078250   1.0078250   1.0078250
 NucSpn=           0           1           1           1
 AtZEff=  -0.0000000  -0.0000000  -0.0000000  -0.0000000
 NQMom=    0.0000000   0.0000000   0.0000000   0.0000000
 NMagM=    0.0000000   2.7928460   2.7928460   2.7928460
 AtZNuc=   6.0000000   1.0000000   1.0000000   1.0000000
 Leave Link  101 at Tue Nov 22 15:01:33 2022, MaxMem= 16106127360 cpu:               6.0 elap:               0.2
 (Enter /opt/ap/G16/B01/g16/l202.exe)
                          Input orientation:                          
 ---------------------------------------------------------------------
 Center     Atomic      Atomic             Coordinates (Angstroms)
 Number     Number       Type             X           Y           Z
 ---------------------------------------------------------------------
      1          6           0        0.000000    0.000000    0.000000
      2          6           0        0.000000    0.000000    1.397463
      3          6           0        1.221096    0.000000   -0.684705
      4          6           0        1.201650   -0.010697    2.101772
      5          1           0       -0.824276    0.007821    1.869996
      6          6           0       -1.253421   -0.110138   -0.810191
      7          6           0        2.414707    0.007815    0.021719
      8          1           0        1.232246   -0.005856   -1.634731
      9          6           0        2.403895   -0.006831    1.408800
     10          1           0        1.198494   -0.020531    3.051836
     11          6           0       -2.582892    0.214401   -0.207936
     12          8           0       -1.190216   -0.468984   -1.976081
     13          1           0        3.241298    0.023792   -0.445367
     14          1           0        3.224827   -0.014217    1.886678
     15          6           0       -2.740835    1.171080    0.797956
     16          6           0       -3.713012   -0.414279   -0.745241
     17          6           0       -4.019011    1.495257    1.251789
     18          1           0       -1.980127    1.599576    1.171465
     19          6           0       -4.978093   -0.106792   -0.273735
     20          1           0       -3.610804   -1.056318   -1.437598
     21          6           0       -5.135853    0.859327    0.719969
     22          1           0       -4.127324    2.154186    1.927276
     23          1           0       -5.737977   -0.553618   -0.627208
     24          1           0       -6.004133    1.082181    1.032633
 ---------------------------------------------------------------------
                    Distance matrix (angstroms):
                    1          2          3          4          5
     1  C    0.000000
     2  C    1.397463   0.000000
     3  C    1.399963   2.413814   0.000000
     4  C    2.421058   1.392885   2.786566   0.000000
     5  H    2.043619   0.950147   3.272630   2.039225   0.000000
     6  C    1.496530   2.541049   2.480142   3.810091   2.716889
     7  C    2.414817   2.779127   1.387013   2.408002   3.729228
     8  H    2.047146   3.273021   0.950109   3.736632   4.063567
     9  C    2.786301   2.403931   2.404542   1.387667   3.260982
    10  H    3.278797   2.042977   3.736665   0.950119   2.342893
    11  C    2.600103   3.048705   3.839739   4.439389   2.730056
    12  O    2.354029   3.607958   2.775251   4.749730   3.892758
    13  H    3.271839   3.728619   2.034469   3.263323   4.678681
    14  H    3.736210   3.261755   3.259932   2.034583   4.049198
    15  C    3.085505   3.040233   4.389374   4.317374   2.485083
    16  C    3.809655   4.306886   4.951839   5.694055   3.919494
    17  C    4.467127   4.290626   5.783124   5.499606   3.577846
    18  H    2.802120   2.555508   4.031357   3.685397   2.087491
    19  C    4.986757   5.252211   6.213714   6.621291   4.675780
    20  H    4.027455   4.710762   5.002989   6.064666   4.453909
    21  C    5.256784   5.251136   6.566760   6.544483   4.542831
    22  H    5.038821   4.685725   6.329973   5.754574   3.939580
    23  H    5.798643   6.109842   6.981295   7.476664   5.540370
    24  H    6.187654   6.111778   7.504951   7.366189   5.355963
                    6          7          8          9         10
     6  C    0.000000
     7  C    3.763130   0.000000
     8  H    2.620930   2.035246   0.000000
     9  C    4.279082   1.387200   3.261263   0.000000
    10  H    4.575496   3.265208   4.686711   2.037829   0.000000
    11  C    1.495169   5.007136   4.079158   5.246981   4.998017
    12  O    1.221501   4.148977   2.489844   4.958692   5.584531
    13  H    4.511488   0.949567   2.334899   2.034727   4.050363
    14  H    5.228480   2.033434   4.046081   0.949923   2.337447
    15  C    2.537727   5.341848   4.805051   5.313083   4.692358
    16  C    2.479176   6.189938   5.041188   6.497881   6.220588
    17  C    3.804937   6.717015   6.177462   6.598079   5.723648
    18  H    2.716281   4.813542   4.557575   4.675095   4.032887
    19  C    3.763108   7.399589   6.358522   7.571965   7.015489
    20  H    2.616515   6.290370   4.959582   6.736467   6.660121
    21  C    4.284219   7.630437   6.844401   7.620532   6.807033
    22  H    4.569487   7.143964   6.788126   6.898958   5.861601
    23  H    4.510144   8.197717   7.063932   8.410373   7.869827
    24  H    5.233249   8.547109   7.788699   8.486600   7.561150
                   11         12         13         14         15
    11  C    0.000000
    12  O    2.352211   0.000000
    13  H    5.832143   4.714257   0.000000
    14  H    6.178128   5.883904   2.332413   0.000000
    15  C    1.397140   3.576242   6.216755   6.178946   0.000000
    16  C    1.400396   2.807573   6.974544   7.431061   2.416598
    17  C    2.415332   4.720113   7.599844   7.426627   1.394557
    18  H    2.045674   3.848369   5.688631   5.496127   0.949629
    19  C    2.417537   4.168594   8.222220   8.483151   2.790484
    20  H    2.045335   2.548367   7.007314   7.672199   3.273506
    21  C    2.791872   4.959954   8.498987   8.486770   2.416481
    22  H    3.272181   5.544711   8.028985   7.665360   2.040640
    23  H    3.274172   4.744339   8.999658   9.324293   3.740125
    24  H    3.741249   5.884919   9.422455   9.333016   3.272933
                   16         17         18         19         20
    16  C    0.000000
    17  C    2.779944   0.000000
    18  H    3.276013   2.043131   0.000000
    19  C    1.384664   2.411145   3.740066   0.000000
    20  H    0.949746   3.729607   4.064490   2.031171   0.000000
    21  C    2.406945   1.390889   3.272678   1.394891   3.263520
    22  H    3.729747   0.949843   2.342925   3.268069   4.679370
    23  H    2.033181   3.268541   4.689659   0.949747   2.331159
    24  H    3.263351   2.039453   4.059507   2.042795   4.050092
                   21         22         23         24
    21  C    0.000000
    22  H    2.037493   0.000000
    23  H    2.043001   4.056081   0.000000
    24  H    0.949386   2.339229   2.345581   0.000000
 Stoichiometry    C13H10O
 Framework group  C1[X(C13H10O)]
 Deg. of freedom    66
 Full point group                 C1      NOp   1
 Largest Abelian subgroup         C1      NOp   1
 Largest concise Abelian subgroup C1      NOp   1
                         Standard orientation:                         
 ---------------------------------------------------------------------
 Center     Atomic      Atomic             Coordinates (Angstroms)
 Number     Number       Type             X           Y           Z
 ---------------------------------------------------------------------
      1          6           0        1.303451    0.324305    0.032776
      2          6           0        1.409598   -0.992155   -0.423918
      3          6           0        2.464560    1.022444    0.385370
      4          6           0        2.657806   -1.599805   -0.537354
      5          1           0        0.625934   -1.475759   -0.657961
      6          6           0        0.006060    1.069646    0.061866
      7          6           0        3.703366    0.406294    0.287781
      8          1           0        2.403974    1.919835    0.691516
      9          6           0        3.799230   -0.895983   -0.180415
     10          1           0        2.727673   -2.491663   -0.857405
     11          6           0       -1.296622    0.336496    0.029584
     12          8           0        0.010857    2.290087    0.112527
     13          1           0        4.487717    0.876950    0.542640
     14          1           0        4.651727   -1.307991   -0.256911
     15          6           0       -1.458611   -0.936230    0.582692
     16          6           0       -2.406625    1.002641   -0.504504
     17          6           0       -2.721575   -1.527209    0.603988
     18          1           0       -0.710998   -1.397547    0.943324
     19          6           0       -3.653816    0.401135   -0.503277
     20          1           0       -2.302990    1.872906   -0.870450
     21          6           0       -3.817352   -0.863241    0.062699
     22          1           0       -2.833994   -2.387467    0.990666
     23          1           0       -4.397527    0.849712   -0.887586
     24          1           0       -4.675191   -1.269695    0.078213
 ---------------------------------------------------------------------
 Rotational constants (GHZ):           1.7693786           0.4144996           0.3493461
 Leave Link  202 at Tue Nov 22 15:01:33 2022, MaxMem= 16106127360 cpu:               0.3 elap:               0.0
 (Enter /opt/ap/G16/B01/g16/l301.exe)
 Standard basis: 6-311++G(d,p) (5D, 7F)
 Ernie: Thresh=  0.10000D-02 Tol=  0.10000D-05 Strict=F.
 There are   392 symmetry adapted cartesian basis functions of A   symmetry.
 There are   378 symmetry adapted basis functions of A   symmetry.
   378 basis functions,   594 primitive gaussians,   392 cartesian basis functions
    48 alpha electrons       48 beta electrons
       nuclear repulsion energy       784.0612115355 Hartrees.
 IExCor= 4639 DFT=T Ex+Corr=wB97XD ExCW=0 ScaHFX=  1.000000
 ScaDFX=  1.000000  1.000000  1.000000  1.000000 ScalE2=  1.000000  1.000000
 IRadAn=      5 IRanWt=     -1 IRanGd=            0 ICorTp=0 IEmpDi=121
 HFx  wShort=  0.000000 wLong=  0.200000 cFull=  0.222036 cShort=  0.000000 cLong=  0.777964
 DFx  wShort=  0.000000 wLong=  0.200000 cFull=  0.000000 cShort=  0.000000 cLong=  1.000000
 NAtoms=   24 NActive=   24 NUniq=   24 SFac= 1.00D+00 NAtFMM=   60 NAOKFM=F Big=F
 Integral buffers will be    131072 words long.
 Raffenetti 2 integral format.
 Two-electron integral symmetry is turned on.
 R6Disp:  Grimme-D2 Dispersion energy=       -0.0139686075 Hartrees.
 Nuclear repulsion after empirical dispersion term =      784.0472429280 Hartrees.
 Leave Link  301 at Tue Nov 22 15:01:33 2022, MaxMem= 16106127360 cpu:               1.2 elap:               0.0
 (Enter /opt/ap/G16/B01/g16/l302.exe)
 NPDir=0 NMtPBC=     1 NCelOv=     1 NCel=       1 NClECP=     1 NCelD=      1
         NCelK=      1 NCelE2=     1 NClLst=     1 CellRange=     0.0.
 One-electron integrals computed using PRISM.
 One-electron integral symmetry used in STVInt
 NBasis=   378 RedAO= T EigKep=  1.11D-06  NBF=   378
 NBsUse=   376 1.00D-06 EigRej=  7.23D-07 NBFU=   376
 Precomputing XC quadrature grid using
 IXCGrd= 4 IRadAn=           5 IRanWt=          -1 IRanGd=           0 AccXCQ= 0.00D+00.
 Generated NRdTot=       0 NPtTot=           0 NUsed=           0 NTot=          32
 NSgBfM=   392   392   392   392   392 MxSgAt=    24 MxSgA2=    24.
 Leave Link  302 at Tue Nov 22 15:01:34 2022, MaxMem= 16106127360 cpu:               8.4 elap:               0.3
 (Enter /opt/ap/G16/B01/g16/l303.exe)
 DipDrv:  MaxL=1.
 Leave Link  303 at Tue Nov 22 15:01:34 2022, MaxMem= 16106127360 cpu:               1.6 elap:               0.1
 (Enter /opt/ap/G16/B01/g16/l401.exe)
 ExpMin= 3.60D-02 ExpMax= 8.59D+03 ExpMxC= 1.30D+03 IAcc=3 IRadAn=         5 AccDes= 0.00D+00
 Harris functional with IExCor= 4639 and IRadAn=       5 diagonalized for initial guess.
 HarFok:  IExCor= 4639 AccDes= 0.00D+00 IRadAn=         5 IDoV= 1 UseB2=F ITyADJ=14
 ICtDFT=  3500011 ScaDFX=  1.000000  1.000000  1.000000  1.000000
 FoFCou: FMM=F IPFlag=           0 FMFlag=      100000 FMFlg1=           0
         NFxFlg=           0 DoJE=T BraDBF=F KetDBF=T FulRan=T
         wScrn=  0.000000 ICntrl=       500 IOpCl=  0 I1Cent=   200000004 NGrid=           0
         NMat0=    1 NMatS0=      1 NMatT0=    0 NMatD0=    1 NMtDS0=    0 NMtDT0=    0
 Petite list used in FoFCou.
 Harris En= -550.903855122098    
 JPrj=0 DoOrth=F DoCkMO=F.
 Leave Link  401 at Tue Nov 22 15:01:34 2022, MaxMem= 16106127360 cpu:              22.8 elap:               0.7
 (Enter /opt/ap/G16/B01/g16/l502.exe)
 Integral symmetry usage will be decided dynamically.
 Closed shell SCF:
 Using DIIS extrapolation, IDIIS=  1040.
 NGot= 16106127360 LenX= 16105803762 LenY= 16105649657
 Requested convergence on RMS density matrix=1.00D-08 within 512 cycles.
 Requested convergence on MAX density matrix=1.00D-06.
 Requested convergence on             energy=1.00D-06.
 No special actions if energy rises.
 Fock matrices will be formed incrementally for  20 cycles.

 Cycle   1  Pass 1  IDiag  1:
 FoFJK:  IHMeth= 1 ICntrl=       0 DoSepK=T KAlg= 0 I1Cent=           0 FoldK=F
 IRaf=         1 NMat=       1 IRICut=       1 DoRegI=T DoRafI=F ISym2E= 0 IDoP0=0 IntGTp=1.
 FoFCou: FMM=F IPFlag=           0 FMFlag=      100000 FMFlg1=           0
         NFxFlg=           0 DoJE=T BraDBF=F KetDBF=F FulRan=T
         wScrn=  0.000000 ICntrl=       500 IOpCl=  0 I1Cent=           0 NGrid=           0
         NMat0=    1 NMatS0=      1 NMatT0=    0 NMatD0=    1 NMtDS0=    0 NMtDT0=    0
 Symmetry not used in FoFCou.
 E= -576.265648481362    
 DIIS: error= 4.88D-02 at cycle   1 NSaved=   1.
 NSaved= 1 IEnMin= 1 EnMin= -576.265648481362     IErMin= 1 ErrMin= 4.88D-02
 ErrMax= 4.88D-02  0.00D+00 EMaxC= 1.00D-01 BMatC= 1.19D+00 BMatP= 1.19D+00
 IDIUse=3 WtCom= 5.12D-01 WtEn= 4.88D-01
 Coeff-Com:  0.100D+01
 Coeff-En:   0.100D+01
 Coeff:      0.100D+01
 Gap=     0.402 Goal=   None    Shift=    0.000
 GapD=    0.402 DampG=2.000 DampE=0.500 DampFc=1.0000 IDamp=-1.
 RMSDP=3.29D-02 MaxDP=3.89D+00              OVMax= 1.38D-01

 Cycle   2  Pass 1  IDiag  1:
 RMSU=  1.87D-02    CP:  7.07D-01
 E= -576.354331239539     Delta-E=       -0.088682758177 Rises=F Damp=F
 DIIS: error= 1.76D-02 at cycle   2 NSaved=   2.
 NSaved= 2 IEnMin= 2 EnMin= -576.354331239539     IErMin= 2 ErrMin= 1.76D-02
 ErrMax= 1.76D-02  0.00D+00 EMaxC= 1.00D-01 BMatC= 7.45D-02 BMatP= 1.19D+00
 IDIUse=3 WtCom= 8.24D-01 WtEn= 1.76D-01
 Coeff-Com:  0.125D+00 0.875D+00
 Coeff-En:   0.141D+00 0.859D+00
 Coeff:      0.128D+00 0.872D+00
 Gap=     0.417 Goal=   None    Shift=    0.000
 RMSDP=1.08D-02 MaxDP=1.12D+00 DE=-8.87D-02 OVMax= 1.63D-01

 Cycle   3  Pass 1  IDiag  1:
 RMSU=  7.20D-03    CP:  6.44D-01  7.03D-01
 E= -576.369459296868     Delta-E=       -0.015128057329 Rises=F Damp=F
 DIIS: error= 1.36D-02 at cycle   3 NSaved=   3.
 NSaved= 3 IEnMin= 3 EnMin= -576.369459296868     IErMin= 3 ErrMin= 1.36D-02
 ErrMax= 1.36D-02  0.00D+00 EMaxC= 1.00D-01 BMatC= 5.60D-02 BMatP= 7.45D-02
 IDIUse=3 WtCom= 8.64D-01 WtEn= 1.36D-01
 Coeff-Com:  0.240D-01 0.468D+00 0.508D+00
 Coeff-En:   0.000D+00 0.437D+00 0.563D+00
 Coeff:      0.207D-01 0.463D+00 0.516D+00
 Gap=     0.346 Goal=   None    Shift=    0.000
 RMSDP=4.16D-03 MaxDP=2.47D-01 DE=-1.51D-02 OVMax= 6.67D-02

 Cycle   4  Pass 1  IDiag  1:
 RMSU=  2.26D-03    CP:  6.24D-01  8.03D-01  6.73D-01
 E= -576.418615938280     Delta-E=       -0.049156641412 Rises=F Damp=F
 DIIS: error= 2.73D-03 at cycle   4 NSaved=   4.
 NSaved= 4 IEnMin= 4 EnMin= -576.418615938280     IErMin= 4 ErrMin= 2.73D-03
 ErrMax= 2.73D-03  0.00D+00 EMaxC= 1.00D-01 BMatC= 9.59D-04 BMatP= 5.60D-02
 IDIUse=3 WtCom= 9.73D-01 WtEn= 2.73D-02
 Coeff-Com:  0.970D-02 0.202D+00 0.243D+00 0.545D+00
 Coeff-En:   0.000D+00 0.000D+00 0.000D+00 0.100D+01
 Coeff:      0.943D-02 0.196D+00 0.237D+00 0.557D+00
 Gap=     0.321 Goal=   None    Shift=    0.000
 RMSDP=6.02D-04 MaxDP=5.72D-02 DE=-4.92D-02 OVMax= 7.02D-03

 Cycle   5  Pass 1  IDiag  1:
 RMSU=  4.39D-04    CP:  6.25D-01  8.23D-01  6.96D-01  9.84D-01
 E= -576.419274364301     Delta-E=       -0.000658426021 Rises=F Damp=F
 DIIS: error= 7.78D-04 at cycle   5 NSaved=   5.
 NSaved= 5 IEnMin= 5 EnMin= -576.419274364301     IErMin= 5 ErrMin= 7.78D-04
 ErrMax= 7.78D-04  0.00D+00 EMaxC= 1.00D-01 BMatC= 8.76D-05 BMatP= 9.59D-04
 IDIUse=3 WtCom= 9.92D-01 WtEn= 7.78D-03
 Coeff-Com: -0.592D-03-0.870D-02-0.614D-03 0.219D+00 0.790D+00
 Coeff-En:   0.000D+00 0.000D+00 0.000D+00 0.000D+00 0.100D+01
 Coeff:     -0.588D-03-0.863D-02-0.609D-03 0.218D+00 0.792D+00
 Gap=     0.323 Goal=   None    Shift=    0.000
 RMSDP=4.02D-04 MaxDP=3.82D-02 DE=-6.58D-04 OVMax= 2.69D-03

 Cycle   6  Pass 1  IDiag  1:
 RMSU=  2.51D-04    CP:  6.23D-01  8.27D-01  6.96D-01  1.04D+00  6.81D-01
 E= -576.419342568181     Delta-E=       -0.000068203881 Rises=F Damp=F
 DIIS: error= 3.56D-04 at cycle   6 NSaved=   6.
 NSaved= 6 IEnMin= 6 EnMin= -576.419342568181     IErMin= 6 ErrMin= 3.56D-04
 ErrMax= 3.56D-04  0.00D+00 EMaxC= 1.00D-01 BMatC= 1.84D-05 BMatP= 8.76D-05
 IDIUse=3 WtCom= 9.96D-01 WtEn= 3.56D-03
 Coeff-Com: -0.122D-02-0.231D-01-0.222D-01 0.647D-01 0.425D+00 0.556D+00
 Coeff-En:   0.000D+00 0.000D+00 0.000D+00 0.000D+00 0.000D+00 0.100D+01
 Coeff:     -0.122D-02-0.230D-01-0.221D-01 0.645D-01 0.424D+00 0.558D+00
 Gap=     0.323 Goal=   None    Shift=    0.000
 RMSDP=9.20D-05 MaxDP=5.67D-03 DE=-6.82D-05 OVMax= 1.34D-03

 Cycle   7  Pass 1  IDiag  1:
 RMSU=  7.86D-05    CP:  6.23D-01  8.27D-01  6.98D-01  1.05D+00  7.47D-01
                    CP:  9.72D-01
 E= -576.419361739191     Delta-E=       -0.000019171009 Rises=F Damp=F
 DIIS: error= 5.45D-05 at cycle   7 NSaved=   7.
 NSaved= 7 IEnMin= 7 EnMin= -576.419361739191     IErMin= 7 ErrMin= 5.45D-05
 ErrMax= 5.45D-05  0.00D+00 EMaxC= 1.00D-01 BMatC= 4.76D-07 BMatP= 1.84D-05
 IDIUse=1 WtCom= 1.00D+00 WtEn= 0.00D+00
 Coeff-Com: -0.227D-03-0.434D-02-0.509D-02-0.106D-01-0.887D-02 0.107D+00
 Coeff-Com:  0.922D+00
 Coeff:     -0.227D-03-0.434D-02-0.509D-02-0.106D-01-0.887D-02 0.107D+00
 Coeff:      0.922D+00
 Gap=     0.323 Goal=   None    Shift=    0.000
 RMSDP=3.95D-05 MaxDP=2.73D-03 DE=-1.92D-05 OVMax= 5.51D-04

 Cycle   8  Pass 1  IDiag  1:
 RMSU=  2.01D-05    CP:  6.23D-01  8.28D-01  6.99D-01  1.06D+00  7.57D-01
                    CP:  1.06D+00  1.06D+00
 E= -576.419362913452     Delta-E=       -0.000001174261 Rises=F Damp=F
 DIIS: error= 2.32D-05 at cycle   8 NSaved=   8.
 NSaved= 8 IEnMin= 8 EnMin= -576.419362913452     IErMin= 8 ErrMin= 2.32D-05
 ErrMax= 2.32D-05  0.00D+00 EMaxC= 1.00D-01 BMatC= 8.16D-08 BMatP= 4.76D-07
 IDIUse=1 WtCom= 1.00D+00 WtEn= 0.00D+00
 Coeff-Com:  0.436D-04 0.611D-03 0.136D-03-0.122D-01-0.538D-01-0.225D-01
 Coeff-Com:  0.316D+00 0.771D+00
 Coeff:      0.436D-04 0.611D-03 0.136D-03-0.122D-01-0.538D-01-0.225D-01
 Coeff:      0.316D+00 0.771D+00
 Gap=     0.323 Goal=   None    Shift=    0.000
 RMSDP=1.77D-05 MaxDP=1.88D-03 DE=-1.17D-06 OVMax= 2.09D-04

 Cycle   9  Pass 1  IDiag  1:
 RMSU=  5.29D-06    CP:  6.23D-01  8.28D-01  6.99D-01  1.07D+00  7.56D-01
                    CP:  1.10D+00  1.06D+00  1.25D+00
 E= -576.419363071095     Delta-E=       -0.000000157643 Rises=F Damp=F
 DIIS: error= 4.32D-06 at cycle   9 NSaved=   9.
 NSaved= 9 IEnMin= 9 EnMin= -576.419363071095     IErMin= 9 ErrMin= 4.32D-06
 ErrMax= 4.32D-06  0.00D+00 EMaxC= 1.00D-01 BMatC= 5.94D-09 BMatP= 8.16D-08
 IDIUse=1 WtCom= 1.00D+00 WtEn= 0.00D+00
 Coeff-Com:  0.392D-04 0.691D-03 0.675D-03-0.907D-03-0.940D-02-0.169D-01
 Coeff-Com: -0.558D-01 0.151D+00 0.930D+00
 Coeff:      0.392D-04 0.691D-03 0.675D-03-0.907D-03-0.940D-02-0.169D-01
 Coeff:     -0.558D-01 0.151D+00 0.930D+00
 Gap=     0.323 Goal=   None    Shift=    0.000
 RMSDP=7.64D-06 MaxDP=9.48D-04 DE=-1.58D-07 OVMax= 9.94D-05

 Cycle  10  Pass 1  IDiag  1:
 RMSU=  2.13D-06    CP:  6.23D-01  8.28D-01  6.99D-01  1.07D+00  7.54D-01
                    CP:  1.10D+00  1.07D+00  1.40D+00  1.32D+00
 E= -576.419363089695     Delta-E=       -0.000000018600 Rises=F Damp=F
 DIIS: error= 2.04D-06 at cycle  10 NSaved=  10.
 NSaved=10 IEnMin=10 EnMin= -576.419363089695     IErMin=10 ErrMin= 2.04D-06
 ErrMax= 2.04D-06  0.00D+00 EMaxC= 1.00D-01 BMatC= 5.33D-10 BMatP= 5.94D-09
 IDIUse=1 WtCom= 1.00D+00 WtEn= 0.00D+00
 Coeff-Com: -0.270D-05-0.122D-04 0.225D-04 0.128D-02 0.451D-02 0.192D-02
 Coeff-Com: -0.266D-01-0.684D-01 0.456D-01 0.104D+01
 Coeff:     -0.270D-05-0.122D-04 0.225D-04 0.128D-02 0.451D-02 0.192D-02
 Coeff:     -0.266D-01-0.684D-01 0.456D-01 0.104D+01
 Gap=     0.323 Goal=   None    Shift=    0.000
 RMSDP=2.09D-06 MaxDP=1.18D-04 DE=-1.86D-08 OVMax= 3.64D-05

 Cycle  11  Pass 1  IDiag  1:
 RMSU=  8.29D-07    CP:  6.23D-01  8.28D-01  6.99D-01  1.07D+00  7.54D-01
                    CP:  1.10D+00  1.06D+00  1.45D+00  1.42D+00  1.22D+00
 E= -576.419363092164     Delta-E=       -0.000000002469 Rises=F Damp=F
 DIIS: error= 9.62D-07 at cycle  11 NSaved=  11.
 NSaved=11 IEnMin=11 EnMin= -576.419363092164     IErMin=11 ErrMin= 9.62D-07
 ErrMax= 9.62D-07  0.00D+00 EMaxC= 1.00D-01 BMatC= 1.08D-10 BMatP= 5.33D-10
 IDIUse=1 WtCom= 1.00D+00 WtEn= 0.00D+00
 Coeff-Com: -0.344D-05-0.547D-04-0.465D-04 0.396D-03 0.164D-02 0.162D-02
 Coeff-Com: -0.125D-02-0.300D-01-0.792D-01 0.215D+00 0.892D+00
 Coeff:     -0.344D-05-0.547D-04-0.465D-04 0.396D-03 0.164D-02 0.162D-02
 Coeff:     -0.125D-02-0.300D-01-0.792D-01 0.215D+00 0.892D+00
 Gap=     0.323 Goal=   None    Shift=    0.000
 RMSDP=5.69D-07 MaxDP=4.10D-05 DE=-2.47D-09 OVMax= 1.57D-05

 Cycle  12  Pass 1  IDiag  1:
 RMSU=  3.53D-07    CP:  6.23D-01  8.28D-01  6.99D-01  1.07D+00  7.54D-01
                    CP:  1.10D+00  1.06D+00  1.46D+00  1.46D+00  1.27D+00
                    CP:  1.23D+00
 E= -576.419363092618     Delta-E=       -0.000000000454 Rises=F Damp=F
 DIIS: error= 4.95D-07 at cycle  12 NSaved=  12.
 NSaved=12 IEnMin=12 EnMin= -576.419363092618     IErMin=12 ErrMin= 4.95D-07
 ErrMax= 4.95D-07  0.00D+00 EMaxC= 1.00D-01 BMatC= 2.10D-11 BMatP= 1.08D-10
 IDIUse=1 WtCom= 1.00D+00 WtEn= 0.00D+00
 Coeff-Com:  0.176D-06-0.613D-05-0.125D-04-0.260D-03-0.948D-03-0.288D-03
 Coeff-Com:  0.726D-02 0.140D-01-0.239D-01-0.223D+00 0.160D+00 0.107D+01
 Coeff:      0.176D-06-0.613D-05-0.125D-04-0.260D-03-0.948D-03-0.288D-03
 Coeff:      0.726D-02 0.140D-01-0.239D-01-0.223D+00 0.160D+00 0.107D+01
 Gap=     0.323 Goal=   None    Shift=    0.000
 RMSDP=2.88D-07 MaxDP=1.92D-05 DE=-4.54D-10 OVMax= 1.01D-05

 Cycle  13  Pass 1  IDiag  1:
 RMSU=  1.17D-07    CP:  6.23D-01  8.28D-01  6.99D-01  1.07D+00  7.54D-01
                    CP:  1.10D+00  1.06D+00  1.45D+00  1.47D+00  1.28D+00
                    CP:  1.38D+00  1.47D+00
 E= -576.419363092765     Delta-E=       -0.000000000147 Rises=F Damp=F
 DIIS: error= 1.77D-07 at cycle  13 NSaved=  13.
 NSaved=13 IEnMin=13 EnMin= -576.419363092765     IErMin=13 ErrMin= 1.77D-07
 ErrMax= 1.77D-07  0.00D+00 EMaxC= 1.00D-01 BMatC= 3.25D-12 BMatP= 2.10D-11
 IDIUse=1 WtCom= 1.00D+00 WtEn= 0.00D+00
 Coeff-Com:  0.468D-06 0.586D-05 0.500D-05-0.121D-03-0.422D-03-0.316D-03
 Coeff-Com:  0.158D-02 0.681D-02 0.428D-02-0.780D-01-0.837D-01 0.194D+00
 Coeff-Com:  0.956D+00
 Coeff:      0.468D-06 0.586D-05 0.500D-05-0.121D-03-0.422D-03-0.316D-03
 Coeff:      0.158D-02 0.681D-02 0.428D-02-0.780D-01-0.837D-01 0.194D+00
 Coeff:      0.956D+00
 Gap=     0.323 Goal=   None    Shift=    0.000
 RMSDP=1.12D-07 MaxDP=7.62D-06 DE=-1.47D-10 OVMax= 3.79D-06

 Cycle  14  Pass 1  IDiag  1:
 RMSU=  3.90D-08    CP:  6.23D-01  8.28D-01  6.99D-01  1.07D+00  7.54D-01
                    CP:  1.10D+00  1.06D+00  1.45D+00  1.47D+00  1.27D+00
                    CP:  1.42D+00  1.61D+00  1.48D+00
 E= -576.419363092789     Delta-E=       -0.000000000023 Rises=F Damp=F
 DIIS: error= 4.73D-08 at cycle  14 NSaved=  14.
 NSaved=14 IEnMin=14 EnMin= -576.419363092789     IErMin=14 ErrMin= 4.73D-08
 ErrMax= 4.73D-08  0.00D+00 EMaxC= 1.00D-01 BMatC= 6.26D-13 BMatP= 3.25D-12
 IDIUse=1 WtCom= 1.00D+00 WtEn= 0.00D+00
 Coeff-Com:  0.396D-07 0.182D-05 0.340D-05 0.148D-04 0.860D-04-0.151D-05
 Coeff-Com: -0.873D-03-0.100D-02 0.456D-02 0.226D-01-0.345D-01-0.166D+00
 Coeff-Com:  0.216D+00 0.959D+00
 Coeff:      0.396D-07 0.182D-05 0.340D-05 0.148D-04 0.860D-04-0.151D-05
 Coeff:     -0.873D-03-0.100D-02 0.456D-02 0.226D-01-0.345D-01-0.166D+00
 Coeff:      0.216D+00 0.959D+00
 Gap=     0.323 Goal=   None    Shift=    0.000
 RMSDP=7.15D-08 MaxDP=7.68D-06 DE=-2.32D-11 OVMax= 1.30D-06

 Cycle  15  Pass 1  IDiag  1:
 RMSU=  1.57D-08    CP:  6.23D-01  8.28D-01  6.99D-01  1.07D+00  7.54D-01
                    CP:  1.10D+00  1.06D+00  1.45D+00  1.47D+00  1.26D+00
                    CP:  1.42D+00  1.66D+00  1.71D+00  1.18D+00
 E= -576.419363092780     Delta-E=        0.000000000009 Rises=F Damp=F
 DIIS: error= 1.55D-08 at cycle  15 NSaved=  15.
 NSaved=15 IEnMin=14 EnMin= -576.419363092789     IErMin=15 ErrMin= 1.55D-08
 ErrMax= 1.55D-08  0.00D+00 EMaxC= 1.00D-01 BMatC= 1.08D-13 BMatP= 6.26D-13
 IDIUse=1 WtCom= 1.00D+00 WtEn= 0.00D+00
 Coeff-Com: -0.346D-07 0.146D-06 0.948D-06 0.195D-04 0.857D-04 0.402D-04
 Coeff-Com: -0.530D-03-0.116D-02 0.142D-02 0.184D-01-0.241D-02-0.100D+00
 Coeff-Com: -0.103D-01 0.411D+00 0.684D+00
 Coeff:     -0.346D-07 0.146D-06 0.948D-06 0.195D-04 0.857D-04 0.402D-04
 Coeff:     -0.530D-03-0.116D-02 0.142D-02 0.184D-01-0.241D-02-0.100D+00
 Coeff:     -0.103D-01 0.411D+00 0.684D+00
 Gap=     0.323 Goal=   None    Shift=    0.000
 RMSDP=1.70D-08 MaxDP=1.88D-06 DE= 8.87D-12 OVMax= 2.80D-07

 Cycle  16  Pass 1  IDiag  1:
 RMSU=  4.15D-09    CP:  6.23D-01  8.28D-01  6.99D-01  1.07D+00  7.54D-01
                    CP:  1.10D+00  1.06D+00  1.45D+00  1.47D+00  1.26D+00
                    CP:  1.42D+00  1.68D+00  1.72D+00  1.25D+00  1.04D+00
 E= -576.419363092791     Delta-E=       -0.000000000012 Rises=F Damp=F
 DIIS: error= 6.05D-09 at cycle  16 NSaved=  16.
 NSaved=16 IEnMin=16 EnMin= -576.419363092791     IErMin=16 ErrMin= 6.05D-09
 ErrMax= 6.05D-09  0.00D+00 EMaxC= 1.00D-01 BMatC= 6.67D-15 BMatP= 1.08D-13
 IDIUse=1 WtCom= 1.00D+00 WtEn= 0.00D+00
 Coeff-Com: -0.933D-08-0.210D-06-0.345D-06 0.116D-05 0.260D-05 0.976D-05
 Coeff-Com:  0.321D-04-0.575D-04-0.520D-03-0.326D-03 0.651D-02 0.275D-02
 Coeff-Com: -0.281D-01-0.719D-01 0.118D+00 0.974D+00
 Coeff:     -0.933D-08-0.210D-06-0.345D-06 0.116D-05 0.260D-05 0.976D-05
 Coeff:      0.321D-04-0.575D-04-0.520D-03-0.326D-03 0.651D-02 0.275D-02
 Coeff:     -0.281D-01-0.719D-01 0.118D+00 0.974D+00
 Gap=     0.323 Goal=   None    Shift=    0.000
 RMSDP=5.27D-09 MaxDP=4.16D-07 DE=-1.16D-11 OVMax= 8.24D-08

 SCF Done:  E(RwB97XD) =  -576.419363093     A.U. after   16 cycles
            NFock= 16  Conv=0.53D-08     -V/T= 2.0000
 KE= 5.764318276344D+02 PE=-2.910333663623D+03 EE= 9.734352299679D+02
 Leave Link  502 at Tue Nov 22 15:02:15 2022, MaxMem= 16106127360 cpu:            1280.7 elap:              40.4
 (Enter /opt/ap/G16/B01/g16/l601.exe)
 Copying SCF densities to generalized density rwf, IOpCl= 0 IROHF=0.

 **********************************************************************

            Population analysis using the SCF Density.

 **********************************************************************

 Orbital symmetries:
       Occupied  (A) (A) (A) (A) (A) (A) (A) (A) (A) (A) (A) (A)
                 (A) (A) (A) (A) (A) (A) (A) (A) (A) (A) (A) (A)
                 (A) (A) (A) (A) (A) (A) (A) (A) (A) (A) (A) (A)
                 (A) (A) (A) (A) (A) (A) (A) (A) (A) (A) (A) (A)
       Virtual   (A) (A) (A) (A) (A) (A) (A) (A) (A) (A) (A) (A)
                 (A) (A) (A) (A) (A) (A) (A) (A) (A) (A) (A) (A)
                 (A) (A) (A) (A) (A) (A) (A) (A) (A) (A) (A) (A)
                 (A) (A) (A) (A) (A) (A) (A) (A) (A) (A) (A) (A)
                 (A) (A) (A) (A) (A) (A) (A) (A) (A) (A) (A) (A)
                 (A) (A) (A) (A) (A) (A) (A) (A) (A) (A) (A) (A)
                 (A) (A) (A) (A) (A) (A) (A) (A) (A) (A) (A) (A)
                 (A) (A) (A) (A) (A) (A) (A) (A) (A) (A) (A) (A)
                 (A) (A) (A) (A) (A) (A) (A) (A) (A) (A) (A) (A)
                 (A) (A) (A) (A) (A) (A) (A) (A) (A) (A) (A) (A)
                 (A) (A) (A) (A) (A) (A) (A) (A) (A) (A) (A) (A)
                 (A) (A) (A) (A) (A) (A) (A) (A) (A) (A) (A) (A)
                 (A) (A) (A) (A) (A) (A) (A) (A) (A) (A) (A) (A)
                 (A) (A) (A) (A) (A) (A) (A) (A) (A) (A) (A) (A)
                 (A) (A) (A) (A) (A) (A) (A) (A) (A) (A) (A) (A)
                 (A) (A) (A) (A) (A) (A) (A) (A) (A) (A) (A) (A)
                 (A) (A) (A) (A) (A) (A) (A) (A) (A) (A) (A) (A)
                 (A) (A) (A) (A) (A) (A) (A) (A) (A) (A) (A) (A)
                 (A) (A) (A) (A) (A) (A) (A) (A) (A) (A) (A) (A)
                 (A) (A) (A) (A) (A) (A) (A) (A) (A) (A) (A) (A)
                 (A) (A) (A) (A) (A) (A) (A) (A) (A) (A) (A) (A)
                 (A) (A) (A) (A) (A) (A) (A) (A) (A) (A) (A) (A)
                 (A) (A) (A) (A) (A) (A) (A) (A) (A) (A) (A) (A)
                 (A) (A) (A) (A) (A) (A) (A) (A) (A) (A) (A) (A)
                 (A) (A) (A) (A) (A) (A) (A) (A) (A) (A) (A) (A)
                 (A) (A) (A) (A) (A) (A) (A) (A) (A) (A) (A) (A)
                 (A) (A) (A) (A) (A) (A) (A) (A) (A) (A) (A) (A)
                 (A) (A) (A) (A)
 The electronic state is 1-A.
 Alpha  occ. eigenvalues --  -19.23557 -10.38075 -10.30468 -10.30443 -10.28967
 Alpha  occ. eigenvalues --  -10.28943 -10.28627 -10.28573 -10.28471 -10.28439
 Alpha  occ. eigenvalues --  -10.28389 -10.28372 -10.28212 -10.28152  -1.14729
 Alpha  occ. eigenvalues --   -0.97969  -0.97403  -0.89253  -0.87344  -0.87321
 Alpha  occ. eigenvalues --   -0.86692  -0.76818  -0.73941  -0.73598  -0.72375
 Alpha  occ. eigenvalues --   -0.67976  -0.65275  -0.63405  -0.59949  -0.56873
 Alpha  occ. eigenvalues --   -0.56056  -0.56026  -0.54157  -0.53816  -0.53516
 Alpha  occ. eigenvalues --   -0.51879  -0.50050  -0.47349  -0.46712  -0.46065
 Alpha  occ. eigenvalues --   -0.45235  -0.44871  -0.44317  -0.34978  -0.34467
 Alpha  occ. eigenvalues --   -0.34416  -0.34106  -0.33372
 Alpha virt. eigenvalues --   -0.01064   0.03611   0.03776   0.04309   0.04554
 Alpha virt. eigenvalues --    0.04717   0.05064   0.05612   0.06050   0.06914
 Alpha virt. eigenvalues --    0.07622   0.08040   0.08841   0.09865   0.11490
 Alpha virt. eigenvalues --    0.11781   0.11893   0.12736   0.13418   0.14153
 Alpha virt. eigenvalues --    0.15012   0.15193   0.15748   0.16120   0.16755
 Alpha virt. eigenvalues --    0.16907   0.17240   0.17449   0.17923   0.18084
 Alpha virt. eigenvalues --    0.18214   0.18737   0.18844   0.19121   0.19550
 Alpha virt. eigenvalues --    0.19915   0.20467   0.20671   0.21109   0.21553
 Alpha virt. eigenvalues --    0.21622   0.21959   0.22147   0.23019   0.23835
 Alpha virt. eigenvalues --    0.24345   0.24907   0.25088   0.26093   0.26455
 Alpha virt. eigenvalues --    0.26610   0.27119   0.27679   0.28073   0.29026
 Alpha virt. eigenvalues --    0.29814   0.30050   0.30090   0.30709   0.30845
 Alpha virt. eigenvalues --    0.31543   0.32414   0.32748   0.32852   0.33219
 Alpha virt. eigenvalues --    0.33887   0.34207   0.34725   0.35750   0.36158
 Alpha virt. eigenvalues --    0.36765   0.37383   0.37799   0.38621   0.38734
 Alpha virt. eigenvalues --    0.39202   0.40672   0.40856   0.41540   0.41694
 Alpha virt. eigenvalues --    0.42178   0.42373   0.43144   0.43867   0.44478
 Alpha virt. eigenvalues --    0.44612   0.45621   0.46216   0.49491   0.50079
 Alpha virt. eigenvalues --    0.52313   0.57101   0.57347   0.58428   0.60064
 Alpha virt. eigenvalues --    0.61263   0.61624   0.62739   0.63413   0.63624
 Alpha virt. eigenvalues --    0.64438   0.64683   0.65171   0.65430   0.66533
 Alpha virt. eigenvalues --    0.66861   0.67561   0.68437   0.69878   0.70783
 Alpha virt. eigenvalues --    0.71207   0.71795   0.73085   0.74135   0.74612
 Alpha virt. eigenvalues --    0.74849   0.76674   0.77338   0.77760   0.78800
 Alpha virt. eigenvalues --    0.80356   0.81465   0.81686   0.82225   0.83135
 Alpha virt. eigenvalues --    0.84045   0.84968   0.85086   0.86088   0.88177
 Alpha virt. eigenvalues --    0.88919   0.90190   0.92365   0.92613   0.93546
 Alpha virt. eigenvalues --    0.94373   0.95067   0.95304   0.95753   0.96581
 Alpha virt. eigenvalues --    0.96986   0.99116   1.00109   1.00568   1.01481
 Alpha virt. eigenvalues --    1.01850   1.02507   1.04008   1.04841   1.05730
 Alpha virt. eigenvalues --    1.08025   1.09045   1.11570   1.12582   1.12859
 Alpha virt. eigenvalues --    1.13995   1.16714   1.16935   1.17918   1.19116
 Alpha virt. eigenvalues --    1.19793   1.20979   1.22184   1.25381   1.25522
 Alpha virt. eigenvalues --    1.26005   1.28946   1.30522   1.32997   1.38039
 Alpha virt. eigenvalues --    1.40379   1.44412   1.44461   1.46596   1.55690
 Alpha virt. eigenvalues --    1.56859   1.57563   1.58472   1.60813   1.61159
 Alpha virt. eigenvalues --    1.61959   1.63033   1.63973   1.66234   1.66433
 Alpha virt. eigenvalues --    1.68397   1.68496   1.68677   1.70185   1.73455
 Alpha virt. eigenvalues --    1.75032   1.76246   1.76435   1.78528   1.78894
 Alpha virt. eigenvalues --    1.79239   1.80760   1.86740   1.87631   1.88714
 Alpha virt. eigenvalues --    1.90133   1.91453   1.92493   1.92799   1.94665
 Alpha virt. eigenvalues --    1.95534   1.96035   1.97292   2.00496   2.01030
 Alpha virt. eigenvalues --    2.01961   2.02670   2.05064   2.05679   2.05926
 Alpha virt. eigenvalues --    2.06267   2.06603   2.09131   2.10241   2.11274
 Alpha virt. eigenvalues --    2.14672   2.15499   2.16332   2.17465   2.21421
 Alpha virt. eigenvalues --    2.25694   2.26882   2.27649   2.28844   2.30097
 Alpha virt. eigenvalues --    2.32722   2.42212   2.43716   2.47755   2.47811
 Alpha virt. eigenvalues --    2.49355   2.50418   2.50935   2.51184   2.51758
 Alpha virt. eigenvalues --    2.58371   2.60406   2.61946   2.67411   2.69199
 Alpha virt. eigenvalues --    2.71041   2.78207   2.80165   2.82087   2.82587
 Alpha virt. eigenvalues --    2.83150   2.84329   2.87140   2.87899   2.88116
 Alpha virt. eigenvalues --    2.90164   2.92503   2.93507   2.93947   2.96559
 Alpha virt. eigenvalues --    2.97059   2.97838   2.98652   3.00234   3.00466
 Alpha virt. eigenvalues --    3.00842   3.01203   3.02291   3.03829   3.05018
 Alpha virt. eigenvalues --    3.06853   3.07900   3.12208   3.13812   3.14377
 Alpha virt. eigenvalues --    3.19859   3.20600   3.22887   3.24843   3.26063
 Alpha virt. eigenvalues --    3.27688   3.32331   3.33498   3.39635   3.45287
 Alpha virt. eigenvalues --    3.49382   3.49847   3.51691   3.52569   3.65728
 Alpha virt. eigenvalues --    3.69526   3.69855   3.72588   3.75219   3.76590
 Alpha virt. eigenvalues --    3.83371   3.88785   3.91909   3.96289   4.32335
 Alpha virt. eigenvalues --    4.36717   4.38025   4.39553   4.40745   4.42804
 Alpha virt. eigenvalues --    4.44815   4.51472   4.51991   4.62292   4.94525
 Alpha virt. eigenvalues --    4.96091   5.20302   5.36291   5.86852  23.89273
 Alpha virt. eigenvalues --   23.96536  23.99779  24.16808  24.18377  24.24172
 Alpha virt. eigenvalues --   24.24853  24.30214  24.31185  24.34053  24.34473
 Alpha virt. eigenvalues --   24.43869  24.44547  50.16106
          Condensed to atoms (all electrons):
               1          2          3          4          5          6
     1  C   17.343901   0.963193  -1.822312  -1.359000   0.018664  -7.308283
     2  C    0.963193  16.603519  -5.921643  -2.598288   0.786073  -3.852421
     3  C   -1.822312  -5.921643  11.925087   1.212626  -0.108228   2.833406
     4  C   -1.359000  -2.598288   1.212626   7.758831  -0.221600   0.948773
     5  H    0.018664   0.786073  -0.108228  -0.221600   0.560315  -0.157258
     6  C   -7.308283  -3.852421   2.833406   0.948773  -0.157258  22.176328
     7  C   -0.209453   0.431807  -0.237399  -0.407745   0.059949  -0.956088
     8  H    0.021220   0.020110   0.472667   0.010284  -0.000956   0.075434
     9  C   -0.372878   0.778945  -0.673559   0.252042  -0.006982  -0.248411
    10  H    0.049431  -0.172064   0.060380   0.472645  -0.016913   0.037142
    11  C   -1.703011  -0.195254  -1.274318  -0.326787   0.042537  -3.509124
    12  O    0.060154  -0.146808   0.089837  -0.017154  -0.001709   0.306732
    13  H   -0.024240  -0.020266  -0.081705   0.009291   0.000671   0.011315
    14  H    0.028663   0.021563  -0.012641  -0.091755   0.000269  -0.029058
    15  C   -0.434923  -0.440581  -0.302630   0.556644  -0.077426  -2.755251
    16  C    0.257372   0.609140  -0.550797  -0.058638   0.039864  -2.785056
    17  C   -0.844935   0.250182   0.234616   0.057541  -0.025893   2.504795
    18  H    0.080035  -0.061262  -0.040606   0.016466  -0.028641  -0.219784
    19  C   -0.201287   0.057182  -0.010348   0.034458   0.000730   1.057962
    20  H   -0.057640  -0.015191  -0.004562   0.000524  -0.003228  -0.010227
    21  C    0.084459  -0.020586  -0.059410   0.027261  -0.001107  -1.125707
    22  H   -0.022634   0.011965  -0.001602   0.002546  -0.002175   0.048508
    23  H   -0.001587   0.007551  -0.003158   0.000606   0.000200   0.024987
    24  H    0.005597  -0.008009   0.000818  -0.000481  -0.000743  -0.034069
               7          8          9         10         11         12
     1  C   -0.209453   0.021220  -0.372878   0.049431  -1.703011   0.060154
     2  C    0.431807   0.020110   0.778945  -0.172064  -0.195254  -0.146808
     3  C   -0.237399   0.472667  -0.673559   0.060380  -1.274318   0.089837
     4  C   -0.407745   0.010284   0.252042   0.472645  -0.326787  -0.017154
     5  H    0.059949  -0.000956  -0.006982  -0.016913   0.042537  -0.001709
     6  C   -0.956088   0.075434  -0.248411   0.037142  -3.509124   0.306732
     7  C    6.945135  -0.170280   0.349561   0.000297   0.087695   0.054785
     8  H   -0.170280   0.458219   0.006675   0.000552  -0.068890  -0.016430
     9  C    0.349561   0.006675   6.008589  -0.104895  -0.043140  -0.008703
    10  H    0.000297   0.000552  -0.104895   0.491478  -0.020037   0.000149
    11  C    0.087695  -0.068890  -0.043140  -0.020037  14.350568  -0.131669
    12  O    0.054785  -0.016430  -0.008703   0.000149  -0.131669   7.993316
    13  H    0.491419  -0.013066  -0.047046   0.000843   0.001585   0.002245
    14  H   -0.085973   0.002016   0.519332  -0.015959   0.005998  -0.000124
    15  C    0.252512  -0.029496  -0.212875   0.020570  -1.070535  -0.094825
    16  C   -0.174097   0.009502   0.077769  -0.009338  -0.173153   0.127469
    17  C   -0.044037   0.006813   0.044173   0.002282  -0.128676  -0.031159
    18  H    0.021453  -0.004389  -0.014959  -0.000604  -0.046636  -0.001360
    19  C   -0.044831   0.003602   0.017973  -0.001683  -0.650675   0.017261
    20  H    0.004627  -0.000673  -0.002111   0.000179   0.102450  -0.011658
    21  C    0.019071  -0.002056  -0.016518   0.002173  -0.701410   0.009174
    22  H   -0.002930   0.000198   0.003050  -0.000046   0.064608  -0.000285
    23  H   -0.000929   0.000039   0.000521  -0.000064  -0.009487   0.000442
    24  H    0.000574  -0.000078  -0.000489   0.000064   0.023359   0.000160
              13         14         15         16         17         18
     1  C   -0.024240   0.028663  -0.434923   0.257372  -0.844935   0.080035
     2  C   -0.020266   0.021563  -0.440581   0.609140   0.250182  -0.061262
     3  C   -0.081705  -0.012641  -0.302630  -0.550797   0.234616  -0.040606
     4  C    0.009291  -0.091755   0.556644  -0.058638   0.057541   0.016466
     5  H    0.000671   0.000269  -0.077426   0.039864  -0.025893  -0.028641
     6  C    0.011315  -0.029058  -2.755251  -2.785056   2.504795  -0.219784
     7  C    0.491419  -0.085973   0.252512  -0.174097  -0.044037   0.021453
     8  H   -0.013066   0.002016  -0.029496   0.009502   0.006813  -0.004389
     9  C   -0.047046   0.519332  -0.212875   0.077769   0.044173  -0.014959
    10  H    0.000843  -0.015959   0.020570  -0.009338   0.002282  -0.000604
    11  C    0.001585   0.005998  -1.070535  -0.173153  -0.128676  -0.046636
    12  O    0.002245  -0.000124  -0.094825   0.127469  -0.031159  -0.001360
    13  H    0.479295  -0.016372   0.009647  -0.005500  -0.000811   0.000785
    14  H   -0.016372   0.501278  -0.012380   0.003977   0.000049  -0.000851
    15  C    0.009647  -0.012380  17.473747  -2.388035  -4.769249   0.829402
    16  C   -0.005500   0.003977  -2.388035  10.625041  -0.322958   0.022317
    17  C   -0.000811   0.000049  -4.769249  -0.322958   9.385997  -0.295670
    18  H    0.000785  -0.000851   0.829402   0.022317  -0.295670   0.550604
    19  C   -0.000974   0.000437  -1.781050   0.316530   0.777200  -0.018724
    20  H    0.000093  -0.000095   0.092234   0.347773  -0.015795   0.001062
    21  C    0.000435  -0.000441   2.378827  -0.055317  -1.051228   0.051011
    22  H   -0.000062   0.000072  -0.219967   0.010097   0.549651  -0.017320
    23  H   -0.000016   0.000013  -0.068634  -0.080267   0.043613   0.000427
    24  H    0.000010  -0.000011   0.043548  -0.013900  -0.080535   0.000872
              19         20         21         22         23         24
     1  C   -0.201287  -0.057640   0.084459  -0.022634  -0.001587   0.005597
     2  C    0.057182  -0.015191  -0.020586   0.011965   0.007551  -0.008009
     3  C   -0.010348  -0.004562  -0.059410  -0.001602  -0.003158   0.000818
     4  C    0.034458   0.000524   0.027261   0.002546   0.000606  -0.000481
     5  H    0.000730  -0.003228  -0.001107  -0.002175   0.000200  -0.000743
     6  C    1.057962  -0.010227  -1.125707   0.048508   0.024987  -0.034069
     7  C   -0.044831   0.004627   0.019071  -0.002930  -0.000929   0.000574
     8  H    0.003602  -0.000673  -0.002056   0.000198   0.000039  -0.000078
     9  C    0.017973  -0.002111  -0.016518   0.003050   0.000521  -0.000489
    10  H   -0.001683   0.000179   0.002173  -0.000046  -0.000064   0.000064
    11  C   -0.650675   0.102450  -0.701410   0.064608  -0.009487   0.023359
    12  O    0.017261  -0.011658   0.009174  -0.000285   0.000442   0.000160
    13  H   -0.000974   0.000093   0.000435  -0.000062  -0.000016   0.000010
    14  H    0.000437  -0.000095  -0.000441   0.000072   0.000013  -0.000011
    15  C   -1.781050   0.092234   2.378827  -0.219967  -0.068634   0.043548
    16  C    0.316530   0.347773  -0.055317   0.010097  -0.080267  -0.013900
    17  C    0.777200  -0.015795  -1.051228   0.549651   0.043613  -0.080535
    18  H   -0.018724   0.001062   0.051011  -0.017320   0.000427   0.000872
    19  C    6.383861  -0.108950  -0.004872   0.030585   0.507014  -0.057117
    20  H   -0.108950   0.456698   0.006115   0.000053  -0.014615   0.001831
    21  C   -0.004872   0.006115   6.546462  -0.135117  -0.076964   0.473650
    22  H    0.030585   0.000053  -0.135117   0.493908   0.001201  -0.013341
    23  H    0.507014  -0.014615  -0.076964   0.001201   0.487246  -0.014281
    24  H   -0.057117   0.001831   0.473650  -0.013341  -0.014281   0.483760
 Mulliken charges:
               1
     1  C    1.449493
     2  C   -1.088858
     3  C    0.275481
     4  C   -0.279089
     5  H    0.143587
     6  C   -1.034647
     7  C   -0.385123
     8  H    0.218982
     9  C   -0.306065
    10  H    0.203419
    11  C    1.374004
    12  O   -0.199840
    13  H    0.202423
    14  H    0.181992
    15  C   -0.999275
    16  C    0.170207
    17  C   -0.245967
    18  H    0.176371
    19  C   -0.324285
    20  H    0.231104
    21  C   -0.347905
    22  H    0.199038
    23  H    0.196140
    24  H    0.188812
 Sum of Mulliken charges =  -0.00000
 Mulliken charges with hydrogens summed into heavy atoms:
               1
     1  C    1.449493
     2  C   -0.945270
     3  C    0.494464
     4  C   -0.075670
     6  C   -1.034647
     7  C   -0.182700
     9  C   -0.124073
    11  C    1.374004
    12  O   -0.199840
    15  C   -0.822904
    16  C    0.401310
    17  C   -0.046929
    19  C   -0.128145
    21  C   -0.159093
 Electronic spatial extent (au):  <R**2>=           3059.4328
 Charge=              0.0000 electrons
 Dipole moment (field-independent basis, Debye):
    X=              0.0574    Y=             -3.2450    Z=             -0.1957  Tot=              3.2515
 Quadrupole moment (field-independent basis, Debye-Ang):
   XX=            -63.2064   YY=            -81.5192   ZZ=            -82.8733
   XY=              0.3083   XZ=              1.9921   YZ=             -0.9658
 Traceless Quadrupole moment (field-independent basis, Debye-Ang):
   XX=             12.6599   YY=             -5.6528   ZZ=             -7.0070
   XY=              0.3083   XZ=              1.9921   YZ=             -0.9658
 Octapole moment (field-independent basis, Debye-Ang**2):
  XXX=              2.3855  YYY=            -23.3274  ZZZ=              0.7313  XYY=              1.2900
  XXY=             -3.0789  XXZ=             -3.9522  XZZ=             -1.6963  YZZ=              3.9774
  YYZ=             -1.2646  XYZ=             14.9422
 Hexadecapole moment (field-independent basis, Debye-Ang**3):
 XXXX=          -2836.2590 YYYY=           -766.1286 ZZZZ=           -182.5064 XXXY=              9.0226
 XXXZ=             49.8156 YYYX=             -0.0136 YYYZ=             -3.6772 ZZZX=              4.2427
 ZZZY=             -1.2349 XXYY=           -606.6029 XXZZ=           -612.5410 YYZZ=           -146.9513
 XXYZ=             -2.2454 YYXZ=             -6.3305 ZZXY=             -0.8600
 N-N= 7.840472429280D+02 E-N=-2.910333663903D+03  KE= 5.764318276344D+02
 No NMR shielding tensors so no spin-rotation constants.
 Leave Link  601 at Tue Nov 22 15:02:15 2022, MaxMem= 16106127360 cpu:               4.8 elap:               0.2
 (Enter /opt/ap/G16/B01/g16/l9999.exe)
 1\1\GINC-N18\SP\RwB97XD\6-311++G(d,p)\C13H10O1\ROOT\22-Nov-2022\0\\#P 
 wB97XD/6-311++G(d,p) scf=maxcycle=512\\_conf022.gjf nmol_natom 1_24\\0
 ,1\C\C,1,1.39746343\C,1,1.39996263,2,119.28066518\C,2,1.39288453,1,120
 .37436646,3,-0.51002981,0\H,2,0.95014703,1,119.82324024,3,179.45634896
 ,0\C,1,1.49653039,2,122.77761373,4,174.46828757,0\C,3,1.3870125,1,120.
 10017821,2,-0.37315804,0\H,3,0.9501092,1,119.95246451,2,179.5923884,0\
 C,7,1.38720039,3,120.16568731,1,1.0745106,0\H,4,0.95011919,2,120.18755
 644,1,-179.31195299,0\C,6,1.49516902,1,120.70972921,2,20.,0\O,6,1.2215
 0059,1,119.67074267,2,-160.,0\H,7,0.94956661,3,119.91274826,1,-178.886
 36029,0\H,9,0.94992259,7,119.76037934,3,179.10763853,0\C,11,1.39713972
 ,6,122.62585705,1,30.97749054,0\C,11,1.40039562,6,117.74753532,1,-153.
 15467779,0\C,15,1.39455701,11,119.80747484,6,175.4763048,0\H,15,0.9496
 2854,11,120.10535689,6,-4.50802339,0\C,16,1.38466431,11,120.4617377,6,
 -176.88197195,0\H,16,0.9497464,11,119.75779177,6,3.14699974,0\C,17,1.3
 9088945,15,120.3475273,11,0.7973643,0\H,17,0.94984298,15,119.8156451,1
 1,-179.16676483,0\H,19,0.94974749,16,119.98566335,11,-178.40987425,0\H
 ,21,0.94938585,17,120.0744529,15,179.91636093,0\\Version=ES64L-G16RevB
 .01\State=1-A\HF=-576.4193631\RMSD=5.267e-09\Dipole=-0.0412461,0.35048
 17,1.2295792\Quadrupole=9.5474825,-4.767291,-4.7801915,0.0360709,0.460
 9445,0.9376583\PG=C01 [X(C13H10O1)]\\@


 REPARTEE - WHAT YOU THINK OF AFTER YOU BECOME A DEPARTEE.
 Job cpu time:       0 days  0 hours 22 minutes  9.6 seconds.
 Elapsed time:       0 days  0 hours  0 minutes 42.0 seconds.
 File lengths (MBytes):  RWF=     78 Int=      0 D2E=      0 Chk=      9 Scr=      1
 Normal termination of Gaussian 16 at Tue Nov 22 15:02:15 2022.
