 Entering Gaussian System, Link 0=g16
 Input=_conf020.gjf
 Output=_conf020.log
 Initial command:
 /opt/ap/G16/B01/g16/l1.exe "/tmp2/scr/Gau-27916.inp" -scrdir="/tmp2/scr/"
 Entering Link 1 = /opt/ap/G16/B01/g16/l1.exe PID=     27917.
  
 Copyright (c) 1988-2017, Gaussian, Inc.  All Rights Reserved.
  
 This is part of the Gaussian(R) 16 program.  It is based on
 the Gaussian(R) 09 system (copyright 2009, Gaussian, Inc.),
 the Gaussian(R) 03 system (copyright 2003, Gaussian, Inc.),
 the Gaussian(R) 98 system (copyright 1998, Gaussian, Inc.),
 the Gaussian(R) 94 system (copyright 1995, Gaussian, Inc.),
 the Gaussian 92(TM) system (copyright 1992, Gaussian, Inc.),
 the Gaussian 90(TM) system (copyright 1990, Gaussian, Inc.),
 the Gaussian 88(TM) system (copyright 1988, Gaussian, Inc.),
 the Gaussian 86(TM) system (copyright 1986, Carnegie Mellon
 University), and the Gaussian 82(TM) system (copyright 1983,
 Carnegie Mellon University). Gaussian is a federally registered
 trademark of Gaussian, Inc.
  
 This software contains proprietary and confidential information,
 including trade secrets, belonging to Gaussian, Inc.
  
 This software is provided under written license and may be
 used, copied, transmitted, or stored only in accord with that
 written license.
  
 The following legend is applicable only to US Government
 contracts under FAR:
  
                    RESTRICTED RIGHTS LEGEND
  
 Use, reproduction and disclosure by the US Government is
 subject to restrictions as set forth in subparagraphs (a)
 and (c) of the Commercial Computer Software - Restricted
 Rights clause in FAR 52.227-19.
  
 Gaussian, Inc.
 340 Quinnipiac St., Bldg. 40, Wallingford CT 06492
  
  
 ---------------------------------------------------------------
 Warning -- This program may not be used in any manner that
 competes with the business of Gaussian, Inc. or will provide
 assistance to any competitor of Gaussian, Inc.  The licensee
 of this program is prohibited from giving any competitor of
 Gaussian, Inc. access to this program.  By using this program,
 the user acknowledges that Gaussian, Inc. is engaged in the
 business of creating and licensing software in the field of
 computational chemistry and represents and warrants to the
 licensee that it is not a competitor of Gaussian, Inc. and that
 it will not use this program in any manner prohibited above.
 ---------------------------------------------------------------
  

 Cite this work as:
 Gaussian 16, Revision B.01,
 M. J. Frisch, G. W. Trucks, H. B. Schlegel, G. E. Scuseria, 
 M. A. Robb, J. R. Cheeseman, G. Scalmani, V. Barone, 
 G. A. Petersson, H. Nakatsuji, X. Li, M. Caricato, A. V. Marenich, 
 J. Bloino, B. G. Janesko, R. Gomperts, B. Mennucci, H. P. Hratchian, 
 J. V. Ortiz, A. F. Izmaylov, J. L. Sonnenberg, D. Williams-Young, 
 F. Ding, F. Lipparini, F. Egidi, J. Goings, B. Peng, A. Petrone, 
 T. Henderson, D. Ranasinghe, V. G. Zakrzewski, J. Gao, N. Rega, 
 G. Zheng, W. Liang, M. Hada, M. Ehara, K. Toyota, R. Fukuda, 
 J. Hasegawa, M. Ishida, T. Nakajima, Y. Honda, O. Kitao, H. Nakai, 
 T. Vreven, K. Throssell, J. A. Montgomery, Jr., J. E. Peralta, 
 F. Ogliaro, M. J. Bearpark, J. J. Heyd, E. N. Brothers, K. N. Kudin, 
 V. N. Staroverov, T. A. Keith, R. Kobayashi, J. Normand, 
 K. Raghavachari, A. P. Rendell, J. C. Burant, S. S. Iyengar, 
 J. Tomasi, M. Cossi, J. M. Millam, M. Klene, C. Adamo, R. Cammi, 
 J. W. Ochterski, R. L. Martin, K. Morokuma, O. Farkas, 
 J. B. Foresman, and D. J. Fox, Gaussian, Inc., Wallingford CT, 2016.
 
 ******************************************
 Gaussian 16:  ES64L-G16RevB.01 20-Dec-2017
                22-Nov-2022 
 ******************************************
 %nprocshared=32
 Will use up to   32 processors via shared memory.
 %mem=120GB
 %chk=_conf020.chk
 ----------------------------------------
 #P wB97XD/6-311++G(d,p) scf=maxcycle=512
 ----------------------------------------
 1/38=1,172=1/1;
 2/12=2,17=6,18=5,40=1/2;
 3/5=4,6=6,7=1111,11=2,25=1,30=1,74=-58/1,2,3;
 4//1;
 5/5=2,7=512,38=5/2;
 6/7=2,8=2,9=2,10=2,28=1/1;
 99/5=1,9=1/99;
 Leave Link    1 at Tue Nov 22 15:01:41 2022, MaxMem= 16106127360 cpu:               1.8 elap:               0.1
 (Enter /opt/ap/G16/B01/g16/l101.exe)
 ----------------------------
 _conf020.gjf nmol_natom 1_24
 ----------------------------
 Symbolic Z-matrix:
 Charge =  0 Multiplicity = 1
 C
 C                    1     1.39746 
 C                    1     1.39996  2     119.28067 
 C                    2     1.39288  1     120.37437  3    -0.51003  0
 H                    2     0.95015  1     119.82324  3     179.45635  0
 C                    1     1.49653  2     122.77761  4     174.46829  0
 C                    3     1.38701  1     120.10018  2    -0.37316  0
 H                    3     0.95011  1     119.95246  2     179.59239  0
 C                    7     1.3872   3     120.16569  1     1.07451  0
 H                    4     0.95012  2     120.18756  1    -179.31195  0
 C                    6     1.49517  1     120.70973  2     10.      0
 O                    6     1.2215   1     119.67074  2    -170.     0
 H                    7     0.94957  3     119.91275  1    -178.88636  0
 H                    9     0.94992  7     119.76038  3     179.10764  0
 C                    11    1.39714  6     122.62586  1     30.97749  0
 C                    11    1.4004   6     117.74754  1    -153.15468  0
 C                    15    1.39456  11    119.80747  6     175.4763  0
 H                    15    0.94963  11    120.10536  6    -4.50802  0
 C                    16    1.38466  11    120.46174  6    -176.88197  0
 H                    16    0.94975  11    119.75779  6     3.147    0
 C                    17    1.39089  15    120.34753  11    0.79736  0
 H                    17    0.94984  15    119.81565  11   -179.16676  0
 H                    19    0.94975  16    119.98566  11   -178.40987  0
 H                    21    0.94939  17    120.07445  15    179.91636  0
 
 ITRead=  0  0  0  0  0  0  0  0  0  0  0  0  0  0  0  0  0  0  0  0
 ITRead=  0  0  0  0
 MicOpt= -1 -1 -1 -1 -1 -1 -1 -1 -1 -1 -1 -1 -1 -1 -1 -1 -1 -1 -1 -1
 MicOpt= -1 -1 -1 -1
 NAtoms=     24 NQM=       24 NQMF=       0 NMMI=      0 NMMIF=      0
                NMic=       0 NMicF=      0.
                    Isotopes and Nuclear Properties:
 (Nuclear quadrupole moments (NQMom) in fm**2, nuclear magnetic moments (NMagM)
  in nuclear magnetons)

  Atom         1           2           3           4           5           6           7           8           9          10
 IAtWgt=          12          12          12          12           1          12          12           1          12           1
 AtmWgt=  12.0000000  12.0000000  12.0000000  12.0000000   1.0078250  12.0000000  12.0000000   1.0078250  12.0000000   1.0078250
 NucSpn=           0           0           0           0           1           0           0           1           0           1
 AtZEff=  -0.0000000  -0.0000000  -0.0000000  -0.0000000  -0.0000000  -0.0000000  -0.0000000  -0.0000000  -0.0000000  -0.0000000
 NQMom=    0.0000000   0.0000000   0.0000000   0.0000000   0.0000000   0.0000000   0.0000000   0.0000000   0.0000000   0.0000000
 NMagM=    0.0000000   0.0000000   0.0000000   0.0000000   2.7928460   0.0000000   0.0000000   2.7928460   0.0000000   2.7928460
 AtZNuc=   6.0000000   6.0000000   6.0000000   6.0000000   1.0000000   6.0000000   6.0000000   1.0000000   6.0000000   1.0000000

  Atom        11          12          13          14          15          16          17          18          19          20
 IAtWgt=          12          16           1           1          12          12          12           1          12           1
 AtmWgt=  12.0000000  15.9949146   1.0078250   1.0078250  12.0000000  12.0000000  12.0000000   1.0078250  12.0000000   1.0078250
 NucSpn=           0           0           1           1           0           0           0           1           0           1
 AtZEff=  -0.0000000  -0.0000000  -0.0000000  -0.0000000  -0.0000000  -0.0000000  -0.0000000  -0.0000000  -0.0000000  -0.0000000
 NQMom=    0.0000000   0.0000000   0.0000000   0.0000000   0.0000000   0.0000000   0.0000000   0.0000000   0.0000000   0.0000000
 NMagM=    0.0000000   0.0000000   2.7928460   2.7928460   0.0000000   0.0000000   0.0000000   2.7928460   0.0000000   2.7928460
 AtZNuc=   6.0000000   8.0000000   1.0000000   1.0000000   6.0000000   6.0000000   6.0000000   1.0000000   6.0000000   1.0000000

  Atom        21          22          23          24
 IAtWgt=          12           1           1           1
 AtmWgt=  12.0000000   1.0078250   1.0078250   1.0078250
 NucSpn=           0           1           1           1
 AtZEff=  -0.0000000  -0.0000000  -0.0000000  -0.0000000
 NQMom=    0.0000000   0.0000000   0.0000000   0.0000000
 NMagM=    0.0000000   2.7928460   2.7928460   2.7928460
 AtZNuc=   6.0000000   1.0000000   1.0000000   1.0000000
 Leave Link  101 at Tue Nov 22 15:01:41 2022, MaxMem= 16106127360 cpu:               5.3 elap:               0.2
 (Enter /opt/ap/G16/B01/g16/l202.exe)
                          Input orientation:                          
 ---------------------------------------------------------------------
 Center     Atomic      Atomic             Coordinates (Angstroms)
 Number     Number       Type             X           Y           Z
 ---------------------------------------------------------------------
      1          6           0        0.000000    0.000000    0.000000
      2          6           0        0.000000    0.000000    1.397463
      3          6           0        1.221096    0.000000   -0.684705
      4          6           0        1.201650   -0.010697    2.101772
      5          1           0       -0.824276    0.007821    1.869996
      6          6           0       -1.253421   -0.110138   -0.810191
      7          6           0        2.414707    0.007815    0.021719
      8          1           0        1.232246   -0.005856   -1.634731
      9          6           0        2.403895   -0.006831    1.408800
     10          1           0        1.198494   -0.020531    3.051836
     11          6           0       -2.595223   -0.003958   -0.159175
     12          8           0       -1.180035   -0.288700   -2.016340
     13          1           0        3.241298    0.023792   -0.445367
     14          1           0        3.224827   -0.014217    1.886678
     15          6           0       -2.821707    0.777582    0.976562
     16          6           0       -3.672273   -0.652619   -0.775867
     17          6           0       -4.115333    0.909773    1.480395
     18          1           0       -2.096984    1.217733    1.404158
     19          6           0       -4.950962   -0.538182   -0.257066
     20          1           0       -3.524389   -1.174976   -1.555156
     21          6           0       -5.178381    0.254438    0.867992
     22          1           0       -4.271197    1.450628    2.245499
     23          1           0       -5.672764   -0.999210   -0.667523
     24          1           0       -6.057316    0.346200    1.214961
 ---------------------------------------------------------------------
                    Distance matrix (angstroms):
                    1          2          3          4          5
     1  C    0.000000
     2  C    1.397463   0.000000
     3  C    1.399963   2.413814   0.000000
     4  C    2.421058   1.392885   2.786566   0.000000
     5  H    2.043619   0.950147   3.272630   2.039225   0.000000
     6  C    1.496530   2.541049   2.480142   3.810091   2.716889
     7  C    2.414817   2.779127   1.387013   2.408002   3.729228
     8  H    2.047146   3.273021   0.950109   3.736632   4.063567
     9  C    2.786301   2.403931   2.404542   1.387667   3.260982
    10  H    3.278797   2.042977   3.736665   0.950119   2.342893
    11  C    2.600103   3.026271   3.852335   4.419069   2.693311
    12  O    2.354029   3.623518   2.760801   4.765349   3.913834
    13  H    3.271839   3.728619   2.034469   3.263323   4.678681
    14  H    3.736210   3.261755   3.259932   2.034583   4.049198
    15  C    3.085505   2.956996   4.439448   4.251456   2.319588
    16  C    3.809655   4.316812   4.937538   5.696314   3.943078
    17  C    4.467127   4.215510   5.830336   5.431729   3.434583
    18  H    2.802120   2.424925   4.105591   3.588411   1.816777
    19  C    4.986757   5.247774   6.210218   6.610369   4.674617
    20  H    4.027455   4.745508   4.965670   6.088030   4.518992
    21  C    5.256784   5.211594   6.590061   6.503638   4.474714
    22  H    5.038821   4.589838   6.391846   5.666408   3.755524
    23  H    5.798643   6.119055   6.965918   7.476879   5.564256
    24  H    6.187654   6.069945   7.530196   7.321638   5.284721
                    6          7          8          9         10
     6  C    0.000000
     7  C    3.763130   0.000000
     8  H    2.620930   2.035246   0.000000
     9  C    4.279082   1.387200   3.261263   0.000000
    10  H    4.575496   3.265208   4.686711   2.037829   0.000000
    11  C    1.495169   5.013208   4.102046   5.239249   4.970226
    12  O    1.221501   4.142918   2.458601   4.965438   5.604972
    13  H    4.511488   0.949567   2.334899   2.034727   4.050363
    14  H    5.228480   2.033434   4.046081   0.949923   2.337447
    15  C    2.537727   5.378132   4.885403   5.301796   4.594101
    16  C    2.479176   6.174435   5.020981   6.489193   6.226975
    17  C    3.804937   6.751495   6.256116   6.583739   5.618865
    18  H    2.716281   4.871385   4.670737   4.664492   3.886942
    19  C    3.763108   7.391137   6.357152   7.559851   7.002328
    20  H    2.616515   6.257666   4.898851   6.730092   6.697965
    21  C    4.284219   7.644082   6.886763   7.606026   6.746059
    22  H    4.569487   7.192233   6.889515   6.883393   5.721189
    23  H    4.510144   8.179018   7.042826   8.398115   7.874365
    24  H    5.233249   8.562330   7.834691   8.470790   7.493689
                   11         12         13         14         15
    11  C    0.000000
    12  O    2.352211   0.000000
    13  H    5.843599   4.702530   0.000000
    14  H    6.169165   5.891663   2.332413   0.000000
    15  C    1.397140   3.576242   6.272967   6.165698   0.000000
    16  C    1.400396   2.807573   6.954439   7.420694   2.416598
    17  C    2.415332   4.720113   7.655948   7.409236   1.394557
    18  H    2.045674   3.848369   5.774382   5.483813   0.949629
    19  C    2.417537   4.168594   8.213671   8.468394   2.790484
    20  H    2.045335   2.548367   6.960114   7.664562   3.273506
    21  C    2.791872   4.959954   8.524617   8.468991   2.416481
    22  H    3.272181   5.544711   8.106430   7.646235   2.040640
    23  H    3.274172   4.744339   8.975321   9.309204   3.740125
    24  H    3.741249   5.884919   9.451182   9.313393   3.272933
                   16         17         18         19         20
    16  C    0.000000
    17  C    2.779944   0.000000
    18  H    3.276013   2.043131   0.000000
    19  C    1.384664   2.411145   3.740066   0.000000
    20  H    0.949746   3.729607   4.064490   2.031171   0.000000
    21  C    2.406945   1.390889   3.272678   1.394891   3.263520
    22  H    3.729747   0.949843   2.342925   3.268069   4.679370
    23  H    2.033181   3.268541   4.689659   0.949747   2.331159
    24  H    3.263351   2.039453   4.059507   2.042795   4.050092
                   21         22         23         24
    21  C    0.000000
    22  H    2.037493   0.000000
    23  H    2.043001   4.056081   0.000000
    24  H    0.949386   2.339229   2.345581   0.000000
 Stoichiometry    C13H10O
 Framework group  C1[X(C13H10O)]
 Deg. of freedom    66
 Full point group                 C1      NOp   1
 Largest Abelian subgroup         C1      NOp   1
 Largest concise Abelian subgroup C1      NOp   1
                         Standard orientation:                         
 ---------------------------------------------------------------------
 Center     Atomic      Atomic             Coordinates (Angstroms)
 Number     Number       Type             X           Y           Z
 ---------------------------------------------------------------------
      1          6           0       -1.306632    0.326640   -0.066523
      2          6           0       -1.387766   -1.030079    0.258492
      3          6           0       -2.485861    1.057659   -0.253404
      4          6           0       -2.628327   -1.646134    0.405501
      5          1           0       -0.592277   -1.535400    0.379442
      6          6           0       -0.009372    1.070894   -0.119496
      7          6           0       -3.718347    0.434792   -0.123720
      8          1           0       -2.441890    1.981958   -0.468914
      9          6           0       -3.788222   -0.909015    0.213365
     10          1           0       -2.680427   -2.566373    0.636095
     11          6           0        1.293304    0.341238   -0.040958
     12          8           0       -0.014273    2.287551   -0.228058
     13          1           0       -4.516240    0.929393   -0.266595
     14          1           0       -4.635548   -1.326678    0.313109
     15          6           0        1.460765   -0.956157   -0.531592
     16          6           0        2.398231    1.032945    0.470694
     17          6           0        2.724136   -1.546378   -0.513667
     18          1           0        0.716585   -1.434719   -0.876512
     19          6           0        3.645656    0.433148    0.509025
     20          1           0        2.290963    1.919504    0.793999
     21          6           0        3.814773   -0.856517    0.005155
     22          1           0        2.840366   -2.423917   -0.858077
     23          1           0        4.385729    0.900105    0.878163
     24          1           0        4.672900   -1.262500    0.016522
 ---------------------------------------------------------------------
 Rotational constants (GHZ):           1.7689569           0.4179020           0.3480695
 Leave Link  202 at Tue Nov 22 15:01:41 2022, MaxMem= 16106127360 cpu:               0.3 elap:               0.0
 (Enter /opt/ap/G16/B01/g16/l301.exe)
 Standard basis: 6-311++G(d,p) (5D, 7F)
 Ernie: Thresh=  0.10000D-02 Tol=  0.10000D-05 Strict=F.
 There are   392 symmetry adapted cartesian basis functions of A   symmetry.
 There are   378 symmetry adapted basis functions of A   symmetry.
   378 basis functions,   594 primitive gaussians,   392 cartesian basis functions
    48 alpha electrons       48 beta electrons
       nuclear repulsion energy       784.7568334882 Hartrees.
 IExCor= 4639 DFT=T Ex+Corr=wB97XD ExCW=0 ScaHFX=  1.000000
 ScaDFX=  1.000000  1.000000  1.000000  1.000000 ScalE2=  1.000000  1.000000
 IRadAn=      5 IRanWt=     -1 IRanGd=            0 ICorTp=0 IEmpDi=121
 HFx  wShort=  0.000000 wLong=  0.200000 cFull=  0.222036 cShort=  0.000000 cLong=  0.777964
 DFx  wShort=  0.000000 wLong=  0.200000 cFull=  0.000000 cShort=  0.000000 cLong=  1.000000
 NAtoms=   24 NActive=   24 NUniq=   24 SFac= 1.00D+00 NAtFMM=   60 NAOKFM=F Big=F
 Integral buffers will be    131072 words long.
 Raffenetti 2 integral format.
 Two-electron integral symmetry is turned on.
 R6Disp:  Grimme-D2 Dispersion energy=       -0.0138524755 Hartrees.
 Nuclear repulsion after empirical dispersion term =      784.7429810127 Hartrees.
 Leave Link  301 at Tue Nov 22 15:01:41 2022, MaxMem= 16106127360 cpu:               1.2 elap:               0.0
 (Enter /opt/ap/G16/B01/g16/l302.exe)
 NPDir=0 NMtPBC=     1 NCelOv=     1 NCel=       1 NClECP=     1 NCelD=      1
         NCelK=      1 NCelE2=     1 NClLst=     1 CellRange=     0.0.
 One-electron integrals computed using PRISM.
 One-electron integral symmetry used in STVInt
 NBasis=   378 RedAO= T EigKep=  2.26D-06  NBF=   378
 NBsUse=   375 1.00D-06 EigRej=  9.92D-07 NBFU=   375
 Precomputing XC quadrature grid using
 IXCGrd= 4 IRadAn=           5 IRanWt=          -1 IRanGd=           0 AccXCQ= 0.00D+00.
 Generated NRdTot=       0 NPtTot=           0 NUsed=           0 NTot=          32
 NSgBfM=   392   392   392   392   392 MxSgAt=    24 MxSgA2=    24.
 Leave Link  302 at Tue Nov 22 15:01:41 2022, MaxMem= 16106127360 cpu:               8.3 elap:               0.3
 (Enter /opt/ap/G16/B01/g16/l303.exe)
 DipDrv:  MaxL=1.
 Leave Link  303 at Tue Nov 22 15:01:42 2022, MaxMem= 16106127360 cpu:               1.6 elap:               0.1
 (Enter /opt/ap/G16/B01/g16/l401.exe)
 ExpMin= 3.60D-02 ExpMax= 8.59D+03 ExpMxC= 1.30D+03 IAcc=3 IRadAn=         5 AccDes= 0.00D+00
 Harris functional with IExCor= 4639 and IRadAn=       5 diagonalized for initial guess.
 HarFok:  IExCor= 4639 AccDes= 0.00D+00 IRadAn=         5 IDoV= 1 UseB2=F ITyADJ=14
 ICtDFT=  3500011 ScaDFX=  1.000000  1.000000  1.000000  1.000000
 FoFCou: FMM=F IPFlag=           0 FMFlag=      100000 FMFlg1=           0
         NFxFlg=           0 DoJE=T BraDBF=F KetDBF=T FulRan=T
         wScrn=  0.000000 ICntrl=       500 IOpCl=  0 I1Cent=   200000004 NGrid=           0
         NMat0=    1 NMatS0=      1 NMatT0=    0 NMatD0=    1 NMtDS0=    0 NMtDT0=    0
 Petite list used in FoFCou.
 Harris En= -550.899255586653    
 JPrj=0 DoOrth=F DoCkMO=F.
 Leave Link  401 at Tue Nov 22 15:01:42 2022, MaxMem= 16106127360 cpu:              22.8 elap:               0.7
 (Enter /opt/ap/G16/B01/g16/l502.exe)
 Integral symmetry usage will be decided dynamically.
 Closed shell SCF:
 Using DIIS extrapolation, IDIIS=  1040.
 NGot= 16106127360 LenX= 16105803762 LenY= 16105649657
 Requested convergence on RMS density matrix=1.00D-08 within 512 cycles.
 Requested convergence on MAX density matrix=1.00D-06.
 Requested convergence on             energy=1.00D-06.
 No special actions if energy rises.
 Fock matrices will be formed incrementally for  20 cycles.

 Cycle   1  Pass 1  IDiag  1:
 FoFJK:  IHMeth= 1 ICntrl=       0 DoSepK=T KAlg= 0 I1Cent=           0 FoldK=F
 IRaf=         1 NMat=       1 IRICut=       1 DoRegI=T DoRafI=F ISym2E= 0 IDoP0=0 IntGTp=1.
 FoFCou: FMM=F IPFlag=           0 FMFlag=      100000 FMFlg1=           0
         NFxFlg=           0 DoJE=T BraDBF=F KetDBF=F FulRan=T
         wScrn=  0.000000 ICntrl=       500 IOpCl=  0 I1Cent=           0 NGrid=           0
         NMat0=    1 NMatS0=      1 NMatT0=    0 NMatD0=    1 NMtDS0=    0 NMtDT0=    0
 Symmetry not used in FoFCou.
 E= -576.262582671301    
 DIIS: error= 5.47D-02 at cycle   1 NSaved=   1.
 NSaved= 1 IEnMin= 1 EnMin= -576.262582671301     IErMin= 1 ErrMin= 5.47D-02
 ErrMax= 5.47D-02  0.00D+00 EMaxC= 1.00D-01 BMatC= 1.19D+00 BMatP= 1.19D+00
 IDIUse=3 WtCom= 4.53D-01 WtEn= 5.47D-01
 Coeff-Com:  0.100D+01
 Coeff-En:   0.100D+01
 Coeff:      0.100D+01
 Gap=     0.402 Goal=   None    Shift=    0.000
 GapD=    0.402 DampG=2.000 DampE=0.500 DampFc=1.0000 IDamp=-1.
 RMSDP=2.83D-02 MaxDP=2.36D+00              OVMax= 1.36D-01

 Cycle   2  Pass 1  IDiag  1:
 RMSU=  1.17D-02    CP:  6.46D-01
 E= -576.351403874867     Delta-E=       -0.088821203565 Rises=F Damp=F
 DIIS: error= 1.62D-02 at cycle   2 NSaved=   2.
 NSaved= 2 IEnMin= 2 EnMin= -576.351403874867     IErMin= 2 ErrMin= 1.62D-02
 ErrMax= 1.62D-02  0.00D+00 EMaxC= 1.00D-01 BMatC= 7.42D-02 BMatP= 1.19D+00
 IDIUse=3 WtCom= 8.38D-01 WtEn= 1.62D-01
 Coeff-Com:  0.125D+00 0.875D+00
 Coeff-En:   0.139D+00 0.861D+00
 Coeff:      0.127D+00 0.873D+00
 Gap=     0.415 Goal=   None    Shift=    0.000
 RMSDP=6.02D-03 MaxDP=4.06D-01 DE=-8.88D-02 OVMax= 1.64D-01

 Cycle   3  Pass 1  IDiag  1:
 RMSU=  5.08D-03    CP:  6.44D-01  7.25D-01
 E= -576.366279609327     Delta-E=       -0.014875734461 Rises=F Damp=F
 DIIS: error= 1.52D-02 at cycle   3 NSaved=   3.
 NSaved= 3 IEnMin= 3 EnMin= -576.366279609327     IErMin= 3 ErrMin= 1.52D-02
 ErrMax= 1.52D-02  0.00D+00 EMaxC= 1.00D-01 BMatC= 5.60D-02 BMatP= 7.42D-02
 IDIUse=3 WtCom= 8.48D-01 WtEn= 1.52D-01
 Coeff-Com:  0.240D-01 0.468D+00 0.508D+00
 Coeff-En:   0.000D+00 0.438D+00 0.562D+00
 Coeff:      0.203D-01 0.463D+00 0.516D+00
 Gap=     0.345 Goal=   None    Shift=    0.000
 RMSDP=4.08D-03 MaxDP=2.26D-01 DE=-1.49D-02 OVMax= 6.08D-02

 Cycle   4  Pass 1  IDiag  1:
 RMSU=  1.65D-03    CP:  6.07D-01  8.04D-01  5.15D-01
 E= -576.415384368360     Delta-E=       -0.049104759033 Rises=F Damp=F
 DIIS: error= 2.58D-03 at cycle   4 NSaved=   4.
 NSaved= 4 IEnMin= 4 EnMin= -576.415384368360     IErMin= 4 ErrMin= 2.58D-03
 ErrMax= 2.58D-03  0.00D+00 EMaxC= 1.00D-01 BMatC= 9.71D-04 BMatP= 5.60D-02
 IDIUse=3 WtCom= 9.74D-01 WtEn= 2.58D-02
 Coeff-Com:  0.971D-02 0.202D+00 0.244D+00 0.544D+00
 Coeff-En:   0.000D+00 0.000D+00 0.000D+00 0.100D+01
 Coeff:      0.945D-02 0.197D+00 0.238D+00 0.555D+00
 Gap=     0.321 Goal=   None    Shift=    0.000
 RMSDP=5.67D-04 MaxDP=4.59D-02 DE=-4.91D-02 OVMax= 6.98D-03

 Cycle   5  Pass 1  IDiag  1:
 RMSU=  3.56D-04    CP:  6.09D-01  8.35D-01  5.31D-01  8.89D-01
 E= -576.416051341201     Delta-E=       -0.000666972840 Rises=F Damp=F
 DIIS: error= 7.27D-04 at cycle   5 NSaved=   5.
 NSaved= 5 IEnMin= 5 EnMin= -576.416051341201     IErMin= 5 ErrMin= 7.27D-04
 ErrMax= 7.27D-04  0.00D+00 EMaxC= 1.00D-01 BMatC= 8.61D-05 BMatP= 9.71D-04
 IDIUse=3 WtCom= 9.93D-01 WtEn= 7.27D-03
 Coeff-Com: -0.596D-03-0.873D-02-0.392D-03 0.217D+00 0.793D+00
 Coeff-En:   0.000D+00 0.000D+00 0.000D+00 0.000D+00 0.100D+01
 Coeff:     -0.592D-03-0.867D-02-0.389D-03 0.215D+00 0.794D+00
 Gap=     0.322 Goal=   None    Shift=    0.000
 RMSDP=3.97D-04 MaxDP=3.14D-02 DE=-6.67D-04 OVMax= 2.74D-03

 Cycle   6  Pass 1  IDiag  1:
 RMSU=  2.19D-04    CP:  6.06D-01  8.34D-01  5.33D-01  9.89D-01  6.35D-01
 E= -576.416118301914     Delta-E=       -0.000066960713 Rises=F Damp=F
 DIIS: error= 3.27D-04 at cycle   6 NSaved=   6.
 NSaved= 6 IEnMin= 6 EnMin= -576.416118301914     IErMin= 6 ErrMin= 3.27D-04
 ErrMax= 3.27D-04  0.00D+00 EMaxC= 1.00D-01 BMatC= 1.84D-05 BMatP= 8.61D-05
 IDIUse=3 WtCom= 9.97D-01 WtEn= 3.27D-03
 Coeff-Com: -0.122D-02-0.231D-01-0.221D-01 0.637D-01 0.427D+00 0.556D+00
 Coeff-En:   0.000D+00 0.000D+00 0.000D+00 0.000D+00 0.000D+00 0.100D+01
 Coeff:     -0.122D-02-0.230D-01-0.220D-01 0.635D-01 0.426D+00 0.557D+00
 Gap=     0.322 Goal=   None    Shift=    0.000
 RMSDP=7.85D-05 MaxDP=4.72D-03 DE=-6.70D-05 OVMax= 1.36D-03

 Cycle   7  Pass 1  IDiag  1:
 RMSU=  6.41D-05    CP:  6.06D-01  8.36D-01  5.33D-01  9.99D-01  7.22D-01
                    CP:  1.03D+00
 E= -576.416137423205     Delta-E=       -0.000019121291 Rises=F Damp=F
 DIIS: error= 5.20D-05 at cycle   7 NSaved=   7.
 NSaved= 7 IEnMin= 7 EnMin= -576.416137423205     IErMin= 7 ErrMin= 5.20D-05
 ErrMax= 5.20D-05  0.00D+00 EMaxC= 1.00D-01 BMatC= 4.67D-07 BMatP= 1.84D-05
 IDIUse=1 WtCom= 1.00D+00 WtEn= 0.00D+00
 Coeff-Com: -0.224D-03-0.430D-02-0.505D-02-0.107D-01-0.925D-02 0.106D+00
 Coeff-Com:  0.924D+00
 Coeff:     -0.224D-03-0.430D-02-0.505D-02-0.107D-01-0.925D-02 0.106D+00
 Coeff:      0.924D+00
 Gap=     0.322 Goal=   None    Shift=    0.000
 RMSDP=3.17D-05 MaxDP=1.98D-03 DE=-1.91D-05 OVMax= 5.05D-04

 Cycle   8  Pass 1  IDiag  1:
 RMSU=  1.49D-05    CP:  6.06D-01  8.36D-01  5.32D-01  1.01D+00  7.15D-01
                    CP:  1.14D+00  1.04D+00
 E= -576.416138566409     Delta-E=       -0.000001143204 Rises=F Damp=F
 DIIS: error= 2.08D-05 at cycle   8 NSaved=   8.
 NSaved= 8 IEnMin= 8 EnMin= -576.416138566409     IErMin= 8 ErrMin= 2.08D-05
 ErrMax= 2.08D-05  0.00D+00 EMaxC= 1.00D-01 BMatC= 8.03D-08 BMatP= 4.67D-07
 IDIUse=1 WtCom= 1.00D+00 WtEn= 0.00D+00
 Coeff-Com:  0.422D-04 0.582D-03 0.934D-04-0.120D-01-0.533D-01-0.219D-01
 Coeff-Com:  0.319D+00 0.767D+00
 Coeff:      0.422D-04 0.582D-03 0.934D-04-0.120D-01-0.533D-01-0.219D-01
 Coeff:      0.319D+00 0.767D+00
 Gap=     0.322 Goal=   None    Shift=    0.000
 RMSDP=1.09D-05 MaxDP=1.03D-03 DE=-1.14D-06 OVMax= 1.89D-04

 Cycle   9  Pass 1  IDiag  1:
 RMSU=  3.97D-06    CP:  6.06D-01  8.36D-01  5.32D-01  1.01D+00  7.12D-01
                    CP:  1.17D+00  1.04D+00  1.20D+00
 E= -576.416138716040     Delta-E=       -0.000000149631 Rises=F Damp=F
 DIIS: error= 4.01D-06 at cycle   9 NSaved=   9.
 NSaved= 9 IEnMin= 9 EnMin= -576.416138716040     IErMin= 9 ErrMin= 4.01D-06
 ErrMax= 4.01D-06  0.00D+00 EMaxC= 1.00D-01 BMatC= 5.55D-09 BMatP= 8.03D-08
 IDIUse=1 WtCom= 1.00D+00 WtEn= 0.00D+00
 Coeff-Com:  0.384D-04 0.675D-03 0.655D-03-0.934D-03-0.940D-02-0.166D-01
 Coeff-Com: -0.532D-01 0.151D+00 0.927D+00
 Coeff:      0.384D-04 0.675D-03 0.655D-03-0.934D-03-0.940D-02-0.166D-01
 Coeff:     -0.532D-01 0.151D+00 0.927D+00
 Gap=     0.322 Goal=   None    Shift=    0.000
 RMSDP=4.38D-06 MaxDP=3.34D-04 DE=-1.50D-07 OVMax= 8.27D-05

 Cycle  10  Pass 1  IDiag  1:
 RMSU=  1.43D-06    CP:  6.06D-01  8.36D-01  5.32D-01  1.01D+00  7.08D-01
                    CP:  1.18D+00  1.03D+00  1.32D+00  1.29D+00
 E= -576.416138732504     Delta-E=       -0.000000016465 Rises=F Damp=F
 DIIS: error= 1.59D-06 at cycle  10 NSaved=  10.
 NSaved=10 IEnMin=10 EnMin= -576.416138732504     IErMin=10 ErrMin= 1.59D-06
 ErrMax= 1.59D-06  0.00D+00 EMaxC= 1.00D-01 BMatC= 4.57D-10 BMatP= 5.55D-09
 IDIUse=1 WtCom= 1.00D+00 WtEn= 0.00D+00
 Coeff-Com: -0.231D-05-0.601D-05 0.277D-04 0.119D-02 0.419D-02 0.168D-02
 Coeff-Com: -0.253D-01-0.644D-01 0.494D-01 0.103D+01
 Coeff:     -0.231D-05-0.601D-05 0.277D-04 0.119D-02 0.419D-02 0.168D-02
 Coeff:     -0.253D-01-0.644D-01 0.494D-01 0.103D+01
 Gap=     0.322 Goal=   None    Shift=    0.000
 RMSDP=1.55D-06 MaxDP=1.57D-04 DE=-1.65D-08 OVMax= 2.70D-05

 Cycle  11  Pass 1  IDiag  1:
 RMSU=  6.32D-07    CP:  6.06D-01  8.36D-01  5.32D-01  1.01D+00  7.08D-01
                    CP:  1.17D+00  1.02D+00  1.35D+00  1.37D+00  1.16D+00
 E= -576.416138734420     Delta-E=       -0.000000001916 Rises=F Damp=F
 DIIS: error= 7.79D-07 at cycle  11 NSaved=  11.
 NSaved=11 IEnMin=11 EnMin= -576.416138734420     IErMin=11 ErrMin= 7.79D-07
 ErrMax= 7.79D-07  0.00D+00 EMaxC= 1.00D-01 BMatC= 9.10D-11 BMatP= 4.57D-10
 IDIUse=1 WtCom= 1.00D+00 WtEn= 0.00D+00
 Coeff-Com: -0.309D-05-0.476D-04-0.388D-04 0.408D-03 0.164D-02 0.149D-02
 Coeff-Com: -0.243D-02-0.299D-01-0.676D-01 0.243D+00 0.854D+00
 Coeff:     -0.309D-05-0.476D-04-0.388D-04 0.408D-03 0.164D-02 0.149D-02
 Coeff:     -0.243D-02-0.299D-01-0.676D-01 0.243D+00 0.854D+00
 Gap=     0.322 Goal=   None    Shift=    0.000
 RMSDP=3.95D-07 MaxDP=2.34D-05 DE=-1.92D-09 OVMax= 1.11D-05

 Cycle  12  Pass 1  IDiag  1:
 RMSU=  1.91D-07    CP:  6.06D-01  8.36D-01  5.32D-01  1.01D+00  7.08D-01
                    CP:  1.17D+00  1.02D+00  1.36D+00  1.41D+00  1.20D+00
                    CP:  1.24D+00
 E= -576.416138734757     Delta-E=       -0.000000000337 Rises=F Damp=F
 DIIS: error= 4.22D-07 at cycle  12 NSaved=  12.
 NSaved=12 IEnMin=12 EnMin= -576.416138734757     IErMin=12 ErrMin= 4.22D-07
 ErrMax= 4.22D-07  0.00D+00 EMaxC= 1.00D-01 BMatC= 1.57D-11 BMatP= 9.10D-11
 IDIUse=1 WtCom= 1.00D+00 WtEn= 0.00D+00
 Coeff-Com:  0.174D-06-0.535D-05-0.115D-04-0.222D-03-0.839D-03-0.254D-03
 Coeff-Com:  0.639D-02 0.124D-01-0.204D-01-0.207D+00 0.128D+00 0.108D+01
 Coeff:      0.174D-06-0.535D-05-0.115D-04-0.222D-03-0.839D-03-0.254D-03
 Coeff:      0.639D-02 0.124D-01-0.204D-01-0.207D+00 0.128D+00 0.108D+01
 Gap=     0.322 Goal=   None    Shift=    0.000
 RMSDP=2.45D-07 MaxDP=1.46D-05 DE=-3.37D-10 OVMax= 7.92D-06

 Cycle  13  Pass 1  IDiag  1:
 RMSU=  9.28D-08    CP:  6.06D-01  8.36D-01  5.32D-01  1.01D+00  7.09D-01
                    CP:  1.17D+00  1.02D+00  1.35D+00  1.42D+00  1.21D+00
                    CP:  1.42D+00  1.51D+00
 E= -576.416138734855     Delta-E=       -0.000000000098 Rises=F Damp=F
 DIIS: error= 1.63D-07 at cycle  13 NSaved=  13.
 NSaved=13 IEnMin=13 EnMin= -576.416138734855     IErMin=13 ErrMin= 1.63D-07
 ErrMax= 1.63D-07  0.00D+00 EMaxC= 1.00D-01 BMatC= 2.52D-12 BMatP= 1.57D-11
 IDIUse=1 WtCom= 1.00D+00 WtEn= 0.00D+00
 Coeff-Com:  0.406D-06 0.526D-05 0.448D-05-0.103D-03-0.361D-03-0.276D-03
 Coeff-Com:  0.129D-02 0.586D-02 0.421D-02-0.692D-01-0.929D-01 0.156D+00
 Coeff-Com:  0.995D+00
 Coeff:      0.406D-06 0.526D-05 0.448D-05-0.103D-03-0.361D-03-0.276D-03
 Coeff:      0.129D-02 0.586D-02 0.421D-02-0.692D-01-0.929D-01 0.156D+00
 Coeff:      0.995D+00
 Gap=     0.322 Goal=   None    Shift=    0.000
 RMSDP=9.05D-08 MaxDP=5.14D-06 DE=-9.85D-11 OVMax= 3.21D-06

 Cycle  14  Pass 1  IDiag  1:
 RMSU=  2.71D-08    CP:  6.06D-01  8.36D-01  5.32D-01  1.01D+00  7.09D-01
                    CP:  1.17D+00  1.02D+00  1.35D+00  1.41D+00  1.21D+00
                    CP:  1.47D+00  1.65D+00  1.58D+00
 E= -576.416138734883     Delta-E=       -0.000000000027 Rises=F Damp=F
 DIIS: error= 4.76D-08 at cycle  14 NSaved=  14.
 NSaved=14 IEnMin=14 EnMin= -576.416138734883     IErMin=14 ErrMin= 4.76D-08
 ErrMax= 4.76D-08  0.00D+00 EMaxC= 1.00D-01 BMatC= 4.83D-13 BMatP= 2.52D-12
 IDIUse=1 WtCom= 1.00D+00 WtEn= 0.00D+00
 Coeff-Com:  0.122D-07 0.143D-05 0.299D-05 0.195D-04 0.103D-03 0.154D-04
 Coeff-Com: -0.904D-03-0.129D-02 0.416D-02 0.272D-01-0.284D-01-0.194D+00
 Coeff-Com:  0.188D+00 0.101D+01
 Coeff:      0.122D-07 0.143D-05 0.299D-05 0.195D-04 0.103D-03 0.154D-04
 Coeff:     -0.904D-03-0.129D-02 0.416D-02 0.272D-01-0.284D-01-0.194D+00
 Coeff:      0.188D+00 0.101D+01
 Gap=     0.322 Goal=   None    Shift=    0.000
 RMSDP=4.87D-08 MaxDP=3.01D-06 DE=-2.71D-11 OVMax= 1.26D-06

 Cycle  15  Pass 1  IDiag  1:
 RMSU=  1.14D-08    CP:  6.06D-01  8.36D-01  5.32D-01  1.01D+00  7.09D-01
                    CP:  1.17D+00  1.02D+00  1.35D+00  1.41D+00  1.20D+00
                    CP:  1.46D+00  1.72D+00  1.82D+00  1.24D+00
 E= -576.416138734877     Delta-E=        0.000000000005 Rises=F Damp=F
 DIIS: error= 1.39D-08 at cycle  15 NSaved=  15.
 NSaved=15 IEnMin=14 EnMin= -576.416138734883     IErMin=15 ErrMin= 1.39D-08
 ErrMax= 1.39D-08  0.00D+00 EMaxC= 1.00D-01 BMatC= 7.49D-14 BMatP= 4.83D-13
 IDIUse=1 WtCom= 1.00D+00 WtEn= 0.00D+00
 Coeff-Com: -0.345D-07 0.572D-07 0.742D-06 0.175D-04 0.777D-04 0.385D-04
 Coeff-Com: -0.467D-03-0.106D-02 0.110D-02 0.173D-01 0.146D-02-0.996D-01
 Coeff-Com: -0.208D-01 0.391D+00 0.711D+00
 Coeff:     -0.345D-07 0.572D-07 0.742D-06 0.175D-04 0.777D-04 0.385D-04
 Coeff:     -0.467D-03-0.106D-02 0.110D-02 0.173D-01 0.146D-02-0.996D-01
 Coeff:     -0.208D-01 0.391D+00 0.711D+00
 Gap=     0.322 Goal=   None    Shift=    0.000
 RMSDP=1.03D-08 MaxDP=8.69D-07 DE= 5.00D-12 OVMax= 2.58D-07

 Cycle  16  Pass 1  IDiag  1:
 RMSU=  3.82D-09    CP:  6.06D-01  8.36D-01  5.32D-01  1.01D+00  7.09D-01
                    CP:  1.17D+00  1.02D+00  1.35D+00  1.41D+00  1.20D+00
                    CP:  1.46D+00  1.74D+00  1.84D+00  1.32D+00  1.00D+00
 E= -576.416138734878     Delta-E=       -0.000000000001 Rises=F Damp=F
 DIIS: error= 6.53D-09 at cycle  16 NSaved=  16.
 NSaved=16 IEnMin=14 EnMin= -576.416138734883     IErMin=16 ErrMin= 6.53D-09
 ErrMax= 6.53D-09  0.00D+00 EMaxC= 1.00D-01 BMatC= 8.70D-15 BMatP= 7.49D-14
 IDIUse=1 WtCom= 1.00D+00 WtEn= 0.00D+00
 Coeff-Com: -0.994D-08-0.226D-06-0.372D-06 0.117D-05 0.269D-05 0.100D-04
 Coeff-Com:  0.328D-04-0.566D-04-0.546D-03-0.421D-03 0.751D-02 0.386D-02
 Coeff-Com: -0.339D-01-0.820D-01 0.198D+00 0.908D+00
 Coeff:     -0.994D-08-0.226D-06-0.372D-06 0.117D-05 0.269D-05 0.100D-04
 Coeff:      0.328D-04-0.566D-04-0.546D-03-0.421D-03 0.751D-02 0.386D-02
 Coeff:     -0.339D-01-0.820D-01 0.198D+00 0.908D+00
 Gap=     0.322 Goal=   None    Shift=    0.000
 RMSDP=4.07D-09 MaxDP=3.54D-07 DE=-9.09D-13 OVMax= 9.42D-08

 SCF Done:  E(RwB97XD) =  -576.416138735     A.U. after   16 cycles
            NFock= 16  Conv=0.41D-08     -V/T= 1.9999
 KE= 5.764494960101D+02 PE=-2.911716865521D+03 EE= 9.741082497633D+02
 Leave Link  502 at Tue Nov 22 15:02:20 2022, MaxMem= 16106127360 cpu:            1203.1 elap:              37.7
 (Enter /opt/ap/G16/B01/g16/l601.exe)
 Copying SCF densities to generalized density rwf, IOpCl= 0 IROHF=0.

 **********************************************************************

            Population analysis using the SCF Density.

 **********************************************************************

 Orbital symmetries:
       Occupied  (A) (A) (A) (A) (A) (A) (A) (A) (A) (A) (A) (A)
                 (A) (A) (A) (A) (A) (A) (A) (A) (A) (A) (A) (A)
                 (A) (A) (A) (A) (A) (A) (A) (A) (A) (A) (A) (A)
                 (A) (A) (A) (A) (A) (A) (A) (A) (A) (A) (A) (A)
       Virtual   (A) (A) (A) (A) (A) (A) (A) (A) (A) (A) (A) (A)
                 (A) (A) (A) (A) (A) (A) (A) (A) (A) (A) (A) (A)
                 (A) (A) (A) (A) (A) (A) (A) (A) (A) (A) (A) (A)
                 (A) (A) (A) (A) (A) (A) (A) (A) (A) (A) (A) (A)
                 (A) (A) (A) (A) (A) (A) (A) (A) (A) (A) (A) (A)
                 (A) (A) (A) (A) (A) (A) (A) (A) (A) (A) (A) (A)
                 (A) (A) (A) (A) (A) (A) (A) (A) (A) (A) (A) (A)
                 (A) (A) (A) (A) (A) (A) (A) (A) (A) (A) (A) (A)
                 (A) (A) (A) (A) (A) (A) (A) (A) (A) (A) (A) (A)
                 (A) (A) (A) (A) (A) (A) (A) (A) (A) (A) (A) (A)
                 (A) (A) (A) (A) (A) (A) (A) (A) (A) (A) (A) (A)
                 (A) (A) (A) (A) (A) (A) (A) (A) (A) (A) (A) (A)
                 (A) (A) (A) (A) (A) (A) (A) (A) (A) (A) (A) (A)
                 (A) (A) (A) (A) (A) (A) (A) (A) (A) (A) (A) (A)
                 (A) (A) (A) (A) (A) (A) (A) (A) (A) (A) (A) (A)
                 (A) (A) (A) (A) (A) (A) (A) (A) (A) (A) (A) (A)
                 (A) (A) (A) (A) (A) (A) (A) (A) (A) (A) (A) (A)
                 (A) (A) (A) (A) (A) (A) (A) (A) (A) (A) (A) (A)
                 (A) (A) (A) (A) (A) (A) (A) (A) (A) (A) (A) (A)
                 (A) (A) (A) (A) (A) (A) (A) (A) (A) (A) (A) (A)
                 (A) (A) (A) (A) (A) (A) (A) (A) (A) (A) (A) (A)
                 (A) (A) (A) (A) (A) (A) (A) (A) (A) (A) (A) (A)
                 (A) (A) (A) (A) (A) (A) (A) (A) (A) (A) (A) (A)
                 (A) (A) (A) (A) (A) (A) (A) (A) (A) (A) (A) (A)
                 (A) (A) (A) (A) (A) (A) (A) (A) (A) (A) (A) (A)
                 (A) (A) (A) (A) (A) (A) (A) (A) (A) (A) (A) (A)
                 (A) (A) (A) (A) (A) (A) (A) (A) (A) (A) (A) (A)
                 (A) (A) (A)
 The electronic state is 1-A.
 Alpha  occ. eigenvalues --  -19.23545 -10.38088 -10.30499 -10.30446 -10.28970
 Alpha  occ. eigenvalues --  -10.28913 -10.28626 -10.28603 -10.28489 -10.28451
 Alpha  occ. eigenvalues --  -10.28381 -10.28378 -10.28220 -10.28165  -1.14736
 Alpha  occ. eigenvalues --   -0.98023  -0.97405  -0.89357  -0.87384  -0.87336
 Alpha  occ. eigenvalues --   -0.86651  -0.76863  -0.74233  -0.73493  -0.72349
 Alpha  occ. eigenvalues --   -0.68032  -0.65164  -0.63707  -0.59806  -0.57042
 Alpha  occ. eigenvalues --   -0.56126  -0.56007  -0.54311  -0.53766  -0.53196
 Alpha  occ. eigenvalues --   -0.51864  -0.50260  -0.47485  -0.46740  -0.46032
 Alpha  occ. eigenvalues --   -0.45192  -0.44903  -0.44232  -0.34958  -0.34585
 Alpha  occ. eigenvalues --   -0.34320  -0.34024  -0.33485
 Alpha virt. eigenvalues --   -0.01243   0.03622   0.03994   0.04305   0.04351
 Alpha virt. eigenvalues --    0.04768   0.05032   0.05701   0.06051   0.07069
 Alpha virt. eigenvalues --    0.07648   0.08039   0.08897   0.10043   0.11641
 Alpha virt. eigenvalues --    0.11914   0.11953   0.12578   0.13297   0.14165
 Alpha virt. eigenvalues --    0.15005   0.15395   0.16093   0.16253   0.16824
 Alpha virt. eigenvalues --    0.16930   0.17291   0.17490   0.18049   0.18113
 Alpha virt. eigenvalues --    0.18320   0.18778   0.18968   0.19133   0.19791
 Alpha virt. eigenvalues --    0.20079   0.20454   0.20648   0.21273   0.21637
 Alpha virt. eigenvalues --    0.21858   0.22437   0.22697   0.23366   0.23835
 Alpha virt. eigenvalues --    0.24357   0.24765   0.24999   0.26113   0.26555
 Alpha virt. eigenvalues --    0.26728   0.27099   0.27824   0.28648   0.29058
 Alpha virt. eigenvalues --    0.29897   0.30173   0.30454   0.30690   0.31208
 Alpha virt. eigenvalues --    0.31920   0.32517   0.32683   0.32959   0.33506
 Alpha virt. eigenvalues --    0.34122   0.34675   0.35332   0.36124   0.36705
 Alpha virt. eigenvalues --    0.37009   0.37221   0.37978   0.38681   0.38720
 Alpha virt. eigenvalues --    0.39790   0.40485   0.41115   0.41549   0.41681
 Alpha virt. eigenvalues --    0.42285   0.42671   0.44058   0.44232   0.44549
 Alpha virt. eigenvalues --    0.45728   0.45889   0.49055   0.49898   0.52550
 Alpha virt. eigenvalues --    0.56689   0.57487   0.58536   0.59385   0.61552
 Alpha virt. eigenvalues --    0.61784   0.62809   0.63538   0.63747   0.64377
 Alpha virt. eigenvalues --    0.64474   0.65133   0.65480   0.66315   0.66720
 Alpha virt. eigenvalues --    0.67883   0.68150   0.69134   0.70356   0.71172
 Alpha virt. eigenvalues --    0.71768   0.73439   0.74054   0.74555   0.74813
 Alpha virt. eigenvalues --    0.76293   0.77371   0.77403   0.77871   0.79706
 Alpha virt. eigenvalues --    0.80855   0.81589   0.82076   0.83027   0.83872
 Alpha virt. eigenvalues --    0.84492   0.85533   0.86244   0.87559   0.88622
 Alpha virt. eigenvalues --    0.90491   0.92002   0.92081   0.93069   0.94609
 Alpha virt. eigenvalues --    0.94927   0.95332   0.95760   0.95930   0.97027
 Alpha virt. eigenvalues --    0.98992   1.00618   1.01277   1.01879   1.02158
 Alpha virt. eigenvalues --    1.03474   1.03684   1.05314   1.06414   1.09205
 Alpha virt. eigenvalues --    1.11149   1.11974   1.12513   1.13296   1.14009
 Alpha virt. eigenvalues --    1.16303   1.16925   1.17936   1.18982   1.20399
 Alpha virt. eigenvalues --    1.21092   1.22619   1.24845   1.25562   1.26914
 Alpha virt. eigenvalues --    1.28699   1.30066   1.32174   1.38076   1.39234
 Alpha virt. eigenvalues --    1.44250   1.44996   1.46840   1.55295   1.57090
 Alpha virt. eigenvalues --    1.57860   1.58129   1.60757   1.61106   1.62181
 Alpha virt. eigenvalues --    1.62403   1.63641   1.66360   1.67071   1.67952
 Alpha virt. eigenvalues --    1.68508   1.68563   1.69450   1.73971   1.74913
 Alpha virt. eigenvalues --    1.76405   1.76463   1.77718   1.79582   1.79948
 Alpha virt. eigenvalues --    1.81721   1.84713   1.86395   1.88477   1.88810
 Alpha virt. eigenvalues --    1.91391   1.92042   1.94057   1.94530   1.95156
 Alpha virt. eigenvalues --    1.97112   1.97399   2.00987   2.01306   2.01638
 Alpha virt. eigenvalues --    2.02715   2.04345   2.05096   2.05725   2.06063
 Alpha virt. eigenvalues --    2.06606   2.09249   2.10448   2.12187   2.13724
 Alpha virt. eigenvalues --    2.15795   2.16490   2.19575   2.21286   2.23223
 Alpha virt. eigenvalues --    2.26484   2.28001   2.29674   2.30037   2.33953
 Alpha virt. eigenvalues --    2.42063   2.43303   2.47550   2.48279   2.49763
 Alpha virt. eigenvalues --    2.50209   2.50475   2.51516   2.52614   2.58572
 Alpha virt. eigenvalues --    2.59958   2.62116   2.67379   2.69004   2.72332
 Alpha virt. eigenvalues --    2.77912   2.79860   2.81962   2.82713   2.83026
 Alpha virt. eigenvalues --    2.84315   2.86300   2.87975   2.89131   2.90018
 Alpha virt. eigenvalues --    2.92572   2.93680   2.94094   2.96413   2.97314
 Alpha virt. eigenvalues --    2.97571   2.98088   3.00117   3.00201   3.00793
 Alpha virt. eigenvalues --    3.01560   3.02471   3.04030   3.05051   3.07343
 Alpha virt. eigenvalues --    3.07601   3.12316   3.13549   3.14376   3.20176
 Alpha virt. eigenvalues --    3.20774   3.23210   3.24911   3.26095   3.28002
 Alpha virt. eigenvalues --    3.31691   3.33665   3.39848   3.45286   3.49406
 Alpha virt. eigenvalues --    3.50012   3.51702   3.52116   3.65590   3.69068
 Alpha virt. eigenvalues --    3.69882   3.72719   3.75084   3.76739   3.82689
 Alpha virt. eigenvalues --    3.88852   3.91892   3.97178   4.32731   4.36357
 Alpha virt. eigenvalues --    4.38278   4.39468   4.40764   4.42782   4.46466
 Alpha virt. eigenvalues --    4.51325   4.52963   4.63859   4.94622   4.96224
 Alpha virt. eigenvalues --    5.19770   5.36392   5.87322  23.88781  23.96205
 Alpha virt. eigenvalues --   24.00581  24.16835  24.18110  24.24161  24.24935
 Alpha virt. eigenvalues --   24.30129  24.31340  24.33853  24.34663  24.43660
 Alpha virt. eigenvalues --   24.44505  50.16978
          Condensed to atoms (all electrons):
               1          2          3          4          5          6
     1  C   15.667648  -0.870812   0.681501  -1.464135  -0.054361  -2.384067
     2  C   -0.870812  14.601352  -4.817121  -1.949932   0.763399  -0.326545
     3  C    0.681501  -4.817121  10.311479   1.050321  -0.079658  -1.126968
     4  C   -1.464135  -1.949932   1.050321   7.825159  -0.216667   0.176758
     5  H   -0.054361   0.763399  -0.079658  -0.216667   0.639435  -0.021749
     6  C   -2.384067  -0.326545  -1.126968   0.176758  -0.021749  10.666316
     7  C   -0.865796   0.159300   0.311310  -0.393126   0.066501  -0.299970
     8  H    0.087024   0.026229   0.434871   0.018064  -0.000633  -0.026124
     9  C   -0.324345   0.540588  -0.876161   0.464516  -0.024742  -0.306882
    10  H    0.061803  -0.142555   0.056247   0.444456  -0.021137   0.014335
    11  C   -3.577725  -0.897316  -0.132680  -0.188276   0.066006  -0.474469
    12  O   -0.188287  -0.229523   0.278630  -0.023329  -0.000492   0.685767
    13  H   -0.024013  -0.017255  -0.058638   0.002239   0.000069   0.031210
    14  H    0.029579  -0.001312  -0.010240  -0.076122  -0.000779  -0.023386
    15  C   -1.012730  -1.080180   0.323267   0.549832  -0.170434   0.883952
    16  C   -0.265000   0.805887  -0.598232  -0.108605   0.060469  -0.999452
    17  C   -0.527012   0.779954  -0.225379   0.050717  -0.026439   0.065705
    18  H    0.058562  -0.171131   0.033588   0.012293  -0.057022   0.021535
    19  C    0.074307   0.076752  -0.026911   0.014425   0.014645   0.203836
    20  H   -0.078710   0.001465  -0.011623   0.002271  -0.002965  -0.018335
    21  C   -0.145201  -0.067492   0.006562   0.038126  -0.013014  -0.075966
    22  H   -0.014946   0.018541  -0.006405   0.001862  -0.001345  -0.001338
    23  H    0.004541   0.004478  -0.002286   0.000412   0.000060   0.003944
    24  H   -0.000104  -0.008654   0.001798  -0.000140  -0.001167  -0.013251
               7          8          9         10         11         12
     1  C   -0.865796   0.087024  -0.324345   0.061803  -3.577725  -0.188287
     2  C    0.159300   0.026229   0.540588  -0.142555  -0.897316  -0.229523
     3  C    0.311310   0.434871  -0.876161   0.056247  -0.132680   0.278630
     4  C   -0.393126   0.018064   0.464516   0.444456  -0.188276  -0.023329
     5  H    0.066501  -0.000633  -0.024742  -0.021137   0.066006  -0.000492
     6  C   -0.299970  -0.026124  -0.306882   0.014335  -0.474469   0.685767
     7  C    7.127804  -0.149775   0.347931   0.007526  -0.227167   0.074506
     8  H   -0.149775   0.451632   0.012800   0.000326  -0.044947  -0.007235
     9  C    0.347931   0.012800   6.033473  -0.099834   0.028074   0.000776
    10  H    0.007526   0.000326  -0.099834   0.492504  -0.018558   0.000059
    11  C   -0.227167  -0.044947   0.028074  -0.018558  13.206081  -0.363854
    12  O    0.074506  -0.007235   0.000776   0.000059  -0.363854   8.013393
    13  H    0.495794  -0.015746  -0.087580   0.001517   0.000439   0.001318
    14  H   -0.098228   0.002298   0.529257  -0.015806   0.004355   0.000024
    15  C    0.105068  -0.006109  -0.163209   0.024817   0.274205  -0.128587
    16  C   -0.184815   0.001698   0.103946  -0.011908  -0.916712   0.086581
    17  C   -0.015166   0.003256   0.039731  -0.000171  -0.896178  -0.014397
    18  H   -0.003100  -0.002878  -0.008429   0.001453  -0.054334  -0.007700
    19  C   -0.014295   0.000735   0.011150  -0.001888  -0.939563   0.037985
    20  H   -0.000196  -0.000481  -0.000151   0.000080   0.116058  -0.014793
    21  C   -0.002509  -0.000366  -0.007855   0.002456  -0.059925   0.001955
    22  H   -0.001155   0.000075   0.002796  -0.000244   0.009754   0.000076
    23  H   -0.000449  -0.000013   0.000367  -0.000058  -0.026348   0.000404
    24  H    0.000085  -0.000045  -0.000322   0.000088   0.037698   0.000007
              13         14         15         16         17         18
     1  C   -0.024013   0.029579  -1.012730  -0.265000  -0.527012   0.058562
     2  C   -0.017255  -0.001312  -1.080180   0.805887   0.779954  -0.171131
     3  C   -0.058638  -0.010240   0.323267  -0.598232  -0.225379   0.033588
     4  C    0.002239  -0.076122   0.549832  -0.108605   0.050717   0.012293
     5  H    0.000069  -0.000779  -0.170434   0.060469  -0.026439  -0.057022
     6  C    0.031210  -0.023386   0.883952  -0.999452   0.065705   0.021535
     7  C    0.495794  -0.098228   0.105068  -0.184815  -0.015166  -0.003100
     8  H   -0.015746   0.002298  -0.006109   0.001698   0.003256  -0.002878
     9  C   -0.087580   0.529257  -0.163209   0.103946   0.039731  -0.008429
    10  H    0.001517  -0.015806   0.024817  -0.011908  -0.000171   0.001453
    11  C    0.000439   0.004355   0.274205  -0.916712  -0.896178  -0.054334
    12  O    0.001318   0.000024  -0.128587   0.086581  -0.014397  -0.007700
    13  H    0.491306  -0.019088   0.006060  -0.005412  -0.000492   0.000782
    14  H   -0.019088   0.502883  -0.010550   0.004089   0.000623  -0.000738
    15  C    0.006060  -0.010550  12.821732  -5.071135  -1.258664   0.598955
    16  C   -0.005412   0.004089  -5.071135  11.316371   1.299473  -0.043575
    17  C   -0.000492   0.000623  -1.258664   1.299473   6.650395  -0.105147
    18  H    0.000782  -0.000738   0.598955  -0.043575  -0.105147   0.594585
    19  C   -0.000606   0.000348  -0.263028   0.728062  -0.101738   0.020951
    20  H   -0.000006  -0.000057   0.064341   0.371613   0.002280  -0.000283
    21  C    0.000178  -0.000351   0.347392  -0.652090   0.233918  -0.024366
    22  H   -0.000055   0.000082  -0.088180   0.046476   0.448159  -0.011328
    23  H   -0.000010   0.000013  -0.021200  -0.031672   0.014441   0.002119
    24  H    0.000006  -0.000011   0.024428  -0.037280  -0.099290  -0.000552
              19         20         21         22         23         24
     1  C    0.074307  -0.078710  -0.145201  -0.014946   0.004541  -0.000104
     2  C    0.076752   0.001465  -0.067492   0.018541   0.004478  -0.008654
     3  C   -0.026911  -0.011623   0.006562  -0.006405  -0.002286   0.001798
     4  C    0.014425   0.002271   0.038126   0.001862   0.000412  -0.000140
     5  H    0.014645  -0.002965  -0.013014  -0.001345   0.000060  -0.001167
     6  C    0.203836  -0.018335  -0.075966  -0.001338   0.003944  -0.013251
     7  C   -0.014295  -0.000196  -0.002509  -0.001155  -0.000449   0.000085
     8  H    0.000735  -0.000481  -0.000366   0.000075  -0.000013  -0.000045
     9  C    0.011150  -0.000151  -0.007855   0.002796   0.000367  -0.000322
    10  H   -0.001888   0.000080   0.002456  -0.000244  -0.000058   0.000088
    11  C   -0.939563   0.116058  -0.059925   0.009754  -0.026348   0.037698
    12  O    0.037985  -0.014793   0.001955   0.000076   0.000404   0.000007
    13  H   -0.000606  -0.000006   0.000178  -0.000055  -0.000010   0.000006
    14  H    0.000348  -0.000057  -0.000351   0.000082   0.000013  -0.000011
    15  C   -0.263028   0.064341   0.347392  -0.088180  -0.021200   0.024428
    16  C    0.728062   0.371613  -0.652090   0.046476  -0.031672  -0.037280
    17  C   -0.101738   0.002280   0.233918   0.448159   0.014441  -0.099290
    18  H    0.020951  -0.000283  -0.024366  -0.011328   0.002119  -0.000552
    19  C    5.855410  -0.115951   0.397707   0.005843   0.470815  -0.072188
    20  H   -0.115951   0.462768   0.015909   0.000545  -0.015497   0.001831
    21  C    0.397707   0.015909   5.879006  -0.084022  -0.073997   0.513845
    22  H    0.005843   0.000545  -0.084022   0.488188   0.000563  -0.014719
    23  H    0.470815  -0.015497  -0.073997   0.000563   0.489510  -0.015079
    24  H   -0.072188   0.001831   0.513845  -0.014719  -0.015079   0.500267
 Mulliken charges:
               1
     1  C    1.132277
     2  C   -1.198119
     3  C    0.482726
     4  C   -0.231120
     5  H    0.082018
     6  C   -0.654855
     7  C   -0.440078
     8  H    0.215345
     9  C   -0.215896
    10  H    0.204491
    11  C    1.075381
    12  O   -0.203285
    13  H    0.197982
    14  H    0.183116
    15  C   -0.750044
    16  C    0.101223
    17  C   -0.318578
    18  H    0.145762
    19  C   -0.376801
    20  H    0.219885
    21  C   -0.229900
    22  H    0.200777
    23  H    0.194943
    24  H    0.182749
 Sum of Mulliken charges =  -0.00000
 Mulliken charges with hydrogens summed into heavy atoms:
               1
     1  C    1.132277
     2  C   -1.116100
     3  C    0.698071
     4  C   -0.026629
     6  C   -0.654855
     7  C   -0.242096
     9  C   -0.032780
    11  C    1.075381
    12  O   -0.203285
    15  C   -0.604282
    16  C    0.321108
    17  C   -0.117801
    19  C   -0.181858
    21  C   -0.047151
 Electronic spatial extent (au):  <R**2>=           3054.9132
 Charge=              0.0000 electrons
 Dipole moment (field-independent basis, Debye):
    X=             -0.0798    Y=             -3.2189    Z=              0.3955  Tot=              3.2441
 Quadrupole moment (field-independent basis, Debye-Ang):
   XX=            -63.1051   YY=            -80.7282   ZZ=            -83.7612
   XY=             -0.4653   XZ=              1.5147   YZ=              1.9464
 Traceless Quadrupole moment (field-independent basis, Debye-Ang):
   XX=             12.7597   YY=             -4.8634   ZZ=             -7.8963
   XY=             -0.4653   XZ=              1.5147   YZ=              1.9464
 Octapole moment (field-independent basis, Debye-Ang**2):
  XXX=             -3.3541  YYY=            -23.8159  ZZZ=             -1.3960  XYY=             -1.7667
  XXY=             -1.5971  XXZ=              7.5080  XZZ=              2.3770  YZZ=              4.3114
  YYZ=              2.4708  XYZ=             12.4637
 Hexadecapole moment (field-independent basis, Debye-Ang**3):
 XXXX=          -2827.9447 YYYY=           -779.4054 ZZZZ=           -160.1711 XXXY=            -12.9953
 XXXZ=             37.8990 YYYX=             -0.4827 YYYZ=              8.9339 ZZZX=              3.5360
 ZZZY=              0.7705 XXYY=           -603.3197 XXZZ=           -613.8301 YYZZ=           -151.7234
 XXYZ=              4.6767 YYXZ=             -5.3519 ZZXY=              1.6336
 N-N= 7.847429810127D+02 E-N=-2.911716865761D+03  KE= 5.764494960101D+02
 No NMR shielding tensors so no spin-rotation constants.
 Leave Link  601 at Tue Nov 22 15:02:20 2022, MaxMem= 16106127360 cpu:               4.7 elap:               0.2
 (Enter /opt/ap/G16/B01/g16/l9999.exe)
 1\1\GINC-N13\SP\RwB97XD\6-311++G(d,p)\C13H10O1\ROOT\22-Nov-2022\0\\#P 
 wB97XD/6-311++G(d,p) scf=maxcycle=512\\_conf020.gjf nmol_natom 1_24\\0
 ,1\C\C,1,1.39746343\C,1,1.39996263,2,119.28066518\C,2,1.39288453,1,120
 .37436646,3,-0.51002981,0\H,2,0.95014703,1,119.82324024,3,179.45634896
 ,0\C,1,1.49653039,2,122.77761373,4,174.46828757,0\C,3,1.3870125,1,120.
 10017821,2,-0.37315804,0\H,3,0.9501092,1,119.95246451,2,179.5923884,0\
 C,7,1.38720039,3,120.16568731,1,1.0745106,0\H,4,0.95011919,2,120.18755
 644,1,-179.31195299,0\C,6,1.49516902,1,120.70972921,2,10.,0\O,6,1.2215
 0059,1,119.67074267,2,-170.,0\H,7,0.94956661,3,119.91274826,1,-178.886
 36029,0\H,9,0.94992259,7,119.76037934,3,179.10763853,0\C,11,1.39713972
 ,6,122.62585705,1,30.97749054,0\C,11,1.40039562,6,117.74753532,1,-153.
 15467779,0\C,15,1.39455701,11,119.80747484,6,175.4763048,0\H,15,0.9496
 2854,11,120.10535689,6,-4.50802339,0\C,16,1.38466431,11,120.4617377,6,
 -176.88197195,0\H,16,0.9497464,11,119.75779177,6,3.14699974,0\C,17,1.3
 9088945,15,120.3475273,11,0.7973643,0\H,17,0.94984298,15,119.8156451,1
 1,-179.16676483,0\H,19,0.94974749,16,119.98566335,11,-178.40987425,0\H
 ,21,0.94938585,17,120.0744529,15,179.91636093,0\\Version=ES64L-G16RevB
 .01\State=1-A\HF=-576.4161387\RMSD=4.070e-09\Dipole=-0.0409011,0.14411
 77,1.2674865\Quadrupole=9.524877,-5.1083672,-4.4165098,0.771384,0.2271
 251,1.8546973\PG=C01 [X(C13H10O1)]\\@


 A leading authority is anyone who has guessed right more than once.
 -- Frank A. Clark
 Job cpu time:       0 days  0 hours 20 minutes 51.0 seconds.
 Elapsed time:       0 days  0 hours  0 minutes 39.3 seconds.
 File lengths (MBytes):  RWF=     78 Int=      0 D2E=      0 Chk=      9 Scr=      1
 Normal termination of Gaussian 16 at Tue Nov 22 15:02:20 2022.
