 Entering Gaussian System, Link 0=g16
 Input=_conf002.gjf
 Output=_conf002.log
 Initial command:
 /opt/ap/G16/B01/g16/l1.exe "/tmp2/scr/Gau-3781.inp" -scrdir="/tmp2/scr/"
 Entering Link 1 = /opt/ap/G16/B01/g16/l1.exe PID=      3782.
  
 Copyright (c) 1988-2017, Gaussian, Inc.  All Rights Reserved.
  
 This is part of the Gaussian(R) 16 program.  It is based on
 the Gaussian(R) 09 system (copyright 2009, Gaussian, Inc.),
 the Gaussian(R) 03 system (copyright 2003, Gaussian, Inc.),
 the Gaussian(R) 98 system (copyright 1998, Gaussian, Inc.),
 the Gaussian(R) 94 system (copyright 1995, Gaussian, Inc.),
 the Gaussian 92(TM) system (copyright 1992, Gaussian, Inc.),
 the Gaussian 90(TM) system (copyright 1990, Gaussian, Inc.),
 the Gaussian 88(TM) system (copyright 1988, Gaussian, Inc.),
 the Gaussian 86(TM) system (copyright 1986, Carnegie Mellon
 University), and the Gaussian 82(TM) system (copyright 1983,
 Carnegie Mellon University). Gaussian is a federally registered
 trademark of Gaussian, Inc.
  
 This software contains proprietary and confidential information,
 including trade secrets, belonging to Gaussian, Inc.
  
 This software is provided under written license and may be
 used, copied, transmitted, or stored only in accord with that
 written license.
  
 The following legend is applicable only to US Government
 contracts under FAR:
  
                    RESTRICTED RIGHTS LEGEND
  
 Use, reproduction and disclosure by the US Government is
 subject to restrictions as set forth in subparagraphs (a)
 and (c) of the Commercial Computer Software - Restricted
 Rights clause in FAR 52.227-19.
  
 Gaussian, Inc.
 340 Quinnipiac St., Bldg. 40, Wallingford CT 06492
  
  
 ---------------------------------------------------------------
 Warning -- This program may not be used in any manner that
 competes with the business of Gaussian, Inc. or will provide
 assistance to any competitor of Gaussian, Inc.  The licensee
 of this program is prohibited from giving any competitor of
 Gaussian, Inc. access to this program.  By using this program,
 the user acknowledges that Gaussian, Inc. is engaged in the
 business of creating and licensing software in the field of
 computational chemistry and represents and warrants to the
 licensee that it is not a competitor of Gaussian, Inc. and that
 it will not use this program in any manner prohibited above.
 ---------------------------------------------------------------
  

 Cite this work as:
 Gaussian 16, Revision B.01,
 M. J. Frisch, G. W. Trucks, H. B. Schlegel, G. E. Scuseria, 
 M. A. Robb, J. R. Cheeseman, G. Scalmani, V. Barone, 
 G. A. Petersson, H. Nakatsuji, X. Li, M. Caricato, A. V. Marenich, 
 J. Bloino, B. G. Janesko, R. Gomperts, B. Mennucci, H. P. Hratchian, 
 J. V. Ortiz, A. F. Izmaylov, J. L. Sonnenberg, D. Williams-Young, 
 F. Ding, F. Lipparini, F. Egidi, J. Goings, B. Peng, A. Petrone, 
 T. Henderson, D. Ranasinghe, V. G. Zakrzewski, J. Gao, N. Rega, 
 G. Zheng, W. Liang, M. Hada, M. Ehara, K. Toyota, R. Fukuda, 
 J. Hasegawa, M. Ishida, T. Nakajima, Y. Honda, O. Kitao, H. Nakai, 
 T. Vreven, K. Throssell, J. A. Montgomery, Jr., J. E. Peralta, 
 F. Ogliaro, M. J. Bearpark, J. J. Heyd, E. N. Brothers, K. N. Kudin, 
 V. N. Staroverov, T. A. Keith, R. Kobayashi, J. Normand, 
 K. Raghavachari, A. P. Rendell, J. C. Burant, S. S. Iyengar, 
 J. Tomasi, M. Cossi, J. M. Millam, M. Klene, C. Adamo, R. Cammi, 
 J. W. Ochterski, R. L. Martin, K. Morokuma, O. Farkas, 
 J. B. Foresman, and D. J. Fox, Gaussian, Inc., Wallingford CT, 2016.
 
 ******************************************
 Gaussian 16:  ES64L-G16RevB.01 20-Dec-2017
                22-Nov-2022 
 ******************************************
 %nprocshared=32
 Will use up to   32 processors via shared memory.
 %mem=120GB
 %chk=_conf002.chk
 ----------------------------------------
 #P wB97XD/6-311++G(d,p) scf=maxcycle=512
 ----------------------------------------
 1/38=1,172=1/1;
 2/12=2,17=6,18=5,40=1/2;
 3/5=4,6=6,7=1111,11=2,25=1,30=1,74=-58/1,2,3;
 4//1;
 5/5=2,7=512,38=5/2;
 6/7=2,8=2,9=2,10=2,28=1/1;
 99/5=1,9=1/99;
 Leave Link    1 at Tue Nov 22 14:58:15 2022, MaxMem= 16106127360 cpu:               2.5 elap:               0.1
 (Enter /opt/ap/G16/B01/g16/l101.exe)
 ----------------------------
 _conf002.gjf nmol_natom 1_24
 ----------------------------
 Symbolic Z-matrix:
 Charge =  0 Multiplicity = 1
 C
 C                    1     1.39746 
 C                    1     1.39996  2     119.28067 
 C                    2     1.39288  1     120.37437  3    -0.51003  0
 H                    2     0.95015  1     119.82324  3     179.45635  0
 C                    1     1.49653  2     122.77761  4     174.46829  0
 C                    3     1.38701  1     120.10018  2    -0.37316  0
 H                    3     0.95011  1     119.95246  2     179.59239  0
 C                    7     1.3872   3     120.16569  1     1.07451  0
 H                    4     0.95012  2     120.18756  1    -179.31195  0
 C                    6     1.49517  1     120.70973  2    -80.      0
 O                    6     1.2215   1     119.67074  2     100.     0
 H                    7     0.94957  3     119.91275  1    -178.88636  0
 H                    9     0.94992  7     119.76038  3     179.10764  0
 C                    11    1.39714  6     122.62586  1     30.97749  0
 C                    11    1.4004   6     117.74754  1    -153.15468  0
 C                    15    1.39456  11    119.80747  6     175.4763  0
 H                    15    0.94963  11    120.10536  6    -4.50802  0
 C                    16    1.38466  11    120.46174  6    -176.88197  0
 H                    16    0.94975  11    119.75779  6     3.147    0
 C                    17    1.39089  15    120.34753  11    0.79736  0
 H                    17    0.94984  15    119.81565  11   -179.16676  0
 H                    19    0.94975  16    119.98566  11   -178.40987  0
 H                    21    0.94939  17    120.07445  15    179.91636  0
 
 ITRead=  0  0  0  0  0  0  0  0  0  0  0  0  0  0  0  0  0  0  0  0
 ITRead=  0  0  0  0
 MicOpt= -1 -1 -1 -1 -1 -1 -1 -1 -1 -1 -1 -1 -1 -1 -1 -1 -1 -1 -1 -1
 MicOpt= -1 -1 -1 -1
 NAtoms=     24 NQM=       24 NQMF=       0 NMMI=      0 NMMIF=      0
                NMic=       0 NMicF=      0.
                    Isotopes and Nuclear Properties:
 (Nuclear quadrupole moments (NQMom) in fm**2, nuclear magnetic moments (NMagM)
  in nuclear magnetons)

  Atom         1           2           3           4           5           6           7           8           9          10
 IAtWgt=          12          12          12          12           1          12          12           1          12           1
 AtmWgt=  12.0000000  12.0000000  12.0000000  12.0000000   1.0078250  12.0000000  12.0000000   1.0078250  12.0000000   1.0078250
 NucSpn=           0           0           0           0           1           0           0           1           0           1
 AtZEff=  -0.0000000  -0.0000000  -0.0000000  -0.0000000  -0.0000000  -0.0000000  -0.0000000  -0.0000000  -0.0000000  -0.0000000
 NQMom=    0.0000000   0.0000000   0.0000000   0.0000000   0.0000000   0.0000000   0.0000000   0.0000000   0.0000000   0.0000000
 NMagM=    0.0000000   0.0000000   0.0000000   0.0000000   2.7928460   0.0000000   0.0000000   2.7928460   0.0000000   2.7928460
 AtZNuc=   6.0000000   6.0000000   6.0000000   6.0000000   1.0000000   6.0000000   6.0000000   1.0000000   6.0000000   1.0000000

  Atom        11          12          13          14          15          16          17          18          19          20
 IAtWgt=          12          16           1           1          12          12          12           1          12           1
 AtmWgt=  12.0000000  15.9949146   1.0078250   1.0078250  12.0000000  12.0000000  12.0000000   1.0078250  12.0000000   1.0078250
 NucSpn=           0           0           1           1           0           0           0           1           0           1
 AtZEff=  -0.0000000  -0.0000000  -0.0000000  -0.0000000  -0.0000000  -0.0000000  -0.0000000  -0.0000000  -0.0000000  -0.0000000
 NQMom=    0.0000000   0.0000000   0.0000000   0.0000000   0.0000000   0.0000000   0.0000000   0.0000000   0.0000000   0.0000000
 NMagM=    0.0000000   0.0000000   2.7928460   2.7928460   0.0000000   0.0000000   0.0000000   2.7928460   0.0000000   2.7928460
 AtZNuc=   6.0000000   8.0000000   1.0000000   1.0000000   6.0000000   6.0000000   6.0000000   1.0000000   6.0000000   1.0000000

  Atom        21          22          23          24
 IAtWgt=          12           1           1           1
 AtmWgt=  12.0000000   1.0078250   1.0078250   1.0078250
 NucSpn=           0           1           1           1
 AtZEff=  -0.0000000  -0.0000000  -0.0000000  -0.0000000
 NQMom=    0.0000000   0.0000000   0.0000000   0.0000000
 NMagM=    0.0000000   2.7928460   2.7928460   2.7928460
 AtZNuc=   6.0000000   1.0000000   1.0000000   1.0000000
 Leave Link  101 at Tue Nov 22 14:58:15 2022, MaxMem= 16106127360 cpu:               6.2 elap:               0.2
 (Enter /opt/ap/G16/B01/g16/l202.exe)
                          Input orientation:                          
 ---------------------------------------------------------------------
 Center     Atomic      Atomic             Coordinates (Angstroms)
 Number     Number       Type             X           Y           Z
 ---------------------------------------------------------------------
      1          6           0        0.000000    0.000000    0.000000
      2          6           0        0.000000    0.000000    1.397463
      3          6           0        1.221096    0.000000   -0.684705
      4          6           0        1.201650   -0.010697    2.101772
      5          1           0       -0.824276    0.007821    1.869996
      6          6           0       -1.253421   -0.110138   -0.810191
      7          6           0        2.414707    0.007815    0.021719
      8          1           0        1.232246   -0.005856   -1.634731
      9          6           0        2.403895   -0.006831    1.408800
     10          1           0        1.198494   -0.020531    3.051836
     11          6           0       -1.902518   -1.438017   -1.035889
     12          8           0       -1.751952    0.895302   -1.292498
     13          1           0        3.241298    0.023792   -0.445367
     14          1           0        3.224827   -0.014217    1.886678
     15          6           0       -1.837765   -2.476345   -0.103321
     16          6           0       -2.671886   -1.599073   -2.194872
     17          6           0       -2.543115   -3.657623   -0.331036
     18          1           0       -1.315180   -2.378035    0.683466
     19          6           0       -3.350352   -2.783380   -2.428103
     20          1           0       -2.728259   -0.891080   -2.825416
     21          6           0       -3.297198   -3.813692   -1.489299
     22          1           0       -2.508690   -4.359012    0.308550
     23          1           0       -3.851839   -2.893713   -3.227076
     24          1           0       -3.774923   -4.619990   -1.640947
 ---------------------------------------------------------------------
                    Distance matrix (angstroms):
                    1          2          3          4          5
     1  C    0.000000
     2  C    1.397463   0.000000
     3  C    1.399963   2.413814   0.000000
     4  C    2.421058   1.392885   2.786566   0.000000
     5  H    2.043619   0.950147   3.272630   2.039225   0.000000
     6  C    1.496530   2.541049   2.480142   3.810091   2.716889
     7  C    2.414817   2.779127   1.387013   2.408002   3.729228
     8  H    2.047146   3.273021   0.950109   3.736632   4.063567
     9  C    2.786301   2.403931   2.404542   1.387667   3.260982
    10  H    3.278797   2.042977   3.736665   0.950119   2.342893
    11  C    2.600103   3.407150   3.456615   4.638752   3.420120
    12  O    2.354029   3.332686   3.163857   4.589736   3.413147
    13  H    3.271839   3.728619   2.034469   3.263323   4.678681
    14  H    3.736210   3.261755   3.259932   2.034583   4.049198
    15  C    3.085505   3.429580   3.978306   4.492204   3.330499
    16  C    3.809655   4.754039   4.471347   5.999031   4.745411
    17  C    4.467127   4.778425   5.260472   5.765578   4.608083
    18  H    2.802120   2.809723   3.736260   3.735012   2.709456
    19  C    4.986757   5.797156   5.628923   6.994874   5.713626
    20  H    4.027455   5.105892   4.579745   6.363681   5.145879
    21  C    5.256784   5.809403   5.967127   6.899145   5.657224
    22  H    5.038821   5.145896   5.822271   5.990836   4.934024
    23  H    5.798643   6.678069   6.369607   7.889623   6.600393
    24  H    6.187654   6.695244   6.871601   7.747245   6.515342
                    6          7          8          9         10
     6  C    0.000000
     7  C    3.763130   0.000000
     8  H    2.620930   2.035246   0.000000
     9  C    4.279082   1.387200   3.261263   0.000000
    10  H    4.575496   3.265208   4.686711   2.037829   0.000000
    11  C    1.495169   4.674120   3.498062   5.154608   5.323066
    12  O    1.221501   4.458234   3.136024   5.038047   5.330771
    13  H    4.511488   0.949567   2.334899   2.034727   4.050363
    14  H    5.228480   2.033434   4.046081   0.949923   2.337447
    15  C    2.537727   4.926480   4.227705   5.135824   5.020449
    16  C    2.479176   5.776572   4.253744   6.425358   6.708172
    17  C    3.804937   6.175748   5.411872   6.389696   6.218673
    18  H    2.716281   4.476857   4.182182   4.469926   4.181573
    19  C    3.763108   6.857718   5.417036   7.452677   7.639048
    20  H    2.616515   5.946788   4.229297   6.711891   7.121750
    21  C    4.284219   7.036544   5.919175   7.442690   7.431099
    22  H    4.569487   6.587206   6.059777   6.654736   6.331765
    23  H    4.510144   7.631719   6.059967   8.304194   8.554868
    24  H    5.233249   7.905223   6.808965   8.292164   8.240880
                   11         12         13         14         15
    11  C    0.000000
    12  O    2.352211   0.000000
    13  H    5.380004   5.139038   0.000000
    14  H    6.071101   5.975176   2.332413   0.000000
    15  C    1.397140   3.576242   5.671380   5.970930   0.000000
    16  C    1.400396   2.807573   6.376535   7.344525   2.416598
    17  C    2.415332   4.720113   6.857501   7.173689   1.394557
    18  H    2.045674   3.848369   5.273000   5.258043   0.949629
    19  C    2.417537   4.168594   7.433795   8.337780   2.790484
    20  H    2.045335   2.548367   6.491320   7.642771   3.273506
    21  C    2.791872   4.959954   7.652974   8.268619   2.416481
    22  H    3.272181   5.544711   7.269093   7.364846   2.040640
    23  H    3.274172   4.744339   8.158574   9.193540   3.740125
    24  H    3.741249   5.884919   8.498322   9.091413   3.272933
                   16         17         18         19         20
    16  C    0.000000
    17  C    2.779944   0.000000
    18  H    3.276013   2.043131   0.000000
    19  C    1.384664   2.411145   3.740066   0.000000
    20  H    0.949746   3.729607   4.064490   2.031171   0.000000
    21  C    2.406945   1.390889   3.272678   1.394891   3.263520
    22  H    3.729747   0.949843   2.342925   3.268069   4.679370
    23  H    2.033181   3.268541   4.689659   0.949747   2.331159
    24  H    3.263351   2.039453   4.059507   2.042795   4.050092
                   21         22         23         24
    21  C    0.000000
    22  H    2.037493   0.000000
    23  H    2.043001   4.056081   0.000000
    24  H    0.949386   2.339229   2.345581   0.000000
 Stoichiometry    C13H10O
 Framework group  C1[X(C13H10O)]
 Deg. of freedom    66
 Full point group                 C1      NOp   1
 Largest Abelian subgroup         C1      NOp   1
 Largest concise Abelian subgroup C1      NOp   1
                         Standard orientation:                         
 ---------------------------------------------------------------------
 Center     Atomic      Atomic             Coordinates (Angstroms)
 Number     Number       Type             X           Y           Z
 ---------------------------------------------------------------------
      1          6           0       -1.310651    0.448256   -0.215885
      2          6           0       -1.893070   -0.469603   -1.094081
      3          6           0       -1.958462    0.749998    0.987938
      4          6           0       -3.099653   -1.085774   -0.770634
      5          1           0       -1.463936   -0.674255   -1.916723
      6          6           0        0.039102    1.050312   -0.451040
      7          6           0       -3.168895    0.147189    1.296606
      8          1           0       -1.568159    1.368268    1.594661
      9          6           0       -3.731516   -0.773441    0.424697
     10          1           0       -3.488358   -1.716716   -1.365233
     11          6           0        1.282828    0.288921   -0.120950
     12          8           0        0.126194    2.175816   -0.917645
     13          1           0       -3.613783    0.365695    2.106549
     14          1           0       -4.554411   -1.192292    0.647767
     15          6           0        1.355768   -1.104226   -0.197242
     16          6           0        2.433091    1.023511    0.192706
     17          6           0        2.571163   -1.748365    0.032300
     18          1           0        0.580104   -1.611150   -0.405009
     19          6           0        3.631731    0.377482    0.444112
     20          1           0        2.390472    1.971417    0.233632
     21          6           0        3.706991   -1.012390    0.352936
     22          1           0        2.623537   -2.694635   -0.031193
     23          1           0        4.402269    0.880904    0.678330
     24          1           0        4.532155   -1.454991    0.509593
 ---------------------------------------------------------------------
 Rotational constants (GHZ):           1.6008077           0.4132298           0.3722845
 Leave Link  202 at Tue Nov 22 14:58:15 2022, MaxMem= 16106127360 cpu:               0.4 elap:               0.0
 (Enter /opt/ap/G16/B01/g16/l301.exe)
 Standard basis: 6-311++G(d,p) (5D, 7F)
 Ernie: Thresh=  0.10000D-02 Tol=  0.10000D-05 Strict=F.
 There are   392 symmetry adapted cartesian basis functions of A   symmetry.
 There are   378 symmetry adapted basis functions of A   symmetry.
   378 basis functions,   594 primitive gaussians,   392 cartesian basis functions
    48 alpha electrons       48 beta electrons
       nuclear repulsion energy       782.7634211078 Hartrees.
 IExCor= 4639 DFT=T Ex+Corr=wB97XD ExCW=0 ScaHFX=  1.000000
 ScaDFX=  1.000000  1.000000  1.000000  1.000000 ScalE2=  1.000000  1.000000
 IRadAn=      5 IRanWt=     -1 IRanGd=            0 ICorTp=0 IEmpDi=121
 HFx  wShort=  0.000000 wLong=  0.200000 cFull=  0.222036 cShort=  0.000000 cLong=  0.777964
 DFx  wShort=  0.000000 wLong=  0.200000 cFull=  0.000000 cShort=  0.000000 cLong=  1.000000
 NAtoms=   24 NActive=   24 NUniq=   24 SFac= 1.00D+00 NAtFMM=   60 NAOKFM=F Big=F
 Integral buffers will be    131072 words long.
 Raffenetti 2 integral format.
 Two-electron integral symmetry is turned on.
 R6Disp:  Grimme-D2 Dispersion energy=       -0.0141135168 Hartrees.
 Nuclear repulsion after empirical dispersion term =      782.7493075910 Hartrees.
 Leave Link  301 at Tue Nov 22 14:58:15 2022, MaxMem= 16106127360 cpu:               1.4 elap:               0.0
 (Enter /opt/ap/G16/B01/g16/l302.exe)
 NPDir=0 NMtPBC=     1 NCelOv=     1 NCel=       1 NClECP=     1 NCelD=      1
         NCelK=      1 NCelE2=     1 NClLst=     1 CellRange=     0.0.
 One-electron integrals computed using PRISM.
 One-electron integral symmetry used in STVInt
 NBasis=   378 RedAO= T EigKep=  1.93D-06  NBF=   378
 NBsUse=   376 1.00D-06 EigRej=  8.71D-07 NBFU=   376
 Precomputing XC quadrature grid using
 IXCGrd= 4 IRadAn=           5 IRanWt=          -1 IRanGd=           0 AccXCQ= 0.00D+00.
 Generated NRdTot=       0 NPtTot=           0 NUsed=           0 NTot=          32
 NSgBfM=   392   392   392   392   392 MxSgAt=    24 MxSgA2=    24.
 Leave Link  302 at Tue Nov 22 14:58:15 2022, MaxMem= 16106127360 cpu:               9.6 elap:               0.3
 (Enter /opt/ap/G16/B01/g16/l303.exe)
 DipDrv:  MaxL=1.
 Leave Link  303 at Tue Nov 22 14:58:15 2022, MaxMem= 16106127360 cpu:               1.8 elap:               0.1
 (Enter /opt/ap/G16/B01/g16/l401.exe)
 ExpMin= 3.60D-02 ExpMax= 8.59D+03 ExpMxC= 1.30D+03 IAcc=3 IRadAn=         5 AccDes= 0.00D+00
 Harris functional with IExCor= 4639 and IRadAn=       5 diagonalized for initial guess.
 HarFok:  IExCor= 4639 AccDes= 0.00D+00 IRadAn=         5 IDoV= 1 UseB2=F ITyADJ=14
 ICtDFT=  3500011 ScaDFX=  1.000000  1.000000  1.000000  1.000000
 FoFCou: FMM=F IPFlag=           0 FMFlag=      100000 FMFlg1=           0
         NFxFlg=           0 DoJE=T BraDBF=F KetDBF=T FulRan=T
         wScrn=  0.000000 ICntrl=       500 IOpCl=  0 I1Cent=   200000004 NGrid=           0
         NMat0=    1 NMatS0=      1 NMatT0=    0 NMatD0=    1 NMtDS0=    0 NMtDT0=    0
 Petite list used in FoFCou.
 Harris En= -550.902188079116    
 JPrj=0 DoOrth=F DoCkMO=F.
 Leave Link  401 at Tue Nov 22 14:58:16 2022, MaxMem= 16106127360 cpu:              23.4 elap:               0.7
 (Enter /opt/ap/G16/B01/g16/l502.exe)
 Integral symmetry usage will be decided dynamically.
 Closed shell SCF:
 Using DIIS extrapolation, IDIIS=  1040.
 NGot= 16106127360 LenX= 16105803762 LenY= 16105649657
 Requested convergence on RMS density matrix=1.00D-08 within 512 cycles.
 Requested convergence on MAX density matrix=1.00D-06.
 Requested convergence on             energy=1.00D-06.
 No special actions if energy rises.
 Fock matrices will be formed incrementally for  20 cycles.

 Cycle   1  Pass 1  IDiag  1:
 FoFJK:  IHMeth= 1 ICntrl=       0 DoSepK=T KAlg= 0 I1Cent=           0 FoldK=F
 IRaf=         1 NMat=       1 IRICut=       1 DoRegI=T DoRafI=F ISym2E= 0 IDoP0=0 IntGTp=1.
 FoFCou: FMM=F IPFlag=           0 FMFlag=      100000 FMFlg1=           0
         NFxFlg=           0 DoJE=T BraDBF=F KetDBF=F FulRan=T
         wScrn=  0.000000 ICntrl=       500 IOpCl=  0 I1Cent=           0 NGrid=           0
         NMat0=    1 NMatS0=      1 NMatT0=    0 NMatD0=    1 NMtDS0=    0 NMtDT0=    0
 Symmetry not used in FoFCou.
 E= -576.254825672235    
 DIIS: error= 4.40D-02 at cycle   1 NSaved=   1.
 NSaved= 1 IEnMin= 1 EnMin= -576.254825672235     IErMin= 1 ErrMin= 4.40D-02
 ErrMax= 4.40D-02  0.00D+00 EMaxC= 1.00D-01 BMatC= 1.20D+00 BMatP= 1.20D+00
 IDIUse=3 WtCom= 5.60D-01 WtEn= 4.40D-01
 Coeff-Com:  0.100D+01
 Coeff-En:   0.100D+01
 Coeff:      0.100D+01
 Gap=     0.421 Goal=   None    Shift=    0.000
 GapD=    0.421 DampG=2.000 DampE=0.500 DampFc=1.0000 IDamp=-1.
 RMSDP=2.47D-02 MaxDP=4.10D+00              OVMax= 1.17D-01

 Cycle   2  Pass 1  IDiag  1:
 RMSU=  1.61D-02    CP:  7.58D-01
 E= -576.345949110093     Delta-E=       -0.091123437858 Rises=F Damp=F
 DIIS: error= 1.17D-02 at cycle   2 NSaved=   2.
 NSaved= 2 IEnMin= 2 EnMin= -576.345949110093     IErMin= 2 ErrMin= 1.17D-02
 ErrMax= 1.17D-02  0.00D+00 EMaxC= 1.00D-01 BMatC= 7.53D-02 BMatP= 1.20D+00
 IDIUse=3 WtCom= 8.83D-01 WtEn= 1.17D-01
 Coeff-Com:  0.126D+00 0.874D+00
 Coeff-En:   0.143D+00 0.857D+00
 Coeff:      0.128D+00 0.872D+00
 Gap=     0.441 Goal=   None    Shift=    0.000
 RMSDP=1.08D-02 MaxDP=1.20D+00 DE=-9.11D-02 OVMax= 1.41D-01

 Cycle   3  Pass 1  IDiag  1:
 RMSU=  6.20D-03    CP:  7.16D-01  4.92D-01
 E= -576.365008783420     Delta-E=       -0.019059673327 Rises=F Damp=F
 DIIS: error= 1.14D-02 at cycle   3 NSaved=   3.
 NSaved= 3 IEnMin= 3 EnMin= -576.365008783420     IErMin= 3 ErrMin= 1.14D-02
 ErrMax= 1.14D-02  0.00D+00 EMaxC= 1.00D-01 BMatC= 5.23D-02 BMatP= 7.53D-02
 IDIUse=3 WtCom= 8.86D-01 WtEn= 1.14D-01
 Coeff-Com:  0.237D-01 0.458D+00 0.518D+00
 Coeff-En:   0.000D+00 0.418D+00 0.582D+00
 Coeff:      0.210D-01 0.454D+00 0.525D+00
 Gap=     0.358 Goal=   None    Shift=    0.000
 RMSDP=4.66D-03 MaxDP=5.43D-01 DE=-1.91D-02 OVMax= 5.90D-02

 Cycle   4  Pass 1  IDiag  1:
 RMSU=  1.47D-03    CP:  6.92D-01  7.01D-01  6.47D-01
 E= -576.411554215021     Delta-E=       -0.046545431600 Rises=F Damp=F
 DIIS: error= 1.51D-03 at cycle   4 NSaved=   4.
 NSaved= 4 IEnMin= 4 EnMin= -576.411554215021     IErMin= 4 ErrMin= 1.51D-03
 ErrMax= 1.51D-03  0.00D+00 EMaxC= 1.00D-01 BMatC= 7.83D-04 BMatP= 5.23D-02
 IDIUse=3 WtCom= 9.85D-01 WtEn= 1.51D-02
 Coeff-Com:  0.913D-02 0.189D+00 0.237D+00 0.565D+00
 Coeff-En:   0.000D+00 0.000D+00 0.000D+00 0.100D+01
 Coeff:      0.899D-02 0.186D+00 0.233D+00 0.572D+00
 Gap=     0.327 Goal=   None    Shift=    0.000
 RMSDP=6.79D-04 MaxDP=4.86D-02 DE=-4.65D-02 OVMax= 6.26D-03

 Cycle   5  Pass 1  IDiag  1:
 RMSU=  4.39D-04    CP:  6.95D-01  7.26D-01  6.88D-01  9.63D-01
 E= -576.412113558054     Delta-E=       -0.000559343033 Rises=F Damp=F
 DIIS: error= 4.97D-04 at cycle   5 NSaved=   5.
 NSaved= 5 IEnMin= 5 EnMin= -576.412113558054     IErMin= 5 ErrMin= 4.97D-04
 ErrMax= 4.97D-04  0.00D+00 EMaxC= 1.00D-01 BMatC= 7.52D-05 BMatP= 7.83D-04
 IDIUse=3 WtCom= 9.95D-01 WtEn= 4.97D-03
 Coeff-Com: -0.537D-03-0.712D-02 0.804D-03 0.223D+00 0.784D+00
 Coeff-En:   0.000D+00 0.000D+00 0.000D+00 0.000D+00 0.100D+01
 Coeff:     -0.534D-03-0.709D-02 0.800D-03 0.222D+00 0.785D+00
 Gap=     0.328 Goal=   None    Shift=    0.000
 RMSDP=3.72D-04 MaxDP=4.32D-02 DE=-5.59D-04 OVMax= 2.61D-03

 Cycle   6  Pass 1  IDiag  1:
 RMSU=  1.83D-04    CP:  6.92D-01  7.26D-01  7.00D-01  1.08D+00  9.41D-01
 E= -576.412169642374     Delta-E=       -0.000056084321 Rises=F Damp=F
 DIIS: error= 2.10D-04 at cycle   6 NSaved=   6.
 NSaved= 6 IEnMin= 6 EnMin= -576.412169642374     IErMin= 6 ErrMin= 2.10D-04
 ErrMax= 2.10D-04  0.00D+00 EMaxC= 1.00D-01 BMatC= 1.84D-05 BMatP= 7.52D-05
 IDIUse=3 WtCom= 9.98D-01 WtEn= 2.10D-03
 Coeff-Com: -0.122D-02-0.228D-01-0.227D-01 0.663D-01 0.434D+00 0.546D+00
 Coeff-En:   0.000D+00 0.000D+00 0.000D+00 0.000D+00 0.000D+00 0.100D+01
 Coeff:     -0.121D-02-0.227D-01-0.227D-01 0.661D-01 0.434D+00 0.547D+00
 Gap=     0.328 Goal=   None    Shift=    0.000
 RMSDP=1.08D-04 MaxDP=8.73D-03 DE=-5.61D-05 OVMax= 1.28D-03

 Cycle   7  Pass 1  IDiag  1:
 RMSU=  7.08D-05    CP:  6.92D-01  7.24D-01  7.08D-01  1.12D+00  1.02D+00
                    CP:  1.05D+00
 E= -576.412188094365     Delta-E=       -0.000018451991 Rises=F Damp=F
 DIIS: error= 4.27D-05 at cycle   7 NSaved=   7.
 NSaved= 7 IEnMin= 7 EnMin= -576.412188094365     IErMin= 7 ErrMin= 4.27D-05
 ErrMax= 4.27D-05  0.00D+00 EMaxC= 1.00D-01 BMatC= 5.00D-07 BMatP= 1.84D-05
 IDIUse=1 WtCom= 1.00D+00 WtEn= 0.00D+00
 Coeff-Com: -0.237D-03-0.459D-02-0.537D-02-0.950D-02-0.474D-02 0.112D+00
 Coeff-Com:  0.912D+00
 Coeff:     -0.237D-03-0.459D-02-0.537D-02-0.950D-02-0.474D-02 0.112D+00
 Coeff:      0.912D+00
 Gap=     0.328 Goal=   None    Shift=    0.000
 RMSDP=4.51D-05 MaxDP=4.83D-03 DE=-1.85D-05 OVMax= 5.44D-04

 Cycle   8  Pass 1  IDiag  1:
 RMSU=  2.12D-05    CP:  6.92D-01  7.25D-01  7.09D-01  1.13D+00  1.03D+00
                    CP:  1.21D+00  1.10D+00
 E= -576.412189285866     Delta-E=       -0.000001191500 Rises=F Damp=F
 DIIS: error= 1.27D-05 at cycle   8 NSaved=   8.
 NSaved= 8 IEnMin= 8 EnMin= -576.412189285866     IErMin= 8 ErrMin= 1.27D-05
 ErrMax= 1.27D-05  0.00D+00 EMaxC= 1.00D-01 BMatC= 8.60D-08 BMatP= 5.00D-07
 IDIUse=1 WtCom= 1.00D+00 WtEn= 0.00D+00
 Coeff-Com:  0.539D-04 0.814D-03 0.443D-03-0.126D-01-0.598D-01-0.250D-01
 Coeff-Com:  0.319D+00 0.778D+00
 Coeff:      0.539D-04 0.814D-03 0.443D-03-0.126D-01-0.598D-01-0.250D-01
 Coeff:      0.319D+00 0.778D+00
 Gap=     0.328 Goal=   None    Shift=    0.000
 RMSDP=1.39D-05 MaxDP=1.13D-03 DE=-1.19D-06 OVMax= 2.21D-04

 Cycle   9  Pass 1  IDiag  1:
 RMSU=  6.92D-06    CP:  6.92D-01  7.25D-01  7.09D-01  1.13D+00  1.02D+00
                    CP:  1.26D+00  1.12D+00  1.26D+00
 E= -576.412189460377     Delta-E=       -0.000000174511 Rises=F Damp=F
 DIIS: error= 3.88D-06 at cycle   9 NSaved=   9.
 NSaved= 9 IEnMin= 9 EnMin= -576.412189460377     IErMin= 9 ErrMin= 3.88D-06
 ErrMax= 3.88D-06  0.00D+00 EMaxC= 1.00D-01 BMatC= 6.27D-09 BMatP= 8.60D-08
 IDIUse=1 WtCom= 1.00D+00 WtEn= 0.00D+00
 Coeff-Com:  0.405D-04 0.722D-03 0.738D-03-0.773D-03-0.103D-01-0.164D-01
 Coeff-Com: -0.609D-01 0.143D+00 0.944D+00
 Coeff:      0.405D-04 0.722D-03 0.738D-03-0.773D-03-0.103D-01-0.164D-01
 Coeff:     -0.609D-01 0.143D+00 0.944D+00
 Gap=     0.328 Goal=   None    Shift=    0.000
 RMSDP=8.43D-06 MaxDP=7.37D-04 DE=-1.75D-07 OVMax= 8.31D-05

 Cycle  10  Pass 1  IDiag  1:
 RMSU=  2.01D-06    CP:  6.92D-01  7.25D-01  7.08D-01  1.13D+00  1.01D+00
                    CP:  1.27D+00  1.13D+00  1.48D+00  1.33D+00
 E= -576.412189478272     Delta-E=       -0.000000017895 Rises=F Damp=F
 DIIS: error= 1.08D-06 at cycle  10 NSaved=  10.
 NSaved=10 IEnMin=10 EnMin= -576.412189478272     IErMin=10 ErrMin= 1.08D-06
 ErrMax= 1.08D-06  0.00D+00 EMaxC= 1.00D-01 BMatC= 5.45D-10 BMatP= 6.27D-09
 IDIUse=1 WtCom= 1.00D+00 WtEn= 0.00D+00
 Coeff-Com: -0.139D-05 0.143D-05 0.309D-04 0.131D-02 0.444D-02 0.172D-02
 Coeff-Com: -0.321D-01-0.579D-01 0.104D+00 0.978D+00
 Coeff:     -0.139D-05 0.143D-05 0.309D-04 0.131D-02 0.444D-02 0.172D-02
 Coeff:     -0.321D-01-0.579D-01 0.104D+00 0.978D+00
 Gap=     0.328 Goal=   None    Shift=    0.000
 RMSDP=2.69D-06 MaxDP=2.98D-04 DE=-1.79D-08 OVMax= 1.81D-05

 Cycle  11  Pass 1  IDiag  1:
 RMSU=  7.08D-07    CP:  6.92D-01  7.25D-01  7.08D-01  1.13D+00  1.01D+00
                    CP:  1.27D+00  1.12D+00  1.52D+00  1.40D+00  1.05D+00
 E= -576.412189479843     Delta-E=       -0.000000001571 Rises=F Damp=F
 DIIS: error= 5.22D-07 at cycle  11 NSaved=  11.
 NSaved=11 IEnMin=11 EnMin= -576.412189479843     IErMin=11 ErrMin= 5.22D-07
 ErrMax= 5.22D-07  0.00D+00 EMaxC= 1.00D-01 BMatC= 9.94D-11 BMatP= 5.45D-10
 IDIUse=1 WtCom= 1.00D+00 WtEn= 0.00D+00
 Coeff-Com: -0.330D-05-0.477D-04-0.404D-04 0.511D-03 0.206D-02 0.170D-02
 Coeff-Com: -0.530D-02-0.311D-01-0.460D-01 0.313D+00 0.765D+00
 Coeff:     -0.330D-05-0.477D-04-0.404D-04 0.511D-03 0.206D-02 0.170D-02
 Coeff:     -0.530D-02-0.311D-01-0.460D-01 0.313D+00 0.765D+00
 Gap=     0.328 Goal=   None    Shift=    0.000
 RMSDP=6.75D-07 MaxDP=6.22D-05 DE=-1.57D-09 OVMax= 6.73D-06

 Cycle  12  Pass 1  IDiag  1:
 RMSU=  1.57D-07    CP:  6.92D-01  7.25D-01  7.08D-01  1.13D+00  1.01D+00
                    CP:  1.27D+00  1.12D+00  1.53D+00  1.42D+00  1.14D+00
                    CP:  1.18D+00
 E= -576.412189480050     Delta-E=       -0.000000000207 Rises=F Damp=F
 DIIS: error= 3.03D-07 at cycle  12 NSaved=  12.
 NSaved=12 IEnMin=12 EnMin= -576.412189480050     IErMin=12 ErrMin= 3.03D-07
 ErrMax= 3.03D-07  0.00D+00 EMaxC= 1.00D-01 BMatC= 1.38D-11 BMatP= 9.94D-11
 IDIUse=1 WtCom= 1.00D+00 WtEn= 0.00D+00
 Coeff-Com: -0.296D-06-0.913D-05-0.135D-04-0.120D-03-0.435D-03-0.635D-05
 Coeff-Com:  0.486D-02 0.440D-02-0.266D-01-0.110D+00 0.129D+00 0.999D+00
 Coeff:     -0.296D-06-0.913D-05-0.135D-04-0.120D-03-0.435D-03-0.635D-05
 Coeff:      0.486D-02 0.440D-02-0.266D-01-0.110D+00 0.129D+00 0.999D+00
 Gap=     0.328 Goal=   None    Shift=    0.000
 RMSDP=3.18D-07 MaxDP=2.58D-05 DE=-2.07D-10 OVMax= 4.92D-06

 Cycle  13  Pass 1  IDiag  1:
 RMSU=  1.09D-07    CP:  6.92D-01  7.25D-01  7.08D-01  1.13D+00  1.01D+00
                    CP:  1.27D+00  1.11D+00  1.52D+00  1.42D+00  1.15D+00
                    CP:  1.32D+00  1.37D+00
 E= -576.412189480121     Delta-E=       -0.000000000071 Rises=F Damp=F
 DIIS: error= 1.52D-07 at cycle  13 NSaved=  13.
 NSaved=13 IEnMin=13 EnMin= -576.412189480121     IErMin=13 ErrMin= 1.52D-07
 ErrMax= 1.52D-07  0.00D+00 EMaxC= 1.00D-01 BMatC= 3.59D-12 BMatP= 1.38D-11
 IDIUse=1 WtCom= 1.00D+00 WtEn= 0.00D+00
 Coeff-Com:  0.419D-06 0.368D-05 0.106D-05-0.130D-03-0.492D-03-0.294D-03
 Coeff-Com:  0.257D-02 0.667D-02-0.181D-02-0.901D-01-0.801D-01 0.377D+00
 Coeff-Com:  0.787D+00
 Coeff:      0.419D-06 0.368D-05 0.106D-05-0.130D-03-0.492D-03-0.294D-03
 Coeff:      0.257D-02 0.667D-02-0.181D-02-0.901D-01-0.801D-01 0.377D+00
 Coeff:      0.787D+00
 Gap=     0.328 Goal=   None    Shift=    0.000
 RMSDP=1.48D-07 MaxDP=1.29D-05 DE=-7.07D-11 OVMax= 2.23D-06

 Cycle  14  Pass 1  IDiag  1:
 RMSU=  5.70D-08    CP:  6.92D-01  7.25D-01  7.08D-01  1.13D+00  1.01D+00
                    CP:  1.27D+00  1.12D+00  1.52D+00  1.42D+00  1.14D+00
                    CP:  1.38D+00  1.50D+00  1.24D+00
 E= -576.412189480125     Delta-E=       -0.000000000005 Rises=F Damp=F
 DIIS: error= 7.16D-08 at cycle  14 NSaved=  14.
 NSaved=14 IEnMin=14 EnMin= -576.412189480125     IErMin=14 ErrMin= 7.16D-08
 ErrMax= 7.16D-08  0.00D+00 EMaxC= 1.00D-01 BMatC= 5.35D-13 BMatP= 3.59D-12
 IDIUse=1 WtCom= 1.00D+00 WtEn= 0.00D+00
 Coeff-Com:  0.110D-06 0.248D-05 0.338D-05-0.220D-05 0.107D-04-0.570D-04
 Coeff-Com: -0.540D-03 0.185D-03 0.450D-02 0.651D-02-0.382D-01-0.144D+00
 Coeff-Com:  0.945D-01 0.108D+01
 Coeff:      0.110D-06 0.248D-05 0.338D-05-0.220D-05 0.107D-04-0.570D-04
 Coeff:     -0.540D-03 0.185D-03 0.450D-02 0.651D-02-0.382D-01-0.144D+00
 Coeff:      0.945D-01 0.108D+01
 Gap=     0.328 Goal=   None    Shift=    0.000
 RMSDP=7.78D-08 MaxDP=7.26D-06 DE=-4.55D-12 OVMax= 1.43D-06

 Cycle  15  Pass 1  IDiag  1:
 RMSU=  1.69D-08    CP:  6.92D-01  7.25D-01  7.08D-01  1.13D+00  1.01D+00
                    CP:  1.27D+00  1.12D+00  1.52D+00  1.41D+00  1.13D+00
                    CP:  1.40D+00  1.56D+00  1.54D+00  1.42D+00
 E= -576.412189480124     Delta-E=        0.000000000001 Rises=F Damp=F
 DIIS: error= 2.28D-08 at cycle  15 NSaved=  15.
 NSaved=15 IEnMin=14 EnMin= -576.412189480125     IErMin=15 ErrMin= 2.28D-08
 ErrMax= 2.28D-08  0.00D+00 EMaxC= 1.00D-01 BMatC= 1.27D-13 BMatP= 5.35D-13
 IDIUse=1 WtCom= 1.00D+00 WtEn= 0.00D+00
 Coeff-Com: -0.358D-07 0.336D-06 0.126D-05 0.231D-04 0.973D-04 0.381D-04
 Coeff-Com: -0.651D-03-0.113D-02 0.210D-02 0.198D-01 0.247D-02-0.121D+00
 Coeff-Com: -0.121D+00 0.400D+00 0.820D+00
 Coeff:     -0.358D-07 0.336D-06 0.126D-05 0.231D-04 0.973D-04 0.381D-04
 Coeff:     -0.651D-03-0.113D-02 0.210D-02 0.198D-01 0.247D-02-0.121D+00
 Coeff:     -0.121D+00 0.400D+00 0.820D+00
 Gap=     0.328 Goal=   None    Shift=    0.000
 RMSDP=2.53D-08 MaxDP=2.20D-06 DE= 9.09D-13 OVMax= 5.07D-07

 Cycle  16  Pass 1  IDiag  1:
 RMSU=  6.04D-09    CP:  6.92D-01  7.25D-01  7.08D-01  1.13D+00  1.01D+00
                    CP:  1.27D+00  1.12D+00  1.52D+00  1.41D+00  1.13D+00
                    CP:  1.39D+00  1.57D+00  1.62D+00  1.61D+00  1.21D+00
 E= -576.412189480137     Delta-E=       -0.000000000013 Rises=F Damp=F
 DIIS: error= 6.72D-09 at cycle  16 NSaved=  16.
 NSaved=16 IEnMin=16 EnMin= -576.412189480137     IErMin=16 ErrMin= 6.72D-09
 ErrMax= 6.72D-09  0.00D+00 EMaxC= 1.00D-01 BMatC= 8.01D-15 BMatP= 1.27D-13
 IDIUse=1 WtCom= 1.00D+00 WtEn= 0.00D+00
 Coeff-Com: -0.144D-07-0.315D-06-0.391D-06 0.265D-05 0.749D-05 0.144D-04
 Coeff-Com:  0.116D-04-0.149D-03-0.510D-03 0.771D-03 0.554D-02 0.998D-02
 Coeff-Com: -0.254D-01-0.114D+00 0.374D-01 0.109D+01
 Coeff:     -0.144D-07-0.315D-06-0.391D-06 0.265D-05 0.749D-05 0.144D-04
 Coeff:      0.116D-04-0.149D-03-0.510D-03 0.771D-03 0.554D-02 0.998D-02
 Coeff:     -0.254D-01-0.114D+00 0.374D-01 0.109D+01
 Gap=     0.328 Goal=   None    Shift=    0.000
 RMSDP=7.72D-09 MaxDP=5.66D-07 DE=-1.30D-11 OVMax= 1.90D-07

 SCF Done:  E(RwB97XD) =  -576.412189480     A.U. after   16 cycles
            NFock= 16  Conv=0.77D-08     -V/T= 2.0000
 KE= 5.764042561895D+02 PE=-2.907637385267D+03 EE= 9.720716320059D+02
 Leave Link  502 at Tue Nov 22 14:58:56 2022, MaxMem= 16106127360 cpu:            1270.7 elap:              40.0
 (Enter /opt/ap/G16/B01/g16/l601.exe)
 Copying SCF densities to generalized density rwf, IOpCl= 0 IROHF=0.

 **********************************************************************

            Population analysis using the SCF Density.

 **********************************************************************

 Orbital symmetries:
       Occupied  (A) (A) (A) (A) (A) (A) (A) (A) (A) (A) (A) (A)
                 (A) (A) (A) (A) (A) (A) (A) (A) (A) (A) (A) (A)
                 (A) (A) (A) (A) (A) (A) (A) (A) (A) (A) (A) (A)
                 (A) (A) (A) (A) (A) (A) (A) (A) (A) (A) (A) (A)
       Virtual   (A) (A) (A) (A) (A) (A) (A) (A) (A) (A) (A) (A)
                 (A) (A) (A) (A) (A) (A) (A) (A) (A) (A) (A) (A)
                 (A) (A) (A) (A) (A) (A) (A) (A) (A) (A) (A) (A)
                 (A) (A) (A) (A) (A) (A) (A) (A) (A) (A) (A) (A)
                 (A) (A) (A) (A) (A) (A) (A) (A) (A) (A) (A) (A)
                 (A) (A) (A) (A) (A) (A) (A) (A) (A) (A) (A) (A)
                 (A) (A) (A) (A) (A) (A) (A) (A) (A) (A) (A) (A)
                 (A) (A) (A) (A) (A) (A) (A) (A) (A) (A) (A) (A)
                 (A) (A) (A) (A) (A) (A) (A) (A) (A) (A) (A) (A)
                 (A) (A) (A) (A) (A) (A) (A) (A) (A) (A) (A) (A)
                 (A) (A) (A) (A) (A) (A) (A) (A) (A) (A) (A) (A)
                 (A) (A) (A) (A) (A) (A) (A) (A) (A) (A) (A) (A)
                 (A) (A) (A) (A) (A) (A) (A) (A) (A) (A) (A) (A)
                 (A) (A) (A) (A) (A) (A) (A) (A) (A) (A) (A) (A)
                 (A) (A) (A) (A) (A) (A) (A) (A) (A) (A) (A) (A)
                 (A) (A) (A) (A) (A) (A) (A) (A) (A) (A) (A) (A)
                 (A) (A) (A) (A) (A) (A) (A) (A) (A) (A) (A) (A)
                 (A) (A) (A) (A) (A) (A) (A) (A) (A) (A) (A) (A)
                 (A) (A) (A) (A) (A) (A) (A) (A) (A) (A) (A) (A)
                 (A) (A) (A) (A) (A) (A) (A) (A) (A) (A) (A) (A)
                 (A) (A) (A) (A) (A) (A) (A) (A) (A) (A) (A) (A)
                 (A) (A) (A) (A) (A) (A) (A) (A) (A) (A) (A) (A)
                 (A) (A) (A) (A) (A) (A) (A) (A) (A) (A) (A) (A)
                 (A) (A) (A) (A) (A) (A) (A) (A) (A) (A) (A) (A)
                 (A) (A) (A) (A) (A) (A) (A) (A) (A) (A) (A) (A)
                 (A) (A) (A) (A) (A) (A) (A) (A) (A) (A) (A) (A)
                 (A) (A) (A) (A) (A) (A) (A) (A) (A) (A) (A) (A)
                 (A) (A) (A) (A)
 The electronic state is 1-A.
 Alpha  occ. eigenvalues --  -19.24313 -10.38524 -10.30723 -10.30681 -10.29076
 Alpha  occ. eigenvalues --  -10.28737 -10.28683 -10.28553 -10.28530 -10.28486
 Alpha  occ. eigenvalues --  -10.28331 -10.28315 -10.28130 -10.27977  -1.15195
 Alpha  occ. eigenvalues --   -0.97932  -0.97407  -0.89128  -0.87431  -0.87275
 Alpha  occ. eigenvalues --   -0.86845  -0.76820  -0.73952  -0.73503  -0.72597
 Alpha  occ. eigenvalues --   -0.68065  -0.65510  -0.62952  -0.60365  -0.56952
 Alpha  occ. eigenvalues --   -0.56286  -0.55667  -0.54431  -0.54030  -0.53863
 Alpha  occ. eigenvalues --   -0.52461  -0.49121  -0.47199  -0.46674  -0.46124
 Alpha  occ. eigenvalues --   -0.45957  -0.44865  -0.44332  -0.35236  -0.34747
 Alpha  occ. eigenvalues --   -0.34275  -0.34149  -0.32816
 Alpha virt. eigenvalues --    0.00032   0.03625   0.04091   0.04345   0.04386
 Alpha virt. eigenvalues --    0.04785   0.04940   0.05588   0.05841   0.06974
 Alpha virt. eigenvalues --    0.07378   0.08078   0.09039   0.09105   0.10312
 Alpha virt. eigenvalues --    0.11625   0.11760   0.12076   0.13409   0.14200
 Alpha virt. eigenvalues --    0.14970   0.15323   0.15709   0.16079   0.16518
 Alpha virt. eigenvalues --    0.16920   0.17017   0.17255   0.17574   0.17836
 Alpha virt. eigenvalues --    0.18042   0.18408   0.18664   0.18734   0.18996
 Alpha virt. eigenvalues --    0.19837   0.20147   0.20327   0.20865   0.21384
 Alpha virt. eigenvalues --    0.21595   0.22020   0.22806   0.23485   0.23634
 Alpha virt. eigenvalues --    0.23967   0.24554   0.24934   0.25361   0.25480
 Alpha virt. eigenvalues --    0.25806   0.26564   0.27467   0.27500   0.28089
 Alpha virt. eigenvalues --    0.28468   0.29741   0.30054   0.30667   0.30960
 Alpha virt. eigenvalues --    0.31484   0.31836   0.32477   0.33097   0.33271
 Alpha virt. eigenvalues --    0.34109   0.34901   0.35051   0.35492   0.36628
 Alpha virt. eigenvalues --    0.37428   0.37579   0.37833   0.38116   0.38636
 Alpha virt. eigenvalues --    0.38873   0.39311   0.40806   0.41146   0.42029
 Alpha virt. eigenvalues --    0.42367   0.42984   0.43423   0.44318   0.44911
 Alpha virt. eigenvalues --    0.45565   0.45918   0.46607   0.48504   0.49819
 Alpha virt. eigenvalues --    0.52652   0.56145   0.57289   0.57677   0.60002
 Alpha virt. eigenvalues --    0.60914   0.62265   0.62594   0.62893   0.63653
 Alpha virt. eigenvalues --    0.63887   0.64569   0.65219   0.65469   0.66044
 Alpha virt. eigenvalues --    0.66114   0.66970   0.68249   0.68597   0.69084
 Alpha virt. eigenvalues --    0.70335   0.71252   0.71998   0.74543   0.75018
 Alpha virt. eigenvalues --    0.75139   0.76778   0.76885   0.77883   0.78393
 Alpha virt. eigenvalues --    0.79058   0.80266   0.80948   0.81784   0.82953
 Alpha virt. eigenvalues --    0.83377   0.83835   0.84393   0.86285   0.87436
 Alpha virt. eigenvalues --    0.88375   0.89515   0.92222   0.93355   0.94055
 Alpha virt. eigenvalues --    0.94225   0.94486   0.95069   0.95289   0.95998
 Alpha virt. eigenvalues --    0.96374   0.97526   0.99738   1.00057   1.01157
 Alpha virt. eigenvalues --    1.01931   1.02711   1.02997   1.04784   1.05137
 Alpha virt. eigenvalues --    1.07107   1.09431   1.10765   1.12553   1.13525
 Alpha virt. eigenvalues --    1.14486   1.15644   1.16342   1.17001   1.17790
 Alpha virt. eigenvalues --    1.18986   1.20374   1.21575   1.23002   1.23652
 Alpha virt. eigenvalues --    1.27738   1.31970   1.33965   1.37085   1.39233
 Alpha virt. eigenvalues --    1.42453   1.43870   1.45231   1.49056   1.55093
 Alpha virt. eigenvalues --    1.55999   1.58931   1.59539   1.60798   1.61764
 Alpha virt. eigenvalues --    1.62195   1.63616   1.65420   1.66562   1.67093
 Alpha virt. eigenvalues --    1.68101   1.69029   1.69168   1.69841   1.73599
 Alpha virt. eigenvalues --    1.75976   1.76304   1.76491   1.76844   1.78252
 Alpha virt. eigenvalues --    1.78581   1.82561   1.83827   1.86087   1.89981
 Alpha virt. eigenvalues --    1.90312   1.90949   1.91768   1.92225   1.94122
 Alpha virt. eigenvalues --    1.94915   1.95710   1.97046   2.00028   2.01562
 Alpha virt. eigenvalues --    2.02133   2.03344   2.04474   2.04881   2.05220
 Alpha virt. eigenvalues --    2.05347   2.07301   2.08004   2.08822   2.09861
 Alpha virt. eigenvalues --    2.10386   2.15561   2.16494   2.18148   2.20693
 Alpha virt. eigenvalues --    2.20947   2.26373   2.26861   2.27332   2.30628
 Alpha virt. eigenvalues --    2.32806   2.42572   2.43031   2.47079   2.47607
 Alpha virt. eigenvalues --    2.49560   2.49914   2.50041   2.51654   2.54094
 Alpha virt. eigenvalues --    2.58906   2.59380   2.59948   2.66550   2.67983
 Alpha virt. eigenvalues --    2.72867   2.77065   2.78452   2.81216   2.81613
 Alpha virt. eigenvalues --    2.83251   2.83874   2.84540   2.87911   2.88146
 Alpha virt. eigenvalues --    2.91609   2.91998   2.93365   2.94830   2.96688
 Alpha virt. eigenvalues --    2.97009   2.97177   2.98740   2.99321   3.00289
 Alpha virt. eigenvalues --    3.00793   3.01305   3.02081   3.03164   3.04283
 Alpha virt. eigenvalues --    3.05712   3.10572   3.13144   3.15135   3.18440
 Alpha virt. eigenvalues --    3.19610   3.21585   3.22969   3.25468   3.26006
 Alpha virt. eigenvalues --    3.27862   3.30470   3.32773   3.36895   3.44737
 Alpha virt. eigenvalues --    3.48761   3.50371   3.51348   3.52957   3.64397
 Alpha virt. eigenvalues --    3.69284   3.70677   3.71367   3.76065   3.76852
 Alpha virt. eigenvalues --    3.83453   3.89005   3.90931   3.99668   4.29282
 Alpha virt. eigenvalues --    4.36710   4.37264   4.39016   4.40732   4.41557
 Alpha virt. eigenvalues --    4.42739   4.50214   4.51284   4.52327   4.95033
 Alpha virt. eigenvalues --    4.95281   5.24082   5.34965   5.85361  23.89139
 Alpha virt. eigenvalues --   23.96161  23.98489  24.17146  24.19675  24.24003
 Alpha virt. eigenvalues --   24.24794  24.30040  24.31559  24.33841  24.34245
 Alpha virt. eigenvalues --   24.43428  24.44310  50.13206
          Condensed to atoms (all electrons):
               1          2          3          4          5          6
     1  C   12.682159  -0.929761   0.463908  -0.738486   0.019141  -3.924377
     2  C   -0.929761   9.932297  -4.607204   0.404247   0.463957   0.922771
     3  C    0.463908  -4.607204  15.442400  -0.395584   0.047136  -6.552001
     4  C   -0.738486   0.404247  -0.395584   5.918177  -0.059453   0.554210
     5  H    0.019141   0.463957   0.047136  -0.059453   0.484512  -0.161318
     6  C   -3.924377   0.922771  -6.552001   0.554210  -0.161318  21.922787
     7  C   -0.740470   0.914119  -1.702142   0.036240   0.008822   0.881795
     8  H    0.011297  -0.083030   0.662009  -0.012639  -0.001776  -0.176916
     9  C   -0.308179  -0.760801   1.249752   0.429382   0.002198  -1.016867
    10  H   -0.016521  -0.052593  -0.035744   0.461497  -0.011292   0.036144
    11  C   -1.102172  -0.299980   2.601318  -0.440459   0.062876  -7.319150
    12  O    0.354559  -0.039245  -0.030058  -0.009901  -0.000278   0.195538
    13  H    0.012921   0.031071  -0.151314   0.008909   0.001626   0.040564
    14  H    0.034917  -0.008481   0.043104  -0.075432  -0.000079  -0.027562
    15  C    1.092245  -0.745147   0.642684   0.063783  -0.066050  -1.118123
    16  C   -1.191761   0.589698  -0.626055   0.020857   0.016906   0.825454
    17  C   -0.259696   0.107591  -0.547670   0.117978  -0.016147   1.615332
    18  H    0.038493  -0.021519   0.019499  -0.023317  -0.004645   0.015403
    19  C   -0.327021   0.251229  -0.235460   0.000344   0.000832  -0.091513
    20  H   -0.004976   0.007159  -0.043908   0.002465  -0.001220   0.066441
    21  C    0.040927  -0.107750   0.105374   0.008580  -0.002041   0.082414
    22  H   -0.014323   0.011352  -0.008586   0.001608   0.000422  -0.000275
    23  H   -0.002442   0.003450   0.000983  -0.000350   0.000310  -0.009360
    24  H    0.003388  -0.004306   0.003636  -0.000243  -0.000161  -0.006038
               7          8          9         10         11         12
     1  C   -0.740470   0.011297  -0.308179  -0.016521  -1.102172   0.354559
     2  C    0.914119  -0.083030  -0.760801  -0.052593  -0.299980  -0.039245
     3  C   -1.702142   0.662009   1.249752  -0.035744   2.601318  -0.030058
     4  C    0.036240  -0.012639   0.429382   0.461497  -0.440459  -0.009901
     5  H    0.008822  -0.001776   0.002198  -0.011292   0.062876  -0.000278
     6  C    0.881795  -0.176916  -1.016867   0.036144  -7.319150   0.195538
     7  C    6.738486  -0.181187  -0.124339   0.025319  -0.054589  -0.035156
     8  H   -0.181187   0.511667   0.038343   0.000063   0.079334  -0.002438
     9  C   -0.124339   0.038343   6.171178  -0.082800   0.307282   0.009258
    10  H    0.025319   0.000063  -0.082800   0.490280   0.003045  -0.000007
    11  C   -0.054589   0.079334   0.307282   0.003045  15.800642  -0.059502
    12  O   -0.035156  -0.002438   0.009258  -0.000007  -0.059502   7.862269
    13  H    0.498105  -0.018639  -0.091023   0.000334  -0.000006  -0.000018
    14  H   -0.099957   0.002352   0.479200  -0.013287   0.000681   0.000158
    15  C   -0.287821   0.053472   0.060768  -0.006077  -0.350113  -0.072907
    16  C    0.294726  -0.072544  -0.063236   0.002401  -0.775298   0.048953
    17  C    0.052258  -0.019978  -0.064251   0.002474  -2.494376  -0.053830
    18  H    0.002475  -0.000890   0.011984  -0.002430  -0.103457  -0.004505
    19  C    0.049492  -0.013700  -0.009738   0.000579  -0.583731   0.013532
    20  H   -0.007041  -0.000691  -0.000801  -0.000075   0.005432  -0.018836
    21  C   -0.006619   0.004266  -0.001666   0.000442  -0.278220   0.005356
    22  H    0.000028  -0.000174  -0.000276   0.000109   0.056419   0.000356
    23  H    0.000954  -0.000405   0.000064   0.000006  -0.015364   0.002175
    24  H   -0.000270   0.000225   0.000142  -0.000006   0.018271   0.000036
              13         14         15         16         17         18
     1  C    0.012921   0.034917   1.092245  -1.191761  -0.259696   0.038493
     2  C    0.031071  -0.008481  -0.745147   0.589698   0.107591  -0.021519
     3  C   -0.151314   0.043104   0.642684  -0.626055  -0.547670   0.019499
     4  C    0.008909  -0.075432   0.063783   0.020857   0.117978  -0.023317
     5  H    0.001626  -0.000079  -0.066050   0.016906  -0.016147  -0.004645
     6  C    0.040564  -0.027562  -1.118123   0.825454   1.615332   0.015403
     7  C    0.498105  -0.099957  -0.287821   0.294726   0.052258   0.002475
     8  H   -0.018639   0.002352   0.053472  -0.072544  -0.019978  -0.000890
     9  C   -0.091023   0.479200   0.060768  -0.063236  -0.064251   0.011984
    10  H    0.000334  -0.013287  -0.006077   0.002401   0.002474  -0.002430
    11  C   -0.000006   0.000681  -0.350113  -0.775298  -2.494376  -0.103457
    12  O   -0.000018   0.000158  -0.072907   0.048953  -0.053830  -0.004505
    13  H    0.490648  -0.013733  -0.017773   0.011815   0.001744  -0.000916
    14  H   -0.013733   0.495678   0.003771  -0.003165  -0.001584   0.000078
    15  C   -0.017773   0.003771  13.702633  -4.712483  -1.737991   0.599807
    16  C    0.011815  -0.003165  -4.712483  10.280489   0.764560  -0.086162
    17  C    0.001744  -0.001584  -1.737991   0.764560   8.081250  -0.050992
    18  H   -0.000916   0.000078   0.599807  -0.086162  -0.050992   0.503034
    19  C    0.001564  -0.000445  -0.266150   0.811682  -0.224848   0.008828
    20  H   -0.000181   0.000049   0.061541   0.361412   0.041022   0.000922
    21  C   -0.000202  -0.000074   0.079106  -0.578754   0.562345   0.004404
    22  H    0.000039   0.000017  -0.128787   0.047348   0.426021  -0.016555
    23  H    0.000037  -0.000003  -0.027713  -0.036572   0.006041  -0.001575
    24  H   -0.000015   0.000002  -0.011568  -0.030350  -0.059899   0.000741
              19         20         21         22         23         24
     1  C   -0.327021  -0.004976   0.040927  -0.014323  -0.002442   0.003388
     2  C    0.251229   0.007159  -0.107750   0.011352   0.003450  -0.004306
     3  C   -0.235460  -0.043908   0.105374  -0.008586   0.000983   0.003636
     4  C    0.000344   0.002465   0.008580   0.001608  -0.000350  -0.000243
     5  H    0.000832  -0.001220  -0.002041   0.000422   0.000310  -0.000161
     6  C   -0.091513   0.066441   0.082414  -0.000275  -0.009360  -0.006038
     7  C    0.049492  -0.007041  -0.006619   0.000028   0.000954  -0.000270
     8  H   -0.013700  -0.000691   0.004266  -0.000174  -0.000405   0.000225
     9  C   -0.009738  -0.000801  -0.001666  -0.000276   0.000064   0.000142
    10  H    0.000579  -0.000075   0.000442   0.000109   0.000006  -0.000006
    11  C   -0.583731   0.005432  -0.278220   0.056419  -0.015364   0.018271
    12  O    0.013532  -0.018836   0.005356   0.000356   0.002175   0.000036
    13  H    0.001564  -0.000181  -0.000202   0.000039   0.000037  -0.000015
    14  H   -0.000445   0.000049  -0.000074   0.000017  -0.000003   0.000002
    15  C   -0.266150   0.061541   0.079106  -0.128787  -0.027713  -0.011568
    16  C    0.811682   0.361412  -0.578754   0.047348  -0.036572  -0.030350
    17  C   -0.224848   0.041022   0.562345   0.426021   0.006041  -0.059899
    18  H    0.008828   0.000922   0.004404  -0.016555  -0.001575   0.000741
    19  C    6.483107  -0.149147   0.301404   0.008691   0.497759  -0.082819
    20  H   -0.149147   0.466847   0.000428  -0.000173  -0.015656   0.002108
    21  C    0.301404   0.000428   5.672652  -0.071969  -0.070918   0.521108
    22  H    0.008691  -0.000173  -0.071969   0.487335   0.001840  -0.015224
    23  H    0.497759  -0.015656  -0.070918   0.001840   0.486419  -0.017835
    24  H   -0.082819   0.002108   0.521108  -0.015224  -0.017835   0.500849
 Mulliken charges:
               1
     1  C    0.806228
     2  C    0.020876
     3  C   -0.346078
     4  C   -0.272414
     5  H    0.215722
     6  C   -0.755352
     7  C   -0.263231
     8  H    0.221978
     9  C   -0.235573
    10  H    0.198138
    11  C    0.941119
    12  O   -0.165509
    13  H    0.194443
    14  H    0.183794
    15  C   -0.811106
    16  C    0.100078
    17  C   -0.247352
    18  H    0.111292
    19  C   -0.444471
    20  H    0.226877
    21  C   -0.270593
    22  H    0.214754
    23  H    0.198153
    24  H    0.178227
 Sum of Mulliken charges =  -0.00000
 Mulliken charges with hydrogens summed into heavy atoms:
               1
     1  C    0.806228
     2  C    0.236598
     3  C   -0.124101
     4  C   -0.074277
     6  C   -0.755352
     7  C   -0.068789
     9  C   -0.051779
    11  C    0.941119
    12  O   -0.165509
    15  C   -0.699814
    16  C    0.326955
    17  C   -0.032598
    19  C   -0.246317
    21  C   -0.092366
 Electronic spatial extent (au):  <R**2>=           3005.9851
 Charge=             -0.0000 electrons
 Dipole moment (field-independent basis, Debye):
    X=              0.2904    Y=             -3.0631    Z=              1.3884  Tot=              3.3756
 Quadrupole moment (field-independent basis, Debye-Ang):
   XX=            -66.7148   YY=            -82.6127   ZZ=            -80.2127
   XY=              2.2010   XZ=              0.2018   YZ=              7.2629
 Traceless Quadrupole moment (field-independent basis, Debye-Ang):
   XX=              9.7986   YY=             -6.0993   ZZ=             -3.6993
   XY=              2.2010   XZ=              0.2018   YZ=              7.2629
 Octapole moment (field-independent basis, Debye-Ang**2):
  XXX=             17.7655  YYY=            -19.0053  ZZZ=             -2.3669  XYY=             10.7771
  XXY=            -15.1803  XXZ=             19.3129  XZZ=            -15.4832  YZZ=              0.7547
  YYZ=              7.7683  XYZ=             -5.6742
 Hexadecapole moment (field-independent basis, Debye-Ang**3):
 XXXX=          -2813.1100 YYYY=           -677.6170 ZZZZ=           -324.4911 XXXY=             59.4355
 XXXZ=              3.4415 YYYX=             -5.4395 YYYZ=             27.6148 ZZZX=            -14.4787
 ZZZY=             12.0120 XXYY=           -582.0346 XXZZ=           -572.4746 YYZZ=           -173.3019
 XXYZ=             16.8485 YYXZ=             10.3690 ZZXY=              5.5051
 N-N= 7.827493075910D+02 E-N=-2.907637384827D+03  KE= 5.764042561895D+02
 No NMR shielding tensors so no spin-rotation constants.
 Leave Link  601 at Tue Nov 22 14:58:56 2022, MaxMem= 16106127360 cpu:               5.3 elap:               0.2
 (Enter /opt/ap/G16/B01/g16/l9999.exe)
 1\1\GINC-N18\SP\RwB97XD\6-311++G(d,p)\C13H10O1\ROOT\22-Nov-2022\0\\#P 
 wB97XD/6-311++G(d,p) scf=maxcycle=512\\_conf002.gjf nmol_natom 1_24\\0
 ,1\C\C,1,1.39746343\C,1,1.39996263,2,119.28066518\C,2,1.39288453,1,120
 .37436646,3,-0.51002981,0\H,2,0.95014703,1,119.82324024,3,179.45634896
 ,0\C,1,1.49653039,2,122.77761373,4,174.46828757,0\C,3,1.3870125,1,120.
 10017821,2,-0.37315804,0\H,3,0.9501092,1,119.95246451,2,179.5923884,0\
 C,7,1.38720039,3,120.16568731,1,1.0745106,0\H,4,0.95011919,2,120.18755
 644,1,-179.31195299,0\C,6,1.49516902,1,120.70972921,2,-80.,0\O,6,1.221
 50059,1,119.67074267,2,100.,0\H,7,0.94956661,3,119.91274826,1,-178.886
 36029,0\H,9,0.94992259,7,119.76037934,3,179.10763853,0\C,11,1.39713972
 ,6,122.62585705,1,30.97749054,0\C,11,1.40039562,6,117.74753532,1,-153.
 15467779,0\C,15,1.39455701,11,119.80747484,6,175.4763048,0\H,15,0.9496
 2854,11,120.10535689,6,-4.50802339,0\C,16,1.38466431,11,120.4617377,6,
 -176.88197195,0\H,16,0.9497464,11,119.75779177,6,3.14699974,0\C,17,1.3
 9088945,15,120.3475273,11,0.7973643,0\H,17,0.94984298,15,119.8156451,1
 1,-179.16676483,0\H,19,0.94974749,16,119.98566335,11,-178.40987425,0\H
 ,21,0.94938585,17,120.0744529,15,179.91636093,0\\Version=ES64L-G16RevB
 .01\State=1-A\HF=-576.4121895\RMSD=7.716e-09\Dipole=0.4047681,-1.19974
 68,0.400637\Quadrupole=2.4130797,-6.0680866,3.6550069,5.9489882,2.1551
 834,2.1025544\PG=C01 [X(C13H10O1)]\\@


 "WOULD YOU TELL ME PLEASE, WHICH WAY I OUGHT TO WALK FROM HERE?"
 "THAT DEPENDS A GREAT DEAL ON WHERE YOU WANT TO GO," SAID THE CAT.
 "I DON'T MUCH CARE WHERE -- ", SAID ALICE.
 "THEN IT DOESN'T MATTER WHICH WAY YOU WALK," SAID THE CAT.

                                      -- LEWIS CARROLL
 Job cpu time:       0 days  0 hours 22 minutes  3.2 seconds.
 Elapsed time:       0 days  0 hours  0 minutes 41.8 seconds.
 File lengths (MBytes):  RWF=     78 Int=      0 D2E=      0 Chk=      9 Scr=      1
 Normal termination of Gaussian 16 at Tue Nov 22 14:58:57 2022.
