 Entering Gaussian System, Link 0=g16
 Input=_conf027.gjf
 Output=_conf027.log
 Initial command:
 /opt/ap/G16/B01/g16/l1.exe "/tmp2/scr/Gau-17192.inp" -scrdir="/tmp2/scr/"
 Entering Link 1 = /opt/ap/G16/B01/g16/l1.exe PID=     17193.
  
 Copyright (c) 1988-2017, Gaussian, Inc.  All Rights Reserved.
  
 This is part of the Gaussian(R) 16 program.  It is based on
 the Gaussian(R) 09 system (copyright 2009, Gaussian, Inc.),
 the Gaussian(R) 03 system (copyright 2003, Gaussian, Inc.),
 the Gaussian(R) 98 system (copyright 1998, Gaussian, Inc.),
 the Gaussian(R) 94 system (copyright 1995, Gaussian, Inc.),
 the Gaussian 92(TM) system (copyright 1992, Gaussian, Inc.),
 the Gaussian 90(TM) system (copyright 1990, Gaussian, Inc.),
 the Gaussian 88(TM) system (copyright 1988, Gaussian, Inc.),
 the Gaussian 86(TM) system (copyright 1986, Carnegie Mellon
 University), and the Gaussian 82(TM) system (copyright 1983,
 Carnegie Mellon University). Gaussian is a federally registered
 trademark of Gaussian, Inc.
  
 This software contains proprietary and confidential information,
 including trade secrets, belonging to Gaussian, Inc.
  
 This software is provided under written license and may be
 used, copied, transmitted, or stored only in accord with that
 written license.
  
 The following legend is applicable only to US Government
 contracts under FAR:
  
                    RESTRICTED RIGHTS LEGEND
  
 Use, reproduction and disclosure by the US Government is
 subject to restrictions as set forth in subparagraphs (a)
 and (c) of the Commercial Computer Software - Restricted
 Rights clause in FAR 52.227-19.
  
 Gaussian, Inc.
 340 Quinnipiac St., Bldg. 40, Wallingford CT 06492
  
  
 ---------------------------------------------------------------
 Warning -- This program may not be used in any manner that
 competes with the business of Gaussian, Inc. or will provide
 assistance to any competitor of Gaussian, Inc.  The licensee
 of this program is prohibited from giving any competitor of
 Gaussian, Inc. access to this program.  By using this program,
 the user acknowledges that Gaussian, Inc. is engaged in the
 business of creating and licensing software in the field of
 computational chemistry and represents and warrants to the
 licensee that it is not a competitor of Gaussian, Inc. and that
 it will not use this program in any manner prohibited above.
 ---------------------------------------------------------------
  

 Cite this work as:
 Gaussian 16, Revision B.01,
 M. J. Frisch, G. W. Trucks, H. B. Schlegel, G. E. Scuseria, 
 M. A. Robb, J. R. Cheeseman, G. Scalmani, V. Barone, 
 G. A. Petersson, H. Nakatsuji, X. Li, M. Caricato, A. V. Marenich, 
 J. Bloino, B. G. Janesko, R. Gomperts, B. Mennucci, H. P. Hratchian, 
 J. V. Ortiz, A. F. Izmaylov, J. L. Sonnenberg, D. Williams-Young, 
 F. Ding, F. Lipparini, F. Egidi, J. Goings, B. Peng, A. Petrone, 
 T. Henderson, D. Ranasinghe, V. G. Zakrzewski, J. Gao, N. Rega, 
 G. Zheng, W. Liang, M. Hada, M. Ehara, K. Toyota, R. Fukuda, 
 J. Hasegawa, M. Ishida, T. Nakajima, Y. Honda, O. Kitao, H. Nakai, 
 T. Vreven, K. Throssell, J. A. Montgomery, Jr., J. E. Peralta, 
 F. Ogliaro, M. J. Bearpark, J. J. Heyd, E. N. Brothers, K. N. Kudin, 
 V. N. Staroverov, T. A. Keith, R. Kobayashi, J. Normand, 
 K. Raghavachari, A. P. Rendell, J. C. Burant, S. S. Iyengar, 
 J. Tomasi, M. Cossi, J. M. Millam, M. Klene, C. Adamo, R. Cammi, 
 J. W. Ochterski, R. L. Martin, K. Morokuma, O. Farkas, 
 J. B. Foresman, and D. J. Fox, Gaussian, Inc., Wallingford CT, 2016.
 
 ******************************************
 Gaussian 16:  ES64L-G16RevB.01 20-Dec-2017
                22-Nov-2022 
 ******************************************
 %nprocshared=32
 Will use up to   32 processors via shared memory.
 %mem=120GB
 %chk=_conf027.chk
 ----------------------------------------
 #P wB97XD/6-311++G(d,p) scf=maxcycle=512
 ----------------------------------------
 1/38=1,172=1/1;
 2/12=2,17=6,18=5,40=1/2;
 3/5=4,6=6,7=1111,11=2,25=1,30=1,74=-58/1,2,3;
 4//1;
 5/5=2,7=512,38=5/2;
 6/7=2,8=2,9=2,10=2,28=1/1;
 99/5=1,9=1/99;
 Leave Link    1 at Tue Nov 22 15:02:18 2022, MaxMem= 16106127360 cpu:               1.5 elap:               0.1
 (Enter /opt/ap/G16/B01/g16/l101.exe)
 ----------------------------
 _conf027.gjf nmol_natom 1_24
 ----------------------------
 Symbolic Z-matrix:
 Charge =  0 Multiplicity = 1
 C
 C                    1     1.39746 
 C                    1     1.39996  2     119.28067 
 C                    2     1.39288  1     120.37437  3    -0.51003  0
 H                    2     0.95015  1     119.82324  3     179.45635  0
 C                    1     1.49653  2     122.77761  4     174.46829  0
 C                    3     1.38701  1     120.10018  2    -0.37316  0
 H                    3     0.95011  1     119.95246  2     179.59239  0
 C                    7     1.3872   3     120.16569  1     1.07451  0
 H                    4     0.95012  2     120.18756  1    -179.31195  0
 C                    6     1.49517  1     120.70973  2     45.      0
 O                    6     1.2215   1     119.67074  2    -135.     0
 H                    7     0.94957  3     119.91275  1    -178.88636  0
 H                    9     0.94992  7     119.76038  3     179.10764  0
 C                    11    1.39714  6     122.62586  1     30.97749  0
 C                    11    1.4004   6     117.74754  1    -153.15468  0
 C                    15    1.39456  11    119.80747  6     175.4763  0
 H                    15    0.94963  11    120.10536  6    -4.50802  0
 C                    16    1.38466  11    120.46174  6    -176.88197  0
 H                    16    0.94975  11    119.75779  6     3.147    0
 C                    17    1.39089  15    120.34753  11    0.79736  0
 H                    17    0.94984  15    119.81565  11   -179.16676  0
 H                    19    0.94975  16    119.98566  11   -178.40987  0
 H                    21    0.94939  17    120.07445  15    179.91636  0
 
 ITRead=  0  0  0  0  0  0  0  0  0  0  0  0  0  0  0  0  0  0  0  0
 ITRead=  0  0  0  0
 MicOpt= -1 -1 -1 -1 -1 -1 -1 -1 -1 -1 -1 -1 -1 -1 -1 -1 -1 -1 -1 -1
 MicOpt= -1 -1 -1 -1
 NAtoms=     24 NQM=       24 NQMF=       0 NMMI=      0 NMMIF=      0
                NMic=       0 NMicF=      0.
                    Isotopes and Nuclear Properties:
 (Nuclear quadrupole moments (NQMom) in fm**2, nuclear magnetic moments (NMagM)
  in nuclear magnetons)

  Atom         1           2           3           4           5           6           7           8           9          10
 IAtWgt=          12          12          12          12           1          12          12           1          12           1
 AtmWgt=  12.0000000  12.0000000  12.0000000  12.0000000   1.0078250  12.0000000  12.0000000   1.0078250  12.0000000   1.0078250
 NucSpn=           0           0           0           0           1           0           0           1           0           1
 AtZEff=  -0.0000000  -0.0000000  -0.0000000  -0.0000000  -0.0000000  -0.0000000  -0.0000000  -0.0000000  -0.0000000  -0.0000000
 NQMom=    0.0000000   0.0000000   0.0000000   0.0000000   0.0000000   0.0000000   0.0000000   0.0000000   0.0000000   0.0000000
 NMagM=    0.0000000   0.0000000   0.0000000   0.0000000   2.7928460   0.0000000   0.0000000   2.7928460   0.0000000   2.7928460
 AtZNuc=   6.0000000   6.0000000   6.0000000   6.0000000   1.0000000   6.0000000   6.0000000   1.0000000   6.0000000   1.0000000

  Atom        11          12          13          14          15          16          17          18          19          20
 IAtWgt=          12          16           1           1          12          12          12           1          12           1
 AtmWgt=  12.0000000  15.9949146   1.0078250   1.0078250  12.0000000  12.0000000  12.0000000   1.0078250  12.0000000   1.0078250
 NucSpn=           0           0           1           1           0           0           0           1           0           1
 AtZEff=  -0.0000000  -0.0000000  -0.0000000  -0.0000000  -0.0000000  -0.0000000  -0.0000000  -0.0000000  -0.0000000  -0.0000000
 NQMom=    0.0000000   0.0000000   0.0000000   0.0000000   0.0000000   0.0000000   0.0000000   0.0000000   0.0000000   0.0000000
 NMagM=    0.0000000   0.0000000   2.7928460   2.7928460   0.0000000   0.0000000   0.0000000   2.7928460   0.0000000   2.7928460
 AtZNuc=   6.0000000   8.0000000   1.0000000   1.0000000   6.0000000   6.0000000   6.0000000   1.0000000   6.0000000   1.0000000

  Atom        21          22          23          24
 IAtWgt=          12           1           1           1
 AtmWgt=  12.0000000   1.0078250   1.0078250   1.0078250
 NucSpn=           0           1           1           1
 AtZEff=  -0.0000000  -0.0000000  -0.0000000  -0.0000000
 NQMom=    0.0000000   0.0000000   0.0000000   0.0000000
 NMagM=    0.0000000   2.7928460   2.7928460   2.7928460
 AtZNuc=   6.0000000   1.0000000   1.0000000   1.0000000
 Leave Link  101 at Tue Nov 22 15:02:18 2022, MaxMem= 16106127360 cpu:               5.2 elap:               0.2
 (Enter /opt/ap/G16/B01/g16/l202.exe)
                          Input orientation:                          
 ---------------------------------------------------------------------
 Center     Atomic      Atomic             Coordinates (Angstroms)
 Number     Number       Type             X           Y           Z
 ---------------------------------------------------------------------
      1          6           0        0.000000    0.000000    0.000000
      2          6           0        0.000000    0.000000    1.397463
      3          6           0        1.221096    0.000000   -0.684705
      4          6           0        1.201650   -0.010697    2.101772
      5          1           0       -0.824276    0.007821    1.869996
      6          6           0       -1.253421   -0.110138   -0.810191
      7          6           0        2.414707    0.007815    0.021719
      8          1           0        1.232246   -0.005856   -1.634731
      9          6           0        2.403895   -0.006831    1.408800
     10          1           0        1.198494   -0.020531    3.051836
     11          6           0       -2.462727    0.696085   -0.459318
     12          8           0       -1.289427   -0.866676   -1.768532
     13          1           0        3.241298    0.023792   -0.445367
     14          1           0        3.224827   -0.014217    1.886678
     15          6           0       -2.380396    1.958646    0.133270
     16          6           0       -3.714827    0.185837   -0.824014
     17          6           0       -3.541617    2.700010    0.349452
     18          1           0       -1.536200    2.311161    0.387945
     19          6           0       -4.867032    0.915469   -0.584522
     20          1           0       -3.773960   -0.666822   -1.238132
     21          6           0       -4.782446    2.182189   -0.006607
     22          1           0       -3.484646    3.563313    0.741452
     23          1           0       -5.714499    0.553313   -0.814008
     24          1           0       -5.570609    2.689760    0.143406
 ---------------------------------------------------------------------
                    Distance matrix (angstroms):
                    1          2          3          4          5
     1  C    0.000000
     2  C    1.397463   0.000000
     3  C    1.399963   2.413814   0.000000
     4  C    2.421058   1.392885   2.786566   0.000000
     5  H    2.043619   0.950147   3.272630   2.039225   0.000000
     6  C    1.496530   2.541049   2.480142   3.810091   2.716889
     7  C    2.414817   2.779127   1.387013   2.408002   3.729228
     8  H    2.047146   3.273021   0.950109   3.736632   4.063567
     9  C    2.786301   2.403931   2.404542   1.387667   3.260982
    10  H    3.278797   2.042977   3.736665   0.950119   2.342893
    11  C    2.600103   3.161835   3.755780   4.526189   2.929835
    12  O    2.354029   3.526652   2.868541   4.681604   3.770941
    13  H    3.271839   3.728619   2.034469   3.263323   4.678681
    14  H    3.736210   3.261755   3.259932   2.034583   4.049198
    15  C    3.085505   3.331781   4.180445   4.537000   3.040303
    16  C    3.809655   4.332371   4.941383   5.724560   3.955334
    17  C    4.467127   4.575088   5.571621   5.737346   4.116294
    18  H    2.802120   2.953049   3.754294   3.977945   2.829962
    19  C    4.986757   5.334261   6.157387   6.700959   4.815844
    20  H    4.027455   4.651214   5.069666   6.028445   4.337769
    21  C    5.256784   5.441061   6.423727   6.712928   4.890462
    22  H    5.038821   5.026958   6.072490   6.048586   4.581779
    23  H    5.798643   6.152419   6.958832   7.526818   5.604972
    24  H    6.187654   6.311826   7.351723   7.549248   5.718530
                    6          7          8          9         10
     6  C    0.000000
     7  C    3.763130   0.000000
     8  H    2.620930   2.035246   0.000000
     9  C    4.279082   1.387200   3.261263   0.000000
    10  H    4.575496   3.265208   4.686711   2.037829   0.000000
    11  C    1.495169   4.949190   3.940449   5.260035   5.123113
    12  O    1.221501   4.205988   2.667910   4.947261   5.490142
    13  H    4.511488   0.949567   2.334899   2.034727   4.050363
    14  H    5.228480   2.033434   4.046081   0.949923   2.337447
    15  C    2.537727   5.177953   4.476190   5.327242   5.024303
    16  C    2.479176   6.190165   5.016725   6.516236   6.261431
    17  C    3.804937   6.544701   5.835105   6.618029   6.096956
    18  H    2.716281   4.587939   4.138125   4.683970   4.473438
    19  C    3.763108   7.363089   6.257233   7.595415   7.133708
    20  H    2.616515   6.351532   5.065201   6.753349   6.599001
    21  C    4.284219   7.518491   6.604153   7.644519   7.069490
    22  H    4.569487   6.925457   6.374503   6.918540   6.333531
    23  H    4.510144   8.190237   7.017372   8.435813   7.941254
    24  H    5.233249   8.424542   7.530402   8.512669   7.850184
                   11         12         13         14         15
    11  C    0.000000
    12  O    2.352211   0.000000
    13  H    5.743525   4.803245   0.000000
    14  H    6.193263   5.870753   2.332413   0.000000
    15  C    1.397140   3.576242   5.973435   6.195576   0.000000
    16  C    1.400396   2.807573   6.968307   7.452964   2.416598
    17  C    2.415332   4.720113   7.334972   7.450829   1.394557
    18  H    2.045674   3.848369   5.361991   5.506447   0.949629
    19  C    2.417537   4.168594   8.158398   8.511717   2.790484
    20  H    2.045335   2.548367   7.093607   7.692422   3.273506
    21  C    2.791872   4.959954   8.320556   8.516170   2.416481
    22  H    3.272181   5.544711   7.692534   7.689428   2.040640
    23  H    3.274172   4.744339   8.979008   9.355605   3.740125
    24  H    3.741249   5.884919   9.225169   9.365371   3.272933
                   16         17         18         19         20
    16  C    0.000000
    17  C    2.779944   0.000000
    18  H    3.276013   2.043131   0.000000
    19  C    1.384664   2.411145   3.740066   0.000000
    20  H    0.949746   3.729607   4.064490   2.031171   0.000000
    21  C    2.406945   1.390889   3.272678   1.394891   3.263520
    22  H    3.729747   0.949843   2.342925   3.268069   4.679370
    23  H    2.033181   3.268541   4.689659   0.949747   2.331159
    24  H    3.263351   2.039453   4.059507   2.042795   4.050092
                   21         22         23         24
    21  C    0.000000
    22  H    2.037493   0.000000
    23  H    2.043001   4.056081   0.000000
    24  H    0.949386   2.339229   2.345581   0.000000
 Stoichiometry    C13H10O
 Framework group  C1[X(C13H10O)]
 Deg. of freedom    66
 Full point group                 C1      NOp   1
 Largest Abelian subgroup         C1      NOp   1
 Largest concise Abelian subgroup C1      NOp   1
                         Standard orientation:                         
 ---------------------------------------------------------------------
 Center     Atomic      Atomic             Coordinates (Angstroms)
 Number     Number       Type             X           Y           Z
 ---------------------------------------------------------------------
      1          6           0       -1.294404    0.326605    0.035775
      2          6           0       -1.533050   -0.798020    0.830238
      3          6           0       -2.340430    0.861644   -0.725446
      4          6           0       -2.800462   -1.374203    0.872775
      5          1           0       -0.826741   -1.172148    1.343985
      6          6           0        0.009874    1.060385    0.041158
      7          6           0       -3.595871    0.272879   -0.693406
      8          1           0       -2.190291    1.629518   -1.264460
      9          6           0       -3.826146   -0.834557    0.109641
     10          1           0       -2.962184   -2.132899    1.421366
     11          6           0        1.305321    0.315390   -0.007118
     12          8           0        0.016733    2.281063    0.085458
     13          1           0       -4.299304    0.628469   -1.222947
     14          1           0       -4.691464   -1.225498    0.136893
     15          6           0        1.444616   -0.911852   -0.660168
     16          6           0        2.431201    0.928082    0.556894
     17          6           0        2.700885   -1.510592   -0.750099
     18          1           0        0.686164   -1.337057   -1.041934
     19          6           0        3.671940    0.317428    0.486436
     20          1           0        2.342870    1.768137    0.991088
     21          6           0        3.812644   -0.900503   -0.178821
     22          1           0        2.797742   -2.339135   -1.204342
     23          1           0        4.426770    0.728126    0.890885
     24          1           0        4.665865   -1.312131   -0.241342
 ---------------------------------------------------------------------
 Rotational constants (GHZ):           1.7452471           0.4042834           0.3560464
 Leave Link  202 at Tue Nov 22 15:02:18 2022, MaxMem= 16106127360 cpu:               0.4 elap:               0.0
 (Enter /opt/ap/G16/B01/g16/l301.exe)
 Standard basis: 6-311++G(d,p) (5D, 7F)
 Ernie: Thresh=  0.10000D-02 Tol=  0.10000D-05 Strict=F.
 There are   392 symmetry adapted cartesian basis functions of A   symmetry.
 There are   378 symmetry adapted basis functions of A   symmetry.
   378 basis functions,   594 primitive gaussians,   392 cartesian basis functions
    48 alpha electrons       48 beta electrons
       nuclear repulsion energy       782.0814179674 Hartrees.
 IExCor= 4639 DFT=T Ex+Corr=wB97XD ExCW=0 ScaHFX=  1.000000
 ScaDFX=  1.000000  1.000000  1.000000  1.000000 ScalE2=  1.000000  1.000000
 IRadAn=      5 IRanWt=     -1 IRanGd=            0 ICorTp=0 IEmpDi=121
 HFx  wShort=  0.000000 wLong=  0.200000 cFull=  0.222036 cShort=  0.000000 cLong=  0.777964
 DFx  wShort=  0.000000 wLong=  0.200000 cFull=  0.000000 cShort=  0.000000 cLong=  1.000000
 NAtoms=   24 NActive=   24 NUniq=   24 SFac= 1.00D+00 NAtFMM=   60 NAOKFM=F Big=F
 Integral buffers will be    131072 words long.
 Raffenetti 2 integral format.
 Two-electron integral symmetry is turned on.
 R6Disp:  Grimme-D2 Dispersion energy=       -0.0140080257 Hartrees.
 Nuclear repulsion after empirical dispersion term =      782.0674099417 Hartrees.
 Leave Link  301 at Tue Nov 22 15:02:18 2022, MaxMem= 16106127360 cpu:               1.2 elap:               0.0
 (Enter /opt/ap/G16/B01/g16/l302.exe)
 NPDir=0 NMtPBC=     1 NCelOv=     1 NCel=       1 NClECP=     1 NCelD=      1
         NCelK=      1 NCelE2=     1 NClLst=     1 CellRange=     0.0.
 One-electron integrals computed using PRISM.
 One-electron integral symmetry used in STVInt
 NBasis=   378 RedAO= T EigKep=  1.45D-06  NBF=   378
 NBsUse=   376 1.00D-06 EigRej=  8.68D-07 NBFU=   376
 Precomputing XC quadrature grid using
 IXCGrd= 4 IRadAn=           5 IRanWt=          -1 IRanGd=           0 AccXCQ= 0.00D+00.
 Generated NRdTot=       0 NPtTot=           0 NUsed=           0 NTot=          32
 NSgBfM=   392   392   392   392   392 MxSgAt=    24 MxSgA2=    24.
 Leave Link  302 at Tue Nov 22 15:02:19 2022, MaxMem= 16106127360 cpu:               8.3 elap:               0.3
 (Enter /opt/ap/G16/B01/g16/l303.exe)
 DipDrv:  MaxL=1.
 Leave Link  303 at Tue Nov 22 15:02:19 2022, MaxMem= 16106127360 cpu:               1.6 elap:               0.1
 (Enter /opt/ap/G16/B01/g16/l401.exe)
 ExpMin= 3.60D-02 ExpMax= 8.59D+03 ExpMxC= 1.30D+03 IAcc=3 IRadAn=         5 AccDes= 0.00D+00
 Harris functional with IExCor= 4639 and IRadAn=       5 diagonalized for initial guess.
 HarFok:  IExCor= 4639 AccDes= 0.00D+00 IRadAn=         5 IDoV= 1 UseB2=F ITyADJ=14
 ICtDFT=  3500011 ScaDFX=  1.000000  1.000000  1.000000  1.000000
 FoFCou: FMM=F IPFlag=           0 FMFlag=      100000 FMFlg1=           0
         NFxFlg=           0 DoJE=T BraDBF=F KetDBF=T FulRan=T
         wScrn=  0.000000 ICntrl=       500 IOpCl=  0 I1Cent=   200000004 NGrid=           0
         NMat0=    1 NMatS0=      1 NMatT0=    0 NMatD0=    1 NMtDS0=    0 NMtDT0=    0
 Petite list used in FoFCou.
 Harris En= -550.906740656066    
 JPrj=0 DoOrth=F DoCkMO=F.
 Leave Link  401 at Tue Nov 22 15:02:19 2022, MaxMem= 16106127360 cpu:              25.4 elap:               0.8
 (Enter /opt/ap/G16/B01/g16/l502.exe)
 Integral symmetry usage will be decided dynamically.
 Closed shell SCF:
 Using DIIS extrapolation, IDIIS=  1040.
 NGot= 16106127360 LenX= 16105803762 LenY= 16105649657
 Requested convergence on RMS density matrix=1.00D-08 within 512 cycles.
 Requested convergence on MAX density matrix=1.00D-06.
 Requested convergence on             energy=1.00D-06.
 No special actions if energy rises.
 Fock matrices will be formed incrementally for  20 cycles.

 Cycle   1  Pass 1  IDiag  1:
 FoFJK:  IHMeth= 1 ICntrl=       0 DoSepK=T KAlg= 0 I1Cent=           0 FoldK=F
 IRaf=         1 NMat=       1 IRICut=       1 DoRegI=T DoRafI=F ISym2E= 0 IDoP0=0 IntGTp=1.
 FoFCou: FMM=F IPFlag=           0 FMFlag=      100000 FMFlg1=           0
         NFxFlg=           0 DoJE=T BraDBF=F KetDBF=F FulRan=T
         wScrn=  0.000000 ICntrl=       500 IOpCl=  0 I1Cent=           0 NGrid=           0
         NMat0=    1 NMatS0=      1 NMatT0=    0 NMatD0=    1 NMtDS0=    0 NMtDT0=    0
 Symmetry not used in FoFCou.
 E= -576.263700015423    
 DIIS: error= 6.31D-02 at cycle   1 NSaved=   1.
 NSaved= 1 IEnMin= 1 EnMin= -576.263700015423     IErMin= 1 ErrMin= 6.31D-02
 ErrMax= 6.31D-02  0.00D+00 EMaxC= 1.00D-01 BMatC= 1.20D+00 BMatP= 1.20D+00
 IDIUse=3 WtCom= 3.69D-01 WtEn= 6.31D-01
 Coeff-Com:  0.100D+01
 Coeff-En:   0.100D+01
 Coeff:      0.100D+01
 Gap=     0.406 Goal=   None    Shift=    0.000
 GapD=    0.406 DampG=2.000 DampE=0.500 DampFc=1.0000 IDamp=-1.
 RMSDP=2.94D-02 MaxDP=3.35D+00              OVMax= 1.36D-01

 Cycle   2  Pass 1  IDiag  1:
 RMSU=  1.62D-02    CP:  6.73D-01
 E= -576.352214415364     Delta-E=       -0.088514399941 Rises=F Damp=F
 DIIS: error= 1.61D-02 at cycle   2 NSaved=   2.
 NSaved= 2 IEnMin= 2 EnMin= -576.352214415364     IErMin= 2 ErrMin= 1.61D-02
 ErrMax= 1.61D-02  0.00D+00 EMaxC= 1.00D-01 BMatC= 7.67D-02 BMatP= 1.20D+00
 IDIUse=3 WtCom= 8.39D-01 WtEn= 1.61D-01
 Coeff-Com:  0.127D+00 0.873D+00
 Coeff-En:   0.153D+00 0.847D+00
 Coeff:      0.131D+00 0.869D+00
 Gap=     0.428 Goal=   None    Shift=    0.000
 RMSDP=8.23D-03 MaxDP=1.15D+00 DE=-8.85D-02 OVMax= 1.58D-01

 Cycle   3  Pass 1  IDiag  1:
 RMSU=  7.56D-03    CP:  6.44D-01  8.52D-01
 E= -576.369280831464     Delta-E=       -0.017066416100 Rises=F Damp=F
 DIIS: error= 1.48D-02 at cycle   3 NSaved=   3.
 NSaved= 3 IEnMin= 3 EnMin= -576.369280831464     IErMin= 3 ErrMin= 1.48D-02
 ErrMax= 1.48D-02  0.00D+00 EMaxC= 1.00D-01 BMatC= 5.61D-02 BMatP= 7.67D-02
 IDIUse=3 WtCom= 8.52D-01 WtEn= 1.48D-01
 Coeff-Com:  0.240D-01 0.464D+00 0.512D+00
 Coeff-En:   0.000D+00 0.430D+00 0.570D+00
 Coeff:      0.204D-01 0.459D+00 0.520D+00
 Gap=     0.352 Goal=   None    Shift=    0.000
 RMSDP=3.77D-03 MaxDP=2.78D-01 DE=-1.71D-02 OVMax= 7.02D-02

 Cycle   4  Pass 1  IDiag  1:
 RMSU=  1.61D-03    CP:  6.20D-01  8.88D-01  6.23D-01
 E= -576.418582015468     Delta-E=       -0.049301184004 Rises=F Damp=F
 DIIS: error= 2.68D-03 at cycle   4 NSaved=   4.
 NSaved= 4 IEnMin= 4 EnMin= -576.418582015468     IErMin= 4 ErrMin= 2.68D-03
 ErrMax= 2.68D-03  0.00D+00 EMaxC= 1.00D-01 BMatC= 9.73D-04 BMatP= 5.61D-02
 IDIUse=3 WtCom= 9.73D-01 WtEn= 2.68D-02
 Coeff-Com:  0.961D-02 0.199D+00 0.245D+00 0.546D+00
 Coeff-En:   0.000D+00 0.000D+00 0.000D+00 0.100D+01
 Coeff:      0.936D-02 0.194D+00 0.238D+00 0.559D+00
 Gap=     0.324 Goal=   None    Shift=    0.000
 RMSDP=5.05D-04 MaxDP=3.08D-02 DE=-4.93D-02 OVMax= 7.06D-03

 Cycle   5  Pass 1  IDiag  1:
 RMSU=  4.11D-04    CP:  6.21D-01  9.06D-01  6.27D-01  9.74D-01
 E= -576.419250626480     Delta-E=       -0.000668611013 Rises=F Damp=F
 DIIS: error= 7.80D-04 at cycle   5 NSaved=   5.
 NSaved= 5 IEnMin= 5 EnMin= -576.419250626480     IErMin= 5 ErrMin= 7.80D-04
 ErrMax= 7.80D-04  0.00D+00 EMaxC= 1.00D-01 BMatC= 9.08D-05 BMatP= 9.73D-04
 IDIUse=3 WtCom= 9.92D-01 WtEn= 7.80D-03
 Coeff-Com: -0.574D-03-0.810D-02 0.430D-03 0.223D+00 0.785D+00
 Coeff-En:   0.000D+00 0.000D+00 0.000D+00 0.000D+00 0.100D+01
 Coeff:     -0.570D-03-0.803D-02 0.427D-03 0.221D+00 0.787D+00
 Gap=     0.326 Goal=   None    Shift=    0.000
 RMSDP=3.78D-04 MaxDP=3.95D-02 DE=-6.69D-04 OVMax= 2.77D-03

 Cycle   6  Pass 1  IDiag  1:
 RMSU=  2.44D-04    CP:  6.19D-01  9.14D-01  6.41D-01  1.06D+00  6.69D-01
 E= -576.419321138718     Delta-E=       -0.000070512237 Rises=F Damp=F
 DIIS: error= 3.69D-04 at cycle   6 NSaved=   6.
 NSaved= 6 IEnMin= 6 EnMin= -576.419321138718     IErMin= 6 ErrMin= 3.69D-04
 ErrMax= 3.69D-04  0.00D+00 EMaxC= 1.00D-01 BMatC= 1.91D-05 BMatP= 9.08D-05
 IDIUse=3 WtCom= 9.96D-01 WtEn= 3.69D-03
 Coeff-Com: -0.123D-02-0.231D-01-0.225D-01 0.655D-01 0.424D+00 0.558D+00
 Coeff-En:   0.000D+00 0.000D+00 0.000D+00 0.000D+00 0.000D+00 0.100D+01
 Coeff:     -0.123D-02-0.231D-01-0.224D-01 0.653D-01 0.422D+00 0.559D+00
 Gap=     0.326 Goal=   None    Shift=    0.000
 RMSDP=8.23D-05 MaxDP=3.85D-03 DE=-7.05D-05 OVMax= 1.28D-03

 Cycle   7  Pass 1  IDiag  1:
 RMSU=  6.18D-05    CP:  6.19D-01  9.14D-01  6.42D-01  1.08D+00  7.66D-01
                    CP:  9.48D-01
 E= -576.419341096059     Delta-E=       -0.000019957341 Rises=F Damp=F
 DIIS: error= 5.44D-05 at cycle   7 NSaved=   7.
 NSaved= 7 IEnMin= 7 EnMin= -576.419341096059     IErMin= 7 ErrMin= 5.44D-05
 ErrMax= 5.44D-05  0.00D+00 EMaxC= 1.00D-01 BMatC= 5.10D-07 BMatP= 1.91D-05
 IDIUse=1 WtCom= 1.00D+00 WtEn= 0.00D+00
 Coeff-Com: -0.231D-03-0.443D-02-0.526D-02-0.103D-01-0.905D-02 0.107D+00
 Coeff-Com:  0.922D+00
 Coeff:     -0.231D-03-0.443D-02-0.526D-02-0.103D-01-0.905D-02 0.107D+00
 Coeff:      0.922D+00
 Gap=     0.326 Goal=   None    Shift=    0.000
 RMSDP=4.27D-05 MaxDP=4.31D-03 DE=-2.00D-05 OVMax= 6.48D-04

 Cycle   8  Pass 1  IDiag  1:
 RMSU=  2.05D-05    CP:  6.19D-01  9.15D-01  6.43D-01  1.10D+00  7.76D-01
                    CP:  1.04D+00  1.11D+00
 E= -576.419342412175     Delta-E=       -0.000001316115 Rises=F Damp=F
 DIIS: error= 2.59D-05 at cycle   8 NSaved=   8.
 NSaved= 8 IEnMin= 8 EnMin= -576.419342412175     IErMin= 8 ErrMin= 2.59D-05
 ErrMax= 2.59D-05  0.00D+00 EMaxC= 1.00D-01 BMatC= 8.80D-08 BMatP= 5.10D-07
 IDIUse=1 WtCom= 1.00D+00 WtEn= 0.00D+00
 Coeff-Com:  0.509D-04 0.742D-03 0.260D-03-0.124D-01-0.562D-01-0.262D-01
 Coeff-Com:  0.310D+00 0.783D+00
 Coeff:      0.509D-04 0.742D-03 0.260D-03-0.124D-01-0.562D-01-0.262D-01
 Coeff:      0.310D+00 0.783D+00
 Gap=     0.326 Goal=   None    Shift=    0.000
 RMSDP=1.68D-05 MaxDP=1.91D-03 DE=-1.32D-06 OVMax= 2.55D-04

 Cycle   9  Pass 1  IDiag  1:
 RMSU=  5.77D-06    CP:  6.19D-01  9.16D-01  6.42D-01  1.10D+00  7.78D-01
                    CP:  1.08D+00  1.14D+00  1.30D+00
 E= -576.419342604884     Delta-E=       -0.000000192709 Rises=F Damp=F
 DIIS: error= 5.57D-06 at cycle   9 NSaved=   9.
 NSaved= 9 IEnMin= 9 EnMin= -576.419342604884     IErMin= 9 ErrMin= 5.57D-06
 ErrMax= 5.57D-06  0.00D+00 EMaxC= 1.00D-01 BMatC= 7.50D-09 BMatP= 8.80D-08
 IDIUse=1 WtCom= 1.00D+00 WtEn= 0.00D+00
 Coeff-Com:  0.419D-04 0.743D-03 0.744D-03-0.683D-03-0.917D-02-0.178D-01
 Coeff-Com: -0.675D-01 0.149D+00 0.945D+00
 Coeff:      0.419D-04 0.743D-03 0.744D-03-0.683D-03-0.917D-02-0.178D-01
 Coeff:     -0.675D-01 0.149D+00 0.945D+00
 Gap=     0.326 Goal=   None    Shift=    0.000
 RMSDP=6.60D-06 MaxDP=8.88D-04 DE=-1.93D-07 OVMax= 1.30D-04

 Cycle  10  Pass 1  IDiag  1:
 RMSU=  1.75D-06    CP:  6.19D-01  9.16D-01  6.42D-01  1.10D+00  7.77D-01
                    CP:  1.08D+00  1.15D+00  1.47D+00  1.33D+00
 E= -576.419342631831     Delta-E=       -0.000000026947 Rises=F Damp=F
 DIIS: error= 2.29D-06 at cycle  10 NSaved=  10.
 NSaved=10 IEnMin=10 EnMin= -576.419342631831     IErMin=10 ErrMin= 2.29D-06
 ErrMax= 2.29D-06  0.00D+00 EMaxC= 1.00D-01 BMatC= 8.05D-10 BMatP= 7.50D-09
 IDIUse=1 WtCom= 1.00D+00 WtEn= 0.00D+00
 Coeff-Com: -0.391D-05-0.319D-04 0.112D-04 0.153D-02 0.559D-02 0.263D-02
 Coeff-Com: -0.316D-01-0.780D-01 0.469D-01 0.105D+01
 Coeff:     -0.391D-05-0.319D-04 0.112D-04 0.153D-02 0.559D-02 0.263D-02
 Coeff:     -0.316D-01-0.780D-01 0.469D-01 0.105D+01
 Gap=     0.326 Goal=   None    Shift=    0.000
 RMSDP=2.42D-06 MaxDP=1.47D-04 DE=-2.69D-08 OVMax= 5.18D-05

 Cycle  11  Pass 1  IDiag  1:
 RMSU=  7.78D-07    CP:  6.19D-01  9.16D-01  6.42D-01  1.10D+00  7.77D-01
                    CP:  1.08D+00  1.15D+00  1.53D+00  1.44D+00  1.21D+00
 E= -576.419342636155     Delta-E=       -0.000000004324 Rises=F Damp=F
 DIIS: error= 1.17D-06 at cycle  11 NSaved=  11.
 NSaved=11 IEnMin=11 EnMin= -576.419342636155     IErMin=11 ErrMin= 1.17D-06
 ErrMax= 1.17D-06  0.00D+00 EMaxC= 1.00D-01 BMatC= 1.64D-10 BMatP= 8.05D-10
 IDIUse=1 WtCom= 1.00D+00 WtEn= 0.00D+00
 Coeff-Com: -0.438D-05-0.714D-04-0.635D-04 0.378D-03 0.176D-02 0.195D-02
 Coeff-Com:  0.108D-02-0.310D-01-0.101D+00 0.188D+00 0.939D+00
 Coeff:     -0.438D-05-0.714D-04-0.635D-04 0.378D-03 0.176D-02 0.195D-02
 Coeff:      0.108D-02-0.310D-01-0.101D+00 0.188D+00 0.939D+00
 Gap=     0.326 Goal=   None    Shift=    0.000
 RMSDP=7.35D-07 MaxDP=6.41D-05 DE=-4.32D-09 OVMax= 2.27D-05

 Cycle  12  Pass 1  IDiag  1:
 RMSU=  4.01D-07    CP:  6.19D-01  9.16D-01  6.42D-01  1.10D+00  7.77D-01
                    CP:  1.08D+00  1.14D+00  1.53D+00  1.49D+00  1.31D+00
                    CP:  1.31D+00
 E= -576.419342636988     Delta-E=       -0.000000000834 Rises=F Damp=F
 DIIS: error= 6.02D-07 at cycle  12 NSaved=  12.
 NSaved=12 IEnMin=12 EnMin= -576.419342636988     IErMin=12 ErrMin= 6.02D-07
 ErrMax= 6.02D-07  0.00D+00 EMaxC= 1.00D-01 BMatC= 3.72D-11 BMatP= 1.64D-10
 IDIUse=1 WtCom= 1.00D+00 WtEn= 0.00D+00
 Coeff-Com:  0.146D-06-0.780D-05-0.157D-04-0.326D-03-0.114D-02-0.362D-03
 Coeff-Com:  0.911D-02 0.154D-01-0.342D-01-0.230D+00 0.217D+00 0.103D+01
 Coeff:      0.146D-06-0.780D-05-0.157D-04-0.326D-03-0.114D-02-0.362D-03
 Coeff:      0.911D-02 0.154D-01-0.342D-01-0.230D+00 0.217D+00 0.103D+01
 Gap=     0.326 Goal=   None    Shift=    0.000
 RMSDP=3.56D-07 MaxDP=1.75D-05 DE=-8.34D-10 OVMax= 1.37D-05

 Cycle  13  Pass 1  IDiag  1:
 RMSU=  1.36D-07    CP:  6.19D-01  9.16D-01  6.42D-01  1.10D+00  7.78D-01
                    CP:  1.08D+00  1.14D+00  1.52D+00  1.50D+00  1.32D+00
                    CP:  1.53D+00  1.53D+00
 E= -576.419342637201     Delta-E=       -0.000000000213 Rises=F Damp=F
 DIIS: error= 1.89D-07 at cycle  13 NSaved=  13.
 NSaved=13 IEnMin=13 EnMin= -576.419342637201     IErMin=13 ErrMin= 1.89D-07
 ErrMax= 1.89D-07  0.00D+00 EMaxC= 1.00D-01 BMatC= 6.08D-12 BMatP= 3.72D-11
 IDIUse=1 WtCom= 1.00D+00 WtEn= 0.00D+00
 Coeff-Com:  0.636D-06 0.721D-05 0.535D-05-0.169D-03-0.597D-03-0.425D-03
 Coeff-Com:  0.256D-02 0.910D-02 0.289D-02-0.978D-01-0.572D-01 0.294D+00
 Coeff-Com:  0.848D+00
 Coeff:      0.636D-06 0.721D-05 0.535D-05-0.169D-03-0.597D-03-0.425D-03
 Coeff:      0.256D-02 0.910D-02 0.289D-02-0.978D-01-0.572D-01 0.294D+00
 Coeff:      0.848D+00
 Gap=     0.326 Goal=   None    Shift=    0.000
 RMSDP=1.27D-07 MaxDP=6.15D-06 DE=-2.13D-10 OVMax= 4.35D-06

 Cycle  14  Pass 1  IDiag  1:
 RMSU=  5.55D-08    CP:  6.19D-01  9.16D-01  6.42D-01  1.10D+00  7.78D-01
                    CP:  1.08D+00  1.15D+00  1.52D+00  1.50D+00  1.32D+00
                    CP:  1.59D+00  1.68D+00  1.29D+00
 E= -576.419342637227     Delta-E=       -0.000000000025 Rises=F Damp=F
 DIIS: error= 5.76D-08 at cycle  14 NSaved=  14.
 NSaved=14 IEnMin=14 EnMin= -576.419342637227     IErMin=14 ErrMin= 5.76D-08
 ErrMax= 5.76D-08  0.00D+00 EMaxC= 1.00D-01 BMatC= 1.00D-12 BMatP= 6.08D-12
 IDIUse=1 WtCom= 1.00D+00 WtEn= 0.00D+00
 Coeff-Com:  0.112D-06 0.286D-05 0.459D-05 0.338D-05 0.431D-04-0.442D-04
 Coeff-Com: -0.804D-03-0.280D-03 0.558D-02 0.122D-01-0.418D-01-0.109D+00
 Coeff-Com:  0.212D+00 0.922D+00
 Coeff:      0.112D-06 0.286D-05 0.459D-05 0.338D-05 0.431D-04-0.442D-04
 Coeff:     -0.804D-03-0.280D-03 0.558D-02 0.122D-01-0.418D-01-0.109D+00
 Coeff:      0.212D+00 0.922D+00
 Gap=     0.326 Goal=   None    Shift=    0.000
 RMSDP=7.72D-08 MaxDP=7.78D-06 DE=-2.55D-11 OVMax= 1.56D-06

 Cycle  15  Pass 1  IDiag  1:
 RMSU=  1.56D-08    CP:  6.19D-01  9.16D-01  6.42D-01  1.10D+00  7.78D-01
                    CP:  1.08D+00  1.15D+00  1.52D+00  1.50D+00  1.31D+00
                    CP:  1.60D+00  1.74D+00  1.48D+00  1.07D+00
 E= -576.419342637223     Delta-E=        0.000000000004 Rises=F Damp=F
 DIIS: error= 1.78D-08 at cycle  15 NSaved=  15.
 NSaved=15 IEnMin=14 EnMin= -576.419342637227     IErMin=15 ErrMin= 1.78D-08
 ErrMax= 1.78D-08  0.00D+00 EMaxC= 1.00D-01 BMatC= 1.65D-13 BMatP= 1.00D-12
 IDIUse=1 WtCom= 1.00D+00 WtEn= 0.00D+00
 Coeff-Com: -0.316D-07 0.360D-06 0.144D-05 0.222D-04 0.950D-04 0.415D-04
 Coeff-Com: -0.625D-03-0.121D-02 0.205D-02 0.177D-01-0.850D-02-0.879D-01
 Coeff-Com: -0.209D-01 0.386D+00 0.713D+00
 Coeff:     -0.316D-07 0.360D-06 0.144D-05 0.222D-04 0.950D-04 0.415D-04
 Coeff:     -0.625D-03-0.121D-02 0.205D-02 0.177D-01-0.850D-02-0.879D-01
 Coeff:     -0.209D-01 0.386D+00 0.713D+00
 Gap=     0.326 Goal=   None    Shift=    0.000
 RMSDP=1.77D-08 MaxDP=1.32D-06 DE= 4.09D-12 OVMax= 3.52D-07

 Cycle  16  Pass 1  IDiag  1:
 RMSU=  4.26D-09    CP:  6.19D-01  9.16D-01  6.42D-01  1.10D+00  7.78D-01
                    CP:  1.08D+00  1.15D+00  1.52D+00  1.50D+00  1.31D+00
                    CP:  1.59D+00  1.76D+00  1.51D+00  1.15D+00  1.14D+00
 E= -576.419342637235     Delta-E=       -0.000000000013 Rises=F Damp=F
 DIIS: error= 4.88D-09 at cycle  16 NSaved=  16.
 NSaved=16 IEnMin=16 EnMin= -576.419342637235     IErMin=16 ErrMin= 4.88D-09
 ErrMax= 4.88D-09  0.00D+00 EMaxC= 1.00D-01 BMatC= 4.40D-15 BMatP= 1.65D-13
 IDIUse=1 WtCom= 1.00D+00 WtEn= 0.00D+00
 Coeff-Com: -0.804D-08-0.190D-06-0.281D-06 0.138D-05 0.267D-05 0.998D-05
 Coeff-Com:  0.306D-04-0.739D-04-0.454D-03-0.885D-05 0.436D-02 0.242D-02
 Coeff-Com: -0.207D-01-0.580D-01 0.452D-01 0.103D+01
 Coeff:     -0.804D-08-0.190D-06-0.281D-06 0.138D-05 0.267D-05 0.998D-05
 Coeff:      0.306D-04-0.739D-04-0.454D-03-0.885D-05 0.436D-02 0.242D-02
 Coeff:     -0.207D-01-0.580D-01 0.452D-01 0.103D+01
 Gap=     0.326 Goal=   None    Shift=    0.000
 RMSDP=4.26D-09 MaxDP=2.13D-07 DE=-1.27D-11 OVMax= 8.13D-08

 SCF Done:  E(RwB97XD) =  -576.419342637     A.U. after   16 cycles
            NFock= 16  Conv=0.43D-08     -V/T= 2.0000
 KE= 5.764084536963D+02 PE=-2.906368612035D+03 EE= 9.714734057600D+02
 Leave Link  502 at Tue Nov 22 15:02:59 2022, MaxMem= 16106127360 cpu:            1244.9 elap:              39.1
 (Enter /opt/ap/G16/B01/g16/l601.exe)
 Copying SCF densities to generalized density rwf, IOpCl= 0 IROHF=0.

 **********************************************************************

            Population analysis using the SCF Density.

 **********************************************************************

 Orbital symmetries:
       Occupied  (A) (A) (A) (A) (A) (A) (A) (A) (A) (A) (A) (A)
                 (A) (A) (A) (A) (A) (A) (A) (A) (A) (A) (A) (A)
                 (A) (A) (A) (A) (A) (A) (A) (A) (A) (A) (A) (A)
                 (A) (A) (A) (A) (A) (A) (A) (A) (A) (A) (A) (A)
       Virtual   (A) (A) (A) (A) (A) (A) (A) (A) (A) (A) (A) (A)
                 (A) (A) (A) (A) (A) (A) (A) (A) (A) (A) (A) (A)
                 (A) (A) (A) (A) (A) (A) (A) (A) (A) (A) (A) (A)
                 (A) (A) (A) (A) (A) (A) (A) (A) (A) (A) (A) (A)
                 (A) (A) (A) (A) (A) (A) (A) (A) (A) (A) (A) (A)
                 (A) (A) (A) (A) (A) (A) (A) (A) (A) (A) (A) (A)
                 (A) (A) (A) (A) (A) (A) (A) (A) (A) (A) (A) (A)
                 (A) (A) (A) (A) (A) (A) (A) (A) (A) (A) (A) (A)
                 (A) (A) (A) (A) (A) (A) (A) (A) (A) (A) (A) (A)
                 (A) (A) (A) (A) (A) (A) (A) (A) (A) (A) (A) (A)
                 (A) (A) (A) (A) (A) (A) (A) (A) (A) (A) (A) (A)
                 (A) (A) (A) (A) (A) (A) (A) (A) (A) (A) (A) (A)
                 (A) (A) (A) (A) (A) (A) (A) (A) (A) (A) (A) (A)
                 (A) (A) (A) (A) (A) (A) (A) (A) (A) (A) (A) (A)
                 (A) (A) (A) (A) (A) (A) (A) (A) (A) (A) (A) (A)
                 (A) (A) (A) (A) (A) (A) (A) (A) (A) (A) (A) (A)
                 (A) (A) (A) (A) (A) (A) (A) (A) (A) (A) (A) (A)
                 (A) (A) (A) (A) (A) (A) (A) (A) (A) (A) (A) (A)
                 (A) (A) (A) (A) (A) (A) (A) (A) (A) (A) (A) (A)
                 (A) (A) (A) (A) (A) (A) (A) (A) (A) (A) (A) (A)
                 (A) (A) (A) (A) (A) (A) (A) (A) (A) (A) (A) (A)
                 (A) (A) (A) (A) (A) (A) (A) (A) (A) (A) (A) (A)
                 (A) (A) (A) (A) (A) (A) (A) (A) (A) (A) (A) (A)
                 (A) (A) (A) (A) (A) (A) (A) (A) (A) (A) (A) (A)
                 (A) (A) (A) (A) (A) (A) (A) (A) (A) (A) (A) (A)
                 (A) (A) (A) (A) (A) (A) (A) (A) (A) (A) (A) (A)
                 (A) (A) (A) (A) (A) (A) (A) (A) (A) (A) (A) (A)
                 (A) (A) (A) (A)
 The electronic state is 1-A.
 Alpha  occ. eigenvalues --  -19.23826 -10.38185 -10.30498 -10.30465 -10.28976
 Alpha  occ. eigenvalues --  -10.28861 -10.28656 -10.28452 -10.28429 -10.28402
 Alpha  occ. eigenvalues --  -10.28380 -10.28319 -10.28226 -10.28086  -1.14871
 Alpha  occ. eigenvalues --   -0.97865  -0.97394  -0.89075  -0.87344  -0.87247
 Alpha  occ. eigenvalues --   -0.86776  -0.76758  -0.73789  -0.73523  -0.72474
 Alpha  occ. eigenvalues --   -0.67949  -0.65433  -0.62948  -0.60214  -0.56741
 Alpha  occ. eigenvalues --   -0.56151  -0.55763  -0.54092  -0.53918  -0.53885
 Alpha  occ. eigenvalues --   -0.52075  -0.49497  -0.47137  -0.46639  -0.46202
 Alpha  occ. eigenvalues --   -0.45380  -0.44885  -0.44266  -0.35191  -0.34680
 Alpha  occ. eigenvalues --   -0.34226  -0.34049  -0.33118
 Alpha virt. eigenvalues --   -0.00471   0.03599   0.03686   0.04163   0.04320
 Alpha virt. eigenvalues --    0.05188   0.05204   0.05352   0.05972   0.06786
 Alpha virt. eigenvalues --    0.07518   0.08036   0.08853   0.09880   0.10887
 Alpha virt. eigenvalues --    0.11370   0.11840   0.13175   0.13638   0.14311
 Alpha virt. eigenvalues --    0.14788   0.14907   0.15474   0.15853   0.16548
 Alpha virt. eigenvalues --    0.16982   0.17116   0.17329   0.17730   0.17822
 Alpha virt. eigenvalues --    0.18206   0.18446   0.18714   0.19096   0.19634
 Alpha virt. eigenvalues --    0.19738   0.20250   0.20375   0.20823   0.20864
 Alpha virt. eigenvalues --    0.21430   0.21666   0.22121   0.23115   0.23757
 Alpha virt. eigenvalues --    0.24095   0.25008   0.25177   0.25255   0.26403
 Alpha virt. eigenvalues --    0.26537   0.27130   0.27843   0.28169   0.28623
 Alpha virt. eigenvalues --    0.28886   0.29886   0.30084   0.30358   0.30919
 Alpha virt. eigenvalues --    0.31183   0.31982   0.32515   0.32929   0.33894
 Alpha virt. eigenvalues --    0.34191   0.34389   0.34747   0.35562   0.35810
 Alpha virt. eigenvalues --    0.36730   0.37314   0.37892   0.38543   0.39145
 Alpha virt. eigenvalues --    0.39385   0.40039   0.41183   0.41567   0.41868
 Alpha virt. eigenvalues --    0.42136   0.42760   0.43134   0.44140   0.44643
 Alpha virt. eigenvalues --    0.45236   0.45677   0.46608   0.48417   0.50653
 Alpha virt. eigenvalues --    0.51549   0.57128   0.57377   0.57916   0.61249
 Alpha virt. eigenvalues --    0.61691   0.62184   0.62887   0.63300   0.63826
 Alpha virt. eigenvalues --    0.63964   0.64547   0.65258   0.65649   0.65923
 Alpha virt. eigenvalues --    0.66319   0.66389   0.67909   0.69210   0.70264
 Alpha virt. eigenvalues --    0.71210   0.71730   0.72551   0.73640   0.74118
 Alpha virt. eigenvalues --    0.75210   0.76180   0.76425   0.77728   0.79091
 Alpha virt. eigenvalues --    0.79798   0.80256   0.81667   0.81986   0.82624
 Alpha virt. eigenvalues --    0.83598   0.84570   0.84838   0.85924   0.87891
 Alpha virt. eigenvalues --    0.88411   0.89355   0.92728   0.93006   0.93405
 Alpha virt. eigenvalues --    0.94227   0.94431   0.95219   0.96464   0.96741
 Alpha virt. eigenvalues --    0.97506   0.98013   0.98994   0.99824   1.02204
 Alpha virt. eigenvalues --    1.02468   1.02846   1.04260   1.04798   1.05315
 Alpha virt. eigenvalues --    1.07854   1.08605   1.09659   1.12755   1.12896
 Alpha virt. eigenvalues --    1.13782   1.16241   1.16701   1.17109   1.17646
 Alpha virt. eigenvalues --    1.19445   1.20509   1.21860   1.22739   1.24079
 Alpha virt. eigenvalues --    1.27523   1.29707   1.31477   1.34701   1.38782
 Alpha virt. eigenvalues --    1.40242   1.43443   1.44826   1.46115   1.54755
 Alpha virt. eigenvalues --    1.57438   1.58357   1.59101   1.60254   1.61651
 Alpha virt. eigenvalues --    1.62184   1.63142   1.64469   1.65540   1.66572
 Alpha virt. eigenvalues --    1.67589   1.68265   1.68627   1.70493   1.73325
 Alpha virt. eigenvalues --    1.75529   1.75899   1.76546   1.77103   1.77895
 Alpha virt. eigenvalues --    1.78490   1.82701   1.86400   1.87344   1.89100
 Alpha virt. eigenvalues --    1.89955   1.91558   1.91761   1.93127   1.94021
 Alpha virt. eigenvalues --    1.95474   1.95878   1.98689   2.00340   2.00612
 Alpha virt. eigenvalues --    2.01413   2.01982   2.05531   2.05619   2.05932
 Alpha virt. eigenvalues --    2.06686   2.06699   2.07569   2.10204   2.11083
 Alpha virt. eigenvalues --    2.11465   2.14866   2.15089   2.18798   2.20464
 Alpha virt. eigenvalues --    2.23705   2.26824   2.27034   2.28398   2.30117
 Alpha virt. eigenvalues --    2.31121   2.42301   2.44763   2.46637   2.48352
 Alpha virt. eigenvalues --    2.48882   2.49694   2.50655   2.51413   2.52922
 Alpha virt. eigenvalues --    2.58395   2.59384   2.60470   2.67043   2.67831
 Alpha virt. eigenvalues --    2.70279   2.78004   2.80492   2.81777   2.82682
 Alpha virt. eigenvalues --    2.83057   2.84043   2.86753   2.87958   2.88277
 Alpha virt. eigenvalues --    2.90146   2.92498   2.93305   2.93633   2.96498
 Alpha virt. eigenvalues --    2.96580   2.97065   2.97913   3.00377   3.00648
 Alpha virt. eigenvalues --    3.00990   3.01124   3.02102   3.02994   3.04847
 Alpha virt. eigenvalues --    3.05850   3.08643   3.12535   3.14689   3.16728
 Alpha virt. eigenvalues --    3.19409   3.20450   3.21755   3.25259   3.25405
 Alpha virt. eigenvalues --    3.27289   3.32385   3.32644   3.37345   3.45107
 Alpha virt. eigenvalues --    3.48809   3.50022   3.51082   3.53449   3.65748
 Alpha virt. eigenvalues --    3.69916   3.70599   3.71120   3.75267   3.76414
 Alpha virt. eigenvalues --    3.83356   3.88710   3.91527   3.97793   4.31606
 Alpha virt. eigenvalues --    4.36942   4.37403   4.39636   4.40474   4.41657
 Alpha virt. eigenvalues --    4.42600   4.50788   4.51910   4.55941   4.94775
 Alpha virt. eigenvalues --    4.95701   5.21683   5.35374   5.85921  23.89529
 Alpha virt. eigenvalues --   23.96029  23.98639  24.17054  24.19100  24.23965
 Alpha virt. eigenvalues --   24.24950  24.30124  24.31036  24.33979  24.34375
 Alpha virt. eigenvalues --   24.43320  24.44318  50.14590
          Condensed to atoms (all electrons):
               1          2          3          4          5          6
     1  C   13.802926  -0.066732  -0.608924  -0.632577   0.046402  -4.194553
     2  C   -0.066732  16.075316  -4.467054  -2.871786   0.706237  -2.699831
     3  C   -0.608924  -4.467054   9.802824   0.616872  -0.040041  -0.356290
     4  C   -0.632577  -2.871786   0.616872   7.757497  -0.242953   1.828175
     5  H    0.046402   0.706237  -0.040041  -0.242953   0.506259  -0.198826
     6  C   -4.194553  -2.699831  -0.356290   1.828175  -0.198826  19.321674
     7  C   -0.702374  -0.399773   0.737834  -0.067783   0.016790   0.187564
     8  H    0.093867   0.097218   0.309215  -0.005639  -0.000423   0.003839
     9  C   -0.328574   1.257362  -0.757094  -0.250396   0.027854  -0.673036
    10  H    0.052903  -0.194431   0.038046   0.518551  -0.018792   0.044771
    11  C   -1.527575  -0.193234   0.252114  -0.566302   0.055943  -5.668674
    12  O    0.016292   0.028908  -0.003659  -0.014066  -0.000811   0.250800
    13  H   -0.007740  -0.030429  -0.050791   0.018778   0.001158   0.012771
    14  H    0.021344   0.049178  -0.024670  -0.100678   0.001177  -0.035118
    15  C   -0.403553  -0.432585   0.372707   0.067899  -0.001304  -2.251513
    16  C   -0.435164  -0.183074  -0.087570   0.192263  -0.031695   1.594738
    17  C   -0.297007   0.032857   0.072190   0.097524  -0.012882   0.802844
    18  H    0.017215   0.012102  -0.008721  -0.015456  -0.001121  -0.111012
    19  C   -0.097841   0.079079  -0.143062   0.047224  -0.003464  -0.313578
    20  H   -0.016797  -0.048063   0.036893  -0.004151  -0.003223   0.016315
    21  C    0.074442  -0.105785   0.068685  -0.013303   0.005041  -0.196972
    22  H   -0.010207   0.002116  -0.001571   0.003521  -0.001651   0.023878
    23  H   -0.009126   0.008828  -0.006174   0.001163  -0.000114   0.009408
    24  H    0.008045  -0.008535   0.003829  -0.001526   0.000076  -0.026677
               7          8          9         10         11         12
     1  C   -0.702374   0.093867  -0.328574   0.052903  -1.527575   0.016292
     2  C   -0.399773   0.097218   1.257362  -0.194431  -0.193234   0.028908
     3  C    0.737834   0.309215  -0.757094   0.038046   0.252114  -0.003659
     4  C   -0.067783  -0.005639  -0.250396   0.518551  -0.566302  -0.014066
     5  H    0.016790  -0.000423   0.027854  -0.018792   0.055943  -0.000811
     6  C    0.187564   0.003839  -0.673036   0.044771  -5.668674   0.250800
     7  C    5.771316  -0.104905   0.513498   0.009927  -0.098120  -0.008762
     8  H   -0.104905   0.471481  -0.007937   0.000132  -0.036933  -0.012396
     9  C    0.513498  -0.007937   6.019672  -0.120721   0.186713   0.012888
    10  H    0.009927   0.000132  -0.120721   0.493051  -0.016648  -0.000054
    11  C   -0.098120  -0.036933   0.186713  -0.016648  14.911781   0.048433
    12  O   -0.008762  -0.012396   0.012888  -0.000054   0.048433   7.932249
    13  H    0.465691  -0.013776  -0.061084   0.000902  -0.009972  -0.000409
    14  H   -0.066902   0.002246   0.502392  -0.015221   0.009250   0.000171
    15  C    0.134052  -0.054873  -0.074214   0.004817   0.674794  -0.036260
    16  C   -0.099776   0.027278  -0.000568  -0.000446  -1.522758  -0.001016
    17  C    0.059979  -0.006271  -0.022202   0.005052  -1.151695  -0.008451
    18  H   -0.007103  -0.002962   0.008767  -0.002058   0.035982  -0.001947
    19  C   -0.036760   0.003434   0.007108  -0.001059  -0.477284  -0.003350
    20  H    0.004856  -0.000821  -0.000848   0.000178   0.062972  -0.014270
    21  C    0.014577  -0.001905  -0.009821   0.001250  -0.226527   0.001832
    22  H   -0.000769   0.000164   0.000897   0.000115   0.042465   0.000202
    23  H   -0.000869   0.000093   0.000322  -0.000031  -0.006266   0.000692
    24  H    0.000394  -0.000089  -0.000261   0.000025   0.027862   0.000088
              13         14         15         16         17         18
     1  C   -0.007740   0.021344  -0.403553  -0.435164  -0.297007   0.017215
     2  C   -0.030429   0.049178  -0.432585  -0.183074   0.032857   0.012102
     3  C   -0.050791  -0.024670   0.372707  -0.087570   0.072190  -0.008721
     4  C    0.018778  -0.100678   0.067899   0.192263   0.097524  -0.015456
     5  H    0.001158   0.001177  -0.001304  -0.031695  -0.012882  -0.001121
     6  C    0.012771  -0.035118  -2.251513   1.594738   0.802844  -0.111012
     7  C    0.465691  -0.066902   0.134052  -0.099776   0.059979  -0.007103
     8  H   -0.013776   0.002246  -0.054873   0.027278  -0.006271  -0.002962
     9  C   -0.061084   0.502392  -0.074214  -0.000568  -0.022202   0.008767
    10  H    0.000902  -0.015221   0.004817  -0.000446   0.005052  -0.002058
    11  C   -0.009972   0.009250   0.674794  -1.522758  -1.151695   0.035982
    12  O   -0.000409   0.000171  -0.036260  -0.001016  -0.008451  -0.001947
    13  H    0.485584  -0.015135   0.010210  -0.004590   0.001935  -0.000583
    14  H   -0.015135   0.494935  -0.008709   0.001881  -0.001852  -0.000039
    15  C    0.010210  -0.008709  14.144893  -5.547442  -1.263690   0.655600
    16  C   -0.004590   0.001881  -5.547442  11.335071   0.959108  -0.096204
    17  C    0.001935  -0.001852  -1.263690   0.959108   6.826716  -0.184594
    18  H   -0.000583  -0.000039   0.655600  -0.096204  -0.184594   0.507044
    19  C   -0.000733   0.000317   0.718330  -0.081943  -0.484485   0.049958
    20  H    0.000046  -0.000058   0.037754   0.389497   0.012641  -0.001380
    21  C    0.000494  -0.000319   0.238761  -0.697200   0.520996  -0.004133
    22  H   -0.000027   0.000023  -0.140407   0.060873   0.455723  -0.017104
    23  H   -0.000016   0.000008   0.000480  -0.086214   0.002282   0.000706
    24  H    0.000011  -0.000006   0.010683  -0.033885  -0.082302   0.000549
              19         20         21         22         23         24
     1  C   -0.097841  -0.016797   0.074442  -0.010207  -0.009126   0.008045
     2  C    0.079079  -0.048063  -0.105785   0.002116   0.008828  -0.008535
     3  C   -0.143062   0.036893   0.068685  -0.001571  -0.006174   0.003829
     4  C    0.047224  -0.004151  -0.013303   0.003521   0.001163  -0.001526
     5  H   -0.003464  -0.003223   0.005041  -0.001651  -0.000114   0.000076
     6  C   -0.313578   0.016315  -0.196972   0.023878   0.009408  -0.026677
     7  C   -0.036760   0.004856   0.014577  -0.000769  -0.000869   0.000394
     8  H    0.003434  -0.000821  -0.001905   0.000164   0.000093  -0.000089
     9  C    0.007108  -0.000848  -0.009821   0.000897   0.000322  -0.000261
    10  H   -0.001059   0.000178   0.001250   0.000115  -0.000031   0.000025
    11  C   -0.477284   0.062972  -0.226527   0.042465  -0.006266   0.027862
    12  O   -0.003350  -0.014270   0.001832   0.000202   0.000692   0.000088
    13  H   -0.000733   0.000046   0.000494  -0.000027  -0.000016   0.000011
    14  H    0.000317  -0.000058  -0.000319   0.000023   0.000008  -0.000006
    15  C    0.718330   0.037754   0.238761  -0.140407   0.000480   0.010683
    16  C   -0.081943   0.389497  -0.697200   0.060873  -0.086214  -0.033885
    17  C   -0.484485   0.012641   0.520996   0.455723   0.002282  -0.082302
    18  H    0.049958  -0.001380  -0.004133  -0.017104   0.000706   0.000549
    19  C    6.366395  -0.150204   0.519827  -0.005966   0.484218  -0.069959
    20  H   -0.150204   0.461964  -0.007896   0.000581  -0.012236   0.002003
    21  C    0.519827  -0.007896   5.721275  -0.094479  -0.053463   0.520286
    22  H   -0.005966   0.000581  -0.094479   0.491028   0.000808  -0.015914
    23  H    0.484218  -0.012236  -0.053463   0.000808   0.481011  -0.016344
    24  H   -0.069959   0.002003   0.520286  -0.015914  -0.016344   0.500168
 Mulliken charges:
               1
     1  C    1.205310
     2  C   -0.647891
     3  C    0.244412
     4  C   -0.362854
     5  H    0.190363
     6  C   -1.370695
     7  C   -0.322582
     8  H    0.239963
     9  C   -0.230715
    10  H    0.199741
    11  C    1.193679
    12  O   -0.187103
    13  H    0.197706
    14  H    0.185783
    15  C   -0.856431
    16  C    0.348837
    17  C   -0.334415
    18  H    0.166495
    19  C   -0.406201
    20  H    0.234246
    21  C   -0.275660
    22  H    0.205702
    23  H    0.200833
    24  H    0.181479
 Sum of Mulliken charges =  -0.00000
 Mulliken charges with hydrogens summed into heavy atoms:
               1
     1  C    1.205310
     2  C   -0.457528
     3  C    0.484376
     4  C   -0.163113
     6  C   -1.370695
     7  C   -0.124876
     9  C   -0.044932
    11  C    1.193679
    12  O   -0.187103
    15  C   -0.689936
    16  C    0.583082
    17  C   -0.128714
    19  C   -0.205368
    21  C   -0.094181
 Electronic spatial extent (au):  <R**2>=           3067.1710
 Charge=             -0.0000 electrons
 Dipole moment (field-independent basis, Debye):
    X=              0.0954    Y=             -3.2480    Z=             -0.1386  Tot=              3.2523
 Quadrupole moment (field-independent basis, Debye-Ang):
   XX=            -64.1479   YY=            -83.9311   ZZ=            -79.8760
   XY=              0.4637   XZ=              2.7548   YZ=             -0.7271
 Traceless Quadrupole moment (field-independent basis, Debye-Ang):
   XX=             11.8371   YY=             -7.9461   ZZ=             -3.8910
   XY=              0.4637   XZ=              2.7548   YZ=             -0.7271
 Octapole moment (field-independent basis, Debye-Ang**2):
  XXX=              3.8478  YYY=            -20.9016  ZZZ=              0.7203  XYY=              2.5936
  XXY=             -8.9712  XXZ=             -1.7051  XZZ=             -3.3836  YZZ=              2.5974
  YYZ=             -1.1357  XYZ=             18.9030
 Hexadecapole moment (field-independent basis, Debye-Ang**3):
 XXXX=          -2863.5423 YYYY=           -711.0400 ZZZZ=           -265.9974 XXXY=             11.3385
 XXXZ=             68.7752 YYYX=             -0.6479 YYYZ=             -0.0918 ZZZX=              7.3828
 ZZZY=             -4.1124 XXYY=           -613.2073 XXZZ=           -602.7851 YYZZ=           -139.1956
 XXYZ=             -1.8143 YYXZ=            -10.1059 ZZXY=              0.6638
 N-N= 7.820674099417D+02 E-N=-2.906368612132D+03  KE= 5.764084536963D+02
 No NMR shielding tensors so no spin-rotation constants.
 Leave Link  601 at Tue Nov 22 15:02:59 2022, MaxMem= 16106127360 cpu:               5.0 elap:               0.2
 (Enter /opt/ap/G16/B01/g16/l9999.exe)
 1\1\GINC-N19\SP\RwB97XD\6-311++G(d,p)\C13H10O1\ROOT\22-Nov-2022\0\\#P 
 wB97XD/6-311++G(d,p) scf=maxcycle=512\\_conf027.gjf nmol_natom 1_24\\0
 ,1\C\C,1,1.39746343\C,1,1.39996263,2,119.28066518\C,2,1.39288453,1,120
 .37436646,3,-0.51002981,0\H,2,0.95014703,1,119.82324024,3,179.45634896
 ,0\C,1,1.49653039,2,122.77761373,4,174.46828757,0\C,3,1.3870125,1,120.
 10017821,2,-0.37315804,0\H,3,0.9501092,1,119.95246451,2,179.5923884,0\
 C,7,1.38720039,3,120.16568731,1,1.0745106,0\H,4,0.95011919,2,120.18755
 644,1,-179.31195299,0\C,6,1.49516902,1,120.70972921,2,45.,0\O,6,1.2215
 0059,1,119.67074267,2,-135.,0\H,7,0.94956661,3,119.91274826,1,-178.886
 36029,0\H,9,0.94992259,7,119.76037934,3,179.10763853,0\C,11,1.39713972
 ,6,122.62585705,1,30.97749054,0\C,11,1.40039562,6,117.74753532,1,-153.
 15467779,0\C,15,1.39455701,11,119.80747484,6,175.4763048,0\H,15,0.9496
 2854,11,120.10535689,6,-4.50802339,0\C,16,1.38466431,11,120.4617377,6,
 -176.88197195,0\H,16,0.9497464,11,119.75779177,6,3.14699974,0\C,17,1.3
 9088945,15,120.3475273,11,0.7973643,0\H,17,0.94984298,15,119.8156451,1
 1,-179.16676483,0\H,19,0.94974749,16,119.98566335,11,-178.40987425,0\H
 ,21,0.94938585,17,120.0744529,15,179.91636093,0\\Version=ES64L-G16RevB
 .01\State=1-A\HF=-576.4193426\RMSD=4.263e-09\Dipole=-0.0024056,0.80950
 5,0.9909432\Quadrupole=8.9056758,-4.5929804,-4.3126954,-1.4126966,1.00
 42233,-1.5680934\PG=C01 [X(C13H10O1)]\\@


 Change starts when someone sees the next step.
                            -- William Drayton
 Job cpu time:       0 days  0 hours 21 minutes 36.7 seconds.
 Elapsed time:       0 days  0 hours  0 minutes 40.8 seconds.
 File lengths (MBytes):  RWF=     78 Int=      0 D2E=      0 Chk=      9 Scr=      1
 Normal termination of Gaussian 16 at Tue Nov 22 15:02:59 2022.
