LAMMPS Description

24 atoms
25 bonds
39 angles
56 dihedrals
11 impropers

13 atom types
4 bond types
5 angle types
2 dihedral types
2 improper types

-50.00000  50.00000 xlo xhi
-50.00000  50.00000 ylo yhi
-50.00000  50.00000 zlo zhi

Masses

1  12.01000 # CA0
2  12.01000 # CA1
3  12.01000 # CA2
4  12.01000 # CA3
5   1.00800 # HA0
6  12.01000 # C
7  12.01000 # CA4
8   1.00800 # HA1
9  12.01000 # CA5
10   1.00800 # HA2
11  16.00000 # O
12   1.00800 # HA3
13   1.00800 # HA4

Atoms

1 1 1  -0.06446   1.30956   0.39248  -0.02816
2 1 2  -0.00004   1.42612  -0.84831  -0.68160
3 1 3  -0.08258   2.45741   0.95887   0.55716
4 1 4  -0.14725   2.65596  -1.51600  -0.72797
5 1 5   0.03700   0.56591  -1.29739  -1.17234
6 1 6   0.47863   0.00002   1.14404   0.00010
7 1 7  -0.11051   3.68654   0.29082   0.51000
8 1 8   0.11977   2.39834   1.92513   1.05469
9 1 9  -0.08036   3.78600  -0.94809  -0.13072
10 1 10   0.12416   2.73475  -2.47380  -1.23689
11 1 1  -0.06446  -1.30955   0.39253   0.02825
12 1 11  -0.50008   0.00002   2.36227   0.00016
13 1 12   0.11064   4.56615   0.73819   0.96743
14 1 13   0.10437   4.74234  -1.46476  -0.17110
15 1 2  -0.00004  -1.42630  -0.84807   0.68202
16 1 3  -0.08258  -2.45723   0.95877  -0.55754
17 1 4  -0.14725  -2.65616  -1.51573   0.72825
18 1 5   0.03700  -0.56621  -1.29701   1.17310
19 1 7  -0.11051  -3.68638   0.29076  -0.51053
20 1 8   0.11977  -2.39800   1.92489  -1.05534
21 1 9  -0.08036  -3.78603  -0.94797   0.13052
22 1 10   0.12416  -2.73510  -2.47337   1.23743
23 1 12   0.11064  -4.56586   0.73801  -0.96833
24 1 13   0.10437  -4.74239  -1.46461   0.17079

Bonds

1 4 1 2
2 4 1 3
3 1 1 6
4 4 2 4
5 3 2 5
6 4 3 7
7 3 3 8
8 4 4 9
9 3 4 10
10 1 6 11
11 2 6 12
12 4 7 9
13 3 7 13
14 3 9 14
15 4 11 15
16 4 11 16
17 4 15 17
18 3 15 18
19 4 16 19
20 3 16 20
21 4 17 21
22 3 17 22
23 4 19 21
24 3 19 23
25 3 21 24

Angles

1 1 1 2 4
2 1 1 3 7
3 1 2 1 3
4 1 2 4 9
5 1 3 7 9
6 1 4 9 7
7 1 11 15 17
8 1 11 16 19
9 1 15 11 16
10 1 15 17 21
11 1 16 19 21
12 1 17 21 19
13 3 1 2 5
14 3 1 3 8
15 3 2 4 10
16 3 3 7 13
17 3 4 2 5
18 3 4 9 14
19 3 7 3 8
20 3 7 9 14
21 3 9 4 10
22 3 9 7 13
23 3 11 15 18
24 3 11 16 20
25 3 15 17 22
26 3 16 19 23
27 3 17 15 18
28 3 17 21 24
29 3 19 16 20
30 3 19 21 24
31 3 21 17 22
32 3 21 19 23
33 5 2 1 6
34 5 3 1 6
35 5 6 11 15
36 5 6 11 16
37 2 1 6 11
38 4 1 6 12
39 4 11 6 12

Dihedrals

1 2 1 6 11 15
2 2 1 6 11 16
3 2 2 1 6 11
4 2 3 1 6 11
5 2 2 1 6 12
6 2 3 1 6 12
7 2 12 6 11 15
8 2 12 6 11 16
9 1 1 2 4 9
10 1 1 3 7 9
11 1 2 1 3 7
12 1 2 4 9 7
13 1 3 1 2 4
14 1 3 7 9 4
15 1 11 15 17 21
16 1 11 16 19 21
17 1 15 11 16 19
18 1 15 17 21 19
19 1 16 11 15 17
20 1 16 19 21 17
21 1 1 2 4 10
22 1 1 3 7 13
23 1 2 1 3 8
24 1 2 4 9 14
25 1 3 1 2 5
26 1 3 7 9 14
27 1 4 9 7 13
28 1 7 9 4 10
29 1 5 2 4 9
30 1 8 3 7 9
31 1 11 15 17 22
32 1 11 16 19 23
33 1 15 11 16 20
34 1 15 17 21 24
35 1 16 11 15 18
36 1 16 19 21 24
37 1 17 21 19 23
38 1 19 21 17 22
39 1 18 15 17 21
40 1 20 16 19 21
41 1 4 2 1 6
42 1 6 1 3 7
43 1 6 11 15 17
44 1 6 11 16 19
45 1 5 2 1 6
46 1 6 1 3 8
47 1 6 11 15 18
48 1 6 11 16 20
49 1 5 2 4 10
50 1 8 3 7 13
51 1 10 4 9 14
52 1 13 7 9 14
53 1 18 15 17 22
54 1 20 16 19 23
55 1 22 17 21 24
56 1 23 19 21 24

Impropers

1 1 1 11 6 12
2 2 1 4 2 5
3 2 1 7 3 8
4 2 2 9 4 10
5 2 3 9 7 13
6 2 4 7 9 14
7 2 11 17 15 18
8 2 11 19 16 20
9 2 15 21 17 22
10 2 16 21 19 23
11 2 17 19 21 24

