LAMMPS Description

120 atoms
120 bonds
176 angles
240 dihedrals
48 impropers

11 atom types
6 bond types
7 angle types
4 dihedral types
2 improper types

-50.00000  50.00000 xlo xhi
-50.00000  50.00000 ylo yhi
-50.00000  50.00000 zlo zhi

Masses

1  12.01000 # CA0
2  12.01000 # CA1
3  12.01000 # CA2
4  12.01000 # CA3
5   1.00800 # HA0
6   1.00800 # HA1
7   1.00800 # HA2
8  12.01000 # C
9  16.00000 # OH
10  16.00000 # O0
11   1.00800 # HO

Atoms

1 1 1  -0.01341   1.93821   2.70975  19.56181
2 1 2  -0.11934   2.75681   2.55267  18.44078
3 1 2  -0.11934   0.79968   1.92255  19.74366
4 1 3  -0.08789   2.43756   1.59151  17.50207
5 1 5   0.12599   3.63931   3.16269  18.30165
6 1 8   0.70288   2.25640   3.72908  20.59746
7 1 3  -0.08789   0.48938   0.96143  18.79690
8 1 5   0.12599   0.16050   2.04654  20.60863
9 1 4  -0.09024   1.31174   0.80560  17.69099
10 1 6   0.10290   3.06016   1.45871  16.63190
11 1 9  -0.61217   3.39908   4.40696  20.38380
12 1 10  -0.60901   1.63083   4.04518  21.57497
13 1 6   0.10290  -0.38011   0.33355  18.91881
14 1 7   0.10638   1.07256   0.04875  16.95931
15 1 11   0.47224   3.58535   5.10327  21.02941
16 2 1  -0.01341   7.41901   2.70219  19.57260
17 2 2  -0.11934   8.23683   2.54985  18.45032
18 2 2  -0.11934   6.28178   1.91275  19.75288
19 2 3  -0.08789   7.91939   1.58976  17.50984
20 2 5   0.12599   9.11787   3.16223  18.31196
21 2 8   0.70288   7.73740   3.71806  20.61168
22 2 3  -0.08789   5.97290   0.95312  18.80410
23 2 5   0.12599   5.64296   2.03340  20.61857
24 2 4  -0.09024   6.79537   0.80100  17.69767
25 2 6   0.10290   8.54248   1.45943  16.63952
26 2 9  -0.61217   8.88263   4.39291  20.40243
27 2 10  -0.60901   7.11134   4.03258  21.58944
28 2 6   0.10290   5.10480   0.32313  18.92515
29 2 7   0.10638   6.55764   0.04495  16.96452
30 2 11   0.47224   9.07041   5.08593  21.05110
31 3 1  -0.01341   4.85328   0.09924  13.12304
32 3 2  -0.11934   4.02840  -0.05639  14.23939
33 3 2  -0.11934   5.98938  -0.69210  12.94576
34 3 3  -0.08789   4.33746  -1.02190  15.17714
35 3 5   0.12599   3.14805   0.55753  14.37475
36 3 8   0.70288   4.54418   1.12163  12.08804
37 3 3  -0.08789   6.28978  -1.65743  13.89144
38 3 5   0.12599   6.63343  -0.56849  12.08461
39 3 4  -0.09024   5.46035  -1.81278  14.99212
40 3 6   0.10290   3.70853  -1.15512  16.04282
41 3 9  -0.61217   3.39016   1.78511  12.28374
42 3 10  -0.60901   5.18077   1.44567  11.12051
43 3 6   0.10290   7.15674  -2.28903  13.77283
44 3 7   0.10638   5.69133  -2.57342  15.72253
45 3 11   0.47224   3.20301   2.47646  11.63311
46 4 1  -0.01341  10.33298   0.09906  13.12932
47 4 2  -0.11934   9.50505  -0.06223  14.24275
48 4 2  -0.11934  11.47050  -0.69012  12.95186
49 4 3  -0.08789   9.81397  -1.02994  15.17832
50 4 5   0.12599   8.62331   0.54968  14.37816
51 4 8   0.70288  10.02635   1.12545  12.09761
52 4 3  -0.08789  11.77017  -1.65817  13.89486
53 4 5   0.12599  12.11683  -0.56223  12.09296
54 4 4  -0.09024  10.93888  -1.81811  14.99344
55 4 6   0.10290   9.18397  -1.16641  16.04272
56 4 9  -0.61217   8.87491   1.79229  12.29644
57 4 10  -0.60901  10.66435   1.45188  11.13178
58 4 6   0.10290  12.63838  -2.28811  13.77572
59 4 7   0.10638  11.17034  -2.57992  15.72248
60 4 11   0.47224   8.69107   2.48826  11.64983
61 5 1  -0.01341   3.36319   5.05794   8.66017
62 5 2  -0.11934   4.19112   5.21923   7.54674
63 5 2  -0.11934   2.22567   5.84712   8.83764
64 5 3  -0.08789   3.88220   6.18694   6.61118
65 5 5   0.12599   5.07286   4.60732   7.41133
66 5 8   0.70288   3.66982   4.03155   9.69189
67 5 3  -0.08789   1.92600   6.81517   7.89463
68 5 5   0.12599   1.57934   5.71923   9.69654
69 5 4  -0.09024   2.75729   6.97511   6.79606
70 5 6   0.10290   4.51220   6.32341   5.74677
71 5 9  -0.61217   4.82126   3.36471   9.49306
72 5 10  -0.60901   3.03182   3.70512  10.65771
73 5 6   0.10290   1.05779   7.44511   8.01377
74 5 7   0.10638   2.52583   7.73692   6.06702
75 5 11   0.47224   5.00510   2.66874  10.13966
76 6 1  -0.01341   8.84289   5.05776   8.66646
77 6 2  -0.11934   9.66777   5.21339   7.55011
78 6 2  -0.11934   7.70679   5.84910   8.84373
79 6 3  -0.08789   9.35871   6.17890   6.61236
80 6 5   0.12599  10.54812   4.59947   7.41474
81 6 8   0.70288   9.15199   4.03537   9.70145
82 6 3  -0.08789   7.40639   6.81443   7.89805
83 6 5   0.12599   7.06274   5.72549   9.70489
84 6 4  -0.09024   8.23582   6.96978   6.79738
85 6 6   0.10290   9.98764   6.31212   5.74667
86 6 9  -0.61217  10.30601   3.37189   9.50575
87 6 10  -0.60901   8.51540   3.71133  10.66898
88 6 6   0.10290   6.53943   7.44603   8.01666
89 6 7   0.10638   8.00484   7.73042   6.06697
90 6 11   0.47224  10.49316   2.68054  10.15639
91 7 1  -0.01341   6.27716   2.45481   2.21690
92 7 2  -0.11934   5.45934   2.60715   3.33917
93 7 2  -0.11934   7.41439   3.24425   2.03662
94 7 3  -0.08789   5.77678   3.56724   4.27966
95 7 5   0.12599   4.57830   1.99477   3.47754
96 7 8   0.70288   5.95877   1.43894   1.17782
97 7 3  -0.08789   7.72328   4.20388   2.98540
98 7 5   0.12599   8.05321   3.12360   1.17093
99 7 4  -0.09024   6.90080   4.35600   4.09182
100 7 6   0.10290   5.15369   3.69757   5.14998
101 7 9  -0.61217   4.81354   0.76409   1.38707
102 7 10  -0.60901   6.58483   1.12442   0.20005
103 7 6   0.10290   8.59137   4.83387   2.86435
104 7 7   0.10638   7.13853   5.11205   4.82497
105 7 11   0.47224   4.62576   0.07107   0.73840
106 8 1  -0.01341  11.75796   2.44725   2.22768
107 8 2  -0.11934  10.93936   2.60433   3.34871
108 8 2  -0.11934  12.89649   3.23445   2.04584
109 8 3  -0.08789  11.25861   3.56549   4.28743
110 8 5   0.12599  10.05686   1.99431   3.48784
111 8 8   0.70288  11.43977   1.42792   1.19204
112 8 3  -0.08789  13.20679   4.19557   2.99259
113 8 5   0.12599  13.53567   3.11046   1.18086
114 8 4  -0.09024  12.38443   4.35140   4.09850
115 8 6   0.10290  10.63601   3.69829   5.15760
116 8 9  -0.61217  10.29709   0.75004   1.40570
117 8 10  -0.60901  12.06534   1.11182   0.21452
118 8 6   0.10290  14.07628   4.82345   2.87069
119 8 7   0.10638  12.62361   5.10825   4.83018
120 8 11   0.47224  10.11082   0.05373   0.76009

Bonds

1 6 1 2
2 6 1 3
3 3 1 6
4 6 2 4
5 2 2 5
6 6 3 7
7 2 3 8
8 6 4 9
9 2 4 10
10 4 6 11
11 5 6 12
12 6 7 9
13 2 7 13
14 2 9 14
15 1 11 15
1 6 16 17
2 6 16 18
3 3 16 21
4 6 17 19
5 2 17 20
6 6 18 22
7 2 18 23
8 6 19 24
9 2 19 25
10 4 21 26
11 5 21 27
12 6 22 24
13 2 22 28
14 2 24 29
15 1 26 30
1 6 31 32
2 6 31 33
3 3 31 36
4 6 32 34
5 2 32 35
6 6 33 37
7 2 33 38
8 6 34 39
9 2 34 40
10 4 36 41
11 5 36 42
12 6 37 39
13 2 37 43
14 2 39 44
15 1 41 45
1 6 46 47
2 6 46 48
3 3 46 51
4 6 47 49
5 2 47 50
6 6 48 52
7 2 48 53
8 6 49 54
9 2 49 55
10 4 51 56
11 5 51 57
12 6 52 54
13 2 52 58
14 2 54 59
15 1 56 60
1 6 61 62
2 6 61 63
3 3 61 66
4 6 62 64
5 2 62 65
6 6 63 67
7 2 63 68
8 6 64 69
9 2 64 70
10 4 66 71
11 5 66 72
12 6 67 69
13 2 67 73
14 2 69 74
15 1 71 75
1 6 76 77
2 6 76 78
3 3 76 81
4 6 77 79
5 2 77 80
6 6 78 82
7 2 78 83
8 6 79 84
9 2 79 85
10 4 81 86
11 5 81 87
12 6 82 84
13 2 82 88
14 2 84 89
15 1 86 90
1 6 91 92
2 6 91 93
3 3 91 96
4 6 92 94
5 2 92 95
6 6 93 97
7 2 93 98
8 6 94 99
9 2 94 100
10 4 96 101
11 5 96 102
12 6 97 99
13 2 97 103
14 2 99 104
15 1 101 105
1 6 106 107
2 6 106 108
3 3 106 111
4 6 107 109
5 2 107 110
6 6 108 112
7 2 108 113
8 6 109 114
9 2 109 115
10 4 111 116
11 5 111 117
12 6 112 114
13 2 112 118
14 2 114 119
15 1 116 120

Angles

1 1 1 2 4
2 1 1 3 7
3 1 2 1 3
4 1 2 4 9
5 1 3 7 9
6 1 4 9 7
7 3 1 2 5
8 3 1 3 8
9 3 2 4 10
10 3 3 7 13
11 3 4 2 5
12 3 4 9 14
13 3 7 3 8
14 3 7 9 14
15 3 9 4 10
16 3 9 7 13
17 5 2 1 6
18 5 3 1 6
19 4 1 6 12
20 6 1 6 11
21 2 11 6 12
22 7 6 11 15
1 1 16 17 19
2 1 16 18 22
3 1 17 16 18
4 1 17 19 24
5 1 18 22 24
6 1 19 24 22
7 3 16 17 20
8 3 16 18 23
9 3 17 19 25
10 3 18 22 28
11 3 19 17 20
12 3 19 24 29
13 3 22 18 23
14 3 22 24 29
15 3 24 19 25
16 3 24 22 28
17 5 17 16 21
18 5 18 16 21
19 4 16 21 27
20 6 16 21 26
21 2 26 21 27
22 7 21 26 30
1 1 31 32 34
2 1 31 33 37
3 1 32 31 33
4 1 32 34 39
5 1 33 37 39
6 1 34 39 37
7 3 31 32 35
8 3 31 33 38
9 3 32 34 40
10 3 33 37 43
11 3 34 32 35
12 3 34 39 44
13 3 37 33 38
14 3 37 39 44
15 3 39 34 40
16 3 39 37 43
17 5 32 31 36
18 5 33 31 36
19 4 31 36 42
20 6 31 36 41
21 2 41 36 42
22 7 36 41 45
1 1 46 47 49
2 1 46 48 52
3 1 47 46 48
4 1 47 49 54
5 1 48 52 54
6 1 49 54 52
7 3 46 47 50
8 3 46 48 53
9 3 47 49 55
10 3 48 52 58
11 3 49 47 50
12 3 49 54 59
13 3 52 48 53
14 3 52 54 59
15 3 54 49 55
16 3 54 52 58
17 5 47 46 51
18 5 48 46 51
19 4 46 51 57
20 6 46 51 56
21 2 56 51 57
22 7 51 56 60
1 1 61 62 64
2 1 61 63 67
3 1 62 61 63
4 1 62 64 69
5 1 63 67 69
6 1 64 69 67
7 3 61 62 65
8 3 61 63 68
9 3 62 64 70
10 3 63 67 73
11 3 64 62 65
12 3 64 69 74
13 3 67 63 68
14 3 67 69 74
15 3 69 64 70
16 3 69 67 73
17 5 62 61 66
18 5 63 61 66
19 4 61 66 72
20 6 61 66 71
21 2 71 66 72
22 7 66 71 75
1 1 76 77 79
2 1 76 78 82
3 1 77 76 78
4 1 77 79 84
5 1 78 82 84
6 1 79 84 82
7 3 76 77 80
8 3 76 78 83
9 3 77 79 85
10 3 78 82 88
11 3 79 77 80
12 3 79 84 89
13 3 82 78 83
14 3 82 84 89
15 3 84 79 85
16 3 84 82 88
17 5 77 76 81
18 5 78 76 81
19 4 76 81 87
20 6 76 81 86
21 2 86 81 87
22 7 81 86 90
1 1 91 92 94
2 1 91 93 97
3 1 92 91 93
4 1 92 94 99
5 1 93 97 99
6 1 94 99 97
7 3 91 92 95
8 3 91 93 98
9 3 92 94 100
10 3 93 97 103
11 3 94 92 95
12 3 94 99 104
13 3 97 93 98
14 3 97 99 104
15 3 99 94 100
16 3 99 97 103
17 5 92 91 96
18 5 93 91 96
19 4 91 96 102
20 6 91 96 101
21 2 101 96 102
22 7 96 101 105
1 1 106 107 109
2 1 106 108 112
3 1 107 106 108
4 1 107 109 114
5 1 108 112 114
6 1 109 114 112
7 3 106 107 110
8 3 106 108 113
9 3 107 109 115
10 3 108 112 118
11 3 109 107 110
12 3 109 114 119
13 3 112 108 113
14 3 112 114 119
15 3 114 109 115
16 3 114 112 118
17 5 107 106 111
18 5 108 106 111
19 4 106 111 117
20 6 106 111 116
21 2 116 111 117
22 7 111 116 120

Dihedrals

1 3 2 1 6 11
2 3 3 1 6 11
3 3 2 1 6 12
4 3 3 1 6 12
5 1 1 6 11 15
6 2 1 2 4 9
7 2 1 3 7 9
8 2 2 1 3 7
9 2 2 4 9 7
10 2 3 1 2 4
11 2 3 7 9 4
12 2 1 2 4 10
13 2 1 3 7 13
14 2 2 1 3 8
15 2 2 4 9 14
16 2 3 1 2 5
17 2 3 7 9 14
18 2 4 9 7 13
19 2 7 9 4 10
20 2 5 2 4 9
21 2 8 3 7 9
22 2 4 2 1 6
23 2 6 1 3 7
24 2 5 2 1 6
25 2 6 1 3 8
26 2 5 2 4 10
27 2 8 3 7 13
28 2 10 4 9 14
29 2 13 7 9 14
30 4 12 6 11 15
1 3 17 16 21 26
2 3 18 16 21 26
3 3 17 16 21 27
4 3 18 16 21 27
5 1 16 21 26 30
6 2 16 17 19 24
7 2 16 18 22 24
8 2 17 16 18 22
9 2 17 19 24 22
10 2 18 16 17 19
11 2 18 22 24 19
12 2 16 17 19 25
13 2 16 18 22 28
14 2 17 16 18 23
15 2 17 19 24 29
16 2 18 16 17 20
17 2 18 22 24 29
18 2 19 24 22 28
19 2 22 24 19 25
20 2 20 17 19 24
21 2 23 18 22 24
22 2 19 17 16 21
23 2 21 16 18 22
24 2 20 17 16 21
25 2 21 16 18 23
26 2 20 17 19 25
27 2 23 18 22 28
28 2 25 19 24 29
29 2 28 22 24 29
30 4 27 21 26 30
1 3 32 31 36 41
2 3 33 31 36 41
3 3 32 31 36 42
4 3 33 31 36 42
5 1 31 36 41 45
6 2 31 32 34 39
7 2 31 33 37 39
8 2 32 31 33 37
9 2 32 34 39 37
10 2 33 31 32 34
11 2 33 37 39 34
12 2 31 32 34 40
13 2 31 33 37 43
14 2 32 31 33 38
15 2 32 34 39 44
16 2 33 31 32 35
17 2 33 37 39 44
18 2 34 39 37 43
19 2 37 39 34 40
20 2 35 32 34 39
21 2 38 33 37 39
22 2 34 32 31 36
23 2 36 31 33 37
24 2 35 32 31 36
25 2 36 31 33 38
26 2 35 32 34 40
27 2 38 33 37 43
28 2 40 34 39 44
29 2 43 37 39 44
30 4 42 36 41 45
1 3 47 46 51 56
2 3 48 46 51 56
3 3 47 46 51 57
4 3 48 46 51 57
5 1 46 51 56 60
6 2 46 47 49 54
7 2 46 48 52 54
8 2 47 46 48 52
9 2 47 49 54 52
10 2 48 46 47 49
11 2 48 52 54 49
12 2 46 47 49 55
13 2 46 48 52 58
14 2 47 46 48 53
15 2 47 49 54 59
16 2 48 46 47 50
17 2 48 52 54 59
18 2 49 54 52 58
19 2 52 54 49 55
20 2 50 47 49 54
21 2 53 48 52 54
22 2 49 47 46 51
23 2 51 46 48 52
24 2 50 47 46 51
25 2 51 46 48 53
26 2 50 47 49 55
27 2 53 48 52 58
28 2 55 49 54 59
29 2 58 52 54 59
30 4 57 51 56 60
1 3 62 61 66 71
2 3 63 61 66 71
3 3 62 61 66 72
4 3 63 61 66 72
5 1 61 66 71 75
6 2 61 62 64 69
7 2 61 63 67 69
8 2 62 61 63 67
9 2 62 64 69 67
10 2 63 61 62 64
11 2 63 67 69 64
12 2 61 62 64 70
13 2 61 63 67 73
14 2 62 61 63 68
15 2 62 64 69 74
16 2 63 61 62 65
17 2 63 67 69 74
18 2 64 69 67 73
19 2 67 69 64 70
20 2 65 62 64 69
21 2 68 63 67 69
22 2 64 62 61 66
23 2 66 61 63 67
24 2 65 62 61 66
25 2 66 61 63 68
26 2 65 62 64 70
27 2 68 63 67 73
28 2 70 64 69 74
29 2 73 67 69 74
30 4 72 66 71 75
1 3 77 76 81 86
2 3 78 76 81 86
3 3 77 76 81 87
4 3 78 76 81 87
5 1 76 81 86 90
6 2 76 77 79 84
7 2 76 78 82 84
8 2 77 76 78 82
9 2 77 79 84 82
10 2 78 76 77 79
11 2 78 82 84 79
12 2 76 77 79 85
13 2 76 78 82 88
14 2 77 76 78 83
15 2 77 79 84 89
16 2 78 76 77 80
17 2 78 82 84 89
18 2 79 84 82 88
19 2 82 84 79 85
20 2 80 77 79 84
21 2 83 78 82 84
22 2 79 77 76 81
23 2 81 76 78 82
24 2 80 77 76 81
25 2 81 76 78 83
26 2 80 77 79 85
27 2 83 78 82 88
28 2 85 79 84 89
29 2 88 82 84 89
30 4 87 81 86 90
1 3 92 91 96 101
2 3 93 91 96 101
3 3 92 91 96 102
4 3 93 91 96 102
5 1 91 96 101 105
6 2 91 92 94 99
7 2 91 93 97 99
8 2 92 91 93 97
9 2 92 94 99 97
10 2 93 91 92 94
11 2 93 97 99 94
12 2 91 92 94 100
13 2 91 93 97 103
14 2 92 91 93 98
15 2 92 94 99 104
16 2 93 91 92 95
17 2 93 97 99 104
18 2 94 99 97 103
19 2 97 99 94 100
20 2 95 92 94 99
21 2 98 93 97 99
22 2 94 92 91 96
23 2 96 91 93 97
24 2 95 92 91 96
25 2 96 91 93 98
26 2 95 92 94 100
27 2 98 93 97 103
28 2 100 94 99 104
29 2 103 97 99 104
30 4 102 96 101 105
1 3 107 106 111 116
2 3 108 106 111 116
3 3 107 106 111 117
4 3 108 106 111 117
5 1 106 111 116 120
6 2 106 107 109 114
7 2 106 108 112 114
8 2 107 106 108 112
9 2 107 109 114 112
10 2 108 106 107 109
11 2 108 112 114 109
12 2 106 107 109 115
13 2 106 108 112 118
14 2 107 106 108 113
15 2 107 109 114 119
16 2 108 106 107 110
17 2 108 112 114 119
18 2 109 114 112 118
19 2 112 114 109 115
20 2 110 107 109 114
21 2 113 108 112 114
22 2 109 107 106 111
23 2 111 106 108 112
24 2 110 107 106 111
25 2 111 106 108 113
26 2 110 107 109 115
27 2 113 108 112 118
28 2 115 109 114 119
29 2 118 112 114 119
30 4 117 111 116 120

Impropers

1 1 1 11 6 12
2 2 1 4 2 5
3 2 1 7 3 8
4 2 2 9 4 10
5 2 3 9 7 13
6 2 4 7 9 14
1 1 16 26 21 27
2 2 16 19 17 20
3 2 16 22 18 23
4 2 17 24 19 25
5 2 18 24 22 28
6 2 19 22 24 29
1 1 31 41 36 42
2 2 31 34 32 35
3 2 31 37 33 38
4 2 32 39 34 40
5 2 33 39 37 43
6 2 34 37 39 44
1 1 46 56 51 57
2 2 46 49 47 50
3 2 46 52 48 53
4 2 47 54 49 55
5 2 48 54 52 58
6 2 49 52 54 59
1 1 61 71 66 72
2 2 61 64 62 65
3 2 61 67 63 68
4 2 62 69 64 70
5 2 63 69 67 73
6 2 64 67 69 74
1 1 76 86 81 87
2 2 76 79 77 80
3 2 76 82 78 83
4 2 77 84 79 85
5 2 78 84 82 88
6 2 79 82 84 89
1 1 91 101 96 102
2 2 91 94 92 95
3 2 91 97 93 98
4 2 92 99 94 100
5 2 93 99 97 103
6 2 94 97 99 104
1 1 106 116 111 117
2 2 106 109 107 110
3 2 106 112 108 113
4 2 107 114 109 115
5 2 108 114 112 118
6 2 109 112 114 119

