LAMMPS Description

120 atoms
120 bonds
176 angles
240 dihedrals
48 impropers

11 atom types
6 bond types
7 angle types
4 dihedral types
2 improper types

-50.00000  50.00000 xlo xhi
-50.00000  50.00000 ylo yhi
-50.00000  50.00000 zlo zhi

Masses

1  12.01000 # CA0
2  12.01000 # CA1
3  12.01000 # CA2
4  12.01000 # CA3
5   1.00800 # HA0
6   1.00800 # HA1
7   1.00800 # HA2
8  12.01000 # C
9  16.00000 # OH
10  16.00000 # O0
11   1.00800 # HO

Atoms

1 1 1  -0.01341   2.03921   2.67198  19.69651
2 1 2  -0.11935   2.94978   2.43355  18.64784
3 1 2  -0.11935   0.90305   1.84712  19.79668
4 1 3  -0.08789   2.73311   1.39956  17.73204
5 1 5   0.12599   3.83626   3.05287  18.53492
6 1 8   0.70288   2.25253   3.78506  20.69719
7 1 3  -0.08789   0.68774   0.81300  18.87738
8 1 5   0.12599   0.18117   2.00159  20.59718
9 1 4  -0.09024   1.60357   0.58712  17.84704
10 1 6   0.10290   3.44836   1.22788  16.93341
11 1 9  -0.61217   3.39705   4.40454  20.63694
12 1 10  -0.60901   1.43536   4.12103  21.53012
13 1 6   0.10290  -0.18725   0.17630  18.96917
14 1 7   0.10638   1.43927  -0.21918  17.13849
15 1 11   0.47224   3.34889   5.08940  21.33496
16 2 1  -0.01341   7.41466   2.69158  19.51481
17 2 2  -0.11935   8.32094   2.43250  18.46759
18 2 2  -0.11935   6.26679   1.88372  19.62147
19 2 3  -0.08789   8.08882   1.39494  17.55946
20 2 5   0.12599   9.21581   3.03861  18.34968
21 2 8   0.70288   7.64383   3.80859  20.50750
22 2 3  -0.08789   6.03589   0.84654  18.70957
23 2 5   0.12599   5.54766   2.05395  20.42124
24 2 4  -0.09024   6.94726   0.60037  17.68001
25 2 6   0.10290   8.80131   1.20645  16.76227
26 2 9  -0.61217   8.78962   4.42459  20.43342
27 2 10  -0.60901   6.83616   4.15074  21.34679
28 2 6   0.10290   5.15208   0.22327  18.80660
29 2 7   0.10638   6.77155  -0.20948  16.97814
30 2 11   0.47224   8.75227   5.10909  21.13208
31 3 1  -0.01341   4.72492   0.07092  13.37314
32 3 2  -0.11935   3.88925  -0.16541  14.48270
33 3 2  -0.11935   5.89945  -0.69419  13.24477
34 3 3  -0.08789   4.21298  -1.14359  15.42785
35 3 5   0.12599   2.97780   0.41177  14.61990
36 3 8   0.70288   4.39137   1.11925  12.33644
37 3 3  -0.08789   6.22119  -1.67277  14.19327
38 3 5   0.12599   6.56747  -0.53773  12.39930
39 3 4  -0.09024   5.37730  -1.90085  15.28273
40 3 6   0.10290   3.55384  -1.31425  16.27307
41 3 9  -0.61217   3.21145   1.66410  12.42474
42 3 10  -0.60901   5.14361   1.46577  11.44898
43 3 6   0.10290   7.12461  -2.26410  14.08040
44 3 7   0.10638   5.62709  -2.66416  16.01483
45 3 11   0.47224   3.17429   2.31397  11.69388
46 4 1  -0.01341  10.12234   0.04061  13.22311
47 4 2  -0.11935   9.26881  -0.18885  14.32048
48 4 2  -0.11935  11.29542  -0.72976  13.11485
49 4 3  -0.08789   9.57336  -1.16533  15.27310
50 4 5   0.12599   8.35769   0.39237  14.44231
51 4 8   0.70288   9.80676   1.08746  12.17935
52 4 3  -0.08789  11.59901  -1.70569  14.07229
53 4 5   0.12599  11.97669  -0.57881  12.27900
54 4 4  -0.09024  10.73689  -1.92698  15.14867
55 4 6   0.10290   8.90011  -1.33022  16.10807
56 4 9  -0.61217   8.62659   1.63404  12.25191
57 4 10  -0.60901  10.57096   1.43142  11.30085
58 4 6   0.10290  12.50215  -2.30049  13.97720
59 4 7   0.10638  10.97177  -2.68823  15.88698
60 4 11   0.47224   8.60201   2.28691  11.52289
61 5 1  -0.01341   3.57383   5.11639   8.56639
62 5 2  -0.11935   4.42736   5.34585   7.46902
63 5 2  -0.11935   2.40076   5.88676   8.67465
64 5 3  -0.08789   4.12281   6.32233   6.51639
65 5 5   0.12599   5.33848   4.76463   7.34719
66 5 8   0.70288   3.88941   4.06954   9.61015
67 5 3  -0.08789   2.09716   6.86269   7.71721
68 5 5   0.12599   1.71948   5.73581   9.51049
69 5 4  -0.09024   2.95928   7.08398   6.64083
70 5 6   0.10290   4.79606   6.48722   5.68143
71 5 9  -0.61217   5.06958   3.52296   9.53759
72 5 10  -0.60901   3.12521   3.72558  10.48864
73 5 6   0.10290   1.19403   7.45749   7.81230
74 5 7   0.10638   2.72440   7.84523   5.90251
75 5 11   0.47224   5.09416   2.87009  10.26660
76 6 1  -0.01341   8.97125   5.08608   8.41636
77 6 2  -0.11935   9.80692   5.32241   7.30680
78 6 2  -0.11935   7.79672   5.85119   8.54473
79 6 3  -0.08789   9.48319   6.30059   6.36164
80 6 5   0.12599  10.71837   4.74523   7.16960
81 6 8   0.70288   9.30480   4.03775   9.45305
82 6 3  -0.08789   7.47498   6.82977   7.59622
83 6 5   0.12599   7.12870   5.69473   9.39019
84 6 4  -0.09024   8.31887   7.05785   6.50677
85 6 6   0.10290  10.14233   6.47125   5.51643
86 6 9  -0.61217  10.48472   3.49290   9.36475
87 6 10  -0.60901   8.55256   3.69123  10.34051
88 6 6   0.10290   6.57156   7.42110   7.70910
89 6 7   0.10638   8.06908   7.82116   5.77467
90 6 11   0.47224  10.52188   2.84303  10.09562
91 7 1  -0.01341   6.28151   2.46542   2.27469
92 7 2  -0.11935   5.37524   2.72450   3.32190
93 7 2  -0.11935   7.42938   3.27328   2.16802
94 7 3  -0.08789   5.60735   3.76206   4.23003
95 7 5   0.12599   4.48036   2.11839   3.43981
96 7 8   0.70288   6.05234   1.34841   1.28199
97 7 3  -0.08789   7.66028   4.31046   3.07993
98 7 5   0.12599   8.14851   3.10305   1.36826
99 7 4  -0.09024   6.74891   4.55663   4.10949
100 7 6   0.10290   4.89486   3.95055   5.02723
101 7 9  -0.61217   4.90655   0.73241   1.35607
102 7 10  -0.60901   6.86001   1.00626   0.44271
103 7 6   0.10290   8.54409   4.93373   2.98289
104 7 7   0.10638   6.92462   5.36648   4.81136
105 7 11   0.47224   4.94390   0.04791   0.65741
106 8 1  -0.01341  11.65696   2.48502   2.09299
107 8 2  -0.11935  10.74639   2.72345   3.14166
108 8 2  -0.11935  12.79312   3.30988   1.99281
109 8 3  -0.08789  10.96306   3.75744   4.05745
110 8 5   0.12599   9.85991   2.10413   3.25458
111 8 8   0.70288  11.44364   1.37194   1.09231
112 8 3  -0.08789  13.00843   4.34400   2.91212
113 8 5   0.12599  13.51500   3.15541   1.19232
114 8 4  -0.09024  12.09260   4.56988   3.94246
115 8 6   0.10290  10.24781   3.92912   4.85608
116 8 9  -0.61217  10.29912   0.75246   1.15256
117 8 10  -0.60901  12.26081   1.03597   0.25937
118 8 6   0.10290  13.88342   4.98070   2.82033
119 8 7   0.10638  12.25690   5.37618   4.65101
120 8 11   0.47224  10.34728   0.06760   0.45454

Bonds

1 6 1 2
2 6 1 3
3 3 1 6
4 6 2 4
5 2 2 5
6 6 3 7
7 2 3 8
8 6 4 9
9 2 4 10
10 4 6 11
11 5 6 12
12 6 7 9
13 2 7 13
14 2 9 14
15 1 11 15
1 6 16 17
2 6 16 18
3 3 16 21
4 6 17 19
5 2 17 20
6 6 18 22
7 2 18 23
8 6 19 24
9 2 19 25
10 4 21 26
11 5 21 27
12 6 22 24
13 2 22 28
14 2 24 29
15 1 26 30
1 6 31 32
2 6 31 33
3 3 31 36
4 6 32 34
5 2 32 35
6 6 33 37
7 2 33 38
8 6 34 39
9 2 34 40
10 4 36 41
11 5 36 42
12 6 37 39
13 2 37 43
14 2 39 44
15 1 41 45
1 6 46 47
2 6 46 48
3 3 46 51
4 6 47 49
5 2 47 50
6 6 48 52
7 2 48 53
8 6 49 54
9 2 49 55
10 4 51 56
11 5 51 57
12 6 52 54
13 2 52 58
14 2 54 59
15 1 56 60
1 6 61 62
2 6 61 63
3 3 61 66
4 6 62 64
5 2 62 65
6 6 63 67
7 2 63 68
8 6 64 69
9 2 64 70
10 4 66 71
11 5 66 72
12 6 67 69
13 2 67 73
14 2 69 74
15 1 71 75
1 6 76 77
2 6 76 78
3 3 76 81
4 6 77 79
5 2 77 80
6 6 78 82
7 2 78 83
8 6 79 84
9 2 79 85
10 4 81 86
11 5 81 87
12 6 82 84
13 2 82 88
14 2 84 89
15 1 86 90
1 6 91 92
2 6 91 93
3 3 91 96
4 6 92 94
5 2 92 95
6 6 93 97
7 2 93 98
8 6 94 99
9 2 94 100
10 4 96 101
11 5 96 102
12 6 97 99
13 2 97 103
14 2 99 104
15 1 101 105
1 6 106 107
2 6 106 108
3 3 106 111
4 6 107 109
5 2 107 110
6 6 108 112
7 2 108 113
8 6 109 114
9 2 109 115
10 4 111 116
11 5 111 117
12 6 112 114
13 2 112 118
14 2 114 119
15 1 116 120

Angles

1 1 1 2 4
2 1 1 3 7
3 1 2 1 3
4 1 2 4 9
5 1 3 7 9
6 1 4 9 7
7 3 1 2 5
8 3 1 3 8
9 3 2 4 10
10 3 3 7 13
11 3 4 2 5
12 3 4 9 14
13 3 7 3 8
14 3 7 9 14
15 3 9 4 10
16 3 9 7 13
17 5 2 1 6
18 5 3 1 6
19 4 1 6 12
20 6 1 6 11
21 2 11 6 12
22 7 6 11 15
1 1 16 17 19
2 1 16 18 22
3 1 17 16 18
4 1 17 19 24
5 1 18 22 24
6 1 19 24 22
7 3 16 17 20
8 3 16 18 23
9 3 17 19 25
10 3 18 22 28
11 3 19 17 20
12 3 19 24 29
13 3 22 18 23
14 3 22 24 29
15 3 24 19 25
16 3 24 22 28
17 5 17 16 21
18 5 18 16 21
19 4 16 21 27
20 6 16 21 26
21 2 26 21 27
22 7 21 26 30
1 1 31 32 34
2 1 31 33 37
3 1 32 31 33
4 1 32 34 39
5 1 33 37 39
6 1 34 39 37
7 3 31 32 35
8 3 31 33 38
9 3 32 34 40
10 3 33 37 43
11 3 34 32 35
12 3 34 39 44
13 3 37 33 38
14 3 37 39 44
15 3 39 34 40
16 3 39 37 43
17 5 32 31 36
18 5 33 31 36
19 4 31 36 42
20 6 31 36 41
21 2 41 36 42
22 7 36 41 45
1 1 46 47 49
2 1 46 48 52
3 1 47 46 48
4 1 47 49 54
5 1 48 52 54
6 1 49 54 52
7 3 46 47 50
8 3 46 48 53
9 3 47 49 55
10 3 48 52 58
11 3 49 47 50
12 3 49 54 59
13 3 52 48 53
14 3 52 54 59
15 3 54 49 55
16 3 54 52 58
17 5 47 46 51
18 5 48 46 51
19 4 46 51 57
20 6 46 51 56
21 2 56 51 57
22 7 51 56 60
1 1 61 62 64
2 1 61 63 67
3 1 62 61 63
4 1 62 64 69
5 1 63 67 69
6 1 64 69 67
7 3 61 62 65
8 3 61 63 68
9 3 62 64 70
10 3 63 67 73
11 3 64 62 65
12 3 64 69 74
13 3 67 63 68
14 3 67 69 74
15 3 69 64 70
16 3 69 67 73
17 5 62 61 66
18 5 63 61 66
19 4 61 66 72
20 6 61 66 71
21 2 71 66 72
22 7 66 71 75
1 1 76 77 79
2 1 76 78 82
3 1 77 76 78
4 1 77 79 84
5 1 78 82 84
6 1 79 84 82
7 3 76 77 80
8 3 76 78 83
9 3 77 79 85
10 3 78 82 88
11 3 79 77 80
12 3 79 84 89
13 3 82 78 83
14 3 82 84 89
15 3 84 79 85
16 3 84 82 88
17 5 77 76 81
18 5 78 76 81
19 4 76 81 87
20 6 76 81 86
21 2 86 81 87
22 7 81 86 90
1 1 91 92 94
2 1 91 93 97
3 1 92 91 93
4 1 92 94 99
5 1 93 97 99
6 1 94 99 97
7 3 91 92 95
8 3 91 93 98
9 3 92 94 100
10 3 93 97 103
11 3 94 92 95
12 3 94 99 104
13 3 97 93 98
14 3 97 99 104
15 3 99 94 100
16 3 99 97 103
17 5 92 91 96
18 5 93 91 96
19 4 91 96 102
20 6 91 96 101
21 2 101 96 102
22 7 96 101 105
1 1 106 107 109
2 1 106 108 112
3 1 107 106 108
4 1 107 109 114
5 1 108 112 114
6 1 109 114 112
7 3 106 107 110
8 3 106 108 113
9 3 107 109 115
10 3 108 112 118
11 3 109 107 110
12 3 109 114 119
13 3 112 108 113
14 3 112 114 119
15 3 114 109 115
16 3 114 112 118
17 5 107 106 111
18 5 108 106 111
19 4 106 111 117
20 6 106 111 116
21 2 116 111 117
22 7 111 116 120

Dihedrals

1 3 2 1 6 11
2 3 3 1 6 11
3 3 2 1 6 12
4 3 3 1 6 12
5 1 1 6 11 15
6 2 1 2 4 9
7 2 1 3 7 9
8 2 2 1 3 7
9 2 2 4 9 7
10 2 3 1 2 4
11 2 3 7 9 4
12 2 1 2 4 10
13 2 1 3 7 13
14 2 2 1 3 8
15 2 2 4 9 14
16 2 3 1 2 5
17 2 3 7 9 14
18 2 4 9 7 13
19 2 7 9 4 10
20 2 5 2 4 9
21 2 8 3 7 9
22 2 4 2 1 6
23 2 6 1 3 7
24 2 5 2 1 6
25 2 6 1 3 8
26 2 5 2 4 10
27 2 8 3 7 13
28 2 10 4 9 14
29 2 13 7 9 14
30 4 12 6 11 15
1 3 17 16 21 26
2 3 18 16 21 26
3 3 17 16 21 27
4 3 18 16 21 27
5 1 16 21 26 30
6 2 16 17 19 24
7 2 16 18 22 24
8 2 17 16 18 22
9 2 17 19 24 22
10 2 18 16 17 19
11 2 18 22 24 19
12 2 16 17 19 25
13 2 16 18 22 28
14 2 17 16 18 23
15 2 17 19 24 29
16 2 18 16 17 20
17 2 18 22 24 29
18 2 19 24 22 28
19 2 22 24 19 25
20 2 20 17 19 24
21 2 23 18 22 24
22 2 19 17 16 21
23 2 21 16 18 22
24 2 20 17 16 21
25 2 21 16 18 23
26 2 20 17 19 25
27 2 23 18 22 28
28 2 25 19 24 29
29 2 28 22 24 29
30 4 27 21 26 30
1 3 32 31 36 41
2 3 33 31 36 41
3 3 32 31 36 42
4 3 33 31 36 42
5 1 31 36 41 45
6 2 31 32 34 39
7 2 31 33 37 39
8 2 32 31 33 37
9 2 32 34 39 37
10 2 33 31 32 34
11 2 33 37 39 34
12 2 31 32 34 40
13 2 31 33 37 43
14 2 32 31 33 38
15 2 32 34 39 44
16 2 33 31 32 35
17 2 33 37 39 44
18 2 34 39 37 43
19 2 37 39 34 40
20 2 35 32 34 39
21 2 38 33 37 39
22 2 34 32 31 36
23 2 36 31 33 37
24 2 35 32 31 36
25 2 36 31 33 38
26 2 35 32 34 40
27 2 38 33 37 43
28 2 40 34 39 44
29 2 43 37 39 44
30 4 42 36 41 45
1 3 47 46 51 56
2 3 48 46 51 56
3 3 47 46 51 57
4 3 48 46 51 57
5 1 46 51 56 60
6 2 46 47 49 54
7 2 46 48 52 54
8 2 47 46 48 52
9 2 47 49 54 52
10 2 48 46 47 49
11 2 48 52 54 49
12 2 46 47 49 55
13 2 46 48 52 58
14 2 47 46 48 53
15 2 47 49 54 59
16 2 48 46 47 50
17 2 48 52 54 59
18 2 49 54 52 58
19 2 52 54 49 55
20 2 50 47 49 54
21 2 53 48 52 54
22 2 49 47 46 51
23 2 51 46 48 52
24 2 50 47 46 51
25 2 51 46 48 53
26 2 50 47 49 55
27 2 53 48 52 58
28 2 55 49 54 59
29 2 58 52 54 59
30 4 57 51 56 60
1 3 62 61 66 71
2 3 63 61 66 71
3 3 62 61 66 72
4 3 63 61 66 72
5 1 61 66 71 75
6 2 61 62 64 69
7 2 61 63 67 69
8 2 62 61 63 67
9 2 62 64 69 67
10 2 63 61 62 64
11 2 63 67 69 64
12 2 61 62 64 70
13 2 61 63 67 73
14 2 62 61 63 68
15 2 62 64 69 74
16 2 63 61 62 65
17 2 63 67 69 74
18 2 64 69 67 73
19 2 67 69 64 70
20 2 65 62 64 69
21 2 68 63 67 69
22 2 64 62 61 66
23 2 66 61 63 67
24 2 65 62 61 66
25 2 66 61 63 68
26 2 65 62 64 70
27 2 68 63 67 73
28 2 70 64 69 74
29 2 73 67 69 74
30 4 72 66 71 75
1 3 77 76 81 86
2 3 78 76 81 86
3 3 77 76 81 87
4 3 78 76 81 87
5 1 76 81 86 90
6 2 76 77 79 84
7 2 76 78 82 84
8 2 77 76 78 82
9 2 77 79 84 82
10 2 78 76 77 79
11 2 78 82 84 79
12 2 76 77 79 85
13 2 76 78 82 88
14 2 77 76 78 83
15 2 77 79 84 89
16 2 78 76 77 80
17 2 78 82 84 89
18 2 79 84 82 88
19 2 82 84 79 85
20 2 80 77 79 84
21 2 83 78 82 84
22 2 79 77 76 81
23 2 81 76 78 82
24 2 80 77 76 81
25 2 81 76 78 83
26 2 80 77 79 85
27 2 83 78 82 88
28 2 85 79 84 89
29 2 88 82 84 89
30 4 87 81 86 90
1 3 92 91 96 101
2 3 93 91 96 101
3 3 92 91 96 102
4 3 93 91 96 102
5 1 91 96 101 105
6 2 91 92 94 99
7 2 91 93 97 99
8 2 92 91 93 97
9 2 92 94 99 97
10 2 93 91 92 94
11 2 93 97 99 94
12 2 91 92 94 100
13 2 91 93 97 103
14 2 92 91 93 98
15 2 92 94 99 104
16 2 93 91 92 95
17 2 93 97 99 104
18 2 94 99 97 103
19 2 97 99 94 100
20 2 95 92 94 99
21 2 98 93 97 99
22 2 94 92 91 96
23 2 96 91 93 97
24 2 95 92 91 96
25 2 96 91 93 98
26 2 95 92 94 100
27 2 98 93 97 103
28 2 100 94 99 104
29 2 103 97 99 104
30 4 102 96 101 105
1 3 107 106 111 116
2 3 108 106 111 116
3 3 107 106 111 117
4 3 108 106 111 117
5 1 106 111 116 120
6 2 106 107 109 114
7 2 106 108 112 114
8 2 107 106 108 112
9 2 107 109 114 112
10 2 108 106 107 109
11 2 108 112 114 109
12 2 106 107 109 115
13 2 106 108 112 118
14 2 107 106 108 113
15 2 107 109 114 119
16 2 108 106 107 110
17 2 108 112 114 119
18 2 109 114 112 118
19 2 112 114 109 115
20 2 110 107 109 114
21 2 113 108 112 114
22 2 109 107 106 111
23 2 111 106 108 112
24 2 110 107 106 111
25 2 111 106 108 113
26 2 110 107 109 115
27 2 113 108 112 118
28 2 115 109 114 119
29 2 118 112 114 119
30 4 117 111 116 120

Impropers

1 1 1 11 6 12
2 2 1 4 2 5
3 2 1 7 3 8
4 2 2 9 4 10
5 2 3 9 7 13
6 2 4 7 9 14
1 1 16 26 21 27
2 2 16 19 17 20
3 2 16 22 18 23
4 2 17 24 19 25
5 2 18 24 22 28
6 2 19 22 24 29
1 1 31 41 36 42
2 2 31 34 32 35
3 2 31 37 33 38
4 2 32 39 34 40
5 2 33 39 37 43
6 2 34 37 39 44
1 1 46 56 51 57
2 2 46 49 47 50
3 2 46 52 48 53
4 2 47 54 49 55
5 2 48 54 52 58
6 2 49 52 54 59
1 1 61 71 66 72
2 2 61 64 62 65
3 2 61 67 63 68
4 2 62 69 64 70
5 2 63 69 67 73
6 2 64 67 69 74
1 1 76 86 81 87
2 2 76 79 77 80
3 2 76 82 78 83
4 2 77 84 79 85
5 2 78 84 82 88
6 2 79 82 84 89
1 1 91 101 96 102
2 2 91 94 92 95
3 2 91 97 93 98
4 2 92 99 94 100
5 2 93 99 97 103
6 2 94 97 99 104
1 1 106 116 111 117
2 2 106 109 107 110
3 2 106 112 108 113
4 2 107 114 109 115
5 2 108 114 112 118
6 2 109 112 114 119

