LAMMPS Description

24  atoms
25  bonds
39  angles
56  dihedrals
11  impropers

4  atom types
4  bond types
5  angle types
2  dihedral types
2  improper types

-5.202510 5.202450 xlo xhi
-2.694800 2.564940 ylo yhi
-1.374070 1.374660 zlo zhi

Masses

1 1.008  # ha
2 12.01  # c
3 12.01  # ca
4 16.00  # o

Atoms

1 1 3 -0.065460 1.29432300 0.35767400 -0.03166600
2 1 3 0.000160 1.42169900 -0.87407800 -0.67537000
3 1 3 -0.083350 2.41838900 0.95015000 0.54636500
4 1 3 -0.146240 2.65761600 -1.50641500 -0.73464800
5 1 1 0.035760 0.56001800 -1.32994500 -1.14941100
6 1 2 0.478630 0.00002400 1.11266400 0.00013700
7 1 3 -0.107440 3.64639400 0.30737900 0.50548300
8 1 1 0.120000 2.31120100 1.91775300 1.02257500
9 1 3 -0.081020 3.76751400 -0.92156800 -0.13674600
10 1 1 0.124590 2.75360400 -2.45572300 -1.24913100
11 1 3 -0.063450 -1.29431000 0.35771000 0.03172600
12 1 4 -0.500080 0.00002400 2.32586400 0.00030500
13 1 1 0.109250 4.51282500 0.76629400 0.96790100
14 1 1 0.103660 4.72950000 -1.42047900 -0.17555200
15 1 3 -0.000240 -1.42187500 -0.87383400 0.67577200
16 1 3 -0.081820 -2.41819900 0.95003800 -0.54679900
17 1 3 -0.148260 -2.65782800 -1.50612000 0.73493900
18 1 1 0.038230 -0.56030300 -1.32957900 1.15013900
19 1 3 -0.113580 -3.64622000 0.30729700 -0.50604800
20 1 1 0.119540 -2.31087800 1.91750100 -1.02327000
21 1 3 -0.079710 -3.76754500 -0.92144100 0.13655000
22 1 1 0.123730 -2.75397300 -2.45525300 1.24972200
23 1 1 0.112030 -4.51252100 0.76607300 -0.96884600
24 1 1 0.105080 -4.72955800 -1.42030200 0.17526700

Bonds

1 4 1 2
2 4 1 3
3 1 1 6
4 4 2 4
5 3 2 5
6 4 3 7
7 3 3 8
8 4 4 9
9 3 4 10
10 1 6 11
11 2 6 12
12 4 7 9
13 3 7 13
14 3 9 14
15 4 11 15
16 4 11 16
17 4 15 17
18 3 15 18
19 4 16 19
20 3 16 20
21 4 17 21
22 3 17 22
23 4 19 21
24 3 19 23
25 3 21 24

Angles

1 1 1 2 4
2 1 1 3 7
3 1 2 1 3
4 1 2 4 9
5 1 3 7 9
6 1 4 9 7
7 1 11 15 17
8 1 11 16 19
9 1 15 11 16
10 1 15 17 21
11 1 16 19 21
12 1 17 21 19
13 3 1 2 5
14 3 1 3 8
15 3 2 4 10
16 3 3 7 13
17 3 4 2 5
18 3 4 9 14
19 3 7 3 8
20 3 7 9 14
21 3 9 4 10
22 3 9 7 13
23 3 11 15 18
24 3 11 16 20
25 3 15 17 22
26 3 16 19 23
27 3 17 15 18
28 3 17 21 24
29 3 19 16 20
30 3 19 21 24
31 3 21 17 22
32 3 21 19 23
33 5 2 1 6
34 5 3 1 6
35 5 6 11 15
36 5 6 11 16
37 2 1 6 11
38 4 1 6 12
39 4 11 6 12

Dihedrals

1 2 1 6 11 15
2 2 1 6 11 16
3 2 2 1 6 11
4 2 3 1 6 11
5 2 2 1 6 12
6 2 3 1 6 12
7 2 12 6 11 15
8 2 12 6 11 16
9 1 1 2 4 9
10 1 1 3 7 9
11 1 2 1 3 7
12 1 2 4 9 7
13 1 3 1 2 4
14 1 3 7 9 4
15 1 11 15 17 21
16 1 11 16 19 21
17 1 15 11 16 19
18 1 15 17 21 19
19 1 16 11 15 17
20 1 16 19 21 17
21 1 1 2 4 10
22 1 1 3 7 13
23 1 2 1 3 8
24 1 2 4 9 14
25 1 3 1 2 5
26 1 3 7 9 14
27 1 4 9 7 13
28 1 7 9 4 10
29 1 5 2 4 9
30 1 8 3 7 9
31 1 11 15 17 22
32 1 11 16 19 23
33 1 15 11 16 20
34 1 15 17 21 24
35 1 16 11 15 18
36 1 16 19 21 24
37 1 17 21 19 23
38 1 19 21 17 22
39 1 18 15 17 21
40 1 20 16 19 21
41 1 4 2 1 6
42 1 6 1 3 7
43 1 6 11 15 17
44 1 6 11 16 19
45 1 5 2 1 6
46 1 6 1 3 8
47 1 6 11 15 18
48 1 6 11 16 20
49 1 5 2 4 10
50 1 8 3 7 13
51 1 10 4 9 14
52 1 13 7 9 14
53 1 18 15 17 22
54 1 20 16 19 23
55 1 22 17 21 24
56 1 23 19 21 24

Impropers

1 1 1 11 6 12
2 2 1 4 2 5
3 2 1 7 3 8
4 2 2 9 4 10
5 2 3 9 7 13
6 2 4 7 9 14
7 2 11 17 15 18
8 2 11 19 16 20
9 2 15 21 17 22
10 2 16 21 19 23
11 2 17 19 21 24

