 Entering Gaussian System, Link 0=g16
 Input=_conf022.gjf
 Output=_conf022.log
 Initial command:
 /opt/ap/G16/B01/g16/l1.exe "/tmp2/scr/Gau-2708.inp" -scrdir="/tmp2/scr/"
 Entering Link 1 = /opt/ap/G16/B01/g16/l1.exe PID=      2709.
  
 Copyright (c) 1988-2017, Gaussian, Inc.  All Rights Reserved.
  
 This is part of the Gaussian(R) 16 program.  It is based on
 the Gaussian(R) 09 system (copyright 2009, Gaussian, Inc.),
 the Gaussian(R) 03 system (copyright 2003, Gaussian, Inc.),
 the Gaussian(R) 98 system (copyright 1998, Gaussian, Inc.),
 the Gaussian(R) 94 system (copyright 1995, Gaussian, Inc.),
 the Gaussian 92(TM) system (copyright 1992, Gaussian, Inc.),
 the Gaussian 90(TM) system (copyright 1990, Gaussian, Inc.),
 the Gaussian 88(TM) system (copyright 1988, Gaussian, Inc.),
 the Gaussian 86(TM) system (copyright 1986, Carnegie Mellon
 University), and the Gaussian 82(TM) system (copyright 1983,
 Carnegie Mellon University). Gaussian is a federally registered
 trademark of Gaussian, Inc.
  
 This software contains proprietary and confidential information,
 including trade secrets, belonging to Gaussian, Inc.
  
 This software is provided under written license and may be
 used, copied, transmitted, or stored only in accord with that
 written license.
  
 The following legend is applicable only to US Government
 contracts under FAR:
  
                    RESTRICTED RIGHTS LEGEND
  
 Use, reproduction and disclosure by the US Government is
 subject to restrictions as set forth in subparagraphs (a)
 and (c) of the Commercial Computer Software - Restricted
 Rights clause in FAR 52.227-19.
  
 Gaussian, Inc.
 340 Quinnipiac St., Bldg. 40, Wallingford CT 06492
  
  
 ---------------------------------------------------------------
 Warning -- This program may not be used in any manner that
 competes with the business of Gaussian, Inc. or will provide
 assistance to any competitor of Gaussian, Inc.  The licensee
 of this program is prohibited from giving any competitor of
 Gaussian, Inc. access to this program.  By using this program,
 the user acknowledges that Gaussian, Inc. is engaged in the
 business of creating and licensing software in the field of
 computational chemistry and represents and warrants to the
 licensee that it is not a competitor of Gaussian, Inc. and that
 it will not use this program in any manner prohibited above.
 ---------------------------------------------------------------
  

 Cite this work as:
 Gaussian 16, Revision B.01,
 M. J. Frisch, G. W. Trucks, H. B. Schlegel, G. E. Scuseria, 
 M. A. Robb, J. R. Cheeseman, G. Scalmani, V. Barone, 
 G. A. Petersson, H. Nakatsuji, X. Li, M. Caricato, A. V. Marenich, 
 J. Bloino, B. G. Janesko, R. Gomperts, B. Mennucci, H. P. Hratchian, 
 J. V. Ortiz, A. F. Izmaylov, J. L. Sonnenberg, D. Williams-Young, 
 F. Ding, F. Lipparini, F. Egidi, J. Goings, B. Peng, A. Petrone, 
 T. Henderson, D. Ranasinghe, V. G. Zakrzewski, J. Gao, N. Rega, 
 G. Zheng, W. Liang, M. Hada, M. Ehara, K. Toyota, R. Fukuda, 
 J. Hasegawa, M. Ishida, T. Nakajima, Y. Honda, O. Kitao, H. Nakai, 
 T. Vreven, K. Throssell, J. A. Montgomery, Jr., J. E. Peralta, 
 F. Ogliaro, M. J. Bearpark, J. J. Heyd, E. N. Brothers, K. N. Kudin, 
 V. N. Staroverov, T. A. Keith, R. Kobayashi, J. Normand, 
 K. Raghavachari, A. P. Rendell, J. C. Burant, S. S. Iyengar, 
 J. Tomasi, M. Cossi, J. M. Millam, M. Klene, C. Adamo, R. Cammi, 
 J. W. Ochterski, R. L. Martin, K. Morokuma, O. Farkas, 
 J. B. Foresman, and D. J. Fox, Gaussian, Inc., Wallingford CT, 2016.
 
 ******************************************
 Gaussian 16:  ES64L-G16RevB.01 20-Dec-2017
                 5-Nov-2022 
 ******************************************
 %nprocshared=32
 Will use up to   32 processors via shared memory.
 %mem=120GB
 %chk=_conf022.chk
 ----------------------------------------
 #P wB97XD/6-311++G(d,p) scf=maxcycle=512
 ----------------------------------------
 1/38=1,172=1/1;
 2/12=2,17=6,18=5,40=1/2;
 3/5=4,6=6,7=1111,11=2,25=1,30=1,74=-58/1,2,3;
 4//1;
 5/5=2,7=512,38=5/2;
 6/7=2,8=2,9=2,10=2,28=1/1;
 99/5=1,9=1/99;
 Leave Link    1 at Sat Nov  5 21:35:29 2022, MaxMem= 16106127360 cpu:               1.6 elap:               0.1
 (Enter /opt/ap/G16/B01/g16/l101.exe)
 ----------------------------
 _conf022.gjf nmol_natom 1_22
 ----------------------------
 Symbolic Z-matrix:
 Charge =  0 Multiplicity = 1
 C
 C                    1     1.40492 
 C                    1     1.40495  2     118.20504 
 C                    2     1.39394  1     120.91089  3     0.05366  0
 H                    2     1.08593  1     119.34521  3    -178.36243  0
 C                    1     1.48449  2     120.90144  4    -179.96388  0
 C                    3     1.3939   1     120.91051  2     0.03588  0
 H                    3     1.08594  1     119.3416  2    -178.38282  0
 C                    4     1.39607  2     120.24556  1    -0.09283  0
 H                    4     1.08628  2     119.66792  1    -179.51486  0
 C                    6     1.40492  1     120.90157  2     20.      0
 C                    6     1.40495  1     120.89325  2    -160.     0
 H                    7     1.08628  3     119.67027  1    -179.51258  0
 H                    9     1.08598  4     120.26025  2    -179.95233  0
 C                    11    1.39393  6     120.911  1    -179.9587  0
 H                    11    1.08593  6     119.34476  1     1.61892  0
 C                    12    1.3939   6     120.91023  1    -179.94298  0
 H                    12    1.08594  6     119.34175  1     1.63242  0
 C                    15    1.39607  11    120.24536  6    -0.10315  0
 H                    15    1.08628  11    119.66861  6    -179.51844  0
 H                    17    1.08628  12    119.67028  6    -179.5159  0
 H                    19    1.08598  15    120.25989  11   -179.94732  0
 
 ITRead=  0  0  0  0  0  0  0  0  0  0  0  0  0  0  0  0  0  0  0  0
 ITRead=  0  0
 MicOpt= -1 -1 -1 -1 -1 -1 -1 -1 -1 -1 -1 -1 -1 -1 -1 -1 -1 -1 -1 -1
 MicOpt= -1 -1
 NAtoms=     22 NQM=       22 NQMF=       0 NMMI=      0 NMMIF=      0
                NMic=       0 NMicF=      0.
                    Isotopes and Nuclear Properties:
 (Nuclear quadrupole moments (NQMom) in fm**2, nuclear magnetic moments (NMagM)
  in nuclear magnetons)

  Atom         1           2           3           4           5           6           7           8           9          10
 IAtWgt=          12          12          12          12           1          12          12           1          12           1
 AtmWgt=  12.0000000  12.0000000  12.0000000  12.0000000   1.0078250  12.0000000  12.0000000   1.0078250  12.0000000   1.0078250
 NucSpn=           0           0           0           0           1           0           0           1           0           1
 AtZEff=  -0.0000000  -0.0000000  -0.0000000  -0.0000000  -0.0000000  -0.0000000  -0.0000000  -0.0000000  -0.0000000  -0.0000000
 NQMom=    0.0000000   0.0000000   0.0000000   0.0000000   0.0000000   0.0000000   0.0000000   0.0000000   0.0000000   0.0000000
 NMagM=    0.0000000   0.0000000   0.0000000   0.0000000   2.7928460   0.0000000   0.0000000   2.7928460   0.0000000   2.7928460
 AtZNuc=   6.0000000   6.0000000   6.0000000   6.0000000   1.0000000   6.0000000   6.0000000   1.0000000   6.0000000   1.0000000

  Atom        11          12          13          14          15          16          17          18          19          20
 IAtWgt=          12          12           1           1          12           1          12           1          12           1
 AtmWgt=  12.0000000  12.0000000   1.0078250   1.0078250  12.0000000   1.0078250  12.0000000   1.0078250  12.0000000   1.0078250
 NucSpn=           0           0           1           1           0           1           0           1           0           1
 AtZEff=  -0.0000000  -0.0000000  -0.0000000  -0.0000000  -0.0000000  -0.0000000  -0.0000000  -0.0000000  -0.0000000  -0.0000000
 NQMom=    0.0000000   0.0000000   0.0000000   0.0000000   0.0000000   0.0000000   0.0000000   0.0000000   0.0000000   0.0000000
 NMagM=    0.0000000   0.0000000   2.7928460   2.7928460   0.0000000   2.7928460   0.0000000   2.7928460   0.0000000   2.7928460
 AtZNuc=   6.0000000   6.0000000   1.0000000   1.0000000   6.0000000   1.0000000   6.0000000   1.0000000   6.0000000   1.0000000

  Atom        21          22
 IAtWgt=           1           1
 AtmWgt=   1.0078250   1.0078250
 NucSpn=           1           1
 AtZEff=  -0.0000000  -0.0000000
 NQMom=    0.0000000   0.0000000
 NMagM=    2.7928460   2.7928460
 AtZNuc=   1.0000000   1.0000000
 Leave Link  101 at Sat Nov  5 21:35:29 2022, MaxMem= 16106127360 cpu:               5.2 elap:               0.2
 (Enter /opt/ap/G16/B01/g16/l202.exe)
                          Input orientation:                          
 ---------------------------------------------------------------------
 Center     Atomic      Atomic             Coordinates (Angstroms)
 Number     Number       Type             X           Y           Z
 ---------------------------------------------------------------------
      1          6           0        0.000000    0.000000    0.000000
      2          6           0        0.000000    0.000000    1.404919
      3          6           0        1.238131    0.000000   -0.664020
      4          6           0        1.195952    0.001120    2.120990
      5          1           0       -0.946201   -0.027051    1.937101
      6          6           0       -1.273772   -0.000390   -0.762381
      7          6           0        2.434381   -0.000749    0.051479
      8          1           0        1.259850    0.026715   -1.749411
      9          6           0        2.418826    0.000311    1.447501
     10          1           0        1.172413   -0.006894    3.206985
     11          6           0       -2.474758    0.411545   -0.160930
     12          6           0       -1.310785   -0.412750   -2.104946
     13          1           0        3.380326    0.007295   -0.482493
     14          1           0        3.350700    0.000403    2.005133
     15          6           0       -3.671088    0.410448   -0.876365
     16          1           0       -2.462905    0.759059    0.867827
     17          6           0       -2.506416   -0.412139   -2.821485
     18          1           0       -0.398289   -0.760154   -2.580255
     19          6           0       -3.692330   -0.000794   -2.210323
     20          1           0       -4.586557    0.740478   -0.393668
     21          1           0       -2.513320   -0.742515   -3.856281
     22          1           0       -4.624074   -0.000932   -2.768173
 ---------------------------------------------------------------------
                    Distance matrix (angstroms):
                    1          2          3          4          5
     1  C    0.000000
     2  C    1.404919   0.000000
     3  C    1.404953   2.411116   0.000000
     4  C    2.434934   1.393937   2.785330   0.000000
     5  H    2.156012   1.085931   3.396745   2.150216   0.000000
     6  C    1.484493   2.513898   2.513829   3.796494   2.719415
     7  C    2.434925   2.785320   1.393898   2.411760   3.870994
     8  H    2.156008   3.396723   1.085936   3.871013   4.296501
     9  C    2.818861   2.419201   2.419207   1.396070   3.400568
    10  H    3.414579   2.149893   3.871569   1.086279   2.470128
    11  C    2.513901   2.957310   3.769353   4.341627   2.632601
    12  C    2.513826   3.769307   2.956959   4.930878   4.076743
    13  H    3.414594   3.871560   2.149884   3.398478   4.957262
    14  H    3.904837   3.404035   3.404016   2.157861   4.297527
    15  C    3.796494   4.341614   4.930922   5.730599   3.941067
    16  H    2.719411   2.632592   4.076812   3.941082   2.015368
    17  C    3.796414   4.930970   4.341215   6.189214   5.022619
    18  H    2.719225   4.076528   2.632046   5.022236   4.609139
    19  C    4.303351   5.167521   5.167253   6.531124   4.974238
    20  H    4.662595   4.981940   5.877788   6.348824   4.390192
    21  H    4.662511   5.877783   4.981490   7.073858   6.044091
    22  H    5.389327   6.228704   6.228396   7.601094   5.972189
                    6          7          8          9         10
     6  C    0.000000
     7  C    3.796415   0.000000
     8  H    2.719228   2.150228   0.000000
     9  C    4.303354   1.396108   3.400612   0.000000
    10  H    4.662588   3.398502   4.957280   2.156243   0.000000
    11  C    1.404920   4.930999   4.076599   5.167526   4.981947
    12  C    1.404953   4.341219   2.632052   5.167252   5.877721
    13  H    4.662512   1.086279   2.470197   2.156248   4.299689
    14  H    5.389330   2.157871   4.297551   1.085976   2.487858
    15  C    2.434934   6.189243   5.022311   6.531127   6.348812
    16  H    2.156010   5.022663   4.609248   4.974235   4.390203
    17  C    2.434925   5.730152   3.940393   6.530878   7.073928
    18  H    2.156010   3.940399   2.014669   4.973657   6.043729
    19  C    2.818858   6.530876   4.973659   7.122212   7.281002
    20  H    3.414583   7.073976   6.043837   7.281012   6.832935
    21  H    3.414594   6.348272   4.389468   7.280656   8.000968
    22  H    3.904834   7.600804   5.971533   8.208188   8.324771
                   11         12         13         14         15
    11  C    0.000000
    12  C    2.411119   0.000000
    13  H    5.877825   4.981497   0.000000
    14  H    6.228711   6.228394   2.487812   0.000000
    15  C    1.393934   2.785336   7.073903   7.601097   0.000000
    16  H    1.085932   3.396748   6.044159   5.972188   2.150219
    17  C    2.785320   1.393901   6.348270   7.600806   2.411763
    18  H    3.396725   1.085936   4.389478   5.971529   3.871016
    19  C    2.419198   2.419208   7.280654   8.208188   1.396072
    20  H    2.149897   3.871575   8.001042   8.324783   1.086278
    21  H    3.871558   2.149886   6.832256   8.324352   3.398478
    22  H    3.404029   3.404019   8.324351   9.294164   2.157859
                   16         17         18         19         20
    16  H    0.000000
    17  C    3.870997   0.000000
    18  H    4.296501   2.150234   0.000000
    19  C    3.400569   1.396107   3.400615   0.000000
    20  H    2.470145   3.398500   4.957282   2.156238   0.000000
    21  H    4.957264   1.086278   2.470204   2.156245   4.299683
    22  H    4.297527   2.157871   4.297556   1.085976   2.487844
                   21         22
    21  H    0.000000
    22  H    2.487812   0.000000
 Stoichiometry    C12H10
 Framework group  C1[X(C12H10)]
 Deg. of freedom    60
 Full point group                 C1      NOp   1
 Largest Abelian subgroup         C1      NOp   1
 Largest concise Abelian subgroup C1      NOp   1
                         Standard orientation:                         
 ---------------------------------------------------------------------
 Center     Atomic      Atomic             Coordinates (Angstroms)
 Number     Number       Type             X           Y           Z
 ---------------------------------------------------------------------
      1          6           0        0.742246    0.000147   -0.000143
      2          6           0        1.463773    1.187318    0.209192
      3          6           0        1.463598   -1.187208   -0.209261
      4          6           0        2.857710    1.187683    0.208359
      5          1           0        0.925198    2.110915    0.399328
      6          6           0       -0.742247    0.000139   -0.000005
      7          6           0        2.857496   -1.187801   -0.208365
      8          1           0        0.924812   -2.110723   -0.399228
      9          6           0        3.561107   -0.000097   -0.000016
     10          1           0        3.395247    2.115875    0.380161
     11          6           0       -1.463791    1.187326   -0.209199
     12          6           0       -1.463580   -1.187187    0.209347
     13          1           0        3.394929   -2.116080   -0.380027
     14          1           0        4.647083   -0.000222    0.000056
     15          6           0       -2.857725    1.187694   -0.208260
     16          1           0       -0.925220    2.110953   -0.399207
     17          6           0       -2.857481   -1.187809    0.208377
     18          1           0       -0.924781   -2.110665    0.399458
     19          6           0       -3.561105   -0.000142   -0.000129
     20          1           0       -3.395284    2.115903   -0.379894
     21          1           0       -3.394904   -2.116068    0.380168
     22          1           0       -4.647081   -0.000275   -0.000200
 ---------------------------------------------------------------------
 Rotational constants (GHZ):           2.8585222           0.5546117           0.4691568
 Leave Link  202 at Sat Nov  5 21:35:29 2022, MaxMem= 16106127360 cpu:               0.3 elap:               0.0
 (Enter /opt/ap/G16/B01/g16/l301.exe)
 Standard basis: 6-311++G(d,p) (5D, 7F)
 Ernie: Thresh=  0.10000D-02 Tol=  0.10000D-05 Strict=F.
 There are   346 symmetry adapted cartesian basis functions of A   symmetry.
 There are   334 symmetry adapted basis functions of A   symmetry.
   334 basis functions,   522 primitive gaussians,   346 cartesian basis functions
    41 alpha electrons       41 beta electrons
       nuclear repulsion energy       599.4932672686 Hartrees.
 IExCor= 4639 DFT=T Ex+Corr=wB97XD ExCW=0 ScaHFX=  1.000000
 ScaDFX=  1.000000  1.000000  1.000000  1.000000 ScalE2=  1.000000  1.000000
 IRadAn=      5 IRanWt=     -1 IRanGd=            0 ICorTp=0 IEmpDi=121
 HFx  wShort=  0.000000 wLong=  0.200000 cFull=  0.222036 cShort=  0.000000 cLong=  0.777964
 DFx  wShort=  0.000000 wLong=  0.200000 cFull=  0.000000 cShort=  0.000000 cLong=  1.000000
 NAtoms=   22 NActive=   22 NUniq=   22 SFac= 1.00D+00 NAtFMM=   60 NAOKFM=F Big=F
 Integral buffers will be    131072 words long.
 Raffenetti 2 integral format.
 Two-electron integral symmetry is turned on.
 R6Disp:  Grimme-D2 Dispersion energy=       -0.0119037286 Hartrees.
 Nuclear repulsion after empirical dispersion term =      599.4813635400 Hartrees.
 Leave Link  301 at Sat Nov  5 21:35:29 2022, MaxMem= 16106127360 cpu:               1.2 elap:               0.0
 (Enter /opt/ap/G16/B01/g16/l302.exe)
 NPDir=0 NMtPBC=     1 NCelOv=     1 NCel=       1 NClECP=     1 NCelD=      1
         NCelK=      1 NCelE2=     1 NClLst=     1 CellRange=     0.0.
 One-electron integrals computed using PRISM.
 One-electron integral symmetry used in STVInt
 NBasis=   334 RedAO= T EigKep=  1.25D-06  NBF=   334
 NBsUse=   331 1.00D-06 EigRej=  9.49D-07 NBFU=   331
 Precomputing XC quadrature grid using
 IXCGrd= 4 IRadAn=           5 IRanWt=          -1 IRanGd=           0 AccXCQ= 0.00D+00.
 Generated NRdTot=       0 NPtTot=           0 NUsed=           0 NTot=          32
 NSgBfM=   346   346   346   346   346 MxSgAt=    22 MxSgA2=    22.
 Leave Link  302 at Sat Nov  5 21:35:29 2022, MaxMem= 16106127360 cpu:               7.8 elap:               0.2
 (Enter /opt/ap/G16/B01/g16/l303.exe)
 DipDrv:  MaxL=1.
 Leave Link  303 at Sat Nov  5 21:35:29 2022, MaxMem= 16106127360 cpu:               1.4 elap:               0.1
 (Enter /opt/ap/G16/B01/g16/l401.exe)
 ExpMin= 3.60D-02 ExpMax= 4.56D+03 ExpMxC= 6.82D+02 IAcc=3 IRadAn=         5 AccDes= 0.00D+00
 Harris functional with IExCor= 4639 and IRadAn=       5 diagonalized for initial guess.
 HarFok:  IExCor= 4639 AccDes= 0.00D+00 IRadAn=         5 IDoV= 1 UseB2=F ITyADJ=14
 ICtDFT=  3500011 ScaDFX=  1.000000  1.000000  1.000000  1.000000
 FoFCou: FMM=F IPFlag=           0 FMFlag=      100000 FMFlg1=           0
         NFxFlg=           0 DoJE=T BraDBF=F KetDBF=T FulRan=T
         wScrn=  0.000000 ICntrl=       500 IOpCl=  0 I1Cent=   200000004 NGrid=           0
         NMat0=    1 NMatS0=      1 NMatT0=    0 NMatD0=    1 NMtDS0=    0 NMtDT0=    0
 Petite list used in FoFCou.
 Harris En= -441.935718806633    
 JPrj=0 DoOrth=F DoCkMO=F.
 Leave Link  401 at Sat Nov  5 21:35:30 2022, MaxMem= 16106127360 cpu:              19.7 elap:               0.6
 (Enter /opt/ap/G16/B01/g16/l502.exe)
 Integral symmetry usage will be decided dynamically.
 Closed shell SCF:
 Using DIIS extrapolation, IDIIS=  1040.
 NGot= 16106127360 LenX= 16105873520 LenY= 16105753363
 Requested convergence on RMS density matrix=1.00D-08 within 512 cycles.
 Requested convergence on MAX density matrix=1.00D-06.
 Requested convergence on             energy=1.00D-06.
 No special actions if energy rises.
 Fock matrices will be formed incrementally for  20 cycles.

 Cycle   1  Pass 1  IDiag  1:
 FoFJK:  IHMeth= 1 ICntrl=       0 DoSepK=T KAlg= 0 I1Cent=           0 FoldK=F
 IRaf=         1 NMat=       1 IRICut=       1 DoRegI=T DoRafI=F ISym2E= 0 IDoP0=0 IntGTp=1.
 FoFCou: FMM=F IPFlag=           0 FMFlag=      100000 FMFlg1=           0
         NFxFlg=           0 DoJE=T BraDBF=F KetDBF=F FulRan=T
         wScrn=  0.000000 ICntrl=       500 IOpCl=  0 I1Cent=           0 NGrid=           0
         NMat0=    1 NMatS0=      1 NMatT0=    0 NMatD0=    1 NMtDS0=    0 NMtDT0=    0
 Symmetry not used in FoFCou.
 E= -463.150276165900    
 DIIS: error= 6.89D-02 at cycle   1 NSaved=   1.
 NSaved= 1 IEnMin= 1 EnMin= -463.150276165900     IErMin= 1 ErrMin= 6.89D-02
 ErrMax= 6.89D-02  0.00D+00 EMaxC= 1.00D-01 BMatC= 9.52D-01 BMatP= 9.52D-01
 IDIUse=3 WtCom= 3.11D-01 WtEn= 6.89D-01
 Coeff-Com:  0.100D+01
 Coeff-En:   0.100D+01
 Coeff:      0.100D+01
 Gap=     0.311 Goal=   None    Shift=    0.000
 GapD=    0.311 DampG=1.000 DampE=0.500 DampFc=0.5000 IDamp=-1.
 Damping current iteration by 5.00D-01
 RMSDP=7.26D-02 MaxDP=5.40D+00              OVMax= 4.56D-02

 Cycle   2  Pass 1  IDiag  1:
 RMSU=  6.66D-03    CP:  7.74D-01
 E= -463.199616520941     Delta-E=       -0.049340355040 Rises=F Damp=T
 DIIS: error= 3.29D-02 at cycle   2 NSaved=   2.
 NSaved= 2 IEnMin= 2 EnMin= -463.199616520941     IErMin= 2 ErrMin= 3.29D-02
 ErrMax= 3.29D-02  0.00D+00 EMaxC= 1.00D-01 BMatC= 2.16D-01 BMatP= 9.52D-01
 IDIUse=3 WtCom= 6.71D-01 WtEn= 3.29D-01
 Coeff-Com: -0.883D+00 0.188D+01
 Coeff-En:   0.000D+00 0.100D+01
 Coeff:     -0.592D+00 0.159D+01
 Gap=     0.318 Goal=   None    Shift=    0.000
 RMSDP=4.07D-02 MaxDP=3.05D+00 DE=-4.93D-02 OVMax= 3.78D-02

 Cycle   3  Pass 1  IDiag  1:
 RMSU=  4.96D-03    CP:  5.19D-01  1.26D+00
 E= -463.244159380125     Delta-E=       -0.044542859184 Rises=F Damp=F
 DIIS: error= 6.27D-03 at cycle   3 NSaved=   3.
 NSaved= 3 IEnMin= 3 EnMin= -463.244159380125     IErMin= 3 ErrMin= 6.27D-03
 ErrMax= 6.27D-03  0.00D+00 EMaxC= 1.00D-01 BMatC= 4.16D-03 BMatP= 2.16D-01
 IDIUse=3 WtCom= 9.37D-01 WtEn= 6.27D-02
 Coeff-Com: -0.357D+00 0.762D+00 0.596D+00
 Coeff-En:   0.000D+00 0.000D+00 0.100D+01
 Coeff:     -0.335D+00 0.714D+00 0.621D+00
 Gap=     0.317 Goal=   None    Shift=    0.000
 RMSDP=2.50D-03 MaxDP=1.35D-01 DE=-4.45D-02 OVMax= 2.09D-02

 Cycle   4  Pass 1  IDiag  1:
 RMSU=  8.07D-04    CP:  5.09D-01  1.45D+00  7.63D-01
 E= -463.247807318021     Delta-E=       -0.003647937896 Rises=F Damp=F
 DIIS: error= 2.01D-03 at cycle   4 NSaved=   4.
 NSaved= 4 IEnMin= 4 EnMin= -463.247807318021     IErMin= 4 ErrMin= 2.01D-03
 ErrMax= 2.01D-03  0.00D+00 EMaxC= 1.00D-01 BMatC= 2.93D-04 BMatP= 4.16D-03
 IDIUse=3 WtCom= 9.80D-01 WtEn= 2.01D-02
 Coeff-Com: -0.127D+00 0.272D+00 0.296D+00 0.559D+00
 Coeff-En:   0.000D+00 0.000D+00 0.000D+00 0.100D+01
 Coeff:     -0.124D+00 0.266D+00 0.290D+00 0.568D+00
 Gap=     0.316 Goal=   None    Shift=    0.000
 RMSDP=1.75D-03 MaxDP=1.32D-01 DE=-3.65D-03 OVMax= 5.86D-03

 Cycle   5  Pass 1  IDiag  1:
 RMSU=  3.64D-04    CP:  4.98D-01  1.51D+00  7.98D-01  8.22D-01
 E= -463.248116524508     Delta-E=       -0.000309206487 Rises=F Damp=F
 DIIS: error= 4.45D-04 at cycle   5 NSaved=   5.
 NSaved= 5 IEnMin= 5 EnMin= -463.248116524508     IErMin= 5 ErrMin= 4.45D-04
 ErrMax= 4.45D-04  0.00D+00 EMaxC= 1.00D-01 BMatC= 9.64D-06 BMatP= 2.93D-04
 IDIUse=3 WtCom= 9.96D-01 WtEn= 4.45D-03
 Coeff-Com:  0.278D-01-0.594D-01-0.336D-01 0.128D+00 0.938D+00
 Coeff-En:   0.000D+00 0.000D+00 0.000D+00 0.000D+00 0.100D+01
 Coeff:      0.277D-01-0.592D-01-0.334D-01 0.127D+00 0.938D+00
 Gap=     0.316 Goal=   None    Shift=    0.000
 RMSDP=3.94D-04 MaxDP=3.02D-02 DE=-3.09D-04 OVMax= 1.78D-03

 Cycle   6  Pass 1  IDiag  1:
 RMSU=  6.74D-05    CP:  4.96D-01  1.51D+00  8.22D-01  9.18D-01  1.22D+00
 E= -463.248129870538     Delta-E=       -0.000013346031 Rises=F Damp=F
 DIIS: error= 6.11D-05 at cycle   6 NSaved=   6.
 NSaved= 6 IEnMin= 6 EnMin= -463.248129870538     IErMin= 6 ErrMin= 6.11D-05
 ErrMax= 6.11D-05  0.00D+00 EMaxC= 1.00D-01 BMatC= 4.58D-07 BMatP= 9.64D-06
 IDIUse=1 WtCom= 1.00D+00 WtEn= 0.00D+00
 Coeff-Com:  0.118D-01-0.252D-01-0.167D-01 0.317D-01 0.318D+00 0.680D+00
 Coeff:      0.118D-01-0.252D-01-0.167D-01 0.317D-01 0.318D+00 0.680D+00
 Gap=     0.316 Goal=   None    Shift=    0.000
 RMSDP=1.47D-05 MaxDP=6.05D-04 DE=-1.33D-05 OVMax= 2.81D-04

 Cycle   7  Pass 1  IDiag  1:
 RMSU=  1.16D-05    CP:  4.96D-01  1.51D+00  8.22D-01  9.17D-01  1.23D+00
                    CP:  1.02D+00
 E= -463.248130437321     Delta-E=       -0.000000566783 Rises=F Damp=F
 DIIS: error= 2.65D-05 at cycle   7 NSaved=   7.
 NSaved= 7 IEnMin= 7 EnMin= -463.248130437321     IErMin= 7 ErrMin= 2.65D-05
 ErrMax= 2.65D-05  0.00D+00 EMaxC= 1.00D-01 BMatC= 5.89D-08 BMatP= 4.58D-07
 IDIUse=1 WtCom= 1.00D+00 WtEn= 0.00D+00
 Coeff-Com: -0.244D-02 0.524D-02 0.225D-02-0.194D-01-0.113D+00 0.185D+00
 Coeff-Com:  0.943D+00
 Coeff:     -0.244D-02 0.524D-02 0.225D-02-0.194D-01-0.113D+00 0.185D+00
 Coeff:      0.943D+00
 Gap=     0.316 Goal=   None    Shift=    0.000
 RMSDP=2.83D-05 MaxDP=2.01D-03 DE=-5.67D-07 OVMax= 2.13D-04

 Cycle   8  Pass 1  IDiag  1:
 RMSU=  3.54D-06    CP:  4.96D-01  1.51D+00  8.24D-01  9.20D-01  1.26D+00
                    CP:  1.15D+00  1.21D+00
 E= -463.248130549872     Delta-E=       -0.000000112551 Rises=F Damp=F
 DIIS: error= 4.61D-06 at cycle   8 NSaved=   8.
 NSaved= 8 IEnMin= 8 EnMin= -463.248130549872     IErMin= 8 ErrMin= 4.61D-06
 ErrMax= 4.61D-06  0.00D+00 EMaxC= 1.00D-01 BMatC= 1.17D-09 BMatP= 5.89D-08
 IDIUse=1 WtCom= 1.00D+00 WtEn= 0.00D+00
 Coeff-Com: -0.349D-03 0.744D-03 0.491D-03-0.117D-02-0.736D-02-0.161D-01
 Coeff-Com: -0.329D-01 0.106D+01
 Coeff:     -0.349D-03 0.744D-03 0.491D-03-0.117D-02-0.736D-02-0.161D-01
 Coeff:     -0.329D-01 0.106D+01
 Gap=     0.317 Goal=   None    Shift=    0.000
 RMSDP=6.57D-06 MaxDP=4.97D-04 DE=-1.13D-07 OVMax= 4.13D-05

 Cycle   9  Pass 1  IDiag  1:
 RMSU=  9.08D-07    CP:  4.96D-01  1.51D+00  8.23D-01  9.19D-01  1.26D+00
                    CP:  1.14D+00  1.30D+00  1.21D+00
 E= -463.248130553653     Delta-E=       -0.000000003781 Rises=F Damp=F
 DIIS: error= 2.38D-06 at cycle   9 NSaved=   9.
 NSaved= 9 IEnMin= 9 EnMin= -463.248130553653     IErMin= 9 ErrMin= 2.38D-06
 ErrMax= 2.38D-06  0.00D+00 EMaxC= 1.00D-01 BMatC= 3.09D-10 BMatP= 1.17D-09
 IDIUse=1 WtCom= 1.00D+00 WtEn= 0.00D+00
 Coeff-Com:  0.158D-03-0.343D-03-0.779D-04 0.192D-02 0.110D-01-0.259D-01
 Coeff-Com: -0.128D+00 0.384D+00 0.757D+00
 Coeff:      0.158D-03-0.343D-03-0.779D-04 0.192D-02 0.110D-01-0.259D-01
 Coeff:     -0.128D+00 0.384D+00 0.757D+00
 Gap=     0.317 Goal=   None    Shift=    0.000
 RMSDP=2.08D-06 MaxDP=1.63D-04 DE=-3.78D-09 OVMax= 1.62D-05

 Cycle  10  Pass 1  IDiag  1:
 RMSU=  2.04D-07    CP:  4.96D-01  1.51D+00  8.23D-01  9.18D-01  1.26D+00
                    CP:  1.14D+00  1.32D+00  1.26D+00  1.32D+00
 E= -463.248130554176     Delta-E=       -0.000000000523 Rises=F Damp=F
 DIIS: error= 3.57D-07 at cycle  10 NSaved=  10.
 NSaved=10 IEnMin=10 EnMin= -463.248130554176     IErMin=10 ErrMin= 3.57D-07
 ErrMax= 3.57D-07  0.00D+00 EMaxC= 1.00D-01 BMatC= 2.26D-11 BMatP= 3.09D-10
 IDIUse=1 WtCom= 1.00D+00 WtEn= 0.00D+00
 Coeff-Com:  0.594D-04-0.128D-03-0.492D-04 0.516D-03 0.270D-02-0.341D-02
 Coeff-Com: -0.243D-01-0.277D-01 0.190D+00 0.862D+00
 Coeff:      0.594D-04-0.128D-03-0.492D-04 0.516D-03 0.270D-02-0.341D-02
 Coeff:     -0.243D-01-0.277D-01 0.190D+00 0.862D+00
 Gap=     0.317 Goal=   None    Shift=    0.000
 RMSDP=8.79D-07 MaxDP=6.88D-05 DE=-5.23D-10 OVMax= 3.53D-06

 Cycle  11  Pass 1  IDiag  1:
 RMSU=  7.66D-08    CP:  4.96D-01  1.51D+00  8.23D-01  9.18D-01  1.26D+00
                    CP:  1.14D+00  1.33D+00  1.26D+00  1.44D+00  1.19D+00
 E= -463.248130554210     Delta-E=       -0.000000000035 Rises=F Damp=F
 DIIS: error= 1.10D-07 at cycle  11 NSaved=  11.
 NSaved=11 IEnMin=11 EnMin= -463.248130554210     IErMin=11 ErrMin= 1.10D-07
 ErrMax= 1.10D-07  0.00D+00 EMaxC= 1.00D-01 BMatC= 8.05D-13 BMatP= 2.26D-11
 IDIUse=1 WtCom= 1.00D+00 WtEn= 0.00D+00
 Coeff-Com: -0.135D-04 0.294D-04 0.111D-04-0.158D-03-0.944D-03 0.230D-02
 Coeff-Com:  0.958D-02-0.250D-01-0.372D-01-0.112D+00 0.116D+01
 Coeff:     -0.135D-04 0.294D-04 0.111D-04-0.158D-03-0.944D-03 0.230D-02
 Coeff:      0.958D-02-0.250D-01-0.372D-01-0.112D+00 0.116D+01
 Gap=     0.317 Goal=   None    Shift=    0.000
 RMSDP=2.38D-07 MaxDP=1.85D-05 DE=-3.46D-11 OVMax= 9.75D-07

 Cycle  12  Pass 1  IDiag  1:
 RMSU=  2.05D-08    CP:  4.96D-01  1.51D+00  8.23D-01  9.18D-01  1.26D+00
                    CP:  1.14D+00  1.33D+00  1.25D+00  1.49D+00  1.28D+00
                    CP:  1.22D+00
 E= -463.248130554212     Delta-E=       -0.000000000001 Rises=F Damp=F
 DIIS: error= 2.43D-08 at cycle  12 NSaved=  12.
 NSaved=12 IEnMin=12 EnMin= -463.248130554212     IErMin=12 ErrMin= 2.43D-08
 ErrMax= 2.43D-08  0.00D+00 EMaxC= 1.00D-01 BMatC= 7.90D-14 BMatP= 8.05D-13
 IDIUse=1 WtCom= 1.00D+00 WtEn= 0.00D+00
 Coeff-Com: -0.147D-05 0.312D-05 0.239D-05-0.802D-05-0.329D-04 0.612D-05
 Coeff-Com: -0.653D-04 0.381D-02 0.413D-03-0.553D-01-0.137D+00 0.119D+01
 Coeff:     -0.147D-05 0.312D-05 0.239D-05-0.802D-05-0.329D-04 0.612D-05
 Coeff:     -0.653D-04 0.381D-02 0.413D-03-0.553D-01-0.137D+00 0.119D+01
 Gap=     0.317 Goal=   None    Shift=    0.000
 RMSDP=1.21D-08 MaxDP=4.97D-07 DE=-1.36D-12 OVMax= 2.61D-07

 Cycle  13  Pass 1  IDiag  1:
 RMSU=  4.42D-09    CP:  4.96D-01  1.51D+00  8.23D-01  9.18D-01  1.26D+00
                    CP:  1.14D+00  1.32D+00  1.25D+00  1.49D+00  1.29D+00
                    CP:  1.28D+00  1.23D+00
 E= -463.248130554216     Delta-E=       -0.000000000005 Rises=F Damp=F
 DIIS: error= 6.05D-09 at cycle  13 NSaved=  13.
 NSaved=13 IEnMin=13 EnMin= -463.248130554216     IErMin=13 ErrMin= 6.05D-09
 ErrMax= 6.05D-09  0.00D+00 EMaxC= 1.00D-01 BMatC= 5.09D-15 BMatP= 7.90D-14
 IDIUse=1 WtCom= 1.00D+00 WtEn= 0.00D+00
 Coeff-Com:  0.465D-06-0.103D-05-0.221D-06 0.678D-05 0.449D-04-0.109D-03
 Coeff-Com: -0.554D-03 0.195D-02 0.323D-02-0.577D-02-0.897D-01 0.213D+00
 Coeff-Com:  0.878D+00
 Coeff:      0.465D-06-0.103D-05-0.221D-06 0.678D-05 0.449D-04-0.109D-03
 Coeff:     -0.554D-03 0.195D-02 0.323D-02-0.577D-02-0.897D-01 0.213D+00
 Coeff:      0.878D+00
 Gap=     0.317 Goal=   None    Shift=    0.000
 RMSDP=8.64D-09 MaxDP=5.59D-07 DE=-4.55D-12 OVMax= 5.89D-08

 SCF Done:  E(RwB97XD) =  -463.248130554     A.U. after   13 cycles
            NFock= 13  Conv=0.86D-08     -V/T= 2.0048
 KE= 4.610237919526D+02 PE=-2.273183756865D+03 EE= 7.494304708186D+02
 Leave Link  502 at Sat Nov  5 21:35:53 2022, MaxMem= 16106127360 cpu:             747.5 elap:              23.4
 (Enter /opt/ap/G16/B01/g16/l601.exe)
 Copying SCF densities to generalized density rwf, IOpCl= 0 IROHF=0.

 **********************************************************************

            Population analysis using the SCF Density.

 **********************************************************************

 Orbital symmetries:
       Occupied  (A) (A) (A) (A) (A) (A) (A) (A) (A) (A) (A) (A)
                 (A) (A) (A) (A) (A) (A) (A) (A) (A) (A) (A) (A)
                 (A) (A) (A) (A) (A) (A) (A) (A) (A) (A) (A) (A)
                 (A) (A) (A) (A) (A)
       Virtual   (A) (A) (A) (A) (A) (A) (A) (A) (A) (A) (A) (A)
                 (A) (A) (A) (A) (A) (A) (A) (A) (A) (A) (A) (A)
                 (A) (A) (A) (A) (A) (A) (A) (A) (A) (A) (A) (A)
                 (A) (A) (A) (A) (A) (A) (A) (A) (A) (A) (A) (A)
                 (A) (A) (A) (A) (A) (A) (A) (A) (A) (A) (A) (A)
                 (A) (A) (A) (A) (A) (A) (A) (A) (A) (A) (A) (A)
                 (A) (A) (A) (A) (A) (A) (A) (A) (A) (A) (A) (A)
                 (A) (A) (A) (A) (A) (A) (A) (A) (A) (A) (A) (A)
                 (A) (A) (A) (A) (A) (A) (A) (A) (A) (A) (A) (A)
                 (A) (A) (A) (A) (A) (A) (A) (A) (A) (A) (A) (A)
                 (A) (A) (A) (A) (A) (A) (A) (A) (A) (A) (A) (A)
                 (A) (A) (A) (A) (A) (A) (A) (A) (A) (A) (A) (A)
                 (A) (A) (A) (A) (A) (A) (A) (A) (A) (A) (A) (A)
                 (A) (A) (A) (A) (A) (A) (A) (A) (A) (A) (A) (A)
                 (A) (A) (A) (A) (A) (A) (A) (A) (A) (A) (A) (A)
                 (A) (A) (A) (A) (A) (A) (A) (A) (A) (A) (A) (A)
                 (A) (A) (A) (A) (A) (A) (A) (A) (A) (A) (A) (A)
                 (A) (A) (A) (A) (A) (A) (A) (A) (A) (A) (A) (A)
                 (A) (A) (A) (A) (A) (A) (A) (A) (A) (A) (A) (A)
                 (A) (A) (A) (A) (A) (A) (A) (A) (A) (A) (A) (A)
                 (A) (A) (A) (A) (A) (A) (A) (A) (A) (A) (A) (A)
                 (A) (A) (A) (A) (A) (A) (A) (A) (A) (A) (A) (A)
                 (A) (A) (A) (A) (A) (A) (A) (A) (A) (A) (A) (A)
                 (A) (A) (A) (A) (A) (A) (A) (A) (A) (A) (A) (A)
                 (A) (A)
 The electronic state is 1-A.
 Alpha  occ. eigenvalues --  -10.30588 -10.30558 -10.29428 -10.29427 -10.29420
 Alpha  occ. eigenvalues --  -10.29419 -10.29314 -10.29313 -10.29312 -10.29311
 Alpha  occ. eigenvalues --  -10.29265 -10.29265  -0.97703  -0.95358  -0.88317
 Alpha  occ. eigenvalues --   -0.85668  -0.84647  -0.82376  -0.72466  -0.72256
 Alpha  occ. eigenvalues --   -0.68567  -0.67534  -0.63157  -0.59094  -0.56876
 Alpha  occ. eigenvalues --   -0.55869  -0.52983  -0.52226  -0.51988  -0.51177
 Alpha  occ. eigenvalues --   -0.50354  -0.47786  -0.45175  -0.45026  -0.44275
 Alpha  occ. eigenvalues --   -0.42523  -0.41563  -0.36726  -0.33767  -0.33331
 Alpha  occ. eigenvalues --   -0.29913
 Alpha virt. eigenvalues --    0.01738   0.03841   0.04080   0.04545   0.04754
 Alpha virt. eigenvalues --    0.05895   0.05915   0.06030   0.07559   0.07979
 Alpha virt. eigenvalues --    0.08401   0.08841   0.09575   0.10501   0.11488
 Alpha virt. eigenvalues --    0.12693   0.13345   0.13428   0.15273   0.15364
 Alpha virt. eigenvalues --    0.15694   0.16031   0.16117   0.16618   0.17074
 Alpha virt. eigenvalues --    0.17418   0.17483   0.17978   0.17987   0.18901
 Alpha virt. eigenvalues --    0.18954   0.19104   0.19680   0.19816   0.20189
 Alpha virt. eigenvalues --    0.20420   0.20671   0.22907   0.23321   0.23591
 Alpha virt. eigenvalues --    0.23815   0.24221   0.24420   0.24568   0.24961
 Alpha virt. eigenvalues --    0.25595   0.25825   0.26878   0.27058   0.27773
 Alpha virt. eigenvalues --    0.28347   0.28383   0.29344   0.29704   0.30007
 Alpha virt. eigenvalues --    0.30410   0.31214   0.31232   0.32392   0.33145
 Alpha virt. eigenvalues --    0.33388   0.33625   0.34670   0.35459   0.35951
 Alpha virt. eigenvalues --    0.36134   0.36359   0.36954   0.37301   0.37955
 Alpha virt. eigenvalues --    0.38982   0.40999   0.41031   0.41808   0.42269
 Alpha virt. eigenvalues --    0.42707   0.43909   0.47608   0.48202   0.48676
 Alpha virt. eigenvalues --    0.56700   0.58261   0.58628   0.61019   0.61096
 Alpha virt. eigenvalues --    0.61705   0.62493   0.62615   0.63153   0.63529
 Alpha virt. eigenvalues --    0.64310   0.64662   0.65562   0.65930   0.66147
 Alpha virt. eigenvalues --    0.67254   0.68666   0.69102   0.69458   0.69501
 Alpha virt. eigenvalues --    0.72555   0.72674   0.74454   0.74942   0.75575
 Alpha virt. eigenvalues --    0.76682   0.78108   0.78141   0.78707   0.78714
 Alpha virt. eigenvalues --    0.80540   0.81578   0.82707   0.83530   0.83713
 Alpha virt. eigenvalues --    0.86095   0.89418   0.90036   0.91435   0.91899
 Alpha virt. eigenvalues --    0.92807   0.92902   0.94096   0.94601   0.95576
 Alpha virt. eigenvalues --    0.95968   0.96700   0.96886   0.99374   0.99769
 Alpha virt. eigenvalues --    1.00312   1.00356   1.01884   1.03260   1.05366
 Alpha virt. eigenvalues --    1.08260   1.08316   1.09044   1.09051   1.10807
 Alpha virt. eigenvalues --    1.13343   1.15667   1.16196   1.17214   1.19301
 Alpha virt. eigenvalues --    1.20046   1.20773   1.23564   1.24125   1.24924
 Alpha virt. eigenvalues --    1.34952   1.39029   1.39074   1.41426   1.55155
 Alpha virt. eigenvalues --    1.56574   1.57375   1.57591   1.57712   1.60151
 Alpha virt. eigenvalues --    1.61505   1.62822   1.64111   1.65147   1.65286
 Alpha virt. eigenvalues --    1.65478   1.66490   1.68177   1.70734   1.71394
 Alpha virt. eigenvalues --    1.73727   1.75455   1.76331   1.77115   1.77297
 Alpha virt. eigenvalues --    1.81318   1.82707   1.84488   1.85701   1.86108
 Alpha virt. eigenvalues --    1.88755   1.89723   1.91201   1.91361   1.95345
 Alpha virt. eigenvalues --    1.97744   1.99061   1.99695   2.00802   2.03186
 Alpha virt. eigenvalues --    2.04099   2.04103   2.05045   2.05048   2.07397
 Alpha virt. eigenvalues --    2.07605   2.08897   2.10387   2.12937   2.13091
 Alpha virt. eigenvalues --    2.14376   2.17242   2.17366   2.18506   2.21214
 Alpha virt. eigenvalues --    2.35042   2.35185   2.35375   2.40230   2.45859
 Alpha virt. eigenvalues --    2.46581   2.50825   2.51321   2.53151   2.53712
 Alpha virt. eigenvalues --    2.56210   2.56371   2.58182   2.58794   2.70178
 Alpha virt. eigenvalues --    2.72422   2.75058   2.76317   2.77286   2.77730
 Alpha virt. eigenvalues --    2.79032   2.80473   2.80657   2.81044   2.81678
 Alpha virt. eigenvalues --    2.82869   2.83129   2.84236   2.85169   2.86987
 Alpha virt. eigenvalues --    2.88012   2.90642   2.91461   2.91674   2.91890
 Alpha virt. eigenvalues --    2.93808   2.95687   2.99536   3.00150   3.03549
 Alpha virt. eigenvalues --    3.04094   3.04290   3.04601   3.08410   3.16866
 Alpha virt. eigenvalues --    3.19505   3.20307   3.29604   3.31353   3.32107
 Alpha virt. eigenvalues --    3.45368   3.46911   3.46922   3.48550   3.59131
 Alpha virt. eigenvalues --    3.61819   3.63850   3.63925   3.67825   3.72853
 Alpha virt. eigenvalues --    3.75905   3.86799   4.08872   4.11366   4.13528
 Alpha virt. eigenvalues --    4.14460   4.24091   4.24453   4.27689   4.29164
 Alpha virt. eigenvalues --    4.63229   4.92131   4.96212  23.68288  23.84838
 Alpha virt. eigenvalues --   24.07474  24.08425  24.09347  24.09828  24.18756
 Alpha virt. eigenvalues --   24.19782  24.22178  24.22673  24.31074  24.31498
          Condensed to atoms (all electrons):
               1          2          3          4          5          6
     1  C   22.050665   1.876214   1.888883  -1.936680   0.044701 -11.256177
     2  C    1.876214  12.122456  -1.492118  -1.512761   0.547774  -4.912147
     3  C    1.888883  -1.492118  12.141613  -0.595644   0.038091  -4.931040
     4  C   -1.936680  -1.512761  -0.595644   7.122008  -0.053480   2.447181
     5  H    0.044701   0.547774   0.038091  -0.053480   0.544550  -0.166106
     6  C  -11.256177  -4.912147  -4.931040   2.447181  -0.166106  22.046335
     7  C   -1.937431  -0.594755  -1.521774   0.479037  -0.008535   2.451939
     8  H    0.045133   0.038102   0.548182  -0.008483   0.004296  -0.166500
     9  C    0.845856   0.774354   0.778123  -0.395587   0.032026  -1.929076
    10  H    0.016039  -0.113455  -0.013356   0.439637  -0.016099   0.052926
    11  C   -4.914271   2.767671  -3.179843   0.197748   0.000411   1.874938
    12  C   -4.936445  -3.179179   2.761252   0.287634  -0.081403   1.891221
    13  H    0.016107  -0.013314  -0.113752   0.023938  -0.000795   0.052971
    14  H    0.043372  -0.008068  -0.008063  -0.045107   0.000731  -0.035770
    15  C    2.449387   0.199041   0.286393  -0.090991  -0.005460  -1.936049
    16  H   -0.166191   0.000296  -0.081312  -0.005480  -0.000880   0.044719
    17  C    2.455449   0.286839   0.200299  -0.149575   0.018812  -1.938893
    18  H   -0.166741  -0.081364   0.000080   0.018792  -0.005616   0.045261
    19  C   -1.931453  -0.085345  -0.085608   0.072996  -0.015127   0.845830
    20  H    0.052972  -0.000288   0.006828  -0.000037   0.000967   0.016035
    21  H    0.053071   0.006859  -0.000314  -0.000756   0.000502   0.016084
    22  H   -0.035817  -0.002929  -0.002915   0.001394  -0.000503   0.043372
               7          8          9         10         11         12
     1  C   -1.937431   0.045133   0.845856   0.016039  -4.914271  -4.936445
     2  C   -0.594755   0.038102   0.774354  -0.113455   2.767671  -3.179179
     3  C   -1.521774   0.548182   0.778123  -0.013356  -3.179843   2.761252
     4  C    0.479037  -0.008483  -0.395587   0.439637   0.197748   0.287634
     5  H   -0.008535   0.004296   0.032026  -0.016099   0.000411  -0.081403
     6  C    2.451939  -0.166500  -1.929076   0.052926   1.874938   1.891221
     7  C    7.125686  -0.053758  -0.396661   0.023952   0.286179   0.200847
     8  H   -0.053758   0.544647   0.032056  -0.000794  -0.081286  -0.000056
     9  C   -0.396661   0.032056   6.559319  -0.091390  -0.084929  -0.086106
    10  H    0.023952  -0.000794  -0.091390   0.482652  -0.000331   0.006854
    11  C    0.286179  -0.081286  -0.084929  -0.000331  12.125366  -1.489613
    12  C    0.200847  -0.000056  -0.086106   0.006854  -1.489613  12.145971
    13  H    0.439772  -0.016113  -0.091395   0.001464   0.006837  -0.000283
    14  H   -0.045087   0.000730   0.447627  -0.010361  -0.002913  -0.002933
    15  C   -0.149607   0.018776   0.073054  -0.000046  -1.512306  -0.600726
    16  H    0.018792  -0.005611  -0.015114   0.000965   0.547667   0.038263
    17  C   -0.091758  -0.005309   0.073214  -0.000755  -0.595452  -1.525946
    18  H   -0.005321  -0.000915  -0.015154   0.000502   0.038079   0.548473
    19  C    0.073328  -0.015152  -0.022427  -0.000384   0.775171   0.781844
    20  H   -0.000759   0.000502  -0.000383   0.000138  -0.113464  -0.013485
    21  H   -0.000063   0.000968  -0.000382   0.000024  -0.013328  -0.113912
    22  H    0.001401  -0.000503  -0.000589   0.000007  -0.008118  -0.007927
              13         14         15         16         17         18
     1  C    0.016107   0.043372   2.449387  -0.166191   2.455449  -0.166741
     2  C   -0.013314  -0.008068   0.199041   0.000296   0.286839  -0.081364
     3  C   -0.113752  -0.008063   0.286393  -0.081312   0.200299   0.000080
     4  C    0.023938  -0.045107  -0.090991  -0.005480  -0.149575   0.018792
     5  H   -0.000795   0.000731  -0.005460  -0.000880   0.018812  -0.005616
     6  C    0.052971  -0.035770  -1.936049   0.044719  -1.938893   0.045261
     7  C    0.439772  -0.045087  -0.149607   0.018792  -0.091758  -0.005321
     8  H   -0.016113   0.000730   0.018776  -0.005611  -0.005309  -0.000915
     9  C   -0.091395   0.447627   0.073054  -0.015114   0.073214  -0.015154
    10  H    0.001464  -0.010361  -0.000046   0.000965  -0.000755   0.000502
    11  C    0.006837  -0.002913  -1.512306   0.547667  -0.595452   0.038079
    12  C   -0.000283  -0.002933  -0.600726   0.038263  -1.525946   0.548473
    13  H    0.482658  -0.010359  -0.000755   0.000502  -0.000050   0.000969
    14  H   -0.010359   0.478344   0.001395  -0.000502   0.001400  -0.000503
    15  C   -0.000755   0.001395   7.122213  -0.053399   0.481135  -0.008590
    16  H    0.000502  -0.000502  -0.053399   0.544549  -0.008574   0.004298
    17  C   -0.000050   0.001400   0.481135  -0.008574   7.128687  -0.053946
    18  H    0.000969  -0.000503  -0.008590   0.004298  -0.053946   0.544647
    19  C   -0.000383  -0.000589  -0.396606   0.032058  -0.399334   0.032140
    20  H    0.000024   0.000007   0.439664  -0.016101   0.024019  -0.000796
    21  H    0.000138   0.000007   0.024004  -0.000795   0.439919  -0.016111
    22  H    0.000007  -0.000011  -0.045049   0.000730  -0.045171   0.000733
              19         20         21         22
     1  C   -1.931453   0.052972   0.053071  -0.035817
     2  C   -0.085345  -0.000288   0.006859  -0.002929
     3  C   -0.085608   0.006828  -0.000314  -0.002915
     4  C    0.072996  -0.000037  -0.000756   0.001394
     5  H   -0.015127   0.000967   0.000502  -0.000503
     6  C    0.845830   0.016035   0.016084   0.043372
     7  C    0.073328  -0.000759  -0.000063   0.001401
     8  H   -0.015152   0.000502   0.000968  -0.000503
     9  C   -0.022427  -0.000383  -0.000382  -0.000589
    10  H   -0.000384   0.000138   0.000024   0.000007
    11  C    0.775171  -0.113464  -0.013328  -0.008118
    12  C    0.781844  -0.013485  -0.113912  -0.007927
    13  H   -0.000383   0.000024   0.000138   0.000007
    14  H   -0.000589   0.000007   0.000007  -0.000011
    15  C   -0.396606   0.439664   0.024004  -0.045049
    16  H    0.032058  -0.016101  -0.000795   0.000730
    17  C   -0.399334   0.024019   0.439919  -0.045171
    18  H    0.032140  -0.000796  -0.016111   0.000733
    19  C    6.561044  -0.091411  -0.091499   0.447619
    20  H   -0.091411   0.482652   0.001466  -0.010358
    21  H   -0.091499   0.001466   0.482663  -0.010363
    22  H    0.447619  -0.010358  -0.010363   0.478332
 Mulliken charges:
               1
     1  C    1.443354
     2  C   -0.623884
     3  C   -0.624004
     4  C   -0.295784
     5  H    0.121140
     6  C    1.442946
     7  C   -0.295423
     8  H    0.121089
     9  C   -0.486436
    10  H    0.221810
    11  C   -0.624213
    12  C   -0.624344
    13  H    0.221810
    14  H    0.196653
    15  C   -0.295478
    16  H    0.121120
    17  C   -0.295010
    18  H    0.121082
    19  C   -0.486712
    20  H    0.221809
    21  H    0.221818
    22  H    0.196659
 Sum of Mulliken charges =  -0.00000
 Mulliken charges with hydrogens summed into heavy atoms:
               1
     1  C    1.443354
     2  C   -0.502744
     3  C   -0.502916
     4  C   -0.073974
     6  C    1.442946
     7  C   -0.073613
     9  C   -0.289783
    11  C   -0.503093
    12  C   -0.503262
    15  C   -0.073669
    17  C   -0.073192
    19  C   -0.290053
 Electronic spatial extent (au):  <R**2>=           2311.9250
 Charge=             -0.0000 electrons
 Dipole moment (field-independent basis, Debye):
    X=              0.0000    Y=             -0.0000    Z=              0.0004  Tot=              0.0004
 Quadrupole moment (field-independent basis, Debye-Ang):
   XX=            -61.4801   YY=            -61.8227   ZZ=            -77.3273
   XY=             -0.0002   XZ=              0.0009   YZ=              0.0001
 Traceless Quadrupole moment (field-independent basis, Debye-Ang):
   XX=              5.3966   YY=              5.0540   ZZ=            -10.4506
   XY=             -0.0002   XZ=              0.0009   YZ=              0.0001
 Octapole moment (field-independent basis, Debye-Ang**2):
  XXX=              0.0001  YYY=              0.0014  ZZZ=              0.0008  XYY=             -0.0001
  XXY=             -0.0010  XXZ=              0.0019  XZZ=              0.0002  YZZ=             -0.0002
  YYZ=              0.0031  XYZ=              6.8979
 Hexadecapole moment (field-independent basis, Debye-Ang**3):
 XXXX=          -2298.3615 YYYY=           -527.4983 ZZZZ=           -110.4066 XXXY=             -0.0020
 XXXZ=              0.0220 YYYX=             -0.0042 YYYZ=              0.0004 ZZZX=              0.0009
 ZZZY=              0.0001 XXYY=           -473.3917 XXZZ=           -502.3728 YYZZ=           -123.1204
 XXYZ=              0.0022 YYXZ=              0.0001 ZZXY=              0.0024
 N-N= 5.994813635400D+02 E-N=-2.273183756614D+03  KE= 4.610237919526D+02
 No NMR shielding tensors so no spin-rotation constants.
 Leave Link  601 at Sat Nov  5 21:35:54 2022, MaxMem= 16106127360 cpu:               4.1 elap:               0.2
 (Enter /opt/ap/G16/B01/g16/l9999.exe)
 1\1\GINC-N05\SP\RwB97XD\6-311++G(d,p)\C12H10\ROOT\05-Nov-2022\0\\#P wB
 97XD/6-311++G(d,p) scf=maxcycle=512\\_conf022.gjf nmol_natom 1_22\\0,1
 \C\C,1,1.40491871\C,1,1.40495292,2,118.20503621\C,2,1.3939373,1,120.91
 08946,3,0.05365643,0\H,2,1.08593095,1,119.3452094,3,-178.3624307,0\C,1
 ,1.48449301,2,120.90144423,4,-179.96388019,0\C,3,1.39389842,1,120.9105
 0598,2,0.03587687,0\H,3,1.08593608,1,119.34159615,2,-178.38281524,0\C,
 4,1.39606958,2,120.24555868,1,-0.09283196,0\H,4,1.08627898,2,119.66792
 041,1,-179.51486187,0\C,6,1.40492034,1,120.90156908,2,20.,0\C,6,1.4049
 5329,1,120.89324856,2,-160.,0\H,7,1.08627928,3,119.67027175,1,-179.512
 58183,0\H,9,1.08597601,4,120.2602535,2,-179.95233103,0\C,11,1.39393437
 ,6,120.91099656,1,-179.95869964,0\H,11,1.08593173,6,119.34475907,1,1.6
 1891886,0\C,12,1.39390147,6,120.91022615,1,-179.94297913,0\H,12,1.0859
 3608,6,119.34175044,1,1.63241608,0\C,15,1.39607161,11,120.24535737,6,-
 0.10315482,0\H,15,1.08627786,11,119.66861247,6,-179.51844254,0\H,17,1.
 08627825,12,119.6702798,6,-179.51590091,0\H,19,1.08597601,15,120.25988
 597,11,-179.94731581,0\\Version=ES64L-G16RevB.01\State=1-A\HF=-463.248
 1306\RMSD=8.644e-09\Dipole=0.0000006,-0.0001485,0.0000126\Quadrupole=3
 .8538185,-7.4225805,3.5687619,-1.0107501,0.2650681,1.6911451\PG=C01 [X
 (C12H10)]\\@


 ERWIN WITH HIS PSI CAN DO
 CALCULATIONS QUITE A FEW.
 BUT ONE THING HAS NOT BEEN SEEN
 JUST WHAT DOES PSI REALLY MEAN.
 -- WALTER HUCKEL, TRANS. BY FELIX BLOCH
 Job cpu time:       0 days  0 hours 13 minutes 10.9 seconds.
 Elapsed time:       0 days  0 hours  0 minutes 24.9 seconds.
 File lengths (MBytes):  RWF=     62 Int=      0 D2E=      0 Chk=      8 Scr=      1
 Normal termination of Gaussian 16 at Sat Nov  5 21:35:54 2022.
