 Entering Gaussian System, Link 0=g16
 Input=_conf016.gjf
 Output=_conf016.log
 Initial command:
 /opt/ap/G16/B01/g16/l1.exe "/tmp2/scr/Gau-13910.inp" -scrdir="/tmp2/scr/"
 Entering Link 1 = /opt/ap/G16/B01/g16/l1.exe PID=     13911.
  
 Copyright (c) 1988-2017, Gaussian, Inc.  All Rights Reserved.
  
 This is part of the Gaussian(R) 16 program.  It is based on
 the Gaussian(R) 09 system (copyright 2009, Gaussian, Inc.),
 the Gaussian(R) 03 system (copyright 2003, Gaussian, Inc.),
 the Gaussian(R) 98 system (copyright 1998, Gaussian, Inc.),
 the Gaussian(R) 94 system (copyright 1995, Gaussian, Inc.),
 the Gaussian 92(TM) system (copyright 1992, Gaussian, Inc.),
 the Gaussian 90(TM) system (copyright 1990, Gaussian, Inc.),
 the Gaussian 88(TM) system (copyright 1988, Gaussian, Inc.),
 the Gaussian 86(TM) system (copyright 1986, Carnegie Mellon
 University), and the Gaussian 82(TM) system (copyright 1983,
 Carnegie Mellon University). Gaussian is a federally registered
 trademark of Gaussian, Inc.
  
 This software contains proprietary and confidential information,
 including trade secrets, belonging to Gaussian, Inc.
  
 This software is provided under written license and may be
 used, copied, transmitted, or stored only in accord with that
 written license.
  
 The following legend is applicable only to US Government
 contracts under FAR:
  
                    RESTRICTED RIGHTS LEGEND
  
 Use, reproduction and disclosure by the US Government is
 subject to restrictions as set forth in subparagraphs (a)
 and (c) of the Commercial Computer Software - Restricted
 Rights clause in FAR 52.227-19.
  
 Gaussian, Inc.
 340 Quinnipiac St., Bldg. 40, Wallingford CT 06492
  
  
 ---------------------------------------------------------------
 Warning -- This program may not be used in any manner that
 competes with the business of Gaussian, Inc. or will provide
 assistance to any competitor of Gaussian, Inc.  The licensee
 of this program is prohibited from giving any competitor of
 Gaussian, Inc. access to this program.  By using this program,
 the user acknowledges that Gaussian, Inc. is engaged in the
 business of creating and licensing software in the field of
 computational chemistry and represents and warrants to the
 licensee that it is not a competitor of Gaussian, Inc. and that
 it will not use this program in any manner prohibited above.
 ---------------------------------------------------------------
  

 Cite this work as:
 Gaussian 16, Revision B.01,
 M. J. Frisch, G. W. Trucks, H. B. Schlegel, G. E. Scuseria, 
 M. A. Robb, J. R. Cheeseman, G. Scalmani, V. Barone, 
 G. A. Petersson, H. Nakatsuji, X. Li, M. Caricato, A. V. Marenich, 
 J. Bloino, B. G. Janesko, R. Gomperts, B. Mennucci, H. P. Hratchian, 
 J. V. Ortiz, A. F. Izmaylov, J. L. Sonnenberg, D. Williams-Young, 
 F. Ding, F. Lipparini, F. Egidi, J. Goings, B. Peng, A. Petrone, 
 T. Henderson, D. Ranasinghe, V. G. Zakrzewski, J. Gao, N. Rega, 
 G. Zheng, W. Liang, M. Hada, M. Ehara, K. Toyota, R. Fukuda, 
 J. Hasegawa, M. Ishida, T. Nakajima, Y. Honda, O. Kitao, H. Nakai, 
 T. Vreven, K. Throssell, J. A. Montgomery, Jr., J. E. Peralta, 
 F. Ogliaro, M. J. Bearpark, J. J. Heyd, E. N. Brothers, K. N. Kudin, 
 V. N. Staroverov, T. A. Keith, R. Kobayashi, J. Normand, 
 K. Raghavachari, A. P. Rendell, J. C. Burant, S. S. Iyengar, 
 J. Tomasi, M. Cossi, J. M. Millam, M. Klene, C. Adamo, R. Cammi, 
 J. W. Ochterski, R. L. Martin, K. Morokuma, O. Farkas, 
 J. B. Foresman, and D. J. Fox, Gaussian, Inc., Wallingford CT, 2016.
 
 ******************************************
 Gaussian 16:  ES64L-G16RevB.01 20-Dec-2017
                 5-Nov-2022 
 ******************************************
 %nprocshared=32
 Will use up to   32 processors via shared memory.
 %mem=120GB
 %chk=_conf016.chk
 ----------------------------------------
 #P wB97XD/6-311++G(d,p) scf=maxcycle=512
 ----------------------------------------
 1/38=1,172=1/1;
 2/12=2,17=6,18=5,40=1/2;
 3/5=4,6=6,7=1111,11=2,25=1,30=1,74=-58/1,2,3;
 4//1;
 5/5=2,7=512,38=5/2;
 6/7=2,8=2,9=2,10=2,28=1/1;
 99/5=1,9=1/99;
 Leave Link    1 at Sat Nov  5 21:35:04 2022, MaxMem= 16106127360 cpu:               1.9 elap:               0.1
 (Enter /opt/ap/G16/B01/g16/l101.exe)
 ----------------------------
 _conf016.gjf nmol_natom 1_22
 ----------------------------
 Symbolic Z-matrix:
 Charge =  0 Multiplicity = 1
 C
 C                    1     1.40492 
 C                    1     1.40495  2     118.20504 
 C                    2     1.39394  1     120.91089  3     0.05366  0
 H                    2     1.08593  1     119.34521  3    -178.36243  0
 C                    1     1.48449  2     120.90144  4    -179.96388  0
 C                    3     1.3939   1     120.91051  2     0.03588  0
 H                    3     1.08594  1     119.3416  2    -178.38282  0
 C                    4     1.39607  2     120.24556  1    -0.09283  0
 H                    4     1.08628  2     119.66792  1    -179.51486  0
 C                    6     1.40492  1     120.90157  2    -10.      0
 C                    6     1.40495  1     120.89325  2     170.     0
 H                    7     1.08628  3     119.67027  1    -179.51258  0
 H                    9     1.08598  4     120.26025  2    -179.95233  0
 C                    11    1.39393  6     120.911  1    -179.9587  0
 H                    11    1.08593  6     119.34476  1     1.61892  0
 C                    12    1.3939   6     120.91023  1    -179.94298  0
 H                    12    1.08594  6     119.34175  1     1.63242  0
 C                    15    1.39607  11    120.24536  6    -0.10315  0
 H                    15    1.08628  11    119.66861  6    -179.51844  0
 H                    17    1.08628  12    119.67028  6    -179.5159  0
 H                    19    1.08598  15    120.25989  11   -179.94732  0
 
 ITRead=  0  0  0  0  0  0  0  0  0  0  0  0  0  0  0  0  0  0  0  0
 ITRead=  0  0
 MicOpt= -1 -1 -1 -1 -1 -1 -1 -1 -1 -1 -1 -1 -1 -1 -1 -1 -1 -1 -1 -1
 MicOpt= -1 -1
 NAtoms=     22 NQM=       22 NQMF=       0 NMMI=      0 NMMIF=      0
                NMic=       0 NMicF=      0.
                    Isotopes and Nuclear Properties:
 (Nuclear quadrupole moments (NQMom) in fm**2, nuclear magnetic moments (NMagM)
  in nuclear magnetons)

  Atom         1           2           3           4           5           6           7           8           9          10
 IAtWgt=          12          12          12          12           1          12          12           1          12           1
 AtmWgt=  12.0000000  12.0000000  12.0000000  12.0000000   1.0078250  12.0000000  12.0000000   1.0078250  12.0000000   1.0078250
 NucSpn=           0           0           0           0           1           0           0           1           0           1
 AtZEff=  -0.0000000  -0.0000000  -0.0000000  -0.0000000  -0.0000000  -0.0000000  -0.0000000  -0.0000000  -0.0000000  -0.0000000
 NQMom=    0.0000000   0.0000000   0.0000000   0.0000000   0.0000000   0.0000000   0.0000000   0.0000000   0.0000000   0.0000000
 NMagM=    0.0000000   0.0000000   0.0000000   0.0000000   2.7928460   0.0000000   0.0000000   2.7928460   0.0000000   2.7928460
 AtZNuc=   6.0000000   6.0000000   6.0000000   6.0000000   1.0000000   6.0000000   6.0000000   1.0000000   6.0000000   1.0000000

  Atom        11          12          13          14          15          16          17          18          19          20
 IAtWgt=          12          12           1           1          12           1          12           1          12           1
 AtmWgt=  12.0000000  12.0000000   1.0078250   1.0078250  12.0000000   1.0078250  12.0000000   1.0078250  12.0000000   1.0078250
 NucSpn=           0           0           1           1           0           1           0           1           0           1
 AtZEff=  -0.0000000  -0.0000000  -0.0000000  -0.0000000  -0.0000000  -0.0000000  -0.0000000  -0.0000000  -0.0000000  -0.0000000
 NQMom=    0.0000000   0.0000000   0.0000000   0.0000000   0.0000000   0.0000000   0.0000000   0.0000000   0.0000000   0.0000000
 NMagM=    0.0000000   0.0000000   2.7928460   2.7928460   0.0000000   2.7928460   0.0000000   2.7928460   0.0000000   2.7928460
 AtZNuc=   6.0000000   6.0000000   1.0000000   1.0000000   6.0000000   1.0000000   6.0000000   1.0000000   6.0000000   1.0000000

  Atom        21          22
 IAtWgt=           1           1
 AtmWgt=   1.0078250   1.0078250
 NucSpn=           1           1
 AtZEff=  -0.0000000  -0.0000000
 NQMom=    0.0000000   0.0000000
 NMagM=    2.7928460   2.7928460
 AtZNuc=   1.0000000   1.0000000
 Leave Link  101 at Sat Nov  5 21:35:04 2022, MaxMem= 16106127360 cpu:               6.1 elap:               0.2
 (Enter /opt/ap/G16/B01/g16/l202.exe)
                          Input orientation:                          
 ---------------------------------------------------------------------
 Center     Atomic      Atomic             Coordinates (Angstroms)
 Number     Number       Type             X           Y           Z
 ---------------------------------------------------------------------
      1          6           0        0.000000    0.000000    0.000000
      2          6           0        0.000000    0.000000    1.404919
      3          6           0        1.238131    0.000000   -0.664020
      4          6           0        1.195952    0.001120    2.120990
      5          1           0       -0.946201   -0.027051    1.937101
      6          6           0       -1.273772   -0.000390   -0.762381
      7          6           0        2.434381   -0.000749    0.051479
      8          1           0        1.259850    0.026715   -1.749411
      9          6           0        2.418826    0.000311    1.447501
     10          1           0        1.172413   -0.006894    3.206985
     11          6           0       -2.502499   -0.210098   -0.114264
     12          6           0       -1.283042    0.208962   -2.151618
     13          1           0        3.380326    0.007295   -0.482493
     14          1           0        3.350700    0.000403    2.005133
     15          6           0       -3.698605   -0.211353   -0.830071
     16          1           0       -2.519418   -0.347443    0.962814
     17          6           0       -2.478979    0.209840   -2.867645
     18          1           0       -0.341716    0.346351   -2.675342
     19          6           0       -3.692439   -0.000675   -2.210141
     20          1           0       -4.637901   -0.367721   -0.307317
     21          1           0       -2.462042    0.365888   -3.942523
     22          1           0       -4.624232   -0.000755   -2.767910
 ---------------------------------------------------------------------
                    Distance matrix (angstroms):
                    1          2          3          4          5
     1  C    0.000000
     2  C    1.404919   0.000000
     3  C    1.404953   2.411116   0.000000
     4  C    2.434934   1.393937   2.785330   0.000000
     5  H    2.156012   1.085931   3.396745   2.150216   0.000000
     6  C    1.484493   2.513898   2.513829   3.796494   2.719415
     7  C    2.434925   2.785320   1.393898   2.411760   3.870994
     8  H    2.156008   3.396723   1.085936   3.871013   4.296501
     9  C    2.818861   2.419201   2.419207   1.396070   3.400568
    10  H    3.414579   2.149893   3.871569   1.086279   2.470128
    11  C    2.513901   2.935056   3.786646   4.326605   2.581408
    12  C    2.513826   3.786662   2.934778   4.944066   4.109353
    13  H    3.414594   3.871560   2.149884   3.398478   4.957262
    14  H    3.904837   3.404035   3.404016   2.157861   4.297527
    15  C    3.796494   4.326607   4.944048   5.719318   3.907293
    16  H    2.719411   2.581403   4.109317   3.907281   1.878004
    17  C    3.796414   4.944105   4.326304   6.199610   5.048873
    18  H    2.719225   4.109168   2.580948   5.048605   4.666848
    19  C    4.303351   5.167472   5.167302   6.531085   4.974147
    20  H    4.662595   4.957529   5.898323   6.329815   4.333834
    21  H    4.662511   5.898361   4.957190   7.090851   6.084584
    22  H    5.389327   6.228645   6.228455   7.601045   5.972080
                    6          7          8          9         10
     6  C    0.000000
     7  C    3.796415   0.000000
     8  H    2.719228   2.150228   0.000000
     9  C    4.303354   1.396108   3.400612   0.000000
    10  H    4.662588   3.398502   4.957280   2.156243   0.000000
    11  C    1.404920   4.944095   4.109142   5.167477   4.957515
    12  C    1.404953   4.326297   2.580946   5.167302   5.898345
    13  H    4.662512   1.086279   2.470197   2.156248   4.299689
    14  H    5.389330   2.157871   4.297551   1.085976   2.487858
    15  C    2.434934   6.199597   5.048578   6.531087   6.329806
    16  H    2.156010   5.048847   4.666800   4.974144   4.333808
    17  C    2.434925   5.718980   3.906766   6.530917   7.090893
    18  H    2.156010   3.906757   1.877373   4.973748   6.084336
    19  C    2.818858   6.530915   4.973750   7.122212   7.280939
    20  H    3.414583   7.090880   6.084298   7.280950   6.800019
    21  H    3.414594   6.329410   4.333273   7.280719   8.028928
    22  H    3.904834   7.600853   5.971642   8.208188   8.324692
                   11         12         13         14         15
    11  C    0.000000
    12  C    2.411119   0.000000
    13  H    5.898345   4.957181   0.000000
    14  H    6.228651   6.228454   2.487812   0.000000
    15  C    1.393934   2.785336   7.090831   7.601048   0.000000
    16  H    1.085932   3.396748   6.084548   5.972078   2.150219
    17  C    2.785320   1.393901   6.329409   7.600854   2.411763
    18  H    3.396725   1.085936   4.333260   5.971639   3.871016
    19  C    2.419198   2.419208   7.280716   8.208188   1.396072
    20  H    2.149897   3.871575   8.028903   8.324704   1.086278
    21  H    3.871558   2.149886   6.799533   8.324432   3.398478
    22  H    3.404029   3.404019   8.324430   9.294164   2.157859
                   16         17         18         19         20
    16  H    0.000000
    17  C    3.870997   0.000000
    18  H    4.296501   2.150234   0.000000
    19  C    3.400569   1.396107   3.400615   0.000000
    20  H    2.470145   3.398500   4.957282   2.156238   0.000000
    21  H    4.957264   1.086278   2.470204   2.156245   4.299683
    22  H    4.297527   2.157871   4.297556   1.085976   2.487844
                   21         22
    21  H    0.000000
    22  H    2.487812   0.000000
 Stoichiometry    C12H10
 Framework group  C1[X(C12H10)]
 Deg. of freedom    60
 Full point group                 C1      NOp   1
 Largest Abelian subgroup         C1      NOp   1
 Largest concise Abelian subgroup C1      NOp   1
                         Standard orientation:                         
 ---------------------------------------------------------------------
 Center     Atomic      Atomic             Coordinates (Angstroms)
 Number     Number       Type             X           Y           Z
 ---------------------------------------------------------------------
      1          6           0        0.742246    0.000089   -0.000151
      2          6           0        1.463753    1.200999   -0.105221
      3          6           0        1.463618   -1.200921    0.105157
      4          6           0        2.857690    1.201158   -0.106137
      5          1           0        0.925163    2.142328   -0.160601
      6          6           0       -0.742247    0.000094    0.000003
      7          6           0        2.857516   -1.201240    0.106159
      8          1           0        0.924847   -2.142143    0.160693
      9          6           0        3.561107   -0.000070    0.000000
     10          1           0        3.395212    2.142196   -0.180430
     11          6           0       -1.463750    1.200996    0.105214
     12          6           0       -1.463621   -1.200935   -0.105071
     13          1           0        3.394964   -2.142309    0.180596
     14          1           0        4.647083   -0.000155    0.000089
     15          6           0       -2.857684    1.201154    0.106238
     16          1           0       -0.925147    2.142311    0.160724
     17          6           0       -2.857522   -1.201239   -0.106148
     18          1           0       -0.924854   -2.142168   -0.160460
     19          6           0       -3.561105   -0.000052   -0.000148
     20          1           0       -3.395211    2.142175    0.180698
     21          1           0       -3.394977   -2.142314   -0.180453
     22          1           0       -4.647081   -0.000127   -0.000234
 ---------------------------------------------------------------------
 Rotational constants (GHZ):           2.8585222           0.5571202           0.4673766
 Leave Link  202 at Sat Nov  5 21:35:04 2022, MaxMem= 16106127360 cpu:               0.4 elap:               0.0
 (Enter /opt/ap/G16/B01/g16/l301.exe)
 Standard basis: 6-311++G(d,p) (5D, 7F)
 Ernie: Thresh=  0.10000D-02 Tol=  0.10000D-05 Strict=F.
 There are   346 symmetry adapted cartesian basis functions of A   symmetry.
 There are   334 symmetry adapted basis functions of A   symmetry.
   334 basis functions,   522 primitive gaussians,   346 cartesian basis functions
    41 alpha electrons       41 beta electrons
       nuclear repulsion energy       599.6990046430 Hartrees.
 IExCor= 4639 DFT=T Ex+Corr=wB97XD ExCW=0 ScaHFX=  1.000000
 ScaDFX=  1.000000  1.000000  1.000000  1.000000 ScalE2=  1.000000  1.000000
 IRadAn=      5 IRanWt=     -1 IRanGd=            0 ICorTp=0 IEmpDi=121
 HFx  wShort=  0.000000 wLong=  0.200000 cFull=  0.222036 cShort=  0.000000 cLong=  0.777964
 DFx  wShort=  0.000000 wLong=  0.200000 cFull=  0.000000 cShort=  0.000000 cLong=  1.000000
 NAtoms=   22 NActive=   22 NUniq=   22 SFac= 1.00D+00 NAtFMM=   60 NAOKFM=F Big=F
 Integral buffers will be    131072 words long.
 Raffenetti 2 integral format.
 Two-electron integral symmetry is turned on.
 R6Disp:  Grimme-D2 Dispersion energy=       -0.0117919214 Hartrees.
 Nuclear repulsion after empirical dispersion term =      599.6872127216 Hartrees.
 Leave Link  301 at Sat Nov  5 21:35:04 2022, MaxMem= 16106127360 cpu:               1.2 elap:               0.0
 (Enter /opt/ap/G16/B01/g16/l302.exe)
 NPDir=0 NMtPBC=     1 NCelOv=     1 NCel=       1 NClECP=     1 NCelD=      1
         NCelK=      1 NCelE2=     1 NClLst=     1 CellRange=     0.0.
 One-electron integrals computed using PRISM.
 One-electron integral symmetry used in STVInt
 NBasis=   334 RedAO= T EigKep=  1.05D-06  NBF=   334
 NBsUse=   331 1.00D-06 EigRej=  5.46D-07 NBFU=   331
 Precomputing XC quadrature grid using
 IXCGrd= 4 IRadAn=           5 IRanWt=          -1 IRanGd=           0 AccXCQ= 0.00D+00.
 Generated NRdTot=       0 NPtTot=           0 NUsed=           0 NTot=          32
 NSgBfM=   346   346   346   346   346 MxSgAt=    22 MxSgA2=    22.
 Leave Link  302 at Sat Nov  5 21:35:04 2022, MaxMem= 16106127360 cpu:               7.9 elap:               0.3
 (Enter /opt/ap/G16/B01/g16/l303.exe)
 DipDrv:  MaxL=1.
 Leave Link  303 at Sat Nov  5 21:35:05 2022, MaxMem= 16106127360 cpu:               2.3 elap:               0.1
 (Enter /opt/ap/G16/B01/g16/l401.exe)
 ExpMin= 3.60D-02 ExpMax= 4.56D+03 ExpMxC= 6.82D+02 IAcc=3 IRadAn=         5 AccDes= 0.00D+00
 Harris functional with IExCor= 4639 and IRadAn=       5 diagonalized for initial guess.
 HarFok:  IExCor= 4639 AccDes= 0.00D+00 IRadAn=         5 IDoV= 1 UseB2=F ITyADJ=14
 ICtDFT=  3500011 ScaDFX=  1.000000  1.000000  1.000000  1.000000
 FoFCou: FMM=F IPFlag=           0 FMFlag=      100000 FMFlg1=           0
         NFxFlg=           0 DoJE=T BraDBF=F KetDBF=T FulRan=T
         wScrn=  0.000000 ICntrl=       500 IOpCl=  0 I1Cent=   200000004 NGrid=           0
         NMat0=    1 NMatS0=      1 NMatT0=    0 NMatD0=    1 NMtDS0=    0 NMtDT0=    0
 Petite list used in FoFCou.
 Harris En= -441.932926693556    
 JPrj=0 DoOrth=F DoCkMO=F.
 Leave Link  401 at Sat Nov  5 21:35:05 2022, MaxMem= 16106127360 cpu:              22.2 elap:               0.7
 (Enter /opt/ap/G16/B01/g16/l502.exe)
 Integral symmetry usage will be decided dynamically.
 Closed shell SCF:
 Using DIIS extrapolation, IDIIS=  1040.
 NGot= 16106127360 LenX= 16105873520 LenY= 16105753363
 Requested convergence on RMS density matrix=1.00D-08 within 512 cycles.
 Requested convergence on MAX density matrix=1.00D-06.
 Requested convergence on             energy=1.00D-06.
 No special actions if energy rises.
 Fock matrices will be formed incrementally for  20 cycles.

 Cycle   1  Pass 1  IDiag  1:
 FoFJK:  IHMeth= 1 ICntrl=       0 DoSepK=T KAlg= 0 I1Cent=           0 FoldK=F
 IRaf=         1 NMat=       1 IRICut=       1 DoRegI=T DoRafI=F ISym2E= 0 IDoP0=0 IntGTp=1.
 FoFCou: FMM=F IPFlag=           0 FMFlag=      100000 FMFlg1=           0
         NFxFlg=           0 DoJE=T BraDBF=F KetDBF=F FulRan=T
         wScrn=  0.000000 ICntrl=       500 IOpCl=  0 I1Cent=           0 NGrid=           0
         NMat0=    1 NMatS0=      1 NMatT0=    0 NMatD0=    1 NMtDS0=    0 NMtDT0=    0
 Symmetry not used in FoFCou.
 E= -463.147554218965    
 DIIS: error= 6.84D-02 at cycle   1 NSaved=   1.
 NSaved= 1 IEnMin= 1 EnMin= -463.147554218965     IErMin= 1 ErrMin= 6.84D-02
 ErrMax= 6.84D-02  0.00D+00 EMaxC= 1.00D-01 BMatC= 9.53D-01 BMatP= 9.53D-01
 IDIUse=3 WtCom= 3.16D-01 WtEn= 6.84D-01
 Coeff-Com:  0.100D+01
 Coeff-En:   0.100D+01
 Coeff:      0.100D+01
 Gap=     0.307 Goal=   None    Shift=    0.000
 GapD=    0.307 DampG=1.000 DampE=0.500 DampFc=0.5000 IDamp=-1.
 Damping current iteration by 5.00D-01
 RMSDP=2.91D-02 MaxDP=1.42D+00              OVMax= 4.64D-02

 Cycle   2  Pass 1  IDiag  1:
 RMSU=  6.46D-03    CP:  8.24D-01
 E= -463.197079887238     Delta-E=       -0.049525668273 Rises=F Damp=T
 DIIS: error= 3.32D-02 at cycle   2 NSaved=   2.
 NSaved= 2 IEnMin= 2 EnMin= -463.197079887238     IErMin= 2 ErrMin= 3.32D-02
 ErrMax= 3.32D-02  0.00D+00 EMaxC= 1.00D-01 BMatC= 2.16D-01 BMatP= 9.53D-01
 IDIUse=3 WtCom= 6.68D-01 WtEn= 3.32D-01
 Coeff-Com: -0.883D+00 0.188D+01
 Coeff-En:   0.000D+00 0.100D+01
 Coeff:     -0.589D+00 0.159D+01
 Gap=     0.314 Goal=   None    Shift=    0.000
 RMSDP=1.78D-02 MaxDP=1.10D+00 DE=-4.95D-02 OVMax= 3.81D-02

 Cycle   3  Pass 1  IDiag  1:
 RMSU=  4.46D-03    CP:  5.92D-01  1.13D+00
 E= -463.241789466716     Delta-E=       -0.044709579478 Rises=F Damp=F
 DIIS: error= 6.56D-03 at cycle   3 NSaved=   3.
 NSaved= 3 IEnMin= 3 EnMin= -463.241789466716     IErMin= 3 ErrMin= 6.56D-03
 ErrMax= 6.56D-03  0.00D+00 EMaxC= 1.00D-01 BMatC= 4.17D-03 BMatP= 2.16D-01
 IDIUse=3 WtCom= 9.34D-01 WtEn= 6.56D-02
 Coeff-Com: -0.356D+00 0.758D+00 0.597D+00
 Coeff-En:   0.000D+00 0.000D+00 0.100D+01
 Coeff:     -0.332D+00 0.709D+00 0.624D+00
 Gap=     0.313 Goal=   None    Shift=    0.000
 RMSDP=1.83D-03 MaxDP=9.27D-02 DE=-4.47D-02 OVMax= 2.10D-02

 Cycle   4  Pass 1  IDiag  1:
 RMSU=  7.94D-04    CP:  5.90D-01  1.33D+00  7.69D-01
 E= -463.245437989823     Delta-E=       -0.003648523107 Rises=F Damp=F
 DIIS: error= 2.08D-03 at cycle   4 NSaved=   4.
 NSaved= 4 IEnMin= 4 EnMin= -463.245437989823     IErMin= 4 ErrMin= 2.08D-03
 ErrMax= 2.08D-03  0.00D+00 EMaxC= 1.00D-01 BMatC= 3.01D-04 BMatP= 4.17D-03
 IDIUse=3 WtCom= 9.79D-01 WtEn= 2.08D-02
 Coeff-Com: -0.127D+00 0.271D+00 0.298D+00 0.557D+00
 Coeff-En:   0.000D+00 0.000D+00 0.000D+00 0.100D+01
 Coeff:     -0.124D+00 0.266D+00 0.292D+00 0.566D+00
 Gap=     0.313 Goal=   None    Shift=    0.000
 RMSDP=4.35D-04 MaxDP=1.20D-02 DE=-3.65D-03 OVMax= 5.94D-03

 Cycle   5  Pass 1  IDiag  1:
 RMSU=  2.63D-04    CP:  5.88D-01  1.36D+00  7.84D-01  7.62D-01
 E= -463.245755080171     Delta-E=       -0.000317090348 Rises=F Damp=F
 DIIS: error= 4.70D-04 at cycle   5 NSaved=   5.
 NSaved= 5 IEnMin= 5 EnMin= -463.245755080171     IErMin= 5 ErrMin= 4.70D-04
 ErrMax= 4.70D-04  0.00D+00 EMaxC= 1.00D-01 BMatC= 9.77D-06 BMatP= 3.01D-04
 IDIUse=3 WtCom= 9.95D-01 WtEn= 4.70D-03
 Coeff-Com:  0.278D-01-0.594D-01-0.340D-01 0.127D+00 0.939D+00
 Coeff-En:   0.000D+00 0.000D+00 0.000D+00 0.000D+00 0.100D+01
 Coeff:      0.276D-01-0.592D-01-0.339D-01 0.126D+00 0.939D+00
 Gap=     0.313 Goal=   None    Shift=    0.000
 RMSDP=1.22D-04 MaxDP=4.22D-03 DE=-3.17D-04 OVMax= 1.81D-03

 Cycle   6  Pass 1  IDiag  1:
 RMSU=  5.81D-05    CP:  5.87D-01  1.36D+00  7.96D-01  8.41D-01  1.03D+00
 E= -463.245768648333     Delta-E=       -0.000013568163 Rises=F Damp=F
 DIIS: error= 6.20D-05 at cycle   6 NSaved=   6.
 NSaved= 6 IEnMin= 6 EnMin= -463.245768648333     IErMin= 6 ErrMin= 6.20D-05
 ErrMax= 6.20D-05  0.00D+00 EMaxC= 1.00D-01 BMatC= 4.57D-07 BMatP= 9.77D-06
 IDIUse=1 WtCom= 1.00D+00 WtEn= 0.00D+00
 Coeff-Com:  0.117D-01-0.250D-01-0.168D-01 0.316D-01 0.318D+00 0.681D+00
 Coeff:      0.117D-01-0.250D-01-0.168D-01 0.316D-01 0.318D+00 0.681D+00
 Gap=     0.313 Goal=   None    Shift=    0.000
 RMSDP=2.03D-05 MaxDP=7.50D-04 DE=-1.36D-05 OVMax= 2.80D-04

 Cycle   7  Pass 1  IDiag  1:
 RMSU=  1.41D-05    CP:  5.87D-01  1.36D+00  7.98D-01  8.46D-01  1.05D+00
                    CP:  1.14D+00
 E= -463.245769217238     Delta-E=       -0.000000568905 Rises=F Damp=F
 DIIS: error= 2.88D-05 at cycle   7 NSaved=   7.
 NSaved= 7 IEnMin= 7 EnMin= -463.245769217238     IErMin= 7 ErrMin= 2.88D-05
 ErrMax= 2.88D-05  0.00D+00 EMaxC= 1.00D-01 BMatC= 5.92D-08 BMatP= 4.57D-07
 IDIUse=1 WtCom= 1.00D+00 WtEn= 0.00D+00
 Coeff-Com: -0.249D-02 0.535D-02 0.234D-02-0.195D-01-0.115D+00 0.186D+00
 Coeff-Com:  0.944D+00
 Coeff:     -0.249D-02 0.535D-02 0.234D-02-0.195D-01-0.115D+00 0.186D+00
 Coeff:      0.944D+00
 Gap=     0.313 Goal=   None    Shift=    0.000
 RMSDP=1.74D-05 MaxDP=1.07D-03 DE=-5.69D-07 OVMax= 2.14D-04

 Cycle   8  Pass 1  IDiag  1:
 RMSU=  4.11D-06    CP:  5.87D-01  1.36D+00  7.99D-01  8.50D-01  1.07D+00
                    CP:  1.29D+00  1.24D+00
 E= -463.245769331082     Delta-E=       -0.000000113844 Rises=F Damp=F
 DIIS: error= 5.06D-06 at cycle   8 NSaved=   8.
 NSaved= 8 IEnMin= 8 EnMin= -463.245769331082     IErMin= 8 ErrMin= 5.06D-06
 ErrMax= 5.06D-06  0.00D+00 EMaxC= 1.00D-01 BMatC= 1.12D-09 BMatP= 5.92D-08
 IDIUse=1 WtCom= 1.00D+00 WtEn= 0.00D+00
 Coeff-Com: -0.312D-03 0.665D-03 0.446D-03-0.906D-03-0.595D-02-0.173D-01
 Coeff-Com: -0.422D-01 0.107D+01
 Coeff:     -0.312D-03 0.665D-03 0.446D-03-0.906D-03-0.595D-02-0.173D-01
 Coeff:     -0.422D-01 0.107D+01
 Gap=     0.313 Goal=   None    Shift=    0.000
 RMSDP=2.24D-06 MaxDP=1.20D-04 DE=-1.14D-07 OVMax= 4.06D-05

 Cycle   9  Pass 1  IDiag  1:
 RMSU=  6.91D-07    CP:  5.87D-01  1.36D+00  7.99D-01  8.49D-01  1.08D+00
                    CP:  1.31D+00  1.28D+00  1.21D+00
 E= -463.245769334715     Delta-E=       -0.000000003633 Rises=F Damp=F
 DIIS: error= 2.49D-06 at cycle   9 NSaved=   9.
 NSaved= 9 IEnMin= 9 EnMin= -463.245769334715     IErMin= 9 ErrMin= 2.49D-06
 ErrMax= 2.49D-06  0.00D+00 EMaxC= 1.00D-01 BMatC= 3.16D-10 BMatP= 1.12D-09
 IDIUse=1 WtCom= 1.00D+00 WtEn= 0.00D+00
 Coeff-Com:  0.173D-03-0.376D-03-0.990D-04 0.202D-02 0.117D-01-0.268D-01
 Coeff-Com: -0.131D+00 0.402D+00 0.743D+00
 Coeff:      0.173D-03-0.376D-03-0.990D-04 0.202D-02 0.117D-01-0.268D-01
 Coeff:     -0.131D+00 0.402D+00 0.743D+00
 Gap=     0.313 Goal=   None    Shift=    0.000
 RMSDP=3.58D-07 MaxDP=1.05D-05 DE=-3.63D-09 OVMax= 1.56D-05

 Cycle  10  Pass 1  IDiag  1:
 RMSU=  1.76D-07    CP:  5.87D-01  1.36D+00  7.99D-01  8.49D-01  1.07D+00
                    CP:  1.31D+00  1.28D+00  1.25D+00  1.25D+00
 E= -463.245769335237     Delta-E=       -0.000000000522 Rises=F Damp=F
 DIIS: error= 3.78D-07 at cycle  10 NSaved=  10.
 NSaved=10 IEnMin=10 EnMin= -463.245769335237     IErMin=10 ErrMin= 3.78D-07
 ErrMax= 3.78D-07  0.00D+00 EMaxC= 1.00D-01 BMatC= 1.90D-11 BMatP= 3.16D-10
 IDIUse=1 WtCom= 1.00D+00 WtEn= 0.00D+00
 Coeff-Com:  0.519D-04-0.112D-03-0.428D-04 0.448D-03 0.232D-02-0.286D-02
 Coeff-Com: -0.204D-01-0.301D-01 0.166D+00 0.885D+00
 Coeff:      0.519D-04-0.112D-03-0.428D-04 0.448D-03 0.232D-02-0.286D-02
 Coeff:     -0.204D-01-0.301D-01 0.166D+00 0.885D+00
 Gap=     0.313 Goal=   None    Shift=    0.000
 RMSDP=1.80D-07 MaxDP=5.14D-06 DE=-5.22D-10 OVMax= 3.32D-06

 Cycle  11  Pass 1  IDiag  1:
 RMSU=  7.03D-08    CP:  5.87D-01  1.36D+00  7.99D-01  8.49D-01  1.07D+00
                    CP:  1.31D+00  1.27D+00  1.25D+00  1.34D+00  1.27D+00
 E= -463.245769335263     Delta-E=       -0.000000000026 Rises=F Damp=F
 DIIS: error= 1.01D-07 at cycle  11 NSaved=  11.
 NSaved=11 IEnMin=11 EnMin= -463.245769335263     IErMin=11 ErrMin= 1.01D-07
 ErrMax= 1.01D-07  0.00D+00 EMaxC= 1.00D-01 BMatC= 7.31D-13 BMatP= 1.90D-11
 IDIUse=1 WtCom= 1.00D+00 WtEn= 0.00D+00
 Coeff-Com: -0.128D-04 0.280D-04 0.107D-04-0.152D-03-0.909D-03 0.225D-02
 Coeff-Com:  0.915D-02-0.265D-01-0.325D-01-0.909D-01 0.114D+01
 Coeff:     -0.128D-04 0.280D-04 0.107D-04-0.152D-03-0.909D-03 0.225D-02
 Coeff:      0.915D-02-0.265D-01-0.325D-01-0.909D-01 0.114D+01
 Gap=     0.313 Goal=   None    Shift=    0.000
 RMSDP=8.83D-08 MaxDP=4.31D-06 DE=-2.59D-11 OVMax= 9.38D-07

 Cycle  12  Pass 1  IDiag  1:
 RMSU=  2.38D-08    CP:  5.87D-01  1.36D+00  7.99D-01  8.49D-01  1.07D+00
                    CP:  1.31D+00  1.27D+00  1.24D+00  1.35D+00  1.39D+00
                    CP:  1.23D+00
 E= -463.245769335271     Delta-E=       -0.000000000008 Rises=F Damp=F
 DIIS: error= 2.44D-08 at cycle  12 NSaved=  12.
 NSaved=12 IEnMin=12 EnMin= -463.245769335271     IErMin=12 ErrMin= 2.44D-08
 ErrMax= 2.44D-08  0.00D+00 EMaxC= 1.00D-01 BMatC= 7.51D-14 BMatP= 7.31D-13
 IDIUse=1 WtCom= 1.00D+00 WtEn= 0.00D+00
 Coeff-Com: -0.125D-05 0.264D-05 0.214D-05-0.584D-05-0.210D-04-0.119D-04
 Coeff-Com: -0.189D-03 0.416D-02 0.880D-03-0.611D-01-0.133D+00 0.119D+01
 Coeff:     -0.125D-05 0.264D-05 0.214D-05-0.584D-05-0.210D-04-0.119D-04
 Coeff:     -0.189D-03 0.416D-02 0.880D-03-0.611D-01-0.133D+00 0.119D+01
 Gap=     0.313 Goal=   None    Shift=    0.000
 RMSDP=1.48D-08 MaxDP=4.66D-07 DE=-8.19D-12 OVMax= 2.56D-07

 Cycle  13  Pass 1  IDiag  1:
 RMSU=  3.72D-09    CP:  5.87D-01  1.36D+00  7.99D-01  8.49D-01  1.07D+00
                    CP:  1.31D+00  1.27D+00  1.24D+00  1.34D+00  1.41D+00
                    CP:  1.31D+00  1.25D+00
 E= -463.245769335271     Delta-E=       -0.000000000000 Rises=F Damp=F
 DIIS: error= 6.06D-09 at cycle  13 NSaved=  13.
 NSaved=13 IEnMin=13 EnMin= -463.245769335271     IErMin=13 ErrMin= 6.06D-09
 ErrMax= 6.06D-09  0.00D+00 EMaxC= 1.00D-01 BMatC= 4.36D-15 BMatP= 7.51D-14
 IDIUse=1 WtCom= 1.00D+00 WtEn= 0.00D+00
 Coeff-Com:  0.482D-06-0.106D-05-0.273D-06 0.680D-05 0.444D-04-0.108D-03
 Coeff-Com: -0.534D-03 0.192D-02 0.303D-02-0.594D-02-0.833D-01 0.178D+00
 Coeff-Com:  0.907D+00
 Coeff:      0.482D-06-0.106D-05-0.273D-06 0.680D-05 0.444D-04-0.108D-03
 Coeff:     -0.534D-03 0.192D-02 0.303D-02-0.594D-02-0.833D-01 0.178D+00
 Coeff:      0.907D+00
 Gap=     0.313 Goal=   None    Shift=    0.000
 RMSDP=4.63D-09 MaxDP=3.56D-07 DE=-2.27D-13 OVMax= 5.66D-08

 SCF Done:  E(RwB97XD) =  -463.245769335     A.U. after   13 cycles
            NFock= 13  Conv=0.46D-08     -V/T= 2.0048
 KE= 4.610310076785D+02 PE=-2.273577453269D+03 EE= 7.496134635341D+02
 Leave Link  502 at Sat Nov  5 21:35:30 2022, MaxMem= 16106127360 cpu:             792.5 elap:              25.0
 (Enter /opt/ap/G16/B01/g16/l601.exe)
 Copying SCF densities to generalized density rwf, IOpCl= 0 IROHF=0.

 **********************************************************************

            Population analysis using the SCF Density.

 **********************************************************************

 Orbital symmetries:
       Occupied  (A) (A) (A) (A) (A) (A) (A) (A) (A) (A) (A) (A)
                 (A) (A) (A) (A) (A) (A) (A) (A) (A) (A) (A) (A)
                 (A) (A) (A) (A) (A) (A) (A) (A) (A) (A) (A) (A)
                 (A) (A) (A) (A) (A)
       Virtual   (A) (A) (A) (A) (A) (A) (A) (A) (A) (A) (A) (A)
                 (A) (A) (A) (A) (A) (A) (A) (A) (A) (A) (A) (A)
                 (A) (A) (A) (A) (A) (A) (A) (A) (A) (A) (A) (A)
                 (A) (A) (A) (A) (A) (A) (A) (A) (A) (A) (A) (A)
                 (A) (A) (A) (A) (A) (A) (A) (A) (A) (A) (A) (A)
                 (A) (A) (A) (A) (A) (A) (A) (A) (A) (A) (A) (A)
                 (A) (A) (A) (A) (A) (A) (A) (A) (A) (A) (A) (A)
                 (A) (A) (A) (A) (A) (A) (A) (A) (A) (A) (A) (A)
                 (A) (A) (A) (A) (A) (A) (A) (A) (A) (A) (A) (A)
                 (A) (A) (A) (A) (A) (A) (A) (A) (A) (A) (A) (A)
                 (A) (A) (A) (A) (A) (A) (A) (A) (A) (A) (A) (A)
                 (A) (A) (A) (A) (A) (A) (A) (A) (A) (A) (A) (A)
                 (A) (A) (A) (A) (A) (A) (A) (A) (A) (A) (A) (A)
                 (A) (A) (A) (A) (A) (A) (A) (A) (A) (A) (A) (A)
                 (A) (A) (A) (A) (A) (A) (A) (A) (A) (A) (A) (A)
                 (A) (A) (A) (A) (A) (A) (A) (A) (A) (A) (A) (A)
                 (A) (A) (A) (A) (A) (A) (A) (A) (A) (A) (A) (A)
                 (A) (A) (A) (A) (A) (A) (A) (A) (A) (A) (A) (A)
                 (A) (A) (A) (A) (A) (A) (A) (A) (A) (A) (A) (A)
                 (A) (A) (A) (A) (A) (A) (A) (A) (A) (A) (A) (A)
                 (A) (A) (A) (A) (A) (A) (A) (A) (A) (A) (A) (A)
                 (A) (A) (A) (A) (A) (A) (A) (A) (A) (A) (A) (A)
                 (A) (A) (A) (A) (A) (A) (A) (A) (A) (A) (A) (A)
                 (A) (A) (A) (A) (A) (A) (A) (A) (A) (A) (A) (A)
                 (A) (A)
 The electronic state is 1-A.
 Alpha  occ. eigenvalues --  -10.30619 -10.30590 -10.29445 -10.29445 -10.29438
 Alpha  occ. eigenvalues --  -10.29437 -10.29325 -10.29324 -10.29324 -10.29323
 Alpha  occ. eigenvalues --  -10.29269 -10.29269  -0.97735  -0.95363  -0.88346
 Alpha  occ. eigenvalues --   -0.85748  -0.84632  -0.82373  -0.72506  -0.72437
 Alpha  occ. eigenvalues --   -0.68447  -0.67535  -0.63339  -0.59002  -0.57116
 Alpha  occ. eigenvalues --   -0.55927  -0.52855  -0.52274  -0.52033  -0.51254
 Alpha  occ. eigenvalues --   -0.50021  -0.48213  -0.45126  -0.44879  -0.44505
 Alpha  occ. eigenvalues --   -0.42632  -0.41338  -0.36924  -0.33889  -0.33250
 Alpha  occ. eigenvalues --   -0.29761
 Alpha virt. eigenvalues --    0.01546   0.03822   0.03866   0.04576   0.04741
 Alpha virt. eigenvalues --    0.05868   0.05888   0.06378   0.07631   0.08026
 Alpha virt. eigenvalues --    0.09038   0.09166   0.09882   0.11232   0.11916
 Alpha virt. eigenvalues --    0.12648   0.12677   0.13577   0.15174   0.15341
 Alpha virt. eigenvalues --    0.15357   0.16091   0.16116   0.16708   0.17209
 Alpha virt. eigenvalues --    0.17257   0.17472   0.18193   0.18376   0.19069
 Alpha virt. eigenvalues --    0.19290   0.19359   0.19601   0.19741   0.20329
 Alpha virt. eigenvalues --    0.20863   0.21145   0.22486   0.22486   0.23571
 Alpha virt. eigenvalues --    0.24497   0.24635   0.24867   0.25098   0.25205
 Alpha virt. eigenvalues --    0.25415   0.25651   0.26428   0.27326   0.27341
 Alpha virt. eigenvalues --    0.27367   0.28609   0.29277   0.29776   0.30304
 Alpha virt. eigenvalues --    0.30533   0.30836   0.31851   0.32868   0.33305
 Alpha virt. eigenvalues --    0.33540   0.34862   0.35250   0.36503   0.36520
 Alpha virt. eigenvalues --    0.37055   0.37092   0.38187   0.38208   0.38591
 Alpha virt. eigenvalues --    0.39778   0.41007   0.41524   0.41711   0.42384
 Alpha virt. eigenvalues --    0.43446   0.45838   0.48932   0.48996   0.50043
 Alpha virt. eigenvalues --    0.56681   0.58548   0.60368   0.60842   0.61608
 Alpha virt. eigenvalues --    0.61759   0.62320   0.62509   0.63349   0.64163
 Alpha virt. eigenvalues --    0.64331   0.64772   0.65373   0.65672   0.65779
 Alpha virt. eigenvalues --    0.66271   0.68162   0.68712   0.69080   0.69769
 Alpha virt. eigenvalues --    0.71902   0.73496   0.74285   0.74962   0.75651
 Alpha virt. eigenvalues --    0.76071   0.77608   0.78957   0.79108   0.79761
 Alpha virt. eigenvalues --    0.80307   0.83037   0.84494   0.84997   0.85665
 Alpha virt. eigenvalues --    0.86195   0.89144   0.91641   0.92289   0.93415
 Alpha virt. eigenvalues --    0.94057   0.94300   0.95241   0.95580   0.96262
 Alpha virt. eigenvalues --    0.98508   0.98725   0.99054   0.99159   1.00219
 Alpha virt. eigenvalues --    1.00957   1.01964   1.02388   1.03949   1.05917
 Alpha virt. eigenvalues --    1.08666   1.08813   1.10449   1.10772   1.11334
 Alpha virt. eigenvalues --    1.13785   1.15035   1.15762   1.17209   1.18586
 Alpha virt. eigenvalues --    1.19946   1.20214   1.23121   1.24237   1.24306
 Alpha virt. eigenvalues --    1.31997   1.39025   1.41248   1.41350   1.55184
 Alpha virt. eigenvalues --    1.56359   1.56907   1.57204   1.57659   1.60111
 Alpha virt. eigenvalues --    1.62675   1.62906   1.64459   1.65023   1.65316
 Alpha virt. eigenvalues --    1.65506   1.66791   1.67677   1.70927   1.71906
 Alpha virt. eigenvalues --    1.72235   1.74568   1.76013   1.78388   1.78401
 Alpha virt. eigenvalues --    1.80281   1.82213   1.84306   1.85005   1.86540
 Alpha virt. eigenvalues --    1.89944   1.90049   1.90614   1.92684   1.95896
 Alpha virt. eigenvalues --    1.97052   1.99169   2.00572   2.00663   2.03076
 Alpha virt. eigenvalues --    2.03923   2.04497   2.05660   2.05924   2.06567
 Alpha virt. eigenvalues --    2.07236   2.07465   2.11166   2.11351   2.12750
 Alpha virt. eigenvalues --    2.15340   2.16848   2.17572   2.19695   2.21754
 Alpha virt. eigenvalues --    2.34346   2.34680   2.37403   2.39522   2.46156
 Alpha virt. eigenvalues --    2.47751   2.50084   2.50546   2.52234   2.53419
 Alpha virt. eigenvalues --    2.56254   2.57649   2.57913   2.58614   2.67204
 Alpha virt. eigenvalues --    2.72285   2.73773   2.75835   2.77591   2.77762
 Alpha virt. eigenvalues --    2.79097   2.80533   2.81097   2.81362   2.83198
 Alpha virt. eigenvalues --    2.83282   2.83642   2.84433   2.86143   2.87025
 Alpha virt. eigenvalues --    2.87153   2.88541   2.91450   2.92036   2.93652
 Alpha virt. eigenvalues --    2.95143   2.96504   2.99028   2.99031   3.04005
 Alpha virt. eigenvalues --    3.04187   3.04841   3.07677   3.09899   3.18768
 Alpha virt. eigenvalues --    3.19504   3.21498   3.29471   3.31810   3.33553
 Alpha virt. eigenvalues --    3.44356   3.47729   3.48446   3.48713   3.58118
 Alpha virt. eigenvalues --    3.63182   3.63364   3.64082   3.67026   3.72555
 Alpha virt. eigenvalues --    3.76808   3.87232   4.08219   4.12360   4.13793
 Alpha virt. eigenvalues --    4.14483   4.23656   4.24391   4.28220   4.31582
 Alpha virt. eigenvalues --    4.65185   4.91995   4.96782  23.67642  23.84997
 Alpha virt. eigenvalues --   24.07615  24.08179  24.08998  24.10065  24.18915
 Alpha virt. eigenvalues --   24.19538  24.22137  24.22905  24.31479  24.31481
          Condensed to atoms (all electrons):
               1          2          3          4          5          6
     1  C    8.771759  -1.860767  -1.857339   0.338783  -0.089995   2.037949
     2  C   -1.860767  11.963625  -2.125736  -1.400397   0.524776  -1.100776
     3  C   -1.857339  -2.125736  11.957515  -0.124614   0.031180  -1.096392
     4  C    0.338783  -1.400397  -0.124614   7.661262  -0.044675  -0.036573
     5  H   -0.089995   0.524776   0.031180  -0.044675   0.554245  -0.051766
     6  C    2.037949  -1.100776  -1.096392  -0.036573  -0.051766   8.772163
     7  C    0.335825  -0.123387  -1.400896   0.339750   0.011147  -0.036445
     8  H   -0.089958   0.031144   0.524741   0.011133   0.003900  -0.051678
     9  C   -0.793356   0.492819   0.492537  -0.145074   0.029400  -0.288386
    10  H    0.040899  -0.046247   0.005301   0.353441  -0.015341   0.014369
    11  C   -1.096954   3.706271  -2.586422  -0.583587   0.068242  -1.860770
    12  C   -1.097768  -2.587563   3.704561  -0.234498  -0.029922  -1.857142
    13  H    0.040876   0.005309  -0.046166  -0.004582  -0.001418   0.014362
    14  H    0.022947  -0.033317  -0.033277   0.003924   0.001352  -0.004616
    15  C   -0.037201  -0.585256  -0.233416   0.111675  -0.073223   0.337991
    16  H   -0.051719   0.068341  -0.029965  -0.073227   0.009520  -0.089999
    17  C   -0.037190  -0.234652  -0.584842   0.097772  -0.015392   0.337130
    18  H   -0.051755  -0.029897   0.068283  -0.015407  -0.003777  -0.090115
    19  C   -0.287910   0.165672   0.164963  -0.062193   0.002710  -0.793147
    20  H    0.014371  -0.002799   0.002853   0.003173   0.000983   0.040878
    21  H    0.014366   0.002830  -0.002750   0.001167   0.000435   0.040914
    22  H   -0.004613   0.001052   0.001034  -0.000914  -0.000448   0.022933
               7          8          9         10         11         12
     1  C    0.335825  -0.089958  -0.793356   0.040899  -1.096954  -1.097768
     2  C   -0.123387   0.031144   0.492819  -0.046247   3.706271  -2.587563
     3  C   -1.400896   0.524741   0.492537   0.005301  -2.586422   3.704561
     4  C    0.339750   0.011133  -0.145074   0.353441  -0.583587  -0.234498
     5  H    0.011147   0.003900   0.029400  -0.015341   0.068242  -0.029922
     6  C   -0.036445  -0.051678  -0.288386   0.014369  -1.860770  -1.857142
     7  C    7.666115  -0.044588  -0.145742  -0.004622  -0.234358  -0.584900
     8  H   -0.044588   0.554310   0.029380  -0.001420  -0.029963   0.068234
     9  C   -0.145742   0.029380   6.314135  -0.051513   0.165307   0.165352
    10  H   -0.004622  -0.001420  -0.051513   0.476906  -0.002755   0.002832
    11  C   -0.234358  -0.029963   0.165307  -0.002755  11.958483  -2.127228
    12  C   -0.584900   0.068234   0.165352   0.002832  -2.127228  11.961331
    13  H    0.353405  -0.015343  -0.051572   0.001390   0.002843  -0.002770
    14  H    0.003847   0.001355   0.385463  -0.007220   0.001040   0.001041
    15  C    0.097949  -0.015359  -0.062379   0.003189  -1.401645  -0.121384
    16  H   -0.015399  -0.003781   0.002730   0.000983   0.524862   0.031094
    17  C    0.111457  -0.073306  -0.062265   0.001167  -0.123104  -1.401723
    18  H   -0.073368   0.009490   0.002738   0.000434   0.031240   0.524919
    19  C   -0.062428   0.002706   0.037014  -0.001145   0.493047   0.491179
    20  H    0.001175   0.000435  -0.001147   0.000064  -0.046291   0.005380
    21  H    0.003192   0.000988  -0.001146   0.000016   0.005276  -0.046207
    22  H   -0.000919  -0.000450   0.000226   0.000010  -0.033195  -0.033317
              13         14         15         16         17         18
     1  C    0.040876   0.022947  -0.037201  -0.051719  -0.037190  -0.051755
     2  C    0.005309  -0.033317  -0.585256   0.068341  -0.234652  -0.029897
     3  C   -0.046166  -0.033277  -0.233416  -0.029965  -0.584842   0.068283
     4  C   -0.004582   0.003924   0.111675  -0.073227   0.097772  -0.015407
     5  H   -0.001418   0.001352  -0.073223   0.009520  -0.015392  -0.003777
     6  C    0.014362  -0.004616   0.337991  -0.089999   0.337130  -0.090115
     7  C    0.353405   0.003847   0.097949  -0.015399   0.111457  -0.073368
     8  H   -0.015343   0.001355  -0.015359  -0.003781  -0.073306   0.009490
     9  C   -0.051572   0.385463  -0.062379   0.002730  -0.062265   0.002738
    10  H    0.001390  -0.007220   0.003189   0.000983   0.001167   0.000434
    11  C    0.002843   0.001040  -1.401645   0.524862  -0.123104   0.031240
    12  C   -0.002770   0.001041  -0.121384   0.031094  -1.401723   0.524919
    13  H    0.476910  -0.007223   0.001169   0.000434   0.003179   0.000983
    14  H   -0.007223   0.470891  -0.000916  -0.000448  -0.000915  -0.000449
    15  C    0.001169  -0.000916   7.663744  -0.044842   0.338917   0.011104
    16  H    0.000434  -0.000448  -0.044842   0.554253   0.011150   0.003902
    17  C    0.003179  -0.000915   0.338917   0.011150   7.665729  -0.044728
    18  H    0.000983  -0.000449   0.011104   0.003902  -0.044728   0.554330
    19  C   -0.001146   0.000225  -0.146209   0.029435  -0.144027   0.029441
    20  H    0.000016   0.000010   0.353563  -0.015344  -0.004645  -0.001420
    21  H    0.000064   0.000010  -0.004588  -0.001420   0.353384  -0.015357
    22  H    0.000010  -0.000003   0.003766   0.001356   0.003858   0.001357
              19         20         21         22
     1  C   -0.287910   0.014371   0.014366  -0.004613
     2  C    0.165672  -0.002799   0.002830   0.001052
     3  C    0.164963   0.002853  -0.002750   0.001034
     4  C   -0.062193   0.003173   0.001167  -0.000914
     5  H    0.002710   0.000983   0.000435  -0.000448
     6  C   -0.793147   0.040878   0.040914   0.022933
     7  C   -0.062428   0.001175   0.003192  -0.000919
     8  H    0.002706   0.000435   0.000988  -0.000450
     9  C    0.037014  -0.001147  -0.001146   0.000226
    10  H   -0.001145   0.000064   0.000016   0.000010
    11  C    0.493047  -0.046291   0.005276  -0.033195
    12  C    0.491179   0.005380  -0.046207  -0.033317
    13  H   -0.001146   0.000016   0.000064   0.000010
    14  H    0.000225   0.000010   0.000010  -0.000003
    15  C   -0.146209   0.353563  -0.004588   0.003766
    16  H    0.029435  -0.015344  -0.001420   0.001356
    17  C   -0.144027  -0.004645   0.353384   0.003858
    18  H    0.029441  -0.001420  -0.015357   0.001357
    19  C    6.313785  -0.051590  -0.051522   0.385528
    20  H   -0.051590   0.476919   0.001390  -0.007229
    21  H   -0.051522   0.001390   0.476916  -0.007222
    22  H    0.385528  -0.007229  -0.007222   0.470911
 Mulliken charges:
               1
     1  C    1.738749
     2  C   -0.831047
     3  C   -0.831152
     4  C   -0.196339
     5  H    0.088068
     6  C    1.739117
     7  C   -0.196810
     8  H    0.088030
     9  C   -0.514520
    10  H    0.229261
    11  C   -0.830342
    12  C   -0.831501
    13  H    0.229269
    14  H    0.196279
    15  C   -0.196648
    16  H    0.088084
    17  C   -0.196953
    18  H    0.088049
    19  C   -0.514386
    20  H    0.229257
    21  H    0.229264
    22  H    0.196270
 Sum of Mulliken charges =  -0.00000
 Mulliken charges with hydrogens summed into heavy atoms:
               1
     1  C    1.738749
     2  C   -0.742978
     3  C   -0.743122
     4  C    0.032922
     6  C    1.739117
     7  C    0.032459
     9  C   -0.318242
    11  C   -0.742258
    12  C   -0.743452
    15  C    0.032609
    17  C    0.032311
    19  C   -0.318117
 Electronic spatial extent (au):  <R**2>=           2311.9039
 Charge=              0.0000 electrons
 Dipole moment (field-independent basis, Debye):
    X=             -0.0000    Y=              0.0000    Z=              0.0004  Tot=              0.0004
 Quadrupole moment (field-independent basis, Debye-Ang):
   XX=            -61.4285   YY=            -61.3377   ZZ=            -77.8354
   XY=              0.0000   XZ=              0.0006   YZ=              0.0001
 Traceless Quadrupole moment (field-independent basis, Debye-Ang):
   XX=              5.4387   YY=              5.5295   ZZ=            -10.9682
   XY=              0.0000   XZ=              0.0006   YZ=              0.0001
 Octapole moment (field-independent basis, Debye-Ang**2):
  XXX=             -0.0004  YYY=              0.0011  ZZZ=              0.0006  XYY=              0.0001
  XXY=              0.0001  XXZ=              0.0020  XZZ=             -0.0001  YZZ=              0.0000
  YYZ=              0.0034  XYZ=             -2.9770
 Hexadecapole moment (field-independent basis, Debye-Ang**3):
 XXXX=          -2296.9442 YYYY=           -533.4371 ZZZZ=            -97.0869 XXXY=             -0.0007
 XXXZ=              0.0200 YYYX=              0.0019 YYYZ=              0.0003 ZZZX=              0.0008
 ZZZY=              0.0001 XXYY=           -472.2157 XXZZ=           -503.3440 YYZZ=           -126.6730
 XXYZ=              0.0024 YYXZ=             -0.0015 ZZXY=             -0.0012
 N-N= 5.996872127216D+02 E-N=-2.273577453037D+03  KE= 4.610310076785D+02
 No NMR shielding tensors so no spin-rotation constants.
 Leave Link  601 at Sat Nov  5 21:35:31 2022, MaxMem= 16106127360 cpu:               4.3 elap:               0.2
 (Enter /opt/ap/G16/B01/g16/l9999.exe)
 1\1\GINC-N03\SP\RwB97XD\6-311++G(d,p)\C12H10\ROOT\05-Nov-2022\0\\#P wB
 97XD/6-311++G(d,p) scf=maxcycle=512\\_conf016.gjf nmol_natom 1_22\\0,1
 \C\C,1,1.40491871\C,1,1.40495292,2,118.20503621\C,2,1.3939373,1,120.91
 08946,3,0.05365643,0\H,2,1.08593095,1,119.3452094,3,-178.3624307,0\C,1
 ,1.48449301,2,120.90144423,4,-179.96388019,0\C,3,1.39389842,1,120.9105
 0598,2,0.03587687,0\H,3,1.08593608,1,119.34159615,2,-178.38281524,0\C,
 4,1.39606958,2,120.24555868,1,-0.09283196,0\H,4,1.08627898,2,119.66792
 041,1,-179.51486187,0\C,6,1.40492034,1,120.90156908,2,-10.,0\C,6,1.404
 95329,1,120.89324856,2,170.,0\H,7,1.08627928,3,119.67027175,1,-179.512
 58183,0\H,9,1.08597601,4,120.2602535,2,-179.95233103,0\C,11,1.39393437
 ,6,120.91099656,1,-179.95869964,0\H,11,1.08593173,6,119.34475907,1,1.6
 1891886,0\C,12,1.39390147,6,120.91022615,1,-179.94297913,0\H,12,1.0859
 3608,6,119.34175044,1,1.63241608,0\C,15,1.39607161,11,120.24535737,6,-
 0.10315482,0\H,15,1.08627786,11,119.66861247,6,-179.51844254,0\H,17,1.
 08627825,12,119.6702798,6,-179.51590091,0\H,19,1.08597601,15,120.25988
 597,11,-179.94731581,0\\Version=ES64L-G16RevB.01\State=1-A\HF=-463.245
 7693\RMSD=4.633e-09\Dipole=-0.0000007,-0.0001481,-0.0000132\Quadrupole
 =4.0365636,-8.0611781,4.0246146,0.548783,0.0114746,-0.9141031\PG=C01 [
 X(C12H10)]\\@


 FESTINA LENTE!
     - IMPERATOR AUGUSTUS 
 Job cpu time:       0 days  0 hours 14 minutes  1.1 seconds.
 Elapsed time:       0 days  0 hours  0 minutes 26.6 seconds.
 File lengths (MBytes):  RWF=     62 Int=      0 D2E=      0 Chk=      8 Scr=      1
 Normal termination of Gaussian 16 at Sat Nov  5 21:35:31 2022.
