 Entering Gaussian System, Link 0=g16
 Input=_conf019.gjf
 Output=_conf019.log
 Initial command:
 /opt/ap/G16/B01/g16/l1.exe "/tmp2/scr/Gau-2976.inp" -scrdir="/tmp2/scr/"
 Entering Link 1 = /opt/ap/G16/B01/g16/l1.exe PID=      2977.
  
 Copyright (c) 1988-2017, Gaussian, Inc.  All Rights Reserved.
  
 This is part of the Gaussian(R) 16 program.  It is based on
 the Gaussian(R) 09 system (copyright 2009, Gaussian, Inc.),
 the Gaussian(R) 03 system (copyright 2003, Gaussian, Inc.),
 the Gaussian(R) 98 system (copyright 1998, Gaussian, Inc.),
 the Gaussian(R) 94 system (copyright 1995, Gaussian, Inc.),
 the Gaussian 92(TM) system (copyright 1992, Gaussian, Inc.),
 the Gaussian 90(TM) system (copyright 1990, Gaussian, Inc.),
 the Gaussian 88(TM) system (copyright 1988, Gaussian, Inc.),
 the Gaussian 86(TM) system (copyright 1986, Carnegie Mellon
 University), and the Gaussian 82(TM) system (copyright 1983,
 Carnegie Mellon University). Gaussian is a federally registered
 trademark of Gaussian, Inc.
  
 This software contains proprietary and confidential information,
 including trade secrets, belonging to Gaussian, Inc.
  
 This software is provided under written license and may be
 used, copied, transmitted, or stored only in accord with that
 written license.
  
 The following legend is applicable only to US Government
 contracts under FAR:
  
                    RESTRICTED RIGHTS LEGEND
  
 Use, reproduction and disclosure by the US Government is
 subject to restrictions as set forth in subparagraphs (a)
 and (c) of the Commercial Computer Software - Restricted
 Rights clause in FAR 52.227-19.
  
 Gaussian, Inc.
 340 Quinnipiac St., Bldg. 40, Wallingford CT 06492
  
  
 ---------------------------------------------------------------
 Warning -- This program may not be used in any manner that
 competes with the business of Gaussian, Inc. or will provide
 assistance to any competitor of Gaussian, Inc.  The licensee
 of this program is prohibited from giving any competitor of
 Gaussian, Inc. access to this program.  By using this program,
 the user acknowledges that Gaussian, Inc. is engaged in the
 business of creating and licensing software in the field of
 computational chemistry and represents and warrants to the
 licensee that it is not a competitor of Gaussian, Inc. and that
 it will not use this program in any manner prohibited above.
 ---------------------------------------------------------------
  

 Cite this work as:
 Gaussian 16, Revision B.01,
 M. J. Frisch, G. W. Trucks, H. B. Schlegel, G. E. Scuseria, 
 M. A. Robb, J. R. Cheeseman, G. Scalmani, V. Barone, 
 G. A. Petersson, H. Nakatsuji, X. Li, M. Caricato, A. V. Marenich, 
 J. Bloino, B. G. Janesko, R. Gomperts, B. Mennucci, H. P. Hratchian, 
 J. V. Ortiz, A. F. Izmaylov, J. L. Sonnenberg, D. Williams-Young, 
 F. Ding, F. Lipparini, F. Egidi, J. Goings, B. Peng, A. Petrone, 
 T. Henderson, D. Ranasinghe, V. G. Zakrzewski, J. Gao, N. Rega, 
 G. Zheng, W. Liang, M. Hada, M. Ehara, K. Toyota, R. Fukuda, 
 J. Hasegawa, M. Ishida, T. Nakajima, Y. Honda, O. Kitao, H. Nakai, 
 T. Vreven, K. Throssell, J. A. Montgomery, Jr., J. E. Peralta, 
 F. Ogliaro, M. J. Bearpark, J. J. Heyd, E. N. Brothers, K. N. Kudin, 
 V. N. Staroverov, T. A. Keith, R. Kobayashi, J. Normand, 
 K. Raghavachari, A. P. Rendell, J. C. Burant, S. S. Iyengar, 
 J. Tomasi, M. Cossi, J. M. Millam, M. Klene, C. Adamo, R. Cammi, 
 J. W. Ochterski, R. L. Martin, K. Morokuma, O. Farkas, 
 J. B. Foresman, and D. J. Fox, Gaussian, Inc., Wallingford CT, 2016.
 
 ******************************************
 Gaussian 16:  ES64L-G16RevB.01 20-Dec-2017
                 5-Nov-2022 
 ******************************************
 %nprocshared=32
 Will use up to   32 processors via shared memory.
 %mem=120GB
 %chk=_conf019.chk
 ----------------------------------------
 #P wB97XD/6-311++G(d,p) scf=maxcycle=512
 ----------------------------------------
 1/38=1,172=1/1;
 2/12=2,17=6,18=5,40=1/2;
 3/5=4,6=6,7=1111,11=2,25=1,30=1,74=-58/1,2,3;
 4//1;
 5/5=2,7=512,38=5/2;
 6/7=2,8=2,9=2,10=2,28=1/1;
 99/5=1,9=1/99;
 Leave Link    1 at Sat Nov  5 21:34:58 2022, MaxMem= 16106127360 cpu:               1.6 elap:               0.1
 (Enter /opt/ap/G16/B01/g16/l101.exe)
 ----------------------------
 _conf019.gjf nmol_natom 1_22
 ----------------------------
 Symbolic Z-matrix:
 Charge =  0 Multiplicity = 1
 C
 C                    1     1.40492 
 C                    1     1.40495  2     118.20504 
 C                    2     1.39394  1     120.91089  3     0.05366  0
 H                    2     1.08593  1     119.34521  3    -178.36243  0
 C                    1     1.48449  2     120.90144  4    -179.96388  0
 C                    3     1.3939   1     120.91051  2     0.03588  0
 H                    3     1.08594  1     119.3416  2    -178.38282  0
 C                    4     1.39607  2     120.24556  1    -0.09283  0
 H                    4     1.08628  2     119.66792  1    -179.51486  0
 C                    6     1.40492  1     120.90157  2     5.       0
 C                    6     1.40495  1     120.89325  2    -175.     0
 H                    7     1.08628  3     119.67027  1    -179.51258  0
 H                    9     1.08598  4     120.26025  2    -179.95233  0
 C                    11    1.39393  6     120.911  1    -179.9587  0
 H                    11    1.08593  6     119.34476  1     1.61892  0
 C                    12    1.3939   6     120.91023  1    -179.94298  0
 H                    12    1.08594  6     119.34175  1     1.63242  0
 C                    15    1.39607  11    120.24536  6    -0.10315  0
 H                    15    1.08628  11    119.66861  6    -179.51844  0
 H                    17    1.08628  12    119.67028  6    -179.5159  0
 H                    19    1.08598  15    120.25989  11   -179.94732  0
 
 ITRead=  0  0  0  0  0  0  0  0  0  0  0  0  0  0  0  0  0  0  0  0
 ITRead=  0  0
 MicOpt= -1 -1 -1 -1 -1 -1 -1 -1 -1 -1 -1 -1 -1 -1 -1 -1 -1 -1 -1 -1
 MicOpt= -1 -1
 NAtoms=     22 NQM=       22 NQMF=       0 NMMI=      0 NMMIF=      0
                NMic=       0 NMicF=      0.
                    Isotopes and Nuclear Properties:
 (Nuclear quadrupole moments (NQMom) in fm**2, nuclear magnetic moments (NMagM)
  in nuclear magnetons)

  Atom         1           2           3           4           5           6           7           8           9          10
 IAtWgt=          12          12          12          12           1          12          12           1          12           1
 AtmWgt=  12.0000000  12.0000000  12.0000000  12.0000000   1.0078250  12.0000000  12.0000000   1.0078250  12.0000000   1.0078250
 NucSpn=           0           0           0           0           1           0           0           1           0           1
 AtZEff=  -0.0000000  -0.0000000  -0.0000000  -0.0000000  -0.0000000  -0.0000000  -0.0000000  -0.0000000  -0.0000000  -0.0000000
 NQMom=    0.0000000   0.0000000   0.0000000   0.0000000   0.0000000   0.0000000   0.0000000   0.0000000   0.0000000   0.0000000
 NMagM=    0.0000000   0.0000000   0.0000000   0.0000000   2.7928460   0.0000000   0.0000000   2.7928460   0.0000000   2.7928460
 AtZNuc=   6.0000000   6.0000000   6.0000000   6.0000000   1.0000000   6.0000000   6.0000000   1.0000000   6.0000000   1.0000000

  Atom        11          12          13          14          15          16          17          18          19          20
 IAtWgt=          12          12           1           1          12           1          12           1          12           1
 AtmWgt=  12.0000000  12.0000000   1.0078250   1.0078250  12.0000000   1.0078250  12.0000000   1.0078250  12.0000000   1.0078250
 NucSpn=           0           0           1           1           0           1           0           1           0           1
 AtZEff=  -0.0000000  -0.0000000  -0.0000000  -0.0000000  -0.0000000  -0.0000000  -0.0000000  -0.0000000  -0.0000000  -0.0000000
 NQMom=    0.0000000   0.0000000   0.0000000   0.0000000   0.0000000   0.0000000   0.0000000   0.0000000   0.0000000   0.0000000
 NMagM=    0.0000000   0.0000000   2.7928460   2.7928460   0.0000000   2.7928460   0.0000000   2.7928460   0.0000000   2.7928460
 AtZNuc=   6.0000000   6.0000000   1.0000000   1.0000000   6.0000000   1.0000000   6.0000000   1.0000000   6.0000000   1.0000000

  Atom        21          22
 IAtWgt=           1           1
 AtmWgt=   1.0078250   1.0078250
 NucSpn=           1           1
 AtZEff=  -0.0000000  -0.0000000
 NQMom=    0.0000000   0.0000000
 NMagM=    2.7928460   2.7928460
 AtZNuc=   1.0000000   1.0000000
 Leave Link  101 at Sat Nov  5 21:34:58 2022, MaxMem= 16106127360 cpu:               5.3 elap:               0.2
 (Enter /opt/ap/G16/B01/g16/l202.exe)
                          Input orientation:                          
 ---------------------------------------------------------------------
 Center     Atomic      Atomic             Coordinates (Angstroms)
 Number     Number       Type             X           Y           Z
 ---------------------------------------------------------------------
      1          6           0        0.000000    0.000000    0.000000
      2          6           0        0.000000    0.000000    1.404919
      3          6           0        1.238131    0.000000   -0.664020
      4          6           0        1.195952    0.001120    2.120990
      5          1           0       -0.946201   -0.027051    1.937101
      6          6           0       -1.273772   -0.000390   -0.762381
      7          6           0        2.434381   -0.000749    0.051479
      8          1           0        1.259850    0.026715   -1.749411
      9          6           0        2.418826    0.000311    1.447501
     10          1           0        1.172413   -0.006894    3.206985
     11          6           0       -2.509644    0.104298   -0.102486
     12          6           0       -1.275895   -0.105468   -2.163397
     13          1           0        3.380326    0.007295   -0.482493
     14          1           0        3.350700    0.000403    2.005133
     15          6           0       -3.705868    0.103093   -0.818098
     16          1           0       -2.528570    0.213084    0.977818
     17          6           0       -2.471670   -0.104684   -2.879695
     18          1           0       -0.332595   -0.214185   -2.690296
     19          6           0       -3.692381   -0.000721   -2.210239
     20          1           0       -4.649694    0.192992   -0.287900
     21          1           0       -2.450209   -0.194918   -3.962007
     22          1           0       -4.624147   -0.000824   -2.768052
 ---------------------------------------------------------------------
                    Distance matrix (angstroms):
                    1          2          3          4          5
     1  C    0.000000
     2  C    1.404919   0.000000
     3  C    1.404953   2.411116   0.000000
     4  C    2.434934   1.393937   2.785330   0.000000
     5  H    2.156012   1.085931   3.396745   2.150216   0.000000
     6  C    1.484493   2.513898   2.513829   3.796494   2.719415
     7  C    2.434925   2.785320   1.393898   2.411760   3.870994
     8  H    2.156008   3.396723   1.085936   3.871013   4.296501
     9  C    2.818861   2.419201   2.419207   1.396070   3.400568
    10  H    3.414579   2.149893   3.871569   1.086279   2.470128
    11  C    2.513901   2.929413   3.791045   4.322723   2.573232
    12  C    2.513826   3.791030   2.929093   4.947461   4.114479
    13  H    3.414594   3.871560   2.149884   3.398478   4.957262
    14  H    3.904837   3.404035   3.404016   2.157861   4.297527
    15  C    3.796494   4.322718   4.947474   5.716334   3.901772
    16  H    2.719411   2.573224   4.114496   3.901773   1.865953
    17  C    3.796414   4.947528   4.322361   6.202379   5.053179
    18  H    2.719225   4.114277   2.572712   5.052849   4.671652
    19  C    4.303351   5.167498   5.167276   6.531106   4.974196
    20  H    4.662595   4.952024   5.902983   6.325437   4.326074
    21  H    4.662511   5.902999   4.951622   7.094771   6.090131
    22  H    5.389327   6.228677   6.228423   7.601072   5.972139
                    6          7          8          9         10
     6  C    0.000000
     7  C    3.796415   0.000000
     8  H    2.719228   2.150228   0.000000
     9  C    4.303354   1.396108   3.400612   0.000000
    10  H    4.662588   3.398502   4.957280   2.156243   0.000000
    11  C    1.404920   4.947537   4.114300   5.167503   4.952020
    12  C    1.404953   4.322359   2.572714   5.167275   5.902960
    13  H    4.662512   1.086279   2.470197   2.156248   4.299689
    14  H    5.389330   2.157871   4.297551   1.085976   2.487858
    15  C    2.434934   6.202387   5.052873   6.531108   6.325426
    16  H    2.156010   5.053187   4.671684   4.974193   4.326066
    17  C    2.434925   5.715936   3.901160   6.530896   7.094828
    18  H    2.156010   3.901159   1.865255   4.973699   6.089822
    19  C    2.818858   6.530894   4.973701   7.122212   7.280973
    20  H    3.414583   7.094846   6.089858   7.280983   6.793461
    21  H    3.414594   6.324949   4.325417   7.280685   8.034499
    22  H    3.904834   7.600827   5.971583   8.208188   8.324735
                   11         12         13         14         15
    11  C    0.000000
    12  C    2.411119   0.000000
    13  H    5.903013   4.951620   0.000000
    14  H    6.228683   6.228422   2.487812   0.000000
    15  C    1.393934   2.785336   7.094783   7.601075   0.000000
    16  H    1.085932   3.396748   6.090148   5.972137   2.150219
    17  C    2.785320   1.393901   6.324948   7.600828   2.411763
    18  H    3.396725   1.085936   4.325416   5.971580   3.871016
    19  C    2.419198   2.419208   7.280683   8.208188   1.396072
    20  H    2.149897   3.871575   8.034523   8.324747   1.086278
    21  H    3.871558   2.149886   6.792866   8.324389   3.398478
    22  H    3.404029   3.404019   8.324387   9.294164   2.157859
                   16         17         18         19         20
    16  H    0.000000
    17  C    3.870997   0.000000
    18  H    4.296501   2.150234   0.000000
    19  C    3.400569   1.396107   3.400615   0.000000
    20  H    2.470145   3.398500   4.957282   2.156238   0.000000
    21  H    4.957264   1.086278   2.470204   2.156245   4.299683
    22  H    4.297527   2.157871   4.297556   1.085976   2.487844
                   21         22
    21  H    0.000000
    22  H    2.487812   0.000000
 Stoichiometry    C12H10
 Framework group  C1[X(C12H10)]
 Deg. of freedom    60
 Full point group                 C1      NOp   1
 Largest Abelian subgroup         C1      NOp   1
 Largest concise Abelian subgroup C1      NOp   1
                         Standard orientation:                         
 ---------------------------------------------------------------------
 Center     Atomic      Atomic             Coordinates (Angstroms)
 Number     Number       Type             X           Y           Z
 ---------------------------------------------------------------------
      1          6           0        0.742246    0.000119   -0.000148
      2          6           0        1.463764    1.204463    0.052434
      3          6           0        1.463607   -1.204368   -0.052501
      4          6           0        2.857701    1.204727    0.051553
      5          1           0        0.925182    2.144972    0.120394
      6          6           0       -0.742247    0.000118   -0.000001
      7          6           0        2.857505   -1.204828   -0.051543
      8          1           0        0.924828   -2.144782   -0.120296
      9          6           0        3.561107   -0.000084   -0.000007
     10          1           0        3.395231    2.147407    0.100729
     11          6           0       -1.463771    1.204466   -0.052441
     12          6           0       -1.463600   -1.204365    0.052588
     13          1           0        3.394945   -2.147567   -0.100575
     14          1           0        4.647083   -0.000190    0.000075
     15          6           0       -2.857705    1.204731   -0.051452
     16          1           0       -0.925186    2.144983   -0.120271
     17          6           0       -2.857501   -1.204831    0.051555
     18          1           0       -0.924815   -2.144765    0.120530
     19          6           0       -3.561105   -0.000098   -0.000141
     20          1           0       -3.395250    2.147410   -0.100459
     21          1           0       -3.394938   -2.147564    0.100718
     22          1           0       -4.647081   -0.000203   -0.000220
 ---------------------------------------------------------------------
 Rotational constants (GHZ):           2.8585222           0.5577033           0.4669670
 Leave Link  202 at Sat Nov  5 21:34:58 2022, MaxMem= 16106127360 cpu:               0.4 elap:               0.0
 (Enter /opt/ap/G16/B01/g16/l301.exe)
 Standard basis: 6-311++G(d,p) (5D, 7F)
 Ernie: Thresh=  0.10000D-02 Tol=  0.10000D-05 Strict=F.
 There are   346 symmetry adapted cartesian basis functions of A   symmetry.
 There are   334 symmetry adapted basis functions of A   symmetry.
   334 basis functions,   522 primitive gaussians,   346 cartesian basis functions
    41 alpha electrons       41 beta electrons
       nuclear repulsion energy       599.7384536709 Hartrees.
 IExCor= 4639 DFT=T Ex+Corr=wB97XD ExCW=0 ScaHFX=  1.000000
 ScaDFX=  1.000000  1.000000  1.000000  1.000000 ScalE2=  1.000000  1.000000
 IRadAn=      5 IRanWt=     -1 IRanGd=            0 ICorTp=0 IEmpDi=121
 HFx  wShort=  0.000000 wLong=  0.200000 cFull=  0.222036 cShort=  0.000000 cLong=  0.777964
 DFx  wShort=  0.000000 wLong=  0.200000 cFull=  0.000000 cShort=  0.000000 cLong=  1.000000
 NAtoms=   22 NActive=   22 NUniq=   22 SFac= 1.00D+00 NAtFMM=   60 NAOKFM=F Big=F
 Integral buffers will be    131072 words long.
 Raffenetti 2 integral format.
 Two-electron integral symmetry is turned on.
 R6Disp:  Grimme-D2 Dispersion energy=       -0.0117780592 Hartrees.
 Nuclear repulsion after empirical dispersion term =      599.7266756117 Hartrees.
 Leave Link  301 at Sat Nov  5 21:34:58 2022, MaxMem= 16106127360 cpu:               1.2 elap:               0.0
 (Enter /opt/ap/G16/B01/g16/l302.exe)
 NPDir=0 NMtPBC=     1 NCelOv=     1 NCel=       1 NClECP=     1 NCelD=      1
         NCelK=      1 NCelE2=     1 NClLst=     1 CellRange=     0.0.
 One-electron integrals computed using PRISM.
 One-electron integral symmetry used in STVInt
 NBasis=   334 RedAO= T EigKep=  1.10D-06  NBF=   334
 NBsUse=   331 1.00D-06 EigRej=  3.53D-07 NBFU=   331
 Precomputing XC quadrature grid using
 IXCGrd= 4 IRadAn=           5 IRanWt=          -1 IRanGd=           0 AccXCQ= 0.00D+00.
 Generated NRdTot=       0 NPtTot=           0 NUsed=           0 NTot=          32
 NSgBfM=   346   346   346   346   346 MxSgAt=    22 MxSgA2=    22.
 Leave Link  302 at Sat Nov  5 21:34:58 2022, MaxMem= 16106127360 cpu:               7.5 elap:               0.2
 (Enter /opt/ap/G16/B01/g16/l303.exe)
 DipDrv:  MaxL=1.
 Leave Link  303 at Sat Nov  5 21:34:58 2022, MaxMem= 16106127360 cpu:               1.4 elap:               0.1
 (Enter /opt/ap/G16/B01/g16/l401.exe)
 ExpMin= 3.60D-02 ExpMax= 4.56D+03 ExpMxC= 6.82D+02 IAcc=3 IRadAn=         5 AccDes= 0.00D+00
 Harris functional with IExCor= 4639 and IRadAn=       5 diagonalized for initial guess.
 HarFok:  IExCor= 4639 AccDes= 0.00D+00 IRadAn=         5 IDoV= 1 UseB2=F ITyADJ=14
 ICtDFT=  3500011 ScaDFX=  1.000000  1.000000  1.000000  1.000000
 FoFCou: FMM=F IPFlag=           0 FMFlag=      100000 FMFlg1=           0
         NFxFlg=           0 DoJE=T BraDBF=F KetDBF=T FulRan=T
         wScrn=  0.000000 ICntrl=       500 IOpCl=  0 I1Cent=   200000004 NGrid=           0
         NMat0=    1 NMatS0=      1 NMatT0=    0 NMatD0=    1 NMtDS0=    0 NMtDT0=    0
 Petite list used in FoFCou.
 Harris En= -441.932660667648    
 JPrj=0 DoOrth=F DoCkMO=F.
 Leave Link  401 at Sat Nov  5 21:34:59 2022, MaxMem= 16106127360 cpu:              20.0 elap:               0.6
 (Enter /opt/ap/G16/B01/g16/l502.exe)
 Integral symmetry usage will be decided dynamically.
 Closed shell SCF:
 Using DIIS extrapolation, IDIIS=  1040.
 NGot= 16106127360 LenX= 16105873520 LenY= 16105753363
 Requested convergence on RMS density matrix=1.00D-08 within 512 cycles.
 Requested convergence on MAX density matrix=1.00D-06.
 Requested convergence on             energy=1.00D-06.
 No special actions if energy rises.
 Fock matrices will be formed incrementally for  20 cycles.

 Cycle   1  Pass 1  IDiag  1:
 FoFJK:  IHMeth= 1 ICntrl=       0 DoSepK=T KAlg= 0 I1Cent=           0 FoldK=F
 IRaf=         1 NMat=       1 IRICut=       1 DoRegI=T DoRafI=F ISym2E= 0 IDoP0=0 IntGTp=1.
 FoFCou: FMM=F IPFlag=           0 FMFlag=      100000 FMFlg1=           0
         NFxFlg=           0 DoJE=T BraDBF=F KetDBF=F FulRan=T
         wScrn=  0.000000 ICntrl=       500 IOpCl=  0 I1Cent=           0 NGrid=           0
         NMat0=    1 NMatS0=      1 NMatT0=    0 NMatD0=    1 NMtDS0=    0 NMtDT0=    0
 Symmetry not used in FoFCou.
 E= -463.147346912855    
 DIIS: error= 6.92D-02 at cycle   1 NSaved=   1.
 NSaved= 1 IEnMin= 1 EnMin= -463.147346912855     IErMin= 1 ErrMin= 6.92D-02
 ErrMax= 6.92D-02  0.00D+00 EMaxC= 1.00D-01 BMatC= 9.53D-01 BMatP= 9.53D-01
 IDIUse=3 WtCom= 3.08D-01 WtEn= 6.92D-01
 Coeff-Com:  0.100D+01
 Coeff-En:   0.100D+01
 Coeff:      0.100D+01
 Gap=     0.306 Goal=   None    Shift=    0.000
 GapD=    0.306 DampG=1.000 DampE=0.500 DampFc=0.5000 IDamp=-1.
 Damping current iteration by 5.00D-01
 RMSDP=2.93D-02 MaxDP=1.41D+00              OVMax= 4.64D-02

 Cycle   2  Pass 1  IDiag  1:
 RMSU=  7.16D-03    CP:  8.37D-01
 E= -463.196884980516     Delta-E=       -0.049538067661 Rises=F Damp=T
 DIIS: error= 3.36D-02 at cycle   2 NSaved=   2.
 NSaved= 2 IEnMin= 2 EnMin= -463.196884980516     IErMin= 2 ErrMin= 3.36D-02
 ErrMax= 3.36D-02  0.00D+00 EMaxC= 1.00D-01 BMatC= 2.16D-01 BMatP= 9.53D-01
 IDIUse=3 WtCom= 6.64D-01 WtEn= 3.36D-01
 Coeff-Com: -0.883D+00 0.188D+01
 Coeff-En:   0.000D+00 0.100D+01
 Coeff:     -0.586D+00 0.159D+01
 Gap=     0.314 Goal=   None    Shift=    0.000
 RMSDP=1.87D-02 MaxDP=1.11D+00 DE=-4.95D-02 OVMax= 3.81D-02

 Cycle   3  Pass 1  IDiag  1:
 RMSU=  4.06D-03    CP:  6.05D-01  1.15D+00
 E= -463.241664966085     Delta-E=       -0.044779985569 Rises=F Damp=F
 DIIS: error= 6.62D-03 at cycle   3 NSaved=   3.
 NSaved= 3 IEnMin= 3 EnMin= -463.241664966085     IErMin= 3 ErrMin= 6.62D-03
 ErrMax= 6.62D-03  0.00D+00 EMaxC= 1.00D-01 BMatC= 4.11D-03 BMatP= 2.16D-01
 IDIUse=3 WtCom= 9.34D-01 WtEn= 6.62D-02
 Coeff-Com: -0.354D+00 0.755D+00 0.599D+00
 Coeff-En:   0.000D+00 0.000D+00 0.100D+01
 Coeff:     -0.331D+00 0.705D+00 0.626D+00
 Gap=     0.312 Goal=   None    Shift=    0.000
 RMSDP=1.79D-03 MaxDP=9.16D-02 DE=-4.48D-02 OVMax= 2.09D-02

 Cycle   4  Pass 1  IDiag  1:
 RMSU=  8.47D-04    CP:  6.05D-01  1.33D+00  7.78D-01
 E= -463.245252589622     Delta-E=       -0.003587623537 Rises=F Damp=F
 DIIS: error= 2.09D-03 at cycle   4 NSaved=   4.
 NSaved= 4 IEnMin= 4 EnMin= -463.245252589622     IErMin= 4 ErrMin= 2.09D-03
 ErrMax= 2.09D-03  0.00D+00 EMaxC= 1.00D-01 BMatC= 3.00D-04 BMatP= 4.11D-03
 IDIUse=3 WtCom= 9.79D-01 WtEn= 2.09D-02
 Coeff-Com: -0.126D+00 0.270D+00 0.299D+00 0.557D+00
 Coeff-En:   0.000D+00 0.000D+00 0.000D+00 0.100D+01
 Coeff:     -0.123D+00 0.264D+00 0.293D+00 0.566D+00
 Gap=     0.312 Goal=   None    Shift=    0.000
 RMSDP=4.48D-04 MaxDP=1.32D-02 DE=-3.59D-03 OVMax= 5.95D-03

 Cycle   5  Pass 1  IDiag  1:
 RMSU=  2.68D-04    CP:  6.04D-01  1.36D+00  7.85D-01  7.55D-01
 E= -463.245569090651     Delta-E=       -0.000316501029 Rises=F Damp=F
 DIIS: error= 4.79D-04 at cycle   5 NSaved=   5.
 NSaved= 5 IEnMin= 5 EnMin= -463.245569090651     IErMin= 5 ErrMin= 4.79D-04
 ErrMax= 4.79D-04  0.00D+00 EMaxC= 1.00D-01 BMatC= 9.82D-06 BMatP= 3.00D-04
 IDIUse=3 WtCom= 9.95D-01 WtEn= 4.79D-03
 Coeff-Com:  0.277D-01-0.593D-01-0.342D-01 0.127D+00 0.938D+00
 Coeff-En:   0.000D+00 0.000D+00 0.000D+00 0.000D+00 0.100D+01
 Coeff:      0.276D-01-0.590D-01-0.340D-01 0.127D+00 0.939D+00
 Gap=     0.312 Goal=   None    Shift=    0.000
 RMSDP=1.16D-04 MaxDP=3.74D-03 DE=-3.17D-04 OVMax= 1.81D-03

 Cycle   6  Pass 1  IDiag  1:
 RMSU=  6.52D-05    CP:  6.03D-01  1.36D+00  7.94D-01  8.27D-01  1.01D+00
 E= -463.245582730178     Delta-E=       -0.000013639527 Rises=F Damp=F
 DIIS: error= 6.22D-05 at cycle   6 NSaved=   6.
 NSaved= 6 IEnMin= 6 EnMin= -463.245582730178     IErMin= 6 ErrMin= 6.22D-05
 ErrMax= 6.22D-05  0.00D+00 EMaxC= 1.00D-01 BMatC= 4.55D-07 BMatP= 9.82D-06
 IDIUse=1 WtCom= 1.00D+00 WtEn= 0.00D+00
 Coeff-Com:  0.116D-01-0.249D-01-0.169D-01 0.317D-01 0.317D+00 0.681D+00
 Coeff:      0.116D-01-0.249D-01-0.169D-01 0.317D-01 0.317D+00 0.681D+00
 Gap=     0.312 Goal=   None    Shift=    0.000
 RMSDP=1.68D-05 MaxDP=6.77D-04 DE=-1.36D-05 OVMax= 2.80D-04

 Cycle   7  Pass 1  IDiag  1:
 RMSU=  1.36D-05    CP:  6.03D-01  1.36D+00  7.95D-01  8.31D-01  1.03D+00
                    CP:  1.09D+00
 E= -463.245583298026     Delta-E=       -0.000000567848 Rises=F Damp=F
 DIIS: error= 2.96D-05 at cycle   7 NSaved=   7.
 NSaved= 7 IEnMin= 7 EnMin= -463.245583298026     IErMin= 7 ErrMin= 2.96D-05
 ErrMax= 2.96D-05  0.00D+00 EMaxC= 1.00D-01 BMatC= 5.93D-08 BMatP= 4.55D-07
 IDIUse=1 WtCom= 1.00D+00 WtEn= 0.00D+00
 Coeff-Com: -0.248D-02 0.533D-02 0.233D-02-0.195D-01-0.115D+00 0.187D+00
 Coeff-Com:  0.943D+00
 Coeff:     -0.248D-02 0.533D-02 0.233D-02-0.195D-01-0.115D+00 0.187D+00
 Coeff:      0.943D+00
 Gap=     0.312 Goal=   None    Shift=    0.000
 RMSDP=1.81D-05 MaxDP=1.12D-03 DE=-5.68D-07 OVMax= 2.14D-04

 Cycle   8  Pass 1  IDiag  1:
 RMSU=  4.41D-06    CP:  6.03D-01  1.36D+00  7.95D-01  8.34D-01  1.04D+00
                    CP:  1.21D+00  1.20D+00
 E= -463.245583412275     Delta-E=       -0.000000114249 Rises=F Damp=F
 DIIS: error= 5.19D-06 at cycle   8 NSaved=   8.
 NSaved= 8 IEnMin= 8 EnMin= -463.245583412275     IErMin= 8 ErrMin= 5.19D-06
 ErrMax= 5.19D-06  0.00D+00 EMaxC= 1.00D-01 BMatC= 1.11D-09 BMatP= 5.93D-08
 IDIUse=1 WtCom= 1.00D+00 WtEn= 0.00D+00
 Coeff-Com: -0.311D-03 0.664D-03 0.445D-03-0.889D-03-0.592D-02-0.177D-01
 Coeff-Com: -0.419D-01 0.107D+01
 Coeff:     -0.311D-03 0.664D-03 0.445D-03-0.889D-03-0.592D-02-0.177D-01
 Coeff:     -0.419D-01 0.107D+01
 Gap=     0.312 Goal=   None    Shift=    0.000
 RMSDP=2.17D-06 MaxDP=1.23D-04 DE=-1.14D-07 OVMax= 4.04D-05

 Cycle   9  Pass 1  IDiag  1:
 RMSU=  7.43D-07    CP:  6.03D-01  1.36D+00  7.95D-01  8.33D-01  1.05D+00
                    CP:  1.22D+00  1.24D+00  1.21D+00
 E= -463.245583415894     Delta-E=       -0.000000003619 Rises=F Damp=F
 DIIS: error= 2.53D-06 at cycle   9 NSaved=   9.
 NSaved= 9 IEnMin= 9 EnMin= -463.245583415894     IErMin= 9 ErrMin= 2.53D-06
 ErrMax= 2.53D-06  0.00D+00 EMaxC= 1.00D-01 BMatC= 3.14D-10 BMatP= 1.11D-09
 IDIUse=1 WtCom= 1.00D+00 WtEn= 0.00D+00
 Coeff-Com:  0.170D-03-0.368D-03-0.964D-04 0.201D-02 0.115D-01-0.269D-01
 Coeff-Com: -0.130D+00 0.401D+00 0.742D+00
 Coeff:      0.170D-03-0.368D-03-0.964D-04 0.201D-02 0.115D-01-0.269D-01
 Coeff:     -0.130D+00 0.401D+00 0.742D+00
 Gap=     0.312 Goal=   None    Shift=    0.000
 RMSDP=3.61D-07 MaxDP=1.29D-05 DE=-3.62D-09 OVMax= 1.55D-05

 Cycle  10  Pass 1  IDiag  1:
 RMSU=  1.78D-07    CP:  6.03D-01  1.36D+00  7.95D-01  8.33D-01  1.05D+00
                    CP:  1.22D+00  1.24D+00  1.25D+00  1.20D+00
 E= -463.245583416401     Delta-E=       -0.000000000507 Rises=F Damp=F
 DIIS: error= 3.84D-07 at cycle  10 NSaved=  10.
 NSaved=10 IEnMin=10 EnMin= -463.245583416401     IErMin=10 ErrMin= 3.84D-07
 ErrMax= 3.84D-07  0.00D+00 EMaxC= 1.00D-01 BMatC= 1.88D-11 BMatP= 3.14D-10
 IDIUse=1 WtCom= 1.00D+00 WtEn= 0.00D+00
 Coeff-Com:  0.525D-04-0.113D-03-0.436D-04 0.457D-03 0.237D-02-0.302D-02
 Coeff-Com: -0.208D-01-0.280D-01 0.168D+00 0.881D+00
 Coeff:      0.525D-04-0.113D-03-0.436D-04 0.457D-03 0.237D-02-0.302D-02
 Coeff:     -0.208D-01-0.280D-01 0.168D+00 0.881D+00
 Gap=     0.312 Goal=   None    Shift=    0.000
 RMSDP=1.67D-07 MaxDP=6.30D-06 DE=-5.07D-10 OVMax= 3.26D-06

 Cycle  11  Pass 1  IDiag  1:
 RMSU=  7.35D-08    CP:  6.03D-01  1.36D+00  7.95D-01  8.33D-01  1.05D+00
                    CP:  1.22D+00  1.23D+00  1.25D+00  1.26D+00  1.22D+00
 E= -463.245583416428     Delta-E=       -0.000000000027 Rises=F Damp=F
 DIIS: error= 1.09D-07 at cycle  11 NSaved=  11.
 NSaved=11 IEnMin=11 EnMin= -463.245583416428     IErMin=11 ErrMin= 1.09D-07
 ErrMax= 1.09D-07  0.00D+00 EMaxC= 1.00D-01 BMatC= 6.99D-13 BMatP= 1.88D-11
 IDIUse=1 WtCom= 1.00D+00 WtEn= 0.00D+00
 Coeff-Com: -0.125D-04 0.272D-04 0.104D-04-0.148D-03-0.888D-03 0.222D-02
 Coeff-Com:  0.891D-02-0.259D-01-0.323D-01-0.908D-01 0.114D+01
 Coeff:     -0.125D-04 0.272D-04 0.104D-04-0.148D-03-0.888D-03 0.222D-02
 Coeff:      0.891D-02-0.259D-01-0.323D-01-0.908D-01 0.114D+01
 Gap=     0.312 Goal=   None    Shift=    0.000
 RMSDP=8.27D-08 MaxDP=4.38D-06 DE=-2.68D-11 OVMax= 9.24D-07

 Cycle  12  Pass 1  IDiag  1:
 RMSU=  2.34D-08    CP:  6.03D-01  1.36D+00  7.95D-01  8.33D-01  1.05D+00
                    CP:  1.22D+00  1.23D+00  1.25D+00  1.26D+00  1.31D+00
                    CP:  1.24D+00
 E= -463.245583416434     Delta-E=       -0.000000000007 Rises=F Damp=F
 DIIS: error= 2.38D-08 at cycle  12 NSaved=  12.
 NSaved=12 IEnMin=12 EnMin= -463.245583416434     IErMin=12 ErrMin= 2.38D-08
 ErrMax= 2.38D-08  0.00D+00 EMaxC= 1.00D-01 BMatC= 7.26D-14 BMatP= 6.99D-13
 IDIUse=1 WtCom= 1.00D+00 WtEn= 0.00D+00
 Coeff-Com: -0.127D-05 0.268D-05 0.216D-05-0.622D-05-0.238D-04-0.308D-05
 Coeff-Com: -0.155D-03 0.397D-02 0.822D-03-0.595D-01-0.134D+00 0.119D+01
 Coeff:     -0.127D-05 0.268D-05 0.216D-05-0.622D-05-0.238D-04-0.308D-05
 Coeff:     -0.155D-03 0.397D-02 0.822D-03-0.595D-01-0.134D+00 0.119D+01
 Gap=     0.312 Goal=   None    Shift=    0.000
 RMSDP=1.32D-08 MaxDP=4.63D-07 DE=-6.82D-12 OVMax= 2.52D-07

 Cycle  13  Pass 1  IDiag  1:
 RMSU=  4.09D-09    CP:  6.03D-01  1.36D+00  7.95D-01  8.33D-01  1.05D+00
                    CP:  1.22D+00  1.23D+00  1.25D+00  1.25D+00  1.33D+00
                    CP:  1.31D+00  1.25D+00
 E= -463.245583416436     Delta-E=       -0.000000000001 Rises=F Damp=F
 DIIS: error= 6.06D-09 at cycle  13 NSaved=  13.
 NSaved=13 IEnMin=13 EnMin= -463.245583416436     IErMin=13 ErrMin= 6.06D-09
 ErrMax= 6.06D-09  0.00D+00 EMaxC= 1.00D-01 BMatC= 4.88D-15 BMatP= 7.26D-14
 IDIUse=1 WtCom= 1.00D+00 WtEn= 0.00D+00
 Coeff-Com:  0.423D-06-0.938D-06-0.173D-06 0.648D-05 0.428D-04-0.107D-03
 Coeff-Com: -0.531D-03 0.205D-02 0.303D-02-0.796D-02-0.897D-01 0.225D+00
 Coeff-Com:  0.868D+00
 Coeff:      0.423D-06-0.938D-06-0.173D-06 0.648D-05 0.428D-04-0.107D-03
 Coeff:     -0.531D-03 0.205D-02 0.303D-02-0.796D-02-0.897D-01 0.225D+00
 Coeff:      0.868D+00
 Gap=     0.312 Goal=   None    Shift=    0.000
 RMSDP=4.57D-09 MaxDP=3.52D-07 DE=-1.36D-12 OVMax= 5.44D-08

 SCF Done:  E(RwB97XD) =  -463.245583416     A.U. after   13 cycles
            NFock= 13  Conv=0.46D-08     -V/T= 2.0048
 KE= 4.610323906147D+02 PE=-2.273657441911D+03 EE= 7.496527922683D+02
 Leave Link  502 at Sat Nov  5 21:35:25 2022, MaxMem= 16106127360 cpu:             808.2 elap:              25.5
 (Enter /opt/ap/G16/B01/g16/l601.exe)
 Copying SCF densities to generalized density rwf, IOpCl= 0 IROHF=0.

 **********************************************************************

            Population analysis using the SCF Density.

 **********************************************************************

 Orbital symmetries:
       Occupied  (A) (A) (A) (A) (A) (A) (A) (A) (A) (A) (A) (A)
                 (A) (A) (A) (A) (A) (A) (A) (A) (A) (A) (A) (A)
                 (A) (A) (A) (A) (A) (A) (A) (A) (A) (A) (A) (A)
                 (A) (A) (A) (A) (A)
       Virtual   (A) (A) (A) (A) (A) (A) (A) (A) (A) (A) (A) (A)
                 (A) (A) (A) (A) (A) (A) (A) (A) (A) (A) (A) (A)
                 (A) (A) (A) (A) (A) (A) (A) (A) (A) (A) (A) (A)
                 (A) (A) (A) (A) (A) (A) (A) (A) (A) (A) (A) (A)
                 (A) (A) (A) (A) (A) (A) (A) (A) (A) (A) (A) (A)
                 (A) (A) (A) (A) (A) (A) (A) (A) (A) (A) (A) (A)
                 (A) (A) (A) (A) (A) (A) (A) (A) (A) (A) (A) (A)
                 (A) (A) (A) (A) (A) (A) (A) (A) (A) (A) (A) (A)
                 (A) (A) (A) (A) (A) (A) (A) (A) (A) (A) (A) (A)
                 (A) (A) (A) (A) (A) (A) (A) (A) (A) (A) (A) (A)
                 (A) (A) (A) (A) (A) (A) (A) (A) (A) (A) (A) (A)
                 (A) (A) (A) (A) (A) (A) (A) (A) (A) (A) (A) (A)
                 (A) (A) (A) (A) (A) (A) (A) (A) (A) (A) (A) (A)
                 (A) (A) (A) (A) (A) (A) (A) (A) (A) (A) (A) (A)
                 (A) (A) (A) (A) (A) (A) (A) (A) (A) (A) (A) (A)
                 (A) (A) (A) (A) (A) (A) (A) (A) (A) (A) (A) (A)
                 (A) (A) (A) (A) (A) (A) (A) (A) (A) (A) (A) (A)
                 (A) (A) (A) (A) (A) (A) (A) (A) (A) (A) (A) (A)
                 (A) (A) (A) (A) (A) (A) (A) (A) (A) (A) (A) (A)
                 (A) (A) (A) (A) (A) (A) (A) (A) (A) (A) (A) (A)
                 (A) (A) (A) (A) (A) (A) (A) (A) (A) (A) (A) (A)
                 (A) (A) (A) (A) (A) (A) (A) (A) (A) (A) (A) (A)
                 (A) (A) (A) (A) (A) (A) (A) (A) (A) (A) (A) (A)
                 (A) (A) (A) (A) (A) (A) (A) (A) (A) (A) (A) (A)
                 (A) (A)
 The electronic state is 1-A.
 Alpha  occ. eigenvalues --  -10.30619 -10.30589 -10.29446 -10.29445 -10.29438
 Alpha  occ. eigenvalues --  -10.29438 -10.29320 -10.29319 -10.29318 -10.29318
 Alpha  occ. eigenvalues --  -10.29267 -10.29267  -0.97736  -0.95360  -0.88348
 Alpha  occ. eigenvalues --   -0.85758  -0.84625  -0.82369  -0.72507  -0.72463
 Alpha  occ. eigenvalues --   -0.68422  -0.67532  -0.63359  -0.58987  -0.57141
 Alpha  occ. eigenvalues --   -0.55937  -0.52836  -0.52302  -0.51974  -0.51259
 Alpha  occ. eigenvalues --   -0.50025  -0.48225  -0.45131  -0.44859  -0.44526
 Alpha  occ. eigenvalues --   -0.42638  -0.41297  -0.36981  -0.33896  -0.33246
 Alpha  occ. eigenvalues --   -0.29727
 Alpha virt. eigenvalues --    0.01496   0.03819   0.03824   0.04561   0.04742
 Alpha virt. eigenvalues --    0.05863   0.05887   0.06458   0.07634   0.08041
 Alpha virt. eigenvalues --    0.09098   0.09163   0.10052   0.11178   0.11823
 Alpha virt. eigenvalues --    0.12672   0.12712   0.13758   0.15197   0.15199
 Alpha virt. eigenvalues --    0.15402   0.16110   0.16139   0.16673   0.17160
 Alpha virt. eigenvalues --    0.17301   0.17444   0.18209   0.18531   0.19088
 Alpha virt. eigenvalues --    0.19367   0.19509   0.19584   0.19734   0.20836
 Alpha virt. eigenvalues --    0.20841   0.21023   0.22399   0.22551   0.23602
 Alpha virt. eigenvalues --    0.24662   0.24785   0.25102   0.25165   0.25225
 Alpha virt. eigenvalues --    0.25351   0.25599   0.26284   0.26839   0.27302
 Alpha virt. eigenvalues --    0.27388   0.28648   0.29336   0.29968   0.30635
 Alpha virt. eigenvalues --    0.30818   0.30820   0.31736   0.32678   0.33536
 Alpha virt. eigenvalues --    0.33810   0.34950   0.35974   0.36520   0.37071
 Alpha virt. eigenvalues --    0.37095   0.37885   0.38276   0.38576   0.38601
 Alpha virt. eigenvalues --    0.41025   0.41345   0.41529   0.41704   0.42386
 Alpha virt. eigenvalues --    0.43526   0.46462   0.48991   0.49959   0.50141
 Alpha virt. eigenvalues --    0.56697   0.58562   0.60265   0.60718   0.61666
 Alpha virt. eigenvalues --    0.61807   0.62257   0.62422   0.62915   0.64358
 Alpha virt. eigenvalues --    0.64540   0.64681   0.65512   0.65601   0.65626
 Alpha virt. eigenvalues --    0.66313   0.67859   0.68601   0.68985   0.70074
 Alpha virt. eigenvalues --    0.71578   0.73534   0.74659   0.74925   0.75389
 Alpha virt. eigenvalues --    0.76625   0.77379   0.79338   0.79768   0.80285
 Alpha virt. eigenvalues --    0.80782   0.83198   0.84806   0.84917   0.85591
 Alpha virt. eigenvalues --    0.86147   0.89642   0.91723   0.92243   0.93525
 Alpha virt. eigenvalues --    0.94055   0.94530   0.95222   0.95309   0.96273
 Alpha virt. eigenvalues --    0.97871   0.98958   0.99022   0.99218   1.00201
 Alpha virt. eigenvalues --    1.00385   1.03658   1.03815   1.04095   1.07475
 Alpha virt. eigenvalues --    1.07576   1.08877   1.09124   1.10710   1.13094
 Alpha virt. eigenvalues --    1.15338   1.15640   1.17259   1.17792   1.18772
 Alpha virt. eigenvalues --    1.19842   1.20119   1.22172   1.24061   1.24507
 Alpha virt. eigenvalues --    1.30554   1.38848   1.41136   1.41289   1.55159
 Alpha virt. eigenvalues --    1.56296   1.56817   1.57746   1.57846   1.60090
 Alpha virt. eigenvalues --    1.62711   1.62914   1.64370   1.64983   1.65303
 Alpha virt. eigenvalues --    1.65418   1.66672   1.67801   1.71240   1.71880
 Alpha virt. eigenvalues --    1.72540   1.74414   1.75972   1.77860   1.79285
 Alpha virt. eigenvalues --    1.80830   1.81960   1.84376   1.85194   1.86806
 Alpha virt. eigenvalues --    1.89684   1.89727   1.90955   1.92657   1.95605
 Alpha virt. eigenvalues --    1.97496   1.99472   2.00191   2.01605   2.03534
 Alpha virt. eigenvalues --    2.03959   2.04791   2.05706   2.06419   2.06479
 Alpha virt. eigenvalues --    2.06703   2.07505   2.10958   2.11291   2.12740
 Alpha virt. eigenvalues --    2.14964   2.17430   2.17548   2.19804   2.22890
 Alpha virt. eigenvalues --    2.34388   2.34521   2.37903   2.39815   2.46263
 Alpha virt. eigenvalues --    2.47895   2.49807   2.50085   2.52681   2.53514
 Alpha virt. eigenvalues --    2.56206   2.57860   2.58663   2.58922   2.66938
 Alpha virt. eigenvalues --    2.72070   2.73921   2.75665   2.77740   2.77932
 Alpha virt. eigenvalues --    2.79110   2.80446   2.81286   2.81357   2.83215
 Alpha virt. eigenvalues --    2.83227   2.84120   2.84852   2.86211   2.86888
 Alpha virt. eigenvalues --    2.86988   2.88079   2.91201   2.92018   2.94186
 Alpha virt. eigenvalues --    2.95158   2.96997   2.97885   2.98875   3.04053
 Alpha virt. eigenvalues --    3.04164   3.04930   3.07693   3.10600   3.18771
 Alpha virt. eigenvalues --    3.19525   3.21835   3.29455   3.31846   3.34491
 Alpha virt. eigenvalues --    3.44217   3.47788   3.48423   3.49267   3.58045
 Alpha virt. eigenvalues --    3.63698   3.63785   3.64087   3.66958   3.72629
 Alpha virt. eigenvalues --    3.76978   3.87096   4.08171   4.12469   4.13830
 Alpha virt. eigenvalues --    4.14494   4.23600   4.24365   4.28315   4.32106
 Alpha virt. eigenvalues --    4.65671   4.91953   4.96997  23.67477  23.85123
 Alpha virt. eigenvalues --   24.07751  24.08120  24.08908  24.10214  24.18963
 Alpha virt. eigenvalues --   24.19471  24.22137  24.23021  24.31450  24.31521
          Condensed to atoms (all electrons):
               1          2          3          4          5          6
     1  C    8.986356  -1.687066  -1.686301   0.079648  -0.067874   2.001185
     2  C   -1.687066  12.725114  -2.517536  -2.153414   0.544850  -1.112912
     3  C   -1.686301  -2.517536  12.724813   0.348771   0.033787  -1.113093
     4  C    0.079648  -2.153414   0.348771   9.218998  -0.101101  -0.009968
     5  H   -0.067874   0.544850   0.033787  -0.101101   0.561287  -0.070436
     6  C    2.001185  -1.112912  -1.113093  -0.009968  -0.070436   8.986253
     7  C    0.084075   0.347009  -2.152377  -0.412557   0.037922  -0.011617
     8  H   -0.067964   0.033975   0.544906   0.037955   0.005032  -0.070440
     9  C   -0.834812   0.490606   0.490205  -0.068029   0.030886  -0.312088
    10  H    0.035282  -0.077867   0.013486   0.390724  -0.016641   0.017337
    11  C   -1.113986   3.826144  -2.805781  -0.900370   0.068509  -1.687165
    12  C   -1.112211  -2.804917   3.824098  -0.093637  -0.039426  -1.685479
    13  H    0.035325   0.013477  -0.077987  -0.014289  -0.001274   0.017324
    14  H    0.019223  -0.029818  -0.029781   0.003900   0.001602  -0.006747
    15  C   -0.010083  -0.899295  -0.094538  -0.182725  -0.050164   0.080547
    16  H   -0.070382   0.068301  -0.039349  -0.050114   0.003800  -0.067803
    17  C   -0.011538  -0.094287  -0.898652   0.260634  -0.030469   0.082239
    18  H   -0.070363  -0.039466   0.068384  -0.030477  -0.004622  -0.067826
    19  C   -0.312138   0.143674   0.144068  -0.071049   0.002043  -0.834676
    20  H    0.017317  -0.006102   0.004171   0.001213   0.001504   0.035286
    21  H    0.017322   0.004206  -0.006153   0.002138   0.000342   0.035280
    22  H   -0.006743   0.000204   0.000234  -0.001118  -0.000500   0.019240
               7          8          9         10         11         12
     1  C    0.084075  -0.067964  -0.834812   0.035282  -1.113986  -1.112211
     2  C    0.347009   0.033975   0.490606  -0.077867   3.826144  -2.804917
     3  C   -2.152377   0.544906   0.490205   0.013486  -2.805781   3.824098
     4  C   -0.412557   0.037955  -0.068029   0.390724  -0.900370  -0.093637
     5  H    0.037922   0.005032   0.030886  -0.016641   0.068509  -0.039426
     6  C   -0.011617  -0.070440  -0.312088   0.017337  -1.687165  -1.685479
     7  C    9.213125  -0.101100  -0.067279  -0.014282  -0.094038  -0.899046
     8  H   -0.101100   0.561354   0.030908  -0.001275  -0.039351   0.068381
     9  C   -0.067279   0.030908   6.316960  -0.048577   0.143932   0.143705
    10  H   -0.014282  -0.001275  -0.048577   0.477646  -0.006143   0.004197
    11  C   -0.094038  -0.039351   0.143932  -0.006143  12.727295  -2.516879
    12  C   -0.899046   0.068381   0.143705   0.004197  -2.516879  12.720426
    13  H    0.390762  -0.016650  -0.048534   0.001286   0.004193  -0.006133
    14  H    0.003869   0.001605   0.387400  -0.007703   0.000215   0.000223
    15  C    0.260380  -0.030536  -0.070821   0.001195  -2.151931   0.346164
    16  H   -0.030437  -0.004618   0.002002   0.001507   0.544545   0.033887
    17  C   -0.181366  -0.050239  -0.070980   0.002135   0.346823  -2.150050
    18  H   -0.050200   0.003788   0.002014   0.000343   0.033788   0.544775
    19  C   -0.070752   0.002040   0.036166  -0.001174   0.489606   0.491256
    20  H    0.002124   0.000342  -0.001171   0.000038  -0.077789   0.013408
    21  H    0.001192   0.001505  -0.001174   0.000023   0.013527  -0.077948
    22  H   -0.001108  -0.000501   0.000188   0.000010  -0.029925  -0.029706
              13         14         15         16         17         18
     1  C    0.035325   0.019223  -0.010083  -0.070382  -0.011538  -0.070363
     2  C    0.013477  -0.029818  -0.899295   0.068301  -0.094287  -0.039466
     3  C   -0.077987  -0.029781  -0.094538  -0.039349  -0.898652   0.068384
     4  C   -0.014289   0.003900  -0.182725  -0.050114   0.260634  -0.030477
     5  H   -0.001274   0.001602  -0.050164   0.003800  -0.030469  -0.004622
     6  C    0.017324  -0.006747   0.080547  -0.067803   0.082239  -0.067826
     7  C    0.390762   0.003869   0.260380  -0.030437  -0.181366  -0.050200
     8  H   -0.016650   0.001605  -0.030536  -0.004618  -0.050239   0.003788
     9  C   -0.048534   0.387400  -0.070821   0.002002  -0.070980   0.002014
    10  H    0.001286  -0.007703   0.001195   0.001507   0.002135   0.000343
    11  C    0.004193   0.000215  -2.151931   0.544545   0.346823   0.033788
    12  C   -0.006133   0.000223   0.346164   0.033887  -2.150050   0.544775
    13  H    0.477650  -0.007703   0.002133   0.000342   0.001208   0.001508
    14  H   -0.007703   0.469947  -0.001114  -0.000501  -0.001113  -0.000501
    15  C    0.002133  -0.001114   9.216180  -0.100831  -0.411582   0.037989
    16  H    0.000342  -0.000501  -0.100831   0.561264   0.037949   0.005031
    17  C    0.001208  -0.001113  -0.411582   0.037949   9.213422  -0.100921
    18  H    0.001508  -0.000501   0.037989   0.005031  -0.100921   0.561320
    19  C   -0.001173   0.000188  -0.066423   0.030790  -0.069098   0.030861
    20  H    0.000023   0.000010   0.390596  -0.016630  -0.014237  -0.001275
    21  H    0.000038   0.000010  -0.014300  -0.001272   0.390793  -0.016639
    22  H    0.000010  -0.000005   0.004003   0.001597   0.003795   0.001604
              19         20         21         22
     1  C   -0.312138   0.017317   0.017322  -0.006743
     2  C    0.143674  -0.006102   0.004206   0.000204
     3  C    0.144068   0.004171  -0.006153   0.000234
     4  C   -0.071049   0.001213   0.002138  -0.001118
     5  H    0.002043   0.001504   0.000342  -0.000500
     6  C   -0.834676   0.035286   0.035280   0.019240
     7  C   -0.070752   0.002124   0.001192  -0.001108
     8  H    0.002040   0.000342   0.001505  -0.000501
     9  C    0.036166  -0.001171  -0.001174   0.000188
    10  H   -0.001174   0.000038   0.000023   0.000010
    11  C    0.489606  -0.077789   0.013527  -0.029925
    12  C    0.491256   0.013408  -0.077948  -0.029706
    13  H   -0.001173   0.000023   0.000038   0.000010
    14  H    0.000188   0.000010   0.000010  -0.000005
    15  C   -0.066423   0.390596  -0.014300   0.004003
    16  H    0.030790  -0.016630  -0.001272   0.001597
    17  C   -0.069098  -0.014237   0.390793   0.003795
    18  H    0.030861  -0.001275  -0.016639   0.001604
    19  C    6.317044  -0.048507  -0.048584   0.387385
    20  H   -0.048507   0.477633   0.001286  -0.007697
    21  H   -0.048584   0.001286   0.477648  -0.007706
    22  H    0.387385  -0.007697  -0.007706   0.469941
 Mulliken charges:
               1
     1  C    1.775730
     2  C   -0.774878
     3  C   -0.775374
     4  C   -0.255134
     5  H    0.090942
     6  C    1.775561
     7  C   -0.254298
     8  H    0.090882
     9  C   -0.551508
    10  H    0.228454
    11  C   -0.775219
    12  C   -0.775089
    13  H    0.228466
    14  H    0.196794
    15  C   -0.254846
    16  H    0.090919
    17  C   -0.254465
    18  H    0.090888
    19  C   -0.551546
    20  H    0.228456
    21  H    0.228466
    22  H    0.196798
 Sum of Mulliken charges =  -0.00000
 Mulliken charges with hydrogens summed into heavy atoms:
               1
     1  C    1.775730
     2  C   -0.683937
     3  C   -0.684491
     4  C   -0.026679
     6  C    1.775561
     7  C   -0.025832
     9  C   -0.354714
    11  C   -0.684300
    12  C   -0.684201
    15  C   -0.026389
    17  C   -0.025999
    19  C   -0.354748
 Electronic spatial extent (au):  <R**2>=           2311.8981
 Charge=             -0.0000 electrons
 Dipole moment (field-independent basis, Debye):
    X=              0.0000    Y=             -0.0000    Z=              0.0004  Tot=              0.0004
 Quadrupole moment (field-independent basis, Debye-Ang):
   XX=            -61.4277   YY=            -61.3048   ZZ=            -77.8614
   XY=             -0.0001   XZ=              0.0008   YZ=              0.0001
 Traceless Quadrupole moment (field-independent basis, Debye-Ang):
   XX=              5.4370   YY=              5.5598   ZZ=            -10.9967
   XY=             -0.0001   XZ=              0.0008   YZ=              0.0001
 Octapole moment (field-independent basis, Debye-Ang**2):
  XXX=             -0.0001  YYY=              0.0013  ZZZ=              0.0006  XYY=             -0.0000
  XXY=             -0.0003  XXZ=              0.0020  XZZ=              0.0001  YZZ=             -0.0001
  YYZ=              0.0034  XYZ=              2.0334
 Hexadecapole moment (field-independent basis, Debye-Ang**3):
 XXXX=          -2296.8633 YYYY=           -535.6866 ZZZZ=            -94.0096 XXXY=             -0.0015
 XXXZ=              0.0207 YYYX=             -0.0012 YYYZ=              0.0003 ZZZX=              0.0009
 ZZZY=              0.0001 XXYY=           -472.2080 XXZZ=           -503.3449 YYZZ=           -127.0391
 XXYZ=              0.0024 YYXZ=             -0.0008 ZZXY=              0.0006
 N-N= 5.997266756117D+02 E-N=-2.273657441691D+03  KE= 4.610323906147D+02
 No NMR shielding tensors so no spin-rotation constants.
 Leave Link  601 at Sat Nov  5 21:35:25 2022, MaxMem= 16106127360 cpu:               5.0 elap:               0.2
 (Enter /opt/ap/G16/B01/g16/l9999.exe)
 1\1\GINC-N08\SP\RwB97XD\6-311++G(d,p)\C12H10\ROOT\05-Nov-2022\0\\#P wB
 97XD/6-311++G(d,p) scf=maxcycle=512\\_conf019.gjf nmol_natom 1_22\\0,1
 \C\C,1,1.40491871\C,1,1.40495292,2,118.20503621\C,2,1.3939373,1,120.91
 08946,3,0.05365643,0\H,2,1.08593095,1,119.3452094,3,-178.3624307,0\C,1
 ,1.48449301,2,120.90144423,4,-179.96388019,0\C,3,1.39389842,1,120.9105
 0598,2,0.03587687,0\H,3,1.08593608,1,119.34159615,2,-178.38281524,0\C,
 4,1.39606958,2,120.24555868,1,-0.09283196,0\H,4,1.08627898,2,119.66792
 041,1,-179.51486187,0\C,6,1.40492034,1,120.90156908,2,5.,0\C,6,1.40495
 329,1,120.89324856,2,-175.,0\H,7,1.08627928,3,119.67027175,1,-179.5125
 8183,0\H,9,1.08597601,4,120.2602535,2,-179.95233103,0\C,11,1.39393437,
 6,120.91099656,1,-179.95869964,0\H,11,1.08593173,6,119.34475907,1,1.61
 891886,0\C,12,1.39390147,6,120.91022615,1,-179.94297913,0\H,12,1.08593
 608,6,119.34175044,1,1.63241608,0\C,15,1.39607161,11,120.24535737,6,-0
 .10315482,0\H,15,1.08627786,11,119.66861247,6,-179.51844254,0\H,17,1.0
 8627825,12,119.6702798,6,-179.51590091,0\H,19,1.08597601,15,120.259885
 97,11,-179.94731581,0\\Version=ES64L-G16RevB.01\State=1-A\HF=-463.2455
 834\RMSD=4.573e-09\Dipole=0.0000003,-0.0001475,0.0000049\Quadrupole=4.
 0602964,-8.1525028,4.0922064,-0.2736116,-0.030038,0.4599357\PG=C01 [X(
 C12H10)]\\@


 A MAN THINKING OR WORKING IS ALWAYS ALONE, 
 LET HIM BE WHERE HE WILL.

                                    -- THOREAU
 Job cpu time:       0 days  0 hours 14 minutes 12.6 seconds.
 Elapsed time:       0 days  0 hours  0 minutes 27.0 seconds.
 File lengths (MBytes):  RWF=     62 Int=      0 D2E=      0 Chk=      8 Scr=      1
 Normal termination of Gaussian 16 at Sat Nov  5 21:35:25 2022.
