 Entering Gaussian System, Link 0=g16
 Input=_conf010.gjf
 Output=_conf010.log
 Initial command:
 /opt/ap/G16/B01/g16/l1.exe "/tmp2/scr/Gau-1742.inp" -scrdir="/tmp2/scr/"
 Entering Link 1 = /opt/ap/G16/B01/g16/l1.exe PID=      1743.
  
 Copyright (c) 1988-2017, Gaussian, Inc.  All Rights Reserved.
  
 This is part of the Gaussian(R) 16 program.  It is based on
 the Gaussian(R) 09 system (copyright 2009, Gaussian, Inc.),
 the Gaussian(R) 03 system (copyright 2003, Gaussian, Inc.),
 the Gaussian(R) 98 system (copyright 1998, Gaussian, Inc.),
 the Gaussian(R) 94 system (copyright 1995, Gaussian, Inc.),
 the Gaussian 92(TM) system (copyright 1992, Gaussian, Inc.),
 the Gaussian 90(TM) system (copyright 1990, Gaussian, Inc.),
 the Gaussian 88(TM) system (copyright 1988, Gaussian, Inc.),
 the Gaussian 86(TM) system (copyright 1986, Carnegie Mellon
 University), and the Gaussian 82(TM) system (copyright 1983,
 Carnegie Mellon University). Gaussian is a federally registered
 trademark of Gaussian, Inc.
  
 This software contains proprietary and confidential information,
 including trade secrets, belonging to Gaussian, Inc.
  
 This software is provided under written license and may be
 used, copied, transmitted, or stored only in accord with that
 written license.
  
 The following legend is applicable only to US Government
 contracts under FAR:
  
                    RESTRICTED RIGHTS LEGEND
  
 Use, reproduction and disclosure by the US Government is
 subject to restrictions as set forth in subparagraphs (a)
 and (c) of the Commercial Computer Software - Restricted
 Rights clause in FAR 52.227-19.
  
 Gaussian, Inc.
 340 Quinnipiac St., Bldg. 40, Wallingford CT 06492
  
  
 ---------------------------------------------------------------
 Warning -- This program may not be used in any manner that
 competes with the business of Gaussian, Inc. or will provide
 assistance to any competitor of Gaussian, Inc.  The licensee
 of this program is prohibited from giving any competitor of
 Gaussian, Inc. access to this program.  By using this program,
 the user acknowledges that Gaussian, Inc. is engaged in the
 business of creating and licensing software in the field of
 computational chemistry and represents and warrants to the
 licensee that it is not a competitor of Gaussian, Inc. and that
 it will not use this program in any manner prohibited above.
 ---------------------------------------------------------------
  

 Cite this work as:
 Gaussian 16, Revision B.01,
 M. J. Frisch, G. W. Trucks, H. B. Schlegel, G. E. Scuseria, 
 M. A. Robb, J. R. Cheeseman, G. Scalmani, V. Barone, 
 G. A. Petersson, H. Nakatsuji, X. Li, M. Caricato, A. V. Marenich, 
 J. Bloino, B. G. Janesko, R. Gomperts, B. Mennucci, H. P. Hratchian, 
 J. V. Ortiz, A. F. Izmaylov, J. L. Sonnenberg, D. Williams-Young, 
 F. Ding, F. Lipparini, F. Egidi, J. Goings, B. Peng, A. Petrone, 
 T. Henderson, D. Ranasinghe, V. G. Zakrzewski, J. Gao, N. Rega, 
 G. Zheng, W. Liang, M. Hada, M. Ehara, K. Toyota, R. Fukuda, 
 J. Hasegawa, M. Ishida, T. Nakajima, Y. Honda, O. Kitao, H. Nakai, 
 T. Vreven, K. Throssell, J. A. Montgomery, Jr., J. E. Peralta, 
 F. Ogliaro, M. J. Bearpark, J. J. Heyd, E. N. Brothers, K. N. Kudin, 
 V. N. Staroverov, T. A. Keith, R. Kobayashi, J. Normand, 
 K. Raghavachari, A. P. Rendell, J. C. Burant, S. S. Iyengar, 
 J. Tomasi, M. Cossi, J. M. Millam, M. Klene, C. Adamo, R. Cammi, 
 J. W. Ochterski, R. L. Martin, K. Morokuma, O. Farkas, 
 J. B. Foresman, and D. J. Fox, Gaussian, Inc., Wallingford CT, 2016.
 
 ******************************************
 Gaussian 16:  ES64L-G16RevB.01 20-Dec-2017
                 5-Nov-2022 
 ******************************************
 %nprocshared=32
 Will use up to   32 processors via shared memory.
 %mem=120GB
 %chk=_conf010.chk
 ----------------------------------------
 #P wB97XD/6-311++G(d,p) scf=maxcycle=512
 ----------------------------------------
 1/38=1,172=1/1;
 2/12=2,17=6,18=5,40=1/2;
 3/5=4,6=6,7=1111,11=2,25=1,30=1,74=-58/1,2,3;
 4//1;
 5/5=2,7=512,38=5/2;
 6/7=2,8=2,9=2,10=2,28=1/1;
 99/5=1,9=1/99;
 Leave Link    1 at Sat Nov  5 21:34:08 2022, MaxMem= 16106127360 cpu:               1.8 elap:               0.1
 (Enter /opt/ap/G16/B01/g16/l101.exe)
 ----------------------------
 _conf010.gjf nmol_natom 1_22
 ----------------------------
 Symbolic Z-matrix:
 Charge =  0 Multiplicity = 1
 C
 C                    1     1.40492 
 C                    1     1.40495  2     118.20504 
 C                    2     1.39394  1     120.91089  3     0.05366  0
 H                    2     1.08593  1     119.34521  3    -178.36243  0
 C                    1     1.48449  2     120.90144  4    -179.96388  0
 C                    3     1.3939   1     120.91051  2     0.03588  0
 H                    3     1.08594  1     119.3416  2    -178.38282  0
 C                    4     1.39607  2     120.24556  1    -0.09283  0
 H                    4     1.08628  2     119.66792  1    -179.51486  0
 C                    6     1.40492  1     120.90157  2    -40.      0
 C                    6     1.40495  1     120.89325  2     140.     0
 H                    7     1.08628  3     119.67027  1    -179.51258  0
 H                    9     1.08598  4     120.26025  2    -179.95233  0
 C                    11    1.39393  6     120.911  1    -179.9587  0
 H                    11    1.08593  6     119.34476  1     1.61892  0
 C                    12    1.3939   6     120.91023  1    -179.94298  0
 H                    12    1.08594  6     119.34175  1     1.63242  0
 C                    15    1.39607  11    120.24536  6    -0.10315  0
 H                    15    1.08628  11    119.66861  6    -179.51844  0
 H                    17    1.08628  12    119.67028  6    -179.5159  0
 H                    19    1.08598  15    120.25989  11   -179.94732  0
 
 ITRead=  0  0  0  0  0  0  0  0  0  0  0  0  0  0  0  0  0  0  0  0
 ITRead=  0  0
 MicOpt= -1 -1 -1 -1 -1 -1 -1 -1 -1 -1 -1 -1 -1 -1 -1 -1 -1 -1 -1 -1
 MicOpt= -1 -1
 NAtoms=     22 NQM=       22 NQMF=       0 NMMI=      0 NMMIF=      0
                NMic=       0 NMicF=      0.
                    Isotopes and Nuclear Properties:
 (Nuclear quadrupole moments (NQMom) in fm**2, nuclear magnetic moments (NMagM)
  in nuclear magnetons)

  Atom         1           2           3           4           5           6           7           8           9          10
 IAtWgt=          12          12          12          12           1          12          12           1          12           1
 AtmWgt=  12.0000000  12.0000000  12.0000000  12.0000000   1.0078250  12.0000000  12.0000000   1.0078250  12.0000000   1.0078250
 NucSpn=           0           0           0           0           1           0           0           1           0           1
 AtZEff=  -0.0000000  -0.0000000  -0.0000000  -0.0000000  -0.0000000  -0.0000000  -0.0000000  -0.0000000  -0.0000000  -0.0000000
 NQMom=    0.0000000   0.0000000   0.0000000   0.0000000   0.0000000   0.0000000   0.0000000   0.0000000   0.0000000   0.0000000
 NMagM=    0.0000000   0.0000000   0.0000000   0.0000000   2.7928460   0.0000000   0.0000000   2.7928460   0.0000000   2.7928460
 AtZNuc=   6.0000000   6.0000000   6.0000000   6.0000000   1.0000000   6.0000000   6.0000000   1.0000000   6.0000000   1.0000000

  Atom        11          12          13          14          15          16          17          18          19          20
 IAtWgt=          12          12           1           1          12           1          12           1          12           1
 AtmWgt=  12.0000000  12.0000000   1.0078250   1.0078250  12.0000000   1.0078250  12.0000000   1.0078250  12.0000000   1.0078250
 NucSpn=           0           0           1           1           0           1           0           1           0           1
 AtZEff=  -0.0000000  -0.0000000  -0.0000000  -0.0000000  -0.0000000  -0.0000000  -0.0000000  -0.0000000  -0.0000000  -0.0000000
 NQMom=    0.0000000   0.0000000   0.0000000   0.0000000   0.0000000   0.0000000   0.0000000   0.0000000   0.0000000   0.0000000
 NMagM=    0.0000000   0.0000000   2.7928460   2.7928460   0.0000000   2.7928460   0.0000000   2.7928460   0.0000000   2.7928460
 AtZNuc=   6.0000000   6.0000000   1.0000000   1.0000000   6.0000000   1.0000000   6.0000000   1.0000000   6.0000000   1.0000000

  Atom        21          22
 IAtWgt=           1           1
 AtmWgt=   1.0078250   1.0078250
 NucSpn=           1           1
 AtZEff=  -0.0000000  -0.0000000
 NQMom=    0.0000000   0.0000000
 NMagM=    2.7928460   2.7928460
 AtZNuc=   1.0000000   1.0000000
 Leave Link  101 at Sat Nov  5 21:34:08 2022, MaxMem= 16106127360 cpu:               5.2 elap:               0.2
 (Enter /opt/ap/G16/B01/g16/l202.exe)
                          Input orientation:                          
 ---------------------------------------------------------------------
 Center     Atomic      Atomic             Coordinates (Angstroms)
 Number     Number       Type             X           Y           Z
 ---------------------------------------------------------------------
      1          6           0        0.000000    0.000000    0.000000
      2          6           0        0.000000    0.000000    1.404919
      3          6           0        1.238131    0.000000   -0.664020
      4          6           0        1.195952    0.001120    2.120990
      5          1           0       -0.946201   -0.027051    1.937101
      6          6           0       -1.273772   -0.000390   -0.762381
      7          6           0        2.434381   -0.000749    0.051479
      8          1           0        1.259850    0.026715   -1.749411
      9          6           0        2.418826    0.000311    1.447501
     10          1           0        1.172413   -0.006894    3.206985
     11          6           0       -2.366890   -0.775600   -0.340547
     12          6           0       -1.418665    0.774527   -1.925309
     13          1           0        3.380326    0.007295   -0.482493
     14          1           0        3.350700    0.000403    2.005133
     15          6           0       -3.562763   -0.776774   -1.056745
     16          1           0       -2.284218   -1.360965    0.570365
     17          6           0       -2.614935    0.775339   -2.640780
     18          1           0       -0.576865    1.359935   -2.282978
     19          6           0       -3.692564   -0.000678   -2.209933
     20          1           0       -4.397790   -1.377681   -0.707974
     21          1           0       -2.702262    1.375961   -3.541684
     22          1           0       -4.624413   -0.000755   -2.767607
 ---------------------------------------------------------------------
                    Distance matrix (angstroms):
                    1          2          3          4          5
     1  C    0.000000
     2  C    1.404919   0.000000
     3  C    1.404953   2.411116   0.000000
     4  C    2.434934   1.393937   2.785330   0.000000
     5  H    2.156012   1.085931   3.396745   2.150216   0.000000
     6  C    1.484493   2.513898   2.513829   3.796494   2.719415
     7  C    2.434925   2.785320   1.393898   2.411760   3.870994
     8  H    2.156008   3.396723   1.085936   3.871013   4.296501
     9  C    2.818861   2.419201   2.419207   1.396070   3.400568
    10  H    3.414579   2.149893   3.871569   1.086279   2.470128
    11  C    2.513901   3.041443   3.701671   4.399580   2.786820
    12  C    2.513826   3.701746   3.041268   4.879234   3.972904
    13  H    3.414594   3.871560   2.149884   3.398478   4.957262
    14  H    3.904837   3.404035   3.404016   2.157861   4.297527
    15  C    3.796494   4.399596   4.879160   5.774815   4.046183
    16  H    2.719411   2.786819   3.972768   4.046146   2.331863
    17  C    3.796414   4.879213   4.399415   6.147905   4.938168
    18  H    2.719225   3.972755   2.786514   4.938036   4.457489
    19  C    4.303351   5.167415   5.167359   6.531040   4.974042
    20  H    4.662595   5.069801   5.802030   6.418262   4.553471
    21  H    4.662511   5.802100   5.069607   7.010859   5.921932
    22  H    5.389327   6.228577   6.228524   7.600989   5.971953
                    6          7          8          9         10
     6  C    0.000000
     7  C    3.796415   0.000000
     8  H    2.719228   2.150228   0.000000
     9  C    4.303354   1.396108   3.400612   0.000000
    10  H    4.662588   3.398502   4.957280   2.156243   0.000000
    11  C    1.404920   4.879168   3.972637   5.167420   5.069769
    12  C    1.404953   4.399399   2.786504   5.167359   5.802133
    13  H    4.662512   1.086279   2.470197   2.156248   4.299689
    14  H    5.389330   2.157871   4.297551   1.085976   2.487858
    15  C    2.434934   6.147854   4.937912   6.531043   6.418255
    16  H    2.156010   4.938077   4.457290   4.974039   4.553413
    17  C    2.434925   5.774614   4.045854   6.530962   7.010867
    18  H    2.156010   4.045832   2.331457   4.973853   5.921815
    19  C    2.818858   6.530960   4.973855   7.122212   7.280868
    20  H    3.414583   7.010797   5.921639   7.280878   6.945007
    21  H    3.414594   6.418041   4.553135   7.280791   7.903791
    22  H    3.904834   7.600909   5.971769   8.208188   8.324601
                   11         12         13         14         15
    11  C    0.000000
    12  C    2.411119   0.000000
    13  H    5.802031   5.069584   0.000000
    14  H    6.228582   6.228523   2.487812   0.000000
    15  C    1.393934   2.785336   7.010778   7.600992   0.000000
    16  H    1.085932   3.396748   5.921799   5.971951   2.150219
    17  C    2.785320   1.393901   6.418041   7.600911   2.411763
    18  H    3.396725   1.085936   4.553102   5.971767   3.871016
    19  C    2.419198   2.419208   7.280788   8.208188   1.396072
    20  H    2.149897   3.871575   7.903675   8.324612   1.086278
    21  H    3.871558   2.149886   6.944765   8.324523   3.398478
    22  H    3.404029   3.404019   8.324521   9.294164   2.157859
                   16         17         18         19         20
    16  H    0.000000
    17  C    3.870997   0.000000
    18  H    4.296501   2.150234   0.000000
    19  C    3.400569   1.396107   3.400615   0.000000
    20  H    2.470145   3.398500   4.957282   2.156238   0.000000
    21  H    4.957264   1.086278   2.470204   2.156245   4.299683
    22  H    4.297527   2.157871   4.297556   1.085976   2.487844
                   21         22
    21  H    0.000000
    22  H    2.487812   0.000000
 Stoichiometry    C12H10
 Framework group  C1[X(C12H10)]
 Deg. of freedom    60
 Full point group                 C1      NOp   1
 Largest Abelian subgroup         C1      NOp   1
 Largest concise Abelian subgroup C1      NOp   1
                         Standard orientation:                         
 ---------------------------------------------------------------------
 Center     Atomic      Atomic             Coordinates (Angstroms)
 Number     Number       Type             X           Y           Z
 ---------------------------------------------------------------------
      1          6           0       -0.742246   -0.000026   -0.000152
      2          6           0       -1.463728   -1.132835   -0.412468
      3          6           0       -1.463643    1.132792    0.412405
      4          6           0       -2.857665   -1.132777   -0.413408
      5          1           0       -0.925118   -2.027745   -0.709589
      6          6           0        0.742247   -0.000043    0.000012
      7          6           0       -2.857541    1.132815    0.413441
      8          1           0       -0.924892    2.027579    0.709661
      9          6           0       -3.561107    0.000038    0.000005
     10          1           0       -3.395167   -2.022531   -0.728734
     11          6           0        1.463706   -1.132820    0.412461
     12          6           0        1.463665    1.132842   -0.412323
     13          1           0       -3.395009    2.022543    0.728902
     14          1           0       -4.647083    0.000077    0.000101
     15          6           0        2.857640   -1.132757    0.413504
     16          1           0        0.925069   -2.027675    0.709704
     17          6           0        2.857566    1.132807   -0.413430
     18          1           0        0.924932    2.027686   -0.709439
     19          6           0        3.561105   -0.000040   -0.000145
     20          1           0        3.395133   -2.022460    0.728985
     21          1           0        3.395055    2.022565   -0.728766
     22          1           0        4.647081   -0.000029   -0.000238
 ---------------------------------------------------------------------
 Rotational constants (GHZ):           2.8585222           0.5455532           0.4758403
 Leave Link  202 at Sat Nov  5 21:34:08 2022, MaxMem= 16106127360 cpu:               0.3 elap:               0.0
 (Enter /opt/ap/G16/B01/g16/l301.exe)
 Standard basis: 6-311++G(d,p) (5D, 7F)
 Ernie: Thresh=  0.10000D-02 Tol=  0.10000D-05 Strict=F.
 There are   346 symmetry adapted cartesian basis functions of A   symmetry.
 There are   334 symmetry adapted basis functions of A   symmetry.
   334 basis functions,   522 primitive gaussians,   346 cartesian basis functions
    41 alpha electrons       41 beta electrons
       nuclear repulsion energy       598.9212468518 Hartrees.
 IExCor= 4639 DFT=T Ex+Corr=wB97XD ExCW=0 ScaHFX=  1.000000
 ScaDFX=  1.000000  1.000000  1.000000  1.000000 ScalE2=  1.000000  1.000000
 IRadAn=      5 IRanWt=     -1 IRanGd=            0 ICorTp=0 IEmpDi=121
 HFx  wShort=  0.000000 wLong=  0.200000 cFull=  0.222036 cShort=  0.000000 cLong=  0.777964
 DFx  wShort=  0.000000 wLong=  0.200000 cFull=  0.000000 cShort=  0.000000 cLong=  1.000000
 NAtoms=   22 NActive=   22 NUniq=   22 SFac= 1.00D+00 NAtFMM=   60 NAOKFM=F Big=F
 Integral buffers will be    131072 words long.
 Raffenetti 2 integral format.
 Two-electron integral symmetry is turned on.
 R6Disp:  Grimme-D2 Dispersion energy=       -0.0121048881 Hartrees.
 Nuclear repulsion after empirical dispersion term =      598.9091419637 Hartrees.
 Leave Link  301 at Sat Nov  5 21:34:08 2022, MaxMem= 16106127360 cpu:               1.2 elap:               0.0
 (Enter /opt/ap/G16/B01/g16/l302.exe)
 NPDir=0 NMtPBC=     1 NCelOv=     1 NCel=       1 NClECP=     1 NCelD=      1
         NCelK=      1 NCelE2=     1 NClLst=     1 CellRange=     0.0.
 One-electron integrals computed using PRISM.
 One-electron integral symmetry used in STVInt
 NBasis=   334 RedAO= T EigKep=  1.77D-06  NBF=   334
 NBsUse=   332 1.00D-06 EigRej=  6.57D-07 NBFU=   332
 Precomputing XC quadrature grid using
 IXCGrd= 4 IRadAn=           5 IRanWt=          -1 IRanGd=           0 AccXCQ= 0.00D+00.
 Generated NRdTot=       0 NPtTot=           0 NUsed=           0 NTot=          32
 NSgBfM=   346   346   346   346   346 MxSgAt=    22 MxSgA2=    22.
 Leave Link  302 at Sat Nov  5 21:34:08 2022, MaxMem= 16106127360 cpu:               7.7 elap:               0.2
 (Enter /opt/ap/G16/B01/g16/l303.exe)
 DipDrv:  MaxL=1.
 Leave Link  303 at Sat Nov  5 21:34:08 2022, MaxMem= 16106127360 cpu:               1.5 elap:               0.1
 (Enter /opt/ap/G16/B01/g16/l401.exe)
 ExpMin= 3.60D-02 ExpMax= 4.56D+03 ExpMxC= 6.82D+02 IAcc=3 IRadAn=         5 AccDes= 0.00D+00
 Harris functional with IExCor= 4639 and IRadAn=       5 diagonalized for initial guess.
 HarFok:  IExCor= 4639 AccDes= 0.00D+00 IRadAn=         5 IDoV= 1 UseB2=F ITyADJ=14
 ICtDFT=  3500011 ScaDFX=  1.000000  1.000000  1.000000  1.000000
 FoFCou: FMM=F IPFlag=           0 FMFlag=      100000 FMFlg1=           0
         NFxFlg=           0 DoJE=T BraDBF=F KetDBF=T FulRan=T
         wScrn=  0.000000 ICntrl=       500 IOpCl=  0 I1Cent=   200000004 NGrid=           0
         NMat0=    1 NMatS0=      1 NMatT0=    0 NMatD0=    1 NMtDS0=    0 NMtDT0=    0
 Petite list used in FoFCou.
 Harris En= -441.938622307880    
 JPrj=0 DoOrth=F DoCkMO=F.
 Leave Link  401 at Sat Nov  5 21:34:09 2022, MaxMem= 16106127360 cpu:              19.5 elap:               0.6
 (Enter /opt/ap/G16/B01/g16/l502.exe)
 Integral symmetry usage will be decided dynamically.
 Closed shell SCF:
 Using DIIS extrapolation, IDIIS=  1040.
 NGot= 16106127360 LenX= 16105873520 LenY= 16105753363
 Requested convergence on RMS density matrix=1.00D-08 within 512 cycles.
 Requested convergence on MAX density matrix=1.00D-06.
 Requested convergence on             energy=1.00D-06.
 No special actions if energy rises.
 Fock matrices will be formed incrementally for  20 cycles.

 Cycle   1  Pass 1  IDiag  1:
 FoFJK:  IHMeth= 1 ICntrl=       0 DoSepK=T KAlg= 0 I1Cent=           0 FoldK=F
 IRaf=         1 NMat=       1 IRICut=       1 DoRegI=T DoRafI=F ISym2E= 0 IDoP0=0 IntGTp=1.
 FoFCou: FMM=F IPFlag=           0 FMFlag=      100000 FMFlg1=           0
         NFxFlg=           0 DoJE=T BraDBF=F KetDBF=F FulRan=T
         wScrn=  0.000000 ICntrl=       500 IOpCl=  0 I1Cent=           0 NGrid=           0
         NMat0=    1 NMatS0=      1 NMatT0=    0 NMatD0=    1 NMtDS0=    0 NMtDT0=    0
 Symmetry not used in FoFCou.
 E= -463.152679274169    
 DIIS: error= 6.70D-02 at cycle   1 NSaved=   1.
 NSaved= 1 IEnMin= 1 EnMin= -463.152679274169     IErMin= 1 ErrMin= 6.70D-02
 ErrMax= 6.70D-02  0.00D+00 EMaxC= 1.00D-01 BMatC= 9.52D-01 BMatP= 9.52D-01
 IDIUse=3 WtCom= 3.30D-01 WtEn= 6.70D-01
 Coeff-Com:  0.100D+01
 Coeff-En:   0.100D+01
 Coeff:      0.100D+01
 Gap=     0.324 Goal=   None    Shift=    0.000
 GapD=    0.324 DampG=1.000 DampE=0.500 DampFc=0.5000 IDamp=-1.
 Damping current iteration by 5.00D-01
 RMSDP=6.32D-02 MaxDP=4.16D+00              OVMax= 4.43D-02

 Cycle   2  Pass 1  IDiag  1:
 RMSU=  6.51D-03    CP:  7.70D-01
 E= -463.201784446954     Delta-E=       -0.049105172785 Rises=F Damp=T
 DIIS: error= 3.20D-02 at cycle   2 NSaved=   2.
 NSaved= 2 IEnMin= 2 EnMin= -463.201784446954     IErMin= 2 ErrMin= 3.20D-02
 ErrMax= 3.20D-02  0.00D+00 EMaxC= 1.00D-01 BMatC= 2.16D-01 BMatP= 9.52D-01
 IDIUse=3 WtCom= 6.80D-01 WtEn= 3.20D-01
 Coeff-Com: -0.883D+00 0.188D+01
 Coeff-En:   0.000D+00 0.100D+01
 Coeff:     -0.600D+00 0.160D+01
 Gap=     0.330 Goal=   None    Shift=    0.000
 RMSDP=3.08D-02 MaxDP=2.00D+00 DE=-4.91D-02 OVMax= 3.77D-02

 Cycle   3  Pass 1  IDiag  1:
 RMSU=  3.54D-03    CP:  5.42D-01  1.16D+00
 E= -463.245872611886     Delta-E=       -0.044088164932 Rises=F Damp=F
 DIIS: error= 5.55D-03 at cycle   3 NSaved=   3.
 NSaved= 3 IEnMin= 3 EnMin= -463.245872611886     IErMin= 3 ErrMin= 5.55D-03
 ErrMax= 5.55D-03  0.00D+00 EMaxC= 1.00D-01 BMatC= 4.40D-03 BMatP= 2.16D-01
 IDIUse=3 WtCom= 9.45D-01 WtEn= 5.55D-02
 Coeff-Com: -0.364D+00 0.775D+00 0.589D+00
 Coeff-En:   0.000D+00 0.000D+00 0.100D+01
 Coeff:     -0.344D+00 0.732D+00 0.612D+00
 Gap=     0.329 Goal=   None    Shift=    0.000
 RMSDP=3.57D-03 MaxDP=2.63D-01 DE=-4.41D-02 OVMax= 2.14D-02

 Cycle   4  Pass 1  IDiag  1:
 RMSU=  1.13D-03    CP:  5.21D-01  1.39D+00  7.20D-01
 E= -463.249773639901     Delta-E=       -0.003901028015 Rises=F Damp=F
 DIIS: error= 1.85D-03 at cycle   4 NSaved=   4.
 NSaved= 4 IEnMin= 4 EnMin= -463.249773639901     IErMin= 4 ErrMin= 1.85D-03
 ErrMax= 1.85D-03  0.00D+00 EMaxC= 1.00D-01 BMatC= 2.89D-04 BMatP= 4.40D-03
 IDIUse=3 WtCom= 9.82D-01 WtEn= 1.85D-02
 Coeff-Com: -0.129D+00 0.277D+00 0.291D+00 0.562D+00
 Coeff-En:   0.000D+00 0.000D+00 0.000D+00 0.100D+01
 Coeff:     -0.127D+00 0.272D+00 0.285D+00 0.570D+00
 Gap=     0.328 Goal=   None    Shift=    0.000
 RMSDP=1.04D-03 MaxDP=5.96D-02 DE=-3.90D-03 OVMax= 5.64D-03

 Cycle   5  Pass 1  IDiag  1:
 RMSU=  3.73D-04    CP:  5.15D-01  1.39D+00  7.74D-01  5.38D-01
 E= -463.250077911767     Delta-E=       -0.000304271865 Rises=F Damp=F
 DIIS: error= 3.53D-04 at cycle   5 NSaved=   5.
 NSaved= 5 IEnMin= 5 EnMin= -463.250077911767     IErMin= 5 ErrMin= 3.53D-04
 ErrMax= 3.53D-04  0.00D+00 EMaxC= 1.00D-01 BMatC= 8.99D-06 BMatP= 2.89D-04
 IDIUse=3 WtCom= 9.96D-01 WtEn= 3.53D-03
 Coeff-Com:  0.276D-01-0.590D-01-0.320D-01 0.123D+00 0.940D+00
 Coeff-En:   0.000D+00 0.000D+00 0.000D+00 0.000D+00 0.100D+01
 Coeff:      0.275D-01-0.588D-01-0.319D-01 0.123D+00 0.941D+00
 Gap=     0.329 Goal=   None    Shift=    0.000
 RMSDP=2.59D-04 MaxDP=1.88D-02 DE=-3.04D-04 OVMax= 1.66D-03

 Cycle   6  Pass 1  IDiag  1:
 RMSU=  5.92D-05    CP:  5.14D-01  1.36D+00  8.02D-01  5.73D-01  1.25D+00
 E= -463.250090236025     Delta-E=       -0.000012324258 Rises=F Damp=F
 DIIS: error= 5.80D-05 at cycle   6 NSaved=   6.
 NSaved= 6 IEnMin= 6 EnMin= -463.250090236025     IErMin= 6 ErrMin= 5.80D-05
 ErrMax= 5.80D-05  0.00D+00 EMaxC= 1.00D-01 BMatC= 4.82D-07 BMatP= 8.99D-06
 IDIUse=1 WtCom= 1.00D+00 WtEn= 0.00D+00
 Coeff-Com:  0.121D-01-0.259D-01-0.164D-01 0.310D-01 0.330D+00 0.670D+00
 Coeff:      0.121D-01-0.259D-01-0.164D-01 0.310D-01 0.330D+00 0.670D+00
 Gap=     0.329 Goal=   None    Shift=    0.000
 RMSDP=5.84D-05 MaxDP=3.89D-03 DE=-1.23D-05 OVMax= 2.71D-04

 Cycle   7  Pass 1  IDiag  1:
 RMSU=  1.31D-05    CP:  5.14D-01  1.36D+00  8.06D-01  5.61D-01  1.33D+00
                    CP:  1.22D+00
 E= -463.250090811714     Delta-E=       -0.000000575688 Rises=F Damp=F
 DIIS: error= 1.83D-05 at cycle   7 NSaved=   7.
 NSaved= 7 IEnMin= 7 EnMin= -463.250090811714     IErMin= 7 ErrMin= 1.83D-05
 ErrMax= 1.83D-05  0.00D+00 EMaxC= 1.00D-01 BMatC= 5.59D-08 BMatP= 4.82D-07
 IDIUse=1 WtCom= 1.00D+00 WtEn= 0.00D+00
 Coeff-Com: -0.233D-02 0.501D-02 0.220D-02-0.186D-01-0.110D+00 0.171D+00
 Coeff-Com:  0.952D+00
 Coeff:     -0.233D-02 0.501D-02 0.220D-02-0.186D-01-0.110D+00 0.171D+00
 Coeff:      0.952D+00
 Gap=     0.329 Goal=   None    Shift=    0.000
 RMSDP=3.79D-05 MaxDP=2.41D-03 DE=-5.76D-07 OVMax= 2.06D-04

 Cycle   8  Pass 1  IDiag  1:
 RMSU=  3.84D-06    CP:  5.14D-01  1.36D+00  8.10D-01  5.51D-01  1.38D+00
                    CP:  1.42D+00  1.27D+00
 E= -463.250090915822     Delta-E=       -0.000000104108 Rises=F Damp=F
 DIIS: error= 3.67D-06 at cycle   8 NSaved=   8.
 NSaved= 8 IEnMin= 8 EnMin= -463.250090915822     IErMin= 8 ErrMin= 3.67D-06
 ErrMax= 3.67D-06  0.00D+00 EMaxC= 1.00D-01 BMatC= 1.35D-09 BMatP= 5.59D-08
 IDIUse=1 WtCom= 1.00D+00 WtEn= 0.00D+00
 Coeff-Com: -0.391D-03 0.834D-03 0.558D-03-0.159D-02-0.945D-02-0.115D-01
 Coeff-Com: -0.217D-01 0.104D+01
 Coeff:     -0.391D-03 0.834D-03 0.558D-03-0.159D-02-0.945D-02-0.115D-01
 Coeff:     -0.217D-01 0.104D+01
 Gap=     0.329 Goal=   None    Shift=    0.000
 RMSDP=9.15D-06 MaxDP=6.91D-04 DE=-1.04D-07 OVMax= 4.25D-05

 Cycle   9  Pass 1  IDiag  1:
 RMSU=  9.13D-07    CP:  5.14D-01  1.36D+00  8.10D-01  5.48D-01  1.39D+00
                    CP:  1.45D+00  1.37D+00  1.29D+00
 E= -463.250090919829     Delta-E=       -0.000000004007 Rises=F Damp=F
 DIIS: error= 1.90D-06 at cycle   9 NSaved=   9.
 NSaved= 9 IEnMin= 9 EnMin= -463.250090919829     IErMin= 9 ErrMin= 1.90D-06
 ErrMax= 1.90D-06  0.00D+00 EMaxC= 1.00D-01 BMatC= 3.21D-10 BMatP= 1.35D-09
 IDIUse=1 WtCom= 1.00D+00 WtEn= 0.00D+00
 Coeff-Com:  0.166D-03-0.359D-03-0.745D-04 0.190D-02 0.114D-01-0.238D-01
 Coeff-Com: -0.138D+00 0.368D+00 0.780D+00
 Coeff:      0.166D-03-0.359D-03-0.745D-04 0.190D-02 0.114D-01-0.238D-01
 Coeff:     -0.138D+00 0.368D+00 0.780D+00
 Gap=     0.329 Goal=   None    Shift=    0.000
 RMSDP=1.95D-06 MaxDP=1.32D-04 DE=-4.01D-09 OVMax= 1.83D-05

 Cycle  10  Pass 1  IDiag  1:
 RMSU=  2.25D-07    CP:  5.14D-01  1.36D+00  8.10D-01  5.48D-01  1.39D+00
                    CP:  1.46D+00  1.38D+00  1.38D+00  1.39D+00
 E= -463.250090920444     Delta-E=       -0.000000000615 Rises=F Damp=F
 DIIS: error= 3.67D-07 at cycle  10 NSaved=  10.
 NSaved=10 IEnMin=10 EnMin= -463.250090920444     IErMin=10 ErrMin= 3.67D-07
 ErrMax= 3.67D-07  0.00D+00 EMaxC= 1.00D-01 BMatC= 2.83D-11 BMatP= 3.21D-10
 IDIUse=1 WtCom= 1.00D+00 WtEn= 0.00D+00
 Coeff-Com:  0.628D-04-0.135D-03-0.527D-04 0.518D-03 0.276D-02-0.261D-02
 Coeff-Com: -0.255D-01-0.440D-01 0.193D+00 0.876D+00
 Coeff:      0.628D-04-0.135D-03-0.527D-04 0.518D-03 0.276D-02-0.261D-02
 Coeff:     -0.255D-01-0.440D-01 0.193D+00 0.876D+00
 Gap=     0.329 Goal=   None    Shift=    0.000
 RMSDP=2.56D-07 MaxDP=1.14D-05 DE=-6.15D-10 OVMax= 4.21D-06

 Cycle  11  Pass 1  IDiag  1:
 RMSU=  8.00D-08    CP:  5.14D-01  1.36D+00  8.10D-01  5.48D-01  1.39D+00
                    CP:  1.46D+00  1.39D+00  1.39D+00  1.53D+00  1.14D+00
 E= -463.250090920496     Delta-E=       -0.000000000052 Rises=F Damp=F
 DIIS: error= 1.18D-07 at cycle  11 NSaved=  11.
 NSaved=11 IEnMin=11 EnMin= -463.250090920496     IErMin=11 ErrMin= 1.18D-07
 ErrMax= 1.18D-07  0.00D+00 EMaxC= 1.00D-01 BMatC= 1.16D-12 BMatP= 2.83D-11
 IDIUse=1 WtCom= 1.00D+00 WtEn= 0.00D+00
 Coeff-Com: -0.165D-04 0.358D-04 0.138D-04-0.183D-03-0.112D-02 0.244D-02
 Coeff-Com:  0.119D-01-0.260D-01-0.434D-01-0.136D+00 0.119D+01
 Coeff:     -0.165D-04 0.358D-04 0.138D-04-0.183D-03-0.112D-02 0.244D-02
 Coeff:      0.119D-01-0.260D-01-0.434D-01-0.136D+00 0.119D+01
 Gap=     0.329 Goal=   None    Shift=    0.000
 RMSDP=2.30D-07 MaxDP=1.60D-05 DE=-5.23D-11 OVMax= 1.08D-06

 Cycle  12  Pass 1  IDiag  1:
 RMSU=  2.18D-08    CP:  5.14D-01  1.36D+00  8.10D-01  5.48D-01  1.39D+00
                    CP:  1.46D+00  1.38D+00  1.38D+00  1.59D+00  1.25D+00
                    CP:  1.25D+00
 E= -463.250090920501     Delta-E=       -0.000000000005 Rises=F Damp=F
 DIIS: error= 2.57D-08 at cycle  12 NSaved=  12.
 NSaved=12 IEnMin=12 EnMin= -463.250090920501     IErMin=12 ErrMin= 2.57D-08
 ErrMax= 2.57D-08  0.00D+00 EMaxC= 1.00D-01 BMatC= 9.38D-14 BMatP= 1.16D-12
 IDIUse=1 WtCom= 1.00D+00 WtEn= 0.00D+00
 Coeff-Com: -0.157D-05 0.332D-05 0.250D-05-0.800D-05-0.313D-04-0.234D-04
 Coeff-Com: -0.102D-03 0.437D-02 0.269D-03-0.559D-01-0.127D+00 0.118D+01
 Coeff:     -0.157D-05 0.332D-05 0.250D-05-0.800D-05-0.313D-04-0.234D-04
 Coeff:     -0.102D-03 0.437D-02 0.269D-03-0.559D-01-0.127D+00 0.118D+01
 Gap=     0.329 Goal=   None    Shift=    0.000
 RMSDP=5.04D-08 MaxDP=3.37D-06 DE=-5.46D-12 OVMax= 3.17D-07

 Cycle  13  Pass 1  IDiag  1:
 RMSU=  6.17D-09    CP:  5.14D-01  1.36D+00  8.10D-01  5.48D-01  1.39D+00
                    CP:  1.46D+00  1.38D+00  1.38D+00  1.59D+00  1.26D+00
                    CP:  1.31D+00  1.35D+00
 E= -463.250090920502     Delta-E=       -0.000000000000 Rises=F Damp=F
 DIIS: error= 5.73D-09 at cycle  13 NSaved=  13.
 NSaved=13 IEnMin=13 EnMin= -463.250090920502     IErMin=13 ErrMin= 5.73D-09
 ErrMax= 5.73D-09  0.00D+00 EMaxC= 1.00D-01 BMatC= 3.76D-15 BMatP= 9.38D-14
 IDIUse=1 WtCom= 1.00D+00 WtEn= 0.00D+00
 Coeff-Com:  0.698D-06-0.152D-05-0.588D-06 0.809D-05 0.532D-04-0.110D-03
 Coeff-Com: -0.623D-03 0.159D-02 0.332D-02 0.341D-03-0.726D-01 0.979D-01
 Coeff-Com:  0.970D+00
 Coeff:      0.698D-06-0.152D-05-0.588D-06 0.809D-05 0.532D-04-0.110D-03
 Coeff:     -0.623D-03 0.159D-02 0.332D-02 0.341D-03-0.726D-01 0.979D-01
 Coeff:      0.970D+00
 Gap=     0.329 Goal=   None    Shift=    0.000
 RMSDP=6.62D-09 MaxDP=5.83D-07 DE=-2.27D-13 OVMax= 6.90D-08

 SCF Done:  E(RwB97XD) =  -463.250090921     A.U. after   13 cycles
            NFock= 13  Conv=0.66D-08     -V/T= 2.0049
 KE= 4.610112935613D+02 PE=-2.272069762844D+03 EE= 7.488992363990D+02
 Leave Link  502 at Sat Nov  5 21:34:36 2022, MaxMem= 16106127360 cpu:             867.2 elap:              27.6
 (Enter /opt/ap/G16/B01/g16/l601.exe)
 Copying SCF densities to generalized density rwf, IOpCl= 0 IROHF=0.

 **********************************************************************

            Population analysis using the SCF Density.

 **********************************************************************

 Orbital symmetries:
       Occupied  (A) (A) (A) (A) (A) (A) (A) (A) (A) (A) (A) (A)
                 (A) (A) (A) (A) (A) (A) (A) (A) (A) (A) (A) (A)
                 (A) (A) (A) (A) (A) (A) (A) (A) (A) (A) (A) (A)
                 (A) (A) (A) (A) (A)
       Virtual   (A) (A) (A) (A) (A) (A) (A) (A) (A) (A) (A) (A)
                 (A) (A) (A) (A) (A) (A) (A) (A) (A) (A) (A) (A)
                 (A) (A) (A) (A) (A) (A) (A) (A) (A) (A) (A) (A)
                 (A) (A) (A) (A) (A) (A) (A) (A) (A) (A) (A) (A)
                 (A) (A) (A) (A) (A) (A) (A) (A) (A) (A) (A) (A)
                 (A) (A) (A) (A) (A) (A) (A) (A) (A) (A) (A) (A)
                 (A) (A) (A) (A) (A) (A) (A) (A) (A) (A) (A) (A)
                 (A) (A) (A) (A) (A) (A) (A) (A) (A) (A) (A) (A)
                 (A) (A) (A) (A) (A) (A) (A) (A) (A) (A) (A) (A)
                 (A) (A) (A) (A) (A) (A) (A) (A) (A) (A) (A) (A)
                 (A) (A) (A) (A) (A) (A) (A) (A) (A) (A) (A) (A)
                 (A) (A) (A) (A) (A) (A) (A) (A) (A) (A) (A) (A)
                 (A) (A) (A) (A) (A) (A) (A) (A) (A) (A) (A) (A)
                 (A) (A) (A) (A) (A) (A) (A) (A) (A) (A) (A) (A)
                 (A) (A) (A) (A) (A) (A) (A) (A) (A) (A) (A) (A)
                 (A) (A) (A) (A) (A) (A) (A) (A) (A) (A) (A) (A)
                 (A) (A) (A) (A) (A) (A) (A) (A) (A) (A) (A) (A)
                 (A) (A) (A) (A) (A) (A) (A) (A) (A) (A) (A) (A)
                 (A) (A) (A) (A) (A) (A) (A) (A) (A) (A) (A) (A)
                 (A) (A) (A) (A) (A) (A) (A) (A) (A) (A) (A) (A)
                 (A) (A) (A) (A) (A) (A) (A) (A) (A) (A) (A) (A)
                 (A) (A) (A) (A) (A) (A) (A) (A) (A) (A) (A) (A)
                 (A) (A) (A) (A) (A) (A) (A) (A) (A) (A) (A) (A)
                 (A) (A) (A) (A) (A) (A) (A) (A) (A) (A) (A) (A)
                 (A) (A) (A)
 The electronic state is 1-A.
 Alpha  occ. eigenvalues --  -10.30534 -10.30504 -10.29389 -10.29389 -10.29380
 Alpha  occ. eigenvalues --  -10.29380 -10.29303 -10.29303 -10.29299 -10.29299
 Alpha  occ. eigenvalues --  -10.29251 -10.29251  -0.97636  -0.95346  -0.88259
 Alpha  occ. eigenvalues --   -0.85478  -0.84704  -0.82390  -0.72402  -0.71800
 Alpha  occ. eigenvalues --   -0.68931  -0.67526  -0.62847  -0.59307  -0.56408
 Alpha  occ. eigenvalues --   -0.55664  -0.53222  -0.52880  -0.51523  -0.51023
 Alpha  occ. eigenvalues --   -0.50615  -0.47240  -0.45279  -0.45225  -0.43813
 Alpha  occ. eigenvalues --   -0.42301  -0.42030  -0.35929  -0.33535  -0.33472
 Alpha  occ. eigenvalues --   -0.30445
 Alpha virt. eigenvalues --    0.02441   0.03856   0.04555   0.04797   0.04832
 Alpha virt. eigenvalues --    0.05166   0.05860   0.05938   0.07361   0.07737
 Alpha virt. eigenvalues --    0.07747   0.08102   0.09400   0.09784   0.11825
 Alpha virt. eigenvalues --    0.12732   0.13203   0.13278   0.15121   0.15168
 Alpha virt. eigenvalues --    0.15825   0.15918   0.15965   0.16563   0.16849
 Alpha virt. eigenvalues --    0.17467   0.17486   0.17543   0.18091   0.18358
 Alpha virt. eigenvalues --    0.18705   0.18713   0.19209   0.19814   0.20071
 Alpha virt. eigenvalues --    0.20103   0.20683   0.22594   0.22692   0.22759
 Alpha virt. eigenvalues --    0.23162   0.23253   0.23776   0.23893   0.25185
 Alpha virt. eigenvalues --    0.25834   0.26235   0.26361   0.27589   0.27645
 Alpha virt. eigenvalues --    0.27790   0.28551   0.29294   0.29316   0.30607
 Alpha virt. eigenvalues --    0.30874   0.31113   0.31511   0.31986   0.32003
 Alpha virt. eigenvalues --    0.33634   0.34127   0.34712   0.34925   0.35417
 Alpha virt. eigenvalues --    0.35608   0.36215   0.36263   0.36871   0.37091
 Alpha virt. eigenvalues --    0.37232   0.38955   0.39839   0.41270   0.41779
 Alpha virt. eigenvalues --    0.42399   0.43017   0.43133   0.46480   0.47336
 Alpha virt. eigenvalues --    0.48294   0.56497   0.58254   0.59294   0.61366
 Alpha virt. eigenvalues --    0.61445   0.61468   0.62201   0.62598   0.63120
 Alpha virt. eigenvalues --    0.64192   0.64342   0.64474   0.65706   0.65780
 Alpha virt. eigenvalues --    0.66065   0.67467   0.68660   0.69215   0.69800
 Alpha virt. eigenvalues --    0.71327   0.71484   0.73226   0.74502   0.74896
 Alpha virt. eigenvalues --    0.76784   0.77393   0.77650   0.78242   0.78962
 Alpha virt. eigenvalues --    0.80763   0.81000   0.81159   0.82256   0.83156
 Alpha virt. eigenvalues --    0.83261   0.86858   0.87438   0.88146   0.89797
 Alpha virt. eigenvalues --    0.90026   0.91556   0.92767   0.93670   0.94431
 Alpha virt. eigenvalues --    0.95475   0.95495   0.96093   0.96861   0.97273
 Alpha virt. eigenvalues --    1.00055   1.00992   1.01033   1.01168   1.03402
 Alpha virt. eigenvalues --    1.05928   1.07033   1.08422   1.10168   1.11018
 Alpha virt. eigenvalues --    1.11127   1.13297   1.13945   1.16663   1.17572
 Alpha virt. eigenvalues --    1.19076   1.19344   1.21143   1.23832   1.24133
 Alpha virt. eigenvalues --    1.25317   1.39555   1.39586   1.40672   1.41866
 Alpha virt. eigenvalues --    1.54578   1.57337   1.57697   1.58331   1.59010
 Alpha virt. eigenvalues --    1.60613   1.61181   1.62279   1.62429   1.65188
 Alpha virt. eigenvalues --    1.65419   1.65630   1.66623   1.68365   1.70775
 Alpha virt. eigenvalues --    1.72474   1.74373   1.74377   1.75394   1.78297
 Alpha virt. eigenvalues --    1.79308   1.81777   1.82633   1.83876   1.85291
 Alpha virt. eigenvalues --    1.85835   1.86610   1.89746   1.92261   1.92628
 Alpha virt. eigenvalues --    1.93083   1.98508   1.99950   2.00129   2.01024
 Alpha virt. eigenvalues --    2.02196   2.03689   2.04116   2.04204   2.04932
 Alpha virt. eigenvalues --    2.05929   2.08185   2.08892   2.09647   2.10973
 Alpha virt. eigenvalues --    2.12224   2.14422   2.16688   2.16929   2.17111
 Alpha virt. eigenvalues --    2.23556   2.32311   2.35024   2.36519   2.42765
 Alpha virt. eigenvalues --    2.43341   2.49302   2.49782   2.52162   2.52985
 Alpha virt. eigenvalues --    2.54949   2.56316   2.56696   2.57632   2.60918
 Alpha virt. eigenvalues --    2.70996   2.72477   2.75028   2.75900   2.78069
 Alpha virt. eigenvalues --    2.78360   2.79693   2.80129   2.80400   2.82373
 Alpha virt. eigenvalues --    2.82445   2.82492   2.83960   2.85578   2.86686
 Alpha virt. eigenvalues --    2.88919   2.89028   2.89733   2.90851   2.91996
 Alpha virt. eigenvalues --    2.92950   2.93189   2.96654   2.98832   3.00365
 Alpha virt. eigenvalues --    3.03090   3.03832   3.03995   3.04334   3.09722
 Alpha virt. eigenvalues --    3.14762   3.19323   3.21030   3.28867   3.30034
 Alpha virt. eigenvalues --    3.32462   3.44978   3.46555   3.46941   3.48883
 Alpha virt. eigenvalues --    3.59028   3.60559   3.63127   3.63403   3.68039
 Alpha virt. eigenvalues --    3.73574   3.75034   3.88681   4.08396   4.10817
 Alpha virt. eigenvalues --    4.13431   4.14520   4.24243   4.24821   4.26799
 Alpha virt. eigenvalues --    4.27604   4.57445   4.92542   4.95489  23.69966
 Alpha virt. eigenvalues --   23.84874  24.07107  24.09128  24.09608  24.10374
 Alpha virt. eigenvalues --   24.18097  24.20791  24.22219  24.22461  24.30699
 Alpha virt. eigenvalues --   24.31985
          Condensed to atoms (all electrons):
               1          2          3          4          5          6
     1  C   19.779378   0.519301   0.516780  -1.708644  -0.012376  -7.983805
     2  C    0.519301  15.263176  -5.385593  -0.862416   0.603546  -3.367288
     3  C    0.516780  -5.385593  15.254653  -0.553269  -0.048384  -3.357358
     4  C   -1.708644  -0.862416  -0.553269   6.714445  -0.069612   1.713402
     5  H   -0.012376   0.603546  -0.048384  -0.069612   0.497793  -0.100386
     6  C   -7.983805  -3.367288  -3.357358   1.713402  -0.100386  19.780227
     7  C   -1.708723  -0.551511  -0.861742   0.381900  -0.020810   1.711773
     8  H   -0.012508  -0.048351   0.603464  -0.020853   0.000351  -0.100156
     9  C    0.204144   0.727458   0.726611  -0.236352   0.038771  -1.450375
    10  H    0.028587  -0.133881  -0.006307   0.448123  -0.012967   0.054229
    11  C   -3.365967   0.570758  -1.066137   0.322685  -0.047830   0.519936
    12  C   -3.357894  -1.066225   0.574415   0.200504  -0.016180   0.515816
    13  H    0.028498  -0.006327  -0.133718   0.025039  -0.000328   0.054212
    14  H    0.035757   0.012230   0.012234  -0.057661   0.000583  -0.036717
    15  C    1.713755   0.321749   0.201497  -0.019436   0.012054  -1.709266
    16  H   -0.100278  -0.047852  -0.016208   0.012051  -0.000129  -0.012480
    17  C    1.711174   0.200541   0.322215  -0.108927   0.023896  -1.708015
    18  H   -0.100160  -0.016186  -0.047732   0.023914  -0.002004  -0.012499
    19  C   -1.450022  -0.132438  -0.132659   0.052957  -0.017647   0.204281
    20  H    0.054228   0.000536   0.006523  -0.000876   0.000748   0.028593
    21  H    0.054180   0.006489   0.000576  -0.000988   0.000511   0.028518
    22  H   -0.036714  -0.003464  -0.003496   0.001399  -0.000466   0.035757
               7          8          9         10         11         12
     1  C   -1.708723  -0.012508   0.204144   0.028587  -3.365967  -3.357894
     2  C   -0.551511  -0.048351   0.727458  -0.133881   0.570758  -1.066225
     3  C   -0.861742   0.603464   0.726611  -0.006307  -1.066137   0.574415
     4  C    0.381900  -0.020853  -0.236352   0.448123   0.322685   0.200504
     5  H   -0.020810   0.000351   0.038771  -0.012967  -0.047830  -0.016180
     6  C    1.711773  -0.100156  -1.450375   0.054229   0.519936   0.515816
     7  C    6.713742  -0.069624  -0.235942   0.025007   0.201370   0.321412
     8  H   -0.069624   0.497797   0.038755  -0.000329  -0.016211  -0.047764
     9  C   -0.235942   0.038755   6.608034  -0.097877  -0.132842  -0.132192
    10  H    0.025007  -0.000329  -0.097877   0.480721   0.000573   0.006498
    11  C    0.201370  -0.016211  -0.132842   0.000573  15.263913  -5.386688
    12  C    0.321412  -0.047764  -0.132192   0.006498  -5.386688  15.255673
    13  H    0.448060  -0.012961  -0.097875   0.000918   0.006512   0.000541
    14  H   -0.057657   0.000584   0.438025  -0.009300  -0.003491  -0.003468
    15  C   -0.108866   0.023936   0.052909  -0.000869  -0.864567  -0.551191
    16  H    0.023913  -0.002007  -0.017652   0.000749   0.603739  -0.048501
    17  C   -0.019028   0.012016   0.052865  -0.000987  -0.552251  -0.860636
    18  H    0.012012  -0.000130  -0.017641   0.000512  -0.048346   0.603339
    19  C    0.052790  -0.017652  -0.025600   0.000025   0.728483   0.725128
    20  H   -0.000985   0.000512   0.000025   0.000112  -0.133948  -0.006228
    21  H   -0.000861   0.000749   0.000025   0.000011  -0.006340  -0.133680
    22  H    0.001394  -0.000466  -0.000647   0.000009   0.012284   0.012171
              13         14         15         16         17         18
     1  C    0.028498   0.035757   1.713755  -0.100278   1.711174  -0.100160
     2  C   -0.006327   0.012230   0.321749  -0.047852   0.200541  -0.016186
     3  C   -0.133718   0.012234   0.201497  -0.016208   0.322215  -0.047732
     4  C    0.025039  -0.057661  -0.019436   0.012051  -0.108927   0.023914
     5  H   -0.000328   0.000583   0.012054  -0.000129   0.023896  -0.002004
     6  C    0.054212  -0.036717  -1.709266  -0.012480  -1.708015  -0.012499
     7  C    0.448060  -0.057657  -0.108866   0.023913  -0.019028   0.012012
     8  H   -0.012961   0.000584   0.023936  -0.002007   0.012016  -0.000130
     9  C   -0.097875   0.438025   0.052909  -0.017652   0.052865  -0.017641
    10  H    0.000918  -0.009300  -0.000869   0.000749  -0.000987   0.000512
    11  C    0.006512  -0.003491  -0.864567   0.603739  -0.552251  -0.048346
    12  C    0.000541  -0.003468  -0.551191  -0.048501  -0.860636   0.603339
    13  H    0.480717  -0.009300  -0.000989   0.000512  -0.000869   0.000748
    14  H   -0.009300   0.474778   0.001397  -0.000466   0.001396  -0.000466
    15  C   -0.000989   0.001397   6.715162  -0.069656   0.381673  -0.020817
    16  H    0.000512  -0.000466  -0.069656   0.497780  -0.020808   0.000349
    17  C   -0.000869   0.001396   0.381673  -0.020808   6.713160  -0.069568
    18  H    0.000748  -0.000466  -0.020817   0.000349  -0.069568   0.497794
    19  C    0.000025  -0.000647  -0.236460   0.038778  -0.235488   0.038724
    20  H    0.000011   0.000009   0.448146  -0.012966   0.024993  -0.000327
    21  H    0.000112   0.000009   0.025016  -0.000328   0.448024  -0.012962
    22  H    0.000009  -0.000011  -0.057701   0.000584  -0.057617   0.000582
              19         20         21         22
     1  C   -1.450022   0.054228   0.054180  -0.036714
     2  C   -0.132438   0.000536   0.006489  -0.003464
     3  C   -0.132659   0.006523   0.000576  -0.003496
     4  C    0.052957  -0.000876  -0.000988   0.001399
     5  H   -0.017647   0.000748   0.000511  -0.000466
     6  C    0.204281   0.028593   0.028518   0.035757
     7  C    0.052790  -0.000985  -0.000861   0.001394
     8  H   -0.017652   0.000512   0.000749  -0.000466
     9  C   -0.025600   0.000025   0.000025  -0.000647
    10  H    0.000025   0.000112   0.000011   0.000009
    11  C    0.728483  -0.133948  -0.006340   0.012284
    12  C    0.725128  -0.006228  -0.133680   0.012171
    13  H    0.000025   0.000011   0.000112   0.000009
    14  H   -0.000647   0.000009   0.000009  -0.000011
    15  C   -0.236460   0.448146   0.025016  -0.057701
    16  H    0.038778  -0.012966  -0.000328   0.000584
    17  C   -0.235488   0.024993   0.448024  -0.057617
    18  H    0.038724  -0.000327  -0.012962   0.000582
    19  C    6.607646  -0.097889  -0.097836   0.438031
    20  H   -0.097889   0.480722   0.000917  -0.009302
    21  H   -0.097836   0.000917   0.480716  -0.009298
    22  H    0.438031  -0.009302  -0.009298   0.474779
 Mulliken charges:
               1
     1  C    1.191309
     2  C   -0.604251
     3  C   -0.606365
     4  C   -0.257384
     5  H    0.170865
     6  C    1.191600
     7  C   -0.257623
     8  H    0.170847
     9  C   -0.442628
    10  H    0.216442
    11  C   -0.605633
    12  C   -0.604851
    13  H    0.216453
    14  H    0.202181
    15  C   -0.257477
    16  H    0.170876
    17  C   -0.257761
    18  H    0.170863
    19  C   -0.442531
    20  H    0.216447
    21  H    0.216440
    22  H    0.202183
 Sum of Mulliken charges =  -0.00000
 Mulliken charges with hydrogens summed into heavy atoms:
               1
     1  C    1.191309
     2  C   -0.433387
     3  C   -0.435519
     4  C   -0.040941
     6  C    1.191600
     7  C   -0.041170
     9  C   -0.240448
    11  C   -0.434757
    12  C   -0.433988
    15  C   -0.041031
    17  C   -0.041321
    19  C   -0.240349
 Electronic spatial extent (au):  <R**2>=           2311.9643
 Charge=             -0.0000 electrons
 Dipole moment (field-independent basis, Debye):
    X=              0.0000    Y=             -0.0001    Z=              0.0004  Tot=              0.0004
 Quadrupole moment (field-independent basis, Debye-Ang):
   XX=            -61.5788   YY=            -62.9999   ZZ=            -76.1044
   XY=              0.0003   XZ=             -0.0005   YZ=             -0.0001
 Traceless Quadrupole moment (field-independent basis, Debye-Ang):
   XX=              5.3156   YY=              3.8945   ZZ=             -9.2100
   XY=              0.0003   XZ=             -0.0005   YZ=             -0.0001
 Octapole moment (field-independent basis, Debye-Ang**2):
  XXX=              0.0005  YYY=             -0.0010  ZZZ=              0.0016  XYY=             -0.0003
  XXY=             -0.0010  XXZ=              0.0018  XZZ=              0.0004  YZZ=             -0.0005
  YYZ=              0.0023  XYZ=            -12.0866
 Hexadecapole moment (field-independent basis, Debye-Ang**3):
 XXXX=          -2299.9437 YYYY=           -497.4691 ZZZZ=           -158.4328 XXXY=              0.0001
 XXXZ=             -0.0197 YYYX=              0.0072 YYYZ=             -0.0002 ZZZX=             -0.0001
 ZZZY=             -0.0002 XXYY=           -475.6670 XXZZ=           -500.3042 YYZZ=           -114.1677
 XXYZ=             -0.0019 YYXZ=              0.0021 ZZXY=             -0.0040
 N-N= 5.989091419637D+02 E-N=-2.272069762526D+03  KE= 4.610112935613D+02
 No NMR shielding tensors so no spin-rotation constants.
 Leave Link  601 at Sat Nov  5 21:34:37 2022, MaxMem= 16106127360 cpu:               4.1 elap:               0.2
 (Enter /opt/ap/G16/B01/g16/l9999.exe)
 1\1\GINC-N05\SP\RwB97XD\6-311++G(d,p)\C12H10\ROOT\05-Nov-2022\0\\#P wB
 97XD/6-311++G(d,p) scf=maxcycle=512\\_conf010.gjf nmol_natom 1_22\\0,1
 \C\C,1,1.40491871\C,1,1.40495292,2,118.20503621\C,2,1.3939373,1,120.91
 08946,3,0.05365643,0\H,2,1.08593095,1,119.3452094,3,-178.3624307,0\C,1
 ,1.48449301,2,120.90144423,4,-179.96388019,0\C,3,1.39389842,1,120.9105
 0598,2,0.03587687,0\H,3,1.08593608,1,119.34159615,2,-178.38281524,0\C,
 4,1.39606958,2,120.24555868,1,-0.09283196,0\H,4,1.08627898,2,119.66792
 041,1,-179.51486187,0\C,6,1.40492034,1,120.90156908,2,-40.,0\C,6,1.404
 95329,1,120.89324856,2,140.,0\H,7,1.08627928,3,119.67027175,1,-179.512
 58183,0\H,9,1.08597601,4,120.2602535,2,-179.95233103,0\C,11,1.39393437
 ,6,120.91099656,1,-179.95869964,0\H,11,1.08593173,6,119.34475907,1,1.6
 1891886,0\C,12,1.39390147,6,120.91022615,1,-179.94297913,0\H,12,1.0859
 3608,6,119.34175044,1,1.63241608,0\C,15,1.39607161,11,120.24535737,6,-
 0.10315482,0\H,15,1.08627786,11,119.66861247,6,-179.51844254,0\H,17,1.
 08627825,12,119.6702798,6,-179.51590091,0\H,19,1.08597601,15,120.25988
 597,11,-179.94731581,0\\Version=ES64L-G16RevB.01\State=1-A\HF=-463.250
 0909\RMSD=6.625e-09\Dipole=0.0000009,-0.0001455,-0.0000264\Quadrupole=
 3.3721539,-5.7070927,2.3349387,1.609342,0.9683188,-2.6869733\PG=C01 [X
 (C12H10)]\\@


 THE MORE ACCURATE THE CALCULATIONS BECOME, THE MORE THE CONCEPTS
 TEND TO VANISH INTO THIN AIR.
     -- R.S. MULLIKEN, J.C.P. 43,S2(1965)
 Job cpu time:       0 days  0 hours 15 minutes 10.8 seconds.
 Elapsed time:       0 days  0 hours  0 minutes 29.0 seconds.
 File lengths (MBytes):  RWF=     62 Int=      0 D2E=      0 Chk=      8 Scr=      1
 Normal termination of Gaussian 16 at Sat Nov  5 21:34:37 2022.
