 Entering Gaussian System, Link 0=g16
 Input=_conf000.gjf
 Output=_conf000.log
 Initial command:
 /opt/ap/G16/B01/g16/l1.exe "/tmp2/scr/Gau-12600.inp" -scrdir="/tmp2/scr/"
 Entering Link 1 = /opt/ap/G16/B01/g16/l1.exe PID=     12601.
  
 Copyright (c) 1988-2017, Gaussian, Inc.  All Rights Reserved.
  
 This is part of the Gaussian(R) 16 program.  It is based on
 the Gaussian(R) 09 system (copyright 2009, Gaussian, Inc.),
 the Gaussian(R) 03 system (copyright 2003, Gaussian, Inc.),
 the Gaussian(R) 98 system (copyright 1998, Gaussian, Inc.),
 the Gaussian(R) 94 system (copyright 1995, Gaussian, Inc.),
 the Gaussian 92(TM) system (copyright 1992, Gaussian, Inc.),
 the Gaussian 90(TM) system (copyright 1990, Gaussian, Inc.),
 the Gaussian 88(TM) system (copyright 1988, Gaussian, Inc.),
 the Gaussian 86(TM) system (copyright 1986, Carnegie Mellon
 University), and the Gaussian 82(TM) system (copyright 1983,
 Carnegie Mellon University). Gaussian is a federally registered
 trademark of Gaussian, Inc.
  
 This software contains proprietary and confidential information,
 including trade secrets, belonging to Gaussian, Inc.
  
 This software is provided under written license and may be
 used, copied, transmitted, or stored only in accord with that
 written license.
  
 The following legend is applicable only to US Government
 contracts under FAR:
  
                    RESTRICTED RIGHTS LEGEND
  
 Use, reproduction and disclosure by the US Government is
 subject to restrictions as set forth in subparagraphs (a)
 and (c) of the Commercial Computer Software - Restricted
 Rights clause in FAR 52.227-19.
  
 Gaussian, Inc.
 340 Quinnipiac St., Bldg. 40, Wallingford CT 06492
  
  
 ---------------------------------------------------------------
 Warning -- This program may not be used in any manner that
 competes with the business of Gaussian, Inc. or will provide
 assistance to any competitor of Gaussian, Inc.  The licensee
 of this program is prohibited from giving any competitor of
 Gaussian, Inc. access to this program.  By using this program,
 the user acknowledges that Gaussian, Inc. is engaged in the
 business of creating and licensing software in the field of
 computational chemistry and represents and warrants to the
 licensee that it is not a competitor of Gaussian, Inc. and that
 it will not use this program in any manner prohibited above.
 ---------------------------------------------------------------
  

 Cite this work as:
 Gaussian 16, Revision B.01,
 M. J. Frisch, G. W. Trucks, H. B. Schlegel, G. E. Scuseria, 
 M. A. Robb, J. R. Cheeseman, G. Scalmani, V. Barone, 
 G. A. Petersson, H. Nakatsuji, X. Li, M. Caricato, A. V. Marenich, 
 J. Bloino, B. G. Janesko, R. Gomperts, B. Mennucci, H. P. Hratchian, 
 J. V. Ortiz, A. F. Izmaylov, J. L. Sonnenberg, D. Williams-Young, 
 F. Ding, F. Lipparini, F. Egidi, J. Goings, B. Peng, A. Petrone, 
 T. Henderson, D. Ranasinghe, V. G. Zakrzewski, J. Gao, N. Rega, 
 G. Zheng, W. Liang, M. Hada, M. Ehara, K. Toyota, R. Fukuda, 
 J. Hasegawa, M. Ishida, T. Nakajima, Y. Honda, O. Kitao, H. Nakai, 
 T. Vreven, K. Throssell, J. A. Montgomery, Jr., J. E. Peralta, 
 F. Ogliaro, M. J. Bearpark, J. J. Heyd, E. N. Brothers, K. N. Kudin, 
 V. N. Staroverov, T. A. Keith, R. Kobayashi, J. Normand, 
 K. Raghavachari, A. P. Rendell, J. C. Burant, S. S. Iyengar, 
 J. Tomasi, M. Cossi, J. M. Millam, M. Klene, C. Adamo, R. Cammi, 
 J. W. Ochterski, R. L. Martin, K. Morokuma, O. Farkas, 
 J. B. Foresman, and D. J. Fox, Gaussian, Inc., Wallingford CT, 2016.
 
 ******************************************
 Gaussian 16:  ES64L-G16RevB.01 20-Dec-2017
                 5-Nov-2022 
 ******************************************
 %nprocshared=32
 Will use up to   32 processors via shared memory.
 %mem=120GB
 %chk=_conf000.chk
 ----------------------------------------
 #P wB97XD/6-311++G(d,p) scf=maxcycle=512
 ----------------------------------------
 1/38=1,172=1/1;
 2/12=2,17=6,18=5,40=1/2;
 3/5=4,6=6,7=1111,11=2,25=1,30=1,74=-58/1,2,3;
 4//1;
 5/5=2,7=512,38=5/2;
 6/7=2,8=2,9=2,10=2,28=1/1;
 99/5=1,9=1/99;
 Leave Link    1 at Sat Nov  5 21:33:17 2022, MaxMem= 16106127360 cpu:               2.8 elap:               0.1
 (Enter /opt/ap/G16/B01/g16/l101.exe)
 ----------------------------
 _conf000.gjf nmol_natom 1_22
 ----------------------------
 Symbolic Z-matrix:
 Charge =  0 Multiplicity = 1
 C
 C                    1     1.40492 
 C                    1     1.40495  2     118.20504 
 C                    2     1.39394  1     120.91089  3     0.05366  0
 H                    2     1.08593  1     119.34521  3    -178.36243  0
 C                    1     1.48449  2     120.90144  4    -179.96388  0
 C                    3     1.3939   1     120.91051  2     0.03588  0
 H                    3     1.08594  1     119.3416  2    -178.38282  0
 C                    4     1.39607  2     120.24556  1    -0.09283  0
 H                    4     1.08628  2     119.66792  1    -179.51486  0
 C                    6     1.40492  1     120.90157  2    -90.      0
 C                    6     1.40495  1     120.89325  2     90.      0
 H                    7     1.08628  3     119.67027  1    -179.51258  0
 H                    9     1.08598  4     120.26025  2    -179.95233  0
 C                    11    1.39393  6     120.911  1    -179.9587  0
 H                    11    1.08593  6     119.34476  1     1.61892  0
 C                    12    1.3939   6     120.91023  1    -179.94298  0
 H                    12    1.08594  6     119.34175  1     1.63242  0
 C                    15    1.39607  11    120.24536  6    -0.10315  0
 H                    15    1.08628  11    119.66861  6    -179.51844  0
 H                    17    1.08628  12    119.67028  6    -179.5159  0
 H                    19    1.08598  15    120.25989  11   -179.94732  0
 
 ITRead=  0  0  0  0  0  0  0  0  0  0  0  0  0  0  0  0  0  0  0  0
 ITRead=  0  0
 MicOpt= -1 -1 -1 -1 -1 -1 -1 -1 -1 -1 -1 -1 -1 -1 -1 -1 -1 -1 -1 -1
 MicOpt= -1 -1
 NAtoms=     22 NQM=       22 NQMF=       0 NMMI=      0 NMMIF=      0
                NMic=       0 NMicF=      0.
                    Isotopes and Nuclear Properties:
 (Nuclear quadrupole moments (NQMom) in fm**2, nuclear magnetic moments (NMagM)
  in nuclear magnetons)

  Atom         1           2           3           4           5           6           7           8           9          10
 IAtWgt=          12          12          12          12           1          12          12           1          12           1
 AtmWgt=  12.0000000  12.0000000  12.0000000  12.0000000   1.0078250  12.0000000  12.0000000   1.0078250  12.0000000   1.0078250
 NucSpn=           0           0           0           0           1           0           0           1           0           1
 AtZEff=  -0.0000000  -0.0000000  -0.0000000  -0.0000000  -0.0000000  -0.0000000  -0.0000000  -0.0000000  -0.0000000  -0.0000000
 NQMom=    0.0000000   0.0000000   0.0000000   0.0000000   0.0000000   0.0000000   0.0000000   0.0000000   0.0000000   0.0000000
 NMagM=    0.0000000   0.0000000   0.0000000   0.0000000   2.7928460   0.0000000   0.0000000   2.7928460   0.0000000   2.7928460
 AtZNuc=   6.0000000   6.0000000   6.0000000   6.0000000   1.0000000   6.0000000   6.0000000   1.0000000   6.0000000   1.0000000

  Atom        11          12          13          14          15          16          17          18          19          20
 IAtWgt=          12          12           1           1          12           1          12           1          12           1
 AtmWgt=  12.0000000  12.0000000   1.0078250   1.0078250  12.0000000   1.0078250  12.0000000   1.0078250  12.0000000   1.0078250
 NucSpn=           0           0           1           1           0           1           0           1           0           1
 AtZEff=  -0.0000000  -0.0000000  -0.0000000  -0.0000000  -0.0000000  -0.0000000  -0.0000000  -0.0000000  -0.0000000  -0.0000000
 NQMom=    0.0000000   0.0000000   0.0000000   0.0000000   0.0000000   0.0000000   0.0000000   0.0000000   0.0000000   0.0000000
 NMagM=    0.0000000   0.0000000   2.7928460   2.7928460   0.0000000   2.7928460   0.0000000   2.7928460   0.0000000   2.7928460
 AtZNuc=   6.0000000   6.0000000   1.0000000   1.0000000   6.0000000   1.0000000   6.0000000   1.0000000   6.0000000   1.0000000

  Atom        21          22
 IAtWgt=           1           1
 AtmWgt=   1.0078250   1.0078250
 NucSpn=           1           1
 AtZEff=  -0.0000000  -0.0000000
 NQMom=    0.0000000   0.0000000
 NMagM=    2.7928460   2.7928460
 AtZNuc=   1.0000000   1.0000000
 Leave Link  101 at Sat Nov  5 21:33:17 2022, MaxMem= 16106127360 cpu:               6.3 elap:               0.2
 (Enter /opt/ap/G16/B01/g16/l202.exe)
                          Input orientation:                          
 ---------------------------------------------------------------------
 Center     Atomic      Atomic             Coordinates (Angstroms)
 Number     Number       Type             X           Y           Z
 ---------------------------------------------------------------------
      1          6           0        0.000000    0.000000    0.000000
      2          6           0        0.000000    0.000000    1.404919
      3          6           0        1.238131    0.000000   -0.664020
      4          6           0        1.195952    0.001120    2.120990
      5          1           0       -0.946201   -0.027051    1.937101
      6          6           0       -1.273772   -0.000390   -0.762381
      7          6           0        2.434381   -0.000749    0.051479
      8          1           0        1.259850    0.026715   -1.749411
      9          6           0        2.418826    0.000311    1.447501
     10          1           0        1.172413   -0.006894    3.206985
     11          6           0       -1.892503   -1.206072   -1.132925
     12          6           0       -1.893105    1.205047   -1.132844
     13          1           0        3.380326    0.007295   -0.482493
     14          1           0        3.350700    0.000403    2.005133
     15          6           0       -3.088128   -1.206668   -1.849538
     16          1           0       -1.443807   -2.148511   -0.833377
     17          6           0       -3.089756    1.205094   -1.847678
     18          1           0       -1.417246    2.147662   -0.879287
     19          6           0       -3.692718   -0.000937   -2.209674
     20          1           0       -3.553157   -2.150732   -2.118776
     21          1           0       -3.547092    2.148930   -2.130552
     22          1           0       -4.624640   -0.001126   -2.767227
 ---------------------------------------------------------------------
                    Distance matrix (angstroms):
                    1          2          3          4          5
     1  C    0.000000
     2  C    1.404919   0.000000
     3  C    1.404953   2.411116   0.000000
     4  C    2.434934   1.393937   2.785330   0.000000
     5  H    2.156012   1.085931   3.396745   2.150216   0.000000
     6  C    1.484493   2.513898   2.513829   3.796494   2.719415
     7  C    2.434925   2.785320   1.393898   2.411760   3.870994
     8  H    2.156008   3.396723   1.085936   3.871013   4.296501
     9  C    2.818861   2.419201   2.419207   1.396070   3.400568
    10  H    3.414579   2.149893   3.871569   1.086279   2.470128
    11  C    2.513901   3.387747   3.387529   4.645840   3.422082
    12  C    2.513826   3.387657   3.387709   4.645336   3.440822
    13  H    3.414594   3.871560   2.149884   3.398478   4.957262
    14  H    3.904837   3.404035   3.404016   2.157861   4.297527
    15  C    3.796494   4.645865   4.645214   5.964661   4.507547
    16  H    2.719411   3.422082   3.440578   4.507497   3.524735
    17  C    3.796414   4.645237   4.645848   5.963822   4.520793
    18  H    2.719225   3.440732   3.421962   4.520853   3.589332
    19  C    4.303351   5.167345   5.167429   6.530985   4.973911
    20  H    4.662595   5.446742   5.449625   6.720129   5.268433
    21  H    4.662511   5.449708   5.446740   6.721991   5.295784
    22  H    5.389327   6.228491   6.228609   7.600919   5.971792
                    6          7          8          9         10
     6  C    0.000000
     7  C    3.796415   0.000000
     8  H    2.719228   2.150228   0.000000
     9  C    4.303354   1.396108   3.400612   0.000000
    10  H    4.662588   3.398502   4.957280   2.156243   0.000000
    11  C    1.404920   4.645163   3.440515   5.167351   5.446701
    12  C    1.404953   4.645826   3.421950   5.167428   5.449799
    13  H    4.662512   1.086279   2.470197   2.156248   4.299689
    14  H    5.389330   2.157871   4.297551   1.085976   2.487858
    15  C    2.434934   5.963741   4.520638   6.530988   6.720125
    16  H    2.156010   4.520641   3.588940   4.973909   5.268363
    17  C    2.434925   5.964641   4.507471   6.531017   6.721950
    18  H    2.156010   4.507441   3.524539   4.973983   5.295854
    19  C    2.818858   6.531015   4.973986   7.122212   7.280778
    20  H    3.414583   6.721834   5.295540   7.280790   7.435777
    21  H    3.414594   6.720148   5.268373   7.280879   7.443830
    22  H    3.904834   7.600979   5.971930   8.208188   8.324486
                   11         12         13         14         15
    11  C    0.000000
    12  C    2.411119   0.000000
    13  H    5.449591   5.446709   0.000000
    14  H    6.228497   6.228608   2.487812   0.000000
    15  C    1.393934   2.785336   6.721860   7.600922   0.000000
    16  H    1.085932   3.396748   5.295553   5.971790   2.150219
    17  C    2.785320   1.393901   6.720149   7.600981   2.411763
    18  H    3.396725   1.085936   5.268331   5.971927   3.871016
    19  C    2.419198   2.419208   7.280877   8.208188   1.396072
    20  H    2.149897   3.871575   7.443634   8.324498   1.086278
    21  H    3.871558   2.149886   7.435846   8.324638   3.398478
    22  H    3.404029   3.404019   8.324636   9.294164   2.157859
                   16         17         18         19         20
    16  H    0.000000
    17  C    3.870997   0.000000
    18  H    4.296501   2.150234   0.000000
    19  C    3.400569   1.396107   3.400615   0.000000
    20  H    2.470145   3.398500   4.957282   2.156238   0.000000
    21  H    4.957264   1.086278   2.470204   2.156245   4.299683
    22  H    4.297527   2.157871   4.297556   1.085976   2.487844
                   21         22
    21  H    0.000000
    22  H    2.487812   0.000000
 Stoichiometry    C12H10
 Framework group  C1[X(C12H10)]
 Deg. of freedom    60
 Full point group                 C1      NOp   1
 Largest Abelian subgroup         C1      NOp   1
 Largest concise Abelian subgroup C1      NOp   1
                         Standard orientation:                         
 ---------------------------------------------------------------------
 Center     Atomic      Atomic             Coordinates (Angstroms)
 Number     Number       Type             X           Y           Z
 ---------------------------------------------------------------------
      1          6           0       -0.742246    0.000081   -0.000133
      2          6           0       -1.463685   -0.852318   -0.852622
      3          6           0       -1.463686    0.852335    0.852557
      4          6           0       -2.857622   -0.851918   -0.853471
      5          1           0       -0.925042   -1.537758   -1.500142
      6          6           0        0.742247    0.000049    0.000029
      7          6           0       -2.857584    0.851869    0.853485
      8          1           0       -0.924968    1.537644    1.500161
      9          6           0       -3.561107   -0.000028   -0.000006
     10          1           0       -3.395091   -1.525029   -1.515325
     11          6           0        1.463653   -0.852376    0.852523
     12          6           0        1.463718    0.852537   -0.852401
     13          1           0       -3.395085    1.524860    1.515435
     14          1           0       -4.647083   -0.000072    0.000082
     15          6           0        2.857587   -0.851959    0.853448
     16          1           0        0.924974   -1.537775    1.500058
     17          6           0        2.857619    0.851958   -0.853382
     18          1           0        0.925028    1.538042   -1.499820
     19          6           0        3.561105   -0.000177   -0.000101
     20          1           0        3.395038   -1.525044    1.515341
     21          1           0        3.395150    1.525092   -1.515161
     22          1           0        4.647081   -0.000269   -0.000185
 ---------------------------------------------------------------------
 Rotational constants (GHZ):           2.8585222           0.5084317           0.5082038
 Leave Link  202 at Sat Nov  5 21:33:17 2022, MaxMem= 16106127360 cpu:               0.3 elap:               0.0
 (Enter /opt/ap/G16/B01/g16/l301.exe)
 Standard basis: 6-311++G(d,p) (5D, 7F)
 Ernie: Thresh=  0.10000D-02 Tol=  0.10000D-05 Strict=F.
 There are   346 symmetry adapted cartesian basis functions of A   symmetry.
 There are   334 symmetry adapted basis functions of A   symmetry.
   334 basis functions,   522 primitive gaussians,   346 cartesian basis functions
    41 alpha electrons       41 beta electrons
       nuclear repulsion energy       597.8466614493 Hartrees.
 IExCor= 4639 DFT=T Ex+Corr=wB97XD ExCW=0 ScaHFX=  1.000000
 ScaDFX=  1.000000  1.000000  1.000000  1.000000 ScalE2=  1.000000  1.000000
 IRadAn=      5 IRanWt=     -1 IRanGd=            0 ICorTp=0 IEmpDi=121
 HFx  wShort=  0.000000 wLong=  0.200000 cFull=  0.222036 cShort=  0.000000 cLong=  0.777964
 DFx  wShort=  0.000000 wLong=  0.200000 cFull=  0.000000 cShort=  0.000000 cLong=  1.000000
 NAtoms=   22 NActive=   22 NUniq=   22 SFac= 1.00D+00 NAtFMM=   60 NAOKFM=F Big=F
 Integral buffers will be    131072 words long.
 Raffenetti 2 integral format.
 Two-electron integral symmetry is turned on.
 R6Disp:  Grimme-D2 Dispersion energy=       -0.0118506265 Hartrees.
 Nuclear repulsion after empirical dispersion term =      597.8348108227 Hartrees.
 Leave Link  301 at Sat Nov  5 21:33:17 2022, MaxMem= 16106127360 cpu:               3.0 elap:               0.1
 (Enter /opt/ap/G16/B01/g16/l302.exe)
 NPDir=0 NMtPBC=     1 NCelOv=     1 NCel=       1 NClECP=     1 NCelD=      1
         NCelK=      1 NCelE2=     1 NClLst=     1 CellRange=     0.0.
 One-electron integrals computed using PRISM.
 One-electron integral symmetry used in STVInt
 NBasis=   334 RedAO= T EigKep=  1.86D-06  NBF=   334
 NBsUse=   332 1.00D-06 EigRej=  8.54D-07 NBFU=   332
 Precomputing XC quadrature grid using
 IXCGrd= 4 IRadAn=           5 IRanWt=          -1 IRanGd=           0 AccXCQ= 0.00D+00.
 Generated NRdTot=       0 NPtTot=           0 NUsed=           0 NTot=          32
 NSgBfM=   346   346   346   346   346 MxSgAt=    22 MxSgA2=    22.
 Leave Link  302 at Sat Nov  5 21:33:18 2022, MaxMem= 16106127360 cpu:              11.1 elap:               0.4
 (Enter /opt/ap/G16/B01/g16/l303.exe)
 DipDrv:  MaxL=1.
 Leave Link  303 at Sat Nov  5 21:33:18 2022, MaxMem= 16106127360 cpu:               3.9 elap:               0.1
 (Enter /opt/ap/G16/B01/g16/l401.exe)
 ExpMin= 3.60D-02 ExpMax= 4.56D+03 ExpMxC= 6.82D+02 IAcc=3 IRadAn=         5 AccDes= 0.00D+00
 Harris functional with IExCor= 4639 and IRadAn=       5 diagonalized for initial guess.
 HarFok:  IExCor= 4639 AccDes= 0.00D+00 IRadAn=         5 IDoV= 1 UseB2=F ITyADJ=14
 ICtDFT=  3500011 ScaDFX=  1.000000  1.000000  1.000000  1.000000
 FoFCou: FMM=F IPFlag=           0 FMFlag=      100000 FMFlg1=           0
         NFxFlg=           0 DoJE=T BraDBF=F KetDBF=T FulRan=T
         wScrn=  0.000000 ICntrl=       500 IOpCl=  0 I1Cent=   200000004 NGrid=           0
         NMat0=    1 NMatS0=      1 NMatT0=    0 NMatD0=    1 NMtDS0=    0 NMtDT0=    0
 Petite list used in FoFCou.
 Harris En= -441.936756623748    
 JPrj=0 DoOrth=F DoCkMO=F.
 Leave Link  401 at Sat Nov  5 21:33:19 2022, MaxMem= 16106127360 cpu:              20.2 elap:               0.6
 (Enter /opt/ap/G16/B01/g16/l502.exe)
 Integral symmetry usage will be decided dynamically.
 Closed shell SCF:
 Using DIIS extrapolation, IDIIS=  1040.
 NGot= 16106127360 LenX= 16105873520 LenY= 16105753363
 Requested convergence on RMS density matrix=1.00D-08 within 512 cycles.
 Requested convergence on MAX density matrix=1.00D-06.
 Requested convergence on             energy=1.00D-06.
 No special actions if energy rises.
 Fock matrices will be formed incrementally for  20 cycles.

 Cycle   1  Pass 1  IDiag  1:
 FoFJK:  IHMeth= 1 ICntrl=       0 DoSepK=T KAlg= 0 I1Cent=           0 FoldK=F
 IRaf=         1 NMat=       1 IRICut=       1 DoRegI=T DoRafI=F ISym2E= 0 IDoP0=0 IntGTp=1.
 FoFCou: FMM=F IPFlag=           0 FMFlag=      100000 FMFlg1=           0
         NFxFlg=           0 DoJE=T BraDBF=F KetDBF=F FulRan=T
         wScrn=  0.000000 ICntrl=       500 IOpCl=  0 I1Cent=           0 NGrid=           0
         NMat0=    1 NMatS0=      1 NMatT0=    0 NMatD0=    1 NMtDS0=    0 NMtDT0=    0
 Symmetry not used in FoFCou.
 E= -463.150635807400    
 DIIS: error= 6.03D-02 at cycle   1 NSaved=   1.
 NSaved= 1 IEnMin= 1 EnMin= -463.150635807400     IErMin= 1 ErrMin= 6.03D-02
 ErrMax= 6.03D-02  0.00D+00 EMaxC= 1.00D-01 BMatC= 9.52D-01 BMatP= 9.52D-01
 IDIUse=3 WtCom= 3.97D-01 WtEn= 6.03D-01
 Coeff-Com:  0.100D+01
 Coeff-En:   0.100D+01
 Coeff:      0.100D+01
 Gap=     0.371 Goal=   None    Shift=    0.000
 GapD=    0.371 DampG=1.000 DampE=0.500 DampFc=0.5000 IDamp=-1.
 Damping current iteration by 5.00D-01
 RMSDP=5.41D-02 MaxDP=3.31D+00              OVMax= 3.88D-02

 Cycle   2  Pass 1  IDiag  1:
 RMSU=  4.46D-03    CP:  7.67D-01
 E= -463.199512886493     Delta-E=       -0.048877079093 Rises=F Damp=T
 DIIS: error= 2.90D-02 at cycle   2 NSaved=   2.
 NSaved= 2 IEnMin= 2 EnMin= -463.199512886493     IErMin= 2 ErrMin= 2.90D-02
 ErrMax= 2.90D-02  0.00D+00 EMaxC= 1.00D-01 BMatC= 2.16D-01 BMatP= 9.52D-01
 IDIUse=3 WtCom= 7.10D-01 WtEn= 2.90D-01
 Coeff-Com: -0.882D+00 0.188D+01
 Coeff-En:   0.000D+00 0.100D+01
 Coeff:     -0.627D+00 0.163D+01
 Gap=     0.377 Goal=   None    Shift=    0.000
 RMSDP=2.58D-02 MaxDP=1.66D+00 DE=-4.89D-02 OVMax= 3.57D-02

 Cycle   3  Pass 1  IDiag  1:
 RMSU=  4.59D-03    CP:  5.45D-01  1.17D+00
 E= -463.242750641322     Delta-E=       -0.043237754829 Rises=F Damp=F
 DIIS: error= 4.91D-03 at cycle   3 NSaved=   3.
 NSaved= 3 IEnMin= 3 EnMin= -463.242750641322     IErMin= 3 ErrMin= 4.91D-03
 ErrMax= 4.91D-03  0.00D+00 EMaxC= 1.00D-01 BMatC= 5.05D-03 BMatP= 2.16D-01
 IDIUse=3 WtCom= 9.51D-01 WtEn= 4.91D-02
 Coeff-Com: -0.379D+00 0.805D+00 0.574D+00
 Coeff-En:   0.000D+00 0.000D+00 0.100D+01
 Coeff:     -0.360D+00 0.766D+00 0.595D+00
 Gap=     0.371 Goal=   None    Shift=    0.000
 RMSDP=3.04D-03 MaxDP=2.27D-01 DE=-4.32D-02 OVMax= 2.21D-02

 Cycle   4  Pass 1  IDiag  1:
 RMSU=  8.19D-04    CP:  5.25D-01  1.47D+00  7.34D-01
 E= -463.247283950835     Delta-E=       -0.004533309512 Rises=F Damp=F
 DIIS: error= 1.79D-03 at cycle   4 NSaved=   4.
 NSaved= 4 IEnMin= 4 EnMin= -463.247283950835     IErMin= 4 ErrMin= 1.79D-03
 ErrMax= 1.79D-03  0.00D+00 EMaxC= 1.00D-01 BMatC= 2.99D-04 BMatP= 5.05D-03
 IDIUse=3 WtCom= 9.82D-01 WtEn= 1.79D-02
 Coeff-Com: -0.137D+00 0.292D+00 0.284D+00 0.561D+00
 Coeff-En:   0.000D+00 0.000D+00 0.000D+00 0.100D+01
 Coeff:     -0.134D+00 0.286D+00 0.279D+00 0.569D+00
 Gap=     0.369 Goal=   None    Shift=    0.000
 RMSDP=9.96D-04 MaxDP=6.34D-02 DE=-4.53D-03 OVMax= 5.14D-03

 Cycle   5  Pass 1  IDiag  1:
 RMSU=  2.63D-04    CP:  5.17D-01  1.46D+00  8.11D-01  6.18D-01
 E= -463.247597561042     Delta-E=       -0.000313610207 Rises=F Damp=F
 DIIS: error= 2.51D-04 at cycle   5 NSaved=   5.
 NSaved= 5 IEnMin= 5 EnMin= -463.247597561042     IErMin= 5 ErrMin= 2.51D-04
 ErrMax= 2.51D-04  0.00D+00 EMaxC= 1.00D-01 BMatC= 8.25D-06 BMatP= 2.99D-04
 IDIUse=3 WtCom= 9.97D-01 WtEn= 2.51D-03
 Coeff-Com:  0.269D-01-0.575D-01-0.279D-01 0.116D+00 0.942D+00
 Coeff-En:   0.000D+00 0.000D+00 0.000D+00 0.000D+00 0.100D+01
 Coeff:      0.269D-01-0.573D-01-0.279D-01 0.116D+00 0.942D+00
 Gap=     0.367 Goal=   None    Shift=    0.000
 RMSDP=2.32D-04 MaxDP=1.17D-02 DE=-3.14D-04 OVMax= 1.04D-03

 Cycle   6  Pass 1  IDiag  1:
 RMSU=  5.27D-05    CP:  5.17D-01  1.44D+00  8.49D-01  6.97D-01  1.25D+00
 E= -463.247608333511     Delta-E=       -0.000010772470 Rises=F Damp=F
 DIIS: error= 7.45D-05 at cycle   6 NSaved=   6.
 NSaved= 6 IEnMin= 6 EnMin= -463.247608333511     IErMin= 6 ErrMin= 7.45D-05
 ErrMax= 7.45D-05  0.00D+00 EMaxC= 1.00D-01 BMatC= 5.56D-07 BMatP= 8.25D-06
 IDIUse=1 WtCom= 1.00D+00 WtEn= 0.00D+00
 Coeff-Com:  0.128D-01-0.273D-01-0.157D-01 0.305D-01 0.354D+00 0.646D+00
 Coeff:      0.128D-01-0.273D-01-0.157D-01 0.305D-01 0.354D+00 0.646D+00
 Gap=     0.367 Goal=   None    Shift=    0.000
 RMSDP=4.73D-05 MaxDP=3.19D-03 DE=-1.08D-05 OVMax= 2.56D-04

 Cycle   7  Pass 1  IDiag  1:
 RMSU=  1.16D-05    CP:  5.17D-01  1.43D+00  8.55D-01  6.95D-01  1.30D+00
                    CP:  1.11D+00
 E= -463.247608941664     Delta-E=       -0.000000608153 Rises=F Damp=F
 DIIS: error= 1.42D-05 at cycle   7 NSaved=   7.
 NSaved= 7 IEnMin= 7 EnMin= -463.247608941664     IErMin= 7 ErrMin= 1.42D-05
 ErrMax= 1.42D-05  0.00D+00 EMaxC= 1.00D-01 BMatC= 4.90D-08 BMatP= 5.56D-07
 IDIUse=1 WtCom= 1.00D+00 WtEn= 0.00D+00
 Coeff-Com: -0.198D-02 0.426D-02 0.192D-02-0.165D-01-0.982D-01 0.142D+00
 Coeff-Com:  0.968D+00
 Coeff:     -0.198D-02 0.426D-02 0.192D-02-0.165D-01-0.982D-01 0.142D+00
 Coeff:      0.968D+00
 Gap=     0.367 Goal=   None    Shift=    0.000
 RMSDP=2.90D-05 MaxDP=1.78D-03 DE=-6.08D-07 OVMax= 1.04D-04

 Cycle   8  Pass 1  IDiag  1:
 RMSU=  3.05D-06    CP:  5.17D-01  1.43D+00  8.60D-01  6.96D-01  1.34D+00
                    CP:  1.25D+00  1.28D+00
 E= -463.247609020937     Delta-E=       -0.000000079272 Rises=F Damp=F
 DIIS: error= 4.89D-06 at cycle   8 NSaved=   8.
 NSaved= 8 IEnMin= 8 EnMin= -463.247609020937     IErMin= 8 ErrMin= 4.89D-06
 ErrMax= 4.89D-06  0.00D+00 EMaxC= 1.00D-01 BMatC= 1.97D-09 BMatP= 4.90D-08
 IDIUse=1 WtCom= 1.00D+00 WtEn= 0.00D+00
 Coeff-Com: -0.505D-03 0.108D-02 0.713D-03-0.273D-02-0.159D-01 0.165D-02
 Coeff-Com:  0.305D-01 0.985D+00
 Coeff:     -0.505D-03 0.108D-02 0.713D-03-0.273D-02-0.159D-01 0.165D-02
 Coeff:      0.305D-01 0.985D+00
 Gap=     0.367 Goal=   None    Shift=    0.000
 RMSDP=5.07D-06 MaxDP=3.63D-04 DE=-7.93D-08 OVMax= 2.64D-05

 Cycle   9  Pass 1  IDiag  1:
 RMSU=  3.83D-07    CP:  5.17D-01  1.43D+00  8.60D-01  6.95D-01  1.35D+00
                    CP:  1.26D+00  1.36D+00  1.25D+00
 E= -463.247609025150     Delta-E=       -0.000000004214 Rises=F Damp=F
 DIIS: error= 2.50D-06 at cycle   9 NSaved=   9.
 NSaved= 9 IEnMin= 9 EnMin= -463.247609025150     IErMin= 9 ErrMin= 2.50D-06
 ErrMax= 2.50D-06  0.00D+00 EMaxC= 1.00D-01 BMatC= 3.56D-10 BMatP= 1.97D-09
 IDIUse=1 WtCom= 1.00D+00 WtEn= 0.00D+00
 Coeff-Com:  0.186D-03-0.403D-03-0.627D-04 0.192D-02 0.124D-01-0.187D-01
 Coeff-Com: -0.166D+00 0.303D+00 0.868D+00
 Coeff:      0.186D-03-0.403D-03-0.627D-04 0.192D-02 0.124D-01-0.187D-01
 Coeff:     -0.166D+00 0.303D+00 0.868D+00
 Gap=     0.367 Goal=   None    Shift=    0.000
 RMSDP=1.68D-06 MaxDP=9.69D-05 DE=-4.21D-09 OVMax= 1.62D-05

 Cycle  10  Pass 1  IDiag  1:
 RMSU=  2.20D-07    CP:  5.17D-01  1.43D+00  8.60D-01  6.95D-01  1.35D+00
                    CP:  1.27D+00  1.39D+00  1.37D+00  1.19D+00
 E= -463.247609026083     Delta-E=       -0.000000000932 Rises=F Damp=F
 DIIS: error= 4.52D-07 at cycle  10 NSaved=  10.
 NSaved=10 IEnMin=10 EnMin= -463.247609026083     IErMin=10 ErrMin= 4.52D-07
 ErrMax= 4.52D-07  0.00D+00 EMaxC= 1.00D-01 BMatC= 4.64D-11 BMatP= 3.56D-10
 IDIUse=1 WtCom= 1.00D+00 WtEn= 0.00D+00
 Coeff-Com:  0.715D-04-0.153D-03-0.640D-04 0.531D-03 0.284D-02-0.964D-03
 Coeff-Com: -0.259D-01-0.104D+00 0.186D+00 0.942D+00
 Coeff:      0.715D-04-0.153D-03-0.640D-04 0.531D-03 0.284D-02-0.964D-03
 Coeff:     -0.259D-01-0.104D+00 0.186D+00 0.942D+00
 Gap=     0.367 Goal=   None    Shift=    0.000
 RMSDP=3.86D-07 MaxDP=3.00D-05 DE=-9.32D-10 OVMax= 4.35D-06

 Cycle  11  Pass 1  IDiag  1:
 RMSU=  7.48D-08    CP:  5.17D-01  1.43D+00  8.60D-01  6.95D-01  1.35D+00
                    CP:  1.27D+00  1.39D+00  1.38D+00  1.33D+00  1.26D+00
 E= -463.247609026160     Delta-E=       -0.000000000077 Rises=F Damp=F
 DIIS: error= 1.22D-07 at cycle  11 NSaved=  11.
 NSaved=11 IEnMin=11 EnMin= -463.247609026160     IErMin=11 ErrMin= 1.22D-07
 ErrMax= 1.22D-07  0.00D+00 EMaxC= 1.00D-01 BMatC= 1.35D-12 BMatP= 4.64D-11
 IDIUse=1 WtCom= 1.00D+00 WtEn= 0.00D+00
 Coeff-Com: -0.193D-04 0.418D-04 0.148D-04-0.191D-03-0.128D-02 0.204D-02
 Coeff-Com:  0.152D-01-0.204D-01-0.533D-01-0.127D+00 0.118D+01
 Coeff:     -0.193D-04 0.418D-04 0.148D-04-0.191D-03-0.128D-02 0.204D-02
 Coeff:      0.152D-01-0.204D-01-0.533D-01-0.127D+00 0.118D+01
 Gap=     0.367 Goal=   None    Shift=    0.000
 RMSDP=2.83D-07 MaxDP=2.02D-05 DE=-7.71D-11 OVMax= 1.29D-06

 Cycle  12  Pass 1  IDiag  1:
 RMSU=  1.80D-08    CP:  5.17D-01  1.43D+00  8.60D-01  6.95D-01  1.35D+00
                    CP:  1.27D+00  1.38D+00  1.36D+00  1.37D+00  1.37D+00
                    CP:  1.25D+00
 E= -463.247609026173     Delta-E=       -0.000000000013 Rises=F Damp=F
 DIIS: error= 1.56D-08 at cycle  12 NSaved=  12.
 NSaved=12 IEnMin=12 EnMin= -463.247609026173     IErMin=12 ErrMin= 1.56D-08
 ErrMax= 1.56D-08  0.00D+00 EMaxC= 1.00D-01 BMatC= 4.81D-14 BMatP= 1.35D-12
 IDIUse=1 WtCom= 1.00D+00 WtEn= 0.00D+00
 Coeff-Com: -0.170D-05 0.359D-05 0.206D-05-0.836D-05-0.466D-04-0.300D-04
 Coeff-Com:  0.170D-03 0.449D-02-0.148D-02-0.425D-01-0.599D-01 0.110D+01
 Coeff:     -0.170D-05 0.359D-05 0.206D-05-0.836D-05-0.466D-04-0.300D-04
 Coeff:      0.170D-03 0.449D-02-0.148D-02-0.425D-01-0.599D-01 0.110D+01
 Gap=     0.367 Goal=   None    Shift=    0.000
 RMSDP=5.65D-08 MaxDP=3.78D-06 DE=-1.27D-11 OVMax= 2.19D-07

 Cycle  13  Pass 1  IDiag  1:
 RMSU=  4.50D-09    CP:  5.17D-01  1.43D+00  8.60D-01  6.95D-01  1.35D+00
                    CP:  1.27D+00  1.38D+00  1.36D+00  1.37D+00  1.38D+00
                    CP:  1.28D+00  1.27D+00
 E= -463.247609026172     Delta-E=        0.000000000000 Rises=F Damp=F
 DIIS: error= 2.95D-09 at cycle  13 NSaved=  13.
 NSaved=13 IEnMin=12 EnMin= -463.247609026173     IErMin=13 ErrMin= 2.95D-09
 ErrMax= 2.95D-09  0.00D+00 EMaxC= 1.00D-01 BMatC= 1.92D-15 BMatP= 4.81D-14
 IDIUse=1 WtCom= 1.00D+00 WtEn= 0.00D+00
 Coeff-Com:  0.527D-06-0.115D-05-0.542D-06 0.608D-05 0.402D-04-0.720D-04
 Coeff-Com: -0.522D-03 0.116D-02 0.219D-02-0.667D-03-0.495D-01 0.108D+00
 Coeff-Com:  0.939D+00
 Coeff:      0.527D-06-0.115D-05-0.542D-06 0.608D-05 0.402D-04-0.720D-04
 Coeff:     -0.522D-03 0.116D-02 0.219D-02-0.667D-03-0.495D-01 0.108D+00
 Coeff:      0.939D+00
 Gap=     0.367 Goal=   None    Shift=    0.000
 RMSDP=4.81D-09 MaxDP=1.79D-07 DE= 4.55D-13 OVMax= 2.42D-08

 SCF Done:  E(RwB97XD) =  -463.247609026     A.U. after   13 cycles
            NFock= 13  Conv=0.48D-08     -V/T= 2.0049
 KE= 4.610097478362D+02 PE=-2.270005418880D+03 EE= 7.479132511947D+02
 Leave Link  502 at Sat Nov  5 21:33:43 2022, MaxMem= 16106127360 cpu:             768.0 elap:              24.2
 (Enter /opt/ap/G16/B01/g16/l601.exe)
 Copying SCF densities to generalized density rwf, IOpCl= 0 IROHF=0.

 **********************************************************************

            Population analysis using the SCF Density.

 **********************************************************************

 Orbital symmetries:
       Occupied  (A) (A) (A) (A) (A) (A) (A) (A) (A) (A) (A) (A)
                 (A) (A) (A) (A) (A) (A) (A) (A) (A) (A) (A) (A)
                 (A) (A) (A) (A) (A) (A) (A) (A) (A) (A) (A) (A)
                 (A) (A) (A) (A) (A)
       Virtual   (A) (A) (A) (A) (A) (A) (A) (A) (A) (A) (A) (A)
                 (A) (A) (A) (A) (A) (A) (A) (A) (A) (A) (A) (A)
                 (A) (A) (A) (A) (A) (A) (A) (A) (A) (A) (A) (A)
                 (A) (A) (A) (A) (A) (A) (A) (A) (A) (A) (A) (A)
                 (A) (A) (A) (A) (A) (A) (A) (A) (A) (A) (A) (A)
                 (A) (A) (A) (A) (A) (A) (A) (A) (A) (A) (A) (A)
                 (A) (A) (A) (A) (A) (A) (A) (A) (A) (A) (A) (A)
                 (A) (A) (A) (A) (A) (A) (A) (A) (A) (A) (A) (A)
                 (A) (A) (A) (A) (A) (A) (A) (A) (A) (A) (A) (A)
                 (A) (A) (A) (A) (A) (A) (A) (A) (A) (A) (A) (A)
                 (A) (A) (A) (A) (A) (A) (A) (A) (A) (A) (A) (A)
                 (A) (A) (A) (A) (A) (A) (A) (A) (A) (A) (A) (A)
                 (A) (A) (A) (A) (A) (A) (A) (A) (A) (A) (A) (A)
                 (A) (A) (A) (A) (A) (A) (A) (A) (A) (A) (A) (A)
                 (A) (A) (A) (A) (A) (A) (A) (A) (A) (A) (A) (A)
                 (A) (A) (A) (A) (A) (A) (A) (A) (A) (A) (A) (A)
                 (A) (A) (A) (A) (A) (A) (A) (A) (A) (A) (A) (A)
                 (A) (A) (A) (A) (A) (A) (A) (A) (A) (A) (A) (A)
                 (A) (A) (A) (A) (A) (A) (A) (A) (A) (A) (A) (A)
                 (A) (A) (A) (A) (A) (A) (A) (A) (A) (A) (A) (A)
                 (A) (A) (A) (A) (A) (A) (A) (A) (A) (A) (A) (A)
                 (A) (A) (A) (A) (A) (A) (A) (A) (A) (A) (A) (A)
                 (A) (A) (A) (A) (A) (A) (A) (A) (A) (A) (A) (A)
                 (A) (A) (A) (A) (A) (A) (A) (A) (A) (A) (A) (A)
                 (A) (A) (A)
 The electronic state is 1-A.
 Alpha  occ. eigenvalues --  -10.30369 -10.30339 -10.29303 -10.29303 -10.29289
 Alpha  occ. eigenvalues --  -10.29289 -10.29228 -10.29228 -10.29216 -10.29216
 Alpha  occ. eigenvalues --  -10.29195 -10.29195  -0.97482  -0.95285  -0.88138
 Alpha  occ. eigenvalues --   -0.84953  -0.84948  -0.82375  -0.72292  -0.70279
 Alpha  occ. eigenvalues --   -0.70253  -0.67460  -0.62456  -0.59623  -0.55702
 Alpha  occ. eigenvalues --   -0.54582  -0.54575  -0.53477  -0.50940  -0.50906
 Alpha  occ. eigenvalues --   -0.50744  -0.45938  -0.45802  -0.45563  -0.42837
 Alpha  occ. eigenvalues --   -0.42800  -0.41818  -0.33783  -0.33084  -0.32907
 Alpha  occ. eigenvalues --   -0.32893
 Alpha virt. eigenvalues --    0.03852   0.03993   0.04552   0.04861   0.04896
 Alpha virt. eigenvalues --    0.05536   0.05569   0.05983   0.06523   0.06892
 Alpha virt. eigenvalues --    0.07421   0.07452   0.09115   0.09173   0.12604
 Alpha virt. eigenvalues --    0.12650   0.13359   0.13781   0.14425   0.15078
 Alpha virt. eigenvalues --    0.15726   0.15775   0.15871   0.16151   0.17137
 Alpha virt. eigenvalues --    0.17191   0.17357   0.17412   0.17445   0.17485
 Alpha virt. eigenvalues --    0.18722   0.18943   0.18950   0.19265   0.19332
 Alpha virt. eigenvalues --    0.20306   0.20728   0.22016   0.22153   0.22166
 Alpha virt. eigenvalues --    0.22645   0.23063   0.23102   0.24411   0.25000
 Alpha virt. eigenvalues --    0.25132   0.26089   0.26108   0.27152   0.27241
 Alpha virt. eigenvalues --    0.27325   0.27925   0.30210   0.30423   0.30951
 Alpha virt. eigenvalues --    0.31028   0.31700   0.31727   0.31895   0.32989
 Alpha virt. eigenvalues --    0.33567   0.33977   0.34212   0.34246   0.35333
 Alpha virt. eigenvalues --    0.35482   0.35724   0.35835   0.37541   0.37583
 Alpha virt. eigenvalues --    0.37708   0.37983   0.39369   0.40779   0.42942
 Alpha virt. eigenvalues --    0.43104   0.44641   0.44695   0.45542   0.47941
 Alpha virt. eigenvalues --    0.48574   0.56260   0.58858   0.60602   0.60652
 Alpha virt. eigenvalues --    0.60749   0.61531   0.61597   0.62964   0.63068
 Alpha virt. eigenvalues --    0.63538   0.63605   0.63715   0.65901   0.65903
 Alpha virt. eigenvalues --    0.66028   0.66381   0.67770   0.69837   0.69967
 Alpha virt. eigenvalues --    0.72932   0.72955   0.74697   0.74827   0.75115
 Alpha virt. eigenvalues --    0.75199   0.77581   0.79003   0.81085   0.81096
 Alpha virt. eigenvalues --    0.81274   0.81700   0.82012   0.82106   0.83041
 Alpha virt. eigenvalues --    0.85377   0.86225   0.86266   0.88833   0.89822
 Alpha virt. eigenvalues --    0.90965   0.92176   0.93489   0.93572   0.93780
 Alpha virt. eigenvalues --    0.95493   0.96108   0.96736   0.97115   0.97681
 Alpha virt. eigenvalues --    0.98072   1.01145   1.01582   1.03815   1.04182
 Alpha virt. eigenvalues --    1.07001   1.09227   1.09815   1.10025   1.10526
 Alpha virt. eigenvalues --    1.10715   1.14034   1.14175   1.14709   1.16283
 Alpha virt. eigenvalues --    1.16962   1.20350   1.24506   1.26360   1.28293
 Alpha virt. eigenvalues --    1.28758   1.37698   1.40134   1.41672   1.46220
 Alpha virt. eigenvalues --    1.46263   1.58152   1.58613   1.58790   1.59651
 Alpha virt. eigenvalues --    1.60434   1.60768   1.63698   1.64816   1.65104
 Alpha virt. eigenvalues --    1.65576   1.65649   1.66206   1.72311   1.72874
 Alpha virt. eigenvalues --    1.73165   1.73449   1.73838   1.73982   1.74068
 Alpha virt. eigenvalues --    1.82568   1.82771   1.85711   1.85834   1.86184
 Alpha virt. eigenvalues --    1.86247   1.86711   1.87437   1.92169   1.92226
 Alpha virt. eigenvalues --    1.93177   1.94383   1.98238   1.99033   1.99673
 Alpha virt. eigenvalues --    2.03771   2.04083   2.04274   2.04449   2.04552
 Alpha virt. eigenvalues --    2.05830   2.09287   2.10402   2.12531   2.12783
 Alpha virt. eigenvalues --    2.13619   2.16009   2.16701   2.18703   2.19346
 Alpha virt. eigenvalues --    2.19440   2.30737   2.34880   2.34986   2.38359
 Alpha virt. eigenvalues --    2.48097   2.51328   2.51765   2.52185   2.52992
 Alpha virt. eigenvalues --    2.55146   2.55203   2.55998   2.57750   2.68764
 Alpha virt. eigenvalues --    2.69204   2.71045   2.72822   2.73556   2.75518
 Alpha virt. eigenvalues --    2.79002   2.79607   2.80428   2.81377   2.81377
 Alpha virt. eigenvalues --    2.82991   2.83111   2.83113   2.84518   2.84538
 Alpha virt. eigenvalues --    2.85885   2.87911   2.90972   2.91595   2.92058
 Alpha virt. eigenvalues --    2.92136   2.97609   2.97688   2.98780   2.98869
 Alpha virt. eigenvalues --    3.02197   3.03955   3.04011   3.05038   3.13875
 Alpha virt. eigenvalues --    3.14334   3.22362   3.22665   3.26480   3.26583
 Alpha virt. eigenvalues --    3.40429   3.43936   3.44077   3.48936   3.48982
 Alpha virt. eigenvalues --    3.58964   3.59217   3.64456   3.64779   3.69871
 Alpha virt. eigenvalues --    3.73451   3.75901   3.95003   4.09159   4.09285
 Alpha virt. eigenvalues --    4.13382   4.14854   4.25030   4.25075   4.25333
 Alpha virt. eigenvalues --    4.26072   4.48243   4.94072   4.94198  23.71270
 Alpha virt. eigenvalues --   23.85530  24.06843  24.08973  24.08978  24.11442
 Alpha virt. eigenvalues --   24.17418  24.22189  24.22235  24.23863  24.30881
 Alpha virt. eigenvalues --   24.32638
          Condensed to atoms (all electrons):
               1          2          3          4          5          6
     1  C   19.170595   1.470892   1.470370  -1.719251   0.115588  -7.519096
     2  C    1.470892  11.600011  -2.196563  -0.097841   0.368540  -3.748767
     3  C    1.470370  -2.196563  11.595482  -1.057928   0.079938  -3.745033
     4  C   -1.719251  -0.097841  -1.057928   6.600196  -0.107119   1.377259
     5  H    0.115588   0.368540   0.079938  -0.107119   0.467366  -0.078911
     6  C   -7.519096  -3.748767  -3.745033   1.377259  -0.078911  19.170962
     7  C   -1.718930  -1.057792  -0.095995   0.218785  -0.014290   1.375502
     8  H    0.115565   0.079977   0.368468  -0.014303   0.000035  -0.078847
     9  C   -0.077755   0.578946   0.577936   0.133108   0.018503  -1.386812
    10  H    0.029275  -0.101395  -0.024311   0.436093  -0.012015   0.043508
    11  C   -3.748066  -0.298618  -0.381453   0.255602  -0.037444   1.470870
    12  C   -3.745039  -0.381313  -0.298037   0.271317  -0.034237   1.470426
    13  H    0.029245  -0.024334  -0.101301   0.015932  -0.000091   0.043499
    14  H    0.033110   0.021761   0.021768  -0.052654   0.000832  -0.036993
    15  C    1.377376   0.255374   0.271769  -0.035975   0.015445  -1.719735
    16  H   -0.078932  -0.037457  -0.034251   0.015437  -0.000229   0.115666
    17  C    1.374945   0.271032   0.255265  -0.028946   0.014816  -1.718426
    18  H   -0.078791  -0.034235  -0.037405   0.014830  -0.000217   0.115477
    19  C   -1.386653  -0.151564  -0.151808   0.039320  -0.014663  -0.077693
    20  H    0.043503   0.003531   0.004948  -0.000649   0.000343   0.029257
    21  H    0.043493   0.004926   0.003549  -0.000421   0.000330   0.029259
    22  H   -0.036990  -0.004723  -0.004741   0.001024  -0.000486   0.033113
               7          8          9         10         11         12
     1  C   -1.718930   0.115565  -0.077755   0.029275  -3.748066  -3.745039
     2  C   -1.057792   0.079977   0.578946  -0.101395  -0.298618  -0.381313
     3  C   -0.095995   0.368468   0.577936  -0.024311  -0.381453  -0.298037
     4  C    0.218785  -0.014303   0.133108   0.436093   0.255602   0.271317
     5  H   -0.014290   0.000035   0.018503  -0.012015  -0.037444  -0.034237
     6  C    1.375502  -0.078847  -1.386812   0.043508   1.470870   1.470426
     7  C    6.599274  -0.107087   0.133584   0.015917   0.271274   0.255275
     8  H   -0.107087   0.467365   0.018499  -0.000091  -0.034200  -0.037469
     9  C    0.133584   0.018499   6.374682  -0.080986  -0.151783  -0.151590
    10  H    0.015917  -0.000091  -0.080986   0.480181   0.003549   0.004928
    11  C    0.271274  -0.034200  -0.151783   0.003549  11.599796  -2.196856
    12  C    0.255275  -0.037469  -0.151590   0.004928  -2.196856  11.595111
    13  H    0.436054  -0.012014  -0.081002   0.000226   0.004934   0.003544
    14  H   -0.052671   0.000832   0.411227  -0.008609  -0.004733  -0.004730
    15  C   -0.028878   0.014850   0.039274  -0.000645  -0.098103  -1.057763
    16  H    0.014826  -0.000218  -0.014662   0.000343   0.368532   0.079965
    17  C   -0.035720   0.015390   0.039201  -0.000418  -1.057545  -0.095381
    18  H    0.015412  -0.000225  -0.014658   0.000330   0.079932   0.368456
    19  C    0.039157  -0.014657  -0.027365   0.000130   0.578763   0.577792
    20  H   -0.000415   0.000330   0.000130   0.000044  -0.101389  -0.024309
    21  H   -0.000641   0.000342   0.000130   0.000042  -0.024322  -0.101290
    22  H    0.001019  -0.000486  -0.000584   0.000001   0.021775   0.021746
              13         14         15         16         17         18
     1  C    0.029245   0.033110   1.377376  -0.078932   1.374945  -0.078791
     2  C   -0.024334   0.021761   0.255374  -0.037457   0.271032  -0.034235
     3  C   -0.101301   0.021768   0.271769  -0.034251   0.255265  -0.037405
     4  C    0.015932  -0.052654  -0.035975   0.015437  -0.028946   0.014830
     5  H   -0.000091   0.000832   0.015445  -0.000229   0.014816  -0.000217
     6  C    0.043499  -0.036993  -1.719735   0.115666  -1.718426   0.115477
     7  C    0.436054  -0.052671  -0.028878   0.014826  -0.035720   0.015412
     8  H   -0.012014   0.000832   0.014850  -0.000218   0.015390  -0.000225
     9  C   -0.081002   0.411227   0.039274  -0.014662   0.039201  -0.014658
    10  H    0.000226  -0.008609  -0.000645   0.000343  -0.000418   0.000330
    11  C    0.004934  -0.004733  -0.098103   0.368532  -1.057545   0.079932
    12  C    0.003544  -0.004730  -1.057763   0.079965  -0.095381   0.368456
    13  H    0.480181  -0.008610  -0.000420   0.000330  -0.000642   0.000342
    14  H   -0.008610   0.471685   0.001023  -0.000486   0.001021  -0.000486
    15  C   -0.000420   0.001023   6.600427  -0.107166   0.218673  -0.014298
    16  H    0.000330  -0.000486  -0.107166   0.467367  -0.014287   0.000034
    17  C   -0.000642   0.001021   0.218673  -0.014287   6.598739  -0.107025
    18  H    0.000342  -0.000486  -0.014298   0.000034  -0.107025   0.467360
    19  C    0.000130  -0.000584   0.133116   0.018501   0.133790   0.018492
    20  H    0.000042   0.000001   0.436104  -0.012015   0.015916  -0.000091
    21  H    0.000044   0.000001   0.015925  -0.000091   0.436031  -0.012013
    22  H    0.000001  -0.000009  -0.052664   0.000832  -0.052660   0.000832
              19         20         21         22
     1  C   -1.386653   0.043503   0.043493  -0.036990
     2  C   -0.151564   0.003531   0.004926  -0.004723
     3  C   -0.151808   0.004948   0.003549  -0.004741
     4  C    0.039320  -0.000649  -0.000421   0.001024
     5  H   -0.014663   0.000343   0.000330  -0.000486
     6  C   -0.077693   0.029257   0.029259   0.033113
     7  C    0.039157  -0.000415  -0.000641   0.001019
     8  H   -0.014657   0.000330   0.000342  -0.000486
     9  C   -0.027365   0.000130   0.000130  -0.000584
    10  H    0.000130   0.000044   0.000042   0.000001
    11  C    0.578763  -0.101389  -0.024322   0.021775
    12  C    0.577792  -0.024309  -0.101290   0.021746
    13  H    0.000130   0.000042   0.000044   0.000001
    14  H   -0.000584   0.000001   0.000001  -0.000009
    15  C    0.133116   0.436104   0.015925  -0.052664
    16  H    0.018501  -0.012015  -0.000091   0.000832
    17  C    0.133790   0.015916   0.436031  -0.052660
    18  H    0.018492  -0.000091  -0.012013   0.000832
    19  C    6.374563  -0.080982  -0.080998   0.411229
    20  H   -0.080982   0.480180   0.000225  -0.008610
    21  H   -0.080998   0.000225   0.480182  -0.008610
    22  H    0.411229  -0.008610  -0.008610   0.471686
 Mulliken charges:
               1
     1  C    0.835542
     2  C   -0.520388
     3  C   -0.520669
     4  C   -0.263817
     5  H    0.217966
     6  C    0.835515
     7  C   -0.263660
     8  H    0.217943
     9  C   -0.338021
    10  H    0.213903
    11  C   -0.520515
    12  C   -0.520548
    13  H    0.213910
    14  H    0.207305
    15  C   -0.263710
    16  H    0.217960
    17  C   -0.263766
    18  H    0.217947
    19  C   -0.338015
    20  H    0.213906
    21  H    0.213907
    22  H    0.207304
 Sum of Mulliken charges =  -0.00000
 Mulliken charges with hydrogens summed into heavy atoms:
               1
     1  C    0.835542
     2  C   -0.302423
     3  C   -0.302726
     4  C   -0.049914
     6  C    0.835515
     7  C   -0.049749
     9  C   -0.130716
    11  C   -0.302555
    12  C   -0.302601
    15  C   -0.049804
    17  C   -0.049859
    19  C   -0.130711
 Electronic spatial extent (au):  <R**2>=           2312.0188
 Charge=             -0.0000 electrons
 Dipole moment (field-independent basis, Debye):
    X=              0.0000    Y=             -0.0002    Z=              0.0003  Tot=              0.0003
 Quadrupole moment (field-independent basis, Debye-Ang):
   XX=            -61.8058   YY=            -69.2168   ZZ=            -69.7336
   XY=              0.0004   XZ=             -0.0006   YZ=              0.0000
 Traceless Quadrupole moment (field-independent basis, Debye-Ang):
   XX=              5.1130   YY=             -2.2981   ZZ=             -2.8149
   XY=              0.0004   XZ=             -0.0006   YZ=              0.0000
 Octapole moment (field-independent basis, Debye-Ang**2):
  XXX=              0.0002  YYY=             -0.0005  ZZZ=              0.0039  XYY=              0.0016
  XXY=             -0.0039  XXZ=              0.0008  XZZ=             -0.0016  YZZ=             -0.0011
  YYZ=             -0.0011  XYZ=            -19.1189
 Hexadecapole moment (field-independent basis, Debye-Ang**3):
 XXXX=          -2302.9502 YYYY=           -348.3282 ZZZZ=           -349.6311 XXXY=             -0.0008
 XXXZ=             -0.0228 YYYX=              0.0085 YYYZ=             -0.0037 ZZZX=              0.0017
 ZZZY=              0.0040 XXYY=           -487.5873 XXZZ=           -488.8104 YYZZ=            -92.8861
 XXYZ=              0.0000 YYXZ=              0.0017 ZZXY=             -0.0021
 N-N= 5.978348108227D+02 E-N=-2.270005418631D+03  KE= 4.610097478362D+02
 No NMR shielding tensors so no spin-rotation constants.
 Leave Link  601 at Sat Nov  5 21:33:43 2022, MaxMem= 16106127360 cpu:               4.4 elap:               0.2
 (Enter /opt/ap/G16/B01/g16/l9999.exe)
 1\1\GINC-N03\SP\RwB97XD\6-311++G(d,p)\C12H10\ROOT\05-Nov-2022\0\\#P wB
 97XD/6-311++G(d,p) scf=maxcycle=512\\_conf000.gjf nmol_natom 1_22\\0,1
 \C\C,1,1.40491871\C,1,1.40495292,2,118.20503621\C,2,1.3939373,1,120.91
 08946,3,0.05365643,0\H,2,1.08593095,1,119.3452094,3,-178.3624307,0\C,1
 ,1.48449301,2,120.90144423,4,-179.96388019,0\C,3,1.39389842,1,120.9105
 0598,2,0.03587687,0\H,3,1.08593608,1,119.34159615,2,-178.38281524,0\C,
 4,1.39606958,2,120.24555868,1,-0.09283196,0\H,4,1.08627898,2,119.66792
 041,1,-179.51486187,0\C,6,1.40492034,1,120.90156908,2,-90.,0\C,6,1.404
 95329,1,120.89324856,2,90.,0\H,7,1.08627928,3,119.67027175,1,-179.5125
 8183,0\H,9,1.08597601,4,120.2602535,2,-179.95233103,0\C,11,1.39393437,
 6,120.91099656,1,-179.95869964,0\H,11,1.08593173,6,119.34475907,1,1.61
 891886,0\C,12,1.39390147,6,120.91022615,1,-179.94297913,0\H,12,1.08593
 608,6,119.34175044,1,1.63241608,0\C,15,1.39607161,11,120.24535737,6,-0
 .10315482,0\H,15,1.08627786,11,119.66861247,6,-179.51844254,0\H,17,1.0
 8627825,12,119.6702798,6,-179.51590091,0\H,19,1.08597601,15,120.259885
 97,11,-179.94731581,0\\Version=ES64L-G16RevB.01\State=1-A\HF=-463.2476
 09\RMSD=4.812e-09\Dipole=0.0000109,-0.0001283,-0.0000197\Quadrupole=2.
 2978038,-1.9006482,-0.3971556,0.0990195,2.5125191,-0.1646247\PG=C01 [X
 (C12H10)]\\@


 A CHEMICAL PHYSICIST MAKES PRECISE MEASUREMENTS ON IMPURE COMPOUNDS.
 A THEORETICAL PHYSICAL CHEMIST MAKES IMPRECISE
     MEASUREMENTS ON PURE COMPOUNDS.
 AN EXPERIMENTAL PHYSICAL CHEMIST MAKES IMPRECISE
     MEASUREMENTS ON IMPURE COMPOUNDS.
 Job cpu time:       0 days  0 hours 13 minutes 42.8 seconds.
 Elapsed time:       0 days  0 hours  0 minutes 26.0 seconds.
 File lengths (MBytes):  RWF=     62 Int=      0 D2E=      0 Chk=      8 Scr=      1
 Normal termination of Gaussian 16 at Sat Nov  5 21:33:43 2022.
