 Entering Gaussian System, Link 0=g16
 Input=_conf005.gjf
 Output=_conf005.log
 Initial command:
 /opt/ap/G16/B01/g16/l1.exe "/tmp2/scr/Gau-23305.inp" -scrdir="/tmp2/scr/"
 Entering Link 1 = /opt/ap/G16/B01/g16/l1.exe PID=     23306.
  
 Copyright (c) 1988-2017, Gaussian, Inc.  All Rights Reserved.
  
 This is part of the Gaussian(R) 16 program.  It is based on
 the Gaussian(R) 09 system (copyright 2009, Gaussian, Inc.),
 the Gaussian(R) 03 system (copyright 2003, Gaussian, Inc.),
 the Gaussian(R) 98 system (copyright 1998, Gaussian, Inc.),
 the Gaussian(R) 94 system (copyright 1995, Gaussian, Inc.),
 the Gaussian 92(TM) system (copyright 1992, Gaussian, Inc.),
 the Gaussian 90(TM) system (copyright 1990, Gaussian, Inc.),
 the Gaussian 88(TM) system (copyright 1988, Gaussian, Inc.),
 the Gaussian 86(TM) system (copyright 1986, Carnegie Mellon
 University), and the Gaussian 82(TM) system (copyright 1983,
 Carnegie Mellon University). Gaussian is a federally registered
 trademark of Gaussian, Inc.
  
 This software contains proprietary and confidential information,
 including trade secrets, belonging to Gaussian, Inc.
  
 This software is provided under written license and may be
 used, copied, transmitted, or stored only in accord with that
 written license.
  
 The following legend is applicable only to US Government
 contracts under FAR:
  
                    RESTRICTED RIGHTS LEGEND
  
 Use, reproduction and disclosure by the US Government is
 subject to restrictions as set forth in subparagraphs (a)
 and (c) of the Commercial Computer Software - Restricted
 Rights clause in FAR 52.227-19.
  
 Gaussian, Inc.
 340 Quinnipiac St., Bldg. 40, Wallingford CT 06492
  
  
 ---------------------------------------------------------------
 Warning -- This program may not be used in any manner that
 competes with the business of Gaussian, Inc. or will provide
 assistance to any competitor of Gaussian, Inc.  The licensee
 of this program is prohibited from giving any competitor of
 Gaussian, Inc. access to this program.  By using this program,
 the user acknowledges that Gaussian, Inc. is engaged in the
 business of creating and licensing software in the field of
 computational chemistry and represents and warrants to the
 licensee that it is not a competitor of Gaussian, Inc. and that
 it will not use this program in any manner prohibited above.
 ---------------------------------------------------------------
  

 Cite this work as:
 Gaussian 16, Revision B.01,
 M. J. Frisch, G. W. Trucks, H. B. Schlegel, G. E. Scuseria, 
 M. A. Robb, J. R. Cheeseman, G. Scalmani, V. Barone, 
 G. A. Petersson, H. Nakatsuji, X. Li, M. Caricato, A. V. Marenich, 
 J. Bloino, B. G. Janesko, R. Gomperts, B. Mennucci, H. P. Hratchian, 
 J. V. Ortiz, A. F. Izmaylov, J. L. Sonnenberg, D. Williams-Young, 
 F. Ding, F. Lipparini, F. Egidi, J. Goings, B. Peng, A. Petrone, 
 T. Henderson, D. Ranasinghe, V. G. Zakrzewski, J. Gao, N. Rega, 
 G. Zheng, W. Liang, M. Hada, M. Ehara, K. Toyota, R. Fukuda, 
 J. Hasegawa, M. Ishida, T. Nakajima, Y. Honda, O. Kitao, H. Nakai, 
 T. Vreven, K. Throssell, J. A. Montgomery, Jr., J. E. Peralta, 
 F. Ogliaro, M. J. Bearpark, J. J. Heyd, E. N. Brothers, K. N. Kudin, 
 V. N. Staroverov, T. A. Keith, R. Kobayashi, J. Normand, 
 K. Raghavachari, A. P. Rendell, J. C. Burant, S. S. Iyengar, 
 J. Tomasi, M. Cossi, J. M. Millam, M. Klene, C. Adamo, R. Cammi, 
 J. W. Ochterski, R. L. Martin, K. Morokuma, O. Farkas, 
 J. B. Foresman, and D. J. Fox, Gaussian, Inc., Wallingford CT, 2016.
 
 ******************************************
 Gaussian 16:  ES64L-G16RevB.01 20-Dec-2017
                 5-Nov-2022 
 ******************************************
 %nprocshared=32
 Will use up to   32 processors via shared memory.
 %mem=120GB
 %chk=_conf005.chk
 ----------------------------------------
 #P wB97XD/6-311++G(d,p) scf=maxcycle=512
 ----------------------------------------
 1/38=1,172=1/1;
 2/12=2,17=6,18=5,40=1/2;
 3/5=4,6=6,7=1111,11=2,25=1,30=1,74=-58/1,2,3;
 4//1;
 5/5=2,7=512,38=5/2;
 6/7=2,8=2,9=2,10=2,28=1/1;
 99/5=1,9=1/99;
 Leave Link    1 at Sat Nov  5 21:33:42 2022, MaxMem= 16106127360 cpu:               1.8 elap:               0.1
 (Enter /opt/ap/G16/B01/g16/l101.exe)
 ----------------------------
 _conf005.gjf nmol_natom 1_22
 ----------------------------
 Symbolic Z-matrix:
 Charge =  0 Multiplicity = 1
 C
 C                    1     1.40492 
 C                    1     1.40495  2     118.20504 
 C                    2     1.39394  1     120.91089  3     0.05366  0
 H                    2     1.08593  1     119.34521  3    -178.36243  0
 C                    1     1.48449  2     120.90144  4    -179.96388  0
 C                    3     1.3939   1     120.91051  2     0.03588  0
 H                    3     1.08594  1     119.3416  2    -178.38282  0
 C                    4     1.39607  2     120.24556  1    -0.09283  0
 H                    4     1.08628  2     119.66792  1    -179.51486  0
 C                    6     1.40492  1     120.90157  2    -65.      0
 C                    6     1.40495  1     120.89325  2     115.     0
 H                    7     1.08628  3     119.67027  1    -179.51258  0
 H                    9     1.08598  4     120.26025  2    -179.95233  0
 C                    11    1.39393  6     120.911  1    -179.9587  0
 H                    11    1.08593  6     119.34476  1     1.61892  0
 C                    12    1.3939   6     120.91023  1    -179.94298  0
 H                    12    1.08594  6     119.34175  1     1.63242  0
 C                    15    1.39607  11    120.24536  6    -0.10315  0
 H                    15    1.08628  11    119.66861  6    -179.51844  0
 H                    17    1.08628  12    119.67028  6    -179.5159  0
 H                    19    1.08598  15    120.25989  11   -179.94732  0
 
 ITRead=  0  0  0  0  0  0  0  0  0  0  0  0  0  0  0  0  0  0  0  0
 ITRead=  0  0
 MicOpt= -1 -1 -1 -1 -1 -1 -1 -1 -1 -1 -1 -1 -1 -1 -1 -1 -1 -1 -1 -1
 MicOpt= -1 -1
 NAtoms=     22 NQM=       22 NQMF=       0 NMMI=      0 NMMIF=      0
                NMic=       0 NMicF=      0.
                    Isotopes and Nuclear Properties:
 (Nuclear quadrupole moments (NQMom) in fm**2, nuclear magnetic moments (NMagM)
  in nuclear magnetons)

  Atom         1           2           3           4           5           6           7           8           9          10
 IAtWgt=          12          12          12          12           1          12          12           1          12           1
 AtmWgt=  12.0000000  12.0000000  12.0000000  12.0000000   1.0078250  12.0000000  12.0000000   1.0078250  12.0000000   1.0078250
 NucSpn=           0           0           0           0           1           0           0           1           0           1
 AtZEff=  -0.0000000  -0.0000000  -0.0000000  -0.0000000  -0.0000000  -0.0000000  -0.0000000  -0.0000000  -0.0000000  -0.0000000
 NQMom=    0.0000000   0.0000000   0.0000000   0.0000000   0.0000000   0.0000000   0.0000000   0.0000000   0.0000000   0.0000000
 NMagM=    0.0000000   0.0000000   0.0000000   0.0000000   2.7928460   0.0000000   0.0000000   2.7928460   0.0000000   2.7928460
 AtZNuc=   6.0000000   6.0000000   6.0000000   6.0000000   1.0000000   6.0000000   6.0000000   1.0000000   6.0000000   1.0000000

  Atom        11          12          13          14          15          16          17          18          19          20
 IAtWgt=          12          12           1           1          12           1          12           1          12           1
 AtmWgt=  12.0000000  12.0000000   1.0078250   1.0078250  12.0000000   1.0078250  12.0000000   1.0078250  12.0000000   1.0078250
 NucSpn=           0           0           1           1           0           1           0           1           0           1
 AtZEff=  -0.0000000  -0.0000000  -0.0000000  -0.0000000  -0.0000000  -0.0000000  -0.0000000  -0.0000000  -0.0000000  -0.0000000
 NQMom=    0.0000000   0.0000000   0.0000000   0.0000000   0.0000000   0.0000000   0.0000000   0.0000000   0.0000000   0.0000000
 NMagM=    0.0000000   0.0000000   2.7928460   2.7928460   0.0000000   2.7928460   0.0000000   2.7928460   0.0000000   2.7928460
 AtZNuc=   6.0000000   6.0000000   1.0000000   1.0000000   6.0000000   1.0000000   6.0000000   1.0000000   6.0000000   1.0000000

  Atom        21          22
 IAtWgt=           1           1
 AtmWgt=   1.0078250   1.0078250
 NucSpn=           1           1
 AtZEff=  -0.0000000  -0.0000000
 NQMom=    0.0000000   0.0000000
 NMagM=    2.7928460   2.7928460
 AtZNuc=   1.0000000   1.0000000
 Leave Link  101 at Sat Nov  5 21:33:42 2022, MaxMem= 16106127360 cpu:               5.2 elap:               0.2
 (Enter /opt/ap/G16/B01/g16/l202.exe)
                          Input orientation:                          
 ---------------------------------------------------------------------
 Center     Atomic      Atomic             Coordinates (Angstroms)
 Number     Number       Type             X           Y           Z
 ---------------------------------------------------------------------
      1          6           0        0.000000    0.000000    0.000000
      2          6           0        0.000000    0.000000    1.404919
      3          6           0        1.238131    0.000000   -0.664020
      4          6           0        1.195952    0.001120    2.120990
      5          1           0       -0.946201   -0.027051    1.937101
      6          6           0       -1.273772   -0.000390   -0.762381
      7          6           0        2.434381   -0.000749    0.051479
      8          1           0        1.259850    0.026715   -1.749411
      9          6           0        2.418826    0.000311    1.447501
     10          1           0        1.172413   -0.006894    3.206985
     11          6           0       -2.154179   -1.093207   -0.695779
     12          6           0       -1.631400    1.092169   -1.570038
     13          1           0        3.380326    0.007295   -0.482493
     14          1           0        3.350700    0.000403    2.005133
     15          6           0       -3.349895   -1.094145   -1.412239
     16          1           0       -1.908805   -1.936094   -0.056576
     17          6           0       -2.827904    1.092680   -2.285118
     18          1           0       -0.952253    1.935148   -1.656080
     19          6           0       -3.692656   -0.000774   -2.209779
     20          1           0       -4.019440   -1.946475   -1.339824
     21          1           0       -3.080715    1.944756   -2.909662
     22          1           0       -4.624548   -0.000892   -2.767382
 ---------------------------------------------------------------------
                    Distance matrix (angstroms):
                    1          2          3          4          5
     1  C    0.000000
     2  C    1.404919   0.000000
     3  C    1.404953   2.411116   0.000000
     4  C    2.434934   1.393937   2.785330   0.000000
     5  H    2.156012   1.085931   3.396745   2.150216   0.000000
     6  C    1.484493   2.513898   2.513829   3.796494   2.719415
     7  C    2.434925   2.785320   1.393898   2.411760   3.870994
     8  H    2.156008   3.396723   1.085936   3.871013   4.296501
     9  C    2.818861   2.419201   2.419207   1.396070   3.400568
    10  H    3.414579   2.149893   3.871569   1.086279   2.470128
    11  C    2.513901   3.201331   3.564250   4.511665   3.086739
    12  C    2.513826   3.564361   3.201236   4.775772   3.744620
    13  H    3.414594   3.871560   2.149884   3.398478   4.957262
    14  H    3.904837   3.404035   3.404016   2.157861   4.297527
    15  C    3.796494   4.511688   4.775665   5.860720   4.258464
    16  H    2.719411   3.086740   3.744417   4.258416   2.923320
    17  C    3.796414   4.775706   4.511602   6.066030   4.756232
    18  H    2.719225   3.744502   3.086546   4.756208   4.094046
    19  C    4.303351   5.167373   5.167401   6.531007   4.973964
    20  H    4.662595   5.241972   5.646905   6.555202   4.885409
    21  H    4.662511   5.646989   5.241890   6.882954   5.651131
    22  H    5.389327   6.228526   6.228574   7.600948   5.971858
                    6          7          8          9         10
     6  C    0.000000
     7  C    3.796415   0.000000
     8  H    2.719228   2.150228   0.000000
     9  C    4.303354   1.396108   3.400612   0.000000
    10  H    4.662588   3.398502   4.957280   2.156243   0.000000
    11  C    1.404920   4.775640   3.744323   5.167379   5.241932
    12  C    1.404953   4.511581   3.086534   5.167400   5.647057
    13  H    4.662512   1.086279   2.470197   2.156248   4.299689
    14  H    5.389330   2.157871   4.297551   1.085976   2.487858
    15  C    2.434934   6.065957   4.756023   6.531010   6.555197
    16  H    2.156010   4.756101   4.093737   4.973962   4.885340
    17  C    2.434925   5.860624   4.258285   6.530995   6.882935
    18  H    2.156010   4.258256   2.923051   4.973930   5.651118
    19  C    2.818858   6.530993   4.973933   7.122212   7.280815
    20  H    3.414583   6.882832   5.650853   7.280826   7.168736
    21  H    3.414594   6.555122   4.885239   7.280843   7.701389
    22  H    3.904834   7.600951   5.971864   8.208188   8.324533
                   11         12         13         14         15
    11  C    0.000000
    12  C    2.411119   0.000000
    13  H    5.646887   5.241860   0.000000
    14  H    6.228531   6.228573   2.487812   0.000000
    15  C    1.393934   2.785336   6.882839   7.600950   0.000000
    16  H    1.085932   3.396748   5.650935   5.971855   2.150219
    17  C    2.785320   1.393901   6.555123   7.600952   2.411763
    18  H    3.396725   1.085936   4.885199   5.971862   3.871016
    19  C    2.419198   2.419208   7.280841   8.208188   1.396072
    20  H    2.149897   3.871575   7.701218   8.324544   1.086278
    21  H    3.871558   2.149886   7.168678   8.324591   3.398478
    22  H    3.404029   3.404019   8.324589   9.294164   2.157859
                   16         17         18         19         20
    16  H    0.000000
    17  C    3.870997   0.000000
    18  H    4.296501   2.150234   0.000000
    19  C    3.400569   1.396107   3.400615   0.000000
    20  H    2.470145   3.398500   4.957282   2.156238   0.000000
    21  H    4.957264   1.086278   2.470204   2.156245   4.299683
    22  H    4.297527   2.157871   4.297556   1.085976   2.487844
                   21         22
    21  H    0.000000
    22  H    2.487812   0.000000
 Stoichiometry    C12H10
 Framework group  C1[X(C12H10)]
 Deg. of freedom    60
 Full point group                 C1      NOp   1
 Largest Abelian subgroup         C1      NOp   1
 Largest concise Abelian subgroup C1      NOp   1
                         Standard orientation:                         
 ---------------------------------------------------------------------
 Center     Atomic      Atomic             Coordinates (Angstroms)
 Number     Number       Type             X           Y           Z
 ---------------------------------------------------------------------
      1          6           0       -0.742246    0.000029   -0.000146
      2          6           0       -1.463705   -1.016699   -0.647878
      3          6           0       -1.463666    1.016687    0.647814
      4          6           0       -2.857642   -1.016464   -0.648794
      5          1           0       -0.925078   -1.826078   -1.131647
      6          6           0        0.742247    0.000003    0.000021
      7          6           0       -2.857564    1.016461    0.648820
      8          1           0       -0.924932    1.825935    1.131695
      9          6           0       -3.561107    0.000006    0.000002
     10          1           0       -3.395126   -1.816888   -1.149227
     11          6           0        1.463674   -1.016674    0.647872
     12          6           0        1.463697    1.016767   -0.647740
     13          1           0       -3.395049    1.816810    1.149373
     14          1           0       -4.647083    0.000004    0.000096
     15          6           0        2.857608   -1.016429    0.648879
     16          1           0        0.925013   -1.825966    1.131750
     17          6           0        2.857598    1.016452   -0.648810
     18          1           0        0.924988    1.826109   -1.131493
     19          6           0        3.561105   -0.000113   -0.000128
     20          1           0        3.395077   -1.816776    1.149450
     21          1           0        3.395111    1.816852   -1.149249
     22          1           0        4.647081   -0.000154   -0.000219
 ---------------------------------------------------------------------
 Rotational constants (GHZ):           2.8585222           0.5282749           0.4898136
 Leave Link  202 at Sat Nov  5 21:33:42 2022, MaxMem= 16106127360 cpu:               0.3 elap:               0.0
 (Enter /opt/ap/G16/B01/g16/l301.exe)
 Standard basis: 6-311++G(d,p) (5D, 7F)
 Ernie: Thresh=  0.10000D-02 Tol=  0.10000D-05 Strict=F.
 There are   346 symmetry adapted cartesian basis functions of A   symmetry.
 There are   334 symmetry adapted basis functions of A   symmetry.
   334 basis functions,   522 primitive gaussians,   346 cartesian basis functions
    41 alpha electrons       41 beta electrons
       nuclear repulsion energy       598.1645226211 Hartrees.
 IExCor= 4639 DFT=T Ex+Corr=wB97XD ExCW=0 ScaHFX=  1.000000
 ScaDFX=  1.000000  1.000000  1.000000  1.000000 ScalE2=  1.000000  1.000000
 IRadAn=      5 IRanWt=     -1 IRanGd=            0 ICorTp=0 IEmpDi=121
 HFx  wShort=  0.000000 wLong=  0.200000 cFull=  0.222036 cShort=  0.000000 cLong=  0.777964
 DFx  wShort=  0.000000 wLong=  0.200000 cFull=  0.000000 cShort=  0.000000 cLong=  1.000000
 NAtoms=   22 NActive=   22 NUniq=   22 SFac= 1.00D+00 NAtFMM=   60 NAOKFM=F Big=F
 Integral buffers will be    131072 words long.
 Raffenetti 2 integral format.
 Two-electron integral symmetry is turned on.
 R6Disp:  Grimme-D2 Dispersion energy=       -0.0119714900 Hartrees.
 Nuclear repulsion after empirical dispersion term =      598.1525511311 Hartrees.
 Leave Link  301 at Sat Nov  5 21:33:42 2022, MaxMem= 16106127360 cpu:               1.2 elap:               0.0
 (Enter /opt/ap/G16/B01/g16/l302.exe)
 NPDir=0 NMtPBC=     1 NCelOv=     1 NCel=       1 NClECP=     1 NCelD=      1
         NCelK=      1 NCelE2=     1 NClLst=     1 CellRange=     0.0.
 One-electron integrals computed using PRISM.
 One-electron integral symmetry used in STVInt
 NBasis=   334 RedAO= T EigKep=  1.95D-06  NBF=   334
 NBsUse=   332 1.00D-06 EigRej=  8.44D-07 NBFU=   332
 Precomputing XC quadrature grid using
 IXCGrd= 4 IRadAn=           5 IRanWt=          -1 IRanGd=           0 AccXCQ= 0.00D+00.
 Generated NRdTot=       0 NPtTot=           0 NUsed=           0 NTot=          32
 NSgBfM=   346   346   346   346   346 MxSgAt=    22 MxSgA2=    22.
 Leave Link  302 at Sat Nov  5 21:33:43 2022, MaxMem= 16106127360 cpu:               7.5 elap:               0.2
 (Enter /opt/ap/G16/B01/g16/l303.exe)
 DipDrv:  MaxL=1.
 Leave Link  303 at Sat Nov  5 21:33:43 2022, MaxMem= 16106127360 cpu:               1.5 elap:               0.1
 (Enter /opt/ap/G16/B01/g16/l401.exe)
 ExpMin= 3.60D-02 ExpMax= 4.56D+03 ExpMxC= 6.82D+02 IAcc=3 IRadAn=         5 AccDes= 0.00D+00
 Harris functional with IExCor= 4639 and IRadAn=       5 diagonalized for initial guess.
 HarFok:  IExCor= 4639 AccDes= 0.00D+00 IRadAn=         5 IDoV= 1 UseB2=F ITyADJ=14
 ICtDFT=  3500011 ScaDFX=  1.000000  1.000000  1.000000  1.000000
 FoFCou: FMM=F IPFlag=           0 FMFlag=      100000 FMFlg1=           0
         NFxFlg=           0 DoJE=T BraDBF=F KetDBF=T FulRan=T
         wScrn=  0.000000 ICntrl=       500 IOpCl=  0 I1Cent=   200000004 NGrid=           0
         NMat0=    1 NMatS0=      1 NMatT0=    0 NMatD0=    1 NMtDS0=    0 NMtDT0=    0
 Petite list used in FoFCou.
 Harris En= -441.938049631121    
 JPrj=0 DoOrth=F DoCkMO=F.
 Leave Link  401 at Sat Nov  5 21:33:43 2022, MaxMem= 16106127360 cpu:              19.6 elap:               0.6
 (Enter /opt/ap/G16/B01/g16/l502.exe)
 Integral symmetry usage will be decided dynamically.
 Closed shell SCF:
 Using DIIS extrapolation, IDIIS=  1040.
 NGot= 16106127360 LenX= 16105873520 LenY= 16105753363
 Requested convergence on RMS density matrix=1.00D-08 within 512 cycles.
 Requested convergence on MAX density matrix=1.00D-06.
 Requested convergence on             energy=1.00D-06.
 No special actions if energy rises.
 Fock matrices will be formed incrementally for  20 cycles.

 Cycle   1  Pass 1  IDiag  1:
 FoFJK:  IHMeth= 1 ICntrl=       0 DoSepK=T KAlg= 0 I1Cent=           0 FoldK=F
 IRaf=         1 NMat=       1 IRICut=       1 DoRegI=T DoRafI=F ISym2E= 0 IDoP0=0 IntGTp=1.
 FoFCou: FMM=F IPFlag=           0 FMFlag=      100000 FMFlg1=           0
         NFxFlg=           0 DoJE=T BraDBF=F KetDBF=F FulRan=T
         wScrn=  0.000000 ICntrl=       500 IOpCl=  0 I1Cent=           0 NGrid=           0
         NMat0=    1 NMatS0=      1 NMatT0=    0 NMatD0=    1 NMtDS0=    0 NMtDT0=    0
 Symmetry not used in FoFCou.
 E= -463.151884438954    
 DIIS: error= 6.18D-02 at cycle   1 NSaved=   1.
 NSaved= 1 IEnMin= 1 EnMin= -463.151884438954     IErMin= 1 ErrMin= 6.18D-02
 ErrMax= 6.18D-02  0.00D+00 EMaxC= 1.00D-01 BMatC= 9.52D-01 BMatP= 9.52D-01
 IDIUse=3 WtCom= 3.82D-01 WtEn= 6.18D-01
 Coeff-Com:  0.100D+01
 Coeff-En:   0.100D+01
 Coeff:      0.100D+01
 Gap=     0.349 Goal=   None    Shift=    0.000
 GapD=    0.349 DampG=1.000 DampE=0.500 DampFc=0.5000 IDamp=-1.
 Damping current iteration by 5.00D-01
 RMSDP=5.69D-02 MaxDP=3.68D+00              OVMax= 4.13D-02

 Cycle   2  Pass 1  IDiag  1:
 RMSU=  5.24D-03    CP:  7.61D-01
 E= -463.200807971874     Delta-E=       -0.048923532921 Rises=F Damp=T
 DIIS: error= 2.99D-02 at cycle   2 NSaved=   2.
 NSaved= 2 IEnMin= 2 EnMin= -463.200807971874     IErMin= 2 ErrMin= 2.99D-02
 ErrMax= 2.99D-02  0.00D+00 EMaxC= 1.00D-01 BMatC= 2.16D-01 BMatP= 9.52D-01
 IDIUse=3 WtCom= 7.01D-01 WtEn= 2.99D-01
 Coeff-Com: -0.883D+00 0.188D+01
 Coeff-En:   0.000D+00 0.100D+01
 Coeff:     -0.619D+00 0.162D+01
 Gap=     0.357 Goal=   None    Shift=    0.000
 RMSDP=2.43D-02 MaxDP=1.40D+00 DE=-4.89D-02 OVMax= 3.74D-02

 Cycle   3  Pass 1  IDiag  1:
 RMSU=  4.17D-03    CP:  5.57D-01  1.04D+00
 E= -463.244274811321     Delta-E=       -0.043466839446 Rises=F Damp=F
 DIIS: error= 5.42D-03 at cycle   3 NSaved=   3.
 NSaved= 3 IEnMin= 3 EnMin= -463.244274811321     IErMin= 3 ErrMin= 5.42D-03
 ErrMax= 5.42D-03  0.00D+00 EMaxC= 1.00D-01 BMatC= 4.87D-03 BMatP= 2.16D-01
 IDIUse=3 WtCom= 9.46D-01 WtEn= 5.42D-02
 Coeff-Com: -0.375D+00 0.797D+00 0.578D+00
 Coeff-En:   0.000D+00 0.000D+00 0.100D+01
 Coeff:     -0.354D+00 0.754D+00 0.601D+00
 Gap=     0.352 Goal=   None    Shift=    0.000
 RMSDP=4.19D-03 MaxDP=3.14D-01 DE=-4.35D-02 OVMax= 2.22D-02

 Cycle   4  Pass 1  IDiag  1:
 RMSU=  1.04D-03    CP:  5.28D-01  1.41D+00  6.94D-01
 E= -463.248622961367     Delta-E=       -0.004348150046 Rises=F Damp=F
 DIIS: error= 1.57D-03 at cycle   4 NSaved=   4.
 NSaved= 4 IEnMin= 4 EnMin= -463.248622961367     IErMin= 4 ErrMin= 1.57D-03
 ErrMax= 1.57D-03  0.00D+00 EMaxC= 1.00D-01 BMatC= 3.02D-04 BMatP= 4.87D-03
 IDIUse=3 WtCom= 9.84D-01 WtEn= 1.57D-02
 Coeff-Com: -0.134D+00 0.287D+00 0.287D+00 0.560D+00
 Coeff-En:   0.000D+00 0.000D+00 0.000D+00 0.100D+01
 Coeff:     -0.132D+00 0.282D+00 0.283D+00 0.567D+00
 Gap=     0.351 Goal=   None    Shift=    0.000
 RMSDP=9.04D-04 MaxDP=4.95D-02 DE=-4.35D-03 OVMax= 5.46D-03

 Cycle   5  Pass 1  IDiag  1:
 RMSU=  3.14D-04    CP:  5.23D-01  1.36D+00  7.80D-01  6.35D-01
 E= -463.248940114061     Delta-E=       -0.000317152694 Rises=F Damp=F
 DIIS: error= 2.43D-04 at cycle   5 NSaved=   5.
 NSaved= 5 IEnMin= 5 EnMin= -463.248940114061     IErMin= 5 ErrMin= 2.43D-04
 ErrMax= 2.43D-04  0.00D+00 EMaxC= 1.00D-01 BMatC= 8.25D-06 BMatP= 3.02D-04
 IDIUse=3 WtCom= 9.98D-01 WtEn= 2.43D-03
 Coeff-Com:  0.273D-01-0.583D-01-0.288D-01 0.116D+00 0.944D+00
 Coeff-En:   0.000D+00 0.000D+00 0.000D+00 0.000D+00 0.100D+01
 Coeff:      0.272D-01-0.581D-01-0.287D-01 0.116D+00 0.944D+00
 Gap=     0.351 Goal=   None    Shift=    0.000
 RMSDP=2.03D-04 MaxDP=8.64D-03 DE=-3.17D-04 OVMax= 1.40D-03

 Cycle   6  Pass 1  IDiag  1:
 RMSU=  5.64D-05    CP:  5.23D-01  1.35D+00  8.07D-01  7.26D-01  1.28D+00
 E= -463.248951142525     Delta-E=       -0.000011028464 Rises=F Damp=F
 DIIS: error= 5.72D-05 at cycle   6 NSaved=   6.
 NSaved= 6 IEnMin= 6 EnMin= -463.248951142525     IErMin= 6 ErrMin= 5.72D-05
 ErrMax= 5.72D-05  0.00D+00 EMaxC= 1.00D-01 BMatC= 5.29D-07 BMatP= 8.25D-06
 IDIUse=1 WtCom= 1.00D+00 WtEn= 0.00D+00
 Coeff-Com:  0.126D-01-0.270D-01-0.158D-01 0.298D-01 0.346D+00 0.654D+00
 Coeff:      0.126D-01-0.270D-01-0.158D-01 0.298D-01 0.346D+00 0.654D+00
 Gap=     0.351 Goal=   None    Shift=    0.000
 RMSDP=5.92D-05 MaxDP=4.23D-03 DE=-1.10D-05 OVMax= 2.34D-04

 Cycle   7  Pass 1  IDiag  1:
 RMSU=  1.20D-05    CP:  5.23D-01  1.34D+00  8.13D-01  7.28D-01  1.34D+00
                    CP:  1.17D+00
 E= -463.248951738754     Delta-E=       -0.000000596229 Rises=F Damp=F
 DIIS: error= 1.85D-05 at cycle   7 NSaved=   7.
 NSaved= 7 IEnMin= 7 EnMin= -463.248951738754     IErMin= 7 ErrMin= 1.85D-05
 ErrMax= 1.85D-05  0.00D+00 EMaxC= 1.00D-01 BMatC= 5.15D-08 BMatP= 5.29D-07
 IDIUse=1 WtCom= 1.00D+00 WtEn= 0.00D+00
 Coeff-Com: -0.212D-02 0.457D-02 0.197D-02-0.170D-01-0.103D+00 0.152D+00
 Coeff-Com:  0.964D+00
 Coeff:     -0.212D-02 0.457D-02 0.197D-02-0.170D-01-0.103D+00 0.152D+00
 Coeff:      0.964D+00
 Gap=     0.352 Goal=   None    Shift=    0.000
 RMSDP=3.26D-05 MaxDP=2.19D-03 DE=-5.96D-07 OVMax= 1.73D-04

 Cycle   8  Pass 1  IDiag  1:
 RMSU=  3.80D-06    CP:  5.23D-01  1.34D+00  8.16D-01  7.31D-01  1.40D+00
                    CP:  1.35D+00  1.28D+00
 E= -463.248951827477     Delta-E=       -0.000000088723 Rises=F Damp=F
 DIIS: error= 3.64D-06 at cycle   8 NSaved=   8.
 NSaved= 8 IEnMin= 8 EnMin= -463.248951827477     IErMin= 8 ErrMin= 3.64D-06
 ErrMax= 3.64D-06  0.00D+00 EMaxC= 1.00D-01 BMatC= 1.75D-09 BMatP= 5.15D-08
 IDIUse=1 WtCom= 1.00D+00 WtEn= 0.00D+00
 Coeff-Com: -0.469D-03 0.100D-02 0.656D-03-0.228D-02-0.136D-01-0.326D-02
 Coeff-Com:  0.727D-02 0.101D+01
 Coeff:     -0.469D-03 0.100D-02 0.656D-03-0.228D-02-0.136D-01-0.326D-02
 Coeff:      0.727D-02 0.101D+01
 Gap=     0.352 Goal=   None    Shift=    0.000
 RMSDP=6.34D-06 MaxDP=4.92D-04 DE=-8.87D-08 OVMax= 3.76D-05

 Cycle   9  Pass 1  IDiag  1:
 RMSU=  5.00D-07    CP:  5.23D-01  1.34D+00  8.16D-01  7.30D-01  1.40D+00
                    CP:  1.38D+00  1.38D+00  1.29D+00
 E= -463.248951831739     Delta-E=       -0.000000004262 Rises=F Damp=F
 DIIS: error= 1.98D-06 at cycle   9 NSaved=   9.
 NSaved= 9 IEnMin= 9 EnMin= -463.248951831739     IErMin= 9 ErrMin= 1.98D-06
 ErrMax= 1.98D-06  0.00D+00 EMaxC= 1.00D-01 BMatC= 3.43D-10 BMatP= 1.75D-09
 IDIUse=1 WtCom= 1.00D+00 WtEn= 0.00D+00
 Coeff-Com:  0.179D-03-0.387D-03-0.584D-04 0.187D-02 0.120D-01-0.203D-01
 Coeff-Com: -0.156D+00 0.331D+00 0.832D+00
 Coeff:      0.179D-03-0.387D-03-0.584D-04 0.187D-02 0.120D-01-0.203D-01
 Coeff:     -0.156D+00 0.331D+00 0.832D+00
 Gap=     0.352 Goal=   None    Shift=    0.000
 RMSDP=1.58D-06 MaxDP=1.09D-04 DE=-4.26D-09 OVMax= 2.03D-05

 Cycle  10  Pass 1  IDiag  1:
 RMSU=  2.16D-07    CP:  5.23D-01  1.34D+00  8.16D-01  7.30D-01  1.40D+00
                    CP:  1.39D+00  1.40D+00  1.40D+00  1.29D+00
 E= -463.248951832548     Delta-E=       -0.000000000808 Rises=F Damp=F
 DIIS: error= 4.60D-07 at cycle  10 NSaved=  10.
 NSaved=10 IEnMin=10 EnMin= -463.248951832548     IErMin=10 ErrMin= 4.60D-07
 ErrMax= 4.60D-07  0.00D+00 EMaxC= 1.00D-01 BMatC= 4.04D-11 BMatP= 3.43D-10
 IDIUse=1 WtCom= 1.00D+00 WtEn= 0.00D+00
 Coeff-Com:  0.692D-04-0.148D-03-0.578D-04 0.518D-03 0.283D-02-0.141D-02
 Coeff-Com: -0.261D-01-0.815D-01 0.192D+00 0.914D+00
 Coeff:      0.692D-04-0.148D-03-0.578D-04 0.518D-03 0.283D-02-0.141D-02
 Coeff:     -0.261D-01-0.815D-01 0.192D+00 0.914D+00
 Gap=     0.352 Goal=   None    Shift=    0.000
 RMSDP=4.90D-07 MaxDP=3.45D-05 DE=-8.08D-10 OVMax= 5.06D-06

 Cycle  11  Pass 1  IDiag  1:
 RMSU=  7.00D-08    CP:  5.23D-01  1.34D+00  8.16D-01  7.30D-01  1.40D+00
                    CP:  1.39D+00  1.40D+00  1.41D+00  1.46D+00  1.20D+00
 E= -463.248951832619     Delta-E=       -0.000000000071 Rises=F Damp=F
 DIIS: error= 1.03D-07 at cycle  11 NSaved=  11.
 NSaved=11 IEnMin=11 EnMin= -463.248951832619     IErMin=11 ErrMin= 1.03D-07
 ErrMax= 1.03D-07  0.00D+00 EMaxC= 1.00D-01 BMatC= 1.49D-12 BMatP= 4.04D-11
 IDIUse=1 WtCom= 1.00D+00 WtEn= 0.00D+00
 Coeff-Com: -0.197D-04 0.428D-04 0.149D-04-0.198D-03-0.130D-02 0.232D-02
 Coeff-Com:  0.148D-01-0.237D-01-0.517D-01-0.144D+00 0.120D+01
 Coeff:     -0.197D-04 0.428D-04 0.149D-04-0.198D-03-0.130D-02 0.232D-02
 Coeff:      0.148D-01-0.237D-01-0.517D-01-0.144D+00 0.120D+01
 Gap=     0.352 Goal=   None    Shift=    0.000
 RMSDP=2.96D-07 MaxDP=2.20D-05 DE=-7.12D-11 OVMax= 1.25D-06

 Cycle  12  Pass 1  IDiag  1:
 RMSU=  1.99D-08    CP:  5.23D-01  1.34D+00  8.16D-01  7.30D-01  1.40D+00
                    CP:  1.39D+00  1.40D+00  1.40D+00  1.52D+00  1.30D+00
                    CP:  1.31D+00
 E= -463.248951832618     Delta-E=        0.000000000001 Rises=F Damp=F
 DIIS: error= 2.00D-08 at cycle  12 NSaved=  12.
 NSaved=12 IEnMin=11 EnMin= -463.248951832619     IErMin=12 ErrMin= 2.00D-08
 ErrMax= 2.00D-08  0.00D+00 EMaxC= 1.00D-01 BMatC= 7.53D-14 BMatP= 1.49D-12
 IDIUse=1 WtCom= 1.00D+00 WtEn= 0.00D+00
 Coeff-Com: -0.168D-05 0.354D-05 0.230D-05-0.807D-05-0.369D-04-0.392D-04
 Coeff-Com: -0.801D-05 0.465D-02-0.536D-03-0.487D-01-0.889D-01 0.113D+01
 Coeff:     -0.168D-05 0.354D-05 0.230D-05-0.807D-05-0.369D-04-0.392D-04
 Coeff:     -0.801D-05 0.465D-02-0.536D-03-0.487D-01-0.889D-01 0.113D+01
 Gap=     0.352 Goal=   None    Shift=    0.000
 RMSDP=5.85D-08 MaxDP=4.10D-06 DE= 9.09D-13 OVMax= 3.15D-07

 Cycle  13  Pass 1  IDiag  1:
 RMSU=  5.53D-09    CP:  5.23D-01  1.34D+00  8.16D-01  7.30D-01  1.40D+00
                    CP:  1.39D+00  1.40D+00  1.40D+00  1.53D+00  1.31D+00
                    CP:  1.37D+00  1.33D+00
 E= -463.248951832627     Delta-E=       -0.000000000009 Rises=F Damp=F
 DIIS: error= 4.60D-09 at cycle  13 NSaved=  13.
 NSaved=13 IEnMin=13 EnMin= -463.248951832627     IErMin=13 ErrMin= 4.60D-09
 ErrMax= 4.60D-09  0.00D+00 EMaxC= 1.00D-01 BMatC= 2.84D-15 BMatP= 7.53D-14
 IDIUse=1 WtCom= 1.00D+00 WtEn= 0.00D+00
 Coeff-Com:  0.705D-06-0.153D-05-0.619D-06 0.752D-05 0.517D-04-0.928D-04
 Coeff-Com: -0.636D-03 0.135D-02 0.290D-02 0.803D-03-0.609D-01 0.948D-01
 Coeff-Com:  0.962D+00
 Coeff:      0.705D-06-0.153D-05-0.619D-06 0.752D-05 0.517D-04-0.928D-04
 Coeff:     -0.636D-03 0.135D-02 0.290D-02 0.803D-03-0.609D-01 0.948D-01
 Coeff:      0.962D+00
 Gap=     0.352 Goal=   None    Shift=    0.000
 RMSDP=4.57D-09 MaxDP=2.63D-07 DE=-9.09D-12 OVMax= 6.04D-08

 SCF Done:  E(RwB97XD) =  -463.248951833     A.U. after   13 cycles
            NFock= 13  Conv=0.46D-08     -V/T= 2.0049
 KE= 4.610086310673D+02 PE=-2.270615062381D+03 EE= 7.482049283500D+02
 Leave Link  502 at Sat Nov  5 21:34:07 2022, MaxMem= 16106127360 cpu:             744.2 elap:              23.3
 (Enter /opt/ap/G16/B01/g16/l601.exe)
 Copying SCF densities to generalized density rwf, IOpCl= 0 IROHF=0.

 **********************************************************************

            Population analysis using the SCF Density.

 **********************************************************************

 Orbital symmetries:
       Occupied  (A) (A) (A) (A) (A) (A) (A) (A) (A) (A) (A) (A)
                 (A) (A) (A) (A) (A) (A) (A) (A) (A) (A) (A) (A)
                 (A) (A) (A) (A) (A) (A) (A) (A) (A) (A) (A) (A)
                 (A) (A) (A) (A) (A)
       Virtual   (A) (A) (A) (A) (A) (A) (A) (A) (A) (A) (A) (A)
                 (A) (A) (A) (A) (A) (A) (A) (A) (A) (A) (A) (A)
                 (A) (A) (A) (A) (A) (A) (A) (A) (A) (A) (A) (A)
                 (A) (A) (A) (A) (A) (A) (A) (A) (A) (A) (A) (A)
                 (A) (A) (A) (A) (A) (A) (A) (A) (A) (A) (A) (A)
                 (A) (A) (A) (A) (A) (A) (A) (A) (A) (A) (A) (A)
                 (A) (A) (A) (A) (A) (A) (A) (A) (A) (A) (A) (A)
                 (A) (A) (A) (A) (A) (A) (A) (A) (A) (A) (A) (A)
                 (A) (A) (A) (A) (A) (A) (A) (A) (A) (A) (A) (A)
                 (A) (A) (A) (A) (A) (A) (A) (A) (A) (A) (A) (A)
                 (A) (A) (A) (A) (A) (A) (A) (A) (A) (A) (A) (A)
                 (A) (A) (A) (A) (A) (A) (A) (A) (A) (A) (A) (A)
                 (A) (A) (A) (A) (A) (A) (A) (A) (A) (A) (A) (A)
                 (A) (A) (A) (A) (A) (A) (A) (A) (A) (A) (A) (A)
                 (A) (A) (A) (A) (A) (A) (A) (A) (A) (A) (A) (A)
                 (A) (A) (A) (A) (A) (A) (A) (A) (A) (A) (A) (A)
                 (A) (A) (A) (A) (A) (A) (A) (A) (A) (A) (A) (A)
                 (A) (A) (A) (A) (A) (A) (A) (A) (A) (A) (A) (A)
                 (A) (A) (A) (A) (A) (A) (A) (A) (A) (A) (A) (A)
                 (A) (A) (A) (A) (A) (A) (A) (A) (A) (A) (A) (A)
                 (A) (A) (A) (A) (A) (A) (A) (A) (A) (A) (A) (A)
                 (A) (A) (A) (A) (A) (A) (A) (A) (A) (A) (A) (A)
                 (A) (A) (A) (A) (A) (A) (A) (A) (A) (A) (A) (A)
                 (A) (A) (A) (A) (A) (A) (A) (A) (A) (A) (A) (A)
                 (A) (A) (A)
 The electronic state is 1-A.
 Alpha  occ. eigenvalues --  -10.30425 -10.30395 -10.29328 -10.29328 -10.29316
 Alpha  occ. eigenvalues --  -10.29316 -10.29251 -10.29251 -10.29242 -10.29242
 Alpha  occ. eigenvalues --  -10.29213 -10.29213  -0.97529  -0.95305  -0.88174
 Alpha  occ. eigenvalues --   -0.85188  -0.84796  -0.82383  -0.72322  -0.71043
 Alpha  occ. eigenvalues --   -0.69549  -0.67483  -0.62550  -0.59541  -0.55884
 Alpha  occ. eigenvalues --   -0.55214  -0.53782  -0.53424  -0.51084  -0.50840
 Alpha  occ. eigenvalues --   -0.50820  -0.46489  -0.45499  -0.45439  -0.43218
 Alpha  occ. eigenvalues --   -0.42491  -0.41964  -0.34481  -0.33687  -0.33215
 Alpha  occ. eigenvalues --   -0.31502
 Alpha virt. eigenvalues --    0.03650   0.03865   0.04301   0.04567   0.04998
 Alpha virt. eigenvalues --    0.05681   0.05953   0.05972   0.06638   0.07064
 Alpha virt. eigenvalues --    0.07410   0.07631   0.09252   0.09295   0.12663
 Alpha virt. eigenvalues --    0.12714   0.12746   0.13334   0.15107   0.15372
 Alpha virt. eigenvalues --    0.15412   0.15816   0.16013   0.16352   0.16996
 Alpha virt. eigenvalues --    0.17418   0.17482   0.17655   0.17668   0.17805
 Alpha virt. eigenvalues --    0.18543   0.18682   0.18905   0.19390   0.19555
 Alpha virt. eigenvalues --    0.20328   0.20634   0.22132   0.22191   0.22242
 Alpha virt. eigenvalues --    0.22522   0.22762   0.23792   0.23906   0.25314
 Alpha virt. eigenvalues --    0.25668   0.26366   0.26544   0.26746   0.27272
 Alpha virt. eigenvalues --    0.27782   0.28300   0.28764   0.29624   0.30330
 Alpha virt. eigenvalues --    0.30945   0.31414   0.31866   0.32522   0.32594
 Alpha virt. eigenvalues --    0.33672   0.33738   0.34826   0.35034   0.35329
 Alpha virt. eigenvalues --    0.35358   0.36044   0.36225   0.36243   0.36759
 Alpha virt. eigenvalues --    0.37984   0.38317   0.38907   0.40904   0.42799
 Alpha virt. eigenvalues --    0.43308   0.43512   0.44147   0.45611   0.46362
 Alpha virt. eigenvalues --    0.47990   0.55742   0.58522   0.61021   0.61074
 Alpha virt. eigenvalues --    0.61456   0.61582   0.62069   0.62570   0.63410
 Alpha virt. eigenvalues --    0.63762   0.64178   0.64559   0.64979   0.65673
 Alpha virt. eigenvalues --    0.65815   0.66750   0.68125   0.68532   0.70791
 Alpha virt. eigenvalues --    0.72342   0.72377   0.72831   0.73702   0.74718
 Alpha virt. eigenvalues --    0.78148   0.78589   0.79152   0.79595   0.80367
 Alpha virt. eigenvalues --    0.80692   0.81057   0.81547   0.82076   0.82231
 Alpha virt. eigenvalues --    0.83118   0.85700   0.86027   0.88339   0.89583
 Alpha virt. eigenvalues --    0.90508   0.92023   0.93121   0.93600   0.93862
 Alpha virt. eigenvalues --    0.95200   0.96172   0.96638   0.97293   0.98631
 Alpha virt. eigenvalues --    0.98815   1.01240   1.01660   1.02714   1.03770
 Alpha virt. eigenvalues --    1.04150   1.07717   1.09150   1.11065   1.11281
 Alpha virt. eigenvalues --    1.11501   1.13615   1.14038   1.16434   1.16470
 Alpha virt. eigenvalues --    1.17774   1.19444   1.23683   1.24341   1.25832
 Alpha virt. eigenvalues --    1.25957   1.37732   1.40565   1.41543   1.43962
 Alpha virt. eigenvalues --    1.50432   1.57814   1.58416   1.59636   1.59684
 Alpha virt. eigenvalues --    1.60643   1.62042   1.62490   1.63468   1.65300
 Alpha virt. eigenvalues --    1.65385   1.65778   1.66768   1.70504   1.72202
 Alpha virt. eigenvalues --    1.73300   1.74418   1.74798   1.74940   1.75158
 Alpha virt. eigenvalues --    1.79870   1.82632   1.82733   1.84579   1.86087
 Alpha virt. eigenvalues --    1.86284   1.87793   1.88397   1.91970   1.92261
 Alpha virt. eigenvalues --    1.93080   1.98593   1.98678   1.99693   2.01183
 Alpha virt. eigenvalues --    2.03262   2.04217   2.04404   2.04465   2.05213
 Alpha virt. eigenvalues --    2.05358   2.07979   2.09343   2.10298   2.10703
 Alpha virt. eigenvalues --    2.11627   2.15104   2.16754   2.17011   2.19910
 Alpha virt. eigenvalues --    2.20200   2.31022   2.34849   2.35321   2.39947
 Alpha virt. eigenvalues --    2.46224   2.51427   2.52333   2.52719   2.52967
 Alpha virt. eigenvalues --    2.55413   2.55830   2.56073   2.57590   2.63676
 Alpha virt. eigenvalues --    2.70790   2.73569   2.74616   2.74651   2.75013
 Alpha virt. eigenvalues --    2.79318   2.79990   2.80360   2.80377   2.81524
 Alpha virt. eigenvalues --    2.82693   2.83262   2.85454   2.85853   2.86465
 Alpha virt. eigenvalues --    2.87982   2.89274   2.89789   2.91438   2.91653
 Alpha virt. eigenvalues --    2.91656   2.92210   2.97673   2.98518   3.00497
 Alpha virt. eigenvalues --    3.01203   3.03972   3.04176   3.05348   3.12187
 Alpha virt. eigenvalues --    3.15430   3.19651   3.22145   3.26625   3.29267
 Alpha virt. eigenvalues --    3.34111   3.43977   3.46193   3.48099   3.48823
 Alpha virt. eigenvalues --    3.58514   3.60666   3.63217   3.64038   3.68528
 Alpha virt. eigenvalues --    3.73409   3.75384   3.92940   4.08747   4.09819
 Alpha virt. eigenvalues --    4.13472   4.14671   4.24568   4.25055   4.25238
 Alpha virt. eigenvalues --    4.26553   4.50823   4.93510   4.95234  23.70916
 Alpha virt. eigenvalues --   23.85182  24.06883  24.09131  24.09425  24.11160
 Alpha virt. eigenvalues --   24.17438  24.22009  24.22517  24.22525  24.30854
 Alpha virt. eigenvalues --   24.32323
          Condensed to atoms (all electrons):
               1          2          3          4          5          6
     1  C   18.553363   0.810706   0.810500  -1.823976   0.099585  -6.406116
     2  C    0.810706  13.311682  -3.778915  -0.123218   0.399737  -3.288142
     3  C    0.810500  -3.778915  13.306794  -1.140098   0.066744  -3.283936
     4  C   -1.823976  -0.123218  -1.140098   6.774939  -0.100444   1.441849
     5  H    0.099585   0.399737   0.066744  -0.100444   0.464735  -0.094480
     6  C   -6.406116  -3.288142  -3.283936   1.441849  -0.094480  18.554275
     7  C   -1.823599  -1.139150  -0.121995   0.279399  -0.018975   1.440187
     8  H    0.099524   0.066765   0.399621  -0.018988   0.000622  -0.094336
     9  C   -0.164986   0.636349   0.635755   0.017718   0.023354  -1.316657
    10  H    0.031987  -0.113279  -0.024708   0.441944  -0.011703   0.050090
    11  C   -3.287769   0.253899  -0.820400   0.383156  -0.018767   0.810915
    12  C   -3.283436  -0.820280   0.255320   0.157573  -0.048391   0.810075
    13  H    0.031949  -0.024722  -0.113156   0.022365  -0.000328   0.050080
    14  H    0.026872   0.021028   0.021038  -0.054318   0.000772  -0.035441
    15  C    1.441804   0.382795   0.158063  -0.008362   0.017359  -1.824235
    16  H   -0.094446  -0.018768  -0.048415   0.017350   0.000600   0.099594
    17  C    1.439792   0.157433   0.382827  -0.089380   0.021495  -1.823408
    18  H   -0.094328  -0.048394  -0.018714   0.021508  -0.002727   0.099457
    19  C   -1.316357  -0.143064  -0.143176   0.048351  -0.016332  -0.164885
    20  H    0.050091  -0.000806   0.009005  -0.001316   0.000518   0.031997
    21  H    0.050060   0.008985  -0.000788  -0.000918   0.000612   0.031954
    22  H   -0.035438  -0.004310  -0.004332   0.001319  -0.000494   0.026875
               7          8          9         10         11         12
     1  C   -1.823599   0.099524  -0.164986   0.031987  -3.287769  -3.283436
     2  C   -1.139150   0.066765   0.636349  -0.113279   0.253899  -0.820280
     3  C   -0.121995   0.399621   0.635755  -0.024708  -0.820400   0.255320
     4  C    0.279399  -0.018988   0.017718   0.441944   0.383156   0.157573
     5  H   -0.018975   0.000622   0.023354  -0.011703  -0.018767  -0.048391
     6  C    1.440187  -0.094336  -1.316657   0.050090   0.810915   0.810075
     7  C    6.773721  -0.100385   0.018167   0.022345   0.157736   0.382649
     8  H   -0.100385   0.464723   0.023347  -0.000328  -0.048370  -0.018764
     9  C    0.018167   0.023347   6.497242  -0.088280  -0.143293  -0.142915
    10  H    0.022345  -0.000328  -0.088280   0.480078  -0.000784   0.008985
    11  C    0.157736  -0.048370  -0.143293  -0.000784  13.313088  -3.779860
    12  C    0.382649  -0.018764  -0.142915   0.008985  -3.779860  13.306261
    13  H    0.441880  -0.011701  -0.088300   0.000639   0.008994  -0.000799
    14  H   -0.054326   0.000773   0.419883  -0.008690  -0.004326  -0.004315
    15  C   -0.089311   0.021520   0.048306  -0.001311  -0.124341  -1.138806
    16  H    0.021498  -0.002727  -0.016329   0.000518   0.399782   0.066699
    17  C   -0.008059   0.017295   0.048262  -0.000917  -1.139625  -0.120859
    18  H    0.017316   0.000605  -0.016328   0.000612   0.066728   0.399623
    19  C    0.048204  -0.016325  -0.028640   0.000312   0.636914   0.634711
    20  H   -0.000914   0.000612   0.000312   0.000058  -0.113303  -0.024671
    21  H   -0.001306   0.000517   0.000311   0.000007  -0.024718  -0.113128
    22  H    0.001314  -0.000494  -0.000663   0.000009   0.021063   0.020992
              13         14         15         16         17         18
     1  C    0.031949   0.026872   1.441804  -0.094446   1.439792  -0.094328
     2  C   -0.024722   0.021028   0.382795  -0.018768   0.157433  -0.048394
     3  C   -0.113156   0.021038   0.158063  -0.048415   0.382827  -0.018714
     4  C    0.022365  -0.054318  -0.008362   0.017350  -0.089380   0.021508
     5  H   -0.000328   0.000772   0.017359   0.000600   0.021495  -0.002727
     6  C    0.050080  -0.035441  -1.824235   0.099594  -1.823408   0.099457
     7  C    0.441880  -0.054326  -0.089311   0.021498  -0.008059   0.017316
     8  H   -0.011701   0.000773   0.021520  -0.002727   0.017295   0.000605
     9  C   -0.088300   0.419883   0.048306  -0.016329   0.048262  -0.016328
    10  H    0.000639  -0.008690  -0.001311   0.000518  -0.000917   0.000612
    11  C    0.008994  -0.004326  -0.124341   0.399782  -1.139625   0.066728
    12  C   -0.000799  -0.004315  -1.138806   0.066699  -0.120859   0.399623
    13  H    0.480079  -0.008691  -0.000918   0.000612  -0.001309   0.000518
    14  H   -0.008691   0.472006   0.001317  -0.000494   0.001316  -0.000494
    15  C   -0.000918   0.001317   6.775065  -0.100478   0.279236  -0.018971
    16  H    0.000612  -0.000494  -0.100478   0.464738  -0.018974   0.000621
    17  C   -0.001309   0.001316   0.279236  -0.018974   6.773362  -0.100326
    18  H    0.000518  -0.000494  -0.018971   0.000621  -0.100326   0.464720
    19  C    0.000312  -0.000663   0.017685   0.023370   0.018483   0.023331
    20  H    0.000007   0.000009   0.441950  -0.011706   0.022337  -0.000328
    21  H    0.000058   0.000009   0.022351  -0.000328   0.441857  -0.011699
    22  H    0.000009  -0.000011  -0.054349   0.000774  -0.054300   0.000772
              19         20         21         22
     1  C   -1.316357   0.050091   0.050060  -0.035438
     2  C   -0.143064  -0.000806   0.008985  -0.004310
     3  C   -0.143176   0.009005  -0.000788  -0.004332
     4  C    0.048351  -0.001316  -0.000918   0.001319
     5  H   -0.016332   0.000518   0.000612  -0.000494
     6  C   -0.164885   0.031997   0.031954   0.026875
     7  C    0.048204  -0.000914  -0.001306   0.001314
     8  H   -0.016325   0.000612   0.000517  -0.000494
     9  C   -0.028640   0.000312   0.000311  -0.000663
    10  H    0.000312   0.000058   0.000007   0.000009
    11  C    0.636914  -0.113303  -0.024718   0.021063
    12  C    0.634711  -0.024671  -0.113128   0.020992
    13  H    0.000312   0.000007   0.000058   0.000009
    14  H   -0.000663   0.000009   0.000009  -0.000011
    15  C    0.017685   0.441950   0.022351  -0.054349
    16  H    0.023370  -0.011706  -0.000328   0.000774
    17  C    0.018483   0.022337   0.441857  -0.054300
    18  H    0.023331  -0.000328  -0.011699   0.000772
    19  C    6.497031  -0.088298  -0.088280   0.419893
    20  H   -0.088298   0.480079   0.000638  -0.008692
    21  H   -0.088280   0.000638   0.480077  -0.008690
    22  H    0.419893  -0.008692  -0.008690   0.472009
 Mulliken charges:
               1
     1  C    0.884217
     2  C   -0.546331
     3  C   -0.547035
     4  C   -0.246451
     5  H    0.216508
     6  C    0.884287
     7  C   -0.246395
     8  H    0.216496
     9  C   -0.362614
    10  H    0.212418
    11  C   -0.546719
    12  C   -0.546664
    13  H    0.212422
    14  H    0.206744
    15  C   -0.246366
    16  H    0.216509
    17  C   -0.246536
    18  H    0.216499
    19  C   -0.362574
    20  H    0.212422
    21  H    0.212419
    22  H    0.206744
 Sum of Mulliken charges =  -0.00000
 Mulliken charges with hydrogens summed into heavy atoms:
               1
     1  C    0.884217
     2  C   -0.329823
     3  C   -0.330539
     4  C   -0.034033
     6  C    0.884287
     7  C   -0.033973
     9  C   -0.155870
    11  C   -0.330209
    12  C   -0.330166
    15  C   -0.033944
    17  C   -0.034117
    19  C   -0.155831
 Electronic spatial extent (au):  <R**2>=           2312.0093
 Charge=             -0.0000 electrons
 Dipole moment (field-independent basis, Debye):
    X=              0.0000    Y=             -0.0001    Z=              0.0003  Tot=              0.0004
 Quadrupole moment (field-independent basis, Debye-Ang):
   XX=            -61.7485   YY=            -65.7723   ZZ=            -73.2226
   XY=              0.0004   XZ=             -0.0006   YZ=             -0.0000
 Traceless Quadrupole moment (field-independent basis, Debye-Ang):
   XX=              5.1660   YY=              1.1422   ZZ=             -6.3082
   XY=              0.0004   XZ=             -0.0006   YZ=             -0.0000
 Octapole moment (field-independent basis, Debye-Ang**2):
  XXX=              0.0004  YYY=             -0.0007  ZZZ=              0.0028  XYY=             -0.0005
  XXY=             -0.0021  XXZ=              0.0013  XZZ=              0.0005  YZZ=             -0.0009
  YYZ=              0.0005  XYZ=            -17.2316
 Hexadecapole moment (field-independent basis, Debye-Ang**3):
 XXXX=          -2302.1382 YYYY=           -435.6509 ZZZZ=           -248.8175 XXXY=             -0.0001
 XXXZ=             -0.0212 YYYX=              0.0091 YYYZ=             -0.0000 ZZZX=              0.0009
 ZZZY=             -0.0001 XXYY=           -481.2311 XXZZ=           -495.1175 YYZZ=            -99.6780
 XXYZ=             -0.0011 YYXZ=              0.0019 ZZXY=             -0.0041
 N-N= 5.981525511311D+02 E-N=-2.270615062073D+03  KE= 4.610086310673D+02
 No NMR shielding tensors so no spin-rotation constants.
 Leave Link  601 at Sat Nov  5 21:34:07 2022, MaxMem= 16106127360 cpu:               4.8 elap:               0.2
 (Enter /opt/ap/G16/B01/g16/l9999.exe)
 1\1\GINC-N04\SP\RwB97XD\6-311++G(d,p)\C12H10\ROOT\05-Nov-2022\0\\#P wB
 97XD/6-311++G(d,p) scf=maxcycle=512\\_conf005.gjf nmol_natom 1_22\\0,1
 \C\C,1,1.40491871\C,1,1.40495292,2,118.20503621\C,2,1.3939373,1,120.91
 08946,3,0.05365643,0\H,2,1.08593095,1,119.3452094,3,-178.3624307,0\C,1
 ,1.48449301,2,120.90144423,4,-179.96388019,0\C,3,1.39389842,1,120.9105
 0598,2,0.03587687,0\H,3,1.08593608,1,119.34159615,2,-178.38281524,0\C,
 4,1.39606958,2,120.24555868,1,-0.09283196,0\H,4,1.08627898,2,119.66792
 041,1,-179.51486187,0\C,6,1.40492034,1,120.90156908,2,-65.,0\C,6,1.404
 95329,1,120.89324856,2,115.,0\H,7,1.08627928,3,119.67027175,1,-179.512
 58183,0\H,9,1.08597601,4,120.2602535,2,-179.95233103,0\C,11,1.39393437
 ,6,120.91099656,1,-179.95869964,0\H,11,1.08593173,6,119.34475907,1,1.6
 1891886,0\C,12,1.39390147,6,120.91022615,1,-179.94297913,0\H,12,1.0859
 3608,6,119.34175044,1,1.63241608,0\C,15,1.39607161,11,120.24535737,6,-
 0.10315482,0\H,15,1.08627786,11,119.66861247,6,-179.51844254,0\H,17,1.
 08627825,12,119.6702798,6,-179.51590091,0\H,19,1.08597601,15,120.25988
 597,11,-179.94731581,0\\Version=ES64L-G16RevB.01\State=1-A\HF=-463.248
 9518\RMSD=4.575e-09\Dipole=0.0000059,-0.0001372,-0.0000277\Quadrupole=
 2.6296756,-3.0903441,0.4606685,1.2896248,2.0232779,-2.1537347\PG=C01 [
 X(C12H10)]\\@


 I DO NOT DEFINE TIME, SPACE, PLACE, AND MOTION, AS BEING WELL KNOWN TO ALL.
                                            -- NEWTON (1642-1726), PRINCIPIA
 Job cpu time:       0 days  0 hours 13 minutes  8.1 seconds.
 Elapsed time:       0 days  0 hours  0 minutes 24.8 seconds.
 File lengths (MBytes):  RWF=     62 Int=      0 D2E=      0 Chk=      8 Scr=      1
 Normal termination of Gaussian 16 at Sat Nov  5 21:34:07 2022.
