 Entering Gaussian System, Link 0=g16
 Input=_conf020.gjf
 Output=_conf020.log
 Initial command:
 /opt/ap/G16/B01/g16/l1.exe "/tmp2/scr/Gau-14233.inp" -scrdir="/tmp2/scr/"
 Entering Link 1 = /opt/ap/G16/B01/g16/l1.exe PID=     14234.
  
 Copyright (c) 1988-2017, Gaussian, Inc.  All Rights Reserved.
  
 This is part of the Gaussian(R) 16 program.  It is based on
 the Gaussian(R) 09 system (copyright 2009, Gaussian, Inc.),
 the Gaussian(R) 03 system (copyright 2003, Gaussian, Inc.),
 the Gaussian(R) 98 system (copyright 1998, Gaussian, Inc.),
 the Gaussian(R) 94 system (copyright 1995, Gaussian, Inc.),
 the Gaussian 92(TM) system (copyright 1992, Gaussian, Inc.),
 the Gaussian 90(TM) system (copyright 1990, Gaussian, Inc.),
 the Gaussian 88(TM) system (copyright 1988, Gaussian, Inc.),
 the Gaussian 86(TM) system (copyright 1986, Carnegie Mellon
 University), and the Gaussian 82(TM) system (copyright 1983,
 Carnegie Mellon University). Gaussian is a federally registered
 trademark of Gaussian, Inc.
  
 This software contains proprietary and confidential information,
 including trade secrets, belonging to Gaussian, Inc.
  
 This software is provided under written license and may be
 used, copied, transmitted, or stored only in accord with that
 written license.
  
 The following legend is applicable only to US Government
 contracts under FAR:
  
                    RESTRICTED RIGHTS LEGEND
  
 Use, reproduction and disclosure by the US Government is
 subject to restrictions as set forth in subparagraphs (a)
 and (c) of the Commercial Computer Software - Restricted
 Rights clause in FAR 52.227-19.
  
 Gaussian, Inc.
 340 Quinnipiac St., Bldg. 40, Wallingford CT 06492
  
  
 ---------------------------------------------------------------
 Warning -- This program may not be used in any manner that
 competes with the business of Gaussian, Inc. or will provide
 assistance to any competitor of Gaussian, Inc.  The licensee
 of this program is prohibited from giving any competitor of
 Gaussian, Inc. access to this program.  By using this program,
 the user acknowledges that Gaussian, Inc. is engaged in the
 business of creating and licensing software in the field of
 computational chemistry and represents and warrants to the
 licensee that it is not a competitor of Gaussian, Inc. and that
 it will not use this program in any manner prohibited above.
 ---------------------------------------------------------------
  

 Cite this work as:
 Gaussian 16, Revision B.01,
 M. J. Frisch, G. W. Trucks, H. B. Schlegel, G. E. Scuseria, 
 M. A. Robb, J. R. Cheeseman, G. Scalmani, V. Barone, 
 G. A. Petersson, H. Nakatsuji, X. Li, M. Caricato, A. V. Marenich, 
 J. Bloino, B. G. Janesko, R. Gomperts, B. Mennucci, H. P. Hratchian, 
 J. V. Ortiz, A. F. Izmaylov, J. L. Sonnenberg, D. Williams-Young, 
 F. Ding, F. Lipparini, F. Egidi, J. Goings, B. Peng, A. Petrone, 
 T. Henderson, D. Ranasinghe, V. G. Zakrzewski, J. Gao, N. Rega, 
 G. Zheng, W. Liang, M. Hada, M. Ehara, K. Toyota, R. Fukuda, 
 J. Hasegawa, M. Ishida, T. Nakajima, Y. Honda, O. Kitao, H. Nakai, 
 T. Vreven, K. Throssell, J. A. Montgomery, Jr., J. E. Peralta, 
 F. Ogliaro, M. J. Bearpark, J. J. Heyd, E. N. Brothers, K. N. Kudin, 
 V. N. Staroverov, T. A. Keith, R. Kobayashi, J. Normand, 
 K. Raghavachari, A. P. Rendell, J. C. Burant, S. S. Iyengar, 
 J. Tomasi, M. Cossi, J. M. Millam, M. Klene, C. Adamo, R. Cammi, 
 J. W. Ochterski, R. L. Martin, K. Morokuma, O. Farkas, 
 J. B. Foresman, and D. J. Fox, Gaussian, Inc., Wallingford CT, 2016.
 
 ******************************************
 Gaussian 16:  ES64L-G16RevB.01 20-Dec-2017
                 5-Nov-2022 
 ******************************************
 %nprocshared=32
 Will use up to   32 processors via shared memory.
 %mem=120GB
 %chk=_conf020.chk
 ----------------------------------------
 #P wB97XD/6-311++G(d,p) scf=maxcycle=512
 ----------------------------------------
 1/38=1,172=1/1;
 2/12=2,17=6,18=5,40=1/2;
 3/5=4,6=6,7=1111,11=2,25=1,30=1,74=-58/1,2,3;
 4//1;
 5/5=2,7=512,38=5/2;
 6/7=2,8=2,9=2,10=2,28=1/1;
 99/5=1,9=1/99;
 Leave Link    1 at Sat Nov  5 21:35:31 2022, MaxMem= 16106127360 cpu:               1.8 elap:               0.1
 (Enter /opt/ap/G16/B01/g16/l101.exe)
 ----------------------------
 _conf020.gjf nmol_natom 1_22
 ----------------------------
 Symbolic Z-matrix:
 Charge =  0 Multiplicity = 1
 C
 C                    1     1.40492 
 C                    1     1.40495  2     118.20504 
 C                    2     1.39394  1     120.91089  3     0.05366  0
 H                    2     1.08593  1     119.34521  3    -178.36243  0
 C                    1     1.48449  2     120.90144  4    -179.96388  0
 C                    3     1.3939   1     120.91051  2     0.03588  0
 H                    3     1.08594  1     119.3416  2    -178.38282  0
 C                    4     1.39607  2     120.24556  1    -0.09283  0
 H                    4     1.08628  2     119.66792  1    -179.51486  0
 C                    6     1.40492  1     120.90157  2     10.      0
 C                    6     1.40495  1     120.89325  2    -170.     0
 H                    7     1.08628  3     119.67027  1    -179.51258  0
 H                    9     1.08598  4     120.26025  2    -179.95233  0
 C                    11    1.39393  6     120.911  1    -179.9587  0
 H                    11    1.08593  6     119.34476  1     1.61892  0
 C                    12    1.3939   6     120.91023  1    -179.94298  0
 H                    12    1.08594  6     119.34175  1     1.63242  0
 C                    15    1.39607  11    120.24536  6    -0.10315  0
 H                    15    1.08628  11    119.66861  6    -179.51844  0
 H                    17    1.08628  12    119.67028  6    -179.5159  0
 H                    19    1.08598  15    120.25989  11   -179.94732  0
 
 ITRead=  0  0  0  0  0  0  0  0  0  0  0  0  0  0  0  0  0  0  0  0
 ITRead=  0  0
 MicOpt= -1 -1 -1 -1 -1 -1 -1 -1 -1 -1 -1 -1 -1 -1 -1 -1 -1 -1 -1 -1
 MicOpt= -1 -1
 NAtoms=     22 NQM=       22 NQMF=       0 NMMI=      0 NMMIF=      0
                NMic=       0 NMicF=      0.
                    Isotopes and Nuclear Properties:
 (Nuclear quadrupole moments (NQMom) in fm**2, nuclear magnetic moments (NMagM)
  in nuclear magnetons)

  Atom         1           2           3           4           5           6           7           8           9          10
 IAtWgt=          12          12          12          12           1          12          12           1          12           1
 AtmWgt=  12.0000000  12.0000000  12.0000000  12.0000000   1.0078250  12.0000000  12.0000000   1.0078250  12.0000000   1.0078250
 NucSpn=           0           0           0           0           1           0           0           1           0           1
 AtZEff=  -0.0000000  -0.0000000  -0.0000000  -0.0000000  -0.0000000  -0.0000000  -0.0000000  -0.0000000  -0.0000000  -0.0000000
 NQMom=    0.0000000   0.0000000   0.0000000   0.0000000   0.0000000   0.0000000   0.0000000   0.0000000   0.0000000   0.0000000
 NMagM=    0.0000000   0.0000000   0.0000000   0.0000000   2.7928460   0.0000000   0.0000000   2.7928460   0.0000000   2.7928460
 AtZNuc=   6.0000000   6.0000000   6.0000000   6.0000000   1.0000000   6.0000000   6.0000000   1.0000000   6.0000000   1.0000000

  Atom        11          12          13          14          15          16          17          18          19          20
 IAtWgt=          12          12           1           1          12           1          12           1          12           1
 AtmWgt=  12.0000000  12.0000000   1.0078250   1.0078250  12.0000000   1.0078250  12.0000000   1.0078250  12.0000000   1.0078250
 NucSpn=           0           0           1           1           0           1           0           1           0           1
 AtZEff=  -0.0000000  -0.0000000  -0.0000000  -0.0000000  -0.0000000  -0.0000000  -0.0000000  -0.0000000  -0.0000000  -0.0000000
 NQMom=    0.0000000   0.0000000   0.0000000   0.0000000   0.0000000   0.0000000   0.0000000   0.0000000   0.0000000   0.0000000
 NMagM=    0.0000000   0.0000000   2.7928460   2.7928460   0.0000000   2.7928460   0.0000000   2.7928460   0.0000000   2.7928460
 AtZNuc=   6.0000000   6.0000000   1.0000000   1.0000000   6.0000000   1.0000000   6.0000000   1.0000000   6.0000000   1.0000000

  Atom        21          22
 IAtWgt=           1           1
 AtmWgt=   1.0078250   1.0078250
 NucSpn=           1           1
 AtZEff=  -0.0000000  -0.0000000
 NQMom=    0.0000000   0.0000000
 NMagM=    2.7928460   2.7928460
 AtZNuc=   1.0000000   1.0000000
 Leave Link  101 at Sat Nov  5 21:35:31 2022, MaxMem= 16106127360 cpu:               5.3 elap:               0.2
 (Enter /opt/ap/G16/B01/g16/l202.exe)
                          Input orientation:                          
 ---------------------------------------------------------------------
 Center     Atomic      Atomic             Coordinates (Angstroms)
 Number     Number       Type             X           Y           Z
 ---------------------------------------------------------------------
      1          6           0        0.000000    0.000000    0.000000
      2          6           0        0.000000    0.000000    1.404919
      3          6           0        1.238131    0.000000   -0.664020
      4          6           0        1.195952    0.001120    2.120990
      5          1           0       -0.946201   -0.027051    1.937101
      6          6           0       -1.273772   -0.000390   -0.762381
      7          6           0        2.434381   -0.000749    0.051479
      8          1           0        1.259850    0.026715   -1.749411
      9          6           0        2.418826    0.000311    1.447501
     10          1           0        1.172413   -0.006894    3.206985
     11          6           0       -2.502627    0.208566   -0.114264
     12          6           0       -1.282914   -0.209747   -2.151618
     13          1           0        3.380326    0.007295   -0.482493
     14          1           0        3.350700    0.000403    2.005133
     15          6           0       -3.698887    0.207390   -0.829814
     16          1           0       -2.514877    0.398575    0.954845
     17          6           0       -2.478638   -0.209013   -2.868000
     18          1           0       -0.346298   -0.399676   -2.667306
     19          6           0       -3.692363   -0.000742   -2.210269
     20          1           0       -4.636865    0.378843   -0.309429
     21          1           0       -2.463027   -0.380805   -3.940494
     22          1           0       -4.624121   -0.000856   -2.768095
 ---------------------------------------------------------------------
                    Distance matrix (angstroms):
                    1          2          3          4          5
     1  C    0.000000
     2  C    1.404919   0.000000
     3  C    1.404953   2.411116   0.000000
     4  C    2.434934   1.393937   2.785330   0.000000
     5  H    2.156012   1.085931   3.396745   2.150216   0.000000
     6  C    1.484493   2.513898   2.513829   3.796494   2.719415
     7  C    2.434925   2.785320   1.393898   2.411760   3.870994
     8  H    2.156008   3.396723   1.085936   3.871013   4.296501
     9  C    2.818861   2.419201   2.419207   1.396070   3.400568
    10  H    3.414579   2.149893   3.871569   1.086279   2.470128
    11  C    2.513901   2.935056   3.786688   4.326532   2.585745
    12  C    2.513826   3.786662   2.934724   4.944130   4.106626
    13  H    3.414594   3.871560   2.149884   3.398478   4.957262
    14  H    3.904837   3.404035   3.404016   2.157861   4.297527
    15  C    3.796494   4.326524   4.944153   5.719200   3.909996
    16  H    2.719411   2.585736   4.106660   3.910002   1.899139
    17  C    3.796414   4.944205   4.326152   6.199741   5.046828
    18  H    2.719225   4.106419   2.585210   5.046480   4.658251
    19  C    4.303351   5.167506   5.167268   6.531112   4.974211
    20  H    4.662595   4.958128   5.897868   6.330195   4.339661
    21  H    4.662511   5.897877   4.957708   7.090528   6.080463
    22  H    5.389327   6.228687   6.228414   7.601080   5.972157
                    6          7          8          9         10
     6  C    0.000000
     7  C    3.796415   0.000000
     8  H    2.719228   2.150228   0.000000
     9  C    4.303354   1.396108   3.400612   0.000000
    10  H    4.662588   3.398502   4.957280   2.156243   0.000000
    11  C    1.404920   4.944222   4.106459   5.167512   4.958128
    12  C    1.404953   4.326152   2.585214   5.167267   5.897830
    13  H    4.662512   1.086279   2.470197   2.156248   4.299689
    14  H    5.389330   2.157871   4.297551   1.085976   2.487858
    15  C    2.434934   6.199756   5.046521   6.531115   6.330184
    16  H    2.156010   5.046848   4.658308   4.974208   4.339659
    17  C    2.434925   5.718784   3.909361   6.530889   7.090590
    18  H    2.156010   3.909362   1.898434   4.973684   6.080136
    19  C    2.818858   6.530887   4.973686   7.122212   7.280983
    20  H    3.414583   7.090618   6.080196   7.280994   6.801594
    21  H    3.414594   6.329684   4.338978   7.280675   8.027621
    22  H    3.904834   7.600819   5.971565   8.208188   8.324747
                   11         12         13         14         15
    11  C    0.000000
    12  C    2.411119   0.000000
    13  H    5.897900   4.957709   0.000000
    14  H    6.228693   6.228412   2.487812   0.000000
    15  C    1.393934   2.785336   7.090552   7.601083   0.000000
    16  H    1.085932   3.396748   6.080498   5.972156   2.150219
    17  C    2.785320   1.393901   6.329683   7.600820   2.411763
    18  H    3.396725   1.085936   4.338981   5.971562   3.871016
    19  C    2.419198   2.419208   7.280672   8.208188   1.396072
    20  H    2.149897   3.871575   8.027661   8.324760   1.086278
    21  H    3.871558   2.149886   6.800968   8.324376   3.398478
    22  H    3.404029   3.404019   8.324374   9.294164   2.157859
                   16         17         18         19         20
    16  H    0.000000
    17  C    3.870997   0.000000
    18  H    4.296501   2.150234   0.000000
    19  C    3.400569   1.396107   3.400615   0.000000
    20  H    2.470145   3.398500   4.957282   2.156238   0.000000
    21  H    4.957264   1.086278   2.470204   2.156245   4.299683
    22  H    4.297527   2.157871   4.297556   1.085976   2.487844
                   21         22
    21  H    0.000000
    22  H    2.487812   0.000000
 Stoichiometry    C12H10
 Framework group  C1[X(C12H10)]
 Deg. of freedom    60
 Full point group                 C1      NOp   1
 Largest Abelian subgroup         C1      NOp   1
 Largest concise Abelian subgroup C1      NOp   1
                         Standard orientation:                         
 ---------------------------------------------------------------------
 Center     Atomic      Atomic             Coordinates (Angstroms)
 Number     Number       Type             X           Y           Z
 ---------------------------------------------------------------------
      1          6           0        0.742246    0.000129   -0.000147
      2          6           0        1.463767    1.201031    0.104920
      3          6           0        1.463604   -1.200931   -0.104987
      4          6           0        2.857704    1.201329    0.104053
      5          1           0        0.925188    2.137682    0.213838
      6          6           0       -0.742247    0.000125   -0.000002
      7          6           0        2.857502   -1.201436   -0.104048
      8          1           0        0.924822   -2.137490   -0.213740
      9          6           0        3.561107   -0.000089   -0.000010
     10          1           0        3.395237    2.140965    0.194302
     11          6           0       -1.463778    1.201035   -0.104927
     12          6           0       -1.463593   -1.200921    0.105074
     13          1           0        3.394939   -2.141140   -0.194154
     14          1           0        4.647083   -0.000201    0.000069
     15          6           0       -2.857712    1.201335   -0.103952
     16          1           0       -0.925198    2.137701   -0.213716
     17          6           0       -2.857494   -1.201441    0.104060
     18          1           0       -0.924803   -2.137460    0.213972
     19          6           0       -3.561105   -0.000113   -0.000138
     20          1           0       -3.395262    2.140976   -0.194032
     21          1           0       -3.394926   -2.141134    0.194297
     22          1           0       -4.647081   -0.000227   -0.000214
 ---------------------------------------------------------------------
 Rotational constants (GHZ):           2.8585222           0.5570727           0.4674101
 Leave Link  202 at Sat Nov  5 21:35:31 2022, MaxMem= 16106127360 cpu:               0.2 elap:               0.0
 (Enter /opt/ap/G16/B01/g16/l301.exe)
 Standard basis: 6-311++G(d,p) (5D, 7F)
 Ernie: Thresh=  0.10000D-02 Tol=  0.10000D-05 Strict=F.
 There are   346 symmetry adapted cartesian basis functions of A   symmetry.
 There are   334 symmetry adapted basis functions of A   symmetry.
   334 basis functions,   522 primitive gaussians,   346 cartesian basis functions
    41 alpha electrons       41 beta electrons
       nuclear repulsion energy       599.6855058864 Hartrees.
 IExCor= 4639 DFT=T Ex+Corr=wB97XD ExCW=0 ScaHFX=  1.000000
 ScaDFX=  1.000000  1.000000  1.000000  1.000000 ScalE2=  1.000000  1.000000
 IRadAn=      5 IRanWt=     -1 IRanGd=            0 ICorTp=0 IEmpDi=121
 HFx  wShort=  0.000000 wLong=  0.200000 cFull=  0.222036 cShort=  0.000000 cLong=  0.777964
 DFx  wShort=  0.000000 wLong=  0.200000 cFull=  0.000000 cShort=  0.000000 cLong=  1.000000
 NAtoms=   22 NActive=   22 NUniq=   22 SFac= 1.00D+00 NAtFMM=   60 NAOKFM=F Big=F
 Integral buffers will be    131072 words long.
 Raffenetti 2 integral format.
 Two-electron integral symmetry is turned on.
 R6Disp:  Grimme-D2 Dispersion energy=       -0.0118050411 Hartrees.
 Nuclear repulsion after empirical dispersion term =      599.6737008453 Hartrees.
 Leave Link  301 at Sat Nov  5 21:35:31 2022, MaxMem= 16106127360 cpu:               1.2 elap:               0.0
 (Enter /opt/ap/G16/B01/g16/l302.exe)
 NPDir=0 NMtPBC=     1 NCelOv=     1 NCel=       1 NClECP=     1 NCelD=      1
         NCelK=      1 NCelE2=     1 NClLst=     1 CellRange=     0.0.
 One-electron integrals computed using PRISM.
 One-electron integral symmetry used in STVInt
 NBasis=   334 RedAO= T EigKep=  1.06D-06  NBF=   334
 NBsUse=   331 1.00D-06 EigRej=  5.41D-07 NBFU=   331
 Precomputing XC quadrature grid using
 IXCGrd= 4 IRadAn=           5 IRanWt=          -1 IRanGd=           0 AccXCQ= 0.00D+00.
 Generated NRdTot=       0 NPtTot=           0 NUsed=           0 NTot=          32
 NSgBfM=   346   346   346   346   346 MxSgAt=    22 MxSgA2=    22.
 Leave Link  302 at Sat Nov  5 21:35:31 2022, MaxMem= 16106127360 cpu:               9.7 elap:               0.3
 (Enter /opt/ap/G16/B01/g16/l303.exe)
 DipDrv:  MaxL=1.
 Leave Link  303 at Sat Nov  5 21:35:31 2022, MaxMem= 16106127360 cpu:               1.5 elap:               0.1
 (Enter /opt/ap/G16/B01/g16/l401.exe)
 ExpMin= 3.60D-02 ExpMax= 4.56D+03 ExpMxC= 6.82D+02 IAcc=3 IRadAn=         5 AccDes= 0.00D+00
 Harris functional with IExCor= 4639 and IRadAn=       5 diagonalized for initial guess.
 HarFok:  IExCor= 4639 AccDes= 0.00D+00 IRadAn=         5 IDoV= 1 UseB2=F ITyADJ=14
 ICtDFT=  3500011 ScaDFX=  1.000000  1.000000  1.000000  1.000000
 FoFCou: FMM=F IPFlag=           0 FMFlag=      100000 FMFlg1=           0
         NFxFlg=           0 DoJE=T BraDBF=F KetDBF=T FulRan=T
         wScrn=  0.000000 ICntrl=       500 IOpCl=  0 I1Cent=   200000004 NGrid=           0
         NMat0=    1 NMatS0=      1 NMatT0=    0 NMatD0=    1 NMtDS0=    0 NMtDT0=    0
 Petite list used in FoFCou.
 Harris En= -441.933439170107    
 JPrj=0 DoOrth=F DoCkMO=F.
 Leave Link  401 at Sat Nov  5 21:35:32 2022, MaxMem= 16106127360 cpu:              19.8 elap:               0.6
 (Enter /opt/ap/G16/B01/g16/l502.exe)
 Integral symmetry usage will be decided dynamically.
 Closed shell SCF:
 Using DIIS extrapolation, IDIIS=  1040.
 NGot= 16106127360 LenX= 16105873520 LenY= 16105753363
 Requested convergence on RMS density matrix=1.00D-08 within 512 cycles.
 Requested convergence on MAX density matrix=1.00D-06.
 Requested convergence on             energy=1.00D-06.
 No special actions if energy rises.
 Fock matrices will be formed incrementally for  20 cycles.

 Cycle   1  Pass 1  IDiag  1:
 FoFJK:  IHMeth= 1 ICntrl=       0 DoSepK=T KAlg= 0 I1Cent=           0 FoldK=F
 IRaf=         1 NMat=       1 IRICut=       1 DoRegI=T DoRafI=F ISym2E= 0 IDoP0=0 IntGTp=1.
 FoFCou: FMM=F IPFlag=           0 FMFlag=      100000 FMFlg1=           0
         NFxFlg=           0 DoJE=T BraDBF=F KetDBF=F FulRan=T
         wScrn=  0.000000 ICntrl=       500 IOpCl=  0 I1Cent=           0 NGrid=           0
         NMat0=    1 NMatS0=      1 NMatT0=    0 NMatD0=    1 NMtDS0=    0 NMtDT0=    0
 Symmetry not used in FoFCou.
 E= -463.148099072262    
 DIIS: error= 6.85D-02 at cycle   1 NSaved=   1.
 NSaved= 1 IEnMin= 1 EnMin= -463.148099072262     IErMin= 1 ErrMin= 6.85D-02
 ErrMax= 6.85D-02  0.00D+00 EMaxC= 1.00D-01 BMatC= 9.53D-01 BMatP= 9.53D-01
 IDIUse=3 WtCom= 3.15D-01 WtEn= 6.85D-01
 Coeff-Com:  0.100D+01
 Coeff-En:   0.100D+01
 Coeff:      0.100D+01
 Gap=     0.307 Goal=   None    Shift=    0.000
 GapD=    0.307 DampG=1.000 DampE=0.500 DampFc=0.5000 IDamp=-1.
 Damping current iteration by 5.00D-01
 RMSDP=2.83D-02 MaxDP=1.39D+00              OVMax= 4.62D-02

 Cycle   2  Pass 1  IDiag  1:
 RMSU=  6.16D-03    CP:  8.26D-01
 E= -463.197587553577     Delta-E=       -0.049488481315 Rises=F Damp=T
 DIIS: error= 3.32D-02 at cycle   2 NSaved=   2.
 NSaved= 2 IEnMin= 2 EnMin= -463.197587553577     IErMin= 2 ErrMin= 3.32D-02
 ErrMax= 3.32D-02  0.00D+00 EMaxC= 1.00D-01 BMatC= 2.16D-01 BMatP= 9.53D-01
 IDIUse=3 WtCom= 6.68D-01 WtEn= 3.32D-01
 Coeff-Com: -0.883D+00 0.188D+01
 Coeff-En:   0.000D+00 0.100D+01
 Coeff:     -0.590D+00 0.159D+01
 Gap=     0.314 Goal=   None    Shift=    0.000
 RMSDP=1.75D-02 MaxDP=1.07D+00 DE=-4.95D-02 OVMax= 3.81D-02

 Cycle   3  Pass 1  IDiag  1:
 RMSU=  4.34D-03    CP:  5.95D-01  1.21D+00
 E= -463.242285563043     Delta-E=       -0.044698009466 Rises=F Damp=F
 DIIS: error= 6.56D-03 at cycle   3 NSaved=   3.
 NSaved= 3 IEnMin= 3 EnMin= -463.242285563043     IErMin= 3 ErrMin= 6.56D-03
 ErrMax= 6.56D-03  0.00D+00 EMaxC= 1.00D-01 BMatC= 4.14D-03 BMatP= 2.16D-01
 IDIUse=3 WtCom= 9.34D-01 WtEn= 6.56D-02
 Coeff-Com: -0.356D+00 0.758D+00 0.597D+00
 Coeff-En:   0.000D+00 0.000D+00 0.100D+01
 Coeff:     -0.332D+00 0.709D+00 0.624D+00
 Gap=     0.313 Goal=   None    Shift=    0.000
 RMSDP=1.80D-03 MaxDP=9.35D-02 DE=-4.47D-02 OVMax= 2.09D-02

 Cycle   4  Pass 1  IDiag  1:
 RMSU=  7.91D-04    CP:  5.92D-01  1.41D+00  7.53D-01
 E= -463.245910552811     Delta-E=       -0.003624989768 Rises=F Damp=F
 DIIS: error= 2.07D-03 at cycle   4 NSaved=   4.
 NSaved= 4 IEnMin= 4 EnMin= -463.245910552811     IErMin= 4 ErrMin= 2.07D-03
 ErrMax= 2.07D-03  0.00D+00 EMaxC= 1.00D-01 BMatC= 2.99D-04 BMatP= 4.14D-03
 IDIUse=3 WtCom= 9.79D-01 WtEn= 2.07D-02
 Coeff-Com: -0.126D+00 0.271D+00 0.298D+00 0.557D+00
 Coeff-En:   0.000D+00 0.000D+00 0.000D+00 0.100D+01
 Coeff:     -0.124D+00 0.265D+00 0.292D+00 0.567D+00
 Gap=     0.313 Goal=   None    Shift=    0.000
 RMSDP=4.21D-04 MaxDP=1.14D-02 DE=-3.62D-03 OVMax= 5.94D-03

 Cycle   5  Pass 1  IDiag  1:
 RMSU=  2.56D-04    CP:  5.89D-01  1.44D+00  7.67D-01  7.49D-01
 E= -463.246225890451     Delta-E=       -0.000315337639 Rises=F Damp=F
 DIIS: error= 4.73D-04 at cycle   5 NSaved=   5.
 NSaved= 5 IEnMin= 5 EnMin= -463.246225890451     IErMin= 5 ErrMin= 4.73D-04
 ErrMax= 4.73D-04  0.00D+00 EMaxC= 1.00D-01 BMatC= 9.80D-06 BMatP= 2.99D-04
 IDIUse=3 WtCom= 9.95D-01 WtEn= 4.73D-03
 Coeff-Com:  0.278D-01-0.595D-01-0.340D-01 0.128D+00 0.938D+00
 Coeff-En:   0.000D+00 0.000D+00 0.000D+00 0.000D+00 0.100D+01
 Coeff:      0.277D-01-0.592D-01-0.338D-01 0.127D+00 0.938D+00
 Gap=     0.313 Goal=   None    Shift=    0.000
 RMSDP=1.12D-04 MaxDP=3.75D-03 DE=-3.15D-04 OVMax= 1.81D-03

 Cycle   6  Pass 1  IDiag  1:
 RMSU=  6.16D-05    CP:  5.89D-01  1.44D+00  7.76D-01  8.25D-01  1.04D+00
 E= -463.246239491574     Delta-E=       -0.000013601123 Rises=F Damp=F
 DIIS: error= 6.19D-05 at cycle   6 NSaved=   6.
 NSaved= 6 IEnMin= 6 EnMin= -463.246239491574     IErMin= 6 ErrMin= 6.19D-05
 ErrMax= 6.19D-05  0.00D+00 EMaxC= 1.00D-01 BMatC= 4.56D-07 BMatP= 9.80D-06
 IDIUse=1 WtCom= 1.00D+00 WtEn= 0.00D+00
 Coeff-Com:  0.117D-01-0.250D-01-0.168D-01 0.317D-01 0.317D+00 0.681D+00
 Coeff:      0.117D-01-0.250D-01-0.168D-01 0.317D-01 0.317D+00 0.681D+00
 Gap=     0.313 Goal=   None    Shift=    0.000
 RMSDP=1.79D-05 MaxDP=7.01D-04 DE=-1.36D-05 OVMax= 2.81D-04

 Cycle   7  Pass 1  IDiag  1:
 RMSU=  1.37D-05    CP:  5.89D-01  1.44D+00  7.77D-01  8.29D-01  1.06D+00
                    CP:  1.12D+00
 E= -463.246240059192     Delta-E=       -0.000000567618 Rises=F Damp=F
 DIIS: error= 2.90D-05 at cycle   7 NSaved=   7.
 NSaved= 7 IEnMin= 7 EnMin= -463.246240059192     IErMin= 7 ErrMin= 2.90D-05
 ErrMax= 2.90D-05  0.00D+00 EMaxC= 1.00D-01 BMatC= 5.93D-08 BMatP= 4.56D-07
 IDIUse=1 WtCom= 1.00D+00 WtEn= 0.00D+00
 Coeff-Com: -0.248D-02 0.533D-02 0.230D-02-0.195D-01-0.115D+00 0.187D+00
 Coeff-Com:  0.943D+00
 Coeff:     -0.248D-02 0.533D-02 0.230D-02-0.195D-01-0.115D+00 0.187D+00
 Coeff:      0.943D+00
 Gap=     0.313 Goal=   None    Shift=    0.000
 RMSDP=1.67D-05 MaxDP=1.03D-03 DE=-5.68D-07 OVMax= 2.14D-04

 Cycle   8  Pass 1  IDiag  1:
 RMSU=  4.32D-06    CP:  5.89D-01  1.44D+00  7.78D-01  8.32D-01  1.07D+00
                    CP:  1.25D+00  1.24D+00
 E= -463.246240173326     Delta-E=       -0.000000114134 Rises=F Damp=F
 DIIS: error= 5.07D-06 at cycle   8 NSaved=   8.
 NSaved= 8 IEnMin= 8 EnMin= -463.246240173326     IErMin= 8 ErrMin= 5.07D-06
 ErrMax= 5.07D-06  0.00D+00 EMaxC= 1.00D-01 BMatC= 1.12D-09 BMatP= 5.93D-08
 IDIUse=1 WtCom= 1.00D+00 WtEn= 0.00D+00
 Coeff-Com: -0.322D-03 0.687D-03 0.456D-03-0.960D-03-0.630D-02-0.174D-01
 Coeff-Com: -0.396D-01 0.106D+01
 Coeff:     -0.322D-03 0.687D-03 0.456D-03-0.960D-03-0.630D-02-0.174D-01
 Coeff:     -0.396D-01 0.106D+01
 Gap=     0.313 Goal=   None    Shift=    0.000
 RMSDP=2.29D-06 MaxDP=1.22D-04 DE=-1.14D-07 OVMax= 4.06D-05

 Cycle   9  Pass 1  IDiag  1:
 RMSU=  7.64D-07    CP:  5.89D-01  1.44D+00  7.78D-01  8.31D-01  1.07D+00
                    CP:  1.26D+00  1.29D+00  1.23D+00
 E= -463.246240176979     Delta-E=       -0.000000003653 Rises=F Damp=F
 DIIS: error= 2.50D-06 at cycle   9 NSaved=   9.
 NSaved= 9 IEnMin= 9 EnMin= -463.246240176979     IErMin= 9 ErrMin= 2.50D-06
 ErrMax= 2.50D-06  0.00D+00 EMaxC= 1.00D-01 BMatC= 3.11D-10 BMatP= 1.12D-09
 IDIUse=1 WtCom= 1.00D+00 WtEn= 0.00D+00
 Coeff-Com:  0.166D-03-0.360D-03-0.899D-04 0.198D-02 0.114D-01-0.266D-01
 Coeff-Com: -0.128D+00 0.396D+00 0.746D+00
 Coeff:      0.166D-03-0.360D-03-0.899D-04 0.198D-02 0.114D-01-0.266D-01
 Coeff:     -0.128D+00 0.396D+00 0.746D+00
 Gap=     0.313 Goal=   None    Shift=    0.000
 RMSDP=3.80D-07 MaxDP=1.24D-05 DE=-3.65D-09 OVMax= 1.56D-05

 Cycle  10  Pass 1  IDiag  1:
 RMSU=  1.74D-07    CP:  5.89D-01  1.44D+00  7.78D-01  8.31D-01  1.07D+00
                    CP:  1.26D+00  1.28D+00  1.26D+00  1.25D+00
 E= -463.246240177493     Delta-E=       -0.000000000513 Rises=F Damp=F
 DIIS: error= 3.79D-07 at cycle  10 NSaved=  10.
 NSaved=10 IEnMin=10 EnMin= -463.246240177493     IErMin=10 ErrMin= 3.79D-07
 ErrMax= 3.79D-07  0.00D+00 EMaxC= 1.00D-01 BMatC= 1.99D-11 BMatP= 3.11D-10
 IDIUse=1 WtCom= 1.00D+00 WtEn= 0.00D+00
 Coeff-Com:  0.548D-04-0.118D-03-0.452D-04 0.477D-03 0.248D-02-0.319D-02
 Coeff-Com: -0.219D-01-0.272D-01 0.176D+00 0.874D+00
 Coeff:      0.548D-04-0.118D-03-0.452D-04 0.477D-03 0.248D-02-0.319D-02
 Coeff:     -0.219D-01-0.272D-01 0.176D+00 0.874D+00
 Gap=     0.313 Goal=   None    Shift=    0.000
 RMSDP=1.63D-07 MaxDP=5.43D-06 DE=-5.13D-10 OVMax= 3.33D-06

 Cycle  11  Pass 1  IDiag  1:
 RMSU=  6.92D-08    CP:  5.89D-01  1.44D+00  7.78D-01  8.31D-01  1.07D+00
                    CP:  1.26D+00  1.28D+00  1.27D+00  1.34D+00  1.24D+00
 E= -463.246240177525     Delta-E=       -0.000000000032 Rises=F Damp=F
 DIIS: error= 1.14D-07 at cycle  11 NSaved=  11.
 NSaved=11 IEnMin=11 EnMin= -463.246240177525     IErMin=11 ErrMin= 1.14D-07
 ErrMax= 1.14D-07  0.00D+00 EMaxC= 1.00D-01 BMatC= 7.23D-13 BMatP= 1.99D-11
 IDIUse=1 WtCom= 1.00D+00 WtEn= 0.00D+00
 Coeff-Com: -0.127D-04 0.278D-04 0.105D-04-0.151D-03-0.902D-03 0.224D-02
 Coeff-Com:  0.907D-02-0.257D-01-0.337D-01-0.966D-01 0.115D+01
 Coeff:     -0.127D-04 0.278D-04 0.105D-04-0.151D-03-0.902D-03 0.224D-02
 Coeff:      0.907D-02-0.257D-01-0.337D-01-0.966D-01 0.115D+01
 Gap=     0.313 Goal=   None    Shift=    0.000
 RMSDP=8.42D-08 MaxDP=4.37D-06 DE=-3.21D-11 OVMax= 9.39D-07

 Cycle  12  Pass 1  IDiag  1:
 RMSU=  2.42D-08    CP:  5.89D-01  1.44D+00  7.78D-01  8.31D-01  1.07D+00
                    CP:  1.26D+00  1.28D+00  1.26D+00  1.35D+00  1.35D+00
                    CP:  1.26D+00
 E= -463.246240177529     Delta-E=       -0.000000000004 Rises=F Damp=F
 DIIS: error= 2.39D-08 at cycle  12 NSaved=  12.
 NSaved=12 IEnMin=12 EnMin= -463.246240177529     IErMin=12 ErrMin= 2.39D-08
 ErrMax= 2.39D-08  0.00D+00 EMaxC= 1.00D-01 BMatC= 7.41D-14 BMatP= 7.23D-13
 IDIUse=1 WtCom= 1.00D+00 WtEn= 0.00D+00
 Coeff-Com: -0.134D-05 0.283D-05 0.222D-05-0.684D-05-0.271D-04 0.192D-05
 Coeff-Com: -0.121D-03 0.389D-02 0.670D-03-0.581D-01-0.135D+00 0.119D+01
 Coeff:     -0.134D-05 0.283D-05 0.222D-05-0.684D-05-0.271D-04 0.192D-05
 Coeff:     -0.121D-03 0.389D-02 0.670D-03-0.581D-01-0.135D+00 0.119D+01
 Gap=     0.313 Goal=   None    Shift=    0.000
 RMSDP=1.45D-08 MaxDP=4.48D-07 DE=-4.09D-12 OVMax= 2.54D-07

 Cycle  13  Pass 1  IDiag  1:
 RMSU=  3.96D-09    CP:  5.89D-01  1.44D+00  7.78D-01  8.31D-01  1.07D+00
                    CP:  1.26D+00  1.27D+00  1.26D+00  1.35D+00  1.38D+00
                    CP:  1.34D+00  1.26D+00
 E= -463.246240177526     Delta-E=        0.000000000003 Rises=F Damp=F
 DIIS: error= 6.09D-09 at cycle  13 NSaved=  13.
 NSaved=13 IEnMin=12 EnMin= -463.246240177529     IErMin=13 ErrMin= 6.09D-09
 ErrMax= 6.09D-09  0.00D+00 EMaxC= 1.00D-01 BMatC= 4.97D-15 BMatP= 7.41D-14
 IDIUse=1 WtCom= 1.00D+00 WtEn= 0.00D+00
 Coeff-Com:  0.429D-06-0.950D-06-0.175D-06 0.652D-05 0.431D-04-0.107D-03
 Coeff-Com: -0.534D-03 0.202D-02 0.309D-02-0.743D-02-0.899D-01 0.224D+00
 Coeff-Com:  0.869D+00
 Coeff:      0.429D-06-0.950D-06-0.175D-06 0.652D-05 0.431D-04-0.107D-03
 Coeff:     -0.534D-03 0.202D-02 0.309D-02-0.743D-02-0.899D-01 0.224D+00
 Coeff:      0.869D+00
 Gap=     0.313 Goal=   None    Shift=    0.000
 RMSDP=4.61D-09 MaxDP=3.71D-07 DE= 2.73D-12 OVMax= 5.55D-08

 SCF Done:  E(RwB97XD) =  -463.246240178     A.U. after   13 cycles
            NFock= 13  Conv=0.46D-08     -V/T= 2.0048
 KE= 4.610305310822D+02 PE=-2.273555269891D+03 EE= 7.496047977859D+02
 Leave Link  502 at Sat Nov  5 21:35:58 2022, MaxMem= 16106127360 cpu:             813.2 elap:              25.7
 (Enter /opt/ap/G16/B01/g16/l601.exe)
 Copying SCF densities to generalized density rwf, IOpCl= 0 IROHF=0.

 **********************************************************************

            Population analysis using the SCF Density.

 **********************************************************************

 Orbital symmetries:
       Occupied  (A) (A) (A) (A) (A) (A) (A) (A) (A) (A) (A) (A)
                 (A) (A) (A) (A) (A) (A) (A) (A) (A) (A) (A) (A)
                 (A) (A) (A) (A) (A) (A) (A) (A) (A) (A) (A) (A)
                 (A) (A) (A) (A) (A)
       Virtual   (A) (A) (A) (A) (A) (A) (A) (A) (A) (A) (A) (A)
                 (A) (A) (A) (A) (A) (A) (A) (A) (A) (A) (A) (A)
                 (A) (A) (A) (A) (A) (A) (A) (A) (A) (A) (A) (A)
                 (A) (A) (A) (A) (A) (A) (A) (A) (A) (A) (A) (A)
                 (A) (A) (A) (A) (A) (A) (A) (A) (A) (A) (A) (A)
                 (A) (A) (A) (A) (A) (A) (A) (A) (A) (A) (A) (A)
                 (A) (A) (A) (A) (A) (A) (A) (A) (A) (A) (A) (A)
                 (A) (A) (A) (A) (A) (A) (A) (A) (A) (A) (A) (A)
                 (A) (A) (A) (A) (A) (A) (A) (A) (A) (A) (A) (A)
                 (A) (A) (A) (A) (A) (A) (A) (A) (A) (A) (A) (A)
                 (A) (A) (A) (A) (A) (A) (A) (A) (A) (A) (A) (A)
                 (A) (A) (A) (A) (A) (A) (A) (A) (A) (A) (A) (A)
                 (A) (A) (A) (A) (A) (A) (A) (A) (A) (A) (A) (A)
                 (A) (A) (A) (A) (A) (A) (A) (A) (A) (A) (A) (A)
                 (A) (A) (A) (A) (A) (A) (A) (A) (A) (A) (A) (A)
                 (A) (A) (A) (A) (A) (A) (A) (A) (A) (A) (A) (A)
                 (A) (A) (A) (A) (A) (A) (A) (A) (A) (A) (A) (A)
                 (A) (A) (A) (A) (A) (A) (A) (A) (A) (A) (A) (A)
                 (A) (A) (A) (A) (A) (A) (A) (A) (A) (A) (A) (A)
                 (A) (A) (A) (A) (A) (A) (A) (A) (A) (A) (A) (A)
                 (A) (A) (A) (A) (A) (A) (A) (A) (A) (A) (A) (A)
                 (A) (A) (A) (A) (A) (A) (A) (A) (A) (A) (A) (A)
                 (A) (A) (A) (A) (A) (A) (A) (A) (A) (A) (A) (A)
                 (A) (A) (A) (A) (A) (A) (A) (A) (A) (A) (A) (A)
                 (A) (A)
 The electronic state is 1-A.
 Alpha  occ. eigenvalues --  -10.30612 -10.30582 -10.29442 -10.29442 -10.29435
 Alpha  occ. eigenvalues --  -10.29434 -10.29319 -10.29318 -10.29317 -10.29317
 Alpha  occ. eigenvalues --  -10.29268 -10.29268  -0.97729  -0.95361  -0.88341
 Alpha  occ. eigenvalues --   -0.85738  -0.84630  -0.82371  -0.72498  -0.72417
 Alpha  occ. eigenvalues --   -0.68453  -0.67533  -0.63311  -0.59011  -0.57080
 Alpha  occ. eigenvalues --   -0.55923  -0.52871  -0.52227  -0.52026  -0.51241
 Alpha  occ. eigenvalues --   -0.50121  -0.48109  -0.45142  -0.44900  -0.44469
 Alpha  occ. eigenvalues --   -0.42613  -0.41359  -0.36931  -0.33867  -0.33267
 Alpha  occ. eigenvalues --   -0.29766
 Alpha virt. eigenvalues --    0.01544   0.03825   0.03870   0.04580   0.04746
 Alpha virt. eigenvalues --    0.05876   0.05892   0.06358   0.07625   0.08030
 Alpha virt. eigenvalues --    0.09046   0.09152   0.09307   0.11247   0.11369
 Alpha virt. eigenvalues --    0.12677   0.13158   0.13737   0.15112   0.15364
 Alpha virt. eigenvalues --    0.15457   0.16096   0.16129   0.16724   0.17251
 Alpha virt. eigenvalues --    0.17269   0.17457   0.18123   0.18379   0.19064
 Alpha virt. eigenvalues --    0.19289   0.19359   0.19602   0.19756   0.20342
 Alpha virt. eigenvalues --    0.20875   0.20919   0.22497   0.22500   0.23568
 Alpha virt. eigenvalues --    0.24471   0.24631   0.24865   0.25073   0.25225
 Alpha virt. eigenvalues --    0.25291   0.25723   0.26436   0.27255   0.27340
 Alpha virt. eigenvalues --    0.27474   0.28578   0.29396   0.29413   0.30330
 Alpha virt. eigenvalues --    0.30520   0.30877   0.31849   0.32872   0.33239
 Alpha virt. eigenvalues --    0.33640   0.34839   0.35204   0.36475   0.36750
 Alpha virt. eigenvalues --    0.36801   0.37063   0.37613   0.38208   0.38608
 Alpha virt. eigenvalues --    0.39686   0.41036   0.41255   0.41721   0.42462
 Alpha virt. eigenvalues --    0.43461   0.45348   0.48446   0.48915   0.49384
 Alpha virt. eigenvalues --    0.56703   0.58581   0.58761   0.61041   0.61708
 Alpha virt. eigenvalues --    0.61784   0.62466   0.62621   0.62906   0.64299
 Alpha virt. eigenvalues --    0.64408   0.64484   0.65664   0.65762   0.65913
 Alpha virt. eigenvalues --    0.66289   0.68283   0.68636   0.69115   0.69765
 Alpha virt. eigenvalues --    0.72123   0.73457   0.74618   0.74929   0.75483
 Alpha virt. eigenvalues --    0.75810   0.77693   0.79137   0.79383   0.79814
 Alpha virt. eigenvalues --    0.80346   0.82664   0.84471   0.84471   0.85166
 Alpha virt. eigenvalues --    0.86174   0.88815   0.92220   0.92431   0.92761
 Alpha virt. eigenvalues --    0.93915   0.94163   0.94345   0.95232   0.96410
 Alpha virt. eigenvalues --    0.96919   0.97838   0.99121   0.99331   0.99753
 Alpha virt. eigenvalues --    1.00225   1.02090   1.03246   1.04074   1.04631
 Alpha virt. eigenvalues --    1.07980   1.08881   1.08922   1.10726   1.11403
 Alpha virt. eigenvalues --    1.14595   1.15641   1.17260   1.17492   1.18905
 Alpha virt. eigenvalues --    1.19982   1.20244   1.22463   1.24017   1.24702
 Alpha virt. eigenvalues --    1.31827   1.39188   1.40228   1.41832   1.55139
 Alpha virt. eigenvalues --    1.56696   1.56970   1.57063   1.57559   1.60137
 Alpha virt. eigenvalues --    1.62381   1.62763   1.64568   1.65008   1.65378
 Alpha virt. eigenvalues --    1.65451   1.67153   1.67355   1.70810   1.71969
 Alpha virt. eigenvalues --    1.72528   1.74864   1.76204   1.77290   1.78289
 Alpha virt. eigenvalues --    1.81022   1.82354   1.84366   1.86044   1.86366
 Alpha virt. eigenvalues --    1.90136   1.90225   1.90498   1.91243   1.96320
 Alpha virt. eigenvalues --    1.96828   1.99276   1.99977   2.01723   2.03437
 Alpha virt. eigenvalues --    2.04027   2.04384   2.05553   2.05589   2.06645
 Alpha virt. eigenvalues --    2.07091   2.07662   2.11087   2.11826   2.12936
 Alpha virt. eigenvalues --    2.15088   2.17059   2.17549   2.19860   2.21285
 Alpha virt. eigenvalues --    2.34593   2.34718   2.37297   2.39537   2.46202
 Alpha virt. eigenvalues --    2.47281   2.50526   2.50753   2.52033   2.53290
 Alpha virt. eigenvalues --    2.56347   2.57422   2.57963   2.58030   2.67894
 Alpha virt. eigenvalues --    2.72679   2.73464   2.76305   2.77448   2.77758
 Alpha virt. eigenvalues --    2.79084   2.80607   2.80962   2.81013   2.83229
 Alpha virt. eigenvalues --    2.83407   2.83636   2.84392   2.86274   2.87101
 Alpha virt. eigenvalues --    2.87253   2.88931   2.91373   2.92022   2.93330
 Alpha virt. eigenvalues --    2.95292   2.96134   2.98611   2.99219   3.03777
 Alpha virt. eigenvalues --    3.04135   3.04817   3.07844   3.08409   3.18687
 Alpha virt. eigenvalues --    3.19509   3.20865   3.29482   3.31952   3.33513
 Alpha virt. eigenvalues --    3.44546   3.47415   3.48505   3.48563   3.58376
 Alpha virt. eigenvalues --    3.63101   3.63158   3.64082   3.67229   3.72495
 Alpha virt. eigenvalues --    3.76609   3.87282   4.08459   4.12079   4.13698
 Alpha virt. eigenvalues --    4.14519   4.23721   4.24461   4.28043   4.31107
 Alpha virt. eigenvalues --    4.64937   4.92002   4.96745  23.67643  23.84961
 Alpha virt. eigenvalues --   24.07599  24.08185  24.09016  24.10055  24.18918
 Alpha virt. eigenvalues --   24.19531  24.22139  24.22893  24.31373  24.31551
          Condensed to atoms (all electrons):
               1          2          3          4          5          6
     1  C    8.783729  -1.821193  -1.820256   0.286112  -0.086933   2.042698
     2  C   -1.821193  11.859339  -2.114620  -1.372182   0.516970  -1.065489
     3  C   -1.820256  -2.114620  11.862752  -0.064536   0.028695  -1.067137
     4  C    0.286112  -1.372182  -0.064536   7.724664  -0.036250  -0.056919
     5  H   -0.086933   0.516970   0.028695  -0.036250   0.562682  -0.053181
     6  C    2.042698  -1.065489  -1.067137  -0.056919  -0.053181   8.783076
     7  C    0.289182  -0.066042  -1.373642   0.289917   0.020976  -0.057009
     8  H   -0.086946   0.028915   0.517136   0.020991   0.005358  -0.053294
     9  C   -0.768870   0.467619   0.467885  -0.116289   0.024083  -0.280841
    10  H    0.038307  -0.044937   0.007295   0.355614  -0.015729   0.014054
    11  C   -1.068613   3.620844  -2.581015  -0.596210   0.060259  -1.820862
    12  C   -1.065510  -2.579852   3.619567  -0.233779  -0.034993  -1.819708
    13  H    0.038345   0.007277  -0.045093  -0.006891  -0.001129   0.014061
    14  H    0.021796  -0.032020  -0.032012   0.001544   0.001097  -0.004618
    15  C   -0.056467  -0.594989  -0.234777   0.095861  -0.066805   0.286910
    16  H   -0.053171   0.060062  -0.034909  -0.066773  -0.000898  -0.086850
    17  C   -0.056618  -0.234139  -0.595178   0.096572  -0.018769   0.287316
    18  H   -0.053199  -0.035056   0.060204  -0.018783  -0.005169  -0.086789
    19  C   -0.281113   0.160972   0.161379  -0.059816   0.003068  -0.768763
    20  H    0.014043  -0.002688   0.002658   0.002896   0.001313   0.038311
    21  H    0.014052   0.002692  -0.002747   0.001106   0.000369   0.038302
    22  H   -0.004617   0.001012   0.001038  -0.000911  -0.000394   0.021819
               7          8          9         10         11         12
     1  C    0.289182  -0.086946  -0.768870   0.038307  -1.068613  -1.065510
     2  C   -0.066042   0.028915   0.467619  -0.044937   3.620844  -2.579852
     3  C   -1.373642   0.517136   0.467885   0.007295  -2.581015   3.619567
     4  C    0.289917   0.020991  -0.116289   0.355614  -0.596210  -0.233779
     5  H    0.020976   0.005358   0.024083  -0.015729   0.060259  -0.034993
     6  C   -0.057009  -0.053294  -0.280841   0.014054  -1.820862  -1.819708
     7  C    7.722457  -0.036486  -0.115934  -0.006893  -0.234220  -0.595328
     8  H   -0.036486   0.562789   0.024122  -0.001129  -0.034909   0.060200
     9  C   -0.115934   0.024122   6.285157  -0.048853   0.161202   0.161044
    10  H   -0.006893  -0.001129  -0.048853   0.476585  -0.002729   0.002683
    11  C   -0.234220  -0.034909   0.161202  -0.002729  11.864133  -2.113895
    12  C   -0.595328   0.060200   0.161044   0.002683  -2.113895  11.857732
    13  H    0.355706  -0.015744  -0.048827   0.001138   0.002676  -0.002724
    14  H    0.001546   0.001099   0.387869  -0.006925   0.001022   0.001029
    15  C    0.096421  -0.018858  -0.059646   0.002882  -1.371454  -0.067093
    16  H   -0.018751  -0.005163   0.003039   0.001314   0.516717   0.028815
    17  C    0.096782  -0.066856  -0.059781   0.001104  -0.066190  -1.371675
    18  H   -0.066778  -0.000933   0.003049   0.000370   0.028679   0.516974
    19  C   -0.059618   0.003095   0.035962  -0.001119   0.467381   0.468587
    20  H    0.001096   0.000369  -0.001117   0.000062  -0.044905   0.007220
    21  H    0.002879   0.001311  -0.001120   0.000020   0.007327  -0.045049
    22  H   -0.000905  -0.000393   0.000225   0.000008  -0.032128  -0.031969
              13         14         15         16         17         18
     1  C    0.038345   0.021796  -0.056467  -0.053171  -0.056618  -0.053199
     2  C    0.007277  -0.032020  -0.594989   0.060062  -0.234139  -0.035056
     3  C   -0.045093  -0.032012  -0.234777  -0.034909  -0.595178   0.060204
     4  C   -0.006891   0.001544   0.095861  -0.066773   0.096572  -0.018783
     5  H   -0.001129   0.001097  -0.066805  -0.000898  -0.018769  -0.005169
     6  C    0.014061  -0.004618   0.286910  -0.086850   0.287316  -0.086789
     7  C    0.355706   0.001546   0.096421  -0.018751   0.096782  -0.066778
     8  H   -0.015744   0.001099  -0.018858  -0.005163  -0.066856  -0.000933
     9  C   -0.048827   0.387869  -0.059646   0.003039  -0.059781   0.003049
    10  H    0.001138  -0.006925   0.002882   0.001314   0.001104   0.000370
    11  C    0.002676   0.001022  -1.371454   0.516717  -0.066190   0.028679
    12  C   -0.002724   0.001029  -0.067093   0.028815  -1.371675   0.516974
    13  H    0.476590  -0.006925   0.001104   0.000370   0.002893   0.001316
    14  H   -0.006925   0.470949  -0.000908  -0.000394  -0.000908  -0.000395
    15  C    0.001104  -0.000908   7.722689  -0.036038   0.290685   0.021059
    16  H    0.000370  -0.000394  -0.036038   0.562663   0.020999   0.005356
    17  C    0.002893  -0.000908   0.290685   0.020999   7.722396  -0.036255
    18  H    0.001316  -0.000395   0.021059   0.005356  -0.036255   0.562748
    19  C   -0.001119   0.000225  -0.115274   0.024014  -0.117342   0.024029
    20  H    0.000020   0.000008   0.355540  -0.015721  -0.006861  -0.001128
    21  H    0.000062   0.000008  -0.006891  -0.001126   0.355724  -0.015728
    22  H    0.000008  -0.000002   0.001669   0.001092   0.001513   0.001096
              19         20         21         22
     1  C   -0.281113   0.014043   0.014052  -0.004617
     2  C    0.160972  -0.002688   0.002692   0.001012
     3  C    0.161379   0.002658  -0.002747   0.001038
     4  C   -0.059816   0.002896   0.001106  -0.000911
     5  H    0.003068   0.001313   0.000369  -0.000394
     6  C   -0.768763   0.038311   0.038302   0.021819
     7  C   -0.059618   0.001096   0.002879  -0.000905
     8  H    0.003095   0.000369   0.001311  -0.000393
     9  C    0.035962  -0.001117  -0.001120   0.000225
    10  H   -0.001119   0.000062   0.000020   0.000008
    11  C    0.467381  -0.044905   0.007327  -0.032128
    12  C    0.468587   0.007220  -0.045049  -0.031969
    13  H   -0.001119   0.000020   0.000062   0.000008
    14  H    0.000225   0.000008   0.000008  -0.000002
    15  C   -0.115274   0.355540  -0.006891   0.001669
    16  H    0.024014  -0.015721  -0.001126   0.001092
    17  C   -0.117342  -0.006861   0.355724   0.001513
    18  H    0.024029  -0.001128  -0.015728   0.001096
    19  C    6.285353  -0.048791  -0.048875   0.387825
    20  H   -0.048791   0.476576   0.001138  -0.006918
    21  H   -0.048875   0.001138   0.476585  -0.006926
    22  H    0.387825  -0.006918  -0.006926   0.470934
 Mulliken charges:
               1
     1  C    1.695242
     2  C   -0.762495
     3  C   -0.762685
     4  C   -0.245938
     5  H    0.095382
     6  C    1.694917
     7  C   -0.245357
     8  H    0.095326
     9  C   -0.519977
    10  H    0.226879
    11  C   -0.763109
    12  C   -0.762278
    13  H    0.226886
    14  H    0.196917
    15  C   -0.245620
    16  H    0.095354
    17  C   -0.245412
    18  H    0.095334
    19  C   -0.520058
    20  H    0.226880
    21  H    0.226887
    22  H    0.196925
 Sum of Mulliken charges =  -0.00000
 Mulliken charges with hydrogens summed into heavy atoms:
               1
     1  C    1.695242
     2  C   -0.667113
     3  C   -0.667358
     4  C   -0.019059
     6  C    1.694917
     7  C   -0.018471
     9  C   -0.323060
    11  C   -0.667755
    12  C   -0.666944
    15  C   -0.018739
    17  C   -0.018526
    19  C   -0.323133
 Electronic spatial extent (au):  <R**2>=           2311.9074
 Charge=             -0.0000 electrons
 Dipole moment (field-independent basis, Debye):
    X=              0.0000    Y=             -0.0000    Z=              0.0004  Tot=              0.0004
 Quadrupole moment (field-independent basis, Debye-Ang):
   XX=            -61.4380   YY=            -61.4234   ZZ=            -77.7451
   XY=             -0.0001   XZ=              0.0008   YZ=              0.0001
 Traceless Quadrupole moment (field-independent basis, Debye-Ang):
   XX=              5.4308   YY=              5.4455   ZZ=            -10.8763
   XY=             -0.0001   XZ=              0.0008   YZ=              0.0001
 Octapole moment (field-independent basis, Debye-Ang**2):
  XXX=             -0.0000  YYY=              0.0013  ZZZ=              0.0006  XYY=             -0.0001
  XXY=             -0.0005  XXZ=              0.0020  XZZ=              0.0001  YZZ=             -0.0002
  YYZ=              0.0034  XYZ=              3.6891
 Hexadecapole moment (field-independent basis, Debye-Ang**3):
 XXXX=          -2297.1995 YYYY=           -534.2111 ZZZZ=            -97.3630 XXXY=             -0.0018
 XXXZ=              0.0212 YYYX=             -0.0022 YYYZ=              0.0004 ZZZX=              0.0010
 ZZZY=              0.0001 XXYY=           -472.4730 XXZZ=           -503.1266 YYZZ=           -126.2076
 XXYZ=              0.0024 YYXZ=             -0.0005 ZZXY=              0.0012
 N-N= 5.996737008453D+02 E-N=-2.273555269663D+03  KE= 4.610305310822D+02
 No NMR shielding tensors so no spin-rotation constants.
 Leave Link  601 at Sat Nov  5 21:35:58 2022, MaxMem= 16106127360 cpu:               4.9 elap:               0.2
 (Enter /opt/ap/G16/B01/g16/l9999.exe)
 1\1\GINC-N03\SP\RwB97XD\6-311++G(d,p)\C12H10\ROOT\05-Nov-2022\0\\#P wB
 97XD/6-311++G(d,p) scf=maxcycle=512\\_conf020.gjf nmol_natom 1_22\\0,1
 \C\C,1,1.40491871\C,1,1.40495292,2,118.20503621\C,2,1.3939373,1,120.91
 08946,3,0.05365643,0\H,2,1.08593095,1,119.3452094,3,-178.3624307,0\C,1
 ,1.48449301,2,120.90144423,4,-179.96388019,0\C,3,1.39389842,1,120.9105
 0598,2,0.03587687,0\H,3,1.08593608,1,119.34159615,2,-178.38281524,0\C,
 4,1.39606958,2,120.24555868,1,-0.09283196,0\H,4,1.08627898,2,119.66792
 041,1,-179.51486187,0\C,6,1.40492034,1,120.90156908,2,10.,0\C,6,1.4049
 5329,1,120.89324856,2,-170.,0\H,7,1.08627928,3,119.67027175,1,-179.512
 58183,0\H,9,1.08597601,4,120.2602535,2,-179.95233103,0\C,11,1.39393437
 ,6,120.91099656,1,-179.95869964,0\H,11,1.08593173,6,119.34475907,1,1.6
 1891886,0\C,12,1.39390147,6,120.91022615,1,-179.94297913,0\H,12,1.0859
 3608,6,119.34175044,1,1.63241608,0\C,15,1.39607161,11,120.24535737,6,-
 0.10315482,0\H,15,1.08627786,11,119.66861247,6,-179.51844254,0\H,17,1.
 08627825,12,119.6702798,6,-179.51590091,0\H,19,1.08597601,15,120.25988
 597,11,-179.94731581,0\\Version=ES64L-G16RevB.01\State=1-A\HF=-463.246
 2402\RMSD=4.615e-09\Dipole=0.0000009,-0.0001482,0.0000072\Quadrupole=4
 .0164846,-7.9942786,3.9777939,-0.5392785,0.0356112,0.9036985\PG=C01 [X
 (C12H10)]\\@


0EVERYBODY IS IGNORANT, ONLY ON DIFFERENT SUBJECTS.
0          WILL ROGERS
 Job cpu time:       0 days  0 hours 14 minutes 19.5 seconds.
 Elapsed time:       0 days  0 hours  0 minutes 27.2 seconds.
 File lengths (MBytes):  RWF=     62 Int=      0 D2E=      0 Chk=      8 Scr=      1
 Normal termination of Gaussian 16 at Sat Nov  5 21:35:58 2022.
