 Entering Gaussian System, Link 0=g16
 Input=_conf033.gjf
 Output=_conf033.log
 Initial command:
 /opt/ap/G16/B01/g16/l1.exe "/tmp2/scr/Gau-25547.inp" -scrdir="/tmp2/scr/"
 Entering Link 1 = /opt/ap/G16/B01/g16/l1.exe PID=     25548.
  
 Copyright (c) 1988-2017, Gaussian, Inc.  All Rights Reserved.
  
 This is part of the Gaussian(R) 16 program.  It is based on
 the Gaussian(R) 09 system (copyright 2009, Gaussian, Inc.),
 the Gaussian(R) 03 system (copyright 2003, Gaussian, Inc.),
 the Gaussian(R) 98 system (copyright 1998, Gaussian, Inc.),
 the Gaussian(R) 94 system (copyright 1995, Gaussian, Inc.),
 the Gaussian 92(TM) system (copyright 1992, Gaussian, Inc.),
 the Gaussian 90(TM) system (copyright 1990, Gaussian, Inc.),
 the Gaussian 88(TM) system (copyright 1988, Gaussian, Inc.),
 the Gaussian 86(TM) system (copyright 1986, Carnegie Mellon
 University), and the Gaussian 82(TM) system (copyright 1983,
 Carnegie Mellon University). Gaussian is a federally registered
 trademark of Gaussian, Inc.
  
 This software contains proprietary and confidential information,
 including trade secrets, belonging to Gaussian, Inc.
  
 This software is provided under written license and may be
 used, copied, transmitted, or stored only in accord with that
 written license.
  
 The following legend is applicable only to US Government
 contracts under FAR:
  
                    RESTRICTED RIGHTS LEGEND
  
 Use, reproduction and disclosure by the US Government is
 subject to restrictions as set forth in subparagraphs (a)
 and (c) of the Commercial Computer Software - Restricted
 Rights clause in FAR 52.227-19.
  
 Gaussian, Inc.
 340 Quinnipiac St., Bldg. 40, Wallingford CT 06492
  
  
 ---------------------------------------------------------------
 Warning -- This program may not be used in any manner that
 competes with the business of Gaussian, Inc. or will provide
 assistance to any competitor of Gaussian, Inc.  The licensee
 of this program is prohibited from giving any competitor of
 Gaussian, Inc. access to this program.  By using this program,
 the user acknowledges that Gaussian, Inc. is engaged in the
 business of creating and licensing software in the field of
 computational chemistry and represents and warrants to the
 licensee that it is not a competitor of Gaussian, Inc. and that
 it will not use this program in any manner prohibited above.
 ---------------------------------------------------------------
  

 Cite this work as:
 Gaussian 16, Revision B.01,
 M. J. Frisch, G. W. Trucks, H. B. Schlegel, G. E. Scuseria, 
 M. A. Robb, J. R. Cheeseman, G. Scalmani, V. Barone, 
 G. A. Petersson, H. Nakatsuji, X. Li, M. Caricato, A. V. Marenich, 
 J. Bloino, B. G. Janesko, R. Gomperts, B. Mennucci, H. P. Hratchian, 
 J. V. Ortiz, A. F. Izmaylov, J. L. Sonnenberg, D. Williams-Young, 
 F. Ding, F. Lipparini, F. Egidi, J. Goings, B. Peng, A. Petrone, 
 T. Henderson, D. Ranasinghe, V. G. Zakrzewski, J. Gao, N. Rega, 
 G. Zheng, W. Liang, M. Hada, M. Ehara, K. Toyota, R. Fukuda, 
 J. Hasegawa, M. Ishida, T. Nakajima, Y. Honda, O. Kitao, H. Nakai, 
 T. Vreven, K. Throssell, J. A. Montgomery, Jr., J. E. Peralta, 
 F. Ogliaro, M. J. Bearpark, J. J. Heyd, E. N. Brothers, K. N. Kudin, 
 V. N. Staroverov, T. A. Keith, R. Kobayashi, J. Normand, 
 K. Raghavachari, A. P. Rendell, J. C. Burant, S. S. Iyengar, 
 J. Tomasi, M. Cossi, J. M. Millam, M. Klene, C. Adamo, R. Cammi, 
 J. W. Ochterski, R. L. Martin, K. Morokuma, O. Farkas, 
 J. B. Foresman, and D. J. Fox, Gaussian, Inc., Wallingford CT, 2016.
 
 ******************************************
 Gaussian 16:  ES64L-G16RevB.01 20-Dec-2017
                 5-Nov-2022 
 ******************************************
 %nprocshared=32
 Will use up to   32 processors via shared memory.
 %mem=120GB
 %chk=_conf033.chk
 ----------------------------------------
 #P wB97XD/6-311++G(d,p) scf=maxcycle=512
 ----------------------------------------
 1/38=1,172=1/1;
 2/12=2,17=6,18=5,40=1/2;
 3/5=4,6=6,7=1111,11=2,25=1,30=1,74=-58/1,2,3;
 4//1;
 5/5=2,7=512,38=5/2;
 6/7=2,8=2,9=2,10=2,28=1/1;
 99/5=1,9=1/99;
 Leave Link    1 at Sat Nov  5 21:36:41 2022, MaxMem= 16106127360 cpu:               1.5 elap:               0.1
 (Enter /opt/ap/G16/B01/g16/l101.exe)
 ----------------------------
 _conf033.gjf nmol_natom 1_22
 ----------------------------
 Symbolic Z-matrix:
 Charge =  0 Multiplicity = 1
 C
 C                    1     1.40492 
 C                    1     1.40495  2     118.20504 
 C                    2     1.39394  1     120.91089  3     0.05366  0
 H                    2     1.08593  1     119.34521  3    -178.36243  0
 C                    1     1.48449  2     120.90144  4    -179.96388  0
 C                    3     1.3939   1     120.91051  2     0.03588  0
 H                    3     1.08594  1     119.3416  2    -178.38282  0
 C                    4     1.39607  2     120.24556  1    -0.09283  0
 H                    4     1.08628  2     119.66792  1    -179.51486  0
 C                    6     1.40492  1     120.90157  2     75.      0
 C                    6     1.40495  1     120.89325  2    -105.     0
 H                    7     1.08628  3     119.67027  1    -179.51258  0
 H                    9     1.08598  4     120.26025  2    -179.95233  0
 C                    11    1.39393  6     120.911  1    -179.9587  0
 H                    11    1.08593  6     119.34476  1     1.61892  0
 C                    12    1.3939   6     120.91023  1    -179.94298  0
 H                    12    1.08594  6     119.34175  1     1.63242  0
 C                    15    1.39607  11    120.24536  6    -0.10315  0
 H                    15    1.08628  11    119.66861  6    -179.51844  0
 H                    17    1.08628  12    119.67028  6    -179.5159  0
 H                    19    1.08598  15    120.25989  11   -179.94732  0
 
 ITRead=  0  0  0  0  0  0  0  0  0  0  0  0  0  0  0  0  0  0  0  0
 ITRead=  0  0
 MicOpt= -1 -1 -1 -1 -1 -1 -1 -1 -1 -1 -1 -1 -1 -1 -1 -1 -1 -1 -1 -1
 MicOpt= -1 -1
 NAtoms=     22 NQM=       22 NQMF=       0 NMMI=      0 NMMIF=      0
                NMic=       0 NMicF=      0.
                    Isotopes and Nuclear Properties:
 (Nuclear quadrupole moments (NQMom) in fm**2, nuclear magnetic moments (NMagM)
  in nuclear magnetons)

  Atom         1           2           3           4           5           6           7           8           9          10
 IAtWgt=          12          12          12          12           1          12          12           1          12           1
 AtmWgt=  12.0000000  12.0000000  12.0000000  12.0000000   1.0078250  12.0000000  12.0000000   1.0078250  12.0000000   1.0078250
 NucSpn=           0           0           0           0           1           0           0           1           0           1
 AtZEff=  -0.0000000  -0.0000000  -0.0000000  -0.0000000  -0.0000000  -0.0000000  -0.0000000  -0.0000000  -0.0000000  -0.0000000
 NQMom=    0.0000000   0.0000000   0.0000000   0.0000000   0.0000000   0.0000000   0.0000000   0.0000000   0.0000000   0.0000000
 NMagM=    0.0000000   0.0000000   0.0000000   0.0000000   2.7928460   0.0000000   0.0000000   2.7928460   0.0000000   2.7928460
 AtZNuc=   6.0000000   6.0000000   6.0000000   6.0000000   1.0000000   6.0000000   6.0000000   1.0000000   6.0000000   1.0000000

  Atom        11          12          13          14          15          16          17          18          19          20
 IAtWgt=          12          12           1           1          12           1          12           1          12           1
 AtmWgt=  12.0000000  12.0000000   1.0078250   1.0078250  12.0000000   1.0078250  12.0000000   1.0078250  12.0000000   1.0078250
 NucSpn=           0           0           1           1           0           1           0           1           0           1
 AtZEff=  -0.0000000  -0.0000000  -0.0000000  -0.0000000  -0.0000000  -0.0000000  -0.0000000  -0.0000000  -0.0000000  -0.0000000
 NQMom=    0.0000000   0.0000000   0.0000000   0.0000000   0.0000000   0.0000000   0.0000000   0.0000000   0.0000000   0.0000000
 NMagM=    0.0000000   0.0000000   2.7928460   2.7928460   0.0000000   2.7928460   0.0000000   2.7928460   0.0000000   2.7928460
 AtZNuc=   6.0000000   6.0000000   1.0000000   1.0000000   6.0000000   1.0000000   6.0000000   1.0000000   6.0000000   1.0000000

  Atom        21          22
 IAtWgt=           1           1
 AtmWgt=   1.0078250   1.0078250
 NucSpn=           1           1
 AtZEff=  -0.0000000  -0.0000000
 NQMom=    0.0000000   0.0000000
 NMagM=    2.7928460   2.7928460
 AtZNuc=   1.0000000   1.0000000
 Leave Link  101 at Sat Nov  5 21:36:42 2022, MaxMem= 16106127360 cpu:               5.3 elap:               0.2
 (Enter /opt/ap/G16/B01/g16/l202.exe)
                          Input orientation:                          
 ---------------------------------------------------------------------
 Center     Atomic      Atomic             Coordinates (Angstroms)
 Number     Number       Type             X           Y           Z
 ---------------------------------------------------------------------
      1          6           0        0.000000    0.000000    0.000000
      2          6           0        0.000000    0.000000    1.404919
      3          6           0        1.238131    0.000000   -0.664020
      4          6           0        1.195952    0.001120    2.120990
      5          1           0       -0.946201   -0.027051    1.937101
      6          6           0       -1.273772   -0.000390   -0.762381
      7          6           0        2.434381   -0.000749    0.051479
      8          1           0        1.259850    0.026715   -1.749411
      9          6           0        2.418826    0.000311    1.447501
     10          1           0        1.172413   -0.006894    3.206985
     11          6           0       -2.053462    1.163788   -0.865209
     12          6           0       -1.732128   -1.165076   -1.400590
     13          1           0        3.380326    0.007295   -0.482493
     14          1           0        3.350700    0.000403    2.005133
     15          6           0       -3.249988    1.163421   -1.580316
     16          1           0       -1.703623    2.081276   -0.401445
     17          6           0       -2.927522   -1.165533   -2.117524
     18          1           0       -1.157653   -2.082235   -1.310848
     19          6           0       -3.692261   -0.001206   -2.210439
     20          1           0       -3.833026    2.077059   -1.653339
     21          1           0       -3.266891   -2.079518   -2.596544
     22          1           0       -4.623977   -0.001534   -2.768336
 ---------------------------------------------------------------------
                    Distance matrix (angstroms):
                    1          2          3          4          5
     1  C    0.000000
     2  C    1.404919   0.000000
     3  C    1.404953   2.411116   0.000000
     4  C    2.434934   1.393937   2.785330   0.000000
     5  H    2.156012   1.085931   3.396745   2.150216   0.000000
     6  C    1.484493   2.513898   2.513829   3.796494   2.719415
     7  C    2.434925   2.785320   1.393898   2.411760   3.870994
     8  H    2.156008   3.396723   1.085936   3.871013   4.296501
     9  C    2.818861   2.419201   2.419207   1.396070   3.400568
    10  H    3.414579   2.149893   3.871569   1.086279   2.470128
    11  C    2.513901   3.274842   3.497066   4.563757   3.239918
    12  C    2.513826   3.496934   3.274504   4.726012   3.612888
    13  H    3.414594   3.871560   2.149884   3.398478   4.957262
    14  H    3.904837   3.404035   3.404016   2.157861   4.297527
    15  C    3.796494   4.563726   4.726136   5.900593   4.369998
    16  H    2.719411   3.239905   3.613111   4.370041   3.238445
    17  C    3.796414   4.726145   4.563311   6.027364   4.654219
    18  H    2.719225   3.612652   3.239425   4.653745   3.849372
    19  C    4.303351   5.167553   5.167221   6.531149   4.974294
    20  H    4.662595   5.325335   5.568623   6.621609   5.064809
    21  H    4.662511   5.568543   5.324873   6.819175   5.491099
    22  H    5.389327   6.228741   6.228359   7.601124   5.972255
                    6          7          8          9         10
     6  C    0.000000
     7  C    3.796415   0.000000
     8  H    2.719228   2.150228   0.000000
     9  C    4.303354   1.396108   3.400612   0.000000
    10  H    4.662588   3.398502   4.957280   2.156243   0.000000
    11  C    1.404920   4.726224   3.612863   5.167559   5.325367
    12  C    1.404953   4.563327   3.239440   5.167220   5.568436
    13  H    4.662512   1.086279   2.470197   2.156248   4.299689
    14  H    5.389330   2.157871   4.297551   1.085976   2.487858
    15  C    2.434934   6.027445   4.653958   6.531152   6.621595
    16  H    2.156010   4.654357   3.849727   4.974293   5.064859
    17  C    2.434925   5.900110   4.369330   6.530852   6.819259
    18  H    2.156010   4.369351   3.237951   4.973599   5.490634
    19  C    2.818858   6.530851   4.973603   7.122212   7.281041
    20  H    3.414583   6.819390   5.490949   7.281053   7.281485
    21  H    3.414594   6.621013   5.064112   7.280616   7.595007
    22  H    3.904834   7.600774   5.971467   8.208188   8.324819
                   11         12         13         14         15
    11  C    0.000000
    12  C    2.411119   0.000000
    13  H    5.568662   5.324898   0.000000
    14  H    6.228748   6.228357   2.487812   0.000000
    15  C    1.393934   2.785336   6.819303   7.601128   0.000000
    16  H    1.085932   3.396748   5.491311   5.972255   2.150219
    17  C    2.785320   1.393901   6.621011   7.600775   2.411763
    18  H    3.396725   1.085936   5.064144   5.971462   3.871016
    19  C    2.419198   2.419208   7.280614   8.208188   1.396072
    20  H    2.149897   3.871575   7.595212   8.324833   1.086278
    21  H    3.871558   2.149886   7.280761   8.324303   3.398478
    22  H    3.404029   3.404019   8.324302   9.294164   2.157859
                   16         17         18         19         20
    16  H    0.000000
    17  C    3.870997   0.000000
    18  H    4.296501   2.150234   0.000000
    19  C    3.400569   1.396107   3.400615   0.000000
    20  H    2.470145   3.398500   4.957282   2.156238   0.000000
    21  H    4.957264   1.086278   2.470204   2.156245   4.299683
    22  H    4.297527   2.157871   4.297556   1.085976   2.487844
                   21         22
    21  H    0.000000
    22  H    2.487812   0.000000
 Stoichiometry    C12H10
 Framework group  C1[X(C12H10)]
 Deg. of freedom    60
 Full point group                 C1      NOp   1
 Largest Abelian subgroup         C1      NOp   1
 Largest concise Abelian subgroup C1      NOp   1
                         Standard orientation:                         
 ---------------------------------------------------------------------
 Center     Atomic      Atomic             Coordinates (Angstroms)
 Number     Number       Type             X           Y           Z
 ---------------------------------------------------------------------
      1          6           0        0.742246    0.000224   -0.000106
      2          6           0        1.463787    0.956575    0.733765
      3          6           0        1.463583   -0.956434   -0.733844
      4          6           0        2.857725    0.957243    0.733221
      5          1           0        0.925223    1.688036    1.328878
      6          6           0       -0.742247    0.000196   -0.000014
      7          6           0        2.857481   -0.957414   -0.733297
      8          1           0        0.924787   -1.687868   -1.328788
      9          6           0        3.561107   -0.000134   -0.000054
     10          1           0        3.395273    1.701214    1.314212
     11          6           0       -1.463828    0.956609   -0.733770
     12          6           0       -1.463543   -0.956349    0.733912
     13          1           0        3.394903   -1.701558   -1.314185
     14          1           0        4.647083   -0.000310   -0.000028
     15          6           0       -2.857762    0.957289   -0.733139
     16          1           0       -0.925285    1.688170   -1.328779
     17          6           0       -2.857444   -0.957428    0.733305
     18          1           0       -0.924716   -1.687670    1.328968
     19          6           0       -3.561105   -0.000271   -0.000061
     20          1           0       -3.395350    1.701338   -1.313992
     21          1           0       -3.394838   -1.701510    1.314295
     22          1           0       -4.647081   -0.000483   -0.000088
 ---------------------------------------------------------------------
 Rotational constants (GHZ):           2.8585222           0.5201751           0.4969889
 Leave Link  202 at Sat Nov  5 21:36:42 2022, MaxMem= 16106127360 cpu:               0.2 elap:               0.0
 (Enter /opt/ap/G16/B01/g16/l301.exe)
 Standard basis: 6-311++G(d,p) (5D, 7F)
 Ernie: Thresh=  0.10000D-02 Tol=  0.10000D-05 Strict=F.
 There are   346 symmetry adapted cartesian basis functions of A   symmetry.
 There are   334 symmetry adapted basis functions of A   symmetry.
   334 basis functions,   522 primitive gaussians,   346 cartesian basis functions
    41 alpha electrons       41 beta electrons
       nuclear repulsion energy       597.9551237798 Hartrees.
 IExCor= 4639 DFT=T Ex+Corr=wB97XD ExCW=0 ScaHFX=  1.000000
 ScaDFX=  1.000000  1.000000  1.000000  1.000000 ScalE2=  1.000000  1.000000
 IRadAn=      5 IRanWt=     -1 IRanGd=            0 ICorTp=0 IEmpDi=121
 HFx  wShort=  0.000000 wLong=  0.200000 cFull=  0.222036 cShort=  0.000000 cLong=  0.777964
 DFx  wShort=  0.000000 wLong=  0.200000 cFull=  0.000000 cShort=  0.000000 cLong=  1.000000
 NAtoms=   22 NActive=   22 NUniq=   22 SFac= 1.00D+00 NAtFMM=   60 NAOKFM=F Big=F
 Integral buffers will be    131072 words long.
 Raffenetti 2 integral format.
 Two-electron integral symmetry is turned on.
 R6Disp:  Grimme-D2 Dispersion energy=       -0.0118847599 Hartrees.
 Nuclear repulsion after empirical dispersion term =      597.9432390199 Hartrees.
 Leave Link  301 at Sat Nov  5 21:36:42 2022, MaxMem= 16106127360 cpu:               1.2 elap:               0.0
 (Enter /opt/ap/G16/B01/g16/l302.exe)
 NPDir=0 NMtPBC=     1 NCelOv=     1 NCel=       1 NClECP=     1 NCelD=      1
         NCelK=      1 NCelE2=     1 NClLst=     1 CellRange=     0.0.
 One-electron integrals computed using PRISM.
 One-electron integral symmetry used in STVInt
 NBasis=   334 RedAO= T EigKep=  1.99D-06  NBF=   334
 NBsUse=   332 1.00D-06 EigRej=  8.31D-07 NBFU=   332
 Precomputing XC quadrature grid using
 IXCGrd= 4 IRadAn=           5 IRanWt=          -1 IRanGd=           0 AccXCQ= 0.00D+00.
 Generated NRdTot=       0 NPtTot=           0 NUsed=           0 NTot=          32
 NSgBfM=   346   346   346   346   346 MxSgAt=    22 MxSgA2=    22.
 Leave Link  302 at Sat Nov  5 21:36:42 2022, MaxMem= 16106127360 cpu:               7.5 elap:               0.2
 (Enter /opt/ap/G16/B01/g16/l303.exe)
 DipDrv:  MaxL=1.
 Leave Link  303 at Sat Nov  5 21:36:42 2022, MaxMem= 16106127360 cpu:               1.4 elap:               0.1
 (Enter /opt/ap/G16/B01/g16/l401.exe)
 ExpMin= 3.60D-02 ExpMax= 4.56D+03 ExpMxC= 6.82D+02 IAcc=3 IRadAn=         5 AccDes= 0.00D+00
 Harris functional with IExCor= 4639 and IRadAn=       5 diagonalized for initial guess.
 HarFok:  IExCor= 4639 AccDes= 0.00D+00 IRadAn=         5 IDoV= 1 UseB2=F ITyADJ=14
 ICtDFT=  3500011 ScaDFX=  1.000000  1.000000  1.000000  1.000000
 FoFCou: FMM=F IPFlag=           0 FMFlag=      100000 FMFlg1=           0
         NFxFlg=           0 DoJE=T BraDBF=F KetDBF=T FulRan=T
         wScrn=  0.000000 ICntrl=       500 IOpCl=  0 I1Cent=   200000004 NGrid=           0
         NMat0=    1 NMatS0=      1 NMatT0=    0 NMatD0=    1 NMtDS0=    0 NMtDT0=    0
 Petite list used in FoFCou.
 Harris En= -441.937387248704    
 JPrj=0 DoOrth=F DoCkMO=F.
 Leave Link  401 at Sat Nov  5 21:36:43 2022, MaxMem= 16106127360 cpu:              22.4 elap:               0.7
 (Enter /opt/ap/G16/B01/g16/l502.exe)
 Integral symmetry usage will be decided dynamically.
 Closed shell SCF:
 Using DIIS extrapolation, IDIIS=  1040.
 NGot= 16106127360 LenX= 16105873520 LenY= 16105753363
 Requested convergence on RMS density matrix=1.00D-08 within 512 cycles.
 Requested convergence on MAX density matrix=1.00D-06.
 Requested convergence on             energy=1.00D-06.
 No special actions if energy rises.
 Fock matrices will be formed incrementally for  20 cycles.

 Cycle   1  Pass 1  IDiag  1:
 FoFJK:  IHMeth= 1 ICntrl=       0 DoSepK=T KAlg= 0 I1Cent=           0 FoldK=F
 IRaf=         1 NMat=       1 IRICut=       1 DoRegI=T DoRafI=F ISym2E= 0 IDoP0=0 IntGTp=1.
 FoFCou: FMM=F IPFlag=           0 FMFlag=      100000 FMFlg1=           0
         NFxFlg=           0 DoJE=T BraDBF=F KetDBF=F FulRan=T
         wScrn=  0.000000 ICntrl=       500 IOpCl=  0 I1Cent=           0 NGrid=           0
         NMat0=    1 NMatS0=      1 NMatT0=    0 NMatD0=    1 NMtDS0=    0 NMtDT0=    0
 Symmetry not used in FoFCou.
 E= -463.151260018062    
 DIIS: error= 6.17D-02 at cycle   1 NSaved=   1.
 NSaved= 1 IEnMin= 1 EnMin= -463.151260018062     IErMin= 1 ErrMin= 6.17D-02
 ErrMax= 6.17D-02  0.00D+00 EMaxC= 1.00D-01 BMatC= 9.52D-01 BMatP= 9.52D-01
 IDIUse=3 WtCom= 3.83D-01 WtEn= 6.17D-01
 Coeff-Com:  0.100D+01
 Coeff-En:   0.100D+01
 Coeff:      0.100D+01
 Gap=     0.362 Goal=   None    Shift=    0.000
 GapD=    0.362 DampG=1.000 DampE=0.500 DampFc=0.5000 IDamp=-1.
 Damping current iteration by 5.00D-01
 RMSDP=5.13D-02 MaxDP=3.15D+00              OVMax= 3.94D-02

 Cycle   2  Pass 1  IDiag  1:
 RMSU=  4.86D-03    CP:  7.65D-01
 E= -463.200135927787     Delta-E=       -0.048875909725 Rises=F Damp=T
 DIIS: error= 3.01D-02 at cycle   2 NSaved=   2.
 NSaved= 2 IEnMin= 2 EnMin= -463.200135927787     IErMin= 2 ErrMin= 3.01D-02
 ErrMax= 3.01D-02  0.00D+00 EMaxC= 1.00D-01 BMatC= 2.16D-01 BMatP= 9.52D-01
 IDIUse=3 WtCom= 6.99D-01 WtEn= 3.01D-01
 Coeff-Com: -0.883D+00 0.188D+01
 Coeff-En:   0.000D+00 0.100D+01
 Coeff:     -0.617D+00 0.162D+01
 Gap=     0.362 Goal=   None    Shift=    0.000
 RMSDP=2.28D-02 MaxDP=1.22D+00 DE=-4.89D-02 OVMax= 3.67D-02

 Cycle   3  Pass 1  IDiag  1:
 RMSU=  4.33D-03    CP:  5.55D-01  1.06D+00
 E= -463.243562996439     Delta-E=       -0.043427068652 Rises=F Damp=F
 DIIS: error= 5.06D-03 at cycle   3 NSaved=   3.
 NSaved= 3 IEnMin= 3 EnMin= -463.243562996439     IErMin= 3 ErrMin= 5.06D-03
 ErrMax= 5.06D-03  0.00D+00 EMaxC= 1.00D-01 BMatC= 4.86D-03 BMatP= 2.16D-01
 IDIUse=3 WtCom= 9.49D-01 WtEn= 5.06D-02
 Coeff-Com: -0.375D+00 0.797D+00 0.578D+00
 Coeff-En:   0.000D+00 0.000D+00 0.100D+01
 Coeff:     -0.356D+00 0.756D+00 0.599D+00
 Gap=     0.363 Goal=   None    Shift=    0.000
 RMSDP=3.44D-03 MaxDP=2.59D-01 DE=-4.34D-02 OVMax= 2.20D-02

 Cycle   4  Pass 1  IDiag  1:
 RMSU=  8.72D-04    CP:  5.30D-01  1.39D+00  7.33D-01
 E= -463.247905043916     Delta-E=       -0.004342047477 Rises=F Damp=F
 DIIS: error= 1.58D-03 at cycle   4 NSaved=   4.
 NSaved= 4 IEnMin= 4 EnMin= -463.247905043916     IErMin= 4 ErrMin= 1.58D-03
 ErrMax= 1.58D-03  0.00D+00 EMaxC= 1.00D-01 BMatC= 2.97D-04 BMatP= 4.86D-03
 IDIUse=3 WtCom= 9.84D-01 WtEn= 1.58D-02
 Coeff-Com: -0.134D+00 0.287D+00 0.286D+00 0.561D+00
 Coeff-En:   0.000D+00 0.000D+00 0.000D+00 0.100D+01
 Coeff:     -0.132D+00 0.283D+00 0.282D+00 0.568D+00
 Gap=     0.359 Goal=   None    Shift=    0.000
 RMSDP=8.57D-04 MaxDP=4.62D-02 DE=-4.34D-03 OVMax= 5.31D-03

 Cycle   5  Pass 1  IDiag  1:
 RMSU=  2.82D-04    CP:  5.24D-01  1.36D+00  8.10D-01  6.40D-01
 E= -463.248216760403     Delta-E=       -0.000311716487 Rises=F Damp=F
 DIIS: error= 2.33D-04 at cycle   5 NSaved=   5.
 NSaved= 5 IEnMin= 5 EnMin= -463.248216760403     IErMin= 5 ErrMin= 2.33D-04
 ErrMax= 2.33D-04  0.00D+00 EMaxC= 1.00D-01 BMatC= 8.15D-06 BMatP= 2.97D-04
 IDIUse=3 WtCom= 9.98D-01 WtEn= 2.33D-03
 Coeff-Com:  0.269D-01-0.575D-01-0.283D-01 0.116D+00 0.943D+00
 Coeff-En:   0.000D+00 0.000D+00 0.000D+00 0.000D+00 0.100D+01
 Coeff:      0.269D-01-0.574D-01-0.283D-01 0.116D+00 0.943D+00
 Gap=     0.359 Goal=   None    Shift=    0.000
 RMSDP=2.15D-04 MaxDP=9.53D-03 DE=-3.12D-04 OVMax= 1.27D-03

 Cycle   6  Pass 1  IDiag  1:
 RMSU=  5.00D-05    CP:  5.24D-01  1.34D+00  8.46D-01  7.26D-01  1.25D+00
 E= -463.248227529627     Delta-E=       -0.000010769224 Rises=F Damp=F
 DIIS: error= 6.32D-05 at cycle   6 NSaved=   6.
 NSaved= 6 IEnMin= 6 EnMin= -463.248227529627     IErMin= 6 ErrMin= 6.32D-05
 ErrMax= 6.32D-05  0.00D+00 EMaxC= 1.00D-01 BMatC= 5.45D-07 BMatP= 8.15D-06
 IDIUse=1 WtCom= 1.00D+00 WtEn= 0.00D+00
 Coeff-Com:  0.127D-01-0.271D-01-0.158D-01 0.300D-01 0.351D+00 0.649D+00
 Coeff:      0.127D-01-0.271D-01-0.158D-01 0.300D-01 0.351D+00 0.649D+00
 Gap=     0.359 Goal=   None    Shift=    0.000
 RMSDP=5.29D-05 MaxDP=3.65D-03 DE=-1.08D-05 OVMax= 2.49D-04

 Cycle   7  Pass 1  IDiag  1:
 RMSU=  1.18D-05    CP:  5.24D-01  1.34D+00  8.51D-01  7.25D-01  1.31D+00
                    CP:  1.14D+00
 E= -463.248228134042     Delta-E=       -0.000000604415 Rises=F Damp=F
 DIIS: error= 1.77D-05 at cycle   7 NSaved=   7.
 NSaved= 7 IEnMin= 7 EnMin= -463.248228134042     IErMin= 7 ErrMin= 1.77D-05
 ErrMax= 1.77D-05  0.00D+00 EMaxC= 1.00D-01 BMatC= 4.99D-08 BMatP= 5.45D-07
 IDIUse=1 WtCom= 1.00D+00 WtEn= 0.00D+00
 Coeff-Com: -0.203D-02 0.436D-02 0.194D-02-0.167D-01-0.100D+00 0.146D+00
 Coeff-Com:  0.967D+00
 Coeff:     -0.203D-02 0.436D-02 0.194D-02-0.167D-01-0.100D+00 0.146D+00
 Coeff:      0.967D+00
 Gap=     0.359 Goal=   None    Shift=    0.000
 RMSDP=3.12D-05 MaxDP=1.99D-03 DE=-6.04D-07 OVMax= 1.50D-04

 Cycle   8  Pass 1  IDiag  1:
 RMSU=  3.55D-06    CP:  5.24D-01  1.33D+00  8.55D-01  7.27D-01  1.35D+00
                    CP:  1.29D+00  1.30D+00
 E= -463.248228217318     Delta-E=       -0.000000083276 Rises=F Damp=F
 DIIS: error= 4.04D-06 at cycle   8 NSaved=   8.
 NSaved= 8 IEnMin= 8 EnMin= -463.248228217318     IErMin= 8 ErrMin= 4.04D-06
 ErrMax= 4.04D-06  0.00D+00 EMaxC= 1.00D-01 BMatC= 1.87D-09 BMatP= 4.99D-08
 IDIUse=1 WtCom= 1.00D+00 WtEn= 0.00D+00
 Coeff-Com: -0.491D-03 0.105D-02 0.694D-03-0.254D-02-0.150D-01-0.530D-03
 Coeff-Com:  0.208D-01 0.996D+00
 Coeff:     -0.491D-03 0.105D-02 0.694D-03-0.254D-02-0.150D-01-0.530D-03
 Coeff:      0.208D-01 0.996D+00
 Gap=     0.359 Goal=   None    Shift=    0.000
 RMSDP=5.62D-06 MaxDP=4.21D-04 DE=-8.33D-08 OVMax= 3.23D-05

 Cycle   9  Pass 1  IDiag  1:
 RMSU=  4.08D-07    CP:  5.24D-01  1.33D+00  8.55D-01  7.27D-01  1.36D+00
                    CP:  1.31D+00  1.40D+00  1.27D+00
 E= -463.248228221572     Delta-E=       -0.000000004254 Rises=F Damp=F
 DIIS: error= 2.08D-06 at cycle   9 NSaved=   9.
 NSaved= 9 IEnMin= 9 EnMin= -463.248228221572     IErMin= 9 ErrMin= 2.08D-06
 ErrMax= 2.08D-06  0.00D+00 EMaxC= 1.00D-01 BMatC= 3.48D-10 BMatP= 1.87D-09
 IDIUse=1 WtCom= 1.00D+00 WtEn= 0.00D+00
 Coeff-Com:  0.180D-03-0.390D-03-0.585D-04 0.188D-02 0.122D-01-0.193D-01
 Coeff-Com: -0.161D+00 0.315D+00 0.852D+00
 Coeff:      0.180D-03-0.390D-03-0.585D-04 0.188D-02 0.122D-01-0.193D-01
 Coeff:     -0.161D+00 0.315D+00 0.852D+00
 Gap=     0.359 Goal=   None    Shift=    0.000
 RMSDP=1.64D-06 MaxDP=1.05D-04 DE=-4.25D-09 OVMax= 1.96D-05

 Cycle  10  Pass 1  IDiag  1:
 RMSU=  2.24D-07    CP:  5.24D-01  1.33D+00  8.55D-01  7.27D-01  1.36D+00
                    CP:  1.32D+00  1.43D+00  1.38D+00  1.24D+00
 E= -463.248228222442     Delta-E=       -0.000000000869 Rises=F Damp=F
 DIIS: error= 4.42D-07 at cycle  10 NSaved=  10.
 NSaved=10 IEnMin=10 EnMin= -463.248228222442     IErMin=10 ErrMin= 4.42D-07
 ErrMax= 4.42D-07  0.00D+00 EMaxC= 1.00D-01 BMatC= 4.41D-11 BMatP= 3.48D-10
 IDIUse=1 WtCom= 1.00D+00 WtEn= 0.00D+00
 Coeff-Com:  0.708D-04-0.152D-03-0.619D-04 0.528D-03 0.287D-02-0.115D-02
 Coeff-Com: -0.263D-01-0.940D-01 0.191D+00 0.927D+00
 Coeff:      0.708D-04-0.152D-03-0.619D-04 0.528D-03 0.287D-02-0.115D-02
 Coeff:     -0.263D-01-0.940D-01 0.191D+00 0.927D+00
 Gap=     0.359 Goal=   None    Shift=    0.000
 RMSDP=4.25D-07 MaxDP=3.09D-05 DE=-8.69D-10 OVMax= 5.07D-06

 Cycle  11  Pass 1  IDiag  1:
 RMSU=  7.72D-08    CP:  5.24D-01  1.33D+00  8.55D-01  7.27D-01  1.36D+00
                    CP:  1.32D+00  1.42D+00  1.40D+00  1.39D+00  1.21D+00
 E= -463.248228222530     Delta-E=       -0.000000000089 Rises=F Damp=F
 DIIS: error= 9.91D-08 at cycle  11 NSaved=  11.
 NSaved=11 IEnMin=11 EnMin= -463.248228222530     IErMin=11 ErrMin= 9.91D-08
 ErrMax= 9.91D-08  0.00D+00 EMaxC= 1.00D-01 BMatC= 1.44D-12 BMatP= 4.41D-11
 IDIUse=1 WtCom= 1.00D+00 WtEn= 0.00D+00
 Coeff-Com: -0.196D-04 0.424D-04 0.151D-04-0.195D-03-0.130D-02 0.216D-02
 Coeff-Com:  0.151D-01-0.215D-01-0.534D-01-0.140D+00 0.120D+01
 Coeff:     -0.196D-04 0.424D-04 0.151D-04-0.195D-03-0.130D-02 0.216D-02
 Coeff:      0.151D-01-0.215D-01-0.534D-01-0.140D+00 0.120D+01
 Gap=     0.359 Goal=   None    Shift=    0.000
 RMSDP=2.85D-07 MaxDP=2.09D-05 DE=-8.89D-11 OVMax= 1.30D-06

 Cycle  12  Pass 1  IDiag  1:
 RMSU=  1.93D-08    CP:  5.24D-01  1.33D+00  8.55D-01  7.27D-01  1.36D+00
                    CP:  1.32D+00  1.42D+00  1.39D+00  1.44D+00  1.31D+00
                    CP:  1.28D+00
 E= -463.248228222531     Delta-E=       -0.000000000001 Rises=F Damp=F
 DIIS: error= 1.51D-08 at cycle  12 NSaved=  12.
 NSaved=12 IEnMin=12 EnMin= -463.248228222531     IErMin=12 ErrMin= 1.51D-08
 ErrMax= 1.51D-08  0.00D+00 EMaxC= 1.00D-01 BMatC= 6.01D-14 BMatP= 1.44D-12
 IDIUse=1 WtCom= 1.00D+00 WtEn= 0.00D+00
 Coeff-Com: -0.169D-05 0.357D-05 0.222D-05-0.832D-05-0.420D-04-0.346D-04
 Coeff-Com:  0.842D-04 0.462D-02-0.101D-02-0.449D-01-0.738D-01 0.112D+01
 Coeff:     -0.169D-05 0.357D-05 0.222D-05-0.832D-05-0.420D-04-0.346D-04
 Coeff:      0.842D-04 0.462D-02-0.101D-02-0.449D-01-0.738D-01 0.112D+01
 Gap=     0.359 Goal=   None    Shift=    0.000
 RMSDP=5.66D-08 MaxDP=3.93D-06 DE=-9.09D-13 OVMax= 2.54D-07

 Cycle  13  Pass 1  IDiag  1:
 RMSU=  4.88D-09    CP:  5.24D-01  1.33D+00  8.55D-01  7.27D-01  1.36D+00
                    CP:  1.32D+00  1.42D+00  1.39D+00  1.45D+00  1.31D+00
                    CP:  1.33D+00  1.31D+00
 E= -463.248228222533     Delta-E=       -0.000000000002 Rises=F Damp=F
 DIIS: error= 3.73D-09 at cycle  13 NSaved=  13.
 NSaved=13 IEnMin=13 EnMin= -463.248228222533     IErMin=13 ErrMin= 3.73D-09
 ErrMax= 3.73D-09  0.00D+00 EMaxC= 1.00D-01 BMatC= 2.85D-15 BMatP= 6.01D-14
 IDIUse=1 WtCom= 1.00D+00 WtEn= 0.00D+00
 Coeff-Com:  0.556D-06-0.122D-05-0.492D-06 0.649D-05 0.449D-04-0.831D-04
 Coeff-Com: -0.585D-03 0.142D-02 0.251D-02-0.152D-02-0.582D-01 0.145D+00
 Coeff-Com:  0.912D+00
 Coeff:      0.556D-06-0.122D-05-0.492D-06 0.649D-05 0.449D-04-0.831D-04
 Coeff:     -0.585D-03 0.142D-02 0.251D-02-0.152D-02-0.582D-01 0.145D+00
 Coeff:      0.912D+00
 Gap=     0.359 Goal=   None    Shift=    0.000
 RMSDP=4.53D-09 MaxDP=1.60D-07 DE=-2.05D-12 OVMax= 4.60D-08

 SCF Done:  E(RwB97XD) =  -463.248228223     A.U. after   13 cycles
            NFock= 13  Conv=0.45D-08     -V/T= 2.0049
 KE= 4.610094034743D+02 PE=-2.270215728397D+03 EE= 7.480148576807D+02
 Leave Link  502 at Sat Nov  5 21:37:06 2022, MaxMem= 16106127360 cpu:             743.1 elap:              23.3
 (Enter /opt/ap/G16/B01/g16/l601.exe)
 Copying SCF densities to generalized density rwf, IOpCl= 0 IROHF=0.

 **********************************************************************

            Population analysis using the SCF Density.

 **********************************************************************

 Orbital symmetries:
       Occupied  (A) (A) (A) (A) (A) (A) (A) (A) (A) (A) (A) (A)
                 (A) (A) (A) (A) (A) (A) (A) (A) (A) (A) (A) (A)
                 (A) (A) (A) (A) (A) (A) (A) (A) (A) (A) (A) (A)
                 (A) (A) (A) (A) (A)
       Virtual   (A) (A) (A) (A) (A) (A) (A) (A) (A) (A) (A) (A)
                 (A) (A) (A) (A) (A) (A) (A) (A) (A) (A) (A) (A)
                 (A) (A) (A) (A) (A) (A) (A) (A) (A) (A) (A) (A)
                 (A) (A) (A) (A) (A) (A) (A) (A) (A) (A) (A) (A)
                 (A) (A) (A) (A) (A) (A) (A) (A) (A) (A) (A) (A)
                 (A) (A) (A) (A) (A) (A) (A) (A) (A) (A) (A) (A)
                 (A) (A) (A) (A) (A) (A) (A) (A) (A) (A) (A) (A)
                 (A) (A) (A) (A) (A) (A) (A) (A) (A) (A) (A) (A)
                 (A) (A) (A) (A) (A) (A) (A) (A) (A) (A) (A) (A)
                 (A) (A) (A) (A) (A) (A) (A) (A) (A) (A) (A) (A)
                 (A) (A) (A) (A) (A) (A) (A) (A) (A) (A) (A) (A)
                 (A) (A) (A) (A) (A) (A) (A) (A) (A) (A) (A) (A)
                 (A) (A) (A) (A) (A) (A) (A) (A) (A) (A) (A) (A)
                 (A) (A) (A) (A) (A) (A) (A) (A) (A) (A) (A) (A)
                 (A) (A) (A) (A) (A) (A) (A) (A) (A) (A) (A) (A)
                 (A) (A) (A) (A) (A) (A) (A) (A) (A) (A) (A) (A)
                 (A) (A) (A) (A) (A) (A) (A) (A) (A) (A) (A) (A)
                 (A) (A) (A) (A) (A) (A) (A) (A) (A) (A) (A) (A)
                 (A) (A) (A) (A) (A) (A) (A) (A) (A) (A) (A) (A)
                 (A) (A) (A) (A) (A) (A) (A) (A) (A) (A) (A) (A)
                 (A) (A) (A) (A) (A) (A) (A) (A) (A) (A) (A) (A)
                 (A) (A) (A) (A) (A) (A) (A) (A) (A) (A) (A) (A)
                 (A) (A) (A) (A) (A) (A) (A) (A) (A) (A) (A) (A)
                 (A) (A) (A) (A) (A) (A) (A) (A) (A) (A) (A) (A)
                 (A) (A) (A)
 The electronic state is 1-A.
 Alpha  occ. eigenvalues --  -10.30385 -10.30354 -10.29310 -10.29310 -10.29296
 Alpha  occ. eigenvalues --  -10.29296 -10.29233 -10.29232 -10.29221 -10.29221
 Alpha  occ. eigenvalues --  -10.29200 -10.29200  -0.97495  -0.95291  -0.88148
 Alpha  occ. eigenvalues --   -0.85075  -0.84849  -0.82376  -0.72299  -0.70702
 Alpha  occ. eigenvalues --   -0.69844  -0.67466  -0.62481  -0.59597  -0.55751
 Alpha  occ. eigenvalues --   -0.54974  -0.54125  -0.53463  -0.50964  -0.50912
 Alpha  occ. eigenvalues --   -0.50764  -0.46099  -0.45684  -0.45547  -0.42999
 Alpha  occ. eigenvalues --   -0.42650  -0.41856  -0.33858  -0.33767  -0.33114
 Alpha  occ. eigenvalues --   -0.32019
 Alpha virt. eigenvalues --    0.03857   0.04092   0.04144   0.04567   0.05095
 Alpha virt. eigenvalues --    0.05557   0.05991   0.06115   0.06318   0.06946
 Alpha virt. eigenvalues --    0.07322   0.07574   0.09144   0.09198   0.12654
 Alpha virt. eigenvalues --    0.12684   0.13219   0.13335   0.14929   0.15122
 Alpha virt. eigenvalues --    0.15496   0.15803   0.15993   0.16264   0.17080
 Alpha virt. eigenvalues --    0.17347   0.17416   0.17496   0.17533   0.17582
 Alpha virt. eigenvalues --    0.18705   0.18836   0.18945   0.19160   0.19471
 Alpha virt. eigenvalues --    0.20464   0.20569   0.22001   0.22091   0.22310
 Alpha virt. eigenvalues --    0.22521   0.22687   0.23613   0.24111   0.25248
 Alpha virt. eigenvalues --    0.25376   0.26150   0.26325   0.27107   0.27152
 Alpha virt. eigenvalues --    0.27566   0.27996   0.29498   0.30132   0.30504
 Alpha virt. eigenvalues --    0.31061   0.31364   0.31868   0.32441   0.32817
 Alpha virt. eigenvalues --    0.33588   0.33911   0.34301   0.34905   0.35438
 Alpha virt. eigenvalues --    0.35462   0.35497   0.35650   0.36789   0.37274
 Alpha virt. eigenvalues --    0.37696   0.37964   0.38958   0.40812   0.42875
 Alpha virt. eigenvalues --    0.43247   0.43823   0.45495   0.45703   0.46511
 Alpha virt. eigenvalues --    0.47961   0.55691   0.58673   0.60652   0.60711
 Alpha virt. eigenvalues --    0.61191   0.61241   0.62185   0.62744   0.63328
 Alpha virt. eigenvalues --    0.63613   0.63688   0.63922   0.65094   0.65749
 Alpha virt. eigenvalues --    0.65973   0.66606   0.67416   0.68820   0.70516
 Alpha virt. eigenvalues --    0.72562   0.73230   0.74012   0.74321   0.74660
 Alpha virt. eigenvalues --    0.76914   0.77933   0.78862   0.80724   0.81128
 Alpha virt. eigenvalues --    0.81283   0.81698   0.81856   0.82014   0.82826
 Alpha virt. eigenvalues --    0.83152   0.85878   0.86125   0.88988   0.89589
 Alpha virt. eigenvalues --    0.90447   0.92135   0.92870   0.93420   0.94020
 Alpha virt. eigenvalues --    0.95410   0.95974   0.96782   0.97033   0.97793
 Alpha virt. eigenvalues --    0.98738   1.01565   1.02343   1.02547   1.03926
 Alpha virt. eigenvalues --    1.04095   1.09470   1.09896   1.10831   1.10927
 Alpha virt. eigenvalues --    1.11370   1.14342   1.14528   1.14795   1.15725
 Alpha virt. eigenvalues --    1.16550   1.20360   1.24762   1.25797   1.25840
 Alpha virt. eigenvalues --    1.28459   1.37023   1.40252   1.41810   1.44804
 Alpha virt. eigenvalues --    1.48347   1.58000   1.58523   1.59222   1.59745
 Alpha virt. eigenvalues --    1.60076   1.61663   1.63573   1.64017   1.64605
 Alpha virt. eigenvalues --    1.65427   1.65760   1.67053   1.72214   1.72698
 Alpha virt. eigenvalues --    1.72826   1.73174   1.74062   1.74491   1.74836
 Alpha virt. eigenvalues --    1.81574   1.82488   1.82819   1.85054   1.85934
 Alpha virt. eigenvalues --    1.86715   1.87034   1.87990   1.91864   1.92254
 Alpha virt. eigenvalues --    1.93225   1.95567   1.98746   1.99592   2.00149
 Alpha virt. eigenvalues --    2.02999   2.04062   2.04418   2.04563   2.04912
 Alpha virt. eigenvalues --    2.05560   2.09461   2.10282   2.11530   2.12085
 Alpha virt. eigenvalues --    2.12357   2.16380   2.16629   2.16897   2.19023
 Alpha virt. eigenvalues --    2.20777   2.30799   2.34948   2.35038   2.38870
 Alpha virt. eigenvalues --    2.47508   2.51334   2.52232   2.52438   2.53020
 Alpha virt. eigenvalues --    2.54829   2.55902   2.56027   2.57402   2.65084
 Alpha virt. eigenvalues --    2.71039   2.72685   2.73221   2.74271   2.75145
 Alpha virt. eigenvalues --    2.79099   2.79561   2.80411   2.80506   2.81036
 Alpha virt. eigenvalues --    2.82539   2.83367   2.83506   2.84722   2.85972
 Alpha virt. eigenvalues --    2.87515   2.89080   2.90868   2.91070   2.92156
 Alpha virt. eigenvalues --    2.92508   2.95941   2.98448   2.99291   2.99827
 Alpha virt. eigenvalues --    3.01368   3.03889   3.04114   3.05166   3.13396
 Alpha virt. eigenvalues --    3.14834   3.21372   3.22422   3.26168   3.28118
 Alpha virt. eigenvalues --    3.36350   3.43684   3.45212   3.48669   3.48872
 Alpha virt. eigenvalues --    3.58706   3.60109   3.63693   3.64327   3.69029
 Alpha virt. eigenvalues --    3.73447   3.75704   3.94226   4.09061   4.09469
 Alpha virt. eigenvalues --    4.13467   4.14772   4.24930   4.24999   4.25176
 Alpha virt. eigenvalues --    4.26218   4.49265   4.93757   4.94828  23.71051
 Alpha virt. eigenvalues --   23.85475  24.06815  24.09031  24.09151  24.11336
 Alpha virt. eigenvalues --   24.17429  24.22115  24.22339  24.23202  24.30939
 Alpha virt. eigenvalues --   24.32463
          Condensed to atoms (all electrons):
               1          2          3          4          5          6
     1  C   17.317539   0.996958   0.995710  -1.716047   0.107760  -5.793153
     2  C    0.996958  12.164026  -2.713827  -0.151477   0.369930  -3.247510
     3  C    0.995710  -2.713827  12.165294  -1.170195   0.081148  -3.246368
     4  C   -1.716047  -0.151477  -1.170195   6.751327  -0.108309   1.388136
     5  H    0.107760   0.369930   0.081148  -0.108309   0.465996  -0.078397
     6  C   -5.793153  -3.247510  -3.246368   1.388136  -0.078397  17.317397
     7  C   -1.717451  -1.170474  -0.154216   0.282023  -0.016332   1.390735
     8  H    0.107801   0.081138   0.370101  -0.016319   0.000277  -0.078567
     9  C   -0.180407   0.603068   0.603437   0.062707   0.017970  -1.260103
    10  H    0.030054  -0.108834  -0.027067   0.442393  -0.011883   0.045293
    11  C   -3.246747  -0.342437  -0.268099   0.292940  -0.013794   0.996339
    12  C   -3.246503  -0.268552  -0.341628   0.247230  -0.053984   0.996649
    13  H    0.030048  -0.027052  -0.108905   0.020458  -0.000212   0.045306
    14  H    0.026706   0.021956   0.021947  -0.052454   0.000800  -0.033740
    15  C    1.387873   0.293331   0.246720  -0.029084   0.017367  -1.715786
    16  H   -0.078388  -0.013794  -0.053961   0.017379   0.000958   0.107706
    17  C    1.390488   0.247923   0.293140  -0.071514   0.018408  -1.717648
    18  H   -0.078535  -0.054046  -0.013812   0.018394  -0.001899   0.107865
    19  C   -1.260011  -0.145209  -0.144527   0.046901  -0.014847  -0.180324
    20  H    0.045280   0.001543   0.007206  -0.001025   0.000346   0.030052
    21  H    0.045312   0.007249   0.001503  -0.000978   0.000523   0.030031
    22  H   -0.033737  -0.004428  -0.004396   0.001249  -0.000475   0.026710
               7          8          9         10         11         12
     1  C   -1.717451   0.107801  -0.180407   0.030054  -3.246747  -3.246503
     2  C   -1.170474   0.081138   0.603068  -0.108834  -0.342437  -0.268552
     3  C   -0.154216   0.370101   0.603437  -0.027067  -0.268099  -0.341628
     4  C    0.282023  -0.016319   0.062707   0.442393   0.292940   0.247230
     5  H   -0.016332   0.000277   0.017970  -0.011883  -0.013794  -0.053984
     6  C    1.390735  -0.078567  -1.260103   0.045293   0.996339   0.996649
     7  C    6.753277  -0.108358   0.062127   0.020464   0.247641   0.293350
     8  H   -0.108358   0.465996   0.017990  -0.000212  -0.054071  -0.013767
     9  C    0.062127   0.017990   6.435880  -0.083806  -0.144923  -0.144836
    10  H    0.020464  -0.000212  -0.083806   0.480707   0.001523   0.007226
    11  C    0.247641  -0.054071  -0.144923   0.001523  12.162591  -2.713679
    12  C    0.293350  -0.013767  -0.144836   0.007226  -2.713679  12.164804
    13  H    0.442437  -0.011885  -0.083797   0.000463   0.007241   0.001511
    14  H   -0.052471   0.000800   0.412725  -0.008403  -0.004412  -0.004412
    15  C   -0.071609   0.018383   0.046955  -0.001030  -0.150673  -1.170333
    16  H    0.018409  -0.001899  -0.014852   0.000346   0.369893   0.081145
    17  C   -0.029460   0.017443   0.047072  -0.000982  -1.169960  -0.154380
    18  H    0.017421   0.000955  -0.014858   0.000523   0.081153   0.370071
    19  C    0.047138  -0.014863  -0.029023   0.000323   0.602651   0.603500
    20  H   -0.000986   0.000523   0.000323   0.000051  -0.108815  -0.027062
    21  H   -0.001038   0.000347   0.000324   0.000015  -0.027057  -0.108892
    22  H    0.001256  -0.000476  -0.000646   0.000008   0.021931   0.021962
              13         14         15         16         17         18
     1  C    0.030048   0.026706   1.387873  -0.078388   1.390488  -0.078535
     2  C   -0.027052   0.021956   0.293331  -0.013794   0.247923  -0.054046
     3  C   -0.108905   0.021947   0.246720  -0.053961   0.293140  -0.013812
     4  C    0.020458  -0.052454  -0.029084   0.017379  -0.071514   0.018394
     5  H   -0.000212   0.000800   0.017367   0.000958   0.018408  -0.001899
     6  C    0.045306  -0.033740  -1.715786   0.107706  -1.717648   0.107865
     7  C    0.442437  -0.052471  -0.071609   0.018409  -0.029460   0.017421
     8  H   -0.011885   0.000800   0.018383  -0.001899   0.017443   0.000955
     9  C   -0.083797   0.412725   0.046955  -0.014852   0.047072  -0.014858
    10  H    0.000463  -0.008403  -0.001030   0.000346  -0.000982   0.000523
    11  C    0.007241  -0.004412  -0.150673   0.369893  -1.169960   0.081153
    12  C    0.001511  -0.004412  -1.170333   0.081145  -0.154380   0.370071
    13  H    0.480708  -0.008401  -0.000978   0.000523  -0.001036   0.000346
    14  H   -0.008401   0.471223   0.001251  -0.000476   0.001254  -0.000476
    15  C   -0.000978   0.001251   6.750784  -0.108244   0.281889  -0.016324
    16  H    0.000523  -0.000476  -0.108244   0.465985  -0.016320   0.000277
    17  C   -0.001036   0.001254   0.281889  -0.016320   6.753263  -0.108402
    18  H    0.000346  -0.000476  -0.016324   0.000277  -0.108402   0.465998
    19  C    0.000324  -0.000646   0.062969   0.017946   0.062151   0.017993
    20  H    0.000015   0.000008   0.442371  -0.011880   0.020457  -0.000212
    21  H    0.000051   0.000008   0.020461  -0.000212   0.442439  -0.011885
    22  H    0.000008  -0.000010  -0.052436   0.000798  -0.052482   0.000801
              19         20         21         22
     1  C   -1.260011   0.045280   0.045312  -0.033737
     2  C   -0.145209   0.001543   0.007249  -0.004428
     3  C   -0.144527   0.007206   0.001503  -0.004396
     4  C    0.046901  -0.001025  -0.000978   0.001249
     5  H   -0.014847   0.000346   0.000523  -0.000475
     6  C   -0.180324   0.030052   0.030031   0.026710
     7  C    0.047138  -0.000986  -0.001038   0.001256
     8  H   -0.014863   0.000523   0.000347  -0.000476
     9  C   -0.029023   0.000323   0.000324  -0.000646
    10  H    0.000323   0.000051   0.000015   0.000008
    11  C    0.602651  -0.108815  -0.027057   0.021931
    12  C    0.603500  -0.027062  -0.108892   0.021962
    13  H    0.000324   0.000015   0.000051   0.000008
    14  H   -0.000646   0.000008   0.000008  -0.000010
    15  C    0.062969   0.442371   0.020461  -0.052436
    16  H    0.017946  -0.011880  -0.000212   0.000798
    17  C    0.062151   0.020457   0.442439  -0.052482
    18  H    0.017993  -0.000212  -0.011885   0.000801
    19  C    6.435755  -0.083785  -0.083800   0.412721
    20  H   -0.083785   0.480706   0.000463  -0.008401
    21  H   -0.083800   0.000463   0.480708  -0.008402
    22  H    0.412721  -0.008401  -0.008402   0.471225
 Mulliken charges:
               1
     1  C    0.869453
     2  C   -0.539483
     3  C   -0.539202
     4  C   -0.253734
     5  H    0.218652
     6  C    0.869377
     7  C   -0.253882
     8  H    0.218665
     9  C   -0.353326
    10  H    0.212828
    11  C   -0.539235
    12  C   -0.539422
    13  H    0.212828
    14  H    0.207224
    15  C   -0.253855
    16  H    0.218661
    17  C   -0.253743
    18  H    0.218655
    19  C   -0.353336
    20  H    0.212823
    21  H    0.212831
    22  H    0.207222
 Sum of Mulliken charges =  -0.00000
 Mulliken charges with hydrogens summed into heavy atoms:
               1
     1  C    0.869453
     2  C   -0.320831
     3  C   -0.320537
     4  C   -0.040906
     6  C    0.869377
     7  C   -0.041054
     9  C   -0.146102
    11  C   -0.320575
    12  C   -0.320767
    15  C   -0.041032
    17  C   -0.040911
    19  C   -0.146115
 Electronic spatial extent (au):  <R**2>=           2312.0137
 Charge=             -0.0000 electrons
 Dipole moment (field-independent basis, Debye):
    X=              0.0000    Y=             -0.0002    Z=              0.0003  Tot=              0.0004
 Quadrupole moment (field-independent basis, Debye-Ang):
   XX=            -61.7873   YY=            -67.6024   ZZ=            -71.3597
   XY=             -0.0005   XZ=              0.0014   YZ=              0.0000
 Traceless Quadrupole moment (field-independent basis, Debye-Ang):
   XX=              5.1292   YY=             -0.6860   ZZ=             -4.4432
   XY=             -0.0005   XZ=              0.0014   YZ=              0.0000
 Octapole moment (field-independent basis, Debye-Ang**2):
  XXX=             -0.0000  YYY=              0.0008  ZZZ=              0.0034  XYY=             -0.0005
  XXY=             -0.0052  XXZ=              0.0008  XZZ=              0.0006  YZZ=             -0.0005
  YYZ=             -0.0003  XYZ=             18.5834
 Hexadecapole moment (field-independent basis, Debye-Ang**3):
 XXXX=          -2302.7028 YYYY=           -405.3149 ZZZZ=           -288.7691 XXXY=             -0.0017
 XXXZ=              0.0260 YYYX=             -0.0092 YYYZ=              0.0000 ZZZX=              0.0018
 ZZZY=              0.0003 XXYY=           -484.9275 XXZZ=           -491.4701 YYZZ=            -94.8299
 XXYZ=              0.0006 YYXZ=              0.0010 ZZXY=              0.0034
 N-N= 5.979432390199D+02 E-N=-2.270215728128D+03  KE= 4.610094034743D+02
 No NMR shielding tensors so no spin-rotation constants.
 Leave Link  601 at Sat Nov  5 21:37:06 2022, MaxMem= 16106127360 cpu:               4.1 elap:               0.2
 (Enter /opt/ap/G16/B01/g16/l9999.exe)
 1\1\GINC-N04\SP\RwB97XD\6-311++G(d,p)\C12H10\ROOT\05-Nov-2022\0\\#P wB
 97XD/6-311++G(d,p) scf=maxcycle=512\\_conf033.gjf nmol_natom 1_22\\0,1
 \C\C,1,1.40491871\C,1,1.40495292,2,118.20503621\C,2,1.3939373,1,120.91
 08946,3,0.05365643,0\H,2,1.08593095,1,119.3452094,3,-178.3624307,0\C,1
 ,1.48449301,2,120.90144423,4,-179.96388019,0\C,3,1.39389842,1,120.9105
 0598,2,0.03587687,0\H,3,1.08593608,1,119.34159615,2,-178.38281524,0\C,
 4,1.39606958,2,120.24555868,1,-0.09283196,0\H,4,1.08627898,2,119.66792
 041,1,-179.51486187,0\C,6,1.40492034,1,120.90156908,2,75.,0\C,6,1.4049
 5329,1,120.89324856,2,-105.,0\H,7,1.08627928,3,119.67027175,1,-179.512
 58183,0\H,9,1.08597601,4,120.2602535,2,-179.95233103,0\C,11,1.39393437
 ,6,120.91099656,1,-179.95869964,0\H,11,1.08593173,6,119.34475907,1,1.6
 1891886,0\C,12,1.39390147,6,120.91022615,1,-179.94297913,0\H,12,1.0859
 3608,6,119.34175044,1,1.63241608,0\C,15,1.39607161,11,120.24535737,6,-
 0.10315482,0\H,15,1.08627786,11,119.66861247,6,-179.51844254,0\H,17,1.
 08627825,12,119.6702798,6,-179.51590091,0\H,19,1.08597601,15,120.25988
 597,11,-179.94731581,0\\Version=ES64L-G16RevB.01\State=1-A\HF=-463.248
 2282\RMSD=4.531e-09\Dipole=-0.0000014,-0.0001406,0.000011\Quadrupole=2
 .4000133,-2.2684822,-0.1315312,-0.6926602,2.3613099,1.1576401\PG=C01 [
 X(C12H10)]\\@


 HO!  SUCH BUGS AND GOBLINS IN MY LIFE!

                            -- HAMLET, ACT 5, SCENE 2
 Job cpu time:       0 days  0 hours 13 minutes  9.7 seconds.
 Elapsed time:       0 days  0 hours  0 minutes 24.8 seconds.
 File lengths (MBytes):  RWF=     62 Int=      0 D2E=      0 Chk=      8 Scr=      1
 Normal termination of Gaussian 16 at Sat Nov  5 21:37:06 2022.
