 Entering Gaussian System, Link 0=g16
 Input=_conf015.gjf
 Output=_conf015.log
 Initial command:
 /opt/ap/G16/B01/g16/l1.exe "/tmp2/scr/Gau-2653.inp" -scrdir="/tmp2/scr/"
 Entering Link 1 = /opt/ap/G16/B01/g16/l1.exe PID=      2654.
  
 Copyright (c) 1988-2017, Gaussian, Inc.  All Rights Reserved.
  
 This is part of the Gaussian(R) 16 program.  It is based on
 the Gaussian(R) 09 system (copyright 2009, Gaussian, Inc.),
 the Gaussian(R) 03 system (copyright 2003, Gaussian, Inc.),
 the Gaussian(R) 98 system (copyright 1998, Gaussian, Inc.),
 the Gaussian(R) 94 system (copyright 1995, Gaussian, Inc.),
 the Gaussian 92(TM) system (copyright 1992, Gaussian, Inc.),
 the Gaussian 90(TM) system (copyright 1990, Gaussian, Inc.),
 the Gaussian 88(TM) system (copyright 1988, Gaussian, Inc.),
 the Gaussian 86(TM) system (copyright 1986, Carnegie Mellon
 University), and the Gaussian 82(TM) system (copyright 1983,
 Carnegie Mellon University). Gaussian is a federally registered
 trademark of Gaussian, Inc.
  
 This software contains proprietary and confidential information,
 including trade secrets, belonging to Gaussian, Inc.
  
 This software is provided under written license and may be
 used, copied, transmitted, or stored only in accord with that
 written license.
  
 The following legend is applicable only to US Government
 contracts under FAR:
  
                    RESTRICTED RIGHTS LEGEND
  
 Use, reproduction and disclosure by the US Government is
 subject to restrictions as set forth in subparagraphs (a)
 and (c) of the Commercial Computer Software - Restricted
 Rights clause in FAR 52.227-19.
  
 Gaussian, Inc.
 340 Quinnipiac St., Bldg. 40, Wallingford CT 06492
  
  
 ---------------------------------------------------------------
 Warning -- This program may not be used in any manner that
 competes with the business of Gaussian, Inc. or will provide
 assistance to any competitor of Gaussian, Inc.  The licensee
 of this program is prohibited from giving any competitor of
 Gaussian, Inc. access to this program.  By using this program,
 the user acknowledges that Gaussian, Inc. is engaged in the
 business of creating and licensing software in the field of
 computational chemistry and represents and warrants to the
 licensee that it is not a competitor of Gaussian, Inc. and that
 it will not use this program in any manner prohibited above.
 ---------------------------------------------------------------
  

 Cite this work as:
 Gaussian 16, Revision B.01,
 M. J. Frisch, G. W. Trucks, H. B. Schlegel, G. E. Scuseria, 
 M. A. Robb, J. R. Cheeseman, G. Scalmani, V. Barone, 
 G. A. Petersson, H. Nakatsuji, X. Li, M. Caricato, A. V. Marenich, 
 J. Bloino, B. G. Janesko, R. Gomperts, B. Mennucci, H. P. Hratchian, 
 J. V. Ortiz, A. F. Izmaylov, J. L. Sonnenberg, D. Williams-Young, 
 F. Ding, F. Lipparini, F. Egidi, J. Goings, B. Peng, A. Petrone, 
 T. Henderson, D. Ranasinghe, V. G. Zakrzewski, J. Gao, N. Rega, 
 G. Zheng, W. Liang, M. Hada, M. Ehara, K. Toyota, R. Fukuda, 
 J. Hasegawa, M. Ishida, T. Nakajima, Y. Honda, O. Kitao, H. Nakai, 
 T. Vreven, K. Throssell, J. A. Montgomery, Jr., J. E. Peralta, 
 F. Ogliaro, M. J. Bearpark, J. J. Heyd, E. N. Brothers, K. N. Kudin, 
 V. N. Staroverov, T. A. Keith, R. Kobayashi, J. Normand, 
 K. Raghavachari, A. P. Rendell, J. C. Burant, S. S. Iyengar, 
 J. Tomasi, M. Cossi, J. M. Millam, M. Klene, C. Adamo, R. Cammi, 
 J. W. Ochterski, R. L. Martin, K. Morokuma, O. Farkas, 
 J. B. Foresman, and D. J. Fox, Gaussian, Inc., Wallingford CT, 2016.
 
 ******************************************
 Gaussian 16:  ES64L-G16RevB.01 20-Dec-2017
                 5-Nov-2022 
 ******************************************
 %nprocshared=32
 Will use up to   32 processors via shared memory.
 %mem=120GB
 %chk=_conf015.chk
 ----------------------------------------
 #P wB97XD/6-311++G(d,p) scf=maxcycle=512
 ----------------------------------------
 1/38=1,172=1/1;
 2/12=2,17=6,18=5,40=1/2;
 3/5=4,6=6,7=1111,11=2,25=1,30=1,74=-58/1,2,3;
 4//1;
 5/5=2,7=512,38=5/2;
 6/7=2,8=2,9=2,10=2,28=1/1;
 99/5=1,9=1/99;
 Leave Link    1 at Sat Nov  5 21:34:33 2022, MaxMem= 16106127360 cpu:               2.3 elap:               0.1
 (Enter /opt/ap/G16/B01/g16/l101.exe)
 ----------------------------
 _conf015.gjf nmol_natom 1_22
 ----------------------------
 Symbolic Z-matrix:
 Charge =  0 Multiplicity = 1
 C
 C                    1     1.40492 
 C                    1     1.40495  2     118.20504 
 C                    2     1.39394  1     120.91089  3     0.05366  0
 H                    2     1.08593  1     119.34521  3    -178.36243  0
 C                    1     1.48449  2     120.90144  4    -179.96388  0
 C                    3     1.3939   1     120.91051  2     0.03588  0
 H                    3     1.08594  1     119.3416  2    -178.38282  0
 C                    4     1.39607  2     120.24556  1    -0.09283  0
 H                    4     1.08628  2     119.66792  1    -179.51486  0
 C                    6     1.40492  1     120.90157  2    -15.      0
 C                    6     1.40495  1     120.89325  2     165.     0
 H                    7     1.08628  3     119.67027  1    -179.51258  0
 H                    9     1.08598  4     120.26025  2    -179.95233  0
 C                    11    1.39393  6     120.911  1    -179.9587  0
 H                    11    1.08593  6     119.34476  1     1.61892  0
 C                    12    1.3939   6     120.91023  1    -179.94298  0
 H                    12    1.08594  6     119.34175  1     1.63242  0
 C                    15    1.39607  11    120.24536  6    -0.10315  0
 H                    15    1.08628  11    119.66861  6    -179.51844  0
 H                    17    1.08628  12    119.67028  6    -179.5159  0
 H                    19    1.08598  15    120.25989  11   -179.94732  0
 
 ITRead=  0  0  0  0  0  0  0  0  0  0  0  0  0  0  0  0  0  0  0  0
 ITRead=  0  0
 MicOpt= -1 -1 -1 -1 -1 -1 -1 -1 -1 -1 -1 -1 -1 -1 -1 -1 -1 -1 -1 -1
 MicOpt= -1 -1
 NAtoms=     22 NQM=       22 NQMF=       0 NMMI=      0 NMMIF=      0
                NMic=       0 NMicF=      0.
                    Isotopes and Nuclear Properties:
 (Nuclear quadrupole moments (NQMom) in fm**2, nuclear magnetic moments (NMagM)
  in nuclear magnetons)

  Atom         1           2           3           4           5           6           7           8           9          10
 IAtWgt=          12          12          12          12           1          12          12           1          12           1
 AtmWgt=  12.0000000  12.0000000  12.0000000  12.0000000   1.0078250  12.0000000  12.0000000   1.0078250  12.0000000   1.0078250
 NucSpn=           0           0           0           0           1           0           0           1           0           1
 AtZEff=  -0.0000000  -0.0000000  -0.0000000  -0.0000000  -0.0000000  -0.0000000  -0.0000000  -0.0000000  -0.0000000  -0.0000000
 NQMom=    0.0000000   0.0000000   0.0000000   0.0000000   0.0000000   0.0000000   0.0000000   0.0000000   0.0000000   0.0000000
 NMagM=    0.0000000   0.0000000   0.0000000   0.0000000   2.7928460   0.0000000   0.0000000   2.7928460   0.0000000   2.7928460
 AtZNuc=   6.0000000   6.0000000   6.0000000   6.0000000   1.0000000   6.0000000   6.0000000   1.0000000   6.0000000   1.0000000

  Atom        11          12          13          14          15          16          17          18          19          20
 IAtWgt=          12          12           1           1          12           1          12           1          12           1
 AtmWgt=  12.0000000  12.0000000   1.0078250   1.0078250  12.0000000   1.0078250  12.0000000   1.0078250  12.0000000   1.0078250
 NucSpn=           0           0           1           1           0           1           0           1           0           1
 AtZEff=  -0.0000000  -0.0000000  -0.0000000  -0.0000000  -0.0000000  -0.0000000  -0.0000000  -0.0000000  -0.0000000  -0.0000000
 NQMom=    0.0000000   0.0000000   0.0000000   0.0000000   0.0000000   0.0000000   0.0000000   0.0000000   0.0000000   0.0000000
 NMagM=    0.0000000   0.0000000   2.7928460   2.7928460   0.0000000   2.7928460   0.0000000   2.7928460   0.0000000   2.7928460
 AtZNuc=   6.0000000   6.0000000   1.0000000   1.0000000   6.0000000   1.0000000   6.0000000   1.0000000   6.0000000   1.0000000

  Atom        21          22
 IAtWgt=           1           1
 AtmWgt=   1.0078250   1.0078250
 NucSpn=           1           1
 AtZEff=  -0.0000000  -0.0000000
 NQMom=    0.0000000   0.0000000
 NMagM=    2.7928460   2.7928460
 AtZNuc=   1.0000000   1.0000000
 Leave Link  101 at Sat Nov  5 21:34:33 2022, MaxMem= 16106127360 cpu:               5.8 elap:               0.2
 (Enter /opt/ap/G16/B01/g16/l202.exe)
                          Input orientation:                          
 ---------------------------------------------------------------------
 Center     Atomic      Atomic             Coordinates (Angstroms)
 Number     Number       Type             X           Y           Z
 ---------------------------------------------------------------------
      1          6           0        0.000000    0.000000    0.000000
      2          6           0        0.000000    0.000000    1.404919
      3          6           0        1.238131    0.000000   -0.664020
      4          6           0        1.195952    0.001120    2.120990
      5          1           0       -0.946201   -0.027051    1.937101
      6          6           0       -1.273772   -0.000390   -0.762381
      7          6           0        2.434381   -0.000749    0.051479
      8          1           0        1.259850    0.026715   -1.749411
      9          6           0        2.418826    0.000311    1.447501
     10          1           0        1.172413   -0.006894    3.206985
     11          6           0       -2.490777   -0.312767   -0.133795
     12          6           0       -1.294764    0.311643   -2.132084
     13          1           0        3.380326    0.007295   -0.482493
     14          1           0        3.350700    0.000403    2.005133
     15          6           0       -3.686844   -0.314025   -0.849669
     16          1           0       -2.499702   -0.530895    0.929966
     17          6           0       -2.490757    0.312533   -2.848018
     18          1           0       -0.361423    0.529810   -2.642510
     19          6           0       -3.692460   -0.000667   -2.210107
     20          1           0       -4.617310   -0.550936   -0.341627
     21          1           0       -2.482649    0.549129   -3.908187
     22          1           0       -4.624261   -0.000743   -2.767860
 ---------------------------------------------------------------------
                    Distance matrix (angstroms):
                    1          2          3          4          5
     1  C    0.000000
     2  C    1.404919   0.000000
     3  C    1.404953   2.411116   0.000000
     4  C    2.434934   1.393937   2.785330   0.000000
     5  H    2.156012   1.085931   3.396745   2.150216   0.000000
     6  C    1.484493   2.513898   2.513829   3.796494   2.719415
     7  C    2.434925   2.785320   1.393898   2.411760   3.870994
     8  H    2.156008   3.396723   1.085936   3.871013   4.296501
     9  C    2.818861   2.419201   2.419207   1.396070   3.400568
    10  H    3.414579   2.149893   3.871569   1.086279   2.470128
    11  C    2.513901   2.944390   3.779381   4.332962   2.599223
    12  C    2.513826   3.779408   2.944129   4.938495   4.098107
    13  H    3.414594   3.871560   2.149884   3.398478   4.957262
    14  H    3.904837   3.404035   3.404016   2.157861   4.297527
    15  C    3.796494   4.332966   4.938468   5.724145   3.919129
    16  H    2.719411   2.599219   4.098053   3.919112   1.918735
    17  C    3.796414   4.938524   4.332682   6.195147   5.039677
    18  H    2.719225   4.097927   2.598787   5.039432   4.650258
    19  C    4.303351   5.167462   5.167312   6.531078   4.974130
    20  H    4.662595   4.967243   5.890132   6.337449   4.352482
    21  H    4.662511   5.890176   4.966927   7.084024   6.071248
    22  H    5.389327   6.228634   6.228466   7.601036   5.972059
                    6          7          8          9         10
     6  C    0.000000
     7  C    3.796415   0.000000
     8  H    2.719228   2.150228   0.000000
     9  C    4.303354   1.396108   3.400612   0.000000
    10  H    4.662588   3.398502   4.957280   2.156243   0.000000
    11  C    1.404920   4.938508   4.097885   5.167467   4.967226
    12  C    1.404953   4.332674   2.598783   5.167311   5.890169
    13  H    4.662512   1.086279   2.470197   2.156248   4.299689
    14  H    5.389330   2.157871   4.297551   1.085976   2.487858
    15  C    2.434934   6.195128   5.039387   6.531080   6.337440
    16  H    2.156010   5.039639   4.650185   4.974127   4.352449
    17  C    2.434925   5.723829   3.918633   6.530924   7.084060
    18  H    2.156010   3.918621   1.918139   4.973766   6.071021
    19  C    2.818858   6.530922   4.973767   7.122212   7.280927
    20  H    3.414583   7.084037   6.070959   7.280938   6.812453
    21  H    3.414594   6.337073   4.351956   7.280731   8.018373
    22  H    3.904834   7.600862   5.971663   8.208188   8.324677
                   11         12         13         14         15
    11  C    0.000000
    12  C    2.411119   0.000000
    13  H    5.890151   4.966915   0.000000
    14  H    6.228640   6.228465   2.487812   0.000000
    15  C    1.393934   2.785336   7.083993   7.601039   0.000000
    16  H    1.085932   3.396748   6.071195   5.972057   2.150219
    17  C    2.785320   1.393901   6.337073   7.600864   2.411763
    18  H    3.396725   1.085936   4.351940   5.971660   3.871016
    19  C    2.419198   2.419208   7.280728   8.208188   1.396072
    20  H    2.149897   3.871575   8.018331   8.324689   1.086278
    21  H    3.871558   2.149886   6.812006   8.324447   3.398478
    22  H    3.404029   3.404019   8.324445   9.294164   2.157859
                   16         17         18         19         20
    16  H    0.000000
    17  C    3.870997   0.000000
    18  H    4.296501   2.150234   0.000000
    19  C    3.400569   1.396107   3.400615   0.000000
    20  H    2.470145   3.398500   4.957282   2.156238   0.000000
    21  H    4.957264   1.086278   2.470204   2.156245   4.299683
    22  H    4.297527   2.157871   4.297556   1.085976   2.487844
                   21         22
    21  H    0.000000
    22  H    2.487812   0.000000
 Stoichiometry    C12H10
 Framework group  C1[X(C12H10)]
 Deg. of freedom    60
 Full point group                 C1      NOp   1
 Largest Abelian subgroup         C1      NOp   1
 Largest concise Abelian subgroup C1      NOp   1
                         Standard orientation:                         
 ---------------------------------------------------------------------
 Center     Atomic      Atomic             Coordinates (Angstroms)
 Number     Number       Type             X           Y           Z
 ---------------------------------------------------------------------
      1          6           0        0.742246    0.000079   -0.000152
      2          6           0        1.463749    1.195265   -0.157506
      3          6           0        1.463622   -1.195192    0.157443
      4          6           0        2.857686    1.195388   -0.158430
      5          1           0        0.925156    2.133281   -0.253893
      6          6           0       -0.742247    0.000086    0.000004
      7          6           0        2.857520   -1.195463    0.158455
      8          1           0        0.924854   -2.133098    0.253982
      9          6           0        3.561107   -0.000065    0.000002
     10          1           0        3.395205    2.132292   -0.273700
     11          6           0       -1.463742    1.195260    0.157499
     12          6           0       -1.463629   -1.195213   -0.157356
     13          1           0        3.394971   -2.132388    0.273869
     14          1           0        4.647083   -0.000143    0.000092
     15          6           0       -2.857676    1.195382    0.158530
     16          1           0       -0.925134    2.133255    0.254015
     17          6           0       -2.857530   -1.195461   -0.158444
     18          1           0       -0.924867   -2.133137   -0.253749
     19          6           0       -3.561105   -0.000036   -0.000149
     20          1           0       -3.395198    2.132262    0.273967
     21          1           0       -3.394990   -2.132396   -0.273727
     22          1           0       -4.647081   -0.000101   -0.000237
 ---------------------------------------------------------------------
 Rotational constants (GHZ):           2.8585222           0.5561086           0.4680909
 Leave Link  202 at Sat Nov  5 21:34:33 2022, MaxMem= 16106127360 cpu:               2.4 elap:               0.1
 (Enter /opt/ap/G16/B01/g16/l301.exe)
 Standard basis: 6-311++G(d,p) (5D, 7F)
 Ernie: Thresh=  0.10000D-02 Tol=  0.10000D-05 Strict=F.
 There are   346 symmetry adapted cartesian basis functions of A   symmetry.
 There are   334 symmetry adapted basis functions of A   symmetry.
   334 basis functions,   522 primitive gaussians,   346 cartesian basis functions
    41 alpha electrons       41 beta electrons
       nuclear repulsion energy       599.6216444312 Hartrees.
 IExCor= 4639 DFT=T Ex+Corr=wB97XD ExCW=0 ScaHFX=  1.000000
 ScaDFX=  1.000000  1.000000  1.000000  1.000000 ScalE2=  1.000000  1.000000
 IRadAn=      5 IRanWt=     -1 IRanGd=            0 ICorTp=0 IEmpDi=121
 HFx  wShort=  0.000000 wLong=  0.200000 cFull=  0.222036 cShort=  0.000000 cLong=  0.777964
 DFx  wShort=  0.000000 wLong=  0.200000 cFull=  0.000000 cShort=  0.000000 cLong=  1.000000
 NAtoms=   22 NActive=   22 NUniq=   22 SFac= 1.00D+00 NAtFMM=   60 NAOKFM=F Big=F
 Integral buffers will be    131072 words long.
 Raffenetti 2 integral format.
 Two-electron integral symmetry is turned on.
 R6Disp:  Grimme-D2 Dispersion energy=       -0.0118279254 Hartrees.
 Nuclear repulsion after empirical dispersion term =      599.6098165059 Hartrees.
 Leave Link  301 at Sat Nov  5 21:34:33 2022, MaxMem= 16106127360 cpu:               1.2 elap:               0.0
 (Enter /opt/ap/G16/B01/g16/l302.exe)
 NPDir=0 NMtPBC=     1 NCelOv=     1 NCel=       1 NClECP=     1 NCelD=      1
         NCelK=      1 NCelE2=     1 NClLst=     1 CellRange=     0.0.
 One-electron integrals computed using PRISM.
 One-electron integral symmetry used in STVInt
 NBasis=   334 RedAO= T EigKep=  2.78D-06  NBF=   334
 NBsUse=   330 1.00D-06 EigRej=  9.95D-07 NBFU=   330
 Precomputing XC quadrature grid using
 IXCGrd= 4 IRadAn=           5 IRanWt=          -1 IRanGd=           0 AccXCQ= 0.00D+00.
 Generated NRdTot=       0 NPtTot=           0 NUsed=           0 NTot=          32
 NSgBfM=   346   346   346   346   346 MxSgAt=    22 MxSgA2=    22.
 Leave Link  302 at Sat Nov  5 21:34:34 2022, MaxMem= 16106127360 cpu:               7.6 elap:               0.2
 (Enter /opt/ap/G16/B01/g16/l303.exe)
 DipDrv:  MaxL=1.
 Leave Link  303 at Sat Nov  5 21:34:34 2022, MaxMem= 16106127360 cpu:               1.4 elap:               0.1
 (Enter /opt/ap/G16/B01/g16/l401.exe)
 ExpMin= 3.60D-02 ExpMax= 4.56D+03 ExpMxC= 6.82D+02 IAcc=3 IRadAn=         5 AccDes= 0.00D+00
 Harris functional with IExCor= 4639 and IRadAn=       5 diagonalized for initial guess.
 HarFok:  IExCor= 4639 AccDes= 0.00D+00 IRadAn=         5 IDoV= 1 UseB2=F ITyADJ=14
 ICtDFT=  3500011 ScaDFX=  1.000000  1.000000  1.000000  1.000000
 FoFCou: FMM=F IPFlag=           0 FMFlag=      100000 FMFlg1=           0
         NFxFlg=           0 DoJE=T BraDBF=F KetDBF=T FulRan=T
         wScrn=  0.000000 ICntrl=       500 IOpCl=  0 I1Cent=   200000004 NGrid=           0
         NMat0=    1 NMatS0=      1 NMatT0=    0 NMatD0=    1 NMtDS0=    0 NMtDT0=    0
 Petite list used in FoFCou.
 Harris En= -441.933784685568    
 JPrj=0 DoOrth=F DoCkMO=F.
 Leave Link  401 at Sat Nov  5 21:34:34 2022, MaxMem= 16106127360 cpu:              19.8 elap:               0.6
 (Enter /opt/ap/G16/B01/g16/l502.exe)
 Integral symmetry usage will be decided dynamically.
 Closed shell SCF:
 Using DIIS extrapolation, IDIIS=  1040.
 NGot= 16106127360 LenX= 16105873520 LenY= 16105753363
 Requested convergence on RMS density matrix=1.00D-08 within 512 cycles.
 Requested convergence on MAX density matrix=1.00D-06.
 Requested convergence on             energy=1.00D-06.
 No special actions if energy rises.
 Fock matrices will be formed incrementally for  20 cycles.

 Cycle   1  Pass 1  IDiag  1:
 FoFJK:  IHMeth= 1 ICntrl=       0 DoSepK=T KAlg= 0 I1Cent=           0 FoldK=F
 IRaf=         1 NMat=       1 IRICut=       1 DoRegI=T DoRafI=F ISym2E= 0 IDoP0=0 IntGTp=1.
 FoFCou: FMM=F IPFlag=           0 FMFlag=      100000 FMFlg1=           0
         NFxFlg=           0 DoJE=T BraDBF=F KetDBF=F FulRan=T
         wScrn=  0.000000 ICntrl=       500 IOpCl=  0 I1Cent=           0 NGrid=           0
         NMat0=    1 NMatS0=      1 NMatT0=    0 NMatD0=    1 NMtDS0=    0 NMtDT0=    0
 Symmetry not used in FoFCou.
 E= -463.148388670356    
 DIIS: error= 6.80D-02 at cycle   1 NSaved=   1.
 NSaved= 1 IEnMin= 1 EnMin= -463.148388670356     IErMin= 1 ErrMin= 6.80D-02
 ErrMax= 6.80D-02  0.00D+00 EMaxC= 1.00D-01 BMatC= 9.53D-01 BMatP= 9.53D-01
 IDIUse=3 WtCom= 3.20D-01 WtEn= 6.80D-01
 Coeff-Com:  0.100D+01
 Coeff-En:   0.100D+01
 Coeff:      0.100D+01
 Gap=     0.309 Goal=   None    Shift=    0.000
 GapD=    0.309 DampG=1.000 DampE=0.500 DampFc=0.5000 IDamp=-1.
 Damping current iteration by 5.00D-01
 RMSDP=1.71D-02 MaxDP=6.97D-01              OVMax= 4.62D-02

 Cycle   2  Pass 1  IDiag  1:
 RMSU=  4.13D-03    CP:  8.64D-01
 E= -463.197850308654     Delta-E=       -0.049461638298 Rises=F Damp=T
 DIIS: error= 3.26D-02 at cycle   2 NSaved=   2.
 NSaved= 2 IEnMin= 2 EnMin= -463.197850308654     IErMin= 2 ErrMin= 3.26D-02
 ErrMax= 3.26D-02  0.00D+00 EMaxC= 1.00D-01 BMatC= 2.16D-01 BMatP= 9.53D-01
 IDIUse=3 WtCom= 6.74D-01 WtEn= 3.26D-01
 Coeff-Com: -0.883D+00 0.188D+01
 Coeff-En:   0.000D+00 0.100D+01
 Coeff:     -0.595D+00 0.160D+01
 Gap=     0.316 Goal=   None    Shift=    0.000
 RMSDP=1.39D-02 MaxDP=7.55D-01 DE=-4.95D-02 OVMax= 3.82D-02

 Cycle   3  Pass 1  IDiag  1:
 RMSU=  3.21D-03    CP:  6.20D-01  1.42D+00
 E= -463.242428289375     Delta-E=       -0.044577980721 Rises=F Damp=F
 DIIS: error= 6.46D-03 at cycle   3 NSaved=   3.
 NSaved= 3 IEnMin= 3 EnMin= -463.242428289375     IErMin= 3 ErrMin= 6.46D-03
 ErrMax= 6.46D-03  0.00D+00 EMaxC= 1.00D-01 BMatC= 4.24D-03 BMatP= 2.16D-01
 IDIUse=3 WtCom= 9.35D-01 WtEn= 6.46D-02
 Coeff-Com: -0.358D+00 0.764D+00 0.595D+00
 Coeff-En:   0.000D+00 0.000D+00 0.100D+01
 Coeff:     -0.335D+00 0.714D+00 0.621D+00
 Gap=     0.315 Goal=   None    Shift=    0.000
 RMSDP=1.28D-03 MaxDP=5.06D-02 DE=-4.46D-02 OVMax= 2.11D-02

 Cycle   4  Pass 1  IDiag  1:
 RMSU=  6.68D-04    CP:  6.31D-01  1.53D+00  7.53D-01
 E= -463.246152964663     Delta-E=       -0.003724675289 Rises=F Damp=F
 DIIS: error= 2.06D-03 at cycle   4 NSaved=   4.
 NSaved= 4 IEnMin= 4 EnMin= -463.246152964663     IErMin= 4 ErrMin= 2.06D-03
 ErrMax= 2.06D-03  0.00D+00 EMaxC= 1.00D-01 BMatC= 3.00D-04 BMatP= 4.24D-03
 IDIUse=3 WtCom= 9.79D-01 WtEn= 2.06D-02
 Coeff-Com: -0.128D+00 0.273D+00 0.297D+00 0.557D+00
 Coeff-En:   0.000D+00 0.000D+00 0.000D+00 0.100D+01
 Coeff:     -0.125D+00 0.268D+00 0.291D+00 0.567D+00
 Gap=     0.314 Goal=   None    Shift=    0.000
 RMSDP=3.28D-04 MaxDP=7.43D-03 DE=-3.72D-03 OVMax= 5.92D-03

 Cycle   5  Pass 1  IDiag  1:
 RMSU=  1.90D-04    CP:  6.29D-01  1.57D+00  7.68D-01  7.34D-01
 E= -463.246469287223     Delta-E=       -0.000316322559 Rises=F Damp=F
 DIIS: error= 4.57D-04 at cycle   5 NSaved=   5.
 NSaved= 5 IEnMin= 5 EnMin= -463.246469287223     IErMin= 5 ErrMin= 4.57D-04
 ErrMax= 4.57D-04  0.00D+00 EMaxC= 1.00D-01 BMatC= 9.71D-06 BMatP= 3.00D-04
 IDIUse=3 WtCom= 9.95D-01 WtEn= 4.57D-03
 Coeff-Com:  0.279D-01-0.597D-01-0.337D-01 0.127D+00 0.939D+00
 Coeff-En:   0.000D+00 0.000D+00 0.000D+00 0.000D+00 0.100D+01
 Coeff:      0.278D-01-0.594D-01-0.336D-01 0.126D+00 0.939D+00
 Gap=     0.314 Goal=   None    Shift=    0.000
 RMSDP=1.05D-04 MaxDP=4.97D-03 DE=-3.16D-04 OVMax= 1.79D-03

 Cycle   6  Pass 1  IDiag  1:
 RMSU=  4.32D-05    CP:  6.28D-01  1.56D+00  7.78D-01  8.02D-01  1.06D+00
 E= -463.246482757451     Delta-E=       -0.000013470229 Rises=F Damp=F
 DIIS: error= 6.16D-05 at cycle   6 NSaved=   6.
 NSaved= 6 IEnMin= 6 EnMin= -463.246482757451     IErMin= 6 ErrMin= 6.16D-05
 ErrMax= 6.16D-05  0.00D+00 EMaxC= 1.00D-01 BMatC= 4.59D-07 BMatP= 9.71D-06
 IDIUse=1 WtCom= 1.00D+00 WtEn= 0.00D+00
 Coeff-Com:  0.118D-01-0.252D-01-0.167D-01 0.316D-01 0.319D+00 0.680D+00
 Coeff:      0.118D-01-0.252D-01-0.167D-01 0.316D-01 0.319D+00 0.680D+00
 Gap=     0.314 Goal=   None    Shift=    0.000
 RMSDP=1.49D-05 MaxDP=5.70D-04 DE=-1.35D-05 OVMax= 2.80D-04

 Cycle   7  Pass 1  IDiag  1:
 RMSU=  9.38D-06    CP:  6.28D-01  1.56D+00  7.79D-01  8.04D-01  1.09D+00
                    CP:  1.15D+00
 E= -463.246483326554     Delta-E=       -0.000000569103 Rises=F Damp=F
 DIIS: error= 2.77D-05 at cycle   7 NSaved=   7.
 NSaved= 7 IEnMin= 7 EnMin= -463.246483326554     IErMin= 7 ErrMin= 2.77D-05
 ErrMax= 2.77D-05  0.00D+00 EMaxC= 1.00D-01 BMatC= 5.90D-08 BMatP= 4.59D-07
 IDIUse=1 WtCom= 1.00D+00 WtEn= 0.00D+00
 Coeff-Com: -0.249D-02 0.534D-02 0.231D-02-0.194D-01-0.115D+00 0.185D+00
 Coeff-Com:  0.944D+00
 Coeff:     -0.249D-02 0.534D-02 0.231D-02-0.194D-01-0.115D+00 0.185D+00
 Coeff:      0.944D+00
 Gap=     0.314 Goal=   None    Shift=    0.000
 RMSDP=1.30D-05 MaxDP=7.51D-04 DE=-5.69D-07 OVMax= 2.14D-04

 Cycle   8  Pass 1  IDiag  1:
 RMSU=  2.93D-06    CP:  6.28D-01  1.56D+00  7.80D-01  8.04D-01  1.11D+00
                    CP:  1.30D+00  1.34D+00
 E= -463.246483439726     Delta-E=       -0.000000113172 Rises=F Damp=F
 DIIS: error= 4.86D-06 at cycle   8 NSaved=   8.
 NSaved= 8 IEnMin= 8 EnMin= -463.246483439726     IErMin= 8 ErrMin= 4.86D-06
 ErrMax= 4.86D-06  0.00D+00 EMaxC= 1.00D-01 BMatC= 1.14D-09 BMatP= 5.90D-08
 IDIUse=1 WtCom= 1.00D+00 WtEn= 0.00D+00
 Coeff-Com: -0.323D-03 0.688D-03 0.457D-03-0.985D-03-0.633D-02-0.168D-01
 Coeff-Com: -0.400D-01 0.106D+01
 Coeff:     -0.323D-03 0.688D-03 0.457D-03-0.985D-03-0.633D-02-0.168D-01
 Coeff:     -0.400D-01 0.106D+01
 Gap=     0.314 Goal=   None    Shift=    0.000
 RMSDP=2.06D-06 MaxDP=1.13D-04 DE=-1.13D-07 OVMax= 4.10D-05

 Cycle   9  Pass 1  IDiag  1:
 RMSU=  5.53D-07    CP:  6.28D-01  1.56D+00  7.80D-01  8.04D-01  1.10D+00
                    CP:  1.32D+00  1.43D+00  1.17D+00
 E= -463.246483443407     Delta-E=       -0.000000003680 Rises=F Damp=F
 DIIS: error= 2.43D-06 at cycle   9 NSaved=   9.
 NSaved= 9 IEnMin= 9 EnMin= -463.246483443407     IErMin= 9 ErrMin= 2.43D-06
 ErrMax= 2.43D-06  0.00D+00 EMaxC= 1.00D-01 BMatC= 3.16D-10 BMatP= 1.14D-09
 IDIUse=1 WtCom= 1.00D+00 WtEn= 0.00D+00
 Coeff-Com:  0.173D-03-0.374D-03-0.948D-04 0.200D-02 0.116D-01-0.265D-01
 Coeff-Com: -0.131D+00 0.398D+00 0.747D+00
 Coeff:      0.173D-03-0.374D-03-0.948D-04 0.200D-02 0.116D-01-0.265D-01
 Coeff:     -0.131D+00 0.398D+00 0.747D+00
 Gap=     0.314 Goal=   None    Shift=    0.000
 RMSDP=2.74D-07 MaxDP=7.39D-06 DE=-3.68D-09 OVMax= 1.59D-05

 Cycle  10  Pass 1  IDiag  1:
 RMSU=  1.20D-07    CP:  6.28D-01  1.56D+00  7.80D-01  8.03D-01  1.10D+00
                    CP:  1.32D+00  1.44D+00  1.20D+00  1.31D+00
 E= -463.246483443926     Delta-E=       -0.000000000520 Rises=F Damp=F
 DIIS: error= 3.69D-07 at cycle  10 NSaved=  10.
 NSaved=10 IEnMin=10 EnMin= -463.246483443926     IErMin=10 ErrMin= 3.69D-07
 ErrMax= 3.69D-07  0.00D+00 EMaxC= 1.00D-01 BMatC= 2.00D-11 BMatP= 3.16D-10
 IDIUse=1 WtCom= 1.00D+00 WtEn= 0.00D+00
 Coeff-Com:  0.537D-04-0.115D-03-0.438D-04 0.461D-03 0.239D-02-0.290D-02
 Coeff-Com: -0.212D-01-0.307D-01 0.170D+00 0.882D+00
 Coeff:      0.537D-04-0.115D-03-0.438D-04 0.461D-03 0.239D-02-0.290D-02
 Coeff:     -0.212D-01-0.307D-01 0.170D+00 0.882D+00
 Gap=     0.314 Goal=   None    Shift=    0.000
 RMSDP=1.30D-07 MaxDP=3.23D-06 DE=-5.20D-10 OVMax= 3.41D-06

 Cycle  11  Pass 1  IDiag  1:
 RMSU=  4.93D-08    CP:  6.28D-01  1.56D+00  7.80D-01  8.03D-01  1.10D+00
                    CP:  1.32D+00  1.44D+00  1.20D+00  1.40D+00  1.15D+00
 E= -463.246483443962     Delta-E=       -0.000000000036 Rises=F Damp=F
 DIIS: error= 1.08D-07 at cycle  11 NSaved=  11.
 NSaved=11 IEnMin=11 EnMin= -463.246483443962     IErMin=11 ErrMin= 1.08D-07
 ErrMax= 1.08D-07  0.00D+00 EMaxC= 1.00D-01 BMatC= 7.73D-13 BMatP= 2.00D-11
 IDIUse=1 WtCom= 1.00D+00 WtEn= 0.00D+00
 Coeff-Com: -0.133D-04 0.290D-04 0.110D-04-0.155D-03-0.932D-03 0.228D-02
 Coeff-Com:  0.942D-02-0.265D-01-0.338D-01-0.965D-01 0.115D+01
 Coeff:     -0.133D-04 0.290D-04 0.110D-04-0.155D-03-0.932D-03 0.228D-02
 Coeff:      0.942D-02-0.265D-01-0.338D-01-0.965D-01 0.115D+01
 Gap=     0.314 Goal=   None    Shift=    0.000
 RMSDP=7.62D-08 MaxDP=3.99D-06 DE=-3.57D-11 OVMax= 9.58D-07

 Cycle  12  Pass 1  IDiag  1:
 RMSU=  1.57D-08    CP:  6.28D-01  1.56D+00  7.80D-01  8.03D-01  1.10D+00
                    CP:  1.32D+00  1.44D+00  1.19D+00  1.43D+00  1.22D+00
                    CP:  1.19D+00
 E= -463.246483443969     Delta-E=       -0.000000000007 Rises=F Damp=F
 DIIS: error= 2.48D-08 at cycle  12 NSaved=  12.
 NSaved=12 IEnMin=12 EnMin= -463.246483443969     IErMin=12 ErrMin= 2.48D-08
 ErrMax= 2.48D-08  0.00D+00 EMaxC= 1.00D-01 BMatC= 7.79D-14 BMatP= 7.73D-13
 IDIUse=1 WtCom= 1.00D+00 WtEn= 0.00D+00
 Coeff-Com: -0.130D-05 0.275D-05 0.219D-05-0.622D-05-0.227D-04-0.117D-04
 Coeff-Com: -0.175D-03 0.417D-02 0.783D-03-0.605D-01-0.134D+00 0.119D+01
 Coeff:     -0.130D-05 0.275D-05 0.219D-05-0.622D-05-0.227D-04-0.117D-04
 Coeff:     -0.175D-03 0.417D-02 0.783D-03-0.605D-01-0.134D+00 0.119D+01
 Gap=     0.314 Goal=   None    Shift=    0.000
 RMSDP=1.07D-08 MaxDP=3.01D-07 DE=-7.28D-12 OVMax= 2.60D-07

 Cycle  13  Pass 1  IDiag  1:
 RMSU=  2.91D-09    CP:  6.28D-01  1.56D+00  7.80D-01  8.03D-01  1.10D+00
                    CP:  1.32D+00  1.43D+00  1.19D+00  1.43D+00  1.23D+00
                    CP:  1.27D+00  1.24D+00
 E= -463.246483443969     Delta-E=        0.000000000000 Rises=F Damp=F
 DIIS: error= 6.06D-09 at cycle  13 NSaved=  13.
 NSaved=13 IEnMin=12 EnMin= -463.246483443969     IErMin=13 ErrMin= 6.06D-09
 ErrMax= 6.06D-09  0.00D+00 EMaxC= 1.00D-01 BMatC= 4.29D-15 BMatP= 7.79D-14
 IDIUse=1 WtCom= 1.00D+00 WtEn= 0.00D+00
 Coeff-Com:  0.511D-06-0.113D-05-0.310D-06 0.697D-05 0.454D-04-0.108D-03
 Coeff-Com: -0.542D-03 0.187D-02 0.308D-02-0.493D-02-0.816D-01 0.163D+00
 Coeff-Com:  0.919D+00
 Coeff:      0.511D-06-0.113D-05-0.310D-06 0.697D-05 0.454D-04-0.108D-03
 Coeff:     -0.542D-03 0.187D-02 0.308D-02-0.493D-02-0.816D-01 0.163D+00
 Coeff:      0.919D+00
 Gap=     0.314 Goal=   None    Shift=    0.000
 RMSDP=3.69D-09 MaxDP=2.21D-07 DE= 4.55D-13 OVMax= 5.85D-08

 SCF Done:  E(RwB97XD) =  -463.246483444     A.U. after   13 cycles
            NFock= 13  Conv=0.37D-08     -V/T= 2.0048
 KE= 4.610285662381D+02 PE=-2.273426008627D+03 EE= 7.495411424390D+02
 Leave Link  502 at Sat Nov  5 21:34:58 2022, MaxMem= 16106127360 cpu:             741.9 elap:              23.2
 (Enter /opt/ap/G16/B01/g16/l601.exe)
 Copying SCF densities to generalized density rwf, IOpCl= 0 IROHF=0.

 **********************************************************************

            Population analysis using the SCF Density.

 **********************************************************************

 Orbital symmetries:
       Occupied  (A) (A) (A) (A) (A) (A) (A) (A) (A) (A) (A) (A)
                 (A) (A) (A) (A) (A) (A) (A) (A) (A) (A) (A) (A)
                 (A) (A) (A) (A) (A) (A) (A) (A) (A) (A) (A) (A)
                 (A) (A) (A) (A) (A)
       Virtual   (A) (A) (A) (A) (A) (A) (A) (A) (A) (A) (A) (A)
                 (A) (A) (A) (A) (A) (A) (A) (A) (A) (A) (A) (A)
                 (A) (A) (A) (A) (A) (A) (A) (A) (A) (A) (A) (A)
                 (A) (A) (A) (A) (A) (A) (A) (A) (A) (A) (A) (A)
                 (A) (A) (A) (A) (A) (A) (A) (A) (A) (A) (A) (A)
                 (A) (A) (A) (A) (A) (A) (A) (A) (A) (A) (A) (A)
                 (A) (A) (A) (A) (A) (A) (A) (A) (A) (A) (A) (A)
                 (A) (A) (A) (A) (A) (A) (A) (A) (A) (A) (A) (A)
                 (A) (A) (A) (A) (A) (A) (A) (A) (A) (A) (A) (A)
                 (A) (A) (A) (A) (A) (A) (A) (A) (A) (A) (A) (A)
                 (A) (A) (A) (A) (A) (A) (A) (A) (A) (A) (A) (A)
                 (A) (A) (A) (A) (A) (A) (A) (A) (A) (A) (A) (A)
                 (A) (A) (A) (A) (A) (A) (A) (A) (A) (A) (A) (A)
                 (A) (A) (A) (A) (A) (A) (A) (A) (A) (A) (A) (A)
                 (A) (A) (A) (A) (A) (A) (A) (A) (A) (A) (A) (A)
                 (A) (A) (A) (A) (A) (A) (A) (A) (A) (A) (A) (A)
                 (A) (A) (A) (A) (A) (A) (A) (A) (A) (A) (A) (A)
                 (A) (A) (A) (A) (A) (A) (A) (A) (A) (A) (A) (A)
                 (A) (A) (A) (A) (A) (A) (A) (A) (A) (A) (A) (A)
                 (A) (A) (A) (A) (A) (A) (A) (A) (A) (A) (A) (A)
                 (A) (A) (A) (A) (A) (A) (A) (A) (A) (A) (A) (A)
                 (A) (A) (A) (A) (A) (A) (A) (A) (A) (A) (A) (A)
                 (A) (A) (A) (A) (A) (A) (A) (A) (A) (A) (A) (A)
                 (A) (A) (A) (A) (A) (A) (A) (A) (A) (A) (A) (A)
                 (A)
 The electronic state is 1-A.
 Alpha  occ. eigenvalues --  -10.30612 -10.30583 -10.29441 -10.29441 -10.29433
 Alpha  occ. eigenvalues --  -10.29433 -10.29327 -10.29326 -10.29325 -10.29325
 Alpha  occ. eigenvalues --  -10.29270 -10.29270  -0.97727  -0.95364  -0.88339
 Alpha  occ. eigenvalues --   -0.85723  -0.84641  -0.82378  -0.72495  -0.72376
 Alpha  occ. eigenvalues --   -0.68495  -0.67537  -0.63280  -0.59035  -0.57041
 Alpha  occ. eigenvalues --   -0.55906  -0.52900  -0.52185  -0.52121  -0.51233
 Alpha  occ. eigenvalues --   -0.50112  -0.48093  -0.45134  -0.44930  -0.44436
 Alpha  occ. eigenvalues --   -0.42602  -0.41423  -0.36837  -0.33856  -0.33272
 Alpha  occ. eigenvalues --   -0.29822
 Alpha virt. eigenvalues --    0.01626   0.03835   0.03949   0.04599   0.04743
 Alpha virt. eigenvalues --    0.05882   0.05910   0.06238   0.07619   0.08004
 Alpha virt. eigenvalues --    0.08948   0.09198   0.09651   0.11378   0.11427
 Alpha virt. eigenvalues --    0.12684   0.13016   0.13675   0.15201   0.15413
 Alpha virt. eigenvalues --    0.15569   0.16064   0.16121   0.16777   0.17181
 Alpha virt. eigenvalues --    0.17294   0.17498   0.18130   0.18164   0.19028
 Alpha virt. eigenvalues --    0.19175   0.19198   0.19762   0.20029   0.20182
 Alpha virt. eigenvalues --    0.20927   0.20965   0.22646   0.23486   0.23677
 Alpha virt. eigenvalues --    0.24148   0.24563   0.24612   0.25024   0.25285
 Alpha virt. eigenvalues --    0.25335   0.25750   0.26709   0.27230   0.27690
 Alpha virt. eigenvalues --    0.27871   0.28577   0.29450   0.29619   0.29708
 Alpha virt. eigenvalues --    0.30442   0.31000   0.32801   0.33112   0.33286
 Alpha virt. eigenvalues --    0.34083   0.34733   0.35165   0.36309   0.36473
 Alpha virt. eigenvalues --    0.36734   0.37054   0.37367   0.38153   0.39393
 Alpha virt. eigenvalues --    0.40927   0.41122   0.41739   0.42464   0.42469
 Alpha virt. eigenvalues --    0.45045   0.48247   0.48774   0.49290   0.56675
 Alpha virt. eigenvalues --    0.58558   0.58815   0.60868   0.61046   0.61718
 Alpha virt. eigenvalues --    0.62591   0.62753   0.63396   0.63918   0.64111
 Alpha virt. eigenvalues --    0.64154   0.65664   0.65770   0.65845   0.66162
 Alpha virt. eigenvalues --    0.68617   0.68762   0.69299   0.69399   0.72299
 Alpha virt. eigenvalues --    0.72723   0.74260   0.74921   0.74985   0.75500
 Alpha virt. eigenvalues --    0.77485   0.78020   0.78456   0.78865   0.80378
 Alpha virt. eigenvalues --    0.82495   0.82591   0.84048   0.84512   0.85411
 Alpha virt. eigenvalues --    0.88175   0.89026   0.92506   0.92813   0.93409
 Alpha virt. eigenvalues --    0.93987   0.94231   0.94307   0.96373   0.96526
 Alpha virt. eigenvalues --    0.97794   0.98831   0.98940   0.99544   1.00233
 Alpha virt. eigenvalues --    1.00918   1.01289   1.03146   1.04323   1.08843
 Alpha virt. eigenvalues --    1.08975   1.09444   1.09479   1.10801   1.13310
 Alpha virt. eigenvalues --    1.14771   1.15907   1.17224   1.18580   1.20032
 Alpha virt. eigenvalues --    1.20338   1.23703   1.24322   1.24408   1.33610
 Alpha virt. eigenvalues --    1.38117   1.40429   1.40442   1.55202   1.56764
 Alpha virt. eigenvalues --    1.56884   1.57104   1.57441   1.60044   1.62427
 Alpha virt. eigenvalues --    1.62708   1.64612   1.65076   1.65457   1.65515
 Alpha virt. eigenvalues --    1.67037   1.67316   1.70476   1.71831   1.72544
 Alpha virt. eigenvalues --    1.75095   1.75884   1.77289   1.77934   1.80372
 Alpha virt. eigenvalues --    1.82483   1.84287   1.85845   1.86104   1.90303
 Alpha virt. eigenvalues --    1.90415   1.90559   1.91163   1.96195   1.96660
 Alpha virt. eigenvalues --    1.98839   1.99954   2.00555   2.03548   2.03993
 Alpha virt. eigenvalues --    2.04264   2.05010   2.05465   2.07206   2.07276
 Alpha virt. eigenvalues --    2.07623   2.11114   2.11983   2.12260   2.15081
 Alpha virt. eigenvalues --    2.16842   2.17565   2.19813   2.20332   2.34563
 Alpha virt. eigenvalues --    2.34876   2.36358   2.39571   2.46228   2.47081
 Alpha virt. eigenvalues --    2.50494   2.51743   2.51750   2.53112   2.56163
 Alpha virt. eigenvalues --    2.56418   2.57527   2.58149   2.67979   2.72855
 Alpha virt. eigenvalues --    2.73275   2.76401   2.76960   2.77784   2.79038
 Alpha virt. eigenvalues --    2.80708   2.80764   2.81007   2.81594   2.83176
 Alpha virt. eigenvalues --    2.83244   2.83519   2.83928   2.87134   2.87252
 Alpha virt. eigenvalues --    2.89469   2.91730   2.91925   2.92940   2.95268
 Alpha virt. eigenvalues --    2.95677   2.99238   2.99778   3.03758   3.04170
 Alpha virt. eigenvalues --    3.04533   3.07592   3.07834   3.18435   3.19488
 Alpha virt. eigenvalues --    3.20628   3.29513   3.31745   3.32436   3.44727
 Alpha virt. eigenvalues --    3.47343   3.47926   3.48261   3.58465   3.62351
 Alpha virt. eigenvalues --    3.62704   3.63980   3.67325   3.72461   3.76390
 Alpha virt. eigenvalues --    3.86503   4.08492   4.11954   4.13643   4.14351
 Alpha virt. eigenvalues --    4.23809   4.24381   4.27957   4.30531   4.64159
 Alpha virt. eigenvalues --    4.92071   4.96464  23.67890  23.84794  24.07429
 Alpha virt. eigenvalues --   24.08277  24.09063  24.09955  24.18847  24.19642
 Alpha virt. eigenvalues --   24.22141  24.22780  24.31230  24.31308
          Condensed to atoms (all electrons):
               1          2          3          4          5          6
     1  C    7.302275  -0.411043  -0.411948  -0.796283  -0.066865   1.457899
     2  C   -0.411043   9.921829  -3.575233   0.098826   0.482119  -0.555229
     3  C   -0.411948  -3.575233   9.921757   0.817010  -0.009039  -0.552363
     4  C   -0.796283   0.098826   0.817010   6.318198  -0.019961  -0.244362
     5  H   -0.066865   0.482119  -0.009039  -0.019961   0.558359  -0.022795
     6  C    1.457899  -0.555229  -0.552363  -0.244362  -0.022795   7.301533
     7  C   -0.797951   0.819981   0.096362  -0.222778   0.025933  -0.244429
     8  H   -0.066946  -0.009086   0.482272   0.025912   0.002665  -0.022740
     9  C    0.155885  -0.402963  -0.401549   0.374376   0.008164  -0.114372
    10  H    0.025626  -0.043144   0.014254   0.368906  -0.015807   0.008472
    11  C   -0.552350   3.142427  -2.939838  -0.162334   0.049073  -0.412215
    12  C   -0.555498  -2.941865   3.143907   0.024275  -0.044622  -0.410538
    13  H    0.025611   0.014311  -0.043152   0.000774  -0.000902   0.008468
    14  H    0.027304  -0.011844  -0.011742  -0.064804   0.000895   0.000026
    15  C   -0.244493  -0.163497   0.025267   0.037800  -0.045988  -0.796934
    16  H   -0.022757   0.049144  -0.044646  -0.045990   0.003733  -0.066882
    17  C   -0.244101   0.025185  -0.163663  -0.035988  -0.001812  -0.796871
    18  H   -0.022796  -0.044656   0.049072  -0.001824  -0.003977  -0.066932
    19  C   -0.114450   0.031775   0.031795  -0.000787  -0.002545   0.155862
    20  H    0.008475   0.000118   0.005482   0.002022   0.000999   0.025609
    21  H    0.008485   0.005471   0.000150   0.000208   0.000490   0.025651
    22  H    0.000023  -0.000306  -0.000317  -0.000037  -0.000387   0.027299
               7          8          9         10         11         12
     1  C   -0.797951  -0.066946   0.155885   0.025626  -0.552350  -0.555498
     2  C    0.819981  -0.009086  -0.402963  -0.043144   3.142427  -2.941865
     3  C    0.096362   0.482272  -0.401549   0.014254  -2.939838   3.143907
     4  C   -0.222778   0.025912   0.374376   0.368906  -0.162334   0.024275
     5  H    0.025933   0.002665   0.008164  -0.015807   0.049073  -0.044622
     6  C   -0.244429  -0.022740  -0.114372   0.008472  -0.412215  -0.410538
     7  C    6.320915  -0.019958   0.373733   0.000758   0.025408  -0.163787
     8  H   -0.019958   0.558439   0.008165  -0.000903  -0.044668   0.049143
     9  C    0.373733   0.008165   5.920597  -0.063897   0.031588   0.032123
    10  H    0.000758  -0.000903  -0.063897   0.481153   0.000156   0.005459
    11  C    0.025408  -0.044668   0.031588   0.000156   9.918760  -3.575275
    12  C   -0.163787   0.049143   0.032123   0.005459  -3.575275   9.925138
    13  H    0.368867  -0.015810  -0.063902   0.001552   0.005482   0.000119
    14  H   -0.064859   0.000897   0.465266  -0.010579  -0.000316  -0.000305
    15  C   -0.035863  -0.001815  -0.000912   0.002036   0.096869   0.819874
    16  H   -0.001815  -0.003979  -0.002535   0.001000   0.482218  -0.009103
    17  C    0.037755  -0.046063  -0.000793   0.000207   0.818901   0.095813
    18  H   -0.046047   0.003696  -0.002535   0.000490  -0.009034   0.482224
    19  C   -0.000939  -0.002537   0.013228  -0.000872  -0.402036  -0.402376
    20  H    0.000212   0.000490  -0.000873   0.000114  -0.043188   0.014335
    21  H    0.002040   0.001004  -0.000873   0.000020   0.014264  -0.043166
    22  H   -0.000040  -0.000387   0.000004   0.000006  -0.011742  -0.011841
              13         14         15         16         17         18
     1  C    0.025611   0.027304  -0.244493  -0.022757  -0.244101  -0.022796
     2  C    0.014311  -0.011844  -0.163497   0.049144   0.025185  -0.044656
     3  C   -0.043152  -0.011742   0.025267  -0.044646  -0.163663   0.049072
     4  C    0.000774  -0.064804   0.037800  -0.045990  -0.035988  -0.001824
     5  H   -0.000902   0.000895  -0.045988   0.003733  -0.001812  -0.003977
     6  C    0.008468   0.000026  -0.796934  -0.066882  -0.796871  -0.066932
     7  C    0.368867  -0.064859  -0.035863  -0.001815   0.037755  -0.046047
     8  H   -0.015810   0.000897  -0.001815  -0.003979  -0.046063   0.003696
     9  C   -0.063902   0.465266  -0.000912  -0.002535  -0.000793  -0.002535
    10  H    0.001552  -0.010579   0.002036   0.001000   0.000207   0.000490
    11  C    0.005482  -0.000316   0.096869   0.482218   0.818901  -0.009034
    12  C    0.000119  -0.000305   0.819874  -0.009103   0.095813   0.482224
    13  H    0.481151  -0.010580   0.000210   0.000490   0.002029   0.001001
    14  H   -0.010580   0.491057  -0.000039  -0.000387  -0.000038  -0.000387
    15  C    0.000210  -0.000039   6.319880  -0.020086  -0.223404   0.025964
    16  H    0.000490  -0.000387  -0.020086   0.558360   0.025925   0.002665
    17  C    0.002029  -0.000038  -0.223404   0.025925   6.320733  -0.019915
    18  H    0.001001  -0.000387   0.025964   0.002665  -0.019915   0.558440
    19  C   -0.000874   0.000004   0.373560   0.008180   0.374754   0.008156
    20  H    0.000020   0.000006   0.368985  -0.015806   0.000730  -0.000902
    21  H    0.000114   0.000006   0.000759  -0.000904   0.368828  -0.015818
    22  H    0.000006  -0.000004  -0.064883   0.000897  -0.064772   0.000896
              19         20         21         22
     1  C   -0.114450   0.008475   0.008485   0.000023
     2  C    0.031775   0.000118   0.005471  -0.000306
     3  C    0.031795   0.005482   0.000150  -0.000317
     4  C   -0.000787   0.002022   0.000208  -0.000037
     5  H   -0.002545   0.000999   0.000490  -0.000387
     6  C    0.155862   0.025609   0.025651   0.027299
     7  C   -0.000939   0.000212   0.002040  -0.000040
     8  H   -0.002537   0.000490   0.001004  -0.000387
     9  C    0.013228  -0.000873  -0.000873   0.000004
    10  H   -0.000872   0.000114   0.000020   0.000006
    11  C   -0.402036  -0.043188   0.014264  -0.011742
    12  C   -0.402376   0.014335  -0.043166  -0.011841
    13  H   -0.000874   0.000020   0.000114   0.000006
    14  H    0.000004   0.000006   0.000006  -0.000004
    15  C    0.373560   0.368985   0.000759  -0.064883
    16  H    0.008180  -0.015806  -0.000904   0.000897
    17  C    0.374754   0.000730   0.368828  -0.064772
    18  H    0.008156  -0.000902  -0.015818   0.000896
    19  C    5.920564  -0.063951  -0.063870   0.465266
    20  H   -0.063951   0.481161   0.001552  -0.010584
    21  H   -0.063870   0.001552   0.481159  -0.010575
    22  H    0.465266  -0.010584  -0.010575   0.491059
 Mulliken charges:
               1
     1  C    1.295899
     2  C   -0.432320
     3  C   -0.433839
     4  C   -0.473161
     5  H    0.102268
     6  C    1.295842
     7  C   -0.473498
     8  H    0.102212
     9  C   -0.327925
    10  H    0.224995
    11  C   -0.432149
    12  C   -0.434034
    13  H    0.225015
    14  H    0.190422
    15  C   -0.473290
    16  H    0.102277
    17  C   -0.473440
    18  H    0.102219
    19  C   -0.327907
    20  H    0.224995
    21  H    0.225004
    22  H    0.190418
 Sum of Mulliken charges =  -0.00000
 Mulliken charges with hydrogens summed into heavy atoms:
               1
     1  C    1.295899
     2  C   -0.330052
     3  C   -0.331628
     4  C   -0.248166
     6  C    1.295842
     7  C   -0.248483
     9  C   -0.137504
    11  C   -0.329872
    12  C   -0.331816
    15  C   -0.248296
    17  C   -0.248436
    19  C   -0.137489
 Electronic spatial extent (au):  <R**2>=           2311.9145
 Charge=             -0.0000 electrons
 Dipole moment (field-independent basis, Debye):
    X=             -0.0000    Y=              0.0000    Z=              0.0004  Tot=              0.0004
 Quadrupole moment (field-independent basis, Debye-Ang):
   XX=            -61.4363   YY=            -61.4763   ZZ=            -77.7033
   XY=              0.0001   XZ=              0.0006   YZ=              0.0001
 Traceless Quadrupole moment (field-independent basis, Debye-Ang):
   XX=              5.4356   YY=              5.3957   ZZ=            -10.8314
   XY=              0.0001   XZ=              0.0006   YZ=              0.0001
 Octapole moment (field-independent basis, Debye-Ang**2):
  XXX=             -0.0004  YYY=              0.0012  ZZZ=              0.0007  XYY=              0.0001
  XXY=              0.0002  XXZ=              0.0020  XZZ=             -0.0002  YZZ=              0.0001
  YYZ=              0.0033  XYZ=             -4.6193
 Hexadecapole moment (field-independent basis, Debye-Ang**3):
 XXXX=          -2296.9976 YYYY=           -530.4555 ZZZZ=           -102.4712 XXXY=             -0.0006
 XXXZ=              0.0198 YYYX=              0.0029 YYYZ=              0.0003 ZZZX=              0.0007
 ZZZY=              0.0001 XXYY=           -472.5044 XXZZ=           -503.1488 YYZZ=           -125.5948
 XXYZ=              0.0023 YYXZ=             -0.0017 ZZXY=             -0.0017
 N-N= 5.996098165059D+02 E-N=-2.273426008383D+03  KE= 4.610285662381D+02
 No NMR shielding tensors so no spin-rotation constants.
 Leave Link  601 at Sat Nov  5 21:34:58 2022, MaxMem= 16106127360 cpu:               4.4 elap:               0.2
 (Enter /opt/ap/G16/B01/g16/l9999.exe)
 1\1\GINC-N08\SP\RwB97XD\6-311++G(d,p)\C12H10\ROOT\05-Nov-2022\0\\#P wB
 97XD/6-311++G(d,p) scf=maxcycle=512\\_conf015.gjf nmol_natom 1_22\\0,1
 \C\C,1,1.40491871\C,1,1.40495292,2,118.20503621\C,2,1.3939373,1,120.91
 08946,3,0.05365643,0\H,2,1.08593095,1,119.3452094,3,-178.3624307,0\C,1
 ,1.48449301,2,120.90144423,4,-179.96388019,0\C,3,1.39389842,1,120.9105
 0598,2,0.03587687,0\H,3,1.08593608,1,119.34159615,2,-178.38281524,0\C,
 4,1.39606958,2,120.24555868,1,-0.09283196,0\H,4,1.08627898,2,119.66792
 041,1,-179.51486187,0\C,6,1.40492034,1,120.90156908,2,-15.,0\C,6,1.404
 95329,1,120.89324856,2,165.,0\H,7,1.08627928,3,119.67027175,1,-179.512
 58183,0\H,9,1.08597601,4,120.2602535,2,-179.95233103,0\C,11,1.39393437
 ,6,120.91099656,1,-179.95869964,0\H,11,1.08593173,6,119.34475907,1,1.6
 1891886,0\C,12,1.39390147,6,120.91022615,1,-179.94297913,0\H,12,1.0859
 3608,6,119.34175044,1,1.63241608,0\C,15,1.39607161,11,120.24535737,6,-
 0.10315482,0\H,15,1.08627786,11,119.66861247,6,-179.51844254,0\H,17,1.
 08627825,12,119.6702798,6,-179.51590091,0\H,19,1.08597601,15,120.25988
 597,11,-179.94731581,0\\Version=ES64L-G16RevB.01\State=1-A\HF=-463.246
 4834\RMSD=3.685e-09\Dipole=-0.0000012,-0.0001478,-0.0000151\Quadrupole
 =3.9789306,-7.8469931,3.8680625,0.8036089,0.1039093,-1.3399392\PG=C01 
 [X(C12H10)]\\@


 THERE ARE TWO THINGS THAT EVERYBODY THINKS THEY CAN DO BETTER THAN
 ANYONE ELSE - PUNCH THE FIRE, AND EDIT A DAILY PAPER.
 -- UNCLE ESEK, "CENTURY MAGAZINE", 1885
 Job cpu time:       0 days  0 hours 13 minutes  8.7 seconds.
 Elapsed time:       0 days  0 hours  0 minutes 24.8 seconds.
 File lengths (MBytes):  RWF=     62 Int=      0 D2E=      0 Chk=      8 Scr=      1
 Normal termination of Gaussian 16 at Sat Nov  5 21:34:58 2022.
