 Entering Gaussian System, Link 0=g16
 Input=_conf011.gjf
 Output=_conf011.log
 Initial command:
 /opt/ap/G16/B01/g16/l1.exe "/tmp2/scr/Gau-2335.inp" -scrdir="/tmp2/scr/"
 Entering Link 1 = /opt/ap/G16/B01/g16/l1.exe PID=      2336.
  
 Copyright (c) 1988-2017, Gaussian, Inc.  All Rights Reserved.
  
 This is part of the Gaussian(R) 16 program.  It is based on
 the Gaussian(R) 09 system (copyright 2009, Gaussian, Inc.),
 the Gaussian(R) 03 system (copyright 2003, Gaussian, Inc.),
 the Gaussian(R) 98 system (copyright 1998, Gaussian, Inc.),
 the Gaussian(R) 94 system (copyright 1995, Gaussian, Inc.),
 the Gaussian 92(TM) system (copyright 1992, Gaussian, Inc.),
 the Gaussian 90(TM) system (copyright 1990, Gaussian, Inc.),
 the Gaussian 88(TM) system (copyright 1988, Gaussian, Inc.),
 the Gaussian 86(TM) system (copyright 1986, Carnegie Mellon
 University), and the Gaussian 82(TM) system (copyright 1983,
 Carnegie Mellon University). Gaussian is a federally registered
 trademark of Gaussian, Inc.
  
 This software contains proprietary and confidential information,
 including trade secrets, belonging to Gaussian, Inc.
  
 This software is provided under written license and may be
 used, copied, transmitted, or stored only in accord with that
 written license.
  
 The following legend is applicable only to US Government
 contracts under FAR:
  
                    RESTRICTED RIGHTS LEGEND
  
 Use, reproduction and disclosure by the US Government is
 subject to restrictions as set forth in subparagraphs (a)
 and (c) of the Commercial Computer Software - Restricted
 Rights clause in FAR 52.227-19.
  
 Gaussian, Inc.
 340 Quinnipiac St., Bldg. 40, Wallingford CT 06492
  
  
 ---------------------------------------------------------------
 Warning -- This program may not be used in any manner that
 competes with the business of Gaussian, Inc. or will provide
 assistance to any competitor of Gaussian, Inc.  The licensee
 of this program is prohibited from giving any competitor of
 Gaussian, Inc. access to this program.  By using this program,
 the user acknowledges that Gaussian, Inc. is engaged in the
 business of creating and licensing software in the field of
 computational chemistry and represents and warrants to the
 licensee that it is not a competitor of Gaussian, Inc. and that
 it will not use this program in any manner prohibited above.
 ---------------------------------------------------------------
  

 Cite this work as:
 Gaussian 16, Revision B.01,
 M. J. Frisch, G. W. Trucks, H. B. Schlegel, G. E. Scuseria, 
 M. A. Robb, J. R. Cheeseman, G. Scalmani, V. Barone, 
 G. A. Petersson, H. Nakatsuji, X. Li, M. Caricato, A. V. Marenich, 
 J. Bloino, B. G. Janesko, R. Gomperts, B. Mennucci, H. P. Hratchian, 
 J. V. Ortiz, A. F. Izmaylov, J. L. Sonnenberg, D. Williams-Young, 
 F. Ding, F. Lipparini, F. Egidi, J. Goings, B. Peng, A. Petrone, 
 T. Henderson, D. Ranasinghe, V. G. Zakrzewski, J. Gao, N. Rega, 
 G. Zheng, W. Liang, M. Hada, M. Ehara, K. Toyota, R. Fukuda, 
 J. Hasegawa, M. Ishida, T. Nakajima, Y. Honda, O. Kitao, H. Nakai, 
 T. Vreven, K. Throssell, J. A. Montgomery, Jr., J. E. Peralta, 
 F. Ogliaro, M. J. Bearpark, J. J. Heyd, E. N. Brothers, K. N. Kudin, 
 V. N. Staroverov, T. A. Keith, R. Kobayashi, J. Normand, 
 K. Raghavachari, A. P. Rendell, J. C. Burant, S. S. Iyengar, 
 J. Tomasi, M. Cossi, J. M. Millam, M. Klene, C. Adamo, R. Cammi, 
 J. W. Ochterski, R. L. Martin, K. Morokuma, O. Farkas, 
 J. B. Foresman, and D. J. Fox, Gaussian, Inc., Wallingford CT, 2016.
 
 ******************************************
 Gaussian 16:  ES64L-G16RevB.01 20-Dec-2017
                 5-Nov-2022 
 ******************************************
 %nprocshared=32
 Will use up to   32 processors via shared memory.
 %mem=120GB
 %chk=_conf011.chk
 ----------------------------------------
 #P wB97XD/6-311++G(d,p) scf=maxcycle=512
 ----------------------------------------
 1/38=1,172=1/1;
 2/12=2,17=6,18=5,40=1/2;
 3/5=4,6=6,7=1111,11=2,25=1,30=1,74=-58/1,2,3;
 4//1;
 5/5=2,7=512,38=5/2;
 6/7=2,8=2,9=2,10=2,28=1/1;
 99/5=1,9=1/99;
 Leave Link    1 at Sat Nov  5 21:34:08 2022, MaxMem= 16106127360 cpu:               1.5 elap:               0.1
 (Enter /opt/ap/G16/B01/g16/l101.exe)
 ----------------------------
 _conf011.gjf nmol_natom 1_22
 ----------------------------
 Symbolic Z-matrix:
 Charge =  0 Multiplicity = 1
 C
 C                    1     1.40492 
 C                    1     1.40495  2     118.20504 
 C                    2     1.39394  1     120.91089  3     0.05366  0
 H                    2     1.08593  1     119.34521  3    -178.36243  0
 C                    1     1.48449  2     120.90144  4    -179.96388  0
 C                    3     1.3939   1     120.91051  2     0.03588  0
 H                    3     1.08594  1     119.3416  2    -178.38282  0
 C                    4     1.39607  2     120.24556  1    -0.09283  0
 H                    4     1.08628  2     119.66792  1    -179.51486  0
 C                    6     1.40492  1     120.90157  2    -35.      0
 C                    6     1.40495  1     120.89325  2     145.     0
 H                    7     1.08628  3     119.67027  1    -179.51258  0
 H                    9     1.08598  4     120.26025  2    -179.95233  0
 C                    11    1.39393  6     120.911  1    -179.9587  0
 H                    11    1.08593  6     119.34476  1     1.61892  0
 C                    12    1.3939   6     120.91023  1    -179.94298  0
 H                    12    1.08594  6     119.34175  1     1.63242  0
 C                    15    1.39607  11    120.24536  6    -0.10315  0
 H                    15    1.08628  11    119.66861  6    -179.51844  0
 H                    17    1.08628  12    119.67028  6    -179.5159  0
 H                    19    1.08598  15    120.25989  11   -179.94732  0
 
 ITRead=  0  0  0  0  0  0  0  0  0  0  0  0  0  0  0  0  0  0  0  0
 ITRead=  0  0
 MicOpt= -1 -1 -1 -1 -1 -1 -1 -1 -1 -1 -1 -1 -1 -1 -1 -1 -1 -1 -1 -1
 MicOpt= -1 -1
 NAtoms=     22 NQM=       22 NQMF=       0 NMMI=      0 NMMIF=      0
                NMic=       0 NMicF=      0.
                    Isotopes and Nuclear Properties:
 (Nuclear quadrupole moments (NQMom) in fm**2, nuclear magnetic moments (NMagM)
  in nuclear magnetons)

  Atom         1           2           3           4           5           6           7           8           9          10
 IAtWgt=          12          12          12          12           1          12          12           1          12           1
 AtmWgt=  12.0000000  12.0000000  12.0000000  12.0000000   1.0078250  12.0000000  12.0000000   1.0078250  12.0000000   1.0078250
 NucSpn=           0           0           0           0           1           0           0           1           0           1
 AtZEff=  -0.0000000  -0.0000000  -0.0000000  -0.0000000  -0.0000000  -0.0000000  -0.0000000  -0.0000000  -0.0000000  -0.0000000
 NQMom=    0.0000000   0.0000000   0.0000000   0.0000000   0.0000000   0.0000000   0.0000000   0.0000000   0.0000000   0.0000000
 NMagM=    0.0000000   0.0000000   0.0000000   0.0000000   2.7928460   0.0000000   0.0000000   2.7928460   0.0000000   2.7928460
 AtZNuc=   6.0000000   6.0000000   6.0000000   6.0000000   1.0000000   6.0000000   6.0000000   1.0000000   6.0000000   1.0000000

  Atom        11          12          13          14          15          16          17          18          19          20
 IAtWgt=          12          12           1           1          12           1          12           1          12           1
 AtmWgt=  12.0000000  12.0000000   1.0078250   1.0078250  12.0000000   1.0078250  12.0000000   1.0078250  12.0000000   1.0078250
 NucSpn=           0           0           1           1           0           1           0           1           0           1
 AtZEff=  -0.0000000  -0.0000000  -0.0000000  -0.0000000  -0.0000000  -0.0000000  -0.0000000  -0.0000000  -0.0000000  -0.0000000
 NQMom=    0.0000000   0.0000000   0.0000000   0.0000000   0.0000000   0.0000000   0.0000000   0.0000000   0.0000000   0.0000000
 NMagM=    0.0000000   0.0000000   2.7928460   2.7928460   0.0000000   2.7928460   0.0000000   2.7928460   0.0000000   2.7928460
 AtZNuc=   6.0000000   6.0000000   1.0000000   1.0000000   6.0000000   1.0000000   6.0000000   1.0000000   6.0000000   1.0000000

  Atom        21          22
 IAtWgt=           1           1
 AtmWgt=   1.0078250   1.0078250
 NucSpn=           1           1
 AtZEff=  -0.0000000  -0.0000000
 NQMom=    0.0000000   0.0000000
 NMagM=    2.7928460   2.7928460
 AtZNuc=   1.0000000   1.0000000
 Leave Link  101 at Sat Nov  5 21:34:08 2022, MaxMem= 16106127360 cpu:               5.3 elap:               0.2
 (Enter /opt/ap/G16/B01/g16/l202.exe)
                          Input orientation:                          
 ---------------------------------------------------------------------
 Center     Atomic      Atomic             Coordinates (Angstroms)
 Number     Number       Type             X           Y           Z
 ---------------------------------------------------------------------
      1          6           0        0.000000    0.000000    0.000000
      2          6           0        0.000000    0.000000    1.404919
      3          6           0        1.238131    0.000000   -0.664020
      4          6           0        1.195952    0.001120    2.120990
      5          1           0       -0.946201   -0.027051    1.937101
      6          6           0       -1.273772   -0.000390   -0.762381
      7          6           0        2.434381   -0.000749    0.051479
      8          1           0        1.259850    0.026715   -1.749411
      9          6           0        2.418826    0.000311    1.447501
     10          1           0        1.172413   -0.006894    3.206985
     11          6           0       -2.399794   -0.692177   -0.285614
     12          6           0       -1.385757    0.691095   -1.980248
     13          1           0        3.380326    0.007295   -0.482493
     14          1           0        3.350700    0.000403    2.005133
     15          6           0       -3.595704   -0.693381   -1.001750
     16          1           0       -2.341900   -1.210892    0.666662
     17          6           0       -2.581974    0.691941   -2.695809
     18          1           0       -0.519190    1.209849   -2.379263
     19          6           0       -3.692543   -0.000669   -2.209967
     20          1           0       -4.456213   -1.228544   -0.610438
     21          1           0       -2.643819    1.226812   -3.639254
     22          1           0       -4.624383   -0.000742   -2.767657
 ---------------------------------------------------------------------
                    Distance matrix (angstroms):
                    1          2          3          4          5
     1  C    0.000000
     2  C    1.404919   0.000000
     3  C    1.404953   2.411116   0.000000
     4  C    2.434934   1.393937   2.785330   0.000000
     5  H    2.156012   1.085931   3.396745   2.150216   0.000000
     6  C    1.484493   2.513898   2.513829   3.796494   2.719415
     7  C    2.434925   2.785320   1.393898   2.411760   3.870994
     8  H    2.156008   3.396723   1.085936   3.871013   4.296501
     9  C    2.818861   2.419201   2.419207   1.396070   3.400568
    10  H    3.414579   2.149893   3.871569   1.086279   2.470128
    11  C    2.513901   3.015961   3.722473   4.381985   2.737844
    12  C    2.513826   3.722538   3.015769   4.895043   4.006816
    13  H    3.414594   3.871560   2.149884   3.398478   4.957262
    14  H    3.904837   3.404035   3.404016   2.157861   4.297527
    15  C    3.796494   4.382000   4.894978   5.761407   4.012569
    16  H    2.719411   2.737842   4.006695   4.012536   2.227885
    17  C    3.796414   4.895032   4.381798   6.160480   4.965537
    18  H    2.719225   4.006660   2.737512   4.965382   4.510350
    19  C    4.303351   5.167424   5.167350   6.531047   4.974059
    20  H    4.662595   5.042699   5.825612   6.396854   4.500414
    21  H    4.662511   5.825678   5.042481   7.030403   5.962366
    22  H    5.389327   6.228588   6.228512   7.600999   5.971974
                    6          7          8          9         10
     6  C    0.000000
     7  C    3.796415   0.000000
     8  H    2.719228   2.150228   0.000000
     9  C    4.303354   1.396108   3.400612   0.000000
    10  H    4.662588   3.398502   4.957280   2.156243   0.000000
    11  C    1.404920   4.894993   4.006557   5.167429   5.042670
    12  C    1.404953   4.381783   2.737503   5.167349   5.825703
    13  H    4.662512   1.086279   2.470197   2.156248   4.299689
    14  H    5.389330   2.157871   4.297551   1.085976   2.487858
    15  C    2.434934   6.160435   4.965273   6.531050   6.396847
    16  H    2.156010   4.965457   4.510176   4.974057   4.500361
    17  C    2.434925   5.761183   4.012207   6.530954   7.030417
    18  H    2.156010   4.012186   2.227443   4.973836   5.962227
    19  C    2.818858   6.530952   4.973837   7.122212   7.280879
    20  H    3.414583   7.030355   5.962072   7.280890   6.909890
    21  H    3.414594   6.396603   4.500041   7.280779   7.934522
    22  H    3.904834   7.600900   5.971748   8.208188   8.324616
                   11         12         13         14         15
    11  C    0.000000
    12  C    2.411119   0.000000
    13  H    5.825616   5.042460   0.000000
    14  H    6.228594   6.228511   2.487812   0.000000
    15  C    1.393934   2.785336   7.030332   7.601001   0.000000
    16  H    1.085932   3.396748   5.962249   5.971972   2.150219
    17  C    2.785320   1.393901   6.396602   7.600902   2.411763
    18  H    3.396725   1.085936   4.500011   5.971746   3.871016
    19  C    2.419198   2.419208   7.280776   8.208188   1.396072
    20  H    2.149897   3.871575   7.934419   8.324627   1.086278
    21  H    3.871558   2.149886   6.909607   8.324508   3.398478
    22  H    3.404029   3.404019   8.324506   9.294164   2.157859
                   16         17         18         19         20
    16  H    0.000000
    17  C    3.870997   0.000000
    18  H    4.296501   2.150234   0.000000
    19  C    3.400569   1.396107   3.400615   0.000000
    20  H    2.470145   3.398500   4.957282   2.156238   0.000000
    21  H    4.957264   1.086278   2.470204   2.156245   4.299683
    22  H    4.297527   2.157871   4.297556   1.085976   2.487844
                   21         22
    21  H    0.000000
    22  H    2.487812   0.000000
 Stoichiometry    C12H10
 Framework group  C1[X(C12H10)]
 Deg. of freedom    60
 Full point group                 C1      NOp   1
 Largest Abelian subgroup         C1      NOp   1
 Largest concise Abelian subgroup C1      NOp   1
                         Standard orientation:                         
 ---------------------------------------------------------------------
 Center     Atomic      Atomic             Coordinates (Angstroms)
 Number     Number       Type             X           Y           Z
 ---------------------------------------------------------------------
      1          6           0       -0.742246   -0.000036   -0.000152
      2          6           0       -1.463732   -1.149750   -0.362662
      3          6           0       -1.463639    1.149701    0.362600
      4          6           0       -2.857669   -1.149728   -0.363603
      5          1           0       -0.925126   -2.056770   -0.620466
      6          6           0        0.742247   -0.000052    0.000010
      7          6           0       -2.857537    1.149774    0.363635
      8          1           0       -0.924884    2.056600    0.620542
      9          6           0       -3.561107    0.000044    0.000005
     10          1           0       -3.395175   -2.052388   -0.639818
     11          6           0        1.463713   -1.149737    0.362656
     12          6           0        1.463658    1.149745   -0.362517
     13          1           0       -3.395001    2.052417    0.639988
     14          1           0       -4.647083    0.000091    0.000100
     15          6           0        2.857647   -1.149711    0.363700
     16          1           0        0.925082   -2.056709    0.620583
     17          6           0        2.857559    1.149767   -0.363624
     18          1           0        0.924919    2.056695   -0.620317
     19          6           0        3.561105   -0.000025   -0.000147
     20          1           0        3.395146   -2.052325    0.640073
     21          1           0        3.395042    2.052436   -0.639849
     22          1           0        4.647081   -0.000003   -0.000239
 ---------------------------------------------------------------------
 Rotational constants (GHZ):           2.8585222           0.5483228           0.4737532
 Leave Link  202 at Sat Nov  5 21:34:08 2022, MaxMem= 16106127360 cpu:               0.2 elap:               0.0
 (Enter /opt/ap/G16/B01/g16/l301.exe)
 Standard basis: 6-311++G(d,p) (5D, 7F)
 Ernie: Thresh=  0.10000D-02 Tol=  0.10000D-05 Strict=F.
 There are   346 symmetry adapted cartesian basis functions of A   symmetry.
 There are   334 symmetry adapted basis functions of A   symmetry.
   334 basis functions,   522 primitive gaussians,   346 cartesian basis functions
    41 alpha electrons       41 beta electrons
       nuclear repulsion energy       599.0860174389 Hartrees.
 IExCor= 4639 DFT=T Ex+Corr=wB97XD ExCW=0 ScaHFX=  1.000000
 ScaDFX=  1.000000  1.000000  1.000000  1.000000 ScalE2=  1.000000  1.000000
 IRadAn=      5 IRanWt=     -1 IRanGd=            0 ICorTp=0 IEmpDi=121
 HFx  wShort=  0.000000 wLong=  0.200000 cFull=  0.222036 cShort=  0.000000 cLong=  0.777964
 DFx  wShort=  0.000000 wLong=  0.200000 cFull=  0.000000 cShort=  0.000000 cLong=  1.000000
 NAtoms=   22 NActive=   22 NUniq=   22 SFac= 1.00D+00 NAtFMM=   60 NAOKFM=F Big=F
 Integral buffers will be    131072 words long.
 Raffenetti 2 integral format.
 Two-electron integral symmetry is turned on.
 R6Disp:  Grimme-D2 Dispersion energy=       -0.0120671859 Hartrees.
 Nuclear repulsion after empirical dispersion term =      599.0739502531 Hartrees.
 Leave Link  301 at Sat Nov  5 21:34:08 2022, MaxMem= 16106127360 cpu:               1.2 elap:               0.0
 (Enter /opt/ap/G16/B01/g16/l302.exe)
 NPDir=0 NMtPBC=     1 NCelOv=     1 NCel=       1 NClECP=     1 NCelD=      1
         NCelK=      1 NCelE2=     1 NClLst=     1 CellRange=     0.0.
 One-electron integrals computed using PRISM.
 One-electron integral symmetry used in STVInt
 NBasis=   334 RedAO= T EigKep=  1.40D-06  NBF=   334
 NBsUse=   332 1.00D-06 EigRej=  7.06D-07 NBFU=   332
 Precomputing XC quadrature grid using
 IXCGrd= 4 IRadAn=           5 IRanWt=          -1 IRanGd=           0 AccXCQ= 0.00D+00.
 Generated NRdTot=       0 NPtTot=           0 NUsed=           0 NTot=          32
 NSgBfM=   346   346   346   346   346 MxSgAt=    22 MxSgA2=    22.
 Leave Link  302 at Sat Nov  5 21:34:08 2022, MaxMem= 16106127360 cpu:               7.7 elap:               0.2
 (Enter /opt/ap/G16/B01/g16/l303.exe)
 DipDrv:  MaxL=1.
 Leave Link  303 at Sat Nov  5 21:34:08 2022, MaxMem= 16106127360 cpu:               1.6 elap:               0.1
 (Enter /opt/ap/G16/B01/g16/l401.exe)
 ExpMin= 3.60D-02 ExpMax= 4.56D+03 ExpMxC= 6.82D+02 IAcc=3 IRadAn=         5 AccDes= 0.00D+00
 Harris functional with IExCor= 4639 and IRadAn=       5 diagonalized for initial guess.
 HarFok:  IExCor= 4639 AccDes= 0.00D+00 IRadAn=         5 IDoV= 1 UseB2=F ITyADJ=14
 ICtDFT=  3500011 ScaDFX=  1.000000  1.000000  1.000000  1.000000
 FoFCou: FMM=F IPFlag=           0 FMFlag=      100000 FMFlg1=           0
         NFxFlg=           0 DoJE=T BraDBF=F KetDBF=T FulRan=T
         wScrn=  0.000000 ICntrl=       500 IOpCl=  0 I1Cent=   200000004 NGrid=           0
         NMat0=    1 NMatS0=      1 NMatT0=    0 NMatD0=    1 NMtDS0=    0 NMtDT0=    0
 Petite list used in FoFCou.
 Harris En= -441.938065019374    
 JPrj=0 DoOrth=F DoCkMO=F.
 Leave Link  401 at Sat Nov  5 21:34:09 2022, MaxMem= 16106127360 cpu:              19.8 elap:               0.6
 (Enter /opt/ap/G16/B01/g16/l502.exe)
 Integral symmetry usage will be decided dynamically.
 Closed shell SCF:
 Using DIIS extrapolation, IDIIS=  1040.
 NGot= 16106127360 LenX= 16105873520 LenY= 16105753363
 Requested convergence on RMS density matrix=1.00D-08 within 512 cycles.
 Requested convergence on MAX density matrix=1.00D-06.
 Requested convergence on             energy=1.00D-06.
 No special actions if energy rises.
 Fock matrices will be formed incrementally for  20 cycles.

 Cycle   1  Pass 1  IDiag  1:
 FoFJK:  IHMeth= 1 ICntrl=       0 DoSepK=T KAlg= 0 I1Cent=           0 FoldK=F
 IRaf=         1 NMat=       1 IRICut=       1 DoRegI=T DoRafI=F ISym2E= 0 IDoP0=0 IntGTp=1.
 FoFCou: FMM=F IPFlag=           0 FMFlag=      100000 FMFlg1=           0
         NFxFlg=           0 DoJE=T BraDBF=F KetDBF=F FulRan=T
         wScrn=  0.000000 ICntrl=       500 IOpCl=  0 I1Cent=           0 NGrid=           0
         NMat0=    1 NMatS0=      1 NMatT0=    0 NMatD0=    1 NMtDS0=    0 NMtDT0=    0
 Symmetry not used in FoFCou.
 E= -463.152208886314    
 DIIS: error= 6.75D-02 at cycle   1 NSaved=   1.
 NSaved= 1 IEnMin= 1 EnMin= -463.152208886314     IErMin= 1 ErrMin= 6.75D-02
 ErrMax= 6.75D-02  0.00D+00 EMaxC= 1.00D-01 BMatC= 9.52D-01 BMatP= 9.52D-01
 IDIUse=3 WtCom= 3.25D-01 WtEn= 6.75D-01
 Coeff-Com:  0.100D+01
 Coeff-En:   0.100D+01
 Coeff:      0.100D+01
 Gap=     0.320 Goal=   None    Shift=    0.000
 GapD=    0.320 DampG=1.000 DampE=0.500 DampFc=0.5000 IDamp=-1.
 Damping current iteration by 5.00D-01
 RMSDP=7.02D-02 MaxDP=4.48D+00              OVMax= 4.48D-02

 Cycle   2  Pass 1  IDiag  1:
 RMSU=  7.67D-03    CP:  7.64D-01
 E= -463.201379587876     Delta-E=       -0.049170701561 Rises=F Damp=T
 DIIS: error= 3.23D-02 at cycle   2 NSaved=   2.
 NSaved= 2 IEnMin= 2 EnMin= -463.201379587876     IErMin= 2 ErrMin= 3.23D-02
 ErrMax= 3.23D-02  0.00D+00 EMaxC= 1.00D-01 BMatC= 2.16D-01 BMatP= 9.52D-01
 IDIUse=3 WtCom= 6.77D-01 WtEn= 3.23D-01
 Coeff-Com: -0.883D+00 0.188D+01
 Coeff-En:   0.000D+00 0.100D+01
 Coeff:     -0.598D+00 0.160D+01
 Gap=     0.327 Goal=   None    Shift=    0.000
 RMSDP=3.39D-02 MaxDP=2.17D+00 DE=-4.92D-02 OVMax= 3.78D-02

 Cycle   3  Pass 1  IDiag  1:
 RMSU=  3.89D-03    CP:  5.32D-01  1.09D+00
 E= -463.245586809563     Delta-E=       -0.044207221688 Rises=F Damp=F
 DIIS: error= 5.63D-03 at cycle   3 NSaved=   3.
 NSaved= 3 IEnMin= 3 EnMin= -463.245586809563     IErMin= 3 ErrMin= 5.63D-03
 ErrMax= 5.63D-03  0.00D+00 EMaxC= 1.00D-01 BMatC= 4.34D-03 BMatP= 2.16D-01
 IDIUse=3 WtCom= 9.44D-01 WtEn= 5.63D-02
 Coeff-Com: -0.362D+00 0.772D+00 0.591D+00
 Coeff-En:   0.000D+00 0.000D+00 0.100D+01
 Coeff:     -0.342D+00 0.728D+00 0.614D+00
 Gap=     0.325 Goal=   None    Shift=    0.000
 RMSDP=4.21D-03 MaxDP=2.77D-01 DE=-4.42D-02 OVMax= 2.12D-02

 Cycle   4  Pass 1  IDiag  1:
 RMSU=  1.13D-03    CP:  5.09D-01  1.36D+00  6.97D-01
 E= -463.249429611785     Delta-E=       -0.003842802221 Rises=F Damp=F
 DIIS: error= 1.89D-03 at cycle   4 NSaved=   4.
 NSaved= 4 IEnMin= 4 EnMin= -463.249429611785     IErMin= 4 ErrMin= 1.89D-03
 ErrMax= 1.89D-03  0.00D+00 EMaxC= 1.00D-01 BMatC= 2.88D-04 BMatP= 4.34D-03
 IDIUse=3 WtCom= 9.81D-01 WtEn= 1.89D-02
 Coeff-Com: -0.129D+00 0.276D+00 0.292D+00 0.561D+00
 Coeff-En:   0.000D+00 0.000D+00 0.000D+00 0.100D+01
 Coeff:     -0.126D+00 0.271D+00 0.286D+00 0.570D+00
 Gap=     0.325 Goal=   None    Shift=    0.000
 RMSDP=1.12D-03 MaxDP=6.79D-02 DE=-3.84D-03 OVMax= 5.68D-03

 Cycle   5  Pass 1  IDiag  1:
 RMSU=  3.96D-04    CP:  5.03D-01  1.35D+00  7.56D-01  5.14D-01
 E= -463.249733628456     Delta-E=       -0.000304016671 Rises=F Damp=F
 DIIS: error= 3.76D-04 at cycle   5 NSaved=   5.
 NSaved= 5 IEnMin= 5 EnMin= -463.249733628456     IErMin= 5 ErrMin= 3.76D-04
 ErrMax= 3.76D-04  0.00D+00 EMaxC= 1.00D-01 BMatC= 9.15D-06 BMatP= 2.88D-04
 IDIUse=3 WtCom= 9.96D-01 WtEn= 3.76D-03
 Coeff-Com:  0.277D-01-0.591D-01-0.325D-01 0.124D+00 0.940D+00
 Coeff-En:   0.000D+00 0.000D+00 0.000D+00 0.000D+00 0.100D+01
 Coeff:      0.276D-01-0.589D-01-0.324D-01 0.124D+00 0.940D+00
 Gap=     0.325 Goal=   None    Shift=    0.000
 RMSDP=2.75D-04 MaxDP=1.87D-02 DE=-3.04D-04 OVMax= 1.69D-03

 Cycle   6  Pass 1  IDiag  1:
 RMSU=  6.45D-05    CP:  5.02D-01  1.33D+00  7.80D-01  5.30D-01  1.27D+00
 E= -463.249746221410     Delta-E=       -0.000012592954 Rises=F Damp=F
 DIIS: error= 5.91D-05 at cycle   6 NSaved=   6.
 NSaved= 6 IEnMin= 6 EnMin= -463.249746221410     IErMin= 6 ErrMin= 5.91D-05
 ErrMax= 5.91D-05  0.00D+00 EMaxC= 1.00D-01 BMatC= 4.75D-07 BMatP= 9.15D-06
 IDIUse=1 WtCom= 1.00D+00 WtEn= 0.00D+00
 Coeff-Com:  0.120D-01-0.257D-01-0.165D-01 0.312D-01 0.326D+00 0.673D+00
 Coeff:      0.120D-01-0.257D-01-0.165D-01 0.312D-01 0.326D+00 0.673D+00
 Gap=     0.325 Goal=   None    Shift=    0.000
 RMSDP=6.78D-05 MaxDP=4.31D-03 DE=-1.26D-05 OVMax= 2.75D-04

 Cycle   7  Pass 1  IDiag  1:
 RMSU=  1.38D-05    CP:  5.03D-01  1.32D+00  7.85D-01  5.14D-01  1.35D+00
                    CP:  1.23D+00
 E= -463.249746794187     Delta-E=       -0.000000572777 Rises=F Damp=F
 DIIS: error= 2.05D-05 at cycle   7 NSaved=   7.
 NSaved= 7 IEnMin= 7 EnMin= -463.249746794187     IErMin= 7 ErrMin= 2.05D-05
 ErrMax= 2.05D-05  0.00D+00 EMaxC= 1.00D-01 BMatC= 5.68D-08 BMatP= 4.75D-07
 IDIUse=1 WtCom= 1.00D+00 WtEn= 0.00D+00
 Coeff-Com: -0.237D-02 0.509D-02 0.224D-02-0.188D-01-0.111D+00 0.175D+00
 Coeff-Com:  0.950D+00
 Coeff:     -0.237D-02 0.509D-02 0.224D-02-0.188D-01-0.111D+00 0.175D+00
 Coeff:      0.950D+00
 Gap=     0.325 Goal=   None    Shift=    0.000
 RMSDP=4.44D-05 MaxDP=2.84D-03 DE=-5.73D-07 OVMax= 2.08D-04

 Cycle   8  Pass 1  IDiag  1:
 RMSU=  4.35D-06    CP:  5.03D-01  1.32D+00  7.88D-01  5.00D-01  1.41D+00
                    CP:  1.43D+00  1.29D+00
 E= -463.249746900890     Delta-E=       -0.000000106703 Rises=F Damp=F
 DIIS: error= 3.88D-06 at cycle   8 NSaved=   8.
 NSaved= 8 IEnMin= 8 EnMin= -463.249746900890     IErMin= 8 ErrMin= 3.88D-06
 ErrMax= 3.88D-06  0.00D+00 EMaxC= 1.00D-01 BMatC= 1.29D-09 BMatP= 5.68D-08
 IDIUse=1 WtCom= 1.00D+00 WtEn= 0.00D+00
 Coeff-Com: -0.374D-03 0.800D-03 0.536D-03-0.144D-02-0.867D-02-0.130D-01
 Coeff-Com: -0.264D-01 0.105D+01
 Coeff:     -0.374D-03 0.800D-03 0.536D-03-0.144D-02-0.867D-02-0.130D-01
 Coeff:     -0.264D-01 0.105D+01
 Gap=     0.325 Goal=   None    Shift=    0.000
 RMSDP=1.12D-05 MaxDP=7.96D-04 DE=-1.07D-07 OVMax= 4.24D-05

 Cycle   9  Pass 1  IDiag  1:
 RMSU=  1.00D-06    CP:  5.03D-01  1.32D+00  7.89D-01  4.97D-01  1.41D+00
                    CP:  1.47D+00  1.41D+00  1.29D+00
 E= -463.249746904835     Delta-E=       -0.000000003946 Rises=F Damp=F
 DIIS: error= 2.03D-06 at cycle   9 NSaved=   9.
 NSaved= 9 IEnMin= 9 EnMin= -463.249746904835     IErMin= 9 ErrMin= 2.03D-06
 ErrMax= 2.03D-06  0.00D+00 EMaxC= 1.00D-01 BMatC= 3.19D-10 BMatP= 1.29D-09
 IDIUse=1 WtCom= 1.00D+00 WtEn= 0.00D+00
 Coeff-Com:  0.166D-03-0.359D-03-0.795D-04 0.191D-02 0.114D-01-0.245D-01
 Coeff-Com: -0.136D+00 0.375D+00 0.772D+00
 Coeff:      0.166D-03-0.359D-03-0.795D-04 0.191D-02 0.114D-01-0.245D-01
 Coeff:     -0.136D+00 0.375D+00 0.772D+00
 Gap=     0.325 Goal=   None    Shift=    0.000
 RMSDP=2.36D-06 MaxDP=1.51D-04 DE=-3.95D-09 OVMax= 1.77D-05

 Cycle  10  Pass 1  IDiag  1:
 RMSU=  2.16D-07    CP:  5.03D-01  1.32D+00  7.89D-01  4.96D-01  1.41D+00
                    CP:  1.47D+00  1.44D+00  1.39D+00  1.36D+00
 E= -463.249746905408     Delta-E=       -0.000000000573 Rises=F Damp=F
 DIIS: error= 3.47D-07 at cycle  10 NSaved=  10.
 NSaved=10 IEnMin=10 EnMin= -463.249746905408     IErMin=10 ErrMin= 3.47D-07
 ErrMax= 3.47D-07  0.00D+00 EMaxC= 1.00D-01 BMatC= 2.62D-11 BMatP= 3.19D-10
 IDIUse=1 WtCom= 1.00D+00 WtEn= 0.00D+00
 Coeff-Com:  0.611D-04-0.131D-03-0.514D-04 0.511D-03 0.271D-02-0.278D-02
 Coeff-Com: -0.249D-01-0.392D-01 0.190D+00 0.873D+00
 Coeff:      0.611D-04-0.131D-03-0.514D-04 0.511D-03 0.271D-02-0.278D-02
 Coeff:     -0.249D-01-0.392D-01 0.190D+00 0.873D+00
 Gap=     0.325 Goal=   None    Shift=    0.000
 RMSDP=2.97D-07 MaxDP=1.67D-05 DE=-5.73D-10 OVMax= 4.01D-06

 Cycle  11  Pass 1  IDiag  1:
 RMSU=  8.81D-08    CP:  5.03D-01  1.32D+00  7.89D-01  4.96D-01  1.41D+00
                    CP:  1.47D+00  1.44D+00  1.40D+00  1.50D+00  1.15D+00
 E= -463.249746905467     Delta-E=       -0.000000000059 Rises=F Damp=F
 DIIS: error= 1.18D-07 at cycle  11 NSaved=  11.
 NSaved=11 IEnMin=11 EnMin= -463.249746905467     IErMin=11 ErrMin= 1.18D-07
 ErrMax= 1.18D-07  0.00D+00 EMaxC= 1.00D-01 BMatC= 1.06D-12 BMatP= 2.62D-11
 IDIUse=1 WtCom= 1.00D+00 WtEn= 0.00D+00
 Coeff-Com: -0.157D-04 0.341D-04 0.133D-04-0.177D-03-0.107D-02 0.242D-02
 Coeff-Com:  0.112D-01-0.262D-01-0.413D-01-0.129D+00 0.118D+01
 Coeff:     -0.157D-04 0.341D-04 0.133D-04-0.177D-03-0.107D-02 0.242D-02
 Coeff:      0.112D-01-0.262D-01-0.413D-01-0.129D+00 0.118D+01
 Gap=     0.325 Goal=   None    Shift=    0.000
 RMSDP=2.44D-07 MaxDP=1.65D-05 DE=-5.91D-11 OVMax= 1.05D-06

 Cycle  12  Pass 1  IDiag  1:
 RMSU=  2.22D-08    CP:  5.03D-01  1.32D+00  7.89D-01  4.96D-01  1.41D+00
                    CP:  1.47D+00  1.44D+00  1.40D+00  1.55D+00  1.25D+00
                    CP:  1.23D+00
 E= -463.249746905456     Delta-E=        0.000000000011 Rises=F Damp=F
 DIIS: error= 2.58D-08 at cycle  12 NSaved=  12.
 NSaved=12 IEnMin=11 EnMin= -463.249746905467     IErMin=12 ErrMin= 2.58D-08
 ErrMax= 2.58D-08  0.00D+00 EMaxC= 1.00D-01 BMatC= 9.14D-14 BMatP= 1.06D-12
 IDIUse=1 WtCom= 1.00D+00 WtEn= 0.00D+00
 Coeff-Com: -0.152D-05 0.322D-05 0.247D-05-0.775D-05-0.299D-04-0.194D-04
 Coeff-Com: -0.115D-03 0.430D-02 0.377D-03-0.569D-01-0.131D+00 0.118D+01
 Coeff:     -0.152D-05 0.322D-05 0.247D-05-0.775D-05-0.299D-04-0.194D-04
 Coeff:     -0.115D-03 0.430D-02 0.377D-03-0.569D-01-0.131D+00 0.118D+01
 Gap=     0.325 Goal=   None    Shift=    0.000
 RMSDP=5.65D-08 MaxDP=3.55D-06 DE= 1.09D-11 OVMax= 3.03D-07

 Cycle  13  Pass 1  IDiag  1:
 RMSU=  6.34D-09    CP:  5.03D-01  1.32D+00  7.89D-01  4.96D-01  1.41D+00
                    CP:  1.47D+00  1.44D+00  1.40D+00  1.55D+00  1.26D+00
                    CP:  1.28D+00  1.35D+00
 E= -463.249746905456     Delta-E=        0.000000000000 Rises=F Damp=F
 DIIS: error= 5.84D-09 at cycle  13 NSaved=  13.
 NSaved=13 IEnMin=11 EnMin= -463.249746905467     IErMin=13 ErrMin= 5.84D-09
 ErrMax= 5.84D-09  0.00D+00 EMaxC= 1.00D-01 BMatC= 3.88D-15 BMatP= 9.14D-14
 IDIUse=1 WtCom= 1.00D+00 WtEn= 0.00D+00
 Coeff-Com:  0.667D-06-0.146D-05-0.548D-06 0.795D-05 0.519D-04-0.111D-03
 Coeff-Com: -0.606D-03 0.164D-02 0.331D-02-0.376D-03-0.745D-01 0.105D+00
 Coeff-Com:  0.965D+00
 Coeff:      0.667D-06-0.146D-05-0.548D-06 0.795D-05 0.519D-04-0.111D-03
 Coeff:     -0.606D-03 0.164D-02 0.331D-02-0.376D-03-0.745D-01 0.105D+00
 Coeff:      0.965D+00
 Gap=     0.325 Goal=   None    Shift=    0.000
 RMSDP=6.99D-09 MaxDP=6.16D-07 DE= 2.27D-13 OVMax= 6.74D-08

 SCF Done:  E(RwB97XD) =  -463.249746905     A.U. after   13 cycles
            NFock= 13  Conv=0.70D-08     -V/T= 2.0049
 KE= 4.610137349205D+02 PE=-2.272387826258D+03 EE= 7.490503941787D+02
 Leave Link  502 at Sat Nov  5 21:34:33 2022, MaxMem= 16106127360 cpu:             745.5 elap:              23.4
 (Enter /opt/ap/G16/B01/g16/l601.exe)
 Copying SCF densities to generalized density rwf, IOpCl= 0 IROHF=0.

 **********************************************************************

            Population analysis using the SCF Density.

 **********************************************************************

 Orbital symmetries:
       Occupied  (A) (A) (A) (A) (A) (A) (A) (A) (A) (A) (A) (A)
                 (A) (A) (A) (A) (A) (A) (A) (A) (A) (A) (A) (A)
                 (A) (A) (A) (A) (A) (A) (A) (A) (A) (A) (A) (A)
                 (A) (A) (A) (A) (A)
       Virtual   (A) (A) (A) (A) (A) (A) (A) (A) (A) (A) (A) (A)
                 (A) (A) (A) (A) (A) (A) (A) (A) (A) (A) (A) (A)
                 (A) (A) (A) (A) (A) (A) (A) (A) (A) (A) (A) (A)
                 (A) (A) (A) (A) (A) (A) (A) (A) (A) (A) (A) (A)
                 (A) (A) (A) (A) (A) (A) (A) (A) (A) (A) (A) (A)
                 (A) (A) (A) (A) (A) (A) (A) (A) (A) (A) (A) (A)
                 (A) (A) (A) (A) (A) (A) (A) (A) (A) (A) (A) (A)
                 (A) (A) (A) (A) (A) (A) (A) (A) (A) (A) (A) (A)
                 (A) (A) (A) (A) (A) (A) (A) (A) (A) (A) (A) (A)
                 (A) (A) (A) (A) (A) (A) (A) (A) (A) (A) (A) (A)
                 (A) (A) (A) (A) (A) (A) (A) (A) (A) (A) (A) (A)
                 (A) (A) (A) (A) (A) (A) (A) (A) (A) (A) (A) (A)
                 (A) (A) (A) (A) (A) (A) (A) (A) (A) (A) (A) (A)
                 (A) (A) (A) (A) (A) (A) (A) (A) (A) (A) (A) (A)
                 (A) (A) (A) (A) (A) (A) (A) (A) (A) (A) (A) (A)
                 (A) (A) (A) (A) (A) (A) (A) (A) (A) (A) (A) (A)
                 (A) (A) (A) (A) (A) (A) (A) (A) (A) (A) (A) (A)
                 (A) (A) (A) (A) (A) (A) (A) (A) (A) (A) (A) (A)
                 (A) (A) (A) (A) (A) (A) (A) (A) (A) (A) (A) (A)
                 (A) (A) (A) (A) (A) (A) (A) (A) (A) (A) (A) (A)
                 (A) (A) (A) (A) (A) (A) (A) (A) (A) (A) (A) (A)
                 (A) (A) (A) (A) (A) (A) (A) (A) (A) (A) (A) (A)
                 (A) (A) (A) (A) (A) (A) (A) (A) (A) (A) (A) (A)
                 (A) (A) (A) (A) (A) (A) (A) (A) (A) (A) (A) (A)
                 (A) (A) (A)
 The electronic state is 1-A.
 Alpha  occ. eigenvalues --  -10.30554 -10.30524 -10.29402 -10.29401 -10.29393
 Alpha  occ. eigenvalues --  -10.29393 -10.29312 -10.29312 -10.29308 -10.29308
 Alpha  occ. eigenvalues --  -10.29257 -10.29257  -0.97658  -0.95352  -0.88277
 Alpha  occ. eigenvalues --   -0.85536  -0.84689  -0.82389  -0.72422  -0.71939
 Alpha  occ. eigenvalues --   -0.68823  -0.67531  -0.62932  -0.59247  -0.56544
 Alpha  occ. eigenvalues --   -0.55730  -0.53159  -0.52701  -0.51653  -0.51071
 Alpha  occ. eigenvalues --   -0.50533  -0.47414  -0.45212  -0.45198  -0.43952
 Alpha  occ. eigenvalues --   -0.42373  -0.41909  -0.36165  -0.33609  -0.33424
 Alpha  occ. eigenvalues --   -0.30281
 Alpha virt. eigenvalues --    0.02235   0.03852   0.04539   0.04623   0.04774
 Alpha virt. eigenvalues --    0.05384   0.05878   0.05939   0.07424   0.07820
 Alpha virt. eigenvalues --    0.07849   0.08304   0.09450   0.09971   0.11738
 Alpha virt. eigenvalues --    0.12724   0.13258   0.13263   0.15128   0.15158
 Alpha virt. eigenvalues --    0.15821   0.15916   0.16023   0.16586   0.16873
 Alpha virt. eigenvalues --    0.17462   0.17508   0.17577   0.18037   0.18512
 Alpha virt. eigenvalues --    0.18758   0.18809   0.19269   0.19824   0.20121
 Alpha virt. eigenvalues --    0.20209   0.20632   0.22752   0.22770   0.22934
 Alpha virt. eigenvalues --    0.23274   0.23637   0.23841   0.24005   0.25107
 Alpha virt. eigenvalues --    0.25720   0.26120   0.26495   0.27539   0.27640
 Alpha virt. eigenvalues --    0.27836   0.28565   0.29150   0.30130   0.30508
 Alpha virt. eigenvalues --    0.30691   0.31294   0.31428   0.31670   0.31760
 Alpha virt. eigenvalues --    0.33738   0.34205   0.34323   0.34581   0.35546
 Alpha virt. eigenvalues --    0.35728   0.36148   0.36253   0.36944   0.37039
 Alpha virt. eigenvalues --    0.37141   0.39080   0.40211   0.41104   0.41819
 Alpha virt. eigenvalues --    0.42195   0.42943   0.43256   0.46856   0.47472
 Alpha virt. eigenvalues --    0.48384   0.56568   0.58313   0.58898   0.61211
 Alpha virt. eigenvalues --    0.61458   0.61508   0.62318   0.62604   0.63006
 Alpha virt. eigenvalues --    0.64074   0.64340   0.64431   0.65795   0.65802
 Alpha virt. eigenvalues --    0.66048   0.67468   0.68707   0.69393   0.69438
 Alpha virt. eigenvalues --    0.71287   0.71869   0.73065   0.74470   0.74976
 Alpha virt. eigenvalues --    0.76831   0.76976   0.77132   0.78315   0.78558
 Alpha virt. eigenvalues --    0.80236   0.80878   0.81255   0.82540   0.82990
 Alpha virt. eigenvalues --    0.83432   0.86795   0.88507   0.89209   0.89741
 Alpha virt. eigenvalues --    0.90179   0.91583   0.92786   0.93499   0.94450
 Alpha virt. eigenvalues --    0.94928   0.95546   0.96149   0.96782   0.97704
 Alpha virt. eigenvalues --    0.99908   1.00746   1.00816   1.01022   1.03279
 Alpha virt. eigenvalues --    1.06403   1.07013   1.08442   1.09919   1.10578
 Alpha virt. eigenvalues --    1.10942   1.13313   1.13973   1.16682   1.17458
 Alpha virt. eigenvalues --    1.18907   1.19655   1.20993   1.24200   1.24218
 Alpha virt. eigenvalues --    1.25155   1.39283   1.39578   1.39678   1.41675
 Alpha virt. eigenvalues --    1.54997   1.57267   1.57310   1.58198   1.58629
 Alpha virt. eigenvalues --    1.60433   1.61175   1.62580   1.62693   1.65262
 Alpha virt. eigenvalues --    1.65433   1.65524   1.66626   1.68278   1.70519
 Alpha virt. eigenvalues --    1.71977   1.74208   1.74708   1.75501   1.78358
 Alpha virt. eigenvalues --    1.78887   1.81353   1.82681   1.84579   1.84871
 Alpha virt. eigenvalues --    1.85769   1.86919   1.89678   1.92136   1.92362
 Alpha virt. eigenvalues --    1.93640   1.98475   1.99424   1.99451   2.00799
 Alpha virt. eigenvalues --    2.02579   2.04130   2.04169   2.04184   2.04824
 Alpha virt. eigenvalues --    2.06524   2.08173   2.09501   2.10566   2.10627
 Alpha virt. eigenvalues --    2.12708   2.14207   2.16902   2.17024   2.17092
 Alpha virt. eigenvalues --    2.23380   2.32813   2.35074   2.36400   2.41989
 Alpha virt. eigenvalues --    2.44076   2.48519   2.49885   2.51893   2.53034
 Alpha virt. eigenvalues --    2.55062   2.56353   2.56400   2.57682   2.60641
 Alpha virt. eigenvalues --    2.71345   2.72100   2.75115   2.76343   2.77838
 Alpha virt. eigenvalues --    2.78705   2.79603   2.80047   2.80426   2.82151
 Alpha virt. eigenvalues --    2.82236   2.82585   2.85120   2.85295   2.85460
 Alpha virt. eigenvalues --    2.87547   2.89078   2.90503   2.90658   2.91829
 Alpha virt. eigenvalues --    2.92334   2.92504   2.96249   2.99079   3.00544
 Alpha virt. eigenvalues --    3.03387   3.03786   3.03983   3.04070   3.09280
 Alpha virt. eigenvalues --    3.15026   3.19452   3.20829   3.29519   3.29925
 Alpha virt. eigenvalues --    3.32241   3.45451   3.46293   3.46822   3.48796
 Alpha virt. eigenvalues --    3.59227   3.60690   3.63149   3.63548   3.68070
 Alpha virt. eigenvalues --    3.73458   3.75171   3.88014   4.08558   4.10967
 Alpha virt. eigenvalues --    4.13448   4.14488   4.24304   4.24663   4.27330
 Alpha virt. eigenvalues --    4.27682   4.58992   4.92434   4.95610  23.69539
 Alpha virt. eigenvalues --   23.84835  24.07177  24.08933  24.09661  24.10121
 Alpha virt. eigenvalues --   24.18299  24.20484  24.22320  24.22362  24.30762
 Alpha virt. eigenvalues --   24.31840
          Condensed to atoms (all electrons):
               1          2          3          4          5          6
     1  C   20.846517   0.530188   0.527105  -1.734737  -0.026688  -9.282464
     2  C    0.530188  15.864365  -5.721856  -1.034459   0.656710  -3.442713
     3  C    0.527105  -5.721856  15.852982  -0.472559  -0.070442  -3.430017
     4  C   -1.734737  -1.034459  -0.472559   6.739544  -0.070650   1.882509
     5  H   -0.026688   0.656710  -0.070442  -0.070650   0.515184  -0.103645
     6  C   -9.282464  -3.442713  -3.430017   1.882509  -0.103645  20.847695
     7  C   -1.734990  -0.470829  -1.033320   0.382681  -0.019485   1.880686
     8  H   -0.026847  -0.070420   0.656603  -0.019530   0.000145  -0.103340
     9  C    0.284402   0.751103   0.749889  -0.271017   0.042620  -1.516463
    10  H    0.027517  -0.138750  -0.002775   0.449008  -0.014673   0.054892
    11  C   -3.440900  -0.020745  -0.577118   0.242583  -0.074648   0.532174
    12  C   -3.430748  -0.576423  -0.016535   0.254746  -0.002395   0.524685
    13  H    0.027412  -0.002793  -0.138571   0.024744  -0.000332   0.054869
    14  H    0.037332   0.009546   0.009545  -0.056579   0.000637  -0.037939
    15  C    1.882990   0.241222   0.256057  -0.031270   0.009380  -1.735798
    16  H   -0.103499  -0.074702  -0.002436   0.009393  -0.000351  -0.026789
    17  C    1.879780   0.254625   0.242243  -0.115746   0.024785  -1.733855
    18  H   -0.103361  -0.002417  -0.074521   0.024811  -0.001807  -0.026854
    19  C   -1.516023  -0.134158  -0.134540   0.055155  -0.018618   0.284518
    20  H    0.054888   0.002784   0.004770  -0.000619   0.000855   0.027510
    21  H    0.054831   0.004734   0.002824  -0.001093   0.000459   0.027448
    22  H   -0.037934  -0.003298  -0.003331   0.001435  -0.000488   0.037332
               7          8          9         10         11         12
     1  C   -1.734990  -0.026847   0.284402   0.027517  -3.440900  -3.430748
     2  C   -0.470829  -0.070420   0.751103  -0.138750  -0.020745  -0.576423
     3  C   -1.033320   0.656603   0.749889  -0.002775  -0.577118  -0.016535
     4  C    0.382681  -0.019530  -0.271017   0.449008   0.242583   0.254746
     5  H   -0.019485   0.000145   0.042620  -0.014673  -0.074648  -0.002395
     6  C    1.880686  -0.103340  -1.516463   0.054892   0.532174   0.524685
     7  C    6.738806  -0.070661  -0.270529   0.024708   0.255771   0.241019
     8  H   -0.070661   0.515201   0.042591  -0.000333  -0.002461  -0.074571
     9  C   -0.270529   0.042591   6.631815  -0.098734  -0.134718  -0.133912
    10  H    0.024708  -0.000333  -0.098734   0.481886   0.002820   0.004744
    11  C    0.255771  -0.002461  -0.134718   0.002820  15.863235  -5.723349
    12  C    0.241019  -0.074571  -0.133912   0.004744  -5.723349  15.856354
    13  H    0.448938  -0.014667  -0.098726   0.001013   0.004760   0.002786
    14  H   -0.056577   0.000637   0.441653  -0.009482  -0.003327  -0.003300
    15  C   -0.115698   0.024845   0.055105  -0.000611  -1.035978  -0.470773
    16  H    0.024815  -0.001811  -0.018631   0.000856   0.656911  -0.070597
    17  C   -0.030776   0.009366   0.055058  -0.001092  -0.470945  -1.032912
    18  H    0.009345  -0.000354  -0.018614   0.000459  -0.070394   0.656486
    19  C    0.054977  -0.018633  -0.025000  -0.000038   0.751652   0.748706
    20  H   -0.001091   0.000460  -0.000037   0.000123  -0.138813  -0.002687
    21  H   -0.000602   0.000857  -0.000038   0.000016  -0.002803  -0.138538
    22  H    0.001430  -0.000489  -0.000641   0.000008   0.009593   0.009485
              13         14         15         16         17         18
     1  C    0.027412   0.037332   1.882990  -0.103499   1.879780  -0.103361
     2  C   -0.002793   0.009546   0.241222  -0.074702   0.254625  -0.002417
     3  C   -0.138571   0.009545   0.256057  -0.002436   0.242243  -0.074521
     4  C    0.024744  -0.056579  -0.031270   0.009393  -0.115746   0.024811
     5  H   -0.000332   0.000637   0.009380  -0.000351   0.024785  -0.001807
     6  C    0.054869  -0.037939  -1.735798  -0.026789  -1.733855  -0.026854
     7  C    0.448938  -0.056577  -0.115698   0.024815  -0.030776   0.009345
     8  H   -0.014667   0.000637   0.024845  -0.001811   0.009366  -0.000354
     9  C   -0.098726   0.441653   0.055105  -0.018631   0.055058  -0.018614
    10  H    0.001013  -0.009482  -0.000611   0.000856  -0.001092   0.000459
    11  C    0.004760  -0.003327  -1.035978   0.656911  -0.470945  -0.070394
    12  C    0.002786  -0.003300  -0.470773  -0.070597  -1.032912   0.656486
    13  H    0.481881  -0.009482  -0.001094   0.000459  -0.000612   0.000854
    14  H   -0.009482   0.475359   0.001433  -0.000489   0.001432  -0.000488
    15  C   -0.001094   0.001433   6.740372  -0.070672   0.382342  -0.019502
    16  H    0.000459  -0.000489  -0.070672   0.515173  -0.019465   0.000143
    17  C   -0.000612   0.001432   0.382342  -0.019465   6.738137  -0.070631
    18  H    0.000854  -0.000488  -0.019502   0.000143  -0.070631   0.515198
    19  C   -0.000037  -0.000641  -0.271006   0.042609  -0.270016   0.042572
    20  H    0.000016   0.000009   0.449033  -0.014671   0.024689  -0.000332
    21  H    0.000123   0.000008   0.024716  -0.000332   0.448897  -0.014669
    22  H    0.000009  -0.000011  -0.056623   0.000638  -0.056529   0.000636
              19         20         21         22
     1  C   -1.516023   0.054888   0.054831  -0.037934
     2  C   -0.134158   0.002784   0.004734  -0.003298
     3  C   -0.134540   0.004770   0.002824  -0.003331
     4  C    0.055155  -0.000619  -0.001093   0.001435
     5  H   -0.018618   0.000855   0.000459  -0.000488
     6  C    0.284518   0.027510   0.027448   0.037332
     7  C    0.054977  -0.001091  -0.000602   0.001430
     8  H   -0.018633   0.000460   0.000857  -0.000489
     9  C   -0.025000  -0.000037  -0.000038  -0.000641
    10  H   -0.000038   0.000123   0.000016   0.000008
    11  C    0.751652  -0.138813  -0.002803   0.009593
    12  C    0.748706  -0.002687  -0.138538   0.009485
    13  H   -0.000037   0.000016   0.000123   0.000009
    14  H   -0.000641   0.000009   0.000008  -0.000011
    15  C   -0.271006   0.449033   0.024716  -0.056623
    16  H    0.042609  -0.014671  -0.000332   0.000638
    17  C   -0.270016   0.024689   0.448897  -0.056529
    18  H    0.042572  -0.000332  -0.014669   0.000636
    19  C    6.631359  -0.098741  -0.098684   0.441657
    20  H   -0.098741   0.481888   0.001012  -0.009485
    21  H   -0.098684   0.001012   0.481880  -0.009479
    22  H    0.441657  -0.009485  -0.009479   0.475361
 Mulliken charges:
               1
     1  C    1.285226
     2  C   -0.621715
     3  C   -0.623998
     4  C   -0.258348
     5  H    0.153447
     6  C    1.285558
     7  C   -0.258617
     8  H    0.153411
     9  C   -0.467176
    10  H    0.218435
    11  C   -0.623298
    12  C   -0.622269
    13  H    0.218449
    14  H    0.200723
    15  C   -0.258469
    16  H    0.153447
    17  C   -0.258774
    18  H    0.153438
    19  C   -0.467069
    20  H    0.218440
    21  H    0.218434
    22  H    0.200724
 Sum of Mulliken charges =  -0.00000
 Mulliken charges with hydrogens summed into heavy atoms:
               1
     1  C    1.285226
     2  C   -0.468268
     3  C   -0.470587
     4  C   -0.039912
     6  C    1.285558
     7  C   -0.040168
     9  C   -0.266453
    11  C   -0.469850
    12  C   -0.468831
    15  C   -0.040029
    17  C   -0.040340
    19  C   -0.266345
 Electronic spatial extent (au):  <R**2>=           2311.9551
 Charge=             -0.0000 electrons
 Dipole moment (field-independent basis, Debye):
    X=              0.0000    Y=             -0.0001    Z=              0.0004  Tot=              0.0004
 Quadrupole moment (field-independent basis, Debye-Ang):
   XX=            -61.5451   YY=            -62.5833   ZZ=            -76.5422
   XY=              0.0002   XZ=             -0.0005   YZ=             -0.0001
 Traceless Quadrupole moment (field-independent basis, Debye-Ang):
   XX=              5.3451   YY=              4.3069   ZZ=             -9.6520
   XY=              0.0002   XZ=             -0.0005   YZ=             -0.0001
 Octapole moment (field-independent basis, Debye-Ang**2):
  XXX=              0.0005  YYY=             -0.0011  ZZZ=              0.0013  XYY=             -0.0003
  XXY=             -0.0009  XXZ=              0.0018  XZZ=              0.0004  YZZ=             -0.0004
  YYZ=              0.0025  XYZ=            -10.7300
 Hexadecapole moment (field-independent basis, Debye-Ang**3):
 XXXX=          -2299.4519 YYYY=           -506.4149 ZZZZ=           -143.7824 XXXY=             -0.0000
 XXXZ=             -0.0196 YYYX=              0.0065 YYYZ=             -0.0002 ZZZX=             -0.0002
 ZZZY=             -0.0002 XXYY=           -474.8006 XXZZ=           -501.0922 YYZZ=           -117.0628
 XXYZ=             -0.0020 YYXZ=              0.0021 ZZXY=             -0.0037
 N-N= 5.990739502531D+02 E-N=-2.272387825951D+03  KE= 4.610137349205D+02
 No NMR shielding tensors so no spin-rotation constants.
 Leave Link  601 at Sat Nov  5 21:34:33 2022, MaxMem= 16106127360 cpu:               4.5 elap:               0.2
 (Enter /opt/ap/G16/B01/g16/l9999.exe)
 1\1\GINC-N08\SP\RwB97XD\6-311++G(d,p)\C12H10\ROOT\05-Nov-2022\0\\#P wB
 97XD/6-311++G(d,p) scf=maxcycle=512\\_conf011.gjf nmol_natom 1_22\\0,1
 \C\C,1,1.40491871\C,1,1.40495292,2,118.20503621\C,2,1.3939373,1,120.91
 08946,3,0.05365643,0\H,2,1.08593095,1,119.3452094,3,-178.3624307,0\C,1
 ,1.48449301,2,120.90144423,4,-179.96388019,0\C,3,1.39389842,1,120.9105
 0598,2,0.03587687,0\H,3,1.08593608,1,119.34159615,2,-178.38281524,0\C,
 4,1.39606958,2,120.24555868,1,-0.09283196,0\H,4,1.08627898,2,119.66792
 041,1,-179.51486187,0\C,6,1.40492034,1,120.90156908,2,-35.,0\C,6,1.404
 95329,1,120.89324856,2,145.,0\H,7,1.08627928,3,119.67027175,1,-179.512
 58183,0\H,9,1.08597601,4,120.2602535,2,-179.95233103,0\C,11,1.39393437
 ,6,120.91099656,1,-179.95869964,0\H,11,1.08593173,6,119.34475907,1,1.6
 1891886,0\C,12,1.39390147,6,120.91022615,1,-179.94297913,0\H,12,1.0859
 3608,6,119.34175044,1,1.63241608,0\C,15,1.39607161,11,120.24535737,6,-
 0.10315482,0\H,15,1.08627786,11,119.66861247,6,-179.51844254,0\H,17,1.
 08627825,12,119.6702798,6,-179.51590091,0\H,19,1.08597601,15,120.25988
 597,11,-179.94731581,0\\Version=ES64L-G16RevB.01\State=1-A\HF=-463.249
 7469\RMSD=6.990e-09\Dipole=0.0000001,-0.0001468,-0.0000247\Quadrupole=
 3.5223089,-6.2370099,2.714701,1.5299,0.7541681,-2.554034\PG=C01 [X(C12
 H10)]\\@


 CHARLIE BROWN.."I CAN'T GET THAT STUPID KITE IN THE
 AIR... I CAN'T... I C A N N O T..."
 LUCY.."OH COME NOW CHARLIE BROWN...THAT'S NO WAY TO TALK...
 THE TROUBLE WITH YOU IS YOU DON'T BELIEVE IN YOURSELF... YOU
 DON'T BELIEVE IN YOUR OWN ABILITIES...  YOU'VE GOT TO SAY TO
 YOURSELF...'I BELIEVE I CAN FLY THIS KITE.'... GO AHEAD SAY
 IT...."
 CHARLIE BROWN.."I BELIEVE THAT I CAN FLY THIS STUPID
 KITE.....I BELIEVE THAT I CAN FLY THIS KITE........
 I  A C T U A L L Y  B E L I E V E  T H A T  I  C A N ******"
 LUCY.."I'LL BET YOU TEN-TO-ONE YOU'RE WRONG......."    SCHULZ
 Job cpu time:       0 days  0 hours 13 minutes  9.1 seconds.
 Elapsed time:       0 days  0 hours  0 minutes 24.8 seconds.
 File lengths (MBytes):  RWF=     62 Int=      0 D2E=      0 Chk=      8 Scr=      1
 Normal termination of Gaussian 16 at Sat Nov  5 21:34:33 2022.
