 Entering Gaussian System, Link 0=g16
 Input=_conf003.gjf
 Output=_conf003.log
 Initial command:
 /opt/ap/G16/B01/g16/l1.exe "/tmp2/scr/Gau-1685.inp" -scrdir="/tmp2/scr/"
 Entering Link 1 = /opt/ap/G16/B01/g16/l1.exe PID=      1686.
  
 Copyright (c) 1988-2017, Gaussian, Inc.  All Rights Reserved.
  
 This is part of the Gaussian(R) 16 program.  It is based on
 the Gaussian(R) 09 system (copyright 2009, Gaussian, Inc.),
 the Gaussian(R) 03 system (copyright 2003, Gaussian, Inc.),
 the Gaussian(R) 98 system (copyright 1998, Gaussian, Inc.),
 the Gaussian(R) 94 system (copyright 1995, Gaussian, Inc.),
 the Gaussian 92(TM) system (copyright 1992, Gaussian, Inc.),
 the Gaussian 90(TM) system (copyright 1990, Gaussian, Inc.),
 the Gaussian 88(TM) system (copyright 1988, Gaussian, Inc.),
 the Gaussian 86(TM) system (copyright 1986, Carnegie Mellon
 University), and the Gaussian 82(TM) system (copyright 1983,
 Carnegie Mellon University). Gaussian is a federally registered
 trademark of Gaussian, Inc.
  
 This software contains proprietary and confidential information,
 including trade secrets, belonging to Gaussian, Inc.
  
 This software is provided under written license and may be
 used, copied, transmitted, or stored only in accord with that
 written license.
  
 The following legend is applicable only to US Government
 contracts under FAR:
  
                    RESTRICTED RIGHTS LEGEND
  
 Use, reproduction and disclosure by the US Government is
 subject to restrictions as set forth in subparagraphs (a)
 and (c) of the Commercial Computer Software - Restricted
 Rights clause in FAR 52.227-19.
  
 Gaussian, Inc.
 340 Quinnipiac St., Bldg. 40, Wallingford CT 06492
  
  
 ---------------------------------------------------------------
 Warning -- This program may not be used in any manner that
 competes with the business of Gaussian, Inc. or will provide
 assistance to any competitor of Gaussian, Inc.  The licensee
 of this program is prohibited from giving any competitor of
 Gaussian, Inc. access to this program.  By using this program,
 the user acknowledges that Gaussian, Inc. is engaged in the
 business of creating and licensing software in the field of
 computational chemistry and represents and warrants to the
 licensee that it is not a competitor of Gaussian, Inc. and that
 it will not use this program in any manner prohibited above.
 ---------------------------------------------------------------
  

 Cite this work as:
 Gaussian 16, Revision B.01,
 M. J. Frisch, G. W. Trucks, H. B. Schlegel, G. E. Scuseria, 
 M. A. Robb, J. R. Cheeseman, G. Scalmani, V. Barone, 
 G. A. Petersson, H. Nakatsuji, X. Li, M. Caricato, A. V. Marenich, 
 J. Bloino, B. G. Janesko, R. Gomperts, B. Mennucci, H. P. Hratchian, 
 J. V. Ortiz, A. F. Izmaylov, J. L. Sonnenberg, D. Williams-Young, 
 F. Ding, F. Lipparini, F. Egidi, J. Goings, B. Peng, A. Petrone, 
 T. Henderson, D. Ranasinghe, V. G. Zakrzewski, J. Gao, N. Rega, 
 G. Zheng, W. Liang, M. Hada, M. Ehara, K. Toyota, R. Fukuda, 
 J. Hasegawa, M. Ishida, T. Nakajima, Y. Honda, O. Kitao, H. Nakai, 
 T. Vreven, K. Throssell, J. A. Montgomery, Jr., J. E. Peralta, 
 F. Ogliaro, M. J. Bearpark, J. J. Heyd, E. N. Brothers, K. N. Kudin, 
 V. N. Staroverov, T. A. Keith, R. Kobayashi, J. Normand, 
 K. Raghavachari, A. P. Rendell, J. C. Burant, S. S. Iyengar, 
 J. Tomasi, M. Cossi, J. M. Millam, M. Klene, C. Adamo, R. Cammi, 
 J. W. Ochterski, R. L. Martin, K. Morokuma, O. Farkas, 
 J. B. Foresman, and D. J. Fox, Gaussian, Inc., Wallingford CT, 2016.
 
 ******************************************
 Gaussian 16:  ES64L-G16RevB.01 20-Dec-2017
                 5-Nov-2022 
 ******************************************
 %nprocshared=32
 Will use up to   32 processors via shared memory.
 %mem=120GB
 %chk=_conf003.chk
 ----------------------------------------
 #P wB97XD/6-311++G(d,p) scf=maxcycle=512
 ----------------------------------------
 1/38=1,172=1/1;
 2/12=2,17=6,18=5,40=1/2;
 3/5=4,6=6,7=1111,11=2,25=1,30=1,74=-58/1,2,3;
 4//1;
 5/5=2,7=512,38=5/2;
 6/7=2,8=2,9=2,10=2,28=1/1;
 99/5=1,9=1/99;
 Leave Link    1 at Sat Nov  5 21:33:17 2022, MaxMem= 16106127360 cpu:               3.2 elap:               0.1
 (Enter /opt/ap/G16/B01/g16/l101.exe)
 ----------------------------
 _conf003.gjf nmol_natom 1_22
 ----------------------------
 Symbolic Z-matrix:
 Charge =  0 Multiplicity = 1
 C
 C                    1     1.40492 
 C                    1     1.40495  2     118.20504 
 C                    2     1.39394  1     120.91089  3     0.05366  0
 H                    2     1.08593  1     119.34521  3    -178.36243  0
 C                    1     1.48449  2     120.90144  4    -179.96388  0
 C                    3     1.3939   1     120.91051  2     0.03588  0
 H                    3     1.08594  1     119.3416  2    -178.38282  0
 C                    4     1.39607  2     120.24556  1    -0.09283  0
 H                    4     1.08628  2     119.66792  1    -179.51486  0
 C                    6     1.40492  1     120.90157  2    -75.      0
 C                    6     1.40495  1     120.89325  2     105.     0
 H                    7     1.08628  3     119.67027  1    -179.51258  0
 H                    9     1.08598  4     120.26025  2    -179.95233  0
 C                    11    1.39393  6     120.911  1    -179.9587  0
 H                    11    1.08593  6     119.34476  1     1.61892  0
 C                    12    1.3939   6     120.91023  1    -179.94298  0
 H                    12    1.08594  6     119.34175  1     1.63242  0
 C                    15    1.39607  11    120.24536  6    -0.10315  0
 H                    15    1.08628  11    119.66861  6    -179.51844  0
 H                    17    1.08628  12    119.67028  6    -179.5159  0
 H                    19    1.08598  15    120.25989  11   -179.94732  0
 
 ITRead=  0  0  0  0  0  0  0  0  0  0  0  0  0  0  0  0  0  0  0  0
 ITRead=  0  0
 MicOpt= -1 -1 -1 -1 -1 -1 -1 -1 -1 -1 -1 -1 -1 -1 -1 -1 -1 -1 -1 -1
 MicOpt= -1 -1
 NAtoms=     22 NQM=       22 NQMF=       0 NMMI=      0 NMMIF=      0
                NMic=       0 NMicF=      0.
                    Isotopes and Nuclear Properties:
 (Nuclear quadrupole moments (NQMom) in fm**2, nuclear magnetic moments (NMagM)
  in nuclear magnetons)

  Atom         1           2           3           4           5           6           7           8           9          10
 IAtWgt=          12          12          12          12           1          12          12           1          12           1
 AtmWgt=  12.0000000  12.0000000  12.0000000  12.0000000   1.0078250  12.0000000  12.0000000   1.0078250  12.0000000   1.0078250
 NucSpn=           0           0           0           0           1           0           0           1           0           1
 AtZEff=  -0.0000000  -0.0000000  -0.0000000  -0.0000000  -0.0000000  -0.0000000  -0.0000000  -0.0000000  -0.0000000  -0.0000000
 NQMom=    0.0000000   0.0000000   0.0000000   0.0000000   0.0000000   0.0000000   0.0000000   0.0000000   0.0000000   0.0000000
 NMagM=    0.0000000   0.0000000   0.0000000   0.0000000   2.7928460   0.0000000   0.0000000   2.7928460   0.0000000   2.7928460
 AtZNuc=   6.0000000   6.0000000   6.0000000   6.0000000   1.0000000   6.0000000   6.0000000   1.0000000   6.0000000   1.0000000

  Atom        11          12          13          14          15          16          17          18          19          20
 IAtWgt=          12          12           1           1          12           1          12           1          12           1
 AtmWgt=  12.0000000  12.0000000   1.0078250   1.0078250  12.0000000   1.0078250  12.0000000   1.0078250  12.0000000   1.0078250
 NucSpn=           0           0           1           1           0           1           0           1           0           1
 AtZEff=  -0.0000000  -0.0000000  -0.0000000  -0.0000000  -0.0000000  -0.0000000  -0.0000000  -0.0000000  -0.0000000  -0.0000000
 NQMom=    0.0000000   0.0000000   0.0000000   0.0000000   0.0000000   0.0000000   0.0000000   0.0000000   0.0000000   0.0000000
 NMagM=    0.0000000   0.0000000   2.7928460   2.7928460   0.0000000   2.7928460   0.0000000   2.7928460   0.0000000   2.7928460
 AtZNuc=   6.0000000   6.0000000   1.0000000   1.0000000   6.0000000   1.0000000   6.0000000   1.0000000   6.0000000   1.0000000

  Atom        21          22
 IAtWgt=           1           1
 AtmWgt=   1.0078250   1.0078250
 NucSpn=           1           1
 AtZEff=  -0.0000000  -0.0000000
 NQMom=    0.0000000   0.0000000
 NMagM=    2.7928460   2.7928460
 AtZNuc=   1.0000000   1.0000000
 Leave Link  101 at Sat Nov  5 21:33:17 2022, MaxMem= 16106127360 cpu:               6.0 elap:               0.2
 (Enter /opt/ap/G16/B01/g16/l202.exe)
                          Input orientation:                          
 ---------------------------------------------------------------------
 Center     Atomic      Atomic             Coordinates (Angstroms)
 Number     Number       Type             X           Y           Z
 ---------------------------------------------------------------------
      1          6           0        0.000000    0.000000    0.000000
      2          6           0        0.000000    0.000000    1.404919
      3          6           0        1.238131    0.000000   -0.664020
      4          6           0        1.195952    0.001120    2.120990
      5          1           0       -0.946201   -0.027051    1.937101
      6          6           0       -1.273772   -0.000390   -0.762381
      7          6           0        2.434381   -0.000749    0.051479
      8          1           0        1.259850    0.026715   -1.749411
      9          6           0        2.418826    0.000311    1.447501
     10          1           0        1.172413   -0.006894    3.206985
     11          6           0       -2.052749   -1.165045   -0.865209
     12          6           0       -1.732841    1.164015   -1.400590
     13          1           0        3.380326    0.007295   -0.482493
     14          1           0        3.350700    0.000403    2.005133
     15          6           0       -3.248420   -1.165856   -1.581745
     16          1           0       -1.728885   -2.068483   -0.357115
     17          6           0       -2.929416    1.164356   -2.115551
     18          1           0       -1.132169    2.067576   -1.355548
     19          6           0       -3.692685   -0.000833   -2.209730
     20          1           0       -3.838787   -2.075738   -1.641590
     21          1           0       -3.261408    2.073995   -2.607829
     22          1           0       -4.624591   -0.000976   -2.767309
 ---------------------------------------------------------------------
                    Distance matrix (angstroms):
                    1          2          3          4          5
     1  C    0.000000
     2  C    1.404919   0.000000
     3  C    1.404953   2.411116   0.000000
     4  C    2.434934   1.393937   2.785330   0.000000
     5  H    2.156012   1.085931   3.396745   2.150216   0.000000
     6  C    1.484493   2.513898   2.513829   3.796494   2.719415
     7  C    2.434925   2.785320   1.393898   2.411760   3.870994
     8  H    2.156008   3.396723   1.085936   3.871013   4.296501
     9  C    2.818861   2.419201   2.419207   1.396070   3.400568
    10  H    3.414579   2.149893   3.871569   1.086279   2.470128
    11  C    2.513901   3.274842   3.496813   4.564142   3.220625
    12  C    2.513826   3.496934   3.274773   4.725640   3.630099
    13  H    3.414594   3.871560   2.149884   3.398478   4.957262
    14  H    3.904837   3.404035   3.404016   2.157861   4.297527
    15  C    3.796494   4.564166   4.725524   5.901231   4.356532
    16  H    2.719411   3.220625   3.629876   4.356482   3.169143
    17  C    3.796414   4.725559   4.564112   6.026613   4.666538
    18  H    2.719225   3.629994   3.220466   4.666552   3.906864
    19  C    4.303351   5.167360   5.167414   6.530996   4.973939
    20  H    4.662595   5.322235   5.571304   6.619588   5.036983
    21  H    4.662511   5.571390   5.322190   6.821041   5.516427
    22  H    5.389327   6.228510   6.228591   7.600934   5.971827
                    6          7          8          9         10
     6  C    0.000000
     7  C    3.796415   0.000000
     8  H    2.719228   2.150228   0.000000
     9  C    4.303354   1.396108   3.400612   0.000000
    10  H    4.662588   3.398502   4.957280   2.156243   0.000000
    11  C    1.404920   4.725488   3.629796   5.167365   5.322194
    12  C    1.404953   4.564090   3.220454   5.167413   5.571469
    13  H    4.662512   1.086279   2.470197   2.156248   4.299689
    14  H    5.389330   2.157871   4.297551   1.085976   2.487858
    15  C    2.434934   6.026535   4.666351   6.530999   6.619584
    16  H    2.156010   4.666396   3.906517   4.973937   5.036912
    17  C    2.434925   5.901170   4.356401   6.531005   6.821012
    18  H    2.156010   4.356371   3.168910   4.973955   5.516451
    19  C    2.818858   6.531003   4.973958   7.122212   7.280798
    20  H    3.414583   6.820901   5.516161   7.280809   7.273301
    21  H    3.414594   6.619554   5.036865   7.280860   7.602692
    22  H    3.904834   7.600964   5.971895   8.208188   8.324511
                   11         12         13         14         15
    11  C    0.000000
    12  C    2.411119   0.000000
    13  H    5.571279   5.322159   0.000000
    14  H    6.228515   6.228590   2.487812   0.000000
    15  C    1.393934   2.785336   6.820917   7.600937   0.000000
    16  H    1.085932   3.396748   5.516213   5.971825   2.150219
    17  C    2.785320   1.393901   6.619555   7.600966   2.411763
    18  H    3.396725   1.085936   5.036823   5.971892   3.871016
    19  C    2.419198   2.419208   7.280858   8.208188   1.396072
    20  H    2.149897   3.871575   7.602507   8.324522   1.086278
    21  H    3.871558   2.149886   7.273302   8.324613   3.398478
    22  H    3.404029   3.404019   8.324611   9.294164   2.157859
                   16         17         18         19         20
    16  H    0.000000
    17  C    3.870997   0.000000
    18  H    4.296501   2.150234   0.000000
    19  C    3.400569   1.396107   3.400615   0.000000
    20  H    2.470145   3.398500   4.957282   2.156238   0.000000
    21  H    4.957264   1.086278   2.470204   2.156245   4.299683
    22  H    4.297527   2.157871   4.297556   1.085976   2.487844
                   21         22
    21  H    0.000000
    22  H    2.487812   0.000000
 Stoichiometry    C12H10
 Framework group  C1[X(C12H10)]
 Deg. of freedom    60
 Full point group                 C1      NOp   1
 Largest Abelian subgroup         C1      NOp   1
 Largest concise Abelian subgroup C1      NOp   1
                         Standard orientation:                         
 ---------------------------------------------------------------------
 Center     Atomic      Atomic             Coordinates (Angstroms)
 Number     Number       Type             X           Y           Z
 ---------------------------------------------------------------------
      1          6           0       -0.742246    0.000050   -0.000142
      2          6           0       -1.463696   -0.956361   -0.734024
      3          6           0       -1.463674    0.956360    0.733959
      4          6           0       -2.857633   -0.956058   -0.734918
      5          1           0       -0.925062   -1.720492   -1.286494
      6          6           0        0.742247    0.000021    0.000024
      7          6           0       -2.857572    0.956036    0.734940
      8          1           0       -0.924948    1.720360    1.286531
      9          6           0       -3.561107   -0.000007   -0.000001
     10          1           0       -3.395111   -1.709824   -1.303210
     11          6           0        1.463664   -0.956332    0.734018
     12          6           0        1.463707    0.956452   -0.733889
     13          1           0       -3.395065    1.709709    1.303342
     14          1           0       -4.647083   -0.000026    0.000091
     15          6           0        2.857598   -0.956016    0.734998
     16          1           0        0.924994   -1.720365    1.286590
     17          6           0        2.857608    0.956029   -0.734929
     18          1           0        0.925007    1.720559   -1.286339
     19          6           0        3.561105   -0.000140   -0.000118
     20          1           0        3.395059   -1.709696    1.303418
     21          1           0        3.395129    1.709761   -1.303224
     22          1           0        4.647081   -0.000201   -0.000207
 ---------------------------------------------------------------------
 Rotational constants (GHZ):           2.8585222           0.5204057           0.4967785
 Leave Link  202 at Sat Nov  5 21:33:17 2022, MaxMem= 16106127360 cpu:               0.4 elap:               0.0
 (Enter /opt/ap/G16/B01/g16/l301.exe)
 Standard basis: 6-311++G(d,p) (5D, 7F)
 Ernie: Thresh=  0.10000D-02 Tol=  0.10000D-05 Strict=F.
 There are   346 symmetry adapted cartesian basis functions of A   symmetry.
 There are   334 symmetry adapted basis functions of A   symmetry.
   334 basis functions,   522 primitive gaussians,   346 cartesian basis functions
    41 alpha electrons       41 beta electrons
       nuclear repulsion energy       597.9669699055 Hartrees.
 IExCor= 4639 DFT=T Ex+Corr=wB97XD ExCW=0 ScaHFX=  1.000000
 ScaDFX=  1.000000  1.000000  1.000000  1.000000 ScalE2=  1.000000  1.000000
 IRadAn=      5 IRanWt=     -1 IRanGd=            0 ICorTp=0 IEmpDi=121
 HFx  wShort=  0.000000 wLong=  0.200000 cFull=  0.222036 cShort=  0.000000 cLong=  0.777964
 DFx  wShort=  0.000000 wLong=  0.200000 cFull=  0.000000 cShort=  0.000000 cLong=  1.000000
 NAtoms=   22 NActive=   22 NUniq=   22 SFac= 1.00D+00 NAtFMM=   60 NAOKFM=F Big=F
 Integral buffers will be    131072 words long.
 Raffenetti 2 integral format.
 Two-electron integral symmetry is turned on.
 R6Disp:  Grimme-D2 Dispersion energy=       -0.0118993627 Hartrees.
 Nuclear repulsion after empirical dispersion term =      597.9550705428 Hartrees.
 Leave Link  301 at Sat Nov  5 21:33:18 2022, MaxMem= 16106127360 cpu:               1.5 elap:               0.1
 (Enter /opt/ap/G16/B01/g16/l302.exe)
 NPDir=0 NMtPBC=     1 NCelOv=     1 NCel=       1 NClECP=     1 NCelD=      1
         NCelK=      1 NCelE2=     1 NClLst=     1 CellRange=     0.0.
 One-electron integrals computed using PRISM.
 One-electron integral symmetry used in STVInt
 NBasis=   334 RedAO= T EigKep=  1.90D-06  NBF=   334
 NBsUse=   332 1.00D-06 EigRej=  8.76D-07 NBFU=   332
 Precomputing XC quadrature grid using
 IXCGrd= 4 IRadAn=           5 IRanWt=          -1 IRanGd=           0 AccXCQ= 0.00D+00.
 Generated NRdTot=       0 NPtTot=           0 NUsed=           0 NTot=          32
 NSgBfM=   346   346   346   346   346 MxSgAt=    22 MxSgA2=    22.
 Leave Link  302 at Sat Nov  5 21:33:18 2022, MaxMem= 16106127360 cpu:               9.2 elap:               0.3
 (Enter /opt/ap/G16/B01/g16/l303.exe)
 DipDrv:  MaxL=1.
 Leave Link  303 at Sat Nov  5 21:33:18 2022, MaxMem= 16106127360 cpu:               1.6 elap:               0.1
 (Enter /opt/ap/G16/B01/g16/l401.exe)
 ExpMin= 3.60D-02 ExpMax= 4.56D+03 ExpMxC= 6.82D+02 IAcc=3 IRadAn=         5 AccDes= 0.00D+00
 Harris functional with IExCor= 4639 and IRadAn=       5 diagonalized for initial guess.
 HarFok:  IExCor= 4639 AccDes= 0.00D+00 IRadAn=         5 IDoV= 1 UseB2=F ITyADJ=14
 ICtDFT=  3500011 ScaDFX=  1.000000  1.000000  1.000000  1.000000
 FoFCou: FMM=F IPFlag=           0 FMFlag=      100000 FMFlg1=           0
         NFxFlg=           0 DoJE=T BraDBF=F KetDBF=T FulRan=T
         wScrn=  0.000000 ICntrl=       500 IOpCl=  0 I1Cent=   200000004 NGrid=           0
         NMat0=    1 NMatS0=      1 NMatT0=    0 NMatD0=    1 NMtDS0=    0 NMtDT0=    0
 Petite list used in FoFCou.
 Harris En= -441.937300796583    
 JPrj=0 DoOrth=F DoCkMO=F.
 Leave Link  401 at Sat Nov  5 21:33:19 2022, MaxMem= 16106127360 cpu:              22.5 elap:               0.7
 (Enter /opt/ap/G16/B01/g16/l502.exe)
 Integral symmetry usage will be decided dynamically.
 Closed shell SCF:
 Using DIIS extrapolation, IDIIS=  1040.
 NGot= 16106127360 LenX= 16105873520 LenY= 16105753363
 Requested convergence on RMS density matrix=1.00D-08 within 512 cycles.
 Requested convergence on MAX density matrix=1.00D-06.
 Requested convergence on             energy=1.00D-06.
 No special actions if energy rises.
 Fock matrices will be formed incrementally for  20 cycles.

 Cycle   1  Pass 1  IDiag  1:
 FoFJK:  IHMeth= 1 ICntrl=       0 DoSepK=T KAlg= 0 I1Cent=           0 FoldK=F
 IRaf=         1 NMat=       1 IRICut=       1 DoRegI=T DoRafI=F ISym2E= 0 IDoP0=0 IntGTp=1.
 FoFCou: FMM=F IPFlag=           0 FMFlag=      100000 FMFlg1=           0
         NFxFlg=           0 DoJE=T BraDBF=F KetDBF=F FulRan=T
         wScrn=  0.000000 ICntrl=       500 IOpCl=  0 I1Cent=           0 NGrid=           0
         NMat0=    1 NMatS0=      1 NMatT0=    0 NMatD0=    1 NMtDS0=    0 NMtDT0=    0
 Symmetry not used in FoFCou.
 E= -463.151125631253    
 DIIS: error= 6.13D-02 at cycle   1 NSaved=   1.
 NSaved= 1 IEnMin= 1 EnMin= -463.151125631253     IErMin= 1 ErrMin= 6.13D-02
 ErrMax= 6.13D-02  0.00D+00 EMaxC= 1.00D-01 BMatC= 9.52D-01 BMatP= 9.52D-01
 IDIUse=3 WtCom= 3.87D-01 WtEn= 6.13D-01
 Coeff-Com:  0.100D+01
 Coeff-En:   0.100D+01
 Coeff:      0.100D+01
 Gap=     0.363 Goal=   None    Shift=    0.000
 GapD=    0.363 DampG=1.000 DampE=0.500 DampFc=0.5000 IDamp=-1.
 Damping current iteration by 5.00D-01
 RMSDP=5.36D-02 MaxDP=3.19D+00              OVMax= 3.95D-02

 Cycle   2  Pass 1  IDiag  1:
 RMSU=  4.92D-03    CP:  7.66D-01
 E= -463.200018889820     Delta-E=       -0.048893258566 Rises=F Damp=T
 DIIS: error= 2.99D-02 at cycle   2 NSaved=   2.
 NSaved= 2 IEnMin= 2 EnMin= -463.200018889820     IErMin= 2 ErrMin= 2.99D-02
 ErrMax= 2.99D-02  0.00D+00 EMaxC= 1.00D-01 BMatC= 2.16D-01 BMatP= 9.52D-01
 IDIUse=3 WtCom= 7.01D-01 WtEn= 2.99D-01
 Coeff-Com: -0.882D+00 0.188D+01
 Coeff-En:   0.000D+00 0.100D+01
 Coeff:     -0.618D+00 0.162D+01
 Gap=     0.362 Goal=   None    Shift=    0.000
 RMSDP=2.41D-02 MaxDP=1.42D+00 DE=-4.89D-02 OVMax= 3.68D-02

 Cycle   3  Pass 1  IDiag  1:
 RMSU=  4.45D-03    CP:  5.56D-01  1.04D+00
 E= -463.243408796713     Delta-E=       -0.043389906893 Rises=F Damp=F
 DIIS: error= 5.15D-03 at cycle   3 NSaved=   3.
 NSaved= 3 IEnMin= 3 EnMin= -463.243408796713     IErMin= 3 ErrMin= 5.15D-03
 ErrMax= 5.15D-03  0.00D+00 EMaxC= 1.00D-01 BMatC= 4.92D-03 BMatP= 2.16D-01
 IDIUse=3 WtCom= 9.48D-01 WtEn= 5.15D-02
 Coeff-Com: -0.375D+00 0.798D+00 0.577D+00
 Coeff-En:   0.000D+00 0.000D+00 0.100D+01
 Coeff:     -0.356D+00 0.757D+00 0.599D+00
 Gap=     0.363 Goal=   None    Shift=    0.000
 RMSDP=3.53D-03 MaxDP=2.64D-01 DE=-4.34D-02 OVMax= 2.22D-02

 Cycle   4  Pass 1  IDiag  1:
 RMSU=  9.07D-04    CP:  5.32D-01  1.39D+00  7.21D-01
 E= -463.247807248002     Delta-E=       -0.004398451289 Rises=F Damp=F
 DIIS: error= 1.58D-03 at cycle   4 NSaved=   4.
 NSaved= 4 IEnMin= 4 EnMin= -463.247807248002     IErMin= 4 ErrMin= 1.58D-03
 ErrMax= 1.58D-03  0.00D+00 EMaxC= 1.00D-01 BMatC= 3.01D-04 BMatP= 4.92D-03
 IDIUse=3 WtCom= 9.84D-01 WtEn= 1.58D-02
 Coeff-Com: -0.135D+00 0.288D+00 0.286D+00 0.560D+00
 Coeff-En:   0.000D+00 0.000D+00 0.000D+00 0.100D+01
 Coeff:     -0.133D+00 0.284D+00 0.282D+00 0.567D+00
 Gap=     0.359 Goal=   None    Shift=    0.000
 RMSDP=9.44D-04 MaxDP=5.53D-02 DE=-4.40D-03 OVMax= 5.32D-03

 Cycle   5  Pass 1  IDiag  1:
 RMSU=  2.84D-04    CP:  5.26D-01  1.36D+00  8.03D-01  6.32D-01
 E= -463.248122854061     Delta-E=       -0.000315606059 Rises=F Damp=F
 DIIS: error= 2.42D-04 at cycle   5 NSaved=   5.
 NSaved= 5 IEnMin= 5 EnMin= -463.248122854061     IErMin= 5 ErrMin= 2.42D-04
 ErrMax= 2.42D-04  0.00D+00 EMaxC= 1.00D-01 BMatC= 8.13D-06 BMatP= 3.01D-04
 IDIUse=3 WtCom= 9.98D-01 WtEn= 2.42D-03
 Coeff-Com:  0.270D-01-0.576D-01-0.283D-01 0.115D+00 0.944D+00
 Coeff-En:   0.000D+00 0.000D+00 0.000D+00 0.000D+00 0.100D+01
 Coeff:      0.269D-01-0.575D-01-0.282D-01 0.115D+00 0.944D+00
 Gap=     0.359 Goal=   None    Shift=    0.000
 RMSDP=2.22D-04 MaxDP=9.84D-03 DE=-3.16D-04 OVMax= 1.26D-03

 Cycle   6  Pass 1  IDiag  1:
 RMSU=  5.29D-05    CP:  5.25D-01  1.34D+00  8.38D-01  7.21D-01  1.27D+00
 E= -463.248133596937     Delta-E=       -0.000010742875 Rises=F Damp=F
 DIIS: error= 5.79D-05 at cycle   6 NSaved=   6.
 NSaved= 6 IEnMin= 6 EnMin= -463.248133596937     IErMin= 6 ErrMin= 5.79D-05
 ErrMax= 5.79D-05  0.00D+00 EMaxC= 1.00D-01 BMatC= 5.45D-07 BMatP= 8.13D-06
 IDIUse=1 WtCom= 1.00D+00 WtEn= 0.00D+00
 Coeff-Com:  0.127D-01-0.271D-01-0.157D-01 0.298D-01 0.351D+00 0.649D+00
 Coeff:      0.127D-01-0.271D-01-0.157D-01 0.298D-01 0.351D+00 0.649D+00
 Gap=     0.359 Goal=   None    Shift=    0.000
 RMSDP=5.35D-05 MaxDP=3.70D-03 DE=-1.07D-05 OVMax= 2.47D-04

 Cycle   7  Pass 1  IDiag  1:
 RMSU=  1.23D-05    CP:  5.26D-01  1.33D+00  8.44D-01  7.22D-01  1.33D+00
                    CP:  1.14D+00
 E= -463.248134200835     Delta-E=       -0.000000603898 Rises=F Damp=F
 DIIS: error= 1.72D-05 at cycle   7 NSaved=   7.
 NSaved= 7 IEnMin= 7 EnMin= -463.248134200835     IErMin= 7 ErrMin= 1.72D-05
 ErrMax= 1.72D-05  0.00D+00 EMaxC= 1.00D-01 BMatC= 5.00D-08 BMatP= 5.45D-07
 IDIUse=1 WtCom= 1.00D+00 WtEn= 0.00D+00
 Coeff-Com: -0.203D-02 0.437D-02 0.194D-02-0.166D-01-0.100D+00 0.146D+00
 Coeff-Com:  0.967D+00
 Coeff:     -0.203D-02 0.437D-02 0.194D-02-0.166D-01-0.100D+00 0.146D+00
 Coeff:      0.967D+00
 Gap=     0.359 Goal=   None    Shift=    0.000
 RMSDP=3.14D-05 MaxDP=2.00D-03 DE=-6.04D-07 OVMax= 1.48D-04

 Cycle   8  Pass 1  IDiag  1:
 RMSU=  3.43D-06    CP:  5.26D-01  1.33D+00  8.48D-01  7.24D-01  1.37D+00
                    CP:  1.30D+00  1.30D+00
 E= -463.248134283995     Delta-E=       -0.000000083160 Rises=F Damp=F
 DIIS: error= 3.61D-06 at cycle   8 NSaved=   8.
 NSaved= 8 IEnMin= 8 EnMin= -463.248134283995     IErMin= 8 ErrMin= 3.61D-06
 ErrMax= 3.61D-06  0.00D+00 EMaxC= 1.00D-01 BMatC= 1.89D-09 BMatP= 5.00D-08
 IDIUse=1 WtCom= 1.00D+00 WtEn= 0.00D+00
 Coeff-Com: -0.490D-03 0.105D-02 0.693D-03-0.253D-02-0.150D-01-0.294D-03
 Coeff-Com:  0.205D-01 0.996D+00
 Coeff:     -0.490D-03 0.105D-02 0.693D-03-0.253D-02-0.150D-01-0.294D-03
 Coeff:      0.205D-01 0.996D+00
 Gap=     0.359 Goal=   None    Shift=    0.000
 RMSDP=5.55D-06 MaxDP=4.12D-04 DE=-8.32D-08 OVMax= 3.19D-05

 Cycle   9  Pass 1  IDiag  1:
 RMSU=  4.49D-07    CP:  5.26D-01  1.33D+00  8.48D-01  7.24D-01  1.38D+00
                    CP:  1.32D+00  1.39D+00  1.28D+00
 E= -463.248134288259     Delta-E=       -0.000000004265 Rises=F Damp=F
 DIIS: error= 1.93D-06 at cycle   9 NSaved=   9.
 NSaved= 9 IEnMin= 9 EnMin= -463.248134288259     IErMin= 9 ErrMin= 1.93D-06
 ErrMax= 1.93D-06  0.00D+00 EMaxC= 1.00D-01 BMatC= 3.52D-10 BMatP= 1.89D-09
 IDIUse=1 WtCom= 1.00D+00 WtEn= 0.00D+00
 Coeff-Com:  0.184D-03-0.398D-03-0.603D-04 0.189D-02 0.123D-01-0.193D-01
 Coeff-Com: -0.162D+00 0.315D+00 0.853D+00
 Coeff:      0.184D-03-0.398D-03-0.603D-04 0.189D-02 0.123D-01-0.193D-01
 Coeff:     -0.162D+00 0.315D+00 0.853D+00
 Gap=     0.359 Goal=   None    Shift=    0.000
 RMSDP=1.61D-06 MaxDP=1.01D-04 DE=-4.26D-09 OVMax= 1.95D-05

 Cycle  10  Pass 1  IDiag  1:
 RMSU=  2.26D-07    CP:  5.26D-01  1.33D+00  8.48D-01  7.24D-01  1.38D+00
                    CP:  1.32D+00  1.42D+00  1.39D+00  1.21D+00
 E= -463.248134289141     Delta-E=       -0.000000000882 Rises=F Damp=F
 DIIS: error= 4.62D-07 at cycle  10 NSaved=  10.
 NSaved=10 IEnMin=10 EnMin= -463.248134289141     IErMin=10 ErrMin= 4.62D-07
 ErrMax= 4.62D-07  0.00D+00 EMaxC= 1.00D-01 BMatC= 4.42D-11 BMatP= 3.52D-10
 IDIUse=1 WtCom= 1.00D+00 WtEn= 0.00D+00
 Coeff-Com:  0.705D-04-0.151D-03-0.614D-04 0.521D-03 0.283D-02-0.112D-02
 Coeff-Com: -0.260D-01-0.954D-01 0.188D+00 0.931D+00
 Coeff:      0.705D-04-0.151D-03-0.614D-04 0.521D-03 0.283D-02-0.112D-02
 Coeff:     -0.260D-01-0.954D-01 0.188D+00 0.931D+00
 Gap=     0.359 Goal=   None    Shift=    0.000
 RMSDP=4.55D-07 MaxDP=3.33D-05 DE=-8.82D-10 OVMax= 5.03D-06

 Cycle  11  Pass 1  IDiag  1:
 RMSU=  7.41D-08    CP:  5.26D-01  1.33D+00  8.48D-01  7.24D-01  1.38D+00
                    CP:  1.32D+00  1.42D+00  1.41D+00  1.37D+00  1.20D+00
 E= -463.248134289221     Delta-E=       -0.000000000080 Rises=F Damp=F
 DIIS: error= 1.10D-07 at cycle  11 NSaved=  11.
 NSaved=11 IEnMin=11 EnMin= -463.248134289221     IErMin=11 ErrMin= 1.10D-07
 ErrMax= 1.10D-07  0.00D+00 EMaxC= 1.00D-01 BMatC= 1.43D-12 BMatP= 4.42D-11
 IDIUse=1 WtCom= 1.00D+00 WtEn= 0.00D+00
 Coeff-Com: -0.196D-04 0.426D-04 0.150D-04-0.194D-03-0.130D-02 0.217D-02
 Coeff-Com:  0.152D-01-0.220D-01-0.529D-01-0.134D+00 0.119D+01
 Coeff:     -0.196D-04 0.426D-04 0.150D-04-0.194D-03-0.130D-02 0.217D-02
 Coeff:      0.152D-01-0.220D-01-0.529D-01-0.134D+00 0.119D+01
 Gap=     0.359 Goal=   None    Shift=    0.000
 RMSDP=2.92D-07 MaxDP=2.14D-05 DE=-8.00D-11 OVMax= 1.29D-06

 Cycle  12  Pass 1  IDiag  1:
 RMSU=  1.91D-08    CP:  5.26D-01  1.33D+00  8.48D-01  7.24D-01  1.38D+00
                    CP:  1.32D+00  1.41D+00  1.39D+00  1.42D+00  1.30D+00
                    CP:  1.29D+00
 E= -463.248134289223     Delta-E=       -0.000000000001 Rises=F Damp=F
 DIIS: error= 1.57D-08 at cycle  12 NSaved=  12.
 NSaved=12 IEnMin=12 EnMin= -463.248134289223     IErMin=12 ErrMin= 1.57D-08
 ErrMax= 1.57D-08  0.00D+00 EMaxC= 1.00D-01 BMatC= 5.95D-14 BMatP= 1.43D-12
 IDIUse=1 WtCom= 1.00D+00 WtEn= 0.00D+00
 Coeff-Com: -0.169D-05 0.357D-05 0.217D-05-0.817D-05-0.420D-04-0.352D-04
 Coeff-Com:  0.841D-04 0.458D-02-0.104D-02-0.451D-01-0.723D-01 0.111D+01
 Coeff:     -0.169D-05 0.357D-05 0.217D-05-0.817D-05-0.420D-04-0.352D-04
 Coeff:      0.841D-04 0.458D-02-0.104D-02-0.451D-01-0.723D-01 0.111D+01
 Gap=     0.359 Goal=   None    Shift=    0.000
 RMSDP=5.73D-08 MaxDP=3.94D-06 DE=-1.36D-12 OVMax= 2.51D-07

 Cycle  13  Pass 1  IDiag  1:
 RMSU=  5.19D-09    CP:  5.26D-01  1.33D+00  8.48D-01  7.24D-01  1.38D+00
                    CP:  1.32D+00  1.41D+00  1.39D+00  1.43D+00  1.30D+00
                    CP:  1.35D+00  1.29D+00
 E= -463.248134289229     Delta-E=       -0.000000000006 Rises=F Damp=F
 DIIS: error= 3.72D-09 at cycle  13 NSaved=  13.
 NSaved=13 IEnMin=13 EnMin= -463.248134289229     IErMin=13 ErrMin= 3.72D-09
 ErrMax= 3.72D-09  0.00D+00 EMaxC= 1.00D-01 BMatC= 2.36D-15 BMatP= 5.95D-14
 IDIUse=1 WtCom= 1.00D+00 WtEn= 0.00D+00
 Coeff-Com:  0.618D-06-0.135D-05-0.585D-06 0.679D-05 0.463D-04-0.819D-04
 Coeff-Com: -0.588D-03 0.125D-02 0.254D-02 0.123D-04-0.552D-01 0.103D+00
 Coeff-Com:  0.949D+00
 Coeff:      0.618D-06-0.135D-05-0.585D-06 0.679D-05 0.463D-04-0.819D-04
 Coeff:     -0.588D-03 0.125D-02 0.254D-02 0.123D-04-0.552D-01 0.103D+00
 Coeff:      0.949D+00
 Gap=     0.359 Goal=   None    Shift=    0.000
 RMSDP=4.47D-09 MaxDP=1.85D-07 DE=-5.91D-12 OVMax= 4.39D-08

 SCF Done:  E(RwB97XD) =  -463.248134289     A.U. after   13 cycles
            NFock= 13  Conv=0.45D-08     -V/T= 2.0049
 KE= 4.610093165546D+02 PE=-2.270235702741D+03 EE= 7.480231813548D+02
 Leave Link  502 at Sat Nov  5 21:33:42 2022, MaxMem= 16106127360 cpu:             755.6 elap:              23.7
 (Enter /opt/ap/G16/B01/g16/l601.exe)
 Copying SCF densities to generalized density rwf, IOpCl= 0 IROHF=0.

 **********************************************************************

            Population analysis using the SCF Density.

 **********************************************************************

 Orbital symmetries:
       Occupied  (A) (A) (A) (A) (A) (A) (A) (A) (A) (A) (A) (A)
                 (A) (A) (A) (A) (A) (A) (A) (A) (A) (A) (A) (A)
                 (A) (A) (A) (A) (A) (A) (A) (A) (A) (A) (A) (A)
                 (A) (A) (A) (A) (A)
       Virtual   (A) (A) (A) (A) (A) (A) (A) (A) (A) (A) (A) (A)
                 (A) (A) (A) (A) (A) (A) (A) (A) (A) (A) (A) (A)
                 (A) (A) (A) (A) (A) (A) (A) (A) (A) (A) (A) (A)
                 (A) (A) (A) (A) (A) (A) (A) (A) (A) (A) (A) (A)
                 (A) (A) (A) (A) (A) (A) (A) (A) (A) (A) (A) (A)
                 (A) (A) (A) (A) (A) (A) (A) (A) (A) (A) (A) (A)
                 (A) (A) (A) (A) (A) (A) (A) (A) (A) (A) (A) (A)
                 (A) (A) (A) (A) (A) (A) (A) (A) (A) (A) (A) (A)
                 (A) (A) (A) (A) (A) (A) (A) (A) (A) (A) (A) (A)
                 (A) (A) (A) (A) (A) (A) (A) (A) (A) (A) (A) (A)
                 (A) (A) (A) (A) (A) (A) (A) (A) (A) (A) (A) (A)
                 (A) (A) (A) (A) (A) (A) (A) (A) (A) (A) (A) (A)
                 (A) (A) (A) (A) (A) (A) (A) (A) (A) (A) (A) (A)
                 (A) (A) (A) (A) (A) (A) (A) (A) (A) (A) (A) (A)
                 (A) (A) (A) (A) (A) (A) (A) (A) (A) (A) (A) (A)
                 (A) (A) (A) (A) (A) (A) (A) (A) (A) (A) (A) (A)
                 (A) (A) (A) (A) (A) (A) (A) (A) (A) (A) (A) (A)
                 (A) (A) (A) (A) (A) (A) (A) (A) (A) (A) (A) (A)
                 (A) (A) (A) (A) (A) (A) (A) (A) (A) (A) (A) (A)
                 (A) (A) (A) (A) (A) (A) (A) (A) (A) (A) (A) (A)
                 (A) (A) (A) (A) (A) (A) (A) (A) (A) (A) (A) (A)
                 (A) (A) (A) (A) (A) (A) (A) (A) (A) (A) (A) (A)
                 (A) (A) (A) (A) (A) (A) (A) (A) (A) (A) (A) (A)
                 (A) (A) (A) (A) (A) (A) (A) (A) (A) (A) (A) (A)
                 (A) (A) (A)
 The electronic state is 1-A.
 Alpha  occ. eigenvalues --  -10.30392 -10.30362 -10.29313 -10.29313 -10.29299
 Alpha  occ. eigenvalues --  -10.29299 -10.29237 -10.29237 -10.29226 -10.29226
 Alpha  occ. eigenvalues --  -10.29202 -10.29202  -0.97500  -0.95293  -0.88152
 Alpha  occ. eigenvalues --   -0.85085  -0.84848  -0.82379  -0.72303  -0.70734
 Alpha  occ. eigenvalues --   -0.69822  -0.67469  -0.62491  -0.59592  -0.55770
 Alpha  occ. eigenvalues --   -0.54982  -0.54117  -0.53458  -0.51002  -0.50873
 Alpha  occ. eigenvalues --   -0.50773  -0.46247  -0.45566  -0.45539  -0.43046
 Alpha  occ. eigenvalues --   -0.42621  -0.41876  -0.33840  -0.33743  -0.33136
 Alpha  occ. eigenvalues --   -0.32027
 Alpha virt. eigenvalues --    0.03859   0.04107   0.04175   0.04561   0.05059
 Alpha virt. eigenvalues --    0.05590   0.05980   0.06082   0.06290   0.06976
 Alpha virt. eigenvalues --    0.07378   0.07544   0.09197   0.09211   0.12627
 Alpha virt. eigenvalues --    0.12682   0.13138   0.13355   0.14985   0.15107
 Alpha virt. eigenvalues --    0.15541   0.15845   0.15939   0.16236   0.17075
 Alpha virt. eigenvalues --    0.17380   0.17464   0.17489   0.17500   0.17516
 Alpha virt. eigenvalues --    0.18704   0.18816   0.18947   0.19255   0.19412
 Alpha virt. eigenvalues --    0.20480   0.20526   0.22067   0.22116   0.22328
 Alpha virt. eigenvalues --    0.22476   0.22687   0.23631   0.24132   0.25228
 Alpha virt. eigenvalues --    0.25318   0.26180   0.26310   0.27097   0.27167
 Alpha virt. eigenvalues --    0.27627   0.27920   0.29552   0.30138   0.30362
 Alpha virt. eigenvalues --    0.31023   0.31464   0.31893   0.32473   0.32802
 Alpha virt. eigenvalues --    0.33624   0.33863   0.34320   0.34924   0.35362
 Alpha virt. eigenvalues --    0.35560   0.35637   0.35979   0.36426   0.37201
 Alpha virt. eigenvalues --    0.37585   0.38046   0.38859   0.40802   0.42764
 Alpha virt. eigenvalues --    0.43338   0.43899   0.45521   0.45693   0.46345
 Alpha virt. eigenvalues --    0.47929   0.55715   0.58680   0.60775   0.60801
 Alpha virt. eigenvalues --    0.61099   0.61229   0.62150   0.62309   0.63337
 Alpha virt. eigenvalues --    0.63635   0.64060   0.64168   0.64870   0.65728
 Alpha virt. eigenvalues --    0.65934   0.66518   0.67679   0.68988   0.70389
 Alpha virt. eigenvalues --    0.72520   0.73157   0.73709   0.74021   0.74730
 Alpha virt. eigenvalues --    0.77254   0.77982   0.79008   0.80618   0.80968
 Alpha virt. eigenvalues --    0.81030   0.81782   0.81809   0.82092   0.82725
 Alpha virt. eigenvalues --    0.83042   0.85998   0.86148   0.88499   0.89658
 Alpha virt. eigenvalues --    0.90713   0.92163   0.92747   0.93545   0.93911
 Alpha virt. eigenvalues --    0.95190   0.95738   0.96853   0.97389   0.97795
 Alpha virt. eigenvalues --    0.98968   1.01181   1.02356   1.03178   1.03848
 Alpha virt. eigenvalues --    1.04251   1.09176   1.09663   1.10731   1.10850
 Alpha virt. eigenvalues --    1.11229   1.13742   1.13982   1.15434   1.16539
 Alpha virt. eigenvalues --    1.17456   1.19522   1.24509   1.25400   1.26093
 Alpha virt. eigenvalues --    1.28619   1.37513   1.40290   1.41559   1.44864
 Alpha virt. eigenvalues --    1.48323   1.57950   1.58374   1.59443   1.59686
 Alpha virt. eigenvalues --    1.59955   1.61862   1.63523   1.64163   1.65040
 Alpha virt. eigenvalues --    1.65462   1.65712   1.66590   1.71427   1.72622
 Alpha virt. eigenvalues --    1.73058   1.73435   1.74578   1.74580   1.74719
 Alpha virt. eigenvalues --    1.81546   1.82679   1.82698   1.85153   1.86025
 Alpha virt. eigenvalues --    1.86521   1.87263   1.87763   1.92099   1.92260
 Alpha virt. eigenvalues --    1.92999   1.96502   1.98070   1.98667   2.00804
 Alpha virt. eigenvalues --    2.03902   2.04192   2.04344   2.04629   2.04922
 Alpha virt. eigenvalues --    2.05325   2.09357   2.10172   2.11055   2.11560
 Alpha virt. eigenvalues --    2.12600   2.15823   2.17051   2.17188   2.18836
 Alpha virt. eigenvalues --    2.20589   2.30819   2.34829   2.35108   2.38987
 Alpha virt. eigenvalues --    2.47251   2.51660   2.52044   2.52469   2.53015
 Alpha virt. eigenvalues --    2.55053   2.55840   2.56020   2.57657   2.65669
 Alpha virt. eigenvalues --    2.70906   2.72490   2.73410   2.74317   2.75154
 Alpha virt. eigenvalues --    2.79167   2.80396   2.80499   2.80589   2.80943
 Alpha virt. eigenvalues --    2.82592   2.83391   2.83967   2.85403   2.85910
 Alpha virt. eigenvalues --    2.86877   2.89005   2.91002   2.91674   2.91935
 Alpha virt. eigenvalues --    2.92129   2.94370   2.98221   2.99117   2.99663
 Alpha virt. eigenvalues --    3.00922   3.04024   3.04157   3.05289   3.12977
 Alpha virt. eigenvalues --    3.15327   3.21022   3.22603   3.26137   3.28220
 Alpha virt. eigenvalues --    3.36483   3.43880   3.45193   3.48501   3.48889
 Alpha virt. eigenvalues --    3.58521   3.60306   3.63581   3.64486   3.69062
 Alpha virt. eigenvalues --    3.73421   3.75671   3.94205   4.08951   4.09566
 Alpha virt. eigenvalues --    4.13434   4.14759   4.24879   4.24929   4.25239
 Alpha virt. eigenvalues --    4.26251   4.49146   4.93697   4.94910  23.71045
 Alpha virt. eigenvalues --   23.85333  24.06843  24.09026  24.09158  24.11325
 Alpha virt. eigenvalues --   24.17395  24.22061  24.22390  24.23201  24.30881
 Alpha virt. eigenvalues --   24.32485
          Condensed to atoms (all electrons):
               1          2          3          4          5          6
     1  C   18.630172   1.166764   1.166804  -1.759235   0.119399  -6.858389
     2  C    1.166764  12.297647  -2.777499  -0.114966   0.372404  -3.519403
     3  C    1.166804  -2.777499  12.293028  -1.138960   0.084394  -3.516157
     4  C   -1.759235  -0.114966  -1.138960   6.699197  -0.110366   1.438823
     5  H    0.119399   0.372404   0.084394  -0.110366   0.466563  -0.092352
     6  C   -6.858389  -3.519403  -3.516157   1.438823  -0.092352  18.630858
     7  C   -1.758849  -1.138536  -0.113115   0.247549  -0.016302   1.436895
     8  H    0.119360   0.084426   0.372269  -0.016315   0.000272  -0.092209
     9  C   -0.137765   0.617148   0.616271   0.077512   0.020648  -1.352997
    10  H    0.030415  -0.108030  -0.026368   0.440675  -0.012309   0.047778
    11  C   -3.519504  -0.264145  -0.390281   0.279025  -0.020175   1.167250
    12  C   -3.515545  -0.389969  -0.263176   0.254119  -0.051857   1.166151
    13  H    0.030378  -0.026390  -0.107905   0.019193  -0.000218   0.047767
    14  H    0.027991   0.022423   0.022426  -0.053139   0.000830  -0.036706
    15  C    1.438877   0.278700   0.254603  -0.028736   0.018268  -1.759602
    16  H   -0.092336  -0.020183  -0.051874   0.018256   0.000517   0.119455
    17  C    1.436654   0.253858   0.278736  -0.060666   0.018479  -1.758578
    18  H   -0.092203  -0.051852  -0.020128   0.018491  -0.002029   0.119278
    19  C   -1.352841  -0.150530  -0.150746   0.044594  -0.015926  -0.137711
    20  H    0.047781   0.000096   0.008503  -0.001150   0.000411   0.030410
    21  H    0.047754   0.008482   0.000113  -0.000690   0.000531   0.030391
    22  H   -0.036705  -0.004597  -0.004618   0.001214  -0.000506   0.027993
               7          8          9         10         11         12
     1  C   -1.758849   0.119360  -0.137765   0.030415  -3.519504  -3.515545
     2  C   -1.138536   0.084426   0.617148  -0.108030  -0.264145  -0.389969
     3  C   -0.113115   0.372269   0.616271  -0.026368  -0.390281  -0.263176
     4  C    0.247549  -0.016315   0.077512   0.440675   0.279025   0.254119
     5  H   -0.016302   0.000272   0.020648  -0.012309  -0.020175  -0.051857
     6  C    1.436895  -0.092209  -1.352997   0.047778   1.167250   1.166151
     7  C    6.698074  -0.110316   0.078014   0.019175   0.254116   0.278616
     8  H   -0.110316   0.466555   0.020637  -0.000218  -0.051819  -0.020185
     9  C    0.078014   0.020637   6.438588  -0.084439  -0.150769  -0.150480
    10  H    0.019175  -0.000218  -0.084439   0.480750   0.000115   0.008484
    11  C    0.254116  -0.051819  -0.150769   0.000115  12.298624  -2.778151
    12  C    0.278616  -0.020185  -0.150480   0.008484  -2.778151  12.292881
    13  H    0.440618  -0.012307  -0.084460   0.000434   0.008488   0.000106
    14  H   -0.053146   0.000831   0.415178  -0.008597  -0.004610  -0.004603
    15  C   -0.060596   0.018505   0.044549  -0.001146  -0.115611  -1.138419
    16  H    0.018482  -0.002029  -0.015922   0.000410   0.372412   0.084388
    17  C   -0.028434   0.018200   0.044490  -0.000688  -1.138680  -0.112494
    18  H    0.018224   0.000522  -0.015920   0.000531   0.084386   0.372289
    19  C    0.044435  -0.015917  -0.028608   0.000259   0.617402   0.615798
    20  H   -0.000685   0.000531   0.000259   0.000055  -0.108039  -0.026354
    21  H   -0.001141   0.000410   0.000258   0.000017  -0.026381  -0.107896
    22  H    0.001208  -0.000506  -0.000637   0.000006   0.022449   0.022396
              13         14         15         16         17         18
     1  C    0.030378   0.027991   1.438877  -0.092336   1.436654  -0.092203
     2  C   -0.026390   0.022423   0.278700  -0.020183   0.253858  -0.051852
     3  C   -0.107905   0.022426   0.254603  -0.051874   0.278736  -0.020128
     4  C    0.019193  -0.053139  -0.028736   0.018256  -0.060666   0.018491
     5  H   -0.000218   0.000830   0.018268   0.000517   0.018479  -0.002029
     6  C    0.047767  -0.036706  -1.759602   0.119455  -1.758578   0.119278
     7  C    0.440618  -0.053146  -0.060596   0.018482  -0.028434   0.018224
     8  H   -0.012307   0.000831   0.018505  -0.002029   0.018200   0.000522
     9  C   -0.084460   0.415178   0.044549  -0.015922   0.044490  -0.015920
    10  H    0.000434  -0.008597  -0.001146   0.000410  -0.000688   0.000531
    11  C    0.008488  -0.004610  -0.115611   0.372412  -1.138680   0.084386
    12  C    0.000106  -0.004603  -1.138419   0.084388  -0.112494   0.372289
    13  H    0.480750  -0.008598  -0.000690   0.000531  -0.001143   0.000410
    14  H   -0.008598   0.471555   0.001212  -0.000506   0.001210  -0.000506
    15  C   -0.000690   0.001212   6.699519  -0.110417   0.247473  -0.016304
    16  H    0.000531  -0.000506  -0.110417   0.466569  -0.016305   0.000271
    17  C   -0.001143   0.001210   0.247473  -0.016305   6.697721  -0.110257
    18  H    0.000410  -0.000506  -0.016304   0.000271  -0.110257   0.466551
    19  C    0.000258  -0.000637   0.077411   0.020661   0.078204   0.020628
    20  H    0.000017   0.000006   0.440693  -0.012311   0.019172  -0.000218
    21  H    0.000055   0.000006   0.019183  -0.000218   0.440600  -0.012306
    22  H    0.000006  -0.000010  -0.053163   0.000831  -0.053128   0.000830
              19         20         21         22
     1  C   -1.352841   0.047781   0.047754  -0.036705
     2  C   -0.150530   0.000096   0.008482  -0.004597
     3  C   -0.150746   0.008503   0.000113  -0.004618
     4  C    0.044594  -0.001150  -0.000690   0.001214
     5  H   -0.015926   0.000411   0.000531  -0.000506
     6  C   -0.137711   0.030410   0.030391   0.027993
     7  C    0.044435  -0.000685  -0.001141   0.001208
     8  H   -0.015917   0.000531   0.000410  -0.000506
     9  C   -0.028608   0.000259   0.000258  -0.000637
    10  H    0.000259   0.000055   0.000017   0.000006
    11  C    0.617402  -0.108039  -0.026381   0.022449
    12  C    0.615798  -0.026354  -0.107896   0.022396
    13  H    0.000258   0.000017   0.000055   0.000006
    14  H   -0.000637   0.000006   0.000006  -0.000010
    15  C    0.077411   0.440693   0.019183  -0.053163
    16  H    0.020661  -0.012311  -0.000218   0.000831
    17  C    0.078204   0.019172   0.440600  -0.053128
    18  H    0.020628  -0.000218  -0.012306   0.000830
    19  C    6.438513  -0.084457  -0.084448   0.415187
    20  H   -0.084457   0.480751   0.000434  -0.008599
    21  H   -0.084448   0.000434   0.480749  -0.008597
    22  H    0.415187  -0.008599  -0.008597   0.471557
 Mulliken charges:
               1
     1  C    0.861026
     2  C   -0.535849
     3  C   -0.536320
     4  C   -0.254426
     5  H    0.219326
     6  C    0.861057
     7  C   -0.254286
     8  H    0.219304
     9  C   -0.351555
    10  H    0.212691
    11  C   -0.536102
    12  C   -0.536100
    13  H    0.212697
    14  H    0.207389
    15  C   -0.254309
    16  H    0.219319
    17  C   -0.254424
    18  H    0.219311
    19  C   -0.351529
    20  H    0.212695
    21  H    0.212694
    22  H    0.207389
 Sum of Mulliken charges =  -0.00000
 Mulliken charges with hydrogens summed into heavy atoms:
               1
     1  C    0.861026
     2  C   -0.316524
     3  C   -0.317016
     4  C   -0.041735
     6  C    0.861057
     7  C   -0.041589
     9  C   -0.144166
    11  C   -0.316783
    12  C   -0.316789
    15  C   -0.041614
    17  C   -0.041730
    19  C   -0.144140
 Electronic spatial extent (au):  <R**2>=           2312.0166
 Charge=             -0.0000 electrons
 Dipole moment (field-independent basis, Debye):
    X=              0.0000    Y=             -0.0002    Z=              0.0003  Tot=              0.0003
 Quadrupole moment (field-independent basis, Debye-Ang):
   XX=            -61.7849   YY=            -67.1063   ZZ=            -71.8621
   XY=              0.0004   XZ=             -0.0006   YZ=             -0.0000
 Traceless Quadrupole moment (field-independent basis, Debye-Ang):
   XX=              5.1329   YY=             -0.1885   ZZ=             -4.9443
   XY=              0.0004   XZ=             -0.0006   YZ=             -0.0000
 Octapole moment (field-independent basis, Debye-Ang**2):
  XXX=              0.0003  YYY=             -0.0006  ZZZ=              0.0033  XYY=             -0.0005
  XXY=             -0.0027  XXZ=              0.0011  XZZ=              0.0005  YZZ=             -0.0010
  YYZ=             -0.0002  XYZ=            -18.4001
 Hexadecapole moment (field-independent basis, Debye-Ang**3):
 XXXX=          -2302.6394 YYYY=           -403.3090 ZZZZ=           -289.2788 XXXY=             -0.0003
 XXXZ=             -0.0220 YYYX=              0.0092 YYYZ=              0.0000 ZZZX=              0.0012
 ZZZY=             -0.0000 XXYY=           -483.7366 XXZZ=           -492.6534 YYZZ=            -95.5900
 XXYZ=             -0.0007 YYXZ=              0.0018 ZZXY=             -0.0035
 N-N= 5.979550705428D+02 E-N=-2.270235702466D+03  KE= 4.610093165546D+02
 No NMR shielding tensors so no spin-rotation constants.
 Leave Link  601 at Sat Nov  5 21:33:43 2022, MaxMem= 16106127360 cpu:               4.3 elap:               0.2
 (Enter /opt/ap/G16/B01/g16/l9999.exe)
 1\1\GINC-N08\SP\RwB97XD\6-311++G(d,p)\C12H10\ROOT\05-Nov-2022\0\\#P wB
 97XD/6-311++G(d,p) scf=maxcycle=512\\_conf003.gjf nmol_natom 1_22\\0,1
 \C\C,1,1.40491871\C,1,1.40495292,2,118.20503621\C,2,1.3939373,1,120.91
 08946,3,0.05365643,0\H,2,1.08593095,1,119.3452094,3,-178.3624307,0\C,1
 ,1.48449301,2,120.90144423,4,-179.96388019,0\C,3,1.39389842,1,120.9105
 0598,2,0.03587687,0\H,3,1.08593608,1,119.34159615,2,-178.38281524,0\C,
 4,1.39606958,2,120.24555868,1,-0.09283196,0\H,4,1.08627898,2,119.66792
 041,1,-179.51486187,0\C,6,1.40492034,1,120.90156908,2,-75.,0\C,6,1.404
 95329,1,120.89324856,2,105.,0\H,7,1.08627928,3,119.67027175,1,-179.512
 58183,0\H,9,1.08597601,4,120.2602535,2,-179.95233103,0\C,11,1.39393437
 ,6,120.91099656,1,-179.95869964,0\H,11,1.08593173,6,119.34475907,1,1.6
 1891886,0\C,12,1.39390147,6,120.91022615,1,-179.94297913,0\H,12,1.0859
 3608,6,119.34175044,1,1.63241608,0\C,15,1.39607161,11,120.24535737,6,-
 0.10315482,0\H,15,1.08627786,11,119.66861247,6,-179.51844254,0\H,17,1.
 08627825,12,119.6702798,6,-179.51590091,0\H,19,1.08597601,15,120.25988
 597,11,-179.94731581,0\\Version=ES64L-G16RevB.01\State=1-A\HF=-463.248
 1343\RMSD=4.471e-09\Dipole=0.0000078,-0.0001333,-0.000025\Quadrupole=2
 .4270088,-2.365297,-0.0617118,0.877375,2.3209788,-1.4651396\PG=C01 [X(
 C12H10)]\\@


 A CHEMICAL PHYSICIST MAKES PRECISE MEASUREMENTS ON IMPURE COMPOUNDS.
 A THEORETICAL PHYSICAL CHEMIST MAKES IMPRECISE
     MEASUREMENTS ON PURE COMPOUNDS.
 AN EXPERIMENTAL PHYSICAL CHEMIST MAKES IMPRECISE
     MEASUREMENTS ON IMPURE COMPOUNDS.
 Job cpu time:       0 days  0 hours 13 minutes 26.4 seconds.
 Elapsed time:       0 days  0 hours  0 minutes 25.4 seconds.
 File lengths (MBytes):  RWF=     62 Int=      0 D2E=      0 Chk=      8 Scr=      1
 Normal termination of Gaussian 16 at Sat Nov  5 21:33:43 2022.
