 Entering Gaussian System, Link 0=g16
 Input=_conf021.gjf
 Output=_conf021.log
 Initial command:
 /opt/ap/G16/B01/g16/l1.exe "/tmp2/scr/Gau-24588.inp" -scrdir="/tmp2/scr/"
 Entering Link 1 = /opt/ap/G16/B01/g16/l1.exe PID=     24589.
  
 Copyright (c) 1988-2017, Gaussian, Inc.  All Rights Reserved.
  
 This is part of the Gaussian(R) 16 program.  It is based on
 the Gaussian(R) 09 system (copyright 2009, Gaussian, Inc.),
 the Gaussian(R) 03 system (copyright 2003, Gaussian, Inc.),
 the Gaussian(R) 98 system (copyright 1998, Gaussian, Inc.),
 the Gaussian(R) 94 system (copyright 1995, Gaussian, Inc.),
 the Gaussian 92(TM) system (copyright 1992, Gaussian, Inc.),
 the Gaussian 90(TM) system (copyright 1990, Gaussian, Inc.),
 the Gaussian 88(TM) system (copyright 1988, Gaussian, Inc.),
 the Gaussian 86(TM) system (copyright 1986, Carnegie Mellon
 University), and the Gaussian 82(TM) system (copyright 1983,
 Carnegie Mellon University). Gaussian is a federally registered
 trademark of Gaussian, Inc.
  
 This software contains proprietary and confidential information,
 including trade secrets, belonging to Gaussian, Inc.
  
 This software is provided under written license and may be
 used, copied, transmitted, or stored only in accord with that
 written license.
  
 The following legend is applicable only to US Government
 contracts under FAR:
  
                    RESTRICTED RIGHTS LEGEND
  
 Use, reproduction and disclosure by the US Government is
 subject to restrictions as set forth in subparagraphs (a)
 and (c) of the Commercial Computer Software - Restricted
 Rights clause in FAR 52.227-19.
  
 Gaussian, Inc.
 340 Quinnipiac St., Bldg. 40, Wallingford CT 06492
  
  
 ---------------------------------------------------------------
 Warning -- This program may not be used in any manner that
 competes with the business of Gaussian, Inc. or will provide
 assistance to any competitor of Gaussian, Inc.  The licensee
 of this program is prohibited from giving any competitor of
 Gaussian, Inc. access to this program.  By using this program,
 the user acknowledges that Gaussian, Inc. is engaged in the
 business of creating and licensing software in the field of
 computational chemistry and represents and warrants to the
 licensee that it is not a competitor of Gaussian, Inc. and that
 it will not use this program in any manner prohibited above.
 ---------------------------------------------------------------
  

 Cite this work as:
 Gaussian 16, Revision B.01,
 M. J. Frisch, G. W. Trucks, H. B. Schlegel, G. E. Scuseria, 
 M. A. Robb, J. R. Cheeseman, G. Scalmani, V. Barone, 
 G. A. Petersson, H. Nakatsuji, X. Li, M. Caricato, A. V. Marenich, 
 J. Bloino, B. G. Janesko, R. Gomperts, B. Mennucci, H. P. Hratchian, 
 J. V. Ortiz, A. F. Izmaylov, J. L. Sonnenberg, D. Williams-Young, 
 F. Ding, F. Lipparini, F. Egidi, J. Goings, B. Peng, A. Petrone, 
 T. Henderson, D. Ranasinghe, V. G. Zakrzewski, J. Gao, N. Rega, 
 G. Zheng, W. Liang, M. Hada, M. Ehara, K. Toyota, R. Fukuda, 
 J. Hasegawa, M. Ishida, T. Nakajima, Y. Honda, O. Kitao, H. Nakai, 
 T. Vreven, K. Throssell, J. A. Montgomery, Jr., J. E. Peralta, 
 F. Ogliaro, M. J. Bearpark, J. J. Heyd, E. N. Brothers, K. N. Kudin, 
 V. N. Staroverov, T. A. Keith, R. Kobayashi, J. Normand, 
 K. Raghavachari, A. P. Rendell, J. C. Burant, S. S. Iyengar, 
 J. Tomasi, M. Cossi, J. M. Millam, M. Klene, C. Adamo, R. Cammi, 
 J. W. Ochterski, R. L. Martin, K. Morokuma, O. Farkas, 
 J. B. Foresman, and D. J. Fox, Gaussian, Inc., Wallingford CT, 2016.
 
 ******************************************
 Gaussian 16:  ES64L-G16RevB.01 20-Dec-2017
                 5-Nov-2022 
 ******************************************
 %nprocshared=32
 Will use up to   32 processors via shared memory.
 %mem=120GB
 %chk=_conf021.chk
 ----------------------------------------
 #P wB97XD/6-311++G(d,p) scf=maxcycle=512
 ----------------------------------------
 1/38=1,172=1/1;
 2/12=2,17=6,18=5,40=1/2;
 3/5=4,6=6,7=1111,11=2,25=1,30=1,74=-58/1,2,3;
 4//1;
 5/5=2,7=512,38=5/2;
 6/7=2,8=2,9=2,10=2,28=1/1;
 99/5=1,9=1/99;
 Leave Link    1 at Sat Nov  5 21:35:25 2022, MaxMem= 16106127360 cpu:               1.8 elap:               0.1
 (Enter /opt/ap/G16/B01/g16/l101.exe)
 ----------------------------
 _conf021.gjf nmol_natom 1_22
 ----------------------------
 Symbolic Z-matrix:
 Charge =  0 Multiplicity = 1
 C
 C                    1     1.40492 
 C                    1     1.40495  2     118.20504 
 C                    2     1.39394  1     120.91089  3     0.05366  0
 H                    2     1.08593  1     119.34521  3    -178.36243  0
 C                    1     1.48449  2     120.90144  4    -179.96388  0
 C                    3     1.3939   1     120.91051  2     0.03588  0
 H                    3     1.08594  1     119.3416  2    -178.38282  0
 C                    4     1.39607  2     120.24556  1    -0.09283  0
 H                    4     1.08628  2     119.66792  1    -179.51486  0
 C                    6     1.40492  1     120.90157  2     15.      0
 C                    6     1.40495  1     120.89325  2    -165.     0
 H                    7     1.08628  3     119.67027  1    -179.51258  0
 H                    9     1.08598  4     120.26025  2    -179.95233  0
 C                    11    1.39393  6     120.911  1    -179.9587  0
 H                    11    1.08593  6     119.34476  1     1.61892  0
 C                    12    1.3939   6     120.91023  1    -179.94298  0
 H                    12    1.08594  6     119.34175  1     1.63242  0
 C                    15    1.39607  11    120.24536  6    -0.10315  0
 H                    15    1.08628  11    119.66861  6    -179.51844  0
 H                    17    1.08628  12    119.67028  6    -179.5159  0
 H                    19    1.08598  15    120.25989  11   -179.94732  0
 
 ITRead=  0  0  0  0  0  0  0  0  0  0  0  0  0  0  0  0  0  0  0  0
 ITRead=  0  0
 MicOpt= -1 -1 -1 -1 -1 -1 -1 -1 -1 -1 -1 -1 -1 -1 -1 -1 -1 -1 -1 -1
 MicOpt= -1 -1
 NAtoms=     22 NQM=       22 NQMF=       0 NMMI=      0 NMMIF=      0
                NMic=       0 NMicF=      0.
                    Isotopes and Nuclear Properties:
 (Nuclear quadrupole moments (NQMom) in fm**2, nuclear magnetic moments (NMagM)
  in nuclear magnetons)

  Atom         1           2           3           4           5           6           7           8           9          10
 IAtWgt=          12          12          12          12           1          12          12           1          12           1
 AtmWgt=  12.0000000  12.0000000  12.0000000  12.0000000   1.0078250  12.0000000  12.0000000   1.0078250  12.0000000   1.0078250
 NucSpn=           0           0           0           0           1           0           0           1           0           1
 AtZEff=  -0.0000000  -0.0000000  -0.0000000  -0.0000000  -0.0000000  -0.0000000  -0.0000000  -0.0000000  -0.0000000  -0.0000000
 NQMom=    0.0000000   0.0000000   0.0000000   0.0000000   0.0000000   0.0000000   0.0000000   0.0000000   0.0000000   0.0000000
 NMagM=    0.0000000   0.0000000   0.0000000   0.0000000   2.7928460   0.0000000   0.0000000   2.7928460   0.0000000   2.7928460
 AtZNuc=   6.0000000   6.0000000   6.0000000   6.0000000   1.0000000   6.0000000   6.0000000   1.0000000   6.0000000   1.0000000

  Atom        11          12          13          14          15          16          17          18          19          20
 IAtWgt=          12          12           1           1          12           1          12           1          12           1
 AtmWgt=  12.0000000  12.0000000   1.0078250   1.0078250  12.0000000   1.0078250  12.0000000   1.0078250  12.0000000   1.0078250
 NucSpn=           0           0           1           1           0           1           0           1           0           1
 AtZEff=  -0.0000000  -0.0000000  -0.0000000  -0.0000000  -0.0000000  -0.0000000  -0.0000000  -0.0000000  -0.0000000  -0.0000000
 NQMom=    0.0000000   0.0000000   0.0000000   0.0000000   0.0000000   0.0000000   0.0000000   0.0000000   0.0000000   0.0000000
 NMagM=    0.0000000   0.0000000   2.7928460   2.7928460   0.0000000   2.7928460   0.0000000   2.7928460   0.0000000   2.7928460
 AtZNuc=   6.0000000   6.0000000   1.0000000   1.0000000   6.0000000   1.0000000   6.0000000   1.0000000   6.0000000   1.0000000

  Atom        21          22
 IAtWgt=           1           1
 AtmWgt=   1.0078250   1.0078250
 NucSpn=           1           1
 AtZEff=  -0.0000000  -0.0000000
 NQMom=    0.0000000   0.0000000
 NMagM=    2.7928460   2.7928460
 AtZNuc=   1.0000000   1.0000000
 Leave Link  101 at Sat Nov  5 21:35:25 2022, MaxMem= 16106127360 cpu:               5.3 elap:               0.2
 (Enter /opt/ap/G16/B01/g16/l202.exe)
                          Input orientation:                          
 ---------------------------------------------------------------------
 Center     Atomic      Atomic             Coordinates (Angstroms)
 Number     Number       Type             X           Y           Z
 ---------------------------------------------------------------------
      1          6           0        0.000000    0.000000    0.000000
      2          6           0        0.000000    0.000000    1.404919
      3          6           0        1.238131    0.000000   -0.664020
      4          6           0        1.195952    0.001120    2.120990
      5          1           0       -0.946201   -0.027051    1.937101
      6          6           0       -1.273772   -0.000390   -0.762381
      7          6           0        2.434381   -0.000749    0.051479
      8          1           0        1.259850    0.026715   -1.749411
      9          6           0        2.418826    0.000311    1.447501
     10          1           0        1.172413   -0.006894    3.206985
     11          6           0       -2.490968    0.311242   -0.133795
     12          6           0       -1.294573   -0.312435   -2.132084
     13          1           0        3.380326    0.007295   -0.482493
     14          1           0        3.350700    0.000403    2.005133
     15          6           0       -3.687264    0.310103   -0.849286
     16          1           0       -2.492933    0.581030    0.918088
     17          6           0       -2.490250   -0.311759   -2.848547
     18          1           0       -0.368252   -0.582129   -2.630533
     19          6           0       -3.692346   -0.000767   -2.210297
     20          1           0       -4.615766    0.561803   -0.344775
     21          1           0       -2.484118   -0.563801   -3.905163
     22          1           0       -4.624097   -0.000892   -2.768135
 ---------------------------------------------------------------------
                    Distance matrix (angstroms):
                    1          2          3          4          5
     1  C    0.000000
     2  C    1.404919   0.000000
     3  C    1.404953   2.411116   0.000000
     4  C    2.434934   1.393937   2.785330   0.000000
     5  H    2.156012   1.085931   3.396745   2.150216   0.000000
     6  C    1.484493   2.513898   2.513829   3.796494   2.719415
     7  C    2.434925   2.785320   1.393898   2.411760   3.870994
     8  H    2.156008   3.396723   1.085936   3.871013   4.296501
     9  C    2.818861   2.419201   2.419207   1.396070   3.400568
    10  H    3.414579   2.149893   3.871569   1.086279   2.470128
    11  C    2.513901   2.944390   3.779444   4.332853   2.605640
    12  C    2.513826   3.779408   2.944048   4.938591   4.094030
    13  H    3.414594   3.871560   2.149884   3.398478   4.957262
    14  H    3.904837   3.404035   3.404016   2.157861   4.297527
    15  C    3.796494   4.332842   4.938624   5.723969   3.923144
    16  H    2.719411   2.605631   4.094082   3.923154   1.949495
    17  C    3.796414   4.938675   4.332456   6.195343   5.036623
    18  H    2.719225   4.093819   2.605093   5.036257   4.637394
    19  C    4.303351   5.167514   5.167260   6.531118   4.974225
    20  H    4.662595   4.968133   5.889453   6.338015   4.361126
    21  H    4.662511   5.889455   4.967697   7.083543   6.065092
    22  H    5.389327   6.228696   6.228404   7.601087   5.972173
                    6          7          8          9         10
     6  C    0.000000
     7  C    3.796415   0.000000
     8  H    2.719228   2.150228   0.000000
     9  C    4.303354   1.396108   3.400612   0.000000
    10  H    4.662588   3.398502   4.957280   2.156243   0.000000
    11  C    1.404920   4.938697   4.093874   5.167519   4.968137
    12  C    1.404953   4.332458   2.605099   5.167260   5.889400
    13  H    4.662512   1.086279   2.470197   2.156248   4.299689
    14  H    5.389330   2.157871   4.297551   1.085976   2.487858
    15  C    2.434934   6.195365   5.036315   6.531121   6.338003
    16  H    2.156010   5.036655   4.637477   4.974222   4.361131
    17  C    2.434925   5.723536   3.922488   6.530883   7.083608
    18  H    2.156010   3.922492   1.948790   4.973670   6.064747
    19  C    2.818858   6.530881   4.973672   7.122212   7.280993
    20  H    3.414583   7.083647   6.064831   7.281003   6.814795
    21  H    3.414594   6.337482   4.360421   7.280665   8.016421
    22  H    3.904834   7.600811   5.971548   8.208188   8.324760
                   11         12         13         14         15
    11  C    0.000000
    12  C    2.411119   0.000000
    13  H    5.889488   4.967701   0.000000
    14  H    6.228702   6.228403   2.487812   0.000000
    15  C    1.393934   2.785336   7.083577   7.601090   0.000000
    16  H    1.085932   3.396748   6.065143   5.972172   2.150219
    17  C    2.785320   1.393901   6.337480   7.600813   2.411763
    18  H    3.396725   1.085936   4.360427   5.971545   3.871016
    19  C    2.419198   2.419208   7.280663   8.208188   1.396072
    20  H    2.149897   3.871575   8.016478   8.324772   1.086278
    21  H    3.871558   2.149886   6.814141   8.324364   3.398478
    22  H    3.404029   3.404019   8.324362   9.294164   2.157859
                   16         17         18         19         20
    16  H    0.000000
    17  C    3.870997   0.000000
    18  H    4.296501   2.150234   0.000000
    19  C    3.400569   1.396107   3.400615   0.000000
    20  H    2.470145   3.398500   4.957282   2.156238   0.000000
    21  H    4.957264   1.086278   2.470204   2.156245   4.299683
    22  H    4.297527   2.157871   4.297556   1.085976   2.487844
                   21         22
    21  H    0.000000
    22  H    2.487812   0.000000
 Stoichiometry    C12H10
 Framework group  C1[X(C12H10)]
 Deg. of freedom    60
 Full point group                 C1      NOp   1
 Largest Abelian subgroup         C1      NOp   1
 Largest concise Abelian subgroup C1      NOp   1
                         Standard orientation:                         
 ---------------------------------------------------------------------
 Center     Atomic      Atomic             Coordinates (Angstroms)
 Number     Number       Type             X           Y           Z
 ---------------------------------------------------------------------
      1          6           0        0.742246    0.000138   -0.000145
      2          6           0        1.463770    1.195312    0.157205
      3          6           0        1.463601   -1.195207   -0.157274
      4          6           0        2.857707    1.195644    0.156355
      5          1           0        0.925193    2.126322    0.306875
      6          6           0       -0.742247    0.000132   -0.000003
      7          6           0        2.857499   -1.195756   -0.156355
      8          1           0        0.924817   -2.126130   -0.306776
      9          6           0        3.561107   -0.000093   -0.000013
     10          1           0        3.395242    2.130448    0.287505
     11          6           0       -1.463785    1.195318   -0.157212
     12          6           0       -1.463587   -1.195192    0.157360
     13          1           0        3.394934   -2.130638   -0.287364
     14          1           0        4.647083   -0.000211    0.000063
     15          6           0       -2.857719    1.195653   -0.156255
     16          1           0       -0.925209    2.126351   -0.306754
     17          6           0       -2.857488   -1.195763    0.156367
     18          1           0       -0.924792   -2.126086    0.307007
     19          6           0       -3.561105   -0.000127   -0.000134
     20          1           0       -3.395273    2.130467   -0.287237
     21          1           0       -3.394915   -2.130629    0.287506
     22          1           0       -4.647081   -0.000251   -0.000207
 ---------------------------------------------------------------------
 Rotational constants (GHZ):           2.8585222           0.5560380           0.4681409
 Leave Link  202 at Sat Nov  5 21:35:25 2022, MaxMem= 16106127360 cpu:               0.2 elap:               0.0
 (Enter /opt/ap/G16/B01/g16/l301.exe)
 Standard basis: 6-311++G(d,p) (5D, 7F)
 Ernie: Thresh=  0.10000D-02 Tol=  0.10000D-05 Strict=F.
 There are   346 symmetry adapted cartesian basis functions of A   symmetry.
 There are   334 symmetry adapted basis functions of A   symmetry.
   334 basis functions,   522 primitive gaussians,   346 cartesian basis functions
    41 alpha electrons       41 beta electrons
       nuclear repulsion energy       599.6025192265 Hartrees.
 IExCor= 4639 DFT=T Ex+Corr=wB97XD ExCW=0 ScaHFX=  1.000000
 ScaDFX=  1.000000  1.000000  1.000000  1.000000 ScalE2=  1.000000  1.000000
 IRadAn=      5 IRanWt=     -1 IRanGd=            0 ICorTp=0 IEmpDi=121
 HFx  wShort=  0.000000 wLong=  0.200000 cFull=  0.222036 cShort=  0.000000 cLong=  0.777964
 DFx  wShort=  0.000000 wLong=  0.200000 cFull=  0.000000 cShort=  0.000000 cLong=  1.000000
 NAtoms=   22 NActive=   22 NUniq=   22 SFac= 1.00D+00 NAtFMM=   60 NAOKFM=F Big=F
 Integral buffers will be    131072 words long.
 Raffenetti 2 integral format.
 Two-electron integral symmetry is turned on.
 R6Disp:  Grimme-D2 Dispersion energy=       -0.0118475231 Hartrees.
 Nuclear repulsion after empirical dispersion term =      599.5906717034 Hartrees.
 Leave Link  301 at Sat Nov  5 21:35:25 2022, MaxMem= 16106127360 cpu:               1.2 elap:               0.0
 (Enter /opt/ap/G16/B01/g16/l302.exe)
 NPDir=0 NMtPBC=     1 NCelOv=     1 NCel=       1 NClECP=     1 NCelD=      1
         NCelK=      1 NCelE2=     1 NClLst=     1 CellRange=     0.0.
 One-electron integrals computed using PRISM.
 One-electron integral symmetry used in STVInt
 NBasis=   334 RedAO= T EigKep=  1.01D-06  NBF=   334
 NBsUse=   331 1.00D-06 EigRej=  9.04D-07 NBFU=   331
 Precomputing XC quadrature grid using
 IXCGrd= 4 IRadAn=           5 IRanWt=          -1 IRanGd=           0 AccXCQ= 0.00D+00.
 Generated NRdTot=       0 NPtTot=           0 NUsed=           0 NTot=          32
 NSgBfM=   346   346   346   346   346 MxSgAt=    22 MxSgA2=    22.
 Leave Link  302 at Sat Nov  5 21:35:25 2022, MaxMem= 16106127360 cpu:               7.8 elap:               0.2
 (Enter /opt/ap/G16/B01/g16/l303.exe)
 DipDrv:  MaxL=1.
 Leave Link  303 at Sat Nov  5 21:35:25 2022, MaxMem= 16106127360 cpu:               1.5 elap:               0.1
 (Enter /opt/ap/G16/B01/g16/l401.exe)
 ExpMin= 3.60D-02 ExpMax= 4.56D+03 ExpMxC= 6.82D+02 IAcc=3 IRadAn=         5 AccDes= 0.00D+00
 Harris functional with IExCor= 4639 and IRadAn=       5 diagonalized for initial guess.
 HarFok:  IExCor= 4639 AccDes= 0.00D+00 IRadAn=         5 IDoV= 1 UseB2=F ITyADJ=14
 ICtDFT=  3500011 ScaDFX=  1.000000  1.000000  1.000000  1.000000
 FoFCou: FMM=F IPFlag=           0 FMFlag=      100000 FMFlg1=           0
         NFxFlg=           0 DoJE=T BraDBF=F KetDBF=T FulRan=T
         wScrn=  0.000000 ICntrl=       500 IOpCl=  0 I1Cent=   200000004 NGrid=           0
         NMat0=    1 NMatS0=      1 NMatT0=    0 NMatD0=    1 NMtDS0=    0 NMtDT0=    0
 Petite list used in FoFCou.
 Harris En= -441.934477309750    
 JPrj=0 DoOrth=F DoCkMO=F.
 Leave Link  401 at Sat Nov  5 21:35:26 2022, MaxMem= 16106127360 cpu:              37.1 elap:               1.2
 (Enter /opt/ap/G16/B01/g16/l502.exe)
 Integral symmetry usage will be decided dynamically.
 Closed shell SCF:
 Using DIIS extrapolation, IDIIS=  1040.
 NGot= 16106127360 LenX= 16105873520 LenY= 16105753363
 Requested convergence on RMS density matrix=1.00D-08 within 512 cycles.
 Requested convergence on MAX density matrix=1.00D-06.
 Requested convergence on             energy=1.00D-06.
 No special actions if energy rises.
 Fock matrices will be formed incrementally for  20 cycles.

 Cycle   1  Pass 1  IDiag  1:
 FoFJK:  IHMeth= 1 ICntrl=       0 DoSepK=T KAlg= 0 I1Cent=           0 FoldK=F
 IRaf=         1 NMat=       1 IRICut=       1 DoRegI=T DoRafI=F ISym2E= 0 IDoP0=0 IntGTp=1.
 FoFCou: FMM=F IPFlag=           0 FMFlag=      100000 FMFlg1=           0
         NFxFlg=           0 DoJE=T BraDBF=F KetDBF=F FulRan=T
         wScrn=  0.000000 ICntrl=       500 IOpCl=  0 I1Cent=           0 NGrid=           0
         NMat0=    1 NMatS0=      1 NMatT0=    0 NMatD0=    1 NMtDS0=    0 NMtDT0=    0
 Symmetry not used in FoFCou.
 E= -463.149117342684    
 DIIS: error= 6.87D-02 at cycle   1 NSaved=   1.
 NSaved= 1 IEnMin= 1 EnMin= -463.149117342684     IErMin= 1 ErrMin= 6.87D-02
 ErrMax= 6.87D-02  0.00D+00 EMaxC= 1.00D-01 BMatC= 9.52D-01 BMatP= 9.52D-01
 IDIUse=3 WtCom= 3.13D-01 WtEn= 6.87D-01
 Coeff-Com:  0.100D+01
 Coeff-En:   0.100D+01
 Coeff:      0.100D+01
 Gap=     0.309 Goal=   None    Shift=    0.000
 GapD=    0.309 DampG=1.000 DampE=0.500 DampFc=0.5000 IDamp=-1.
 Damping current iteration by 5.00D-01
 RMSDP=2.71D-02 MaxDP=1.37D+00              OVMax= 4.60D-02

 Cycle   2  Pass 1  IDiag  1:
 RMSU=  5.79D-03    CP:  8.28D-01
 E= -463.198531036560     Delta-E=       -0.049413693876 Rises=F Damp=T
 DIIS: error= 3.29D-02 at cycle   2 NSaved=   2.
 NSaved= 2 IEnMin= 2 EnMin= -463.198531036560     IErMin= 2 ErrMin= 3.29D-02
 ErrMax= 3.29D-02  0.00D+00 EMaxC= 1.00D-01 BMatC= 2.16D-01 BMatP= 9.52D-01
 IDIUse=3 WtCom= 6.71D-01 WtEn= 3.29D-01
 Coeff-Com: -0.883D+00 0.188D+01
 Coeff-En:   0.000D+00 0.100D+01
 Coeff:     -0.593D+00 0.159D+01
 Gap=     0.316 Goal=   None    Shift=    0.000
 RMSDP=1.67D-02 MaxDP=1.04D+00 DE=-4.94D-02 OVMax= 3.80D-02

 Cycle   3  Pass 1  IDiag  1:
 RMSU=  4.05D-03    CP:  6.03D-01  1.26D+00
 E= -463.243131588044     Delta-E=       -0.044600551484 Rises=F Damp=F
 DIIS: error= 6.45D-03 at cycle   3 NSaved=   3.
 NSaved= 3 IEnMin= 3 EnMin= -463.243131588044     IErMin= 3 ErrMin= 6.45D-03
 ErrMax= 6.45D-03  0.00D+00 EMaxC= 1.00D-01 BMatC= 4.17D-03 BMatP= 2.16D-01
 IDIUse=3 WtCom= 9.36D-01 WtEn= 6.45D-02
 Coeff-Com: -0.357D+00 0.761D+00 0.596D+00
 Coeff-En:   0.000D+00 0.000D+00 0.100D+01
 Coeff:     -0.334D+00 0.712D+00 0.622D+00
 Gap=     0.315 Goal=   None    Shift=    0.000
 RMSDP=1.86D-03 MaxDP=9.31D-02 DE=-4.46D-02 OVMax= 2.10D-02

 Cycle   4  Pass 1  IDiag  1:
 RMSU=  7.66D-04    CP:  5.97D-01  1.46D+00  7.09D-01
 E= -463.246787030919     Delta-E=       -0.003655442875 Rises=F Damp=F
 DIIS: error= 2.05D-03 at cycle   4 NSaved=   4.
 NSaved= 4 IEnMin= 4 EnMin= -463.246787030919     IErMin= 4 ErrMin= 2.05D-03
 ErrMax= 2.05D-03  0.00D+00 EMaxC= 1.00D-01 BMatC= 2.97D-04 BMatP= 4.17D-03
 IDIUse=3 WtCom= 9.80D-01 WtEn= 2.05D-02
 Coeff-Com: -0.127D+00 0.272D+00 0.297D+00 0.558D+00
 Coeff-En:   0.000D+00 0.000D+00 0.000D+00 0.100D+01
 Coeff:     -0.124D+00 0.266D+00 0.291D+00 0.567D+00
 Gap=     0.314 Goal=   None    Shift=    0.000
 RMSDP=3.86D-04 MaxDP=1.03D-02 DE=-3.66D-03 OVMax= 5.91D-03

 Cycle   5  Pass 1  IDiag  1:
 RMSU=  2.21D-04    CP:  5.95D-01  1.49D+00  7.30D-01  7.47D-01
 E= -463.247100027552     Delta-E=       -0.000312996633 Rises=F Damp=F
 DIIS: error= 4.61D-04 at cycle   5 NSaved=   5.
 NSaved= 5 IEnMin= 5 EnMin= -463.247100027552     IErMin= 5 ErrMin= 4.61D-04
 ErrMax= 4.61D-04  0.00D+00 EMaxC= 1.00D-01 BMatC= 9.74D-06 BMatP= 2.97D-04
 IDIUse=3 WtCom= 9.95D-01 WtEn= 4.61D-03
 Coeff-Com:  0.279D-01-0.596D-01-0.338D-01 0.128D+00 0.938D+00
 Coeff-En:   0.000D+00 0.000D+00 0.000D+00 0.000D+00 0.100D+01
 Coeff:      0.277D-01-0.593D-01-0.336D-01 0.127D+00 0.938D+00
 Gap=     0.314 Goal=   None    Shift=    0.000
 RMSDP=1.16D-04 MaxDP=5.39D-03 DE=-3.13D-04 OVMax= 1.79D-03

 Cycle   6  Pass 1  IDiag  1:
 RMSU=  5.68D-05    CP:  5.94D-01  1.49D+00  7.39D-01  8.17D-01  1.04D+00
 E= -463.247113531734     Delta-E=       -0.000013504181 Rises=F Damp=F
 DIIS: error= 6.15D-05 at cycle   6 NSaved=   6.
 NSaved= 6 IEnMin= 6 EnMin= -463.247113531734     IErMin= 6 ErrMin= 6.15D-05
 ErrMax= 6.15D-05  0.00D+00 EMaxC= 1.00D-01 BMatC= 4.57D-07 BMatP= 9.74D-06
 IDIUse=1 WtCom= 1.00D+00 WtEn= 0.00D+00
 Coeff-Com:  0.117D-01-0.251D-01-0.168D-01 0.318D-01 0.318D+00 0.681D+00
 Coeff:      0.117D-01-0.251D-01-0.168D-01 0.318D-01 0.318D+00 0.681D+00
 Gap=     0.314 Goal=   None    Shift=    0.000
 RMSDP=1.52D-05 MaxDP=6.12D-04 DE=-1.35D-05 OVMax= 2.81D-04

 Cycle   7  Pass 1  IDiag  1:
 RMSU=  1.21D-05    CP:  5.94D-01  1.49D+00  7.39D-01  8.19D-01  1.06D+00
                    CP:  1.11D+00
 E= -463.247114098927     Delta-E=       -0.000000567193 Rises=F Damp=F
 DIIS: error= 2.79D-05 at cycle   7 NSaved=   7.
 NSaved= 7 IEnMin= 7 EnMin= -463.247114098927     IErMin= 7 ErrMin= 2.79D-05
 ErrMax= 2.79D-05  0.00D+00 EMaxC= 1.00D-01 BMatC= 5.92D-08 BMatP= 4.57D-07
 IDIUse=1 WtCom= 1.00D+00 WtEn= 0.00D+00
 Coeff-Com: -0.247D-02 0.530D-02 0.227D-02-0.195D-01-0.114D+00 0.186D+00
 Coeff-Com:  0.943D+00
 Coeff:     -0.247D-02 0.530D-02 0.227D-02-0.195D-01-0.114D+00 0.186D+00
 Coeff:      0.943D+00
 Gap=     0.315 Goal=   None    Shift=    0.000
 RMSDP=1.48D-05 MaxDP=9.00D-04 DE=-5.67D-07 OVMax= 2.13D-04

 Cycle   8  Pass 1  IDiag  1:
 RMSU=  3.90D-06    CP:  5.94D-01  1.49D+00  7.39D-01  8.20D-01  1.07D+00
                    CP:  1.25D+00  1.22D+00
 E= -463.247114212421     Delta-E=       -0.000000113494 Rises=F Damp=F
 DIIS: error= 4.87D-06 at cycle   8 NSaved=   8.
 NSaved= 8 IEnMin= 8 EnMin= -463.247114212421     IErMin= 8 ErrMin= 4.87D-06
 ErrMax= 4.87D-06  0.00D+00 EMaxC= 1.00D-01 BMatC= 1.14D-09 BMatP= 5.92D-08
 IDIUse=1 WtCom= 1.00D+00 WtEn= 0.00D+00
 Coeff-Com: -0.335D-03 0.715D-03 0.471D-03-0.105D-02-0.676D-02-0.169D-01
 Coeff-Com: -0.367D-01 0.106D+01
 Coeff:     -0.335D-03 0.715D-03 0.471D-03-0.105D-02-0.676D-02-0.169D-01
 Coeff:     -0.367D-01 0.106D+01
 Gap=     0.315 Goal=   None    Shift=    0.000
 RMSDP=2.50D-06 MaxDP=1.46D-04 DE=-1.13D-07 OVMax= 4.10D-05

 Cycle   9  Pass 1  IDiag  1:
 RMSU=  7.59D-07    CP:  5.94D-01  1.49D+00  7.39D-01  8.19D-01  1.07D+00
                    CP:  1.26D+00  1.27D+00  1.25D+00
 E= -463.247114216146     Delta-E=       -0.000000003725 Rises=F Damp=F
 DIIS: error= 2.45D-06 at cycle   9 NSaved=   9.
 NSaved= 9 IEnMin= 9 EnMin= -463.247114216146     IErMin= 9 ErrMin= 2.45D-06
 ErrMax= 2.45D-06  0.00D+00 EMaxC= 1.00D-01 BMatC= 3.10D-10 BMatP= 1.14D-09
 IDIUse=1 WtCom= 1.00D+00 WtEn= 0.00D+00
 Coeff-Com:  0.162D-03-0.351D-03-0.834D-04 0.195D-02 0.112D-01-0.263D-01
 Coeff-Com: -0.128D+00 0.390D+00 0.751D+00
 Coeff:      0.162D-03-0.351D-03-0.834D-04 0.195D-02 0.112D-01-0.263D-01
 Coeff:     -0.128D+00 0.390D+00 0.751D+00
 Gap=     0.315 Goal=   None    Shift=    0.000
 RMSDP=4.28D-07 MaxDP=1.33D-05 DE=-3.73D-09 OVMax= 1.58D-05

 Cycle  10  Pass 1  IDiag  1:
 RMSU=  1.78D-07    CP:  5.94D-01  1.49D+00  7.39D-01  8.19D-01  1.07D+00
                    CP:  1.26D+00  1.27D+00  1.29D+00  1.28D+00
 E= -463.247114216663     Delta-E=       -0.000000000517 Rises=F Damp=F
 DIIS: error= 3.70D-07 at cycle  10 NSaved=  10.
 NSaved=10 IEnMin=10 EnMin= -463.247114216663     IErMin=10 ErrMin= 3.70D-07
 ErrMax= 3.70D-07  0.00D+00 EMaxC= 1.00D-01 BMatC= 2.11D-11 BMatP= 3.10D-10
 IDIUse=1 WtCom= 1.00D+00 WtEn= 0.00D+00
 Coeff-Com:  0.573D-04-0.123D-03-0.471D-04 0.498D-03 0.260D-02-0.334D-02
 Coeff-Com: -0.232D-01-0.267D-01 0.183D+00 0.867D+00
 Coeff:      0.573D-04-0.123D-03-0.471D-04 0.498D-03 0.260D-02-0.334D-02
 Coeff:     -0.232D-01-0.267D-01 0.183D+00 0.867D+00
 Gap=     0.315 Goal=   None    Shift=    0.000
 RMSDP=1.56D-07 MaxDP=4.36D-06 DE=-5.17D-10 OVMax= 3.41D-06

 Cycle  11  Pass 1  IDiag  1:
 RMSU=  6.96D-08    CP:  5.94D-01  1.49D+00  7.39D-01  8.19D-01  1.07D+00
                    CP:  1.25D+00  1.27D+00  1.30D+00  1.39D+00  1.26D+00
 E= -463.247114216693     Delta-E=       -0.000000000029 Rises=F Damp=F
 DIIS: error= 1.13D-07 at cycle  11 NSaved=  11.
 NSaved=11 IEnMin=11 EnMin= -463.247114216693     IErMin=11 ErrMin= 1.13D-07
 ErrMax= 1.13D-07  0.00D+00 EMaxC= 1.00D-01 BMatC= 7.57D-13 BMatP= 2.11D-11
 IDIUse=1 WtCom= 1.00D+00 WtEn= 0.00D+00
 Coeff-Com: -0.130D-04 0.284D-04 0.107D-04-0.154D-03-0.918D-03 0.226D-02
 Coeff-Com:  0.927D-02-0.253D-01-0.353D-01-0.104D+00 0.115D+01
 Coeff:     -0.130D-04 0.284D-04 0.107D-04-0.154D-03-0.918D-03 0.226D-02
 Coeff:      0.927D-02-0.253D-01-0.353D-01-0.104D+00 0.115D+01
 Gap=     0.315 Goal=   None    Shift=    0.000
 RMSDP=8.16D-08 MaxDP=4.53D-06 DE=-2.93D-11 OVMax= 9.55D-07

 Cycle  12  Pass 1  IDiag  1:
 RMSU=  2.40D-08    CP:  5.94D-01  1.49D+00  7.39D-01  8.19D-01  1.07D+00
                    CP:  1.25D+00  1.26D+00  1.29D+00  1.41D+00  1.38D+00
                    CP:  1.26D+00
 E= -463.247114216699     Delta-E=       -0.000000000006 Rises=F Damp=F
 DIIS: error= 2.40D-08 at cycle  12 NSaved=  12.
 NSaved=12 IEnMin=12 EnMin= -463.247114216699     IErMin=12 ErrMin= 2.40D-08
 ErrMax= 2.40D-08  0.00D+00 EMaxC= 1.00D-01 BMatC= 7.64D-14 BMatP= 7.57D-13
 IDIUse=1 WtCom= 1.00D+00 WtEn= 0.00D+00
 Coeff-Com: -0.142D-05 0.299D-05 0.231D-05-0.753D-05-0.305D-04 0.535D-05
 Coeff-Com: -0.884D-04 0.382D-02 0.525D-03-0.566D-01-0.136D+00 0.119D+01
 Coeff:     -0.142D-05 0.299D-05 0.231D-05-0.753D-05-0.305D-04 0.535D-05
 Coeff:     -0.884D-04 0.382D-02 0.525D-03-0.566D-01-0.136D+00 0.119D+01
 Gap=     0.315 Goal=   None    Shift=    0.000
 RMSDP=1.39D-08 MaxDP=4.23D-07 DE=-6.14D-12 OVMax= 2.58D-07

 Cycle  13  Pass 1  IDiag  1:
 RMSU=  4.09D-09    CP:  5.94D-01  1.49D+00  7.39D-01  8.19D-01  1.07D+00
                    CP:  1.25D+00  1.26D+00  1.29D+00  1.40D+00  1.41D+00
                    CP:  1.35D+00  1.28D+00
 E= -463.247114216695     Delta-E=        0.000000000003 Rises=F Damp=F
 DIIS: error= 6.08D-09 at cycle  13 NSaved=  13.
 NSaved=13 IEnMin=12 EnMin= -463.247114216699     IErMin=13 ErrMin= 6.08D-09
 ErrMax= 6.08D-09  0.00D+00 EMaxC= 1.00D-01 BMatC= 5.03D-15 BMatP= 7.64D-14
 IDIUse=1 WtCom= 1.00D+00 WtEn= 0.00D+00
 Coeff-Com:  0.441D-06-0.975D-06-0.190D-06 0.658D-05 0.436D-04-0.108D-03
 Coeff-Com: -0.540D-03 0.198D-02 0.315D-02-0.660D-02-0.899D-01 0.218D+00
 Coeff-Com:  0.874D+00
 Coeff:      0.441D-06-0.975D-06-0.190D-06 0.658D-05 0.436D-04-0.108D-03
 Coeff:     -0.540D-03 0.198D-02 0.315D-02-0.660D-02-0.899D-01 0.218D+00
 Coeff:      0.874D+00
 Gap=     0.315 Goal=   None    Shift=    0.000
 RMSDP=4.89D-09 MaxDP=3.94D-07 DE= 3.41D-12 OVMax= 5.71D-08

 SCF Done:  E(RwB97XD) =  -463.247114217     A.U. after   13 cycles
            NFock= 13  Conv=0.49D-08     -V/T= 2.0048
 KE= 4.610276652482D+02 PE=-2.273394682226D+03 EE= 7.495292310572D+02
 Leave Link  502 at Sat Nov  5 21:35:50 2022, MaxMem= 16106127360 cpu:             743.5 elap:              23.3
 (Enter /opt/ap/G16/B01/g16/l601.exe)
 Copying SCF densities to generalized density rwf, IOpCl= 0 IROHF=0.

 **********************************************************************

            Population analysis using the SCF Density.

 **********************************************************************

 Orbital symmetries:
       Occupied  (A) (A) (A) (A) (A) (A) (A) (A) (A) (A) (A) (A)
                 (A) (A) (A) (A) (A) (A) (A) (A) (A) (A) (A) (A)
                 (A) (A) (A) (A) (A) (A) (A) (A) (A) (A) (A) (A)
                 (A) (A) (A) (A) (A)
       Virtual   (A) (A) (A) (A) (A) (A) (A) (A) (A) (A) (A) (A)
                 (A) (A) (A) (A) (A) (A) (A) (A) (A) (A) (A) (A)
                 (A) (A) (A) (A) (A) (A) (A) (A) (A) (A) (A) (A)
                 (A) (A) (A) (A) (A) (A) (A) (A) (A) (A) (A) (A)
                 (A) (A) (A) (A) (A) (A) (A) (A) (A) (A) (A) (A)
                 (A) (A) (A) (A) (A) (A) (A) (A) (A) (A) (A) (A)
                 (A) (A) (A) (A) (A) (A) (A) (A) (A) (A) (A) (A)
                 (A) (A) (A) (A) (A) (A) (A) (A) (A) (A) (A) (A)
                 (A) (A) (A) (A) (A) (A) (A) (A) (A) (A) (A) (A)
                 (A) (A) (A) (A) (A) (A) (A) (A) (A) (A) (A) (A)
                 (A) (A) (A) (A) (A) (A) (A) (A) (A) (A) (A) (A)
                 (A) (A) (A) (A) (A) (A) (A) (A) (A) (A) (A) (A)
                 (A) (A) (A) (A) (A) (A) (A) (A) (A) (A) (A) (A)
                 (A) (A) (A) (A) (A) (A) (A) (A) (A) (A) (A) (A)
                 (A) (A) (A) (A) (A) (A) (A) (A) (A) (A) (A) (A)
                 (A) (A) (A) (A) (A) (A) (A) (A) (A) (A) (A) (A)
                 (A) (A) (A) (A) (A) (A) (A) (A) (A) (A) (A) (A)
                 (A) (A) (A) (A) (A) (A) (A) (A) (A) (A) (A) (A)
                 (A) (A) (A) (A) (A) (A) (A) (A) (A) (A) (A) (A)
                 (A) (A) (A) (A) (A) (A) (A) (A) (A) (A) (A) (A)
                 (A) (A) (A) (A) (A) (A) (A) (A) (A) (A) (A) (A)
                 (A) (A) (A) (A) (A) (A) (A) (A) (A) (A) (A) (A)
                 (A) (A) (A) (A) (A) (A) (A) (A) (A) (A) (A) (A)
                 (A) (A) (A) (A) (A) (A) (A) (A) (A) (A) (A) (A)
                 (A) (A)
 The electronic state is 1-A.
 Alpha  occ. eigenvalues --  -10.30603 -10.30573 -10.29436 -10.29436 -10.29428
 Alpha  occ. eigenvalues --  -10.29428 -10.29317 -10.29316 -10.29315 -10.29315
 Alpha  occ. eigenvalues --  -10.29267 -10.29267  -0.97719  -0.95360  -0.88332
 Alpha  occ. eigenvalues --   -0.85708  -0.84638  -0.82375  -0.72484  -0.72348
 Alpha  occ. eigenvalues --   -0.68503  -0.67534  -0.63241  -0.59047  -0.56990
 Alpha  occ. eigenvalues --   -0.55901  -0.52922  -0.52119  -0.52111  -0.51214
 Alpha  occ. eigenvalues --   -0.50237  -0.47958  -0.45157  -0.44958  -0.44384
 Alpha  occ. eigenvalues --   -0.42574  -0.41451  -0.36846  -0.33823  -0.33296
 Alpha  occ. eigenvalues --   -0.29829
 Alpha virt. eigenvalues --    0.01625   0.03826   0.03957   0.04603   0.04749
 Alpha virt. eigenvalues --    0.05888   0.05899   0.06209   0.07606   0.08009
 Alpha virt. eigenvalues --    0.08773   0.08959   0.09135   0.10946   0.11343
 Alpha virt. eigenvalues --    0.12684   0.13357   0.13839   0.15163   0.15301
 Alpha virt. eigenvalues --    0.15626   0.16070   0.16111   0.16791   0.17171
 Alpha virt. eigenvalues --    0.17352   0.17472   0.18043   0.18175   0.19019
 Alpha virt. eigenvalues --    0.19190   0.19197   0.19626   0.19785   0.19946
 Alpha virt. eigenvalues --    0.20793   0.20977   0.22410   0.22672   0.23476
 Alpha virt. eigenvalues --    0.24136   0.24513   0.24557   0.24995   0.25034
 Alpha virt. eigenvalues --    0.25416   0.25779   0.26627   0.27228   0.27617
 Alpha virt. eigenvalues --    0.27720   0.28575   0.29449   0.29591   0.29794
 Alpha virt. eigenvalues --    0.30432   0.30968   0.32030   0.32767   0.33118
 Alpha virt. eigenvalues --    0.33822   0.34122   0.34716   0.36284   0.36349
 Alpha virt. eigenvalues --    0.36417   0.37015   0.37128   0.38090   0.38637
 Alpha virt. eigenvalues --    0.39241   0.40821   0.41052   0.41751   0.42574
 Alpha virt. eigenvalues --    0.43331   0.44501   0.47908   0.48488   0.48797
 Alpha virt. eigenvalues --    0.56705   0.57625   0.58603   0.61079   0.61748
 Alpha virt. eigenvalues --    0.61754   0.62534   0.62709   0.62994   0.63858
 Alpha virt. eigenvalues --    0.64201   0.64474   0.65648   0.65877   0.66249
 Alpha virt. eigenvalues --    0.66485   0.68660   0.68758   0.69301   0.69577
 Alpha virt. eigenvalues --    0.72421   0.73302   0.74661   0.74691   0.74937
 Alpha virt. eigenvalues --    0.75594   0.78042   0.78791   0.78907   0.79876
 Alpha virt. eigenvalues --    0.80433   0.81774   0.83395   0.83988   0.85628
 Alpha virt. eigenvalues --    0.86216   0.87954   0.92059   0.92664   0.92943
 Alpha virt. eigenvalues --    0.92987   0.93580   0.94283   0.95235   0.96079
 Alpha virt. eigenvalues --    0.96143   0.96565   0.98827   0.99365   0.99813
 Alpha virt. eigenvalues --    1.00268   1.01042   1.01356   1.02789   1.04571
 Alpha virt. eigenvalues --    1.07974   1.08964   1.08976   1.09662   1.10760
 Alpha virt. eigenvalues --    1.13810   1.15651   1.16742   1.17245   1.19086
 Alpha virt. eigenvalues --    1.20132   1.20461   1.23056   1.24035   1.24823
 Alpha virt. eigenvalues --    1.33392   1.39488   1.39548   1.42611   1.55137
 Alpha virt. eigenvalues --    1.56722   1.57206   1.57233   1.57371   1.60193
 Alpha virt. eigenvalues --    1.61916   1.62809   1.64468   1.65061   1.65352
 Alpha virt. eigenvalues --    1.65499   1.66590   1.67894   1.70511   1.71557
 Alpha virt. eigenvalues --    1.73271   1.75381   1.76697   1.76880   1.77229
 Alpha virt. eigenvalues --    1.81175   1.82590   1.84393   1.85991   1.86344
 Alpha virt. eigenvalues --    1.89793   1.90080   1.90654   1.90830   1.96070
 Alpha virt. eigenvalues --    1.97055   1.99000   1.99807   2.01306   2.03339
 Alpha virt. eigenvalues --    2.04072   2.04194   2.04800   2.05331   2.07021
 Alpha virt. eigenvalues --    2.07686   2.07942   2.10806   2.12693   2.13238
 Alpha virt. eigenvalues --    2.14658   2.17055   2.17525   2.19806   2.20258
 Alpha virt. eigenvalues --    2.34908   2.34921   2.36169   2.39720   2.46283
 Alpha virt. eigenvalues --    2.46587   2.50952   2.51427   2.52120   2.53000
 Alpha virt. eigenvalues --    2.56162   2.56508   2.56987   2.58325   2.69106
 Alpha virt. eigenvalues --    2.72944   2.73771   2.76861   2.76869   2.77763
 Alpha virt. eigenvalues --    2.79045   2.80699   2.80720   2.80780   2.83133
 Alpha virt. eigenvalues --    2.83208   2.83716   2.83912   2.86410   2.87144
 Alpha virt. eigenvalues --    2.87626   2.89841   2.91544   2.92047   2.92456
 Alpha virt. eigenvalues --    2.94962   2.95478   2.99434   2.99463   3.03595
 Alpha virt. eigenvalues --    3.04108   3.04642   3.06206   3.08083   3.17973
 Alpha virt. eigenvalues --    3.19501   3.20328   3.29530   3.32100   3.32450
 Alpha virt. eigenvalues --    3.44951   3.47107   3.47717   3.48618   3.58773
 Alpha virt. eigenvalues --    3.62301   3.62440   3.64063   3.67549   3.72466
 Alpha virt. eigenvalues --    3.76201   3.87510   4.08729   4.11684   4.13551
 Alpha virt. eigenvalues --    4.14546   4.23891   4.24527   4.27800   4.30067
 Alpha virt. eigenvalues --    4.63969   4.92065   4.96469  23.67917  23.84777
 Alpha virt. eigenvalues --   24.07423  24.08288  24.09189  24.09933  24.18848
 Alpha virt. eigenvalues --   24.19634  24.22149  24.22783  24.31208  24.31703
          Condensed to atoms (all electrons):
               1          2          3          4          5          6
     1  C    8.756614  -1.958985  -1.957933   0.402396  -0.090700   1.944437
     2  C   -1.958985  11.566193  -2.052392  -1.181641   0.499096  -1.026046
     3  C   -1.957933  -2.052392  11.571729  -0.214529   0.012409  -1.028529
     4  C    0.402396  -1.181641  -0.214529   7.245041  -0.021531   0.001055
     5  H   -0.090700   0.499096   0.012409  -0.021531   0.556538  -0.042677
     6  C    1.944437  -1.026046  -1.028529   0.001055  -0.042677   8.752118
     7  C    0.404739  -0.215158  -1.184151   0.424814   0.018436   0.001123
     8  H   -0.090712   0.012623   0.499329   0.018404   0.004047  -0.042817
     9  C   -0.729658   0.426413   0.427185  -0.139913   0.013298  -0.235562
    10  H    0.035530  -0.035437   0.009528   0.348186  -0.014182   0.010887
    11  C   -1.034540   3.626873  -2.434298  -0.472681   0.063405  -1.958851
    12  C   -1.030296  -2.433399   3.625900  -0.236194  -0.032297  -1.957276
    13  H    0.035572   0.009504  -0.035577  -0.007305  -0.000665   0.010899
    14  H    0.024920  -0.034668  -0.034661  -0.001869   0.000364  -0.002193
    15  C    0.004216  -0.471007  -0.236987   0.168470  -0.056402   0.403128
    16  H   -0.042771   0.063248  -0.032228  -0.056403  -0.002036  -0.090605
    17  C    0.004150  -0.236161  -0.472019   0.062555  -0.012866   0.403056
    18  H   -0.042746  -0.032358   0.063379  -0.012879  -0.004567  -0.090530
    19  C   -0.237546   0.176304   0.176769  -0.053218   0.004739  -0.730261
    20  H    0.010904  -0.003139   0.002399   0.002675   0.000909   0.035580
    21  H    0.010905   0.002430  -0.003197   0.000673   0.000315   0.035576
    22  H   -0.002210   0.001944   0.001969  -0.000658  -0.000222   0.024967
               7          8          9         10         11         12
     1  C    0.404739  -0.090712  -0.729658   0.035530  -1.034540  -1.030296
     2  C   -0.215158   0.012623   0.426413  -0.035437   3.626873  -2.433399
     3  C   -1.184151   0.499329   0.427185   0.009528  -2.434298   3.625900
     4  C    0.424814   0.018404  -0.139913   0.348186  -0.472681  -0.236194
     5  H    0.018436   0.004047   0.013298  -0.014182   0.063405  -0.032297
     6  C    0.001123  -0.042817  -0.235562   0.010887  -1.958851  -1.957276
     7  C    7.244969  -0.021860  -0.139763  -0.007320  -0.236866  -0.472120
     8  H   -0.021860   0.556657   0.013357  -0.000665  -0.032205   0.063427
     9  C   -0.139763   0.013357   6.254292  -0.044619   0.176733   0.176534
    10  H   -0.007320  -0.000665  -0.044619   0.475673  -0.003187   0.002416
    11  C   -0.236866  -0.032205   0.176733  -0.003187  11.576808  -2.048567
    12  C   -0.472120   0.063427   0.176534   0.002416  -2.048567  11.569733
    13  H    0.348280  -0.014197  -0.044616   0.000767   0.002408  -0.003185
    14  H   -0.001850   0.000366   0.389274  -0.005906   0.001959   0.001964
    15  C    0.062478  -0.012949  -0.053061   0.002662  -1.183386  -0.218061
    16  H   -0.012873  -0.004561   0.004730   0.000909   0.498929   0.012555
    17  C    0.169109  -0.056491  -0.053187   0.000672  -0.216931  -1.184320
    18  H   -0.056399  -0.002064   0.004732   0.000316   0.012422   0.499116
    19  C   -0.053113   0.004787   0.035253  -0.001086   0.428422   0.429084
    20  H    0.000667   0.000315  -0.001084   0.000085  -0.035494   0.009430
    21  H    0.002664   0.000904  -0.001086   0.000018   0.009521  -0.035591
    22  H   -0.000655  -0.000221   0.000253   0.000004  -0.034874  -0.034736
              13         14         15         16         17         18
     1  C    0.035572   0.024920   0.004216  -0.042771   0.004150  -0.042746
     2  C    0.009504  -0.034668  -0.471007   0.063248  -0.236161  -0.032358
     3  C   -0.035577  -0.034661  -0.236987  -0.032228  -0.472019   0.063379
     4  C   -0.007305  -0.001869   0.168470  -0.056403   0.062555  -0.012879
     5  H   -0.000665   0.000364  -0.056402  -0.002036  -0.012866  -0.004567
     6  C    0.010899  -0.002193   0.403128  -0.090605   0.403056  -0.090530
     7  C    0.348280  -0.001850   0.062478  -0.012873   0.169109  -0.056399
     8  H   -0.014197   0.000366  -0.012949  -0.004561  -0.056491  -0.002064
     9  C   -0.044616   0.389274  -0.053061   0.004730  -0.053187   0.004732
    10  H    0.000767  -0.005906   0.002662   0.000909   0.000672   0.000316
    11  C    0.002408   0.001959  -1.183386   0.498929  -0.216931   0.012422
    12  C   -0.003185   0.001964  -0.218061   0.012555  -1.184320   0.499116
    13  H    0.475677  -0.005905   0.000673   0.000316   0.002674   0.000910
    14  H   -0.005905   0.472744  -0.000656  -0.000222  -0.000657  -0.000222
    15  C    0.000673  -0.000656   7.243576  -0.021330   0.425128   0.018493
    16  H    0.000316  -0.000222  -0.021330   0.556513   0.018452   0.004044
    17  C    0.002674  -0.000657   0.425128   0.018452   7.244656  -0.021537
    18  H    0.000910  -0.000222   0.018493   0.004044  -0.021537   0.556598
    19  C   -0.001087   0.000253  -0.139704   0.013262  -0.141049   0.013233
    20  H    0.000018   0.000004   0.348177  -0.014176  -0.007296  -0.000664
    21  H    0.000085   0.000004  -0.007298  -0.000663   0.348312  -0.014178
    22  H    0.000004   0.000000  -0.001528   0.000358  -0.001656   0.000361
              19         20         21         22
     1  C   -0.237546   0.010904   0.010905  -0.002210
     2  C    0.176304  -0.003139   0.002430   0.001944
     3  C    0.176769   0.002399  -0.003197   0.001969
     4  C   -0.053218   0.002675   0.000673  -0.000658
     5  H    0.004739   0.000909   0.000315  -0.000222
     6  C   -0.730261   0.035580   0.035576   0.024967
     7  C   -0.053113   0.000667   0.002664  -0.000655
     8  H    0.004787   0.000315   0.000904  -0.000221
     9  C    0.035253  -0.001084  -0.001086   0.000253
    10  H   -0.001086   0.000085   0.000018   0.000004
    11  C    0.428422  -0.035494   0.009521  -0.034874
    12  C    0.429084   0.009430  -0.035591  -0.034736
    13  H   -0.001087   0.000018   0.000085   0.000004
    14  H    0.000253   0.000004   0.000004   0.000000
    15  C   -0.139704   0.348177  -0.007298  -0.001528
    16  H    0.013262  -0.014176  -0.000663   0.000358
    17  C   -0.141049  -0.007296   0.348312  -0.001656
    18  H    0.013233  -0.000664  -0.014178   0.000361
    19  C    6.255214  -0.044604  -0.044685   0.389030
    20  H   -0.044604   0.475674   0.000767  -0.005893
    21  H   -0.044685   0.000767   0.475678  -0.005901
    22  H    0.389030  -0.005893  -0.005901   0.472678
 Mulliken charges:
               1
     1  C    1.583714
     2  C   -0.704238
     3  C   -0.704092
     4  C   -0.275447
     5  H    0.104587
     6  C    1.582521
     7  C   -0.275151
     8  H    0.104528
     9  C   -0.479504
    10  H    0.224749
    11  C   -0.705597
    12  C   -0.704118
    13  H    0.224751
    14  H    0.196956
    15  C   -0.274632
    16  H    0.104551
    17  C   -0.274596
    18  H    0.104539
    19  C   -0.479998
    20  H    0.224744
    21  H    0.224749
    22  H    0.196984
 Sum of Mulliken charges =  -0.00000
 Mulliken charges with hydrogens summed into heavy atoms:
               1
     1  C    1.583714
     2  C   -0.599650
     3  C   -0.599565
     4  C   -0.050698
     6  C    1.582521
     7  C   -0.050400
     9  C   -0.282548
    11  C   -0.601046
    12  C   -0.599579
    15  C   -0.049887
    17  C   -0.049848
    19  C   -0.283014
 Electronic spatial extent (au):  <R**2>=           2311.9166
 Charge=             -0.0000 electrons
 Dipole moment (field-independent basis, Debye):
    X=              0.0000    Y=             -0.0000    Z=              0.0004  Tot=              0.0004
 Quadrupole moment (field-independent basis, Debye-Ang):
   XX=            -61.4530   YY=            -61.5971   ZZ=            -77.5686
   XY=             -0.0002   XZ=              0.0009   YZ=              0.0001
 Traceless Quadrupole moment (field-independent basis, Debye-Ang):
   XX=              5.4199   YY=              5.2758   ZZ=            -10.6957
   XY=             -0.0002   XZ=              0.0009   YZ=              0.0001
 Octapole moment (field-independent basis, Debye-Ang**2):
  XXX=             -0.0000  YYY=              0.0013  ZZZ=              0.0007  XYY=             -0.0001
  XXY=             -0.0007  XXZ=              0.0020  XZZ=              0.0002  YZZ=             -0.0002
  YYZ=              0.0033  XYZ=              5.3202
 Hexadecapole moment (field-independent basis, Debye-Ang**3):
 XXXX=          -2297.5962 YYYY=           -531.4936 ZZZZ=           -102.8654 XXXY=             -0.0021
 XXXZ=              0.0217 YYYX=             -0.0032 YYYZ=              0.0004 ZZZX=              0.0010
 ZZZY=              0.0001 XXYY=           -472.8548 XXZZ=           -502.7996 YYZZ=           -124.8948
 XXYZ=              0.0023 YYXZ=             -0.0002 ZZXY=              0.0018
 N-N= 5.995906717034D+02 E-N=-2.273394681987D+03  KE= 4.610276652482D+02
 No NMR shielding tensors so no spin-rotation constants.
 Leave Link  601 at Sat Nov  5 21:35:50 2022, MaxMem= 16106127360 cpu:               4.1 elap:               0.2
 (Enter /opt/ap/G16/B01/g16/l9999.exe)
 1\1\GINC-N04\SP\RwB97XD\6-311++G(d,p)\C12H10\ROOT\05-Nov-2022\0\\#P wB
 97XD/6-311++G(d,p) scf=maxcycle=512\\_conf021.gjf nmol_natom 1_22\\0,1
 \C\C,1,1.40491871\C,1,1.40495292,2,118.20503621\C,2,1.3939373,1,120.91
 08946,3,0.05365643,0\H,2,1.08593095,1,119.3452094,3,-178.3624307,0\C,1
 ,1.48449301,2,120.90144423,4,-179.96388019,0\C,3,1.39389842,1,120.9105
 0598,2,0.03587687,0\H,3,1.08593608,1,119.34159615,2,-178.38281524,0\C,
 4,1.39606958,2,120.24555868,1,-0.09283196,0\H,4,1.08627898,2,119.66792
 041,1,-179.51486187,0\C,6,1.40492034,1,120.90156908,2,15.,0\C,6,1.4049
 5329,1,120.89324856,2,-165.,0\H,7,1.08627928,3,119.67027175,1,-179.512
 58183,0\H,9,1.08597601,4,120.2602535,2,-179.95233103,0\C,11,1.39393437
 ,6,120.91099656,1,-179.95869964,0\H,11,1.08593173,6,119.34475907,1,1.6
 1891886,0\C,12,1.39390147,6,120.91022615,1,-179.94297913,0\H,12,1.0859
 3608,6,119.34175044,1,1.63241608,0\C,15,1.39607161,11,120.24535737,6,-
 0.10315482,0\H,15,1.08627786,11,119.66861247,6,-179.51844254,0\H,17,1.
 08627825,12,119.6702798,6,-179.51590091,0\H,19,1.08597601,15,120.25988
 597,11,-179.94731581,0\\Version=ES64L-G16RevB.01\State=1-A\HF=-463.247
 1142\RMSD=4.893e-09\Dipole=0.0000002,-0.0001481,0.0000103\Quadrupole=3
 .9483063,-7.7500045,3.8016982,-0.787448,0.1360823,1.3182035\PG=C01 [X(
 C12H10)]\\@


 THERE IS SOMETHING FASCINATING ABOUT SCIENCE.
 ONE GETS SUCH WHOLESALE CONJECTURE OUT OF SUCH TRIFLING INVESTMENTS.

                                                       -- MARK TWAIN
 Job cpu time:       0 days  0 hours 13 minutes 25.8 seconds.
 Elapsed time:       0 days  0 hours  0 minutes 25.4 seconds.
 File lengths (MBytes):  RWF=     62 Int=      0 D2E=      0 Chk=      8 Scr=      1
 Normal termination of Gaussian 16 at Sat Nov  5 21:35:50 2022.
