 Entering Gaussian System, Link 0=g16
 Input=_conf027.gjf
 Output=_conf027.log
 Initial command:
 /opt/ap/G16/B01/g16/l1.exe "/tmp2/scr/Gau-3780.inp" -scrdir="/tmp2/scr/"
 Entering Link 1 = /opt/ap/G16/B01/g16/l1.exe PID=      3781.
  
 Copyright (c) 1988-2017, Gaussian, Inc.  All Rights Reserved.
  
 This is part of the Gaussian(R) 16 program.  It is based on
 the Gaussian(R) 09 system (copyright 2009, Gaussian, Inc.),
 the Gaussian(R) 03 system (copyright 2003, Gaussian, Inc.),
 the Gaussian(R) 98 system (copyright 1998, Gaussian, Inc.),
 the Gaussian(R) 94 system (copyright 1995, Gaussian, Inc.),
 the Gaussian 92(TM) system (copyright 1992, Gaussian, Inc.),
 the Gaussian 90(TM) system (copyright 1990, Gaussian, Inc.),
 the Gaussian 88(TM) system (copyright 1988, Gaussian, Inc.),
 the Gaussian 86(TM) system (copyright 1986, Carnegie Mellon
 University), and the Gaussian 82(TM) system (copyright 1983,
 Carnegie Mellon University). Gaussian is a federally registered
 trademark of Gaussian, Inc.
  
 This software contains proprietary and confidential information,
 including trade secrets, belonging to Gaussian, Inc.
  
 This software is provided under written license and may be
 used, copied, transmitted, or stored only in accord with that
 written license.
  
 The following legend is applicable only to US Government
 contracts under FAR:
  
                    RESTRICTED RIGHTS LEGEND
  
 Use, reproduction and disclosure by the US Government is
 subject to restrictions as set forth in subparagraphs (a)
 and (c) of the Commercial Computer Software - Restricted
 Rights clause in FAR 52.227-19.
  
 Gaussian, Inc.
 340 Quinnipiac St., Bldg. 40, Wallingford CT 06492
  
  
 ---------------------------------------------------------------
 Warning -- This program may not be used in any manner that
 competes with the business of Gaussian, Inc. or will provide
 assistance to any competitor of Gaussian, Inc.  The licensee
 of this program is prohibited from giving any competitor of
 Gaussian, Inc. access to this program.  By using this program,
 the user acknowledges that Gaussian, Inc. is engaged in the
 business of creating and licensing software in the field of
 computational chemistry and represents and warrants to the
 licensee that it is not a competitor of Gaussian, Inc. and that
 it will not use this program in any manner prohibited above.
 ---------------------------------------------------------------
  

 Cite this work as:
 Gaussian 16, Revision B.01,
 M. J. Frisch, G. W. Trucks, H. B. Schlegel, G. E. Scuseria, 
 M. A. Robb, J. R. Cheeseman, G. Scalmani, V. Barone, 
 G. A. Petersson, H. Nakatsuji, X. Li, M. Caricato, A. V. Marenich, 
 J. Bloino, B. G. Janesko, R. Gomperts, B. Mennucci, H. P. Hratchian, 
 J. V. Ortiz, A. F. Izmaylov, J. L. Sonnenberg, D. Williams-Young, 
 F. Ding, F. Lipparini, F. Egidi, J. Goings, B. Peng, A. Petrone, 
 T. Henderson, D. Ranasinghe, V. G. Zakrzewski, J. Gao, N. Rega, 
 G. Zheng, W. Liang, M. Hada, M. Ehara, K. Toyota, R. Fukuda, 
 J. Hasegawa, M. Ishida, T. Nakajima, Y. Honda, O. Kitao, H. Nakai, 
 T. Vreven, K. Throssell, J. A. Montgomery, Jr., J. E. Peralta, 
 F. Ogliaro, M. J. Bearpark, J. J. Heyd, E. N. Brothers, K. N. Kudin, 
 V. N. Staroverov, T. A. Keith, R. Kobayashi, J. Normand, 
 K. Raghavachari, A. P. Rendell, J. C. Burant, S. S. Iyengar, 
 J. Tomasi, M. Cossi, J. M. Millam, M. Klene, C. Adamo, R. Cammi, 
 J. W. Ochterski, R. L. Martin, K. Morokuma, O. Farkas, 
 J. B. Foresman, and D. J. Fox, Gaussian, Inc., Wallingford CT, 2016.
 
 ******************************************
 Gaussian 16:  ES64L-G16RevB.01 20-Dec-2017
                 5-Nov-2022 
 ******************************************
 %nprocshared=32
 Will use up to   32 processors via shared memory.
 %mem=120GB
 %chk=_conf027.chk
 ----------------------------------------
 #P wB97XD/6-311++G(d,p) scf=maxcycle=512
 ----------------------------------------
 1/38=1,172=1/1;
 2/12=2,17=6,18=5,40=1/2;
 3/5=4,6=6,7=1111,11=2,25=1,30=1,74=-58/1,2,3;
 4//1;
 5/5=2,7=512,38=5/2;
 6/7=2,8=2,9=2,10=2,28=1/1;
 99/5=1,9=1/99;
 Leave Link    1 at Sat Nov  5 21:35:51 2022, MaxMem= 16106127360 cpu:               1.8 elap:               0.1
 (Enter /opt/ap/G16/B01/g16/l101.exe)
 ----------------------------
 _conf027.gjf nmol_natom 1_22
 ----------------------------
 Symbolic Z-matrix:
 Charge =  0 Multiplicity = 1
 C
 C                    1     1.40492 
 C                    1     1.40495  2     118.20504 
 C                    2     1.39394  1     120.91089  3     0.05366  0
 H                    2     1.08593  1     119.34521  3    -178.36243  0
 C                    1     1.48449  2     120.90144  4    -179.96388  0
 C                    3     1.3939   1     120.91051  2     0.03588  0
 H                    3     1.08594  1     119.3416  2    -178.38282  0
 C                    4     1.39607  2     120.24556  1    -0.09283  0
 H                    4     1.08628  2     119.66792  1    -179.51486  0
 C                    6     1.40492  1     120.90157  2     45.      0
 C                    6     1.40495  1     120.89325  2    -135.     0
 H                    7     1.08628  3     119.67027  1    -179.51258  0
 H                    9     1.08598  4     120.26025  2    -179.95233  0
 C                    11    1.39393  6     120.911  1    -179.9587  0
 H                    11    1.08593  6     119.34476  1     1.61892  0
 C                    12    1.3939   6     120.91023  1    -179.94298  0
 H                    12    1.08594  6     119.34175  1     1.63242  0
 C                    15    1.39607  11    120.24536  6    -0.10315  0
 H                    15    1.08628  11    119.66861  6    -179.51844  0
 H                    17    1.08628  12    119.67028  6    -179.5159  0
 H                    19    1.08598  15    120.25989  11   -179.94732  0
 
 ITRead=  0  0  0  0  0  0  0  0  0  0  0  0  0  0  0  0  0  0  0  0
 ITRead=  0  0
 MicOpt= -1 -1 -1 -1 -1 -1 -1 -1 -1 -1 -1 -1 -1 -1 -1 -1 -1 -1 -1 -1
 MicOpt= -1 -1
 NAtoms=     22 NQM=       22 NQMF=       0 NMMI=      0 NMMIF=      0
                NMic=       0 NMicF=      0.
                    Isotopes and Nuclear Properties:
 (Nuclear quadrupole moments (NQMom) in fm**2, nuclear magnetic moments (NMagM)
  in nuclear magnetons)

  Atom         1           2           3           4           5           6           7           8           9          10
 IAtWgt=          12          12          12          12           1          12          12           1          12           1
 AtmWgt=  12.0000000  12.0000000  12.0000000  12.0000000   1.0078250  12.0000000  12.0000000   1.0078250  12.0000000   1.0078250
 NucSpn=           0           0           0           0           1           0           0           1           0           1
 AtZEff=  -0.0000000  -0.0000000  -0.0000000  -0.0000000  -0.0000000  -0.0000000  -0.0000000  -0.0000000  -0.0000000  -0.0000000
 NQMom=    0.0000000   0.0000000   0.0000000   0.0000000   0.0000000   0.0000000   0.0000000   0.0000000   0.0000000   0.0000000
 NMagM=    0.0000000   0.0000000   0.0000000   0.0000000   2.7928460   0.0000000   0.0000000   2.7928460   0.0000000   2.7928460
 AtZNuc=   6.0000000   6.0000000   6.0000000   6.0000000   1.0000000   6.0000000   6.0000000   1.0000000   6.0000000   1.0000000

  Atom        11          12          13          14          15          16          17          18          19          20
 IAtWgt=          12          12           1           1          12           1          12           1          12           1
 AtmWgt=  12.0000000  12.0000000   1.0078250   1.0078250  12.0000000   1.0078250  12.0000000   1.0078250  12.0000000   1.0078250
 NucSpn=           0           0           1           1           0           1           0           1           0           1
 AtZEff=  -0.0000000  -0.0000000  -0.0000000  -0.0000000  -0.0000000  -0.0000000  -0.0000000  -0.0000000  -0.0000000  -0.0000000
 NQMom=    0.0000000   0.0000000   0.0000000   0.0000000   0.0000000   0.0000000   0.0000000   0.0000000   0.0000000   0.0000000
 NMagM=    0.0000000   0.0000000   2.7928460   2.7928460   0.0000000   2.7928460   0.0000000   2.7928460   0.0000000   2.7928460
 AtZNuc=   6.0000000   6.0000000   1.0000000   1.0000000   6.0000000   1.0000000   6.0000000   1.0000000   6.0000000   1.0000000

  Atom        21          22
 IAtWgt=           1           1
 AtmWgt=   1.0078250   1.0078250
 NucSpn=           1           1
 AtZEff=  -0.0000000  -0.0000000
 NQMom=    0.0000000   0.0000000
 NMagM=    2.7928460   2.7928460
 AtZNuc=   1.0000000   1.0000000
 Leave Link  101 at Sat Nov  5 21:35:51 2022, MaxMem= 16106127360 cpu:               5.3 elap:               0.2
 (Enter /opt/ap/G16/B01/g16/l202.exe)
                          Input orientation:                          
 ---------------------------------------------------------------------
 Center     Atomic      Atomic             Coordinates (Angstroms)
 Number     Number       Type             X           Y           Z
 ---------------------------------------------------------------------
      1          6           0        0.000000    0.000000    0.000000
      2          6           0        0.000000    0.000000    1.404919
      3          6           0        1.238131    0.000000   -0.664020
      4          6           0        1.195952    0.001120    2.120990
      5          1           0       -0.946201   -0.027051    1.937101
      6          6           0       -1.273772   -0.000390   -0.762381
      7          6           0        2.434381   -0.000749    0.051479
      8          1           0        1.259850    0.026715   -1.749411
      9          6           0        2.418826    0.000311    1.447501
     10          1           0        1.172413   -0.006894    3.206985
     11          6           0       -2.330900    0.851699   -0.401511
     12          6           0       -1.454659   -0.852952   -1.864339
     13          1           0        3.380326    0.007295   -0.482493
     14          1           0        3.350700    0.000403    2.005133
     15          6           0       -3.527364    0.850885   -1.116722
     16          1           0       -2.201548    1.537151    0.430758
     17          6           0       -2.650117   -0.852768   -2.581167
     18          1           0       -0.659692   -1.538204   -2.143110
     19          6           0       -3.692273   -0.000964   -2.210418
     20          1           0       -4.328698    1.523715   -0.824895
     21          1           0       -2.771170   -1.525953   -3.425069
     22          1           0       -4.623993   -0.001182   -2.768309
 ---------------------------------------------------------------------
                    Distance matrix (angstroms):
                    1          2          3          4          5
     1  C    0.000000
     2  C    1.404919   0.000000
     3  C    1.404953   2.411116   0.000000
     4  C    2.434934   1.393937   2.785330   0.000000
     5  H    2.156012   1.085931   3.396745   2.150216   0.000000
     6  C    1.484493   2.513898   2.513829   3.796494   2.719415
     7  C    2.434925   2.785320   1.393898   2.411760   3.870994
     8  H    2.156008   3.396723   1.085936   3.871013   4.296501
     9  C    2.818861   2.419201   2.419207   1.396070   3.400568
    10  H    3.414579   2.149893   3.871569   1.086279   2.470128
    11  C    2.513901   3.069474   3.678626   4.418731   2.856344
    12  C    2.513826   3.678533   3.069106   4.861895   3.923212
    13  H    3.414594   3.871560   2.149884   3.398478   4.957262
    14  H    3.904837   3.404035   3.404016   2.157861   4.297527
    15  C    3.796494   4.418707   4.861984   5.789179   4.093777
    16  H    2.719411   2.856332   3.923361   4.093810   2.508324
    17  C    3.796414   4.862017   4.418273   6.134465   4.898968
    18  H    2.719225   3.922980   2.855786   4.898519   4.360481
    19  C    4.303351   5.167547   5.167227   6.531145   4.974285
    20  H    4.662595   5.102098   5.773836   6.443469   4.634090
    21  H    4.662511   5.773794   5.101610   6.987759   5.859188
    22  H    5.389327   6.228735   6.228365   7.601119   5.972245
                    6          7          8          9         10
     6  C    0.000000
     7  C    3.796415   0.000000
     8  H    2.719228   2.150228   0.000000
     9  C    4.303354   1.396108   3.400612   0.000000
    10  H    4.662588   3.398502   4.957280   2.156243   0.000000
    11  C    1.404920   4.862074   3.923125   5.167553   5.102120
    12  C    1.404953   4.418285   2.855798   5.167226   5.773703
    13  H    4.662512   1.086279   2.470197   2.156248   4.299689
    14  H    5.389330   2.157871   4.297551   1.085976   2.487858
    15  C    2.434934   6.134523   4.898670   6.531147   6.443456
    16  H    2.156010   4.899063   4.360713   4.974283   4.634125
    17  C    2.434925   5.788685   4.093061   6.530857   6.987842
    18  H    2.156010   4.093077   2.507710   4.973609   5.858757
    19  C    2.818858   6.530855   4.973612   7.122212   7.281034
    20  H    3.414583   6.987937   5.858977   7.281046   6.990067
    21  H    3.414594   6.442856   4.633328   7.280623   7.864065
    22  H    3.904834   7.600779   5.971477   8.208188   8.324812
                   11         12         13         14         15
    11  C    0.000000
    12  C    2.411119   0.000000
    13  H    5.773878   5.101627   0.000000
    14  H    6.228742   6.228363   2.487812   0.000000
    15  C    1.393934   2.785336   6.987851   7.601123   0.000000
    16  H    1.085932   3.396748   5.859334   5.972245   2.150219
    17  C    2.785320   1.393901   6.442855   7.600780   2.411763
    18  H    3.396725   1.085936   4.633353   5.971472   3.871016
    19  C    2.419198   2.419208   7.280621   8.208188   1.396072
    20  H    2.149897   3.871575   7.864211   8.324825   1.086278
    21  H    3.871558   2.149886   6.989313   8.324311   3.398478
    22  H    3.404029   3.404019   8.324310   9.294164   2.157859
                   16         17         18         19         20
    16  H    0.000000
    17  C    3.870997   0.000000
    18  H    4.296501   2.150234   0.000000
    19  C    3.400569   1.396107   3.400615   0.000000
    20  H    2.470145   3.398500   4.957282   2.156238   0.000000
    21  H    4.957264   1.086278   2.470204   2.156245   4.299683
    22  H    4.297527   2.157871   4.297556   1.085976   2.487844
                   21         22
    21  H    0.000000
    22  H    2.487812   0.000000
 Stoichiometry    C12H10
 Framework group  C1[X(C12H10)]
 Deg. of freedom    60
 Full point group                 C1      NOp   1
 Largest Abelian subgroup         C1      NOp   1
 Largest concise Abelian subgroup C1      NOp   1
                         Standard orientation:                         
 ---------------------------------------------------------------------
 Center     Atomic      Atomic             Coordinates (Angstroms)
 Number     Number       Type             X           Y           Z
 ---------------------------------------------------------------------
      1          6           0        0.742246    0.000188   -0.000130
      2          6           0        1.463784    1.113900    0.461200
      3          6           0        1.463587   -1.113771   -0.461276
      4          6           0        2.857721    1.114418    0.460479
      5          1           0        0.925217    1.974458    0.846728
      6          6           0       -0.742247    0.000170   -0.000009
      7          6           0        2.857485   -1.114562   -0.460517
      8          1           0        0.924793   -1.974271   -0.846630
      9          6           0        3.561107   -0.000116   -0.000034
     10          1           0        3.395267    1.983416    0.829110
     11          6           0       -1.463816    1.113918   -0.461207
     12          6           0       -1.463555   -1.113720    0.461356
     13          1           0        3.394909   -1.983689   -0.829022
     14          1           0        4.647083   -0.000267    0.000019
     15          6           0       -2.857750    1.114443   -0.460385
     16          1           0       -0.925264    1.974541   -0.846615
     17          6           0       -2.857456   -1.114575    0.460528
     18          1           0       -0.924737   -1.974145    0.846843
     19          6           0       -3.561105   -0.000208   -0.000102
     20          1           0       -3.395329    1.983486   -0.828858
     21          1           0       -3.394859   -1.983663    0.829153
     22          1           0       -4.647081   -0.000383   -0.000154
 ---------------------------------------------------------------------
 Rotational constants (GHZ):           2.8585222           0.5423271           0.4783221
 Leave Link  202 at Sat Nov  5 21:35:51 2022, MaxMem= 16106127360 cpu:               0.3 elap:               0.0
 (Enter /opt/ap/G16/B01/g16/l301.exe)
 Standard basis: 6-311++G(d,p) (5D, 7F)
 Ernie: Thresh=  0.10000D-02 Tol=  0.10000D-05 Strict=F.
 There are   346 symmetry adapted cartesian basis functions of A   symmetry.
 There are   334 symmetry adapted basis functions of A   symmetry.
   334 basis functions,   522 primitive gaussians,   346 cartesian basis functions
    41 alpha electrons       41 beta electrons
       nuclear repulsion energy       598.7259360686 Hartrees.
 IExCor= 4639 DFT=T Ex+Corr=wB97XD ExCW=0 ScaHFX=  1.000000
 ScaDFX=  1.000000  1.000000  1.000000  1.000000 ScalE2=  1.000000  1.000000
 IRadAn=      5 IRanWt=     -1 IRanGd=            0 ICorTp=0 IEmpDi=121
 HFx  wShort=  0.000000 wLong=  0.200000 cFull=  0.222036 cShort=  0.000000 cLong=  0.777964
 DFx  wShort=  0.000000 wLong=  0.200000 cFull=  0.000000 cShort=  0.000000 cLong=  1.000000
 NAtoms=   22 NActive=   22 NUniq=   22 SFac= 1.00D+00 NAtFMM=   60 NAOKFM=F Big=F
 Integral buffers will be    131072 words long.
 Raffenetti 2 integral format.
 Two-electron integral symmetry is turned on.
 R6Disp:  Grimme-D2 Dispersion energy=       -0.0120967329 Hartrees.
 Nuclear repulsion after empirical dispersion term =      598.7138393357 Hartrees.
 Leave Link  301 at Sat Nov  5 21:35:51 2022, MaxMem= 16106127360 cpu:               1.2 elap:               0.0
 (Enter /opt/ap/G16/B01/g16/l302.exe)
 NPDir=0 NMtPBC=     1 NCelOv=     1 NCel=       1 NClECP=     1 NCelD=      1
         NCelK=      1 NCelE2=     1 NClLst=     1 CellRange=     0.0.
 One-electron integrals computed using PRISM.
 One-electron integral symmetry used in STVInt
 NBasis=   334 RedAO= T EigKep=  1.99D-06  NBF=   334
 NBsUse=   332 1.00D-06 EigRej=  6.44D-07 NBFU=   332
 Precomputing XC quadrature grid using
 IXCGrd= 4 IRadAn=           5 IRanWt=          -1 IRanGd=           0 AccXCQ= 0.00D+00.
 Generated NRdTot=       0 NPtTot=           0 NUsed=           0 NTot=          32
 NSgBfM=   346   346   346   346   346 MxSgAt=    22 MxSgA2=    22.
 Leave Link  302 at Sat Nov  5 21:35:51 2022, MaxMem= 16106127360 cpu:               7.7 elap:               0.2
 (Enter /opt/ap/G16/B01/g16/l303.exe)
 DipDrv:  MaxL=1.
 Leave Link  303 at Sat Nov  5 21:35:51 2022, MaxMem= 16106127360 cpu:               1.6 elap:               0.1
 (Enter /opt/ap/G16/B01/g16/l401.exe)
 ExpMin= 3.60D-02 ExpMax= 4.56D+03 ExpMxC= 6.82D+02 IAcc=3 IRadAn=         5 AccDes= 0.00D+00
 Harris functional with IExCor= 4639 and IRadAn=       5 diagonalized for initial guess.
 HarFok:  IExCor= 4639 AccDes= 0.00D+00 IRadAn=         5 IDoV= 1 UseB2=F ITyADJ=14
 ICtDFT=  3500011 ScaDFX=  1.000000  1.000000  1.000000  1.000000
 FoFCou: FMM=F IPFlag=           0 FMFlag=      100000 FMFlg1=           0
         NFxFlg=           0 DoJE=T BraDBF=F KetDBF=T FulRan=T
         wScrn=  0.000000 ICntrl=       500 IOpCl=  0 I1Cent=   200000004 NGrid=           0
         NMat0=    1 NMatS0=      1 NMatT0=    0 NMatD0=    1 NMtDS0=    0 NMtDT0=    0
 Petite list used in FoFCou.
 Harris En= -441.939314080876    
 JPrj=0 DoOrth=F DoCkMO=F.
 Leave Link  401 at Sat Nov  5 21:35:52 2022, MaxMem= 16106127360 cpu:              22.9 elap:               0.8
 (Enter /opt/ap/G16/B01/g16/l502.exe)
 Integral symmetry usage will be decided dynamically.
 Closed shell SCF:
 Using DIIS extrapolation, IDIIS=  1040.
 NGot= 16106127360 LenX= 16105873520 LenY= 16105753363
 Requested convergence on RMS density matrix=1.00D-08 within 512 cycles.
 Requested convergence on MAX density matrix=1.00D-06.
 Requested convergence on             energy=1.00D-06.
 No special actions if energy rises.
 Fock matrices will be formed incrementally for  20 cycles.

 Cycle   1  Pass 1  IDiag  1:
 FoFJK:  IHMeth= 1 ICntrl=       0 DoSepK=T KAlg= 0 I1Cent=           0 FoldK=F
 IRaf=         1 NMat=       1 IRICut=       1 DoRegI=T DoRafI=F ISym2E= 0 IDoP0=0 IntGTp=1.
 FoFCou: FMM=F IPFlag=           0 FMFlag=      100000 FMFlg1=           0
         NFxFlg=           0 DoJE=T BraDBF=F KetDBF=F FulRan=T
         wScrn=  0.000000 ICntrl=       500 IOpCl=  0 I1Cent=           0 NGrid=           0
         NMat0=    1 NMatS0=      1 NMatT0=    0 NMatD0=    1 NMtDS0=    0 NMtDT0=    0
 Symmetry not used in FoFCou.
 E= -463.153417597387    
 DIIS: error= 6.73D-02 at cycle   1 NSaved=   1.
 NSaved= 1 IEnMin= 1 EnMin= -463.153417597387     IErMin= 1 ErrMin= 6.73D-02
 ErrMax= 6.73D-02  0.00D+00 EMaxC= 1.00D-01 BMatC= 9.52D-01 BMatP= 9.52D-01
 IDIUse=3 WtCom= 3.27D-01 WtEn= 6.73D-01
 Coeff-Com:  0.100D+01
 Coeff-En:   0.100D+01
 Coeff:      0.100D+01
 Gap=     0.329 Goal=   None    Shift=    0.000
 GapD=    0.329 DampG=1.000 DampE=0.500 DampFc=0.5000 IDamp=-1.
 Damping current iteration by 5.00D-01
 RMSDP=6.04D-02 MaxDP=4.14D+00              OVMax= 4.35D-02

 Cycle   2  Pass 1  IDiag  1:
 RMSU=  5.49D-03    CP:  7.67D-01
 E= -463.202419375264     Delta-E=       -0.049001777877 Rises=F Damp=T
 DIIS: error= 3.22D-02 at cycle   2 NSaved=   2.
 NSaved= 2 IEnMin= 2 EnMin= -463.202419375264     IErMin= 2 ErrMin= 3.22D-02
 ErrMax= 3.22D-02  0.00D+00 EMaxC= 1.00D-01 BMatC= 2.16D-01 BMatP= 9.52D-01
 IDIUse=3 WtCom= 6.78D-01 WtEn= 3.22D-01
 Coeff-Com: -0.883D+00 0.188D+01
 Coeff-En:   0.000D+00 0.100D+01
 Coeff:     -0.599D+00 0.160D+01
 Gap=     0.348 Goal=   None    Shift=    0.000
 RMSDP=2.82D-02 MaxDP=1.86D+00 DE=-4.90D-02 OVMax= 3.74D-02

 Cycle   3  Pass 1  IDiag  1:
 RMSU=  2.99D-03    CP:  5.46D-01  1.32D+00
 E= -463.246448370834     Delta-E=       -0.044028995569 Rises=F Damp=F
 DIIS: error= 5.47D-03 at cycle   3 NSaved=   3.
 NSaved= 3 IEnMin= 3 EnMin= -463.246448370834     IErMin= 3 ErrMin= 5.47D-03
 ErrMax= 5.47D-03  0.00D+00 EMaxC= 1.00D-01 BMatC= 4.35D-03 BMatP= 2.16D-01
 IDIUse=3 WtCom= 9.45D-01 WtEn= 5.47D-02
 Coeff-Com: -0.364D+00 0.775D+00 0.589D+00
 Coeff-En:   0.000D+00 0.000D+00 0.100D+01
 Coeff:     -0.344D+00 0.732D+00 0.612D+00
 Gap=     0.333 Goal=   None    Shift=    0.000
 RMSDP=3.45D-03 MaxDP=2.82D-01 DE=-4.40D-02 OVMax= 2.12D-02

 Cycle   4  Pass 1  IDiag  1:
 RMSU=  1.11D-03    CP:  5.23D-01  1.52D+00  7.05D-01
 E= -463.250302629190     Delta-E=       -0.003854258356 Rises=F Damp=F
 DIIS: error= 1.79D-03 at cycle   4 NSaved=   4.
 NSaved= 4 IEnMin= 4 EnMin= -463.250302629190     IErMin= 4 ErrMin= 1.79D-03
 ErrMax= 1.79D-03  0.00D+00 EMaxC= 1.00D-01 BMatC= 2.86D-04 BMatP= 4.35D-03
 IDIUse=3 WtCom= 9.82D-01 WtEn= 1.79D-02
 Coeff-Com: -0.129D+00 0.276D+00 0.290D+00 0.562D+00
 Coeff-En:   0.000D+00 0.000D+00 0.000D+00 0.100D+01
 Coeff:     -0.127D+00 0.271D+00 0.285D+00 0.570D+00
 Gap=     0.332 Goal=   None    Shift=    0.000
 RMSDP=9.61D-04 MaxDP=5.15D-02 DE=-3.85D-03 OVMax= 5.60D-03

 Cycle   5  Pass 1  IDiag  1:
 RMSU=  3.48D-04    CP:  5.18D-01  1.51D+00  7.67D-01  5.41D-01
 E= -463.250603455912     Delta-E=       -0.000300826722 Rises=F Damp=F
 DIIS: error= 3.38D-04 at cycle   5 NSaved=   5.
 NSaved= 5 IEnMin= 5 EnMin= -463.250603455912     IErMin= 5 ErrMin= 3.38D-04
 ErrMax= 3.38D-04  0.00D+00 EMaxC= 1.00D-01 BMatC= 8.87D-06 BMatP= 2.86D-04
 IDIUse=3 WtCom= 9.97D-01 WtEn= 3.38D-03
 Coeff-Com:  0.273D-01-0.585D-01-0.313D-01 0.123D+00 0.939D+00
 Coeff-En:   0.000D+00 0.000D+00 0.000D+00 0.000D+00 0.100D+01
 Coeff:      0.273D-01-0.583D-01-0.312D-01 0.123D+00 0.939D+00
 Gap=     0.333 Goal=   None    Shift=    0.000
 RMSDP=1.98D-04 MaxDP=1.47D-02 DE=-3.01D-04 OVMax= 1.62D-03

 Cycle   6  Pass 1  IDiag  1:
 RMSU=  5.46D-05    CP:  5.17D-01  1.49D+00  7.96D-01  5.85D-01  1.22D+00
 E= -463.250615546050     Delta-E=       -0.000012090138 Rises=F Damp=F
 DIIS: error= 5.75D-05 at cycle   6 NSaved=   6.
 NSaved= 6 IEnMin= 6 EnMin= -463.250615546050     IErMin= 6 ErrMin= 5.75D-05
 ErrMax= 5.75D-05  0.00D+00 EMaxC= 1.00D-01 BMatC= 4.90D-07 BMatP= 8.87D-06
 IDIUse=1 WtCom= 1.00D+00 WtEn= 0.00D+00
 Coeff-Com:  0.121D-01-0.259D-01-0.164D-01 0.313D-01 0.332D+00 0.667D+00
 Coeff:      0.121D-01-0.259D-01-0.164D-01 0.313D-01 0.332D+00 0.667D+00
 Gap=     0.333 Goal=   None    Shift=    0.000
 RMSDP=5.65D-05 MaxDP=4.17D-03 DE=-1.21D-05 OVMax= 2.66D-04

 Cycle   7  Pass 1  IDiag  1:
 RMSU=  1.35D-05    CP:  5.17D-01  1.49D+00  8.01D-01  5.75D-01  1.29D+00
                    CP:  1.19D+00
 E= -463.250616124228     Delta-E=       -0.000000578178 Rises=F Damp=F
 DIIS: error= 1.79D-05 at cycle   7 NSaved=   7.
 NSaved= 7 IEnMin= 7 EnMin= -463.250616124228     IErMin= 7 ErrMin= 1.79D-05
 ErrMax= 1.79D-05  0.00D+00 EMaxC= 1.00D-01 BMatC= 5.47D-08 BMatP= 4.90D-07
 IDIUse=1 WtCom= 1.00D+00 WtEn= 0.00D+00
 Coeff-Com: -0.227D-02 0.488D-02 0.211D-02-0.184D-01-0.108D+00 0.168D+00
 Coeff-Com:  0.954D+00
 Coeff:     -0.227D-02 0.488D-02 0.211D-02-0.184D-01-0.108D+00 0.168D+00
 Coeff:      0.954D+00
 Gap=     0.333 Goal=   None    Shift=    0.000
 RMSDP=3.57D-05 MaxDP=2.38D-03 DE=-5.78D-07 OVMax= 2.02D-04

 Cycle   8  Pass 1  IDiag  1:
 RMSU=  3.78D-06    CP:  5.17D-01  1.49D+00  8.05D-01  5.67D-01  1.35D+00
                    CP:  1.39D+00  1.27D+00
 E= -463.250616225720     Delta-E=       -0.000000101492 Rises=F Damp=F
 DIIS: error= 3.46D-06 at cycle   8 NSaved=   8.
 NSaved= 8 IEnMin= 8 EnMin= -463.250616225720     IErMin= 8 ErrMin= 3.46D-06
 ErrMax= 3.46D-06  0.00D+00 EMaxC= 1.00D-01 BMatC= 1.40D-09 BMatP= 5.47D-08
 IDIUse=1 WtCom= 1.00D+00 WtEn= 0.00D+00
 Coeff-Com: -0.417D-03 0.891D-03 0.589D-03-0.179D-02-0.106D-01-0.104D-01
 Coeff-Com: -0.142D-01 0.104D+01
 Coeff:     -0.417D-03 0.891D-03 0.589D-03-0.179D-02-0.106D-01-0.104D-01
 Coeff:     -0.142D-01 0.104D+01
 Gap=     0.333 Goal=   None    Shift=    0.000
 RMSDP=8.61D-06 MaxDP=6.82D-04 DE=-1.01D-07 OVMax= 4.24D-05

 Cycle   9  Pass 1  IDiag  1:
 RMSU=  7.01D-07    CP:  5.17D-01  1.48D+00  8.06D-01  5.64D-01  1.35D+00
                    CP:  1.42D+00  1.37D+00  1.29D+00
 E= -463.250616229810     Delta-E=       -0.000000004090 Rises=F Damp=F
 DIIS: error= 1.79D-06 at cycle   9 NSaved=   9.
 NSaved= 9 IEnMin= 9 EnMin= -463.250616229810     IErMin= 9 ErrMin= 1.79D-06
 ErrMax= 1.79D-06  0.00D+00 EMaxC= 1.00D-01 BMatC= 3.17D-10 BMatP= 1.40D-09
 IDIUse=1 WtCom= 1.00D+00 WtEn= 0.00D+00
 Coeff-Com:  0.155D-03-0.336D-03-0.587D-04 0.183D-02 0.110D-01-0.228D-01
 Coeff-Com: -0.137D+00 0.356D+00 0.791D+00
 Coeff:      0.155D-03-0.336D-03-0.587D-04 0.183D-02 0.110D-01-0.228D-01
 Coeff:     -0.137D+00 0.356D+00 0.791D+00
 Gap=     0.333 Goal=   None    Shift=    0.000
 RMSDP=1.89D-06 MaxDP=1.35D-04 DE=-4.09D-09 OVMax= 1.87D-05

 Cycle  10  Pass 1  IDiag  1:
 RMSU=  2.48D-07    CP:  5.17D-01  1.48D+00  8.06D-01  5.64D-01  1.36D+00
                    CP:  1.43D+00  1.38D+00  1.39D+00  1.39D+00
 E= -463.250616230446     Delta-E=       -0.000000000635 Rises=F Damp=F
 DIIS: error= 3.80D-07 at cycle  10 NSaved=  10.
 NSaved=10 IEnMin=10 EnMin= -463.250616230446     IErMin=10 ErrMin= 3.80D-07
 ErrMax= 3.80D-07  0.00D+00 EMaxC= 1.00D-01 BMatC= 3.12D-11 BMatP= 3.17D-10
 IDIUse=1 WtCom= 1.00D+00 WtEn= 0.00D+00
 Coeff-Com:  0.668D-04-0.144D-03-0.560D-04 0.553D-03 0.296D-02-0.269D-02
 Coeff-Com: -0.277D-01-0.464D-01 0.206D+00 0.867D+00
 Coeff:      0.668D-04-0.144D-03-0.560D-04 0.553D-03 0.296D-02-0.269D-02
 Coeff:     -0.277D-01-0.464D-01 0.206D+00 0.867D+00
 Gap=     0.333 Goal=   None    Shift=    0.000
 RMSDP=2.15D-07 MaxDP=1.37D-05 DE=-6.35D-10 OVMax= 4.39D-06

 Cycle  11  Pass 1  IDiag  1:
 RMSU=  7.90D-08    CP:  5.17D-01  1.48D+00  8.06D-01  5.64D-01  1.36D+00
                    CP:  1.43D+00  1.38D+00  1.41D+00  1.54D+00  1.20D+00
 E= -463.250616230502     Delta-E=       -0.000000000056 Rises=F Damp=F
 DIIS: error= 1.13D-07 at cycle  11 NSaved=  11.
 NSaved=11 IEnMin=11 EnMin= -463.250616230502     IErMin=11 ErrMin= 1.13D-07
 ErrMax= 1.13D-07  0.00D+00 EMaxC= 1.00D-01 BMatC= 1.23D-12 BMatP= 3.12D-11
 IDIUse=1 WtCom= 1.00D+00 WtEn= 0.00D+00
 Coeff-Com: -0.169D-04 0.367D-04 0.140D-04-0.187D-03-0.115D-02 0.241D-02
 Coeff-Com:  0.122D-01-0.244D-01-0.466D-01-0.151D+00 0.121D+01
 Coeff:     -0.169D-04 0.367D-04 0.140D-04-0.187D-03-0.115D-02 0.241D-02
 Coeff:      0.122D-01-0.244D-01-0.466D-01-0.151D+00 0.121D+01
 Gap=     0.333 Goal=   None    Shift=    0.000
 RMSDP=2.38D-07 MaxDP=1.74D-05 DE=-5.64D-11 OVMax= 1.08D-06

 Cycle  12  Pass 1  IDiag  1:
 RMSU=  2.25D-08    CP:  5.17D-01  1.48D+00  8.06D-01  5.64D-01  1.35D+00
                    CP:  1.43D+00  1.38D+00  1.40D+00  1.61D+00  1.32D+00
                    CP:  1.22D+00
 E= -463.250616230506     Delta-E=       -0.000000000004 Rises=F Damp=F
 DIIS: error= 2.48D-08 at cycle  12 NSaved=  12.
 NSaved=12 IEnMin=12 EnMin= -463.250616230506     IErMin=12 ErrMin= 2.48D-08
 ErrMax= 2.48D-08  0.00D+00 EMaxC= 1.00D-01 BMatC= 9.36D-14 BMatP= 1.23D-12
 IDIUse=1 WtCom= 1.00D+00 WtEn= 0.00D+00
 Coeff-Com: -0.171D-05 0.361D-05 0.264D-05-0.940D-05-0.394D-04-0.133D-04
 Coeff-Com: -0.888D-05 0.419D-02-0.636D-04-0.523D-01-0.126D+00 0.117D+01
 Coeff:     -0.171D-05 0.361D-05 0.264D-05-0.940D-05-0.394D-04-0.133D-04
 Coeff:     -0.888D-05 0.419D-02-0.636D-04-0.523D-01-0.126D+00 0.117D+01
 Gap=     0.333 Goal=   None    Shift=    0.000
 RMSDP=5.06D-08 MaxDP=3.61D-06 DE=-3.87D-12 OVMax= 3.20D-07

 Cycle  13  Pass 1  IDiag  1:
 RMSU=  5.64D-09    CP:  5.17D-01  1.48D+00  8.06D-01  5.64D-01  1.35D+00
                    CP:  1.43D+00  1.38D+00  1.40D+00  1.62D+00  1.33D+00
                    CP:  1.25D+00  1.34D+00
 E= -463.250616230507     Delta-E=       -0.000000000001 Rises=F Damp=F
 DIIS: error= 5.48D-09 at cycle  13 NSaved=  13.
 NSaved=13 IEnMin=13 EnMin= -463.250616230507     IErMin=13 ErrMin= 5.48D-09
 ErrMax= 5.48D-09  0.00D+00 EMaxC= 1.00D-01 BMatC= 4.70D-15 BMatP= 9.36D-14
 IDIUse=1 WtCom= 1.00D+00 WtEn= 0.00D+00
 Coeff-Com:  0.598D-06-0.131D-05-0.414D-06 0.751D-05 0.509D-04-0.108D-03
 Coeff-Com: -0.630D-03 0.176D-02 0.333D-02-0.198D-02-0.805D-01 0.172D+00
 Coeff-Com:  0.906D+00
 Coeff:      0.598D-06-0.131D-05-0.414D-06 0.751D-05 0.509D-04-0.108D-03
 Coeff:     -0.630D-03 0.176D-02 0.333D-02-0.198D-02-0.805D-01 0.172D+00
 Coeff:      0.906D+00
 Gap=     0.333 Goal=   None    Shift=    0.000
 RMSDP=5.63D-09 MaxDP=4.43D-07 DE=-1.36D-12 OVMax= 6.78D-08

 SCF Done:  E(RwB97XD) =  -463.250616231     A.U. after   13 cycles
            NFock= 13  Conv=0.56D-08     -V/T= 2.0049
 KE= 4.610096313127D+02 PE=-2.271701500286D+03 EE= 7.487274134067D+02
 Leave Link  502 at Sat Nov  5 21:36:16 2022, MaxMem= 16106127360 cpu:             764.0 elap:              24.0
 (Enter /opt/ap/G16/B01/g16/l601.exe)
 Copying SCF densities to generalized density rwf, IOpCl= 0 IROHF=0.

 **********************************************************************

            Population analysis using the SCF Density.

 **********************************************************************

 Orbital symmetries:
       Occupied  (A) (A) (A) (A) (A) (A) (A) (A) (A) (A) (A) (A)
                 (A) (A) (A) (A) (A) (A) (A) (A) (A) (A) (A) (A)
                 (A) (A) (A) (A) (A) (A) (A) (A) (A) (A) (A) (A)
                 (A) (A) (A) (A) (A)
       Virtual   (A) (A) (A) (A) (A) (A) (A) (A) (A) (A) (A) (A)
                 (A) (A) (A) (A) (A) (A) (A) (A) (A) (A) (A) (A)
                 (A) (A) (A) (A) (A) (A) (A) (A) (A) (A) (A) (A)
                 (A) (A) (A) (A) (A) (A) (A) (A) (A) (A) (A) (A)
                 (A) (A) (A) (A) (A) (A) (A) (A) (A) (A) (A) (A)
                 (A) (A) (A) (A) (A) (A) (A) (A) (A) (A) (A) (A)
                 (A) (A) (A) (A) (A) (A) (A) (A) (A) (A) (A) (A)
                 (A) (A) (A) (A) (A) (A) (A) (A) (A) (A) (A) (A)
                 (A) (A) (A) (A) (A) (A) (A) (A) (A) (A) (A) (A)
                 (A) (A) (A) (A) (A) (A) (A) (A) (A) (A) (A) (A)
                 (A) (A) (A) (A) (A) (A) (A) (A) (A) (A) (A) (A)
                 (A) (A) (A) (A) (A) (A) (A) (A) (A) (A) (A) (A)
                 (A) (A) (A) (A) (A) (A) (A) (A) (A) (A) (A) (A)
                 (A) (A) (A) (A) (A) (A) (A) (A) (A) (A) (A) (A)
                 (A) (A) (A) (A) (A) (A) (A) (A) (A) (A) (A) (A)
                 (A) (A) (A) (A) (A) (A) (A) (A) (A) (A) (A) (A)
                 (A) (A) (A) (A) (A) (A) (A) (A) (A) (A) (A) (A)
                 (A) (A) (A) (A) (A) (A) (A) (A) (A) (A) (A) (A)
                 (A) (A) (A) (A) (A) (A) (A) (A) (A) (A) (A) (A)
                 (A) (A) (A) (A) (A) (A) (A) (A) (A) (A) (A) (A)
                 (A) (A) (A) (A) (A) (A) (A) (A) (A) (A) (A) (A)
                 (A) (A) (A) (A) (A) (A) (A) (A) (A) (A) (A) (A)
                 (A) (A) (A) (A) (A) (A) (A) (A) (A) (A) (A) (A)
                 (A) (A) (A) (A) (A) (A) (A) (A) (A) (A) (A) (A)
                 (A) (A) (A)
 The electronic state is 1-A.
 Alpha  occ. eigenvalues --  -10.30495 -10.30465 -10.29368 -10.29368 -10.29358
 Alpha  occ. eigenvalues --  -10.29357 -10.29279 -10.29279 -10.29274 -10.29274
 Alpha  occ. eigenvalues --  -10.29240 -10.29240  -0.97600  -0.95333  -0.88229
 Alpha  occ. eigenvalues --   -0.85399  -0.84714  -0.82384  -0.72370  -0.71613
 Alpha  occ. eigenvalues --   -0.69060  -0.67512  -0.62735  -0.59378  -0.56219
 Alpha  occ. eigenvalues --   -0.55580  -0.53297  -0.53066  -0.51335  -0.50949
 Alpha  occ. eigenvalues --   -0.50771  -0.46906  -0.45365  -0.45330  -0.43603
 Alpha  occ. eigenvalues --   -0.42180  -0.42172  -0.35689  -0.33568  -0.33408
 Alpha  occ. eigenvalues --   -0.30631
 Alpha virt. eigenvalues --    0.02653   0.03862   0.04558   0.04861   0.04923
 Alpha virt. eigenvalues --    0.05108   0.05824   0.05951   0.07268   0.07520
 Alpha virt. eigenvalues --    0.07667   0.07943   0.09329   0.09513   0.11966
 Alpha virt. eigenvalues --    0.12729   0.13184   0.13316   0.15140   0.15162
 Alpha virt. eigenvalues --    0.15777   0.15872   0.15983   0.16528   0.16871
 Alpha virt. eigenvalues --    0.17443   0.17482   0.17637   0.18086   0.18248
 Alpha virt. eigenvalues --    0.18596   0.18679   0.19096   0.19780   0.19851
 Alpha virt. eigenvalues --    0.20118   0.20706   0.22395   0.22483   0.22719
 Alpha virt. eigenvalues --    0.22765   0.23050   0.23685   0.23806   0.25271
 Alpha virt. eigenvalues --    0.26001   0.26291   0.26294   0.27428   0.27763
 Alpha virt. eigenvalues --    0.28068   0.28572   0.28585   0.29405   0.30800
 Alpha virt. eigenvalues --    0.30913   0.31030   0.31560   0.32106   0.32206
 Alpha virt. eigenvalues --    0.33538   0.34064   0.35054   0.35191   0.35276
 Alpha virt. eigenvalues --    0.35440   0.36223   0.36308   0.36571   0.37435
 Alpha virt. eigenvalues --    0.37487   0.38770   0.39451   0.41472   0.41946
 Alpha virt. eigenvalues --    0.42583   0.43088   0.43117   0.46065   0.47195
 Alpha virt. eigenvalues --    0.48207   0.56365   0.58220   0.60126   0.61416
 Alpha virt. eigenvalues --    0.61519   0.61545   0.62072   0.62754   0.63087
 Alpha virt. eigenvalues --    0.64235   0.64363   0.64389   0.65602   0.65800
 Alpha virt. eigenvalues --    0.65998   0.67646   0.68362   0.69002   0.70285
 Alpha virt. eigenvalues --    0.70718   0.71719   0.73348   0.74424   0.74591
 Alpha virt. eigenvalues --    0.77278   0.77604   0.78339   0.78422   0.79793
 Alpha virt. eigenvalues --    0.81059   0.81090   0.81164   0.81972   0.82915
 Alpha virt. eigenvalues --    0.83580   0.86297   0.86657   0.87995   0.89651
 Alpha virt. eigenvalues --    0.89865   0.91646   0.93047   0.93607   0.94195
 Alpha virt. eigenvalues --    0.95432   0.95939   0.96531   0.96992   0.98155
 Alpha virt. eigenvalues --    1.00281   1.00895   1.01517   1.02293   1.03472
 Alpha virt. eigenvalues --    1.04842   1.06875   1.08742   1.10321   1.10479
 Alpha virt. eigenvalues --    1.11102   1.13740   1.15056   1.15422   1.17249
 Alpha virt. eigenvalues --    1.17425   1.20610   1.22283   1.22604   1.24787
 Alpha virt. eigenvalues --    1.24938   1.39122   1.40126   1.41429   1.41799
 Alpha virt. eigenvalues --    1.53874   1.57478   1.58443   1.58628   1.59494
 Alpha virt. eigenvalues --    1.60790   1.61224   1.62097   1.62187   1.65155
 Alpha virt. eigenvalues --    1.65530   1.65659   1.66829   1.68701   1.71260
 Alpha virt. eigenvalues --    1.73454   1.73897   1.74604   1.74852   1.77405
 Alpha virt. eigenvalues --    1.79926   1.82487   1.82583   1.83062   1.85925
 Alpha virt. eigenvalues --    1.86226   1.86686   1.89126   1.92181   1.92652
 Alpha virt. eigenvalues --    1.93172   1.98514   2.00200   2.01750   2.01910
 Alpha virt. eigenvalues --    2.02432   2.02743   2.04064   2.04133   2.05296
 Alpha virt. eigenvalues --    2.05638   2.07589   2.07979   2.08852   2.11064
 Alpha virt. eigenvalues --    2.11739   2.14126   2.16796   2.16815   2.17525
 Alpha virt. eigenvalues --    2.23317   2.31798   2.35036   2.36294   2.42288
 Alpha virt. eigenvalues --    2.43859   2.50036   2.50159   2.52648   2.52756
 Alpha virt. eigenvalues --    2.55191   2.56283   2.56674   2.57500   2.60575
 Alpha virt. eigenvalues --    2.70776   2.72804   2.74821   2.75498   2.77378
 Alpha virt. eigenvalues --    2.78448   2.79607   2.80233   2.80416   2.81363
 Alpha virt. eigenvalues --    2.82329   2.82626   2.83597   2.85738   2.86384
 Alpha virt. eigenvalues --    2.88094   2.89530   2.90560   2.91909   2.92208
 Alpha virt. eigenvalues --    2.93333   2.94449   2.97109   2.98731   3.00296
 Alpha virt. eigenvalues --    3.03124   3.03667   3.03899   3.04617   3.10574
 Alpha virt. eigenvalues --    3.14723   3.18975   3.21201   3.28299   3.30022
 Alpha virt. eigenvalues --    3.32756   3.44463   3.46759   3.47206   3.48917
 Alpha virt. eigenvalues --    3.58803   3.60493   3.63169   3.63367   3.67885
 Alpha virt. eigenvalues --    3.73473   3.75105   3.89624   4.08351   4.10531
 Alpha virt. eigenvalues --    4.13437   4.14634   4.24253   4.24862   4.26300
 Alpha virt. eigenvalues --    4.27248   4.56015   4.92589   4.95568  23.70451
 Alpha virt. eigenvalues --   23.84921  24.07052  24.09360  24.09475  24.10624
 Alpha virt. eigenvalues --   24.17870  24.21134  24.22145  24.22565  24.30715
 Alpha virt. eigenvalues --   24.32100
          Condensed to atoms (all electrons):
               1          2          3          4          5          6
     1  C   18.790552   0.395825   0.396239  -1.760497   0.004008  -6.751765
     2  C    0.395825  14.873960  -5.263696  -0.565166   0.530710  -3.112533
     3  C    0.396239  -5.263696  14.877022  -0.733543  -0.021106  -3.113387
     4  C   -1.760497  -0.565166  -0.733543   6.754098  -0.061589   1.534055
     5  H    0.004008   0.530710  -0.021106  -0.061589   0.473058  -0.085693
     6  C   -6.751765  -3.112533  -3.113387   1.534055  -0.085693  18.790114
     7  C   -1.761551  -0.734442  -0.567348   0.363228  -0.019546   1.536328
     8  H    0.004058  -0.021162   0.530846  -0.019500   0.000818  -0.085758
     9  C    0.073173   0.660352   0.660393  -0.163280   0.028722  -1.322594
    10  H    0.027610  -0.123933  -0.011433   0.446692  -0.010318   0.049185
    11  C   -3.113392   0.797583  -1.205154   0.405999  -0.022483   0.395543
    12  C   -3.112683  -1.205067   0.796944   0.121606  -0.029125   0.396907
    13  H    0.027618  -0.011422  -0.124026   0.025341  -0.000231   0.049190
    14  H    0.034706   0.012406   0.012402  -0.056374   0.000458  -0.033069
    15  C    1.533729   0.406795   0.120760  -0.004835   0.011822  -1.760153
    16  H   -0.085737  -0.022513  -0.029075   0.011824  -0.001908   0.004076
    17  C    1.536643   0.122479   0.405818  -0.110137   0.021615  -1.762035
    18  H   -0.085751  -0.029131  -0.022541   0.021594  -0.002878   0.004073
    19  C   -1.322845  -0.120034  -0.119432   0.052362  -0.014358   0.073108
    20  H    0.049181   0.000482   0.006273  -0.000902   0.000585   0.027587
    21  H    0.049217   0.006320   0.000421  -0.000972   0.000518   0.027608
    22  H   -0.033071  -0.003397  -0.003356   0.001356  -0.000371   0.034710
               7          8          9         10         11         12
     1  C   -1.761551   0.004058   0.073173   0.027610  -3.113392  -3.112683
     2  C   -0.734442  -0.021162   0.660352  -0.123933   0.797583  -1.205067
     3  C   -0.567348   0.530846   0.660393  -0.011433  -1.205154   0.796944
     4  C    0.363228  -0.019500  -0.163280   0.446692   0.405999   0.121606
     5  H   -0.019546   0.000818   0.028722  -0.010318  -0.022483  -0.029125
     6  C    1.536328  -0.085758  -1.322594   0.049185   0.395543   0.396907
     7  C    6.756059  -0.061657  -0.163715   0.025355   0.121751   0.406499
     8  H   -0.061657   0.473076   0.028695  -0.000230  -0.029097  -0.022549
     9  C   -0.163715   0.028695   6.564683  -0.094068  -0.119666  -0.119843
    10  H    0.025355  -0.000230  -0.094068   0.479252   0.000446   0.006299
    11  C    0.121751  -0.029097  -0.119666   0.000446  14.872655  -5.263009
    12  C    0.406499  -0.022549  -0.119843   0.006299  -5.263009  14.876444
    13  H    0.446755  -0.010320  -0.094053   0.000823   0.006297   0.000454
    14  H   -0.056394   0.000457   0.431612  -0.009125  -0.003372  -0.003382
    15  C   -0.110236   0.021581   0.052418  -0.000909  -0.563035  -0.735422
    16  H    0.021609  -0.002876  -0.014357   0.000585   0.530556  -0.021021
    17  C   -0.005297   0.011864   0.052496  -0.000974  -0.733365  -0.568468
    18  H    0.011862  -0.001914  -0.014358   0.000518  -0.021159   0.530914
    19  C    0.052579  -0.014354  -0.025507   0.000069   0.659241   0.661704
    20  H   -0.000977   0.000518   0.000069   0.000097  -0.123871  -0.011495
    21  H   -0.000917   0.000584   0.000069   0.000009  -0.011407  -0.124054
    22  H    0.001363  -0.000370  -0.000636   0.000008   0.012353   0.012459
              13         14         15         16         17         18
     1  C    0.027618   0.034706   1.533729  -0.085737   1.536643  -0.085751
     2  C   -0.011422   0.012406   0.406795  -0.022513   0.122479  -0.029131
     3  C   -0.124026   0.012402   0.120760  -0.029075   0.405818  -0.022541
     4  C    0.025341  -0.056374  -0.004835   0.011824  -0.110137   0.021594
     5  H   -0.000231   0.000458   0.011822  -0.001908   0.021615  -0.002878
     6  C    0.049190  -0.033069  -1.760153   0.004076  -1.762035   0.004073
     7  C    0.446755  -0.056394  -0.110236   0.021609  -0.005297   0.011862
     8  H   -0.010320   0.000457   0.021581  -0.002876   0.011864  -0.001914
     9  C   -0.094053   0.431612   0.052418  -0.014357   0.052496  -0.014358
    10  H    0.000823  -0.009125  -0.000909   0.000585  -0.000974   0.000518
    11  C    0.006297  -0.003372  -0.563035   0.530556  -0.733365  -0.021159
    12  C    0.000454  -0.003382  -0.735422  -0.021021  -0.568468   0.530914
    13  H    0.479252  -0.009125  -0.000972   0.000518  -0.000910   0.000584
    14  H   -0.009125   0.474028   0.001358  -0.000370   0.001360  -0.000371
    15  C   -0.000972   0.001358   6.753612  -0.061536   0.363320  -0.019530
    16  H    0.000518  -0.000370  -0.061536   0.473057  -0.019537   0.000819
    17  C   -0.000910   0.001360   0.363320  -0.019537   6.756337  -0.061721
    18  H    0.000584  -0.000371  -0.019530   0.000819  -0.061721   0.473077
    19  C    0.000069  -0.000636  -0.163142   0.028701  -0.164023   0.028720
    20  H    0.000009   0.000008   0.446684  -0.010316   0.025364  -0.000231
    21  H    0.000097   0.000008   0.025356  -0.000231   0.446776  -0.010320
    22  H    0.000008  -0.000011  -0.056341   0.000457  -0.056430   0.000458
              19         20         21         22
     1  C   -1.322845   0.049181   0.049217  -0.033071
     2  C   -0.120034   0.000482   0.006320  -0.003397
     3  C   -0.119432   0.006273   0.000421  -0.003356
     4  C    0.052362  -0.000902  -0.000972   0.001356
     5  H   -0.014358   0.000585   0.000518  -0.000371
     6  C    0.073108   0.027587   0.027608   0.034710
     7  C    0.052579  -0.000977  -0.000917   0.001363
     8  H   -0.014354   0.000518   0.000584  -0.000370
     9  C   -0.025507   0.000069   0.000069  -0.000636
    10  H    0.000069   0.000097   0.000009   0.000008
    11  C    0.659241  -0.123871  -0.011407   0.012353
    12  C    0.661704  -0.011495  -0.124054   0.012459
    13  H    0.000069   0.000009   0.000097   0.000008
    14  H   -0.000636   0.000008   0.000008  -0.000011
    15  C   -0.163142   0.446684   0.025356  -0.056341
    16  H    0.028701  -0.010316  -0.000231   0.000457
    17  C   -0.164023   0.025364   0.446776  -0.056430
    18  H    0.028720  -0.000231  -0.010320   0.000458
    19  C    6.564976  -0.094056  -0.094085   0.431609
    20  H   -0.094056   0.479252   0.000824  -0.009124
    21  H   -0.094085   0.000824   0.479254  -0.009126
    22  H    0.431609  -0.009124  -0.009126   0.474029
 Mulliken charges:
               1
     1  C    1.104733
     2  C   -0.594416
     3  C   -0.593021
     4  C   -0.261362
     5  H    0.197292
     6  C    1.104502
     7  C   -0.261307
     8  H    0.197290
     9  C   -0.420604
    10  H    0.214043
    11  C   -0.593414
    12  C   -0.594111
    13  H    0.214043
    14  H    0.203424
    15  C   -0.261324
    16  H    0.197277
    17  C   -0.261175
    18  H    0.197285
    19  C   -0.420665
    20  H    0.214039
    21  H    0.214051
    22  H    0.203422
 Sum of Mulliken charges =  -0.00000
 Mulliken charges with hydrogens summed into heavy atoms:
               1
     1  C    1.104733
     2  C   -0.397125
     3  C   -0.395731
     4  C   -0.047319
     6  C    1.104502
     7  C   -0.047264
     9  C   -0.217180
    11  C   -0.396136
    12  C   -0.396826
    15  C   -0.047285
    17  C   -0.047125
    19  C   -0.217243
 Electronic spatial extent (au):  <R**2>=           2311.9684
 Charge=             -0.0000 electrons
 Dipole moment (field-independent basis, Debye):
    X=              0.0000    Y=             -0.0001    Z=              0.0004  Tot=              0.0004
 Quadrupole moment (field-independent basis, Debye-Ang):
   XX=            -61.6287   YY=            -63.8197   ZZ=            -75.2400
   XY=             -0.0004   XZ=              0.0011   YZ=              0.0001
 Traceless Quadrupole moment (field-independent basis, Debye-Ang):
   XX=              5.2674   YY=              3.0764   ZZ=             -8.3439
   XY=             -0.0004   XZ=              0.0011   YZ=              0.0001
 Octapole moment (field-independent basis, Debye-Ang**2):
  XXX=              0.0001  YYY=              0.0012  ZZZ=              0.0019  XYY=             -0.0003
  XXY=             -0.0026  XXZ=              0.0015  XZZ=              0.0005  YZZ=             -0.0004
  YYZ=              0.0018  XYZ=             13.8592
 Hexadecapole moment (field-independent basis, Debye-Ang**3):
 XXXX=          -2300.6956 YYYY=           -489.7116 ZZZZ=           -175.0596 XXXY=             -0.0025
 XXXZ=              0.0243 YYYX=             -0.0080 YYYZ=              0.0003 ZZZX=              0.0010
 ZZZY=              0.0002 XXYY=           -477.5478 XXZZ=           -498.5469 YYZZ=           -109.6152
 XXYZ=              0.0016 YYXZ=              0.0011 ZZXY=              0.0042
 N-N= 5.987138393357D+02 E-N=-2.271701499979D+03  KE= 4.610096313127D+02
 No NMR shielding tensors so no spin-rotation constants.
 Leave Link  601 at Sat Nov  5 21:36:16 2022, MaxMem= 16106127360 cpu:               4.1 elap:               0.2
 (Enter /opt/ap/G16/B01/g16/l9999.exe)
 1\1\GINC-N08\SP\RwB97XD\6-311++G(d,p)\C12H10\ROOT\05-Nov-2022\0\\#P wB
 97XD/6-311++G(d,p) scf=maxcycle=512\\_conf027.gjf nmol_natom 1_22\\0,1
 \C\C,1,1.40491871\C,1,1.40495292,2,118.20503621\C,2,1.3939373,1,120.91
 08946,3,0.05365643,0\H,2,1.08593095,1,119.3452094,3,-178.3624307,0\C,1
 ,1.48449301,2,120.90144423,4,-179.96388019,0\C,3,1.39389842,1,120.9105
 0598,2,0.03587687,0\H,3,1.08593608,1,119.34159615,2,-178.38281524,0\C,
 4,1.39606958,2,120.24555868,1,-0.09283196,0\H,4,1.08627898,2,119.66792
 041,1,-179.51486187,0\C,6,1.40492034,1,120.90156908,2,45.,0\C,6,1.4049
 5329,1,120.89324856,2,-135.,0\H,7,1.08627928,3,119.67027175,1,-179.512
 58183,0\H,9,1.08597601,4,120.2602535,2,-179.95233103,0\C,11,1.39393437
 ,6,120.91099656,1,-179.95869964,0\H,11,1.08593173,6,119.34475907,1,1.6
 1891886,0\C,12,1.39390147,6,120.91022615,1,-179.94297913,0\H,12,1.0859
 3608,6,119.34175044,1,1.63241608,0\C,15,1.39607161,11,120.24535737,6,-
 0.10315482,0\H,15,1.08627786,11,119.66861247,6,-179.51844254,0\H,17,1.
 08627825,12,119.6702798,6,-179.51590091,0\H,19,1.08597601,15,120.25988
 597,11,-179.94731581,0\\Version=ES64L-G16RevB.01\State=1-A\HF=-463.250
 6162\RMSD=5.628e-09\Dipole=0.0000012,-0.0001466,0.000017\Quadrupole=3.
 1591632,-4.9606326,1.8014694,-1.54077,1.2652793,2.5756178\PG=C01 [X(C1
 2H10)]\\@


 NOTHING MAKES A PERSON MORE PRODUCTIVE THAN THE LAST MINUTE.
 Job cpu time:       0 days  0 hours 13 minutes 30.6 seconds.
 Elapsed time:       0 days  0 hours  0 minutes 25.5 seconds.
 File lengths (MBytes):  RWF=     62 Int=      0 D2E=      0 Chk=      8 Scr=      1
 Normal termination of Gaussian 16 at Sat Nov  5 21:36:16 2022.
