 Entering Gaussian System, Link 0=g16
 Input=_conf031.gjf
 Output=_conf031.log
 Initial command:
 /opt/ap/G16/B01/g16/l1.exe "/tmp2/scr/Gau-4098.inp" -scrdir="/tmp2/scr/"
 Entering Link 1 = /opt/ap/G16/B01/g16/l1.exe PID=      4099.
  
 Copyright (c) 1988-2017, Gaussian, Inc.  All Rights Reserved.
  
 This is part of the Gaussian(R) 16 program.  It is based on
 the Gaussian(R) 09 system (copyright 2009, Gaussian, Inc.),
 the Gaussian(R) 03 system (copyright 2003, Gaussian, Inc.),
 the Gaussian(R) 98 system (copyright 1998, Gaussian, Inc.),
 the Gaussian(R) 94 system (copyright 1995, Gaussian, Inc.),
 the Gaussian 92(TM) system (copyright 1992, Gaussian, Inc.),
 the Gaussian 90(TM) system (copyright 1990, Gaussian, Inc.),
 the Gaussian 88(TM) system (copyright 1988, Gaussian, Inc.),
 the Gaussian 86(TM) system (copyright 1986, Carnegie Mellon
 University), and the Gaussian 82(TM) system (copyright 1983,
 Carnegie Mellon University). Gaussian is a federally registered
 trademark of Gaussian, Inc.
  
 This software contains proprietary and confidential information,
 including trade secrets, belonging to Gaussian, Inc.
  
 This software is provided under written license and may be
 used, copied, transmitted, or stored only in accord with that
 written license.
  
 The following legend is applicable only to US Government
 contracts under FAR:
  
                    RESTRICTED RIGHTS LEGEND
  
 Use, reproduction and disclosure by the US Government is
 subject to restrictions as set forth in subparagraphs (a)
 and (c) of the Commercial Computer Software - Restricted
 Rights clause in FAR 52.227-19.
  
 Gaussian, Inc.
 340 Quinnipiac St., Bldg. 40, Wallingford CT 06492
  
  
 ---------------------------------------------------------------
 Warning -- This program may not be used in any manner that
 competes with the business of Gaussian, Inc. or will provide
 assistance to any competitor of Gaussian, Inc.  The licensee
 of this program is prohibited from giving any competitor of
 Gaussian, Inc. access to this program.  By using this program,
 the user acknowledges that Gaussian, Inc. is engaged in the
 business of creating and licensing software in the field of
 computational chemistry and represents and warrants to the
 licensee that it is not a competitor of Gaussian, Inc. and that
 it will not use this program in any manner prohibited above.
 ---------------------------------------------------------------
  

 Cite this work as:
 Gaussian 16, Revision B.01,
 M. J. Frisch, G. W. Trucks, H. B. Schlegel, G. E. Scuseria, 
 M. A. Robb, J. R. Cheeseman, G. Scalmani, V. Barone, 
 G. A. Petersson, H. Nakatsuji, X. Li, M. Caricato, A. V. Marenich, 
 J. Bloino, B. G. Janesko, R. Gomperts, B. Mennucci, H. P. Hratchian, 
 J. V. Ortiz, A. F. Izmaylov, J. L. Sonnenberg, D. Williams-Young, 
 F. Ding, F. Lipparini, F. Egidi, J. Goings, B. Peng, A. Petrone, 
 T. Henderson, D. Ranasinghe, V. G. Zakrzewski, J. Gao, N. Rega, 
 G. Zheng, W. Liang, M. Hada, M. Ehara, K. Toyota, R. Fukuda, 
 J. Hasegawa, M. Ishida, T. Nakajima, Y. Honda, O. Kitao, H. Nakai, 
 T. Vreven, K. Throssell, J. A. Montgomery, Jr., J. E. Peralta, 
 F. Ogliaro, M. J. Bearpark, J. J. Heyd, E. N. Brothers, K. N. Kudin, 
 V. N. Staroverov, T. A. Keith, R. Kobayashi, J. Normand, 
 K. Raghavachari, A. P. Rendell, J. C. Burant, S. S. Iyengar, 
 J. Tomasi, M. Cossi, J. M. Millam, M. Klene, C. Adamo, R. Cammi, 
 J. W. Ochterski, R. L. Martin, K. Morokuma, O. Farkas, 
 J. B. Foresman, and D. J. Fox, Gaussian, Inc., Wallingford CT, 2016.
 
 ******************************************
 Gaussian 16:  ES64L-G16RevB.01 20-Dec-2017
                 5-Nov-2022 
 ******************************************
 %nprocshared=32
 Will use up to   32 processors via shared memory.
 %mem=120GB
 %chk=_conf031.chk
 ----------------------------------------
 #P wB97XD/6-311++G(d,p) scf=maxcycle=512
 ----------------------------------------
 1/38=1,172=1/1;
 2/12=2,17=6,18=5,40=1/2;
 3/5=4,6=6,7=1111,11=2,25=1,30=1,74=-58/1,2,3;
 4//1;
 5/5=2,7=512,38=5/2;
 6/7=2,8=2,9=2,10=2,28=1/1;
 99/5=1,9=1/99;
 Leave Link    1 at Sat Nov  5 21:36:16 2022, MaxMem= 16106127360 cpu:               1.5 elap:               0.1
 (Enter /opt/ap/G16/B01/g16/l101.exe)
 ----------------------------
 _conf031.gjf nmol_natom 1_22
 ----------------------------
 Symbolic Z-matrix:
 Charge =  0 Multiplicity = 1
 C
 C                    1     1.40492 
 C                    1     1.40495  2     118.20504 
 C                    2     1.39394  1     120.91089  3     0.05366  0
 H                    2     1.08593  1     119.34521  3    -178.36243  0
 C                    1     1.48449  2     120.90144  4    -179.96388  0
 C                    3     1.3939   1     120.91051  2     0.03588  0
 H                    3     1.08594  1     119.3416  2    -178.38282  0
 C                    4     1.39607  2     120.24556  1    -0.09283  0
 H                    4     1.08628  2     119.66792  1    -179.51486  0
 C                    6     1.40492  1     120.90157  2     65.      0
 C                    6     1.40495  1     120.89325  2    -115.     0
 H                    7     1.08628  3     119.67027  1    -179.51258  0
 H                    9     1.08598  4     120.26025  2    -179.95233  0
 C                    11    1.39393  6     120.911  1    -179.9587  0
 H                    11    1.08593  6     119.34476  1     1.61892  0
 C                    12    1.3939   6     120.91023  1    -179.94298  0
 H                    12    1.08594  6     119.34175  1     1.63242  0
 C                    15    1.39607  11    120.24536  6    -0.10315  0
 H                    15    1.08628  11    119.66861  6    -179.51844  0
 H                    17    1.08628  12    119.67028  6    -179.5159  0
 H                    19    1.08598  15    120.25989  11   -179.94732  0
 
 ITRead=  0  0  0  0  0  0  0  0  0  0  0  0  0  0  0  0  0  0  0  0
 ITRead=  0  0
 MicOpt= -1 -1 -1 -1 -1 -1 -1 -1 -1 -1 -1 -1 -1 -1 -1 -1 -1 -1 -1 -1
 MicOpt= -1 -1
 NAtoms=     22 NQM=       22 NQMF=       0 NMMI=      0 NMMIF=      0
                NMic=       0 NMicF=      0.
                    Isotopes and Nuclear Properties:
 (Nuclear quadrupole moments (NQMom) in fm**2, nuclear magnetic moments (NMagM)
  in nuclear magnetons)

  Atom         1           2           3           4           5           6           7           8           9          10
 IAtWgt=          12          12          12          12           1          12          12           1          12           1
 AtmWgt=  12.0000000  12.0000000  12.0000000  12.0000000   1.0078250  12.0000000  12.0000000   1.0078250  12.0000000   1.0078250
 NucSpn=           0           0           0           0           1           0           0           1           0           1
 AtZEff=  -0.0000000  -0.0000000  -0.0000000  -0.0000000  -0.0000000  -0.0000000  -0.0000000  -0.0000000  -0.0000000  -0.0000000
 NQMom=    0.0000000   0.0000000   0.0000000   0.0000000   0.0000000   0.0000000   0.0000000   0.0000000   0.0000000   0.0000000
 NMagM=    0.0000000   0.0000000   0.0000000   0.0000000   2.7928460   0.0000000   0.0000000   2.7928460   0.0000000   2.7928460
 AtZNuc=   6.0000000   6.0000000   6.0000000   6.0000000   1.0000000   6.0000000   6.0000000   1.0000000   6.0000000   1.0000000

  Atom        11          12          13          14          15          16          17          18          19          20
 IAtWgt=          12          12           1           1          12           1          12           1          12           1
 AtmWgt=  12.0000000  12.0000000   1.0078250   1.0078250  12.0000000   1.0078250  12.0000000   1.0078250  12.0000000   1.0078250
 NucSpn=           0           0           1           1           0           1           0           1           0           1
 AtZEff=  -0.0000000  -0.0000000  -0.0000000  -0.0000000  -0.0000000  -0.0000000  -0.0000000  -0.0000000  -0.0000000  -0.0000000
 NQMom=    0.0000000   0.0000000   0.0000000   0.0000000   0.0000000   0.0000000   0.0000000   0.0000000   0.0000000   0.0000000
 NMagM=    0.0000000   0.0000000   2.7928460   2.7928460   0.0000000   2.7928460   0.0000000   2.7928460   0.0000000   2.7928460
 AtZNuc=   6.0000000   6.0000000   1.0000000   1.0000000   6.0000000   1.0000000   6.0000000   1.0000000   6.0000000   1.0000000

  Atom        21          22
 IAtWgt=           1           1
 AtmWgt=   1.0078250   1.0078250
 NucSpn=           1           1
 AtZEff=  -0.0000000  -0.0000000
 NQMom=    0.0000000   0.0000000
 NMagM=    2.7928460   2.7928460
 AtZNuc=   1.0000000   1.0000000
 Leave Link  101 at Sat Nov  5 21:36:17 2022, MaxMem= 16106127360 cpu:               6.0 elap:               0.2
 (Enter /opt/ap/G16/B01/g16/l202.exe)
                          Input orientation:                          
 ---------------------------------------------------------------------
 Center     Atomic      Atomic             Coordinates (Angstroms)
 Number     Number       Type             X           Y           Z
 ---------------------------------------------------------------------
      1          6           0        0.000000    0.000000    0.000000
      2          6           0        0.000000    0.000000    1.404919
      3          6           0        1.238131    0.000000   -0.664020
      4          6           0        1.195952    0.001120    2.120990
      5          1           0       -0.946201   -0.027051    1.937101
      6          6           0       -1.273772   -0.000390   -0.762381
      7          6           0        2.434381   -0.000749    0.051479
      8          1           0        1.259850    0.026715   -1.749411
      9          6           0        2.418826    0.000311    1.447501
     10          1           0        1.172413   -0.006894    3.206985
     11          6           0       -2.154847    1.091888   -0.695779
     12          6           0       -1.630731   -1.093168   -1.570038
     13          1           0        3.380326    0.007295   -0.482493
     14          1           0        3.350700    0.000403    2.005133
     15          6           0       -3.351366    1.091366   -1.410898
     16          1           0       -1.885102    1.957537   -0.098169
     17          6           0       -2.826127   -1.093405   -2.286969
     18          1           0       -0.976165   -1.958532   -1.614138
     19          6           0       -3.692257   -0.001125   -2.210444
     20          1           0       -4.014035    1.950007   -1.350847
     21          1           0       -3.085860   -1.952398   -2.899073
     22          1           0       -4.623971   -0.001416   -2.768345
 ---------------------------------------------------------------------
                    Distance matrix (angstroms):
                    1          2          3          4          5
     1  C    0.000000
     2  C    1.404919   0.000000
     3  C    1.404953   2.411116   0.000000
     4  C    2.434934   1.393937   2.785330   0.000000
     5  H    2.156012   1.085931   3.396745   2.150216   0.000000
     6  C    1.484493   2.513898   2.513829   3.796494   2.719415
     7  C    2.434925   2.785320   1.393898   2.411760   3.870994
     8  H    2.156008   3.396723   1.085936   3.871013   4.296501
     9  C    2.818861   2.419201   2.419207   1.396070   3.400568
    10  H    3.414579   2.149893   3.871569   1.086279   2.470128
    11  C    2.513901   3.201331   3.564482   4.511300   3.105626
    12  C    2.513826   3.564361   3.200977   4.776117   3.728970
    13  H    3.414594   3.871560   2.149884   3.398478   4.957262
    14  H    3.904837   3.404035   3.404016   2.157861   4.297527
    15  C    3.796494   4.511270   4.776232   5.860118   4.271391
    16  H    2.719411   3.105613   3.729172   4.271432   2.993735
    17  C    3.796414   4.776250   4.510842   6.066730   4.744893
    18  H    2.719225   3.728733   3.105105   4.744419   4.042625
    19  C    4.303351   5.167554   5.167220   6.531150   4.974297
    20  H    4.662595   5.244926   5.644423   6.557117   4.912328
    21  H    4.662511   5.644354   5.244446   6.881219   5.627938
    22  H    5.389327   6.228743   6.228357   7.601126   5.972259
                    6          7          8          9         10
     6  C    0.000000
     7  C    3.796415   0.000000
     8  H    2.719228   2.150228   0.000000
     9  C    4.303354   1.396108   3.400612   0.000000
    10  H    4.662588   3.398502   4.957280   2.156243   0.000000
    11  C    1.404920   4.776324   3.728926   5.167560   5.244955
    12  C    1.404953   4.510857   3.105120   5.167219   5.644250
    13  H    4.662512   1.086279   2.470197   2.156248   4.299689
    14  H    5.389330   2.157871   4.297551   1.085976   2.487858
    15  C    2.434934   6.066806   4.744616   6.531153   6.557103
    16  H    2.156010   4.745019   4.042943   4.974296   4.912375
    17  C    2.434925   5.859623   4.270696   6.530851   6.881305
    18  H    2.156010   4.270716   2.993203   4.973596   5.627477
    19  C    2.818858   6.530849   4.973600   7.122212   7.281043
    20  H    3.414583   6.881426   5.627767   7.281055   7.176527
    21  H    3.414594   6.556504   4.911599   7.280614   7.694272
    22  H    3.904834   7.600773   5.971463   8.208188   8.324822
                   11         12         13         14         15
    11  C    0.000000
    12  C    2.411119   0.000000
    13  H    5.644464   5.244470   0.000000
    14  H    6.228750   6.228355   2.487812   0.000000
    15  C    1.393934   2.785336   6.881339   7.601129   0.000000
    16  H    1.085932   3.396748   5.628132   5.972259   2.150219
    17  C    2.785320   1.393901   6.556503   7.600773   2.411763
    18  H    3.396725   1.085936   4.911629   5.971458   3.871016
    19  C    2.419198   2.419208   7.280612   8.208188   1.396072
    20  H    2.149897   3.871575   7.694461   8.324835   1.086278
    21  H    3.871558   2.149886   7.175779   8.324300   3.398478
    22  H    3.404029   3.404019   8.324300   9.294164   2.157859
                   16         17         18         19         20
    16  H    0.000000
    17  C    3.870997   0.000000
    18  H    4.296501   2.150234   0.000000
    19  C    3.400569   1.396107   3.400615   0.000000
    20  H    2.470145   3.398500   4.957282   2.156238   0.000000
    21  H    4.957264   1.086278   2.470204   2.156245   4.299683
    22  H    4.297527   2.157871   4.297556   1.085976   2.487844
                   21         22
    21  H    0.000000
    22  H    2.487812   0.000000
 Stoichiometry    C12H10
 Framework group  C1[X(C12H10)]
 Deg. of freedom    60
 Full point group                 C1      NOp   1
 Largest Abelian subgroup         C1      NOp   1
 Largest concise Abelian subgroup C1      NOp   1
                         Standard orientation:                         
 ---------------------------------------------------------------------
 Center     Atomic      Atomic             Coordinates (Angstroms)
 Number     Number       Type             X           Y           Z
 ---------------------------------------------------------------------
      1          6           0        0.742246    0.000214   -0.000115
      2          6           0        1.463788    1.016890    0.647607
      3          6           0        1.463583   -1.016751   -0.647686
      4          6           0        2.857725    1.017512    0.646999
      5          1           0        0.925224    1.797433    1.176708
      6          6           0       -0.742247    0.000189   -0.000012
      7          6           0        2.857481   -1.017675   -0.647064
      8          1           0        0.924786   -1.797257   -1.176615
      9          6           0        3.561107   -0.000129   -0.000048
     10          1           0        3.395273    1.809291    1.160935
     11          6           0       -1.463826    1.016918   -0.647613
     12          6           0       -1.463545   -1.016677    0.647759
     13          1           0        3.394903   -1.809613   -1.160888
     14          1           0        4.647083   -0.000297   -0.000013
     15          6           0       -2.857760    1.017551   -0.646913
     16          1           0       -0.925283    1.797550   -1.176604
     17          6           0       -2.857446   -1.017689    0.647073
     18          1           0       -0.924719   -1.797082    1.176808
     19          6           0       -3.561105   -0.000252   -0.000075
     20          1           0       -3.395348    1.809397   -1.160703
     21          1           0       -3.394840   -1.809572    1.161007
     22          1           0       -4.647081   -0.000454   -0.000110
 ---------------------------------------------------------------------
 Rotational constants (GHZ):           2.8585222           0.5280519           0.4900054
 Leave Link  202 at Sat Nov  5 21:36:17 2022, MaxMem= 16106127360 cpu:               0.7 elap:               0.0
 (Enter /opt/ap/G16/B01/g16/l301.exe)
 Standard basis: 6-311++G(d,p) (5D, 7F)
 Ernie: Thresh=  0.10000D-02 Tol=  0.10000D-05 Strict=F.
 There are   346 symmetry adapted cartesian basis functions of A   symmetry.
 There are   334 symmetry adapted basis functions of A   symmetry.
   334 basis functions,   522 primitive gaussians,   346 cartesian basis functions
    41 alpha electrons       41 beta electrons
       nuclear repulsion energy       598.1455300261 Hartrees.
 IExCor= 4639 DFT=T Ex+Corr=wB97XD ExCW=0 ScaHFX=  1.000000
 ScaDFX=  1.000000  1.000000  1.000000  1.000000 ScalE2=  1.000000  1.000000
 IRadAn=      5 IRanWt=     -1 IRanGd=            0 ICorTp=0 IEmpDi=121
 HFx  wShort=  0.000000 wLong=  0.200000 cFull=  0.222036 cShort=  0.000000 cLong=  0.777964
 DFx  wShort=  0.000000 wLong=  0.200000 cFull=  0.000000 cShort=  0.000000 cLong=  1.000000
 NAtoms=   22 NActive=   22 NUniq=   22 SFac= 1.00D+00 NAtFMM=   60 NAOKFM=F Big=F
 Integral buffers will be    131072 words long.
 Raffenetti 2 integral format.
 Two-electron integral symmetry is turned on.
 R6Disp:  Grimme-D2 Dispersion energy=       -0.0119480283 Hartrees.
 Nuclear repulsion after empirical dispersion term =      598.1335819978 Hartrees.
 Leave Link  301 at Sat Nov  5 21:36:17 2022, MaxMem= 16106127360 cpu:               1.6 elap:               0.1
 (Enter /opt/ap/G16/B01/g16/l302.exe)
 NPDir=0 NMtPBC=     1 NCelOv=     1 NCel=       1 NClECP=     1 NCelD=      1
         NCelK=      1 NCelE2=     1 NClLst=     1 CellRange=     0.0.
 One-electron integrals computed using PRISM.
 One-electron integral symmetry used in STVInt
 NBasis=   334 RedAO= T EigKep=  2.03D-06  NBF=   334
 NBsUse=   332 1.00D-06 EigRej=  7.85D-07 NBFU=   332
 Precomputing XC quadrature grid using
 IXCGrd= 4 IRadAn=           5 IRanWt=          -1 IRanGd=           0 AccXCQ= 0.00D+00.
 Generated NRdTot=       0 NPtTot=           0 NUsed=           0 NTot=          32
 NSgBfM=   346   346   346   346   346 MxSgAt=    22 MxSgA2=    22.
 Leave Link  302 at Sat Nov  5 21:36:17 2022, MaxMem= 16106127360 cpu:               7.4 elap:               0.2
 (Enter /opt/ap/G16/B01/g16/l303.exe)
 DipDrv:  MaxL=1.
 Leave Link  303 at Sat Nov  5 21:36:17 2022, MaxMem= 16106127360 cpu:               1.5 elap:               0.1
 (Enter /opt/ap/G16/B01/g16/l401.exe)
 ExpMin= 3.60D-02 ExpMax= 4.56D+03 ExpMxC= 6.82D+02 IAcc=3 IRadAn=         5 AccDes= 0.00D+00
 Harris functional with IExCor= 4639 and IRadAn=       5 diagonalized for initial guess.
 HarFok:  IExCor= 4639 AccDes= 0.00D+00 IRadAn=         5 IDoV= 1 UseB2=F ITyADJ=14
 ICtDFT=  3500011 ScaDFX=  1.000000  1.000000  1.000000  1.000000
 FoFCou: FMM=F IPFlag=           0 FMFlag=      100000 FMFlg1=           0
         NFxFlg=           0 DoJE=T BraDBF=F KetDBF=T FulRan=T
         wScrn=  0.000000 ICntrl=       500 IOpCl=  0 I1Cent=   200000004 NGrid=           0
         NMat0=    1 NMatS0=      1 NMatT0=    0 NMatD0=    1 NMtDS0=    0 NMtDT0=    0
 Petite list used in FoFCou.
 Harris En= -441.938215694458    
 JPrj=0 DoOrth=F DoCkMO=F.
 Leave Link  401 at Sat Nov  5 21:36:18 2022, MaxMem= 16106127360 cpu:              19.5 elap:               0.6
 (Enter /opt/ap/G16/B01/g16/l502.exe)
 Integral symmetry usage will be decided dynamically.
 Closed shell SCF:
 Using DIIS extrapolation, IDIIS=  1040.
 NGot= 16106127360 LenX= 16105873520 LenY= 16105753363
 Requested convergence on RMS density matrix=1.00D-08 within 512 cycles.
 Requested convergence on MAX density matrix=1.00D-06.
 Requested convergence on             energy=1.00D-06.
 No special actions if energy rises.
 Fock matrices will be formed incrementally for  20 cycles.

 Cycle   1  Pass 1  IDiag  1:
 FoFJK:  IHMeth= 1 ICntrl=       0 DoSepK=T KAlg= 0 I1Cent=           0 FoldK=F
 IRaf=         1 NMat=       1 IRICut=       1 DoRegI=T DoRafI=F ISym2E= 0 IDoP0=0 IntGTp=1.
 FoFCou: FMM=F IPFlag=           0 FMFlag=      100000 FMFlg1=           0
         NFxFlg=           0 DoJE=T BraDBF=F KetDBF=F FulRan=T
         wScrn=  0.000000 ICntrl=       500 IOpCl=  0 I1Cent=           0 NGrid=           0
         NMat0=    1 NMatS0=      1 NMatT0=    0 NMatD0=    1 NMtDS0=    0 NMtDT0=    0
 Symmetry not used in FoFCou.
 E= -463.152132276897    
 DIIS: error= 6.27D-02 at cycle   1 NSaved=   1.
 NSaved= 1 IEnMin= 1 EnMin= -463.152132276897     IErMin= 1 ErrMin= 6.27D-02
 ErrMax= 6.27D-02  0.00D+00 EMaxC= 1.00D-01 BMatC= 9.52D-01 BMatP= 9.52D-01
 IDIUse=3 WtCom= 3.73D-01 WtEn= 6.27D-01
 Coeff-Com:  0.100D+01
 Coeff-En:   0.100D+01
 Coeff:      0.100D+01
 Gap=     0.348 Goal=   None    Shift=    0.000
 GapD=    0.348 DampG=1.000 DampE=0.500 DampFc=0.5000 IDamp=-1.
 Damping current iteration by 5.00D-01
 RMSDP=5.52D-02 MaxDP=3.64D+00              OVMax= 4.10D-02

 Cycle   2  Pass 1  IDiag  1:
 RMSU=  5.23D-03    CP:  7.58D-01
 E= -463.201025881773     Delta-E=       -0.048893604876 Rises=F Damp=T
 DIIS: error= 3.03D-02 at cycle   2 NSaved=   2.
 NSaved= 2 IEnMin= 2 EnMin= -463.201025881773     IErMin= 2 ErrMin= 3.03D-02
 ErrMax= 3.03D-02  0.00D+00 EMaxC= 1.00D-01 BMatC= 2.16D-01 BMatP= 9.52D-01
 IDIUse=3 WtCom= 6.97D-01 WtEn= 3.03D-01
 Coeff-Com: -0.883D+00 0.188D+01
 Coeff-En:   0.000D+00 0.100D+01
 Coeff:     -0.616D+00 0.162D+01
 Gap=     0.357 Goal=   None    Shift=    0.000
 RMSDP=2.29D-02 MaxDP=1.37D+00 DE=-4.89D-02 OVMax= 3.72D-02

 Cycle   3  Pass 1  IDiag  1:
 RMSU=  3.99D-03    CP:  5.56D-01  1.06D+00
 E= -463.244561737073     Delta-E=       -0.043535855300 Rises=F Damp=F
 DIIS: error= 5.31D-03 at cycle   3 NSaved=   3.
 NSaved= 3 IEnMin= 3 EnMin= -463.244561737073     IErMin= 3 ErrMin= 5.31D-03
 ErrMax= 5.31D-03  0.00D+00 EMaxC= 1.00D-01 BMatC= 4.76D-03 BMatP= 2.16D-01
 IDIUse=3 WtCom= 9.47D-01 WtEn= 5.31D-02
 Coeff-Com: -0.373D+00 0.793D+00 0.580D+00
 Coeff-En:   0.000D+00 0.000D+00 0.100D+01
 Coeff:     -0.353D+00 0.751D+00 0.602D+00
 Gap=     0.352 Goal=   None    Shift=    0.000
 RMSDP=4.12D-03 MaxDP=3.10D-01 DE=-4.35D-02 OVMax= 2.19D-02

 Cycle   4  Pass 1  IDiag  1:
 RMSU=  9.73D-04    CP:  5.26D-01  1.41D+00  6.98D-01
 E= -463.248808231146     Delta-E=       -0.004246494073 Rises=F Damp=F
 DIIS: error= 1.54D-03 at cycle   4 NSaved=   4.
 NSaved= 4 IEnMin= 4 EnMin= -463.248808231146     IErMin= 4 ErrMin= 1.54D-03
 ErrMax= 1.54D-03  0.00D+00 EMaxC= 1.00D-01 BMatC= 2.97D-04 BMatP= 4.76D-03
 IDIUse=3 WtCom= 9.85D-01 WtEn= 1.54D-02
 Coeff-Com: -0.133D+00 0.285D+00 0.287D+00 0.561D+00
 Coeff-En:   0.000D+00 0.000D+00 0.000D+00 0.100D+01
 Coeff:     -0.131D+00 0.281D+00 0.283D+00 0.568D+00
 Gap=     0.351 Goal=   None    Shift=    0.000
 RMSDP=8.26D-04 MaxDP=4.17D-02 DE=-4.25D-03 OVMax= 5.45D-03

 Cycle   5  Pass 1  IDiag  1:
 RMSU=  3.13D-04    CP:  5.21D-01  1.37D+00  7.80D-01  6.42D-01
 E= -463.249119855558     Delta-E=       -0.000311624412 Rises=F Damp=F
 DIIS: error= 2.53D-04 at cycle   5 NSaved=   5.
 NSaved= 5 IEnMin= 5 EnMin= -463.249119855558     IErMin= 5 ErrMin= 2.53D-04
 ErrMax= 2.53D-04  0.00D+00 EMaxC= 1.00D-01 BMatC= 8.26D-06 BMatP= 2.97D-04
 IDIUse=3 WtCom= 9.97D-01 WtEn= 2.53D-03
 Coeff-Com:  0.272D-01-0.580D-01-0.289D-01 0.117D+00 0.943D+00
 Coeff-En:   0.000D+00 0.000D+00 0.000D+00 0.000D+00 0.100D+01
 Coeff:      0.271D-01-0.578D-01-0.288D-01 0.117D+00 0.943D+00
 Gap=     0.351 Goal=   None    Shift=    0.000
 RMSDP=1.89D-04 MaxDP=8.36D-03 DE=-3.12D-04 OVMax= 1.41D-03

 Cycle   6  Pass 1  IDiag  1:
 RMSU=  5.21D-05    CP:  5.21D-01  1.36D+00  8.06D-01  7.28D-01  1.26D+00
 E= -463.249130897991     Delta-E=       -0.000011042433 Rises=F Damp=F
 DIIS: error= 5.69D-05 at cycle   6 NSaved=   6.
 NSaved= 6 IEnMin= 6 EnMin= -463.249130897991     IErMin= 6 ErrMin= 5.69D-05
 ErrMax= 5.69D-05  0.00D+00 EMaxC= 1.00D-01 BMatC= 5.29D-07 BMatP= 8.26D-06
 IDIUse=1 WtCom= 1.00D+00 WtEn= 0.00D+00
 Coeff-Com:  0.126D-01-0.269D-01-0.158D-01 0.301D-01 0.346D+00 0.654D+00
 Coeff:      0.126D-01-0.269D-01-0.158D-01 0.301D-01 0.346D+00 0.654D+00
 Gap=     0.351 Goal=   None    Shift=    0.000
 RMSDP=6.00D-05 MaxDP=4.27D-03 DE=-1.10D-05 OVMax= 2.37D-04

 Cycle   7  Pass 1  IDiag  1:
 RMSU=  1.18D-05    CP:  5.21D-01  1.35D+00  8.12D-01  7.29D-01  1.32D+00
                    CP:  1.17D+00
 E= -463.249131495020     Delta-E=       -0.000000597029 Rises=F Damp=F
 DIIS: error= 1.89D-05 at cycle   7 NSaved=   7.
 NSaved= 7 IEnMin= 7 EnMin= -463.249131495020     IErMin= 7 ErrMin= 1.89D-05
 ErrMax= 1.89D-05  0.00D+00 EMaxC= 1.00D-01 BMatC= 5.13D-08 BMatP= 5.29D-07
 IDIUse=1 WtCom= 1.00D+00 WtEn= 0.00D+00
 Coeff-Com: -0.212D-02 0.455D-02 0.196D-02-0.171D-01-0.103D+00 0.151D+00
 Coeff-Com:  0.964D+00
 Coeff:     -0.212D-02 0.455D-02 0.196D-02-0.171D-01-0.103D+00 0.151D+00
 Coeff:      0.964D+00
 Gap=     0.351 Goal=   None    Shift=    0.000
 RMSDP=3.32D-05 MaxDP=2.24D-03 DE=-5.97D-07 OVMax= 1.74D-04

 Cycle   8  Pass 1  IDiag  1:
 RMSU=  4.02D-06    CP:  5.21D-01  1.35D+00  8.15D-01  7.31D-01  1.37D+00
                    CP:  1.36D+00  1.29D+00
 E= -463.249131584035     Delta-E=       -0.000000089015 Rises=F Damp=F
 DIIS: error= 3.54D-06 at cycle   8 NSaved=   8.
 NSaved= 8 IEnMin= 8 EnMin= -463.249131584035     IErMin= 8 ErrMin= 3.54D-06
 ErrMax= 3.54D-06  0.00D+00 EMaxC= 1.00D-01 BMatC= 1.72D-09 BMatP= 5.13D-08
 IDIUse=1 WtCom= 1.00D+00 WtEn= 0.00D+00
 Coeff-Com: -0.472D-03 0.101D-02 0.659D-03-0.230D-02-0.136D-01-0.366D-02
 Coeff-Com:  0.771D-02 0.101D+01
 Coeff:     -0.472D-03 0.101D-02 0.659D-03-0.230D-02-0.136D-01-0.366D-02
 Coeff:      0.771D-02 0.101D+01
 Gap=     0.351 Goal=   None    Shift=    0.000
 RMSDP=6.56D-06 MaxDP=5.11D-04 DE=-8.90D-08 OVMax= 3.79D-05

 Cycle   9  Pass 1  IDiag  1:
 RMSU=  4.66D-07    CP:  5.21D-01  1.35D+00  8.15D-01  7.30D-01  1.38D+00
                    CP:  1.39D+00  1.39D+00  1.28D+00
 E= -463.249131588285     Delta-E=       -0.000000004250 Rises=F Damp=F
 DIIS: error= 1.97D-06 at cycle   9 NSaved=   9.
 NSaved= 9 IEnMin= 9 EnMin= -463.249131588285     IErMin= 9 ErrMin= 1.97D-06
 ErrMax= 1.97D-06  0.00D+00 EMaxC= 1.00D-01 BMatC= 3.38D-10 BMatP= 1.72D-09
 IDIUse=1 WtCom= 1.00D+00 WtEn= 0.00D+00
 Coeff-Com:  0.173D-03-0.374D-03-0.541D-04 0.185D-02 0.118D-01-0.202D-01
 Coeff-Com: -0.153D+00 0.329D+00 0.831D+00
 Coeff:      0.173D-03-0.374D-03-0.541D-04 0.185D-02 0.118D-01-0.202D-01
 Coeff:     -0.153D+00 0.329D+00 0.831D+00
 Gap=     0.351 Goal=   None    Shift=    0.000
 RMSDP=1.65D-06 MaxDP=1.15D-04 DE=-4.25D-09 OVMax= 2.02D-05

 Cycle  10  Pass 1  IDiag  1:
 RMSU=  2.12D-07    CP:  5.21D-01  1.35D+00  8.15D-01  7.30D-01  1.38D+00
                    CP:  1.39D+00  1.42D+00  1.39D+00  1.30D+00
 E= -463.249131589085     Delta-E=       -0.000000000801 Rises=F Damp=F
 DIIS: error= 4.43D-07 at cycle  10 NSaved=  10.
 NSaved=10 IEnMin=10 EnMin= -463.249131589085     IErMin=10 ErrMin= 4.43D-07
 ErrMax= 4.43D-07  0.00D+00 EMaxC= 1.00D-01 BMatC= 4.04D-11 BMatP= 3.38D-10
 IDIUse=1 WtCom= 1.00D+00 WtEn= 0.00D+00
 Coeff-Com:  0.701D-04-0.150D-03-0.588D-04 0.531D-03 0.290D-02-0.152D-02
 Coeff-Com: -0.269D-01-0.791D-01 0.197D+00 0.907D+00
 Coeff:      0.701D-04-0.150D-03-0.588D-04 0.531D-03 0.290D-02-0.152D-02
 Coeff:     -0.269D-01-0.791D-01 0.197D+00 0.907D+00
 Gap=     0.351 Goal=   None    Shift=    0.000
 RMSDP=4.55D-07 MaxDP=3.17D-05 DE=-8.01D-10 OVMax= 5.06D-06

 Cycle  11  Pass 1  IDiag  1:
 RMSU=  7.51D-08    CP:  5.21D-01  1.35D+00  8.15D-01  7.30D-01  1.38D+00
                    CP:  1.39D+00  1.42D+00  1.40D+00  1.45D+00  1.21D+00
 E= -463.249131589154     Delta-E=       -0.000000000069 Rises=F Damp=F
 DIIS: error= 9.29D-08 at cycle  11 NSaved=  11.
 NSaved=11 IEnMin=11 EnMin= -463.249131589154     IErMin=11 ErrMin= 9.29D-08
 ErrMax= 9.29D-08  0.00D+00 EMaxC= 1.00D-01 BMatC= 1.49D-12 BMatP= 4.04D-11
 IDIUse=1 WtCom= 1.00D+00 WtEn= 0.00D+00
 Coeff-Com: -0.195D-04 0.424D-04 0.151D-04-0.198D-03-0.129D-02 0.230D-02
 Coeff-Com:  0.146D-01-0.230D-01-0.524D-01-0.152D+00 0.121D+01
 Coeff:     -0.195D-04 0.424D-04 0.151D-04-0.198D-03-0.129D-02 0.230D-02
 Coeff:      0.146D-01-0.230D-01-0.524D-01-0.152D+00 0.121D+01
 Gap=     0.351 Goal=   None    Shift=    0.000
 RMSDP=2.92D-07 MaxDP=2.16D-05 DE=-6.91D-11 OVMax= 1.26D-06

 Cycle  12  Pass 1  IDiag  1:
 RMSU=  2.07D-08    CP:  5.21D-01  1.35D+00  8.15D-01  7.30D-01  1.38D+00
                    CP:  1.39D+00  1.42D+00  1.39D+00  1.51D+00  1.32D+00
                    CP:  1.29D+00
 E= -463.249131589163     Delta-E=       -0.000000000009 Rises=F Damp=F
 DIIS: error= 1.99D-08 at cycle  12 NSaved=  12.
 NSaved=12 IEnMin=12 EnMin= -463.249131589163     IErMin=12 ErrMin= 1.99D-08
 ErrMax= 1.99D-08  0.00D+00 EMaxC= 1.00D-01 BMatC= 7.60D-14 BMatP= 1.49D-12
 IDIUse=1 WtCom= 1.00D+00 WtEn= 0.00D+00
 Coeff-Com: -0.170D-05 0.359D-05 0.238D-05-0.847D-05-0.383D-04-0.359D-04
 Coeff-Com:  0.106D-04 0.463D-02-0.549D-03-0.479D-01-0.915D-01 0.114D+01
 Coeff:     -0.170D-05 0.359D-05 0.238D-05-0.847D-05-0.383D-04-0.359D-04
 Coeff:      0.106D-04 0.463D-02-0.549D-03-0.479D-01-0.915D-01 0.114D+01
 Gap=     0.351 Goal=   None    Shift=    0.000
 RMSDP=5.87D-08 MaxDP=4.15D-06 DE=-8.64D-12 OVMax= 3.14D-07

 Cycle  13  Pass 1  IDiag  1:
 RMSU=  5.22D-09    CP:  5.21D-01  1.35D+00  8.15D-01  7.30D-01  1.38D+00
                    CP:  1.39D+00  1.42D+00  1.39D+00  1.52D+00  1.32D+00
                    CP:  1.34D+00  1.35D+00
 E= -463.249131589157     Delta-E=        0.000000000006 Rises=F Damp=F
 DIIS: error= 5.12D-09 at cycle  13 NSaved=  13.
 NSaved=13 IEnMin=12 EnMin= -463.249131589163     IErMin=13 ErrMin= 5.12D-09
 ErrMax= 5.12D-09  0.00D+00 EMaxC= 1.00D-01 BMatC= 3.58D-15 BMatP= 7.60D-14
 IDIUse=1 WtCom= 1.00D+00 WtEn= 0.00D+00
 Coeff-Com:  0.618D-06-0.135D-05-0.487D-06 0.711D-05 0.497D-04-0.942D-04
 Coeff-Com: -0.634D-03 0.156D-02 0.288D-02-0.126D-02-0.659D-01 0.151D+00
 Coeff-Com:  0.912D+00
 Coeff:      0.618D-06-0.135D-05-0.487D-06 0.711D-05 0.497D-04-0.942D-04
 Coeff:     -0.634D-03 0.156D-02 0.288D-02-0.126D-02-0.659D-01 0.151D+00
 Coeff:      0.912D+00
 Gap=     0.351 Goal=   None    Shift=    0.000
 RMSDP=4.29D-09 MaxDP=2.18D-07 DE= 5.91D-12 OVMax= 6.07D-08

 SCF Done:  E(RwB97XD) =  -463.249131589     A.U. after   13 cycles
            NFock= 13  Conv=0.43D-08     -V/T= 2.0049
 KE= 4.610087478919D+02 PE=-2.270583178808D+03 EE= 7.481917173291D+02
 Leave Link  502 at Sat Nov  5 21:36:41 2022, MaxMem= 16106127360 cpu:             743.8 elap:              23.3
 (Enter /opt/ap/G16/B01/g16/l601.exe)
 Copying SCF densities to generalized density rwf, IOpCl= 0 IROHF=0.

 **********************************************************************

            Population analysis using the SCF Density.

 **********************************************************************

 Orbital symmetries:
       Occupied  (A) (A) (A) (A) (A) (A) (A) (A) (A) (A) (A) (A)
                 (A) (A) (A) (A) (A) (A) (A) (A) (A) (A) (A) (A)
                 (A) (A) (A) (A) (A) (A) (A) (A) (A) (A) (A) (A)
                 (A) (A) (A) (A) (A)
       Virtual   (A) (A) (A) (A) (A) (A) (A) (A) (A) (A) (A) (A)
                 (A) (A) (A) (A) (A) (A) (A) (A) (A) (A) (A) (A)
                 (A) (A) (A) (A) (A) (A) (A) (A) (A) (A) (A) (A)
                 (A) (A) (A) (A) (A) (A) (A) (A) (A) (A) (A) (A)
                 (A) (A) (A) (A) (A) (A) (A) (A) (A) (A) (A) (A)
                 (A) (A) (A) (A) (A) (A) (A) (A) (A) (A) (A) (A)
                 (A) (A) (A) (A) (A) (A) (A) (A) (A) (A) (A) (A)
                 (A) (A) (A) (A) (A) (A) (A) (A) (A) (A) (A) (A)
                 (A) (A) (A) (A) (A) (A) (A) (A) (A) (A) (A) (A)
                 (A) (A) (A) (A) (A) (A) (A) (A) (A) (A) (A) (A)
                 (A) (A) (A) (A) (A) (A) (A) (A) (A) (A) (A) (A)
                 (A) (A) (A) (A) (A) (A) (A) (A) (A) (A) (A) (A)
                 (A) (A) (A) (A) (A) (A) (A) (A) (A) (A) (A) (A)
                 (A) (A) (A) (A) (A) (A) (A) (A) (A) (A) (A) (A)
                 (A) (A) (A) (A) (A) (A) (A) (A) (A) (A) (A) (A)
                 (A) (A) (A) (A) (A) (A) (A) (A) (A) (A) (A) (A)
                 (A) (A) (A) (A) (A) (A) (A) (A) (A) (A) (A) (A)
                 (A) (A) (A) (A) (A) (A) (A) (A) (A) (A) (A) (A)
                 (A) (A) (A) (A) (A) (A) (A) (A) (A) (A) (A) (A)
                 (A) (A) (A) (A) (A) (A) (A) (A) (A) (A) (A) (A)
                 (A) (A) (A) (A) (A) (A) (A) (A) (A) (A) (A) (A)
                 (A) (A) (A) (A) (A) (A) (A) (A) (A) (A) (A) (A)
                 (A) (A) (A) (A) (A) (A) (A) (A) (A) (A) (A) (A)
                 (A) (A) (A) (A) (A) (A) (A) (A) (A) (A) (A) (A)
                 (A) (A) (A)
 The electronic state is 1-A.
 Alpha  occ. eigenvalues --  -10.30414 -10.30384 -10.29324 -10.29324 -10.29310
 Alpha  occ. eigenvalues --  -10.29310 -10.29243 -10.29243 -10.29234 -10.29234
 Alpha  occ. eigenvalues --  -10.29210 -10.29210  -0.97521  -0.95301  -0.88167
 Alpha  occ. eigenvalues --   -0.85174  -0.84794  -0.82379  -0.72314  -0.71008
 Alpha  occ. eigenvalues --   -0.69568  -0.67478  -0.62532  -0.59548  -0.55851
 Alpha  occ. eigenvalues --   -0.55206  -0.53790  -0.53432  -0.51038  -0.50889
 Alpha  occ. eigenvalues --   -0.50804  -0.46333  -0.45544  -0.45511  -0.43162
 Alpha  occ. eigenvalues --   -0.42517  -0.41932  -0.34500  -0.33723  -0.33179
 Alpha  occ. eigenvalues --   -0.31498
 Alpha virt. eigenvalues --    0.03626   0.03866   0.04276   0.04572   0.05035
 Alpha virt. eigenvalues --    0.05651   0.05990   0.05993   0.06671   0.07032
 Alpha virt. eigenvalues --    0.07321   0.07661   0.09222   0.09235   0.12695
 Alpha virt. eigenvalues --    0.12732   0.12796   0.13323   0.15141   0.15331
 Alpha virt. eigenvalues --    0.15367   0.15769   0.16063   0.16368   0.17044
 Alpha virt. eigenvalues --    0.17410   0.17495   0.17601   0.17691   0.17857
 Alpha virt. eigenvalues --    0.18592   0.18681   0.18910   0.19246   0.19612
 Alpha virt. eigenvalues --    0.20380   0.20618   0.22097   0.22104   0.22266
 Alpha virt. eigenvalues --    0.22472   0.22764   0.23782   0.23890   0.25341
 Alpha virt. eigenvalues --    0.25727   0.26385   0.26525   0.26728   0.27300
 Alpha virt. eigenvalues --    0.27959   0.28247   0.28616   0.29621   0.30442
 Alpha virt. eigenvalues --    0.31000   0.31301   0.31835   0.32500   0.32597
 Alpha virt. eigenvalues --    0.33720   0.33735   0.34815   0.35047   0.35287
 Alpha virt. eigenvalues --    0.35395   0.35879   0.35883   0.36310   0.36855
 Alpha virt. eigenvalues --    0.38024   0.38254   0.38934   0.40901   0.42848
 Alpha virt. eigenvalues --    0.43300   0.43436   0.44299   0.45554   0.46369
 Alpha virt. eigenvalues --    0.48010   0.55657   0.58533   0.60871   0.61090
 Alpha virt. eigenvalues --    0.61311   0.61587   0.62410   0.62667   0.63278
 Alpha virt. eigenvalues --    0.63686   0.64001   0.64634   0.64683   0.65680
 Alpha virt. eigenvalues --    0.65888   0.66905   0.67621   0.68275   0.70915
 Alpha virt. eigenvalues --    0.72475   0.72706   0.73186   0.73698   0.74598
 Alpha virt. eigenvalues --    0.78112   0.78330   0.78948   0.79804   0.80700
 Alpha virt. eigenvalues --    0.80705   0.81284   0.81551   0.81970   0.82051
 Alpha virt. eigenvalues --    0.83157   0.85748   0.85808   0.88711   0.89437
 Alpha virt. eigenvalues --    0.90261   0.92045   0.92951   0.93366   0.94010
 Alpha virt. eigenvalues --    0.95341   0.96145   0.96528   0.96923   0.98744
 Alpha virt. eigenvalues --    0.98807   1.01220   1.02005   1.02957   1.03767
 Alpha virt. eigenvalues --    1.03882   1.08682   1.09446   1.11049   1.11235
 Alpha virt. eigenvalues --    1.11450   1.14147   1.14982   1.15409   1.15951
 Alpha virt. eigenvalues --    1.16357   1.20573   1.23560   1.24858   1.25496
 Alpha virt. eigenvalues --    1.26121   1.37039   1.40472   1.41789   1.43890
 Alpha virt. eigenvalues --    1.50411   1.57847   1.58582   1.59464   1.59800
 Alpha virt. eigenvalues --    1.60613   1.61991   1.62512   1.63414   1.64986
 Alpha virt. eigenvalues --    1.65324   1.65788   1.67381   1.71206   1.72507
 Alpha virt. eigenvalues --    1.73159   1.73690   1.74513   1.74915   1.75050
 Alpha virt. eigenvalues --    1.79973   1.82507   1.82813   1.84459   1.86073
 Alpha virt. eigenvalues --    1.86504   1.87637   1.88564   1.91650   1.92297
 Alpha virt. eigenvalues --    1.93384   1.97462   1.98593   2.00986   2.01099
 Alpha virt. eigenvalues --    2.02134   2.04044   2.04470   2.04962   2.05190
 Alpha virt. eigenvalues --    2.05252   2.08590   2.10012   2.10335   2.10797
 Alpha virt. eigenvalues --    2.11485   2.15167   2.16677   2.16993   2.19995
 Alpha virt. eigenvalues --    2.20582   2.30967   2.34957   2.35257   2.39741
 Alpha virt. eigenvalues --    2.46520   2.51319   2.52434   2.52676   2.53025
 Alpha virt. eigenvalues --    2.55209   2.56085   2.56094   2.57343   2.62996
 Alpha virt. eigenvalues --    2.70959   2.73460   2.74470   2.74623   2.75169
 Alpha virt. eigenvalues --    2.79204   2.79975   2.80398   2.80506   2.81044
 Alpha virt. eigenvalues --    2.82602   2.83270   2.85291   2.85934   2.86859
 Alpha virt. eigenvalues --    2.86943   2.89441   2.91028   2.91243   2.91500
 Alpha virt. eigenvalues --    2.92270   2.92383   2.98007   2.98821   3.00702
 Alpha virt. eigenvalues --    3.01412   3.03846   3.04119   3.05204   3.12618
 Alpha virt. eigenvalues --    3.15184   3.19944   3.22004   3.26632   3.29173
 Alpha virt. eigenvalues --    3.33885   3.43853   3.46182   3.48264   3.48785
 Alpha virt. eigenvalues --    3.58656   3.60666   3.63338   3.63904   3.68499
 Alpha virt. eigenvalues --    3.73415   3.75449   3.92985   4.08857   4.09747
 Alpha virt. eigenvalues --    4.13515   4.14686   4.24621   4.25136   4.25161
 Alpha virt. eigenvalues --    4.26469   4.50955   4.93515   4.95280  23.70909
 Alpha virt. eigenvalues --   23.85314  24.06861  24.09131  24.09421  24.11166
 Alpha virt. eigenvalues --   24.17471  24.22057  24.22466  24.22528  24.30934
 Alpha virt. eigenvalues --   24.32264
          Condensed to atoms (all electrons):
               1          2          3          4          5          6
     1  C   17.357260   0.648547   0.647766  -1.801633   0.090930  -5.464019
     2  C    0.648547  13.141782  -3.722399  -0.111193   0.388364  -2.996057
     3  C    0.647766  -3.722399  13.142868  -1.182473   0.066751  -2.994847
     4  C   -1.801633  -0.111193  -1.182473   6.837366  -0.098770   1.374432
     5  H    0.090930   0.388364   0.066751  -0.098770   0.463912  -0.080237
     6  C   -5.464019  -2.996057  -2.994847   1.374432  -0.080237  17.356766
     7  C   -1.802927  -1.183028  -0.113628   0.297632  -0.017832   1.376871
     8  H    0.090970   0.066731   0.388545  -0.017816   0.000631  -0.080404
     9  C   -0.209158   0.598691   0.598717   0.020815   0.018696  -1.205919
    10  H    0.030261  -0.112116  -0.025445   0.443562  -0.011204   0.046351
    11  C   -2.995948   0.117359  -0.624780   0.381950  -0.008199   0.648220
    12  C   -2.994849  -0.624998   0.117956   0.153649  -0.051872   0.648467
    13  H    0.030253  -0.025432  -0.112189   0.023209  -0.000288   0.046362
    14  H    0.025913   0.019912   0.019901  -0.053042   0.000690  -0.032183
    15  C    1.374285   0.382377   0.153134  -0.009444   0.016627  -1.801417
    16  H   -0.080246  -0.008202  -0.051846   0.016636   0.001096   0.090917
    17  C    1.376883   0.154432   0.381976  -0.097703   0.020432  -1.803087
    18  H   -0.080378  -0.051927  -0.008214   0.020418  -0.002647   0.091029
    19  C   -1.206017  -0.133243  -0.132631   0.049664  -0.014367  -0.209126
    20  H    0.046342   0.000250   0.007729  -0.001178   0.000403   0.030245
    21  H    0.046377   0.007772   0.000206  -0.001128   0.000576   0.030244
    22  H   -0.032183  -0.004052  -0.004017   0.001332  -0.000443   0.025915
               7          8          9         10         11         12
     1  C   -1.802927   0.090970  -0.209158   0.030261  -2.995948  -2.994849
     2  C   -1.183028   0.066731   0.598691  -0.112116   0.117359  -0.624998
     3  C   -0.113628   0.388545   0.598717  -0.025445  -0.624780   0.117956
     4  C    0.297632  -0.017816   0.020815   0.443562   0.381950   0.153649
     5  H   -0.017832   0.000631   0.018696  -0.011204  -0.008199  -0.051872
     6  C    1.376871  -0.080404  -1.205919   0.046351   0.648220   0.648467
     7  C    6.839416  -0.098831   0.020267   0.023218   0.154086   0.382243
     8  H   -0.098831   0.463914   0.018708  -0.000288  -0.051944  -0.008174
     9  C    0.020267   0.018708   6.485748  -0.086284  -0.132971  -0.132925
    10  H    0.023218  -0.000288  -0.086284   0.480042   0.000228   0.007750
    11  C    0.154086  -0.051944  -0.132971   0.000228  13.140152  -3.721832
    12  C    0.382243  -0.008174  -0.132925   0.007750  -3.721832  13.142558
    13  H    0.443615  -0.011205  -0.086271   0.000646   0.007761   0.000218
    14  H   -0.053060   0.000689   0.416852  -0.008400  -0.004034  -0.004036
    15  C   -0.097799   0.020409   0.049717  -0.001183  -0.110031  -1.183342
    16  H    0.020432  -0.002647  -0.014371   0.000403   0.388295   0.066785
    17  C   -0.009859   0.016702   0.049819  -0.001131  -1.182280  -0.114331
    18  H    0.016682   0.001093  -0.014375   0.000576   0.066748   0.388530
    19  C    0.049888  -0.014379  -0.028258   0.000341   0.598053   0.599356
    20  H   -0.001134   0.000576   0.000341   0.000056  -0.112085  -0.025464
    21  H   -0.001192   0.000403   0.000341   0.000006  -0.025433  -0.112198
    22  H    0.001340  -0.000444  -0.000658   0.000010   0.019879   0.019932
              13         14         15         16         17         18
     1  C    0.030253   0.025913   1.374285  -0.080246   1.376883  -0.080378
     2  C   -0.025432   0.019912   0.382377  -0.008202   0.154432  -0.051927
     3  C   -0.112189   0.019901   0.153134  -0.051846   0.381976  -0.008214
     4  C    0.023209  -0.053042  -0.009444   0.016636  -0.097703   0.020418
     5  H   -0.000288   0.000690   0.016627   0.001096   0.020432  -0.002647
     6  C    0.046362  -0.032183  -1.801417   0.090917  -1.803087   0.091029
     7  C    0.443615  -0.053060  -0.097799   0.020432  -0.009859   0.016682
     8  H   -0.011205   0.000689   0.020409  -0.002647   0.016702   0.001093
     9  C   -0.086271   0.416852   0.049717  -0.014371   0.049819  -0.014375
    10  H    0.000646  -0.008400  -0.001183   0.000403  -0.001131   0.000576
    11  C    0.007761  -0.004034  -0.110031   0.388295  -1.182280   0.066748
    12  C    0.000218  -0.004036  -1.183342   0.066785  -0.114331   0.388530
    13  H    0.480041  -0.008399  -0.001128   0.000576  -0.001189   0.000403
    14  H   -0.008399   0.471490   0.001334  -0.000443   0.001338  -0.000444
    15  C   -0.001128   0.001334   6.837058  -0.098721   0.297620  -0.017828
    16  H    0.000576  -0.000443  -0.098721   0.463900  -0.017823   0.000631
    17  C   -0.001189   0.001338   0.297620  -0.017823   6.839443  -0.098881
    18  H    0.000403  -0.000444  -0.017828   0.000631  -0.098881   0.463915
    19  C    0.000341  -0.000659   0.020963   0.018670   0.020134   0.018718
    20  H    0.000006   0.000010   0.443554  -0.011200   0.023218  -0.000289
    21  H    0.000056   0.000010   0.023218  -0.000288   0.443624  -0.011206
    22  H    0.000010  -0.000011  -0.053019   0.000688  -0.053082   0.000690
              19         20         21         22
     1  C   -1.206017   0.046342   0.046377  -0.032183
     2  C   -0.133243   0.000250   0.007772  -0.004052
     3  C   -0.132631   0.007729   0.000206  -0.004017
     4  C    0.049664  -0.001178  -0.001128   0.001332
     5  H   -0.014367   0.000403   0.000576  -0.000443
     6  C   -0.209126   0.030245   0.030244   0.025915
     7  C    0.049888  -0.001134  -0.001192   0.001340
     8  H   -0.014379   0.000576   0.000403  -0.000444
     9  C   -0.028258   0.000341   0.000341  -0.000658
    10  H    0.000341   0.000056   0.000006   0.000010
    11  C    0.598053  -0.112085  -0.025433   0.019879
    12  C    0.599356  -0.025464  -0.112198   0.019932
    13  H    0.000341   0.000006   0.000056   0.000010
    14  H   -0.000659   0.000010   0.000010  -0.000011
    15  C    0.020963   0.443554   0.023218  -0.053019
    16  H    0.018670  -0.011200  -0.000288   0.000688
    17  C    0.020134   0.023218   0.443624  -0.053082
    18  H    0.018718  -0.000289  -0.011206   0.000690
    19  C    6.485794  -0.086265  -0.086285   0.416847
    20  H   -0.086265   0.480042   0.000646  -0.008399
    21  H   -0.086285   0.000646   0.480043  -0.008400
    22  H    0.416847  -0.008399  -0.008400   0.471491
 Mulliken charges:
               1
     1  C    0.901573
     2  C   -0.553568
     3  C   -0.553078
     4  C   -0.246284
     5  H    0.216754
     6  C    0.901477
     7  C   -0.246398
     8  H    0.216761
     9  C   -0.367520
    10  H    0.212604
    11  C   -0.553195
    12  C   -0.553422
    13  H    0.212607
    14  H    0.206573
    15  C   -0.246385
    16  H    0.216758
    17  C   -0.246255
    18  H    0.216756
    19  C   -0.367541
    20  H    0.212599
    21  H    0.212610
    22  H    0.206572
 Sum of Mulliken charges =  -0.00000
 Mulliken charges with hydrogens summed into heavy atoms:
               1
     1  C    0.901573
     2  C   -0.336814
     3  C   -0.336317
     4  C   -0.033680
     6  C    0.901477
     7  C   -0.033791
     9  C   -0.160947
    11  C   -0.336436
    12  C   -0.336667
    15  C   -0.033785
    17  C   -0.033645
    19  C   -0.160969
 Electronic spatial extent (au):  <R**2>=           2312.0054
 Charge=             -0.0000 electrons
 Dipole moment (field-independent basis, Debye):
    X=              0.0000    Y=             -0.0002    Z=              0.0003  Tot=              0.0004
 Quadrupole moment (field-independent basis, Debye-Ang):
   XX=            -61.7535   YY=            -66.2363   ZZ=            -72.7484
   XY=             -0.0005   XZ=              0.0013   YZ=              0.0000
 Traceless Quadrupole moment (field-independent basis, Debye-Ang):
   XX=              5.1592   YY=              0.6765   ZZ=             -5.8357
   XY=             -0.0005   XZ=              0.0013   YZ=              0.0000
 Octapole moment (field-independent basis, Debye-Ang**2):
  XXX=              0.0000  YYY=              0.0010  ZZZ=              0.0029  XYY=             -0.0005
  XXY=             -0.0043  XXZ=              0.0010  XZZ=              0.0006  YZZ=             -0.0005
  YYZ=              0.0004  XYZ=             17.5313
 Hexadecapole moment (field-independent basis, Debye-Ang**3):
 XXXX=          -2302.2484 YYYY=           -437.9803 ZZZZ=           -248.7806 XXXY=             -0.0021
 XXXZ=              0.0257 YYYX=             -0.0092 YYYZ=              0.0002 ZZZX=              0.0015
 ZZZY=              0.0002 XXYY=           -482.3616 XXZZ=           -494.0045 YYZZ=            -98.5148
 XXYZ=              0.0009 YYXZ=              0.0012 ZZXY=              0.0040
 N-N= 5.981335819978D+02 E-N=-2.270583178511D+03  KE= 4.610087478919D+02
 No NMR shielding tensors so no spin-rotation constants.
 Leave Link  601 at Sat Nov  5 21:36:41 2022, MaxMem= 16106127360 cpu:               4.3 elap:               0.2
 (Enter /opt/ap/G16/B01/g16/l9999.exe)
 1\1\GINC-N08\SP\RwB97XD\6-311++G(d,p)\C12H10\ROOT\05-Nov-2022\0\\#P wB
 97XD/6-311++G(d,p) scf=maxcycle=512\\_conf031.gjf nmol_natom 1_22\\0,1
 \C\C,1,1.40491871\C,1,1.40495292,2,118.20503621\C,2,1.3939373,1,120.91
 08946,3,0.05365643,0\H,2,1.08593095,1,119.3452094,3,-178.3624307,0\C,1
 ,1.48449301,2,120.90144423,4,-179.96388019,0\C,3,1.39389842,1,120.9105
 0598,2,0.03587687,0\H,3,1.08593608,1,119.34159615,2,-178.38281524,0\C,
 4,1.39606958,2,120.24555868,1,-0.09283196,0\H,4,1.08627898,2,119.66792
 041,1,-179.51486187,0\C,6,1.40492034,1,120.90156908,2,65.,0\C,6,1.4049
 5329,1,120.89324856,2,-115.,0\H,7,1.08627928,3,119.67027175,1,-179.512
 58183,0\H,9,1.08597601,4,120.2602535,2,-179.95233103,0\C,11,1.39393437
 ,6,120.91099656,1,-179.95869964,0\H,11,1.08593173,6,119.34475907,1,1.6
 1891886,0\C,12,1.39390147,6,120.91022615,1,-179.94297913,0\H,12,1.0859
 3608,6,119.34175044,1,1.63241608,0\C,15,1.39607161,11,120.24535737,6,-
 0.10315482,0\H,15,1.08627786,11,119.66861247,6,-179.51844254,0\H,17,1.
 08627825,12,119.6702798,6,-179.51590091,0\H,19,1.08597601,15,120.25988
 597,11,-179.94731581,0\\Version=ES64L-G16RevB.01\State=1-A\HF=-463.249
 1316\RMSD=4.289e-09\Dipole=-0.0000003,-0.0001427,0.0000143\Quadrupole=
 2.5882998,-2.9414229,0.3531231,-1.1264109,2.0843492,1.8825337\PG=C01 [
 X(C12H10)]\\@


 THERE IS AN OLD, OLD RECIPE IN MAINE FOR STEWING COOT. PLACE THE
 BIRD IN A KETTLE OF WATER WITH A RED BUILDING BRICK FREE OF MORTAR AND
 BLEMISHES. PARBOIL THE COOT AND BRICK TOGETHER FOR THREE HOURS.
 POUR OFF THE WATER, REFILL THE KETTLE, AND AGAIN PARBOIL FOR THREE HOURS.
 ONCE AGAIN POUR OFF THE WATER, FOR THE LAST TIME ADD FRESH WATER,
 AND LET THE COOT AND BRICK SIMMER TOGETHER OVERNIGHT. IN THE MORNING,
 THROW AWAY THE COOT AND EAT THE BRICK.
 Job cpu time:       0 days  0 hours 13 minutes  8.3 seconds.
 Elapsed time:       0 days  0 hours  0 minutes 24.8 seconds.
 File lengths (MBytes):  RWF=     62 Int=      0 D2E=      0 Chk=      8 Scr=      1
 Normal termination of Gaussian 16 at Sat Nov  5 21:36:41 2022.
