 Entering Gaussian System, Link 0=g16
 Input=_conf007.gjf
 Output=_conf007.log
 Initial command:
 /opt/ap/G16/B01/g16/l1.exe "/tmp2/scr/Gau-2011.inp" -scrdir="/tmp2/scr/"
 Entering Link 1 = /opt/ap/G16/B01/g16/l1.exe PID=      2012.
  
 Copyright (c) 1988-2017, Gaussian, Inc.  All Rights Reserved.
  
 This is part of the Gaussian(R) 16 program.  It is based on
 the Gaussian(R) 09 system (copyright 2009, Gaussian, Inc.),
 the Gaussian(R) 03 system (copyright 2003, Gaussian, Inc.),
 the Gaussian(R) 98 system (copyright 1998, Gaussian, Inc.),
 the Gaussian(R) 94 system (copyright 1995, Gaussian, Inc.),
 the Gaussian 92(TM) system (copyright 1992, Gaussian, Inc.),
 the Gaussian 90(TM) system (copyright 1990, Gaussian, Inc.),
 the Gaussian 88(TM) system (copyright 1988, Gaussian, Inc.),
 the Gaussian 86(TM) system (copyright 1986, Carnegie Mellon
 University), and the Gaussian 82(TM) system (copyright 1983,
 Carnegie Mellon University). Gaussian is a federally registered
 trademark of Gaussian, Inc.
  
 This software contains proprietary and confidential information,
 including trade secrets, belonging to Gaussian, Inc.
  
 This software is provided under written license and may be
 used, copied, transmitted, or stored only in accord with that
 written license.
  
 The following legend is applicable only to US Government
 contracts under FAR:
  
                    RESTRICTED RIGHTS LEGEND
  
 Use, reproduction and disclosure by the US Government is
 subject to restrictions as set forth in subparagraphs (a)
 and (c) of the Commercial Computer Software - Restricted
 Rights clause in FAR 52.227-19.
  
 Gaussian, Inc.
 340 Quinnipiac St., Bldg. 40, Wallingford CT 06492
  
  
 ---------------------------------------------------------------
 Warning -- This program may not be used in any manner that
 competes with the business of Gaussian, Inc. or will provide
 assistance to any competitor of Gaussian, Inc.  The licensee
 of this program is prohibited from giving any competitor of
 Gaussian, Inc. access to this program.  By using this program,
 the user acknowledges that Gaussian, Inc. is engaged in the
 business of creating and licensing software in the field of
 computational chemistry and represents and warrants to the
 licensee that it is not a competitor of Gaussian, Inc. and that
 it will not use this program in any manner prohibited above.
 ---------------------------------------------------------------
  

 Cite this work as:
 Gaussian 16, Revision B.01,
 M. J. Frisch, G. W. Trucks, H. B. Schlegel, G. E. Scuseria, 
 M. A. Robb, J. R. Cheeseman, G. Scalmani, V. Barone, 
 G. A. Petersson, H. Nakatsuji, X. Li, M. Caricato, A. V. Marenich, 
 J. Bloino, B. G. Janesko, R. Gomperts, B. Mennucci, H. P. Hratchian, 
 J. V. Ortiz, A. F. Izmaylov, J. L. Sonnenberg, D. Williams-Young, 
 F. Ding, F. Lipparini, F. Egidi, J. Goings, B. Peng, A. Petrone, 
 T. Henderson, D. Ranasinghe, V. G. Zakrzewski, J. Gao, N. Rega, 
 G. Zheng, W. Liang, M. Hada, M. Ehara, K. Toyota, R. Fukuda, 
 J. Hasegawa, M. Ishida, T. Nakajima, Y. Honda, O. Kitao, H. Nakai, 
 T. Vreven, K. Throssell, J. A. Montgomery, Jr., J. E. Peralta, 
 F. Ogliaro, M. J. Bearpark, J. J. Heyd, E. N. Brothers, K. N. Kudin, 
 V. N. Staroverov, T. A. Keith, R. Kobayashi, J. Normand, 
 K. Raghavachari, A. P. Rendell, J. C. Burant, S. S. Iyengar, 
 J. Tomasi, M. Cossi, J. M. Millam, M. Klene, C. Adamo, R. Cammi, 
 J. W. Ochterski, R. L. Martin, K. Morokuma, O. Farkas, 
 J. B. Foresman, and D. J. Fox, Gaussian, Inc., Wallingford CT, 2016.
 
 ******************************************
 Gaussian 16:  ES64L-G16RevB.01 20-Dec-2017
                 5-Nov-2022 
 ******************************************
 %nprocshared=32
 Will use up to   32 processors via shared memory.
 %mem=120GB
 %chk=_conf007.chk
 ----------------------------------------
 #P wB97XD/6-311++G(d,p) scf=maxcycle=512
 ----------------------------------------
 1/38=1,172=1/1;
 2/12=2,17=6,18=5,40=1/2;
 3/5=4,6=6,7=1111,11=2,25=1,30=1,74=-58/1,2,3;
 4//1;
 5/5=2,7=512,38=5/2;
 6/7=2,8=2,9=2,10=2,28=1/1;
 99/5=1,9=1/99;
 Leave Link    1 at Sat Nov  5 21:33:43 2022, MaxMem= 16106127360 cpu:               2.3 elap:               0.1
 (Enter /opt/ap/G16/B01/g16/l101.exe)
 ----------------------------
 _conf007.gjf nmol_natom 1_22
 ----------------------------
 Symbolic Z-matrix:
 Charge =  0 Multiplicity = 1
 C
 C                    1     1.40492 
 C                    1     1.40495  2     118.20504 
 C                    2     1.39394  1     120.91089  3     0.05366  0
 H                    2     1.08593  1     119.34521  3    -178.36243  0
 C                    1     1.48449  2     120.90144  4    -179.96388  0
 C                    3     1.3939   1     120.91051  2     0.03588  0
 H                    3     1.08594  1     119.3416  2    -178.38282  0
 C                    4     1.39607  2     120.24556  1    -0.09283  0
 H                    4     1.08628  2     119.66792  1    -179.51486  0
 C                    6     1.40492  1     120.90157  2    -55.      0
 C                    6     1.40495  1     120.89325  2     125.     0
 H                    7     1.08628  3     119.67027  1    -179.51258  0
 H                    9     1.08598  4     120.26025  2    -179.95233  0
 C                    11    1.39393  6     120.911  1    -179.9587  0
 H                    11    1.08593  6     119.34476  1     1.61892  0
 C                    12    1.3939   6     120.91023  1    -179.94298  0
 H                    12    1.08594  6     119.34175  1     1.63242  0
 C                    15    1.39607  11    120.24536  6    -0.10315  0
 H                    15    1.08628  11    119.66861  6    -179.51844  0
 H                    17    1.08628  12    119.67028  6    -179.5159  0
 H                    19    1.08598  15    120.25989  11   -179.94732  0
 
 ITRead=  0  0  0  0  0  0  0  0  0  0  0  0  0  0  0  0  0  0  0  0
 ITRead=  0  0
 MicOpt= -1 -1 -1 -1 -1 -1 -1 -1 -1 -1 -1 -1 -1 -1 -1 -1 -1 -1 -1 -1
 MicOpt= -1 -1
 NAtoms=     22 NQM=       22 NQMF=       0 NMMI=      0 NMMIF=      0
                NMic=       0 NMicF=      0.
                    Isotopes and Nuclear Properties:
 (Nuclear quadrupole moments (NQMom) in fm**2, nuclear magnetic moments (NMagM)
  in nuclear magnetons)

  Atom         1           2           3           4           5           6           7           8           9          10
 IAtWgt=          12          12          12          12           1          12          12           1          12           1
 AtmWgt=  12.0000000  12.0000000  12.0000000  12.0000000   1.0078250  12.0000000  12.0000000   1.0078250  12.0000000   1.0078250
 NucSpn=           0           0           0           0           1           0           0           1           0           1
 AtZEff=  -0.0000000  -0.0000000  -0.0000000  -0.0000000  -0.0000000  -0.0000000  -0.0000000  -0.0000000  -0.0000000  -0.0000000
 NQMom=    0.0000000   0.0000000   0.0000000   0.0000000   0.0000000   0.0000000   0.0000000   0.0000000   0.0000000   0.0000000
 NMagM=    0.0000000   0.0000000   0.0000000   0.0000000   2.7928460   0.0000000   0.0000000   2.7928460   0.0000000   2.7928460
 AtZNuc=   6.0000000   6.0000000   6.0000000   6.0000000   1.0000000   6.0000000   6.0000000   1.0000000   6.0000000   1.0000000

  Atom        11          12          13          14          15          16          17          18          19          20
 IAtWgt=          12          12           1           1          12           1          12           1          12           1
 AtmWgt=  12.0000000  12.0000000   1.0078250   1.0078250  12.0000000   1.0078250  12.0000000   1.0078250  12.0000000   1.0078250
 NucSpn=           0           0           1           1           0           1           0           1           0           1
 AtZEff=  -0.0000000  -0.0000000  -0.0000000  -0.0000000  -0.0000000  -0.0000000  -0.0000000  -0.0000000  -0.0000000  -0.0000000
 NQMom=    0.0000000   0.0000000   0.0000000   0.0000000   0.0000000   0.0000000   0.0000000   0.0000000   0.0000000   0.0000000
 NMagM=    0.0000000   0.0000000   2.7928460   2.7928460   0.0000000   2.7928460   0.0000000   2.7928460   0.0000000   2.7928460
 AtZNuc=   6.0000000   6.0000000   1.0000000   1.0000000   6.0000000   1.0000000   6.0000000   1.0000000   6.0000000   1.0000000

  Atom        21          22
 IAtWgt=           1           1
 AtmWgt=   1.0078250   1.0078250
 NucSpn=           1           1
 AtZEff=  -0.0000000  -0.0000000
 NQMom=    0.0000000   0.0000000
 NMagM=    2.7928460   2.7928460
 AtZNuc=   1.0000000   1.0000000
 Leave Link  101 at Sat Nov  5 21:33:43 2022, MaxMem= 16106127360 cpu:               5.3 elap:               0.2
 (Enter /opt/ap/G16/B01/g16/l202.exe)
                          Input orientation:                          
 ---------------------------------------------------------------------
 Center     Atomic      Atomic             Coordinates (Angstroms)
 Number     Number       Type             X           Y           Z
 ---------------------------------------------------------------------
      1          6           0        0.000000    0.000000    0.000000
      2          6           0        0.000000    0.000000    1.404919
      3          6           0        1.238131    0.000000   -0.664020
      4          6           0        1.195952    0.001120    2.120990
      5          1           0       -0.946201   -0.027051    1.937101
      6          6           0       -1.273772   -0.000390   -0.762381
      7          6           0        2.434381   -0.000749    0.051479
      8          1           0        1.259850    0.026715   -1.749411
      9          6           0        2.418826    0.000311    1.447501
     10          1           0        1.172413   -0.006894    3.206985
     11          6           0       -2.247669   -0.988170   -0.539632
     12          6           0       -1.537900    0.987120   -1.726203
     13          1           0        3.380326    0.007295   -0.482493
     14          1           0        3.350700    0.000403    2.005133
     15          6           0       -3.443441   -0.989219   -1.255997
     16          1           0       -2.074198   -1.744891    0.219664
     17          6           0       -2.734318    0.987776   -2.441426
     18          1           0       -0.786868    1.743909   -1.932306
     19          6           0       -3.692622   -0.000726   -2.209836
     20          1           0       -4.185835   -1.758102   -1.061910
     21          1           0       -2.914279    1.756393   -3.187644
     22          1           0       -4.624498   -0.000824   -2.767465
 ---------------------------------------------------------------------
                    Distance matrix (angstroms):
                    1          2          3          4          5
     1  C    0.000000
     2  C    1.404919   0.000000
     3  C    1.404953   2.411116   0.000000
     4  C    2.434934   1.393937   2.785330   0.000000
     5  H    2.156012   1.085931   3.396745   2.150216   0.000000
     6  C    1.484493   2.513898   2.513829   3.796494   2.719415
     7  C    2.434925   2.785320   1.393898   2.411760   3.870994
     8  H    2.156008   3.396723   1.085936   3.871013   4.296501
     9  C    2.818861   2.419201   2.419207   1.396070   3.400568
    10  H    3.414579   2.149893   3.871569   1.086279   2.470128
    11  C    2.513901   3.132055   3.625294   4.462749   2.958340
    12  C    2.513826   3.625392   3.131930   4.821518   3.846875
    13  H    3.414594   3.871560   2.149884   3.398478   4.957262
    14  H    3.904837   3.404035   3.404016   2.157861   4.297527
    15  C    3.796494   4.462770   4.821422   5.823125   4.166276
    16  H    2.719411   2.958340   3.846696   4.166231   2.678236
    17  C    3.796414   4.821469   4.462648   6.102143   4.837224
    18  H    2.719225   3.846745   2.958106   4.837158   4.258403
    19  C    4.303351   5.167389   5.167385   6.531019   4.973993
    20  H    4.662595   5.166951   5.715649   6.495333   4.741923
    21  H    4.662511   5.715730   5.166827   6.939494   5.772089
    22  H    5.389327   6.228545   6.228556   7.600963   5.971893
                    6          7          8          9         10
     6  C    0.000000
     7  C    3.796415   0.000000
     8  H    2.719228   2.150228   0.000000
     9  C    4.303354   1.396108   3.400612   0.000000
    10  H    4.662588   3.398502   4.957280   2.156243   0.000000
    11  C    1.404920   4.821410   3.846588   5.167394   5.166913
    12  C    1.404953   4.462629   2.958094   5.167385   5.715785
    13  H    4.662512   1.086279   2.470197   2.156248   4.299689
    14  H    5.389330   2.157871   4.297551   1.085976   2.487858
    15  C    2.434934   6.102078   4.836995   6.531022   6.495328
    16  H    2.156010   4.837107   4.258136   4.973991   4.741857
    17  C    2.434925   5.822990   4.166041   6.530982   6.939485
    18  H    2.156010   4.166015   2.677920   4.973902   5.772036
    19  C    2.818858   6.530980   4.973904   7.122212   7.280834
    20  H    3.414583   6.939393   5.771803   7.280845   7.071139
    21  H    3.414594   6.495200   4.741693   7.280824   7.791117
    22  H    3.904834   7.600935   5.971829   8.208188   8.324558
                   11         12         13         14         15
    11  C    0.000000
    12  C    2.411119   0.000000
    13  H    5.715639   5.166799   0.000000
    14  H    6.228550   6.228555   2.487812   0.000000
    15  C    1.393934   2.785336   6.939390   7.600966   0.000000
    16  H    1.085932   3.396748   5.771916   5.971891   2.150219
    17  C    2.785320   1.393901   6.495200   7.600937   2.411763
    18  H    3.396725   1.085936   4.741654   5.971826   3.871016
    19  C    2.419198   2.419208   7.280821   8.208188   1.396072
    20  H    2.149897   3.871575   7.790965   8.324570   1.086278
    21  H    3.871558   2.149886   7.071013   8.324566   3.398478
    22  H    3.404029   3.404019   8.324564   9.294164   2.157859
                   16         17         18         19         20
    16  H    0.000000
    17  C    3.870997   0.000000
    18  H    4.296501   2.150234   0.000000
    19  C    3.400569   1.396107   3.400615   0.000000
    20  H    2.470145   3.398500   4.957282   2.156238   0.000000
    21  H    4.957264   1.086278   2.470204   2.156245   4.299683
    22  H    4.297527   2.157871   4.297556   1.085976   2.487844
                   21         22
    21  H    0.000000
    22  H    2.487812   0.000000
 Stoichiometry    C12H10
 Framework group  C1[X(C12H10)]
 Deg. of freedom    60
 Full point group                 C1      NOp   1
 Largest Abelian subgroup         C1      NOp   1
 Largest concise Abelian subgroup C1      NOp   1
                         Standard orientation:                         
 ---------------------------------------------------------------------
 Center     Atomic      Atomic             Coordinates (Angstroms)
 Number     Number       Type             X           Y           Z
 ---------------------------------------------------------------------
      1          6           0       -0.742246    0.000007   -0.000149
      2          6           0       -1.463714   -1.069300   -0.556802
      3          6           0       -1.463657    1.069276    0.556738
      4          6           0       -2.857651   -1.069135   -0.557732
      5          1           0       -0.925094   -1.917767   -0.968188
      6          6           0        0.742247   -0.000016    0.000017
      7          6           0       -2.857555    1.069149    0.557762
      8          1           0       -0.924916    1.917614    0.968246
      9          6           0       -3.561107    0.000019    0.000004
     10          1           0       -3.395143   -1.910125   -0.986499
     11          6           0        1.463686   -1.069279    0.556796
     12          6           0        1.463685    1.069344   -0.556661
     13          1           0       -3.395033    1.910083    0.986656
     14          1           0       -4.647083    0.000034    0.000099
     15          6           0        2.857620   -1.069106    0.557822
     16          1           0        0.925034   -1.917671    0.968297
     17          6           0        2.857586    1.069140   -0.557752
     18          1           0        0.924967    1.917761   -0.968036
     19          6           0        3.561105   -0.000084   -0.000136
     20          1           0        3.395098   -1.910029    0.986735
     21          1           0        3.395090    1.910117   -0.986526
     22          1           0        4.647081   -0.000105   -0.000229
 ---------------------------------------------------------------------
 Rotational constants (GHZ):           2.8585222           0.5357368           0.4835687
 Leave Link  202 at Sat Nov  5 21:33:43 2022, MaxMem= 16106127360 cpu:               0.2 elap:               0.0
 (Enter /opt/ap/G16/B01/g16/l301.exe)
 Standard basis: 6-311++G(d,p) (5D, 7F)
 Ernie: Thresh=  0.10000D-02 Tol=  0.10000D-05 Strict=F.
 There are   346 symmetry adapted cartesian basis functions of A   symmetry.
 There are   334 symmetry adapted basis functions of A   symmetry.
   334 basis functions,   522 primitive gaussians,   346 cartesian basis functions
    41 alpha electrons       41 beta electrons
       nuclear repulsion energy       598.4360546546 Hartrees.
 IExCor= 4639 DFT=T Ex+Corr=wB97XD ExCW=0 ScaHFX=  1.000000
 ScaDFX=  1.000000  1.000000  1.000000  1.000000 ScalE2=  1.000000  1.000000
 IRadAn=      5 IRanWt=     -1 IRanGd=            0 ICorTp=0 IEmpDi=121
 HFx  wShort=  0.000000 wLong=  0.200000 cFull=  0.222036 cShort=  0.000000 cLong=  0.777964
 DFx  wShort=  0.000000 wLong=  0.200000 cFull=  0.000000 cShort=  0.000000 cLong=  1.000000
 NAtoms=   22 NActive=   22 NUniq=   22 SFac= 1.00D+00 NAtFMM=   60 NAOKFM=F Big=F
 Integral buffers will be    131072 words long.
 Raffenetti 2 integral format.
 Two-electron integral symmetry is turned on.
 R6Disp:  Grimme-D2 Dispersion energy=       -0.0120577956 Hartrees.
 Nuclear repulsion after empirical dispersion term =      598.4239968590 Hartrees.
 Leave Link  301 at Sat Nov  5 21:33:43 2022, MaxMem= 16106127360 cpu:               1.2 elap:               0.0
 (Enter /opt/ap/G16/B01/g16/l302.exe)
 NPDir=0 NMtPBC=     1 NCelOv=     1 NCel=       1 NClECP=     1 NCelD=      1
         NCelK=      1 NCelE2=     1 NClLst=     1 CellRange=     0.0.
 One-electron integrals computed using PRISM.
 One-electron integral symmetry used in STVInt
 NBasis=   334 RedAO= T EigKep=  1.99D-06  NBF=   334
 NBsUse=   332 1.00D-06 EigRej=  7.35D-07 NBFU=   332
 Precomputing XC quadrature grid using
 IXCGrd= 4 IRadAn=           5 IRanWt=          -1 IRanGd=           0 AccXCQ= 0.00D+00.
 Generated NRdTot=       0 NPtTot=           0 NUsed=           0 NTot=          32
 NSgBfM=   346   346   346   346   346 MxSgAt=    22 MxSgA2=    22.
 Leave Link  302 at Sat Nov  5 21:33:43 2022, MaxMem= 16106127360 cpu:               7.6 elap:               0.2
 (Enter /opt/ap/G16/B01/g16/l303.exe)
 DipDrv:  MaxL=1.
 Leave Link  303 at Sat Nov  5 21:33:44 2022, MaxMem= 16106127360 cpu:               1.4 elap:               0.1
 (Enter /opt/ap/G16/B01/g16/l401.exe)
 ExpMin= 3.60D-02 ExpMax= 4.56D+03 ExpMxC= 6.82D+02 IAcc=3 IRadAn=         5 AccDes= 0.00D+00
 Harris functional with IExCor= 4639 and IRadAn=       5 diagonalized for initial guess.
 HarFok:  IExCor= 4639 AccDes= 0.00D+00 IRadAn=         5 IDoV= 1 UseB2=F ITyADJ=14
 ICtDFT=  3500011 ScaDFX=  1.000000  1.000000  1.000000  1.000000
 FoFCou: FMM=F IPFlag=           0 FMFlag=      100000 FMFlg1=           0
         NFxFlg=           0 DoJE=T BraDBF=F KetDBF=T FulRan=T
         wScrn=  0.000000 ICntrl=       500 IOpCl=  0 I1Cent=   200000004 NGrid=           0
         NMat0=    1 NMatS0=      1 NMatT0=    0 NMatD0=    1 NMtDS0=    0 NMtDT0=    0
 Petite list used in FoFCou.
 Harris En= -441.938715360336    
 JPrj=0 DoOrth=F DoCkMO=F.
 Leave Link  401 at Sat Nov  5 21:33:44 2022, MaxMem= 16106127360 cpu:              19.9 elap:               0.6
 (Enter /opt/ap/G16/B01/g16/l502.exe)
 Integral symmetry usage will be decided dynamically.
 Closed shell SCF:
 Using DIIS extrapolation, IDIIS=  1040.
 NGot= 16106127360 LenX= 16105873520 LenY= 16105753363
 Requested convergence on RMS density matrix=1.00D-08 within 512 cycles.
 Requested convergence on MAX density matrix=1.00D-06.
 Requested convergence on             energy=1.00D-06.
 No special actions if energy rises.
 Fock matrices will be formed incrementally for  20 cycles.

 Cycle   1  Pass 1  IDiag  1:
 FoFJK:  IHMeth= 1 ICntrl=       0 DoSepK=T KAlg= 0 I1Cent=           0 FoldK=F
 IRaf=         1 NMat=       1 IRICut=       1 DoRegI=T DoRafI=F ISym2E= 0 IDoP0=0 IntGTp=1.
 FoFCou: FMM=F IPFlag=           0 FMFlag=      100000 FMFlg1=           0
         NFxFlg=           0 DoJE=T BraDBF=F KetDBF=F FulRan=T
         wScrn=  0.000000 ICntrl=       500 IOpCl=  0 I1Cent=           0 NGrid=           0
         NMat0=    1 NMatS0=      1 NMatT0=    0 NMatD0=    1 NMtDS0=    0 NMtDT0=    0
 Symmetry not used in FoFCou.
 E= -463.152612380474    
 DIIS: error= 6.44D-02 at cycle   1 NSaved=   1.
 NSaved= 1 IEnMin= 1 EnMin= -463.152612380474     IErMin= 1 ErrMin= 6.44D-02
 ErrMax= 6.44D-02  0.00D+00 EMaxC= 1.00D-01 BMatC= 9.52D-01 BMatP= 9.52D-01
 IDIUse=3 WtCom= 3.56D-01 WtEn= 6.44D-01
 Coeff-Com:  0.100D+01
 Coeff-En:   0.100D+01
 Coeff:      0.100D+01
 Gap=     0.338 Goal=   None    Shift=    0.000
 GapD=    0.338 DampG=1.000 DampE=0.500 DampFc=0.5000 IDamp=-1.
 Damping current iteration by 5.00D-01
 RMSDP=5.90D-02 MaxDP=3.99D+00              OVMax= 4.27D-02

 Cycle   2  Pass 1  IDiag  1:
 RMSU=  4.71D-03    CP:  7.65D-01
 E= -463.201586379898     Delta-E=       -0.048973999424 Rises=F Damp=T
 DIIS: error= 3.08D-02 at cycle   2 NSaved=   2.
 NSaved= 2 IEnMin= 2 EnMin= -463.201586379898     IErMin= 2 ErrMin= 3.08D-02
 ErrMax= 3.08D-02  0.00D+00 EMaxC= 1.00D-01 BMatC= 2.16D-01 BMatP= 9.52D-01
 IDIUse=3 WtCom= 6.92D-01 WtEn= 3.08D-01
 Coeff-Com: -0.883D+00 0.188D+01
 Coeff-En:   0.000D+00 0.100D+01
 Coeff:     -0.611D+00 0.161D+01
 Gap=     0.353 Goal=   None    Shift=    0.000
 RMSDP=2.64D-02 MaxDP=1.66D+00 DE=-4.90D-02 OVMax= 3.76D-02

 Cycle   3  Pass 1  IDiag  1:
 RMSU=  3.27D-03    CP:  5.54D-01  1.30D+00
 E= -463.245291006597     Delta-E=       -0.043704626699 Rises=F Damp=F
 DIIS: error= 5.54D-03 at cycle   3 NSaved=   3.
 NSaved= 3 IEnMin= 3 EnMin= -463.245291006597     IErMin= 3 ErrMin= 5.54D-03
 ErrMax= 5.54D-03  0.00D+00 EMaxC= 1.00D-01 BMatC= 4.67D-03 BMatP= 2.16D-01
 IDIUse=3 WtCom= 9.45D-01 WtEn= 5.54D-02
 Coeff-Com: -0.370D+00 0.788D+00 0.582D+00
 Coeff-En:   0.000D+00 0.000D+00 0.100D+01
 Coeff:     -0.350D+00 0.744D+00 0.606D+00
 Gap=     0.342 Goal=   None    Shift=    0.000
 RMSDP=3.88D-03 MaxDP=3.14D-01 DE=-4.37D-02 OVMax= 2.19D-02

 Cycle   4  Pass 1  IDiag  1:
 RMSU=  1.18D-03    CP:  5.27D-01  1.57D+00  6.71D-01
 E= -463.249449109668     Delta-E=       -0.004158103071 Rises=F Damp=F
 DIIS: error= 1.71D-03 at cycle   4 NSaved=   4.
 NSaved= 4 IEnMin= 4 EnMin= -463.249449109668     IErMin= 4 ErrMin= 1.71D-03
 ErrMax= 1.71D-03  0.00D+00 EMaxC= 1.00D-01 BMatC= 2.98D-04 BMatP= 4.67D-03
 IDIUse=3 WtCom= 9.83D-01 WtEn= 1.71D-02
 Coeff-Com: -0.132D+00 0.283D+00 0.289D+00 0.561D+00
 Coeff-En:   0.000D+00 0.000D+00 0.000D+00 0.100D+01
 Coeff:     -0.130D+00 0.278D+00 0.284D+00 0.568D+00
 Gap=     0.341 Goal=   None    Shift=    0.000
 RMSDP=9.19D-04 MaxDP=4.90D-02 DE=-4.16D-03 OVMax= 5.56D-03

 Cycle   5  Pass 1  IDiag  1:
 RMSU=  3.27D-04    CP:  5.22D-01  1.54D+00  7.72D-01  6.14D-01
 E= -463.249761930794     Delta-E=       -0.000312821125 Rises=F Damp=F
 DIIS: error= 2.85D-04 at cycle   5 NSaved=   5.
 NSaved= 5 IEnMin= 5 EnMin= -463.249761930794     IErMin= 5 ErrMin= 2.85D-04
 ErrMax= 2.85D-04  0.00D+00 EMaxC= 1.00D-01 BMatC= 8.54D-06 BMatP= 2.98D-04
 IDIUse=3 WtCom= 9.97D-01 WtEn= 2.85D-03
 Coeff-Com:  0.274D-01-0.585D-01-0.299D-01 0.119D+00 0.942D+00
 Coeff-En:   0.000D+00 0.000D+00 0.000D+00 0.000D+00 0.100D+01
 Coeff:      0.273D-01-0.584D-01-0.299D-01 0.119D+00 0.942D+00
 Gap=     0.342 Goal=   None    Shift=    0.000
 RMSDP=2.00D-04 MaxDP=1.37D-02 DE=-3.13D-04 OVMax= 1.52D-03

 Cycle   6  Pass 1  IDiag  1:
 RMSU=  6.48D-05    CP:  5.22D-01  1.52D+00  7.98D-01  7.00D-01  1.26D+00
 E= -463.249773458757     Delta-E=       -0.000011527963 Rises=F Damp=F
 DIIS: error= 5.87D-05 at cycle   6 NSaved=   6.
 NSaved= 6 IEnMin= 6 EnMin= -463.249773458757     IErMin= 6 ErrMin= 5.87D-05
 ErrMax= 5.87D-05  0.00D+00 EMaxC= 1.00D-01 BMatC= 5.09D-07 BMatP= 8.54D-06
 IDIUse=1 WtCom= 1.00D+00 WtEn= 0.00D+00
 Coeff-Com:  0.124D-01-0.265D-01-0.160D-01 0.304D-01 0.340D+00 0.660D+00
 Coeff:      0.124D-01-0.265D-01-0.160D-01 0.304D-01 0.340D+00 0.660D+00
 Gap=     0.342 Goal=   None    Shift=    0.000
 RMSDP=5.60D-05 MaxDP=4.19D-03 DE=-1.15D-05 OVMax= 2.50D-04

 Cycle   7  Pass 1  IDiag  1:
 RMSU=  1.25D-05    CP:  5.22D-01  1.52D+00  8.04D-01  6.99D-01  1.33D+00
                    CP:  1.15D+00
 E= -463.249774045758     Delta-E=       -0.000000587001 Rises=F Damp=F
 DIIS: error= 1.88D-05 at cycle   7 NSaved=   7.
 NSaved= 7 IEnMin= 7 EnMin= -463.249774045758     IErMin= 7 ErrMin= 1.88D-05
 ErrMax= 1.88D-05  0.00D+00 EMaxC= 1.00D-01 BMatC= 5.31D-08 BMatP= 5.09D-07
 IDIUse=1 WtCom= 1.00D+00 WtEn= 0.00D+00
 Coeff-Com: -0.221D-02 0.475D-02 0.205D-02-0.177D-01-0.106D+00 0.159D+00
 Coeff-Com:  0.960D+00
 Coeff:     -0.221D-02 0.475D-02 0.205D-02-0.177D-01-0.106D+00 0.159D+00
 Coeff:      0.960D+00
 Gap=     0.342 Goal=   None    Shift=    0.000
 RMSDP=3.16D-05 MaxDP=2.18D-03 DE=-5.87D-07 OVMax= 1.90D-04

 Cycle   8  Pass 1  IDiag  1:
 RMSU=  3.62D-06    CP:  5.22D-01  1.52D+00  8.08D-01  7.00D-01  1.38D+00
                    CP:  1.33D+00  1.23D+00
 E= -463.249774140642     Delta-E=       -0.000000094884 Rises=F Damp=F
 DIIS: error= 3.47D-06 at cycle   8 NSaved=   8.
 NSaved= 8 IEnMin= 8 EnMin= -463.249774140642     IErMin= 8 ErrMin= 3.47D-06
 ErrMax= 3.47D-06  0.00D+00 EMaxC= 1.00D-01 BMatC= 1.58D-09 BMatP= 5.31D-08
 IDIUse=1 WtCom= 1.00D+00 WtEn= 0.00D+00
 Coeff-Com: -0.439D-03 0.938D-03 0.618D-03-0.201D-02-0.119D-01-0.659D-02
 Coeff-Com: -0.535D-02 0.102D+01
 Coeff:     -0.439D-03 0.938D-03 0.618D-03-0.201D-02-0.119D-01-0.659D-02
 Coeff:     -0.535D-02 0.102D+01
 Gap=     0.342 Goal=   None    Shift=    0.000
 RMSDP=7.10D-06 MaxDP=5.72D-04 DE=-9.49D-08 OVMax= 4.09D-05

 Cycle   9  Pass 1  IDiag  1:
 RMSU=  6.01D-07    CP:  5.22D-01  1.52D+00  8.08D-01  6.99D-01  1.39D+00
                    CP:  1.37D+00  1.31D+00  1.30D+00
 E= -463.249774144815     Delta-E=       -0.000000004173 Rises=F Damp=F
 DIIS: error= 1.90D-06 at cycle   9 NSaved=   9.
 NSaved= 9 IEnMin= 9 EnMin= -463.249774144815     IErMin= 9 ErrMin= 1.90D-06
 ErrMax= 1.90D-06  0.00D+00 EMaxC= 1.00D-01 BMatC= 3.32D-10 BMatP= 1.58D-09
 IDIUse=1 WtCom= 1.00D+00 WtEn= 0.00D+00
 Coeff-Com:  0.172D-03-0.373D-03-0.621D-04 0.187D-02 0.117D-01-0.216D-01
 Coeff-Com: -0.148D+00 0.347D+00 0.809D+00
 Coeff:      0.172D-03-0.373D-03-0.621D-04 0.187D-02 0.117D-01-0.216D-01
 Coeff:     -0.148D+00 0.347D+00 0.809D+00
 Gap=     0.342 Goal=   None    Shift=    0.000
 RMSDP=1.61D-06 MaxDP=1.18D-04 DE=-4.17D-09 OVMax= 1.98D-05

 Cycle  10  Pass 1  IDiag  1:
 RMSU=  2.03D-07    CP:  5.22D-01  1.51D+00  8.08D-01  6.99D-01  1.39D+00
                    CP:  1.37D+00  1.33D+00  1.42D+00  1.35D+00
 E= -463.249774145542     Delta-E=       -0.000000000727 Rises=F Damp=F
 DIIS: error= 4.31D-07 at cycle  10 NSaved=  10.
 NSaved=10 IEnMin=10 EnMin= -463.249774145542     IErMin=10 ErrMin= 4.31D-07
 ErrMax= 4.31D-07  0.00D+00 EMaxC= 1.00D-01 BMatC= 3.54D-11 BMatP= 3.32D-10
 IDIUse=1 WtCom= 1.00D+00 WtEn= 0.00D+00
 Coeff-Com:  0.669D-04-0.144D-03-0.553D-04 0.520D-03 0.282D-02-0.187D-02
 Coeff-Com: -0.262D-01-0.652D-01 0.195D+00 0.896D+00
 Coeff:      0.669D-04-0.144D-03-0.553D-04 0.520D-03 0.282D-02-0.187D-02
 Coeff:     -0.262D-01-0.652D-01 0.195D+00 0.896D+00
 Gap=     0.342 Goal=   None    Shift=    0.000
 RMSDP=3.73D-07 MaxDP=2.71D-05 DE=-7.27D-10 OVMax= 4.80D-06

 Cycle  11  Pass 1  IDiag  1:
 RMSU=  6.55D-08    CP:  5.22D-01  1.52D+00  8.08D-01  6.99D-01  1.39D+00
                    CP:  1.37D+00  1.33D+00  1.44D+00  1.52D+00  1.22D+00
 E= -463.249774145597     Delta-E=       -0.000000000054 Rises=F Damp=F
 DIIS: error= 1.10D-07 at cycle  11 NSaved=  11.
 NSaved=11 IEnMin=11 EnMin= -463.249774145597     IErMin=11 ErrMin= 1.10D-07
 ErrMax= 1.10D-07  0.00D+00 EMaxC= 1.00D-01 BMatC= 1.43D-12 BMatP= 3.54D-11
 IDIUse=1 WtCom= 1.00D+00 WtEn= 0.00D+00
 Coeff-Com: -0.188D-04 0.409D-04 0.148D-04-0.197D-03-0.125D-02 0.242D-02
 Coeff-Com:  0.138D-01-0.251D-01-0.492D-01-0.148D+00 0.121D+01
 Coeff:     -0.188D-04 0.409D-04 0.148D-04-0.197D-03-0.125D-02 0.242D-02
 Coeff:      0.138D-01-0.251D-01-0.492D-01-0.148D+00 0.121D+01
 Gap=     0.342 Goal=   None    Shift=    0.000
 RMSDP=2.67D-07 MaxDP=2.01D-05 DE=-5.41D-11 OVMax= 1.14D-06

 Cycle  12  Pass 1  IDiag  1:
 RMSU=  2.01D-08    CP:  5.22D-01  1.52D+00  8.08D-01  6.99D-01  1.39D+00
                    CP:  1.37D+00  1.32D+00  1.43D+00  1.59D+00  1.36D+00
                    CP:  1.27D+00
 E= -463.249774145607     Delta-E=       -0.000000000010 Rises=F Damp=F
 DIIS: error= 2.36D-08 at cycle  12 NSaved=  12.
 NSaved=12 IEnMin=12 EnMin= -463.249774145607     IErMin=12 ErrMin= 2.36D-08
 ErrMax= 2.36D-08  0.00D+00 EMaxC= 1.00D-01 BMatC= 8.89D-14 BMatP= 1.43D-12
 IDIUse=1 WtCom= 1.00D+00 WtEn= 0.00D+00
 Coeff-Com: -0.165D-05 0.349D-05 0.244D-05-0.814D-05-0.340D-04-0.363D-04
 Coeff-Com: -0.645D-04 0.460D-02-0.121D-03-0.522D-01-0.106D+00 0.115D+01
 Coeff:     -0.165D-05 0.349D-05 0.244D-05-0.814D-05-0.340D-04-0.363D-04
 Coeff:     -0.645D-04 0.460D-02-0.121D-03-0.522D-01-0.106D+00 0.115D+01
 Gap=     0.342 Goal=   None    Shift=    0.000
 RMSDP=5.34D-08 MaxDP=3.88D-06 DE=-1.00D-11 OVMax= 3.39D-07

 Cycle  13  Pass 1  IDiag  1:
 RMSU=  5.38D-09    CP:  5.22D-01  1.52D+00  8.08D-01  6.99D-01  1.39D+00
                    CP:  1.37D+00  1.32D+00  1.43D+00  1.60D+00  1.38D+00
                    CP:  1.32D+00  1.33D+00
 E= -463.249774145605     Delta-E=        0.000000000002 Rises=F Damp=F
 DIIS: error= 5.18D-09 at cycle  13 NSaved=  13.
 NSaved=13 IEnMin=12 EnMin= -463.249774145607     IErMin=13 ErrMin= 5.18D-09
 ErrMax= 5.18D-09  0.00D+00 EMaxC= 1.00D-01 BMatC= 3.28D-15 BMatP= 8.89D-14
 IDIUse=1 WtCom= 1.00D+00 WtEn= 0.00D+00
 Coeff-Com:  0.737D-06-0.160D-05-0.632D-06 0.802D-05 0.542D-04-0.102D-03
 Coeff-Com: -0.651D-03 0.146D-02 0.316D-02 0.112D-02-0.661D-01 0.920D-01
 Coeff-Com:  0.969D+00
 Coeff:      0.737D-06-0.160D-05-0.632D-06 0.802D-05 0.542D-04-0.102D-03
 Coeff:     -0.651D-03 0.146D-02 0.316D-02 0.112D-02-0.661D-01 0.920D-01
 Coeff:      0.969D+00
 Gap=     0.342 Goal=   None    Shift=    0.000
 RMSDP=5.46D-09 MaxDP=4.35D-07 DE= 1.82D-12 OVMax= 6.82D-08

 SCF Done:  E(RwB97XD) =  -463.249774146     A.U. after   13 cycles
            NFock= 13  Conv=0.55D-08     -V/T= 2.0049
 KE= 4.610082653972D+02 PE=-2.271136327772D+03 EE= 7.484542913705D+02
 Leave Link  502 at Sat Nov  5 21:34:08 2022, MaxMem= 16106127360 cpu:             744.4 elap:              23.3
 (Enter /opt/ap/G16/B01/g16/l601.exe)
 Copying SCF densities to generalized density rwf, IOpCl= 0 IROHF=0.

 **********************************************************************

            Population analysis using the SCF Density.

 **********************************************************************

 Orbital symmetries:
       Occupied  (A) (A) (A) (A) (A) (A) (A) (A) (A) (A) (A) (A)
                 (A) (A) (A) (A) (A) (A) (A) (A) (A) (A) (A) (A)
                 (A) (A) (A) (A) (A) (A) (A) (A) (A) (A) (A) (A)
                 (A) (A) (A) (A) (A)
       Virtual   (A) (A) (A) (A) (A) (A) (A) (A) (A) (A) (A) (A)
                 (A) (A) (A) (A) (A) (A) (A) (A) (A) (A) (A) (A)
                 (A) (A) (A) (A) (A) (A) (A) (A) (A) (A) (A) (A)
                 (A) (A) (A) (A) (A) (A) (A) (A) (A) (A) (A) (A)
                 (A) (A) (A) (A) (A) (A) (A) (A) (A) (A) (A) (A)
                 (A) (A) (A) (A) (A) (A) (A) (A) (A) (A) (A) (A)
                 (A) (A) (A) (A) (A) (A) (A) (A) (A) (A) (A) (A)
                 (A) (A) (A) (A) (A) (A) (A) (A) (A) (A) (A) (A)
                 (A) (A) (A) (A) (A) (A) (A) (A) (A) (A) (A) (A)
                 (A) (A) (A) (A) (A) (A) (A) (A) (A) (A) (A) (A)
                 (A) (A) (A) (A) (A) (A) (A) (A) (A) (A) (A) (A)
                 (A) (A) (A) (A) (A) (A) (A) (A) (A) (A) (A) (A)
                 (A) (A) (A) (A) (A) (A) (A) (A) (A) (A) (A) (A)
                 (A) (A) (A) (A) (A) (A) (A) (A) (A) (A) (A) (A)
                 (A) (A) (A) (A) (A) (A) (A) (A) (A) (A) (A) (A)
                 (A) (A) (A) (A) (A) (A) (A) (A) (A) (A) (A) (A)
                 (A) (A) (A) (A) (A) (A) (A) (A) (A) (A) (A) (A)
                 (A) (A) (A) (A) (A) (A) (A) (A) (A) (A) (A) (A)
                 (A) (A) (A) (A) (A) (A) (A) (A) (A) (A) (A) (A)
                 (A) (A) (A) (A) (A) (A) (A) (A) (A) (A) (A) (A)
                 (A) (A) (A) (A) (A) (A) (A) (A) (A) (A) (A) (A)
                 (A) (A) (A) (A) (A) (A) (A) (A) (A) (A) (A) (A)
                 (A) (A) (A) (A) (A) (A) (A) (A) (A) (A) (A) (A)
                 (A) (A) (A) (A) (A) (A) (A) (A) (A) (A) (A) (A)
                 (A) (A) (A)
 The electronic state is 1-A.
 Alpha  occ. eigenvalues --  -10.30468 -10.30438 -10.29350 -10.29350 -10.29339
 Alpha  occ. eigenvalues --  -10.29339 -10.29271 -10.29270 -10.29264 -10.29264
 Alpha  occ. eigenvalues --  -10.29228 -10.29228  -0.97568  -0.95322  -0.88204
 Alpha  occ. eigenvalues --   -0.85300  -0.84754  -0.82387  -0.72349  -0.71352
 Alpha  occ. eigenvalues --   -0.69289  -0.67501  -0.62642  -0.59464  -0.56054
 Alpha  occ. eigenvalues --   -0.55417  -0.53428  -0.53365  -0.51216  -0.50889
 Alpha  occ. eigenvalues --   -0.50781  -0.46764  -0.45433  -0.45336  -0.43428
 Alpha  occ. eigenvalues --   -0.42335  -0.42085  -0.35100  -0.33610  -0.33326
 Alpha  occ. eigenvalues --   -0.31033
 Alpha virt. eigenvalues --    0.03141   0.03865   0.04567   0.04588   0.04911
 Alpha virt. eigenvalues --    0.05527   0.05769   0.05955   0.07171   0.07189
 Alpha virt. eigenvalues --    0.07508   0.07738   0.09294   0.09432   0.12247
 Alpha virt. eigenvalues --    0.12736   0.12938   0.13310   0.15106   0.15305
 Alpha virt. eigenvalues --    0.15664   0.15811   0.16003   0.16458   0.16906
 Alpha virt. eigenvalues --    0.17444   0.17463   0.17681   0.17888   0.18092
 Alpha virt. eigenvalues --    0.18428   0.18667   0.18919   0.19662   0.19695
 Alpha virt. eigenvalues --    0.20169   0.20720   0.22204   0.22270   0.22454
 Alpha virt. eigenvalues --    0.22722   0.22883   0.23751   0.23787   0.25331
 Alpha virt. eigenvalues --    0.26003   0.26297   0.26333   0.27311   0.27428
 Alpha virt. eigenvalues --    0.27578   0.28538   0.28613   0.29250   0.30556
 Alpha virt. eigenvalues --    0.30871   0.31329   0.31762   0.32354   0.32415
 Alpha virt. eigenvalues --    0.33540   0.33899   0.35097   0.35290   0.35374
 Alpha virt. eigenvalues --    0.35422   0.36081   0.36220   0.36373   0.37175
 Alpha virt. eigenvalues --    0.38008   0.38583   0.39101   0.41185   0.42628
 Alpha virt. eigenvalues --    0.42827   0.43167   0.43241   0.45818   0.46856
 Alpha virt. eigenvalues --    0.48088   0.56074   0.58359   0.61134   0.61375
 Alpha virt. eigenvalues --    0.61512   0.61633   0.62064   0.62806   0.63467
 Alpha virt. eigenvalues --    0.64083   0.64137   0.64429   0.65640   0.65648
 Alpha virt. eigenvalues --    0.65679   0.67059   0.68502   0.69325   0.70083
 Alpha virt. eigenvalues --    0.71367   0.71543   0.72539   0.74253   0.74669
 Alpha virt. eigenvalues --    0.78044   0.78128   0.78494   0.79341   0.79601
 Alpha virt. eigenvalues --    0.80703   0.81124   0.81317   0.82082   0.83013
 Alpha virt. eigenvalues --    0.83040   0.85256   0.86423   0.88122   0.89673
 Alpha virt. eigenvalues --    0.90226   0.91770   0.93534   0.93680   0.93949
 Alpha virt. eigenvalues --    0.95318   0.96483   0.96592   0.96752   0.98106
 Alpha virt. eigenvalues --    1.00093   1.00631   1.01939   1.02628   1.02804
 Alpha virt. eigenvalues --    1.03882   1.07051   1.08729   1.10984   1.11170
 Alpha virt. eigenvalues --    1.11623   1.13463   1.14021   1.16372   1.17551
 Alpha virt. eigenvalues --    1.18316   1.19506   1.22629   1.23080   1.24138
 Alpha virt. eigenvalues --    1.25602   1.38610   1.41029   1.41118   1.42901
 Alpha virt. eigenvalues --    1.52506   1.57668   1.58442   1.59290   1.59573
 Alpha virt. eigenvalues --    1.61571   1.61587   1.61695   1.62617   1.65160
 Alpha virt. eigenvalues --    1.65572   1.65788   1.66731   1.69394   1.71719
 Alpha virt. eigenvalues --    1.73643   1.74127   1.74798   1.75175   1.76460
 Alpha virt. eigenvalues --    1.79627   1.82589   1.82612   1.83751   1.85990
 Alpha virt. eigenvalues --    1.86182   1.87315   1.89218   1.91999   1.92267
 Alpha virt. eigenvalues --    1.93027   1.98602   2.01243   2.01311   2.01755
 Alpha virt. eigenvalues --    2.02625   2.02819   2.03699   2.04301   2.04519
 Alpha virt. eigenvalues --    2.06049   2.06603   2.08274   2.09959   2.10784
 Alpha virt. eigenvalues --    2.11139   2.14378   2.16658   2.16839   2.18814
 Alpha virt. eigenvalues --    2.21803   2.31369   2.34899   2.35802   2.41203
 Alpha virt. eigenvalues --    2.44983   2.50698   2.51516   2.52778   2.52878
 Alpha virt. eigenvalues --    2.55313   2.56058   2.56158   2.57587   2.62204
 Alpha virt. eigenvalues --    2.70649   2.73308   2.74678   2.75234   2.76215
 Alpha virt. eigenvalues --    2.79138   2.79552   2.80034   2.80375   2.82055
 Alpha virt. eigenvalues --    2.82169   2.82759   2.83575   2.85695   2.86946
 Alpha virt. eigenvalues --    2.88096   2.89917   2.90042   2.91403   2.92188
 Alpha virt. eigenvalues --    2.92479   2.93458   2.97079   2.98212   3.00325
 Alpha virt. eigenvalues --    3.02204   3.03886   3.04044   3.05154   3.11205
 Alpha virt. eigenvalues --    3.14983   3.18881   3.21687   3.27348   3.29899
 Alpha virt. eigenvalues --    3.33107   3.44166   3.46759   3.47608   3.48844
 Alpha virt. eigenvalues --    3.58590   3.60590   3.63146   3.63551   3.68173
 Alpha virt. eigenvalues --    3.73476   3.75100   3.91283   4.08449   4.10197
 Alpha virt. eigenvalues --    4.13456   4.14608   4.24346   4.25115   4.25515
 Alpha virt. eigenvalues --    4.26988   4.53142   4.93120   4.95337  23.70765
 Alpha virt. eigenvalues --   23.85028  24.06955  24.09318  24.09523  24.10931
 Alpha virt. eigenvalues --   24.17591  24.21822  24.22026  24.22598  24.30751
 Alpha virt. eigenvalues --   24.32213
          Condensed to atoms (all electrons):
               1          2          3          4          5          6
     1  C   18.828264   0.554314   0.553279  -1.821641   0.051524  -6.368831
     2  C    0.554314  14.312696  -4.742764  -0.287722   0.468736  -3.237592
     3  C    0.553279  -4.742764  14.307523  -0.974910   0.022532  -3.231675
     4  C   -1.821641  -0.287722  -0.974910   6.770464  -0.080396   1.457206
     5  H    0.051524   0.468736   0.022532  -0.080396   0.467099  -0.092863
     6  C   -6.368831  -3.237592  -3.231675   1.457206  -0.092863  18.829059
     7  C   -1.821297  -0.973324  -0.287237   0.330699  -0.021558   1.455745
     8  H    0.051442   0.022553   0.468649  -0.021582   0.000796  -0.092718
     9  C   -0.082692   0.667858   0.667486  -0.076486   0.028608  -1.333700
    10  H    0.032650  -0.119923  -0.018411   0.442790  -0.010910   0.051546
    11  C   -3.236710   0.956513  -1.421111   0.467350  -0.022980   0.554047
    12  C   -3.231608  -1.421258   0.958647   0.089011  -0.037872   0.553338
    13  H    0.032601  -0.018422  -0.119799   0.024377  -0.000367   0.051537
    14  H    0.029751   0.018263   0.018281  -0.056643   0.000672  -0.034916
    15  C    1.457226   0.466868   0.089610   0.005511   0.015114  -1.821818
    16  H   -0.092814  -0.022965  -0.037907   0.015107   0.000051   0.051480
    17  C    1.455256   0.089039   0.466908  -0.103381   0.022959  -1.821073
    18  H   -0.092703  -0.037878  -0.022917   0.022972  -0.002820   0.051407
    19  C   -1.333341  -0.134998  -0.135077   0.050526  -0.016705  -0.082528
    20  H    0.051546  -0.000899   0.008588  -0.001261   0.000631   0.032669
    21  H    0.051512   0.008563  -0.000872  -0.000940   0.000625   0.032601
    22  H   -0.034912  -0.004005  -0.004030   0.001350  -0.000471   0.029753
               7          8          9         10         11         12
     1  C   -1.821297   0.051442  -0.082692   0.032650  -3.236710  -3.231608
     2  C   -0.973324   0.022553   0.667858  -0.119923   0.956513  -1.421258
     3  C   -0.287237   0.468649   0.667486  -0.018411  -1.421111   0.958647
     4  C    0.330699  -0.021582  -0.076486   0.442790   0.467350   0.089011
     5  H   -0.021558   0.000796   0.028608  -0.010910  -0.022980  -0.037872
     6  C    1.455745  -0.092718  -1.333700   0.051546   0.554047   0.553338
     7  C    6.769361  -0.080360  -0.076119   0.024354   0.089485   0.466565
     8  H   -0.080360   0.467087   0.028605  -0.000368  -0.037877  -0.022943
     9  C   -0.076119   0.028605   6.545346  -0.092589  -0.135261  -0.134766
    10  H    0.024354  -0.000368  -0.092589   0.479204  -0.000868   0.008564
    11  C    0.089485  -0.037877  -0.135261  -0.000868  14.314502  -4.743664
    12  C    0.466565  -0.022943  -0.134766   0.008564  -4.743664  14.306410
    13  H    0.442729  -0.010907  -0.092604   0.000757   0.008580  -0.000894
    14  H   -0.056650   0.000673   0.426731  -0.008927  -0.004025  -0.004008
    15  C   -0.103298   0.022982   0.050477  -0.001255  -0.289598  -0.972898
    16  H    0.022962  -0.002820  -0.016703   0.000631   0.468838   0.022455
    17  C    0.005813   0.015058   0.050444  -0.000939  -0.974215  -0.285642
    18  H    0.015072   0.000053  -0.016701   0.000625   0.022526   0.468604
    19  C    0.050376  -0.016700  -0.027709   0.000254   0.668841   0.665957
    20  H   -0.000936   0.000625   0.000253   0.000070  -0.119968  -0.018353
    21  H   -0.001248   0.000630   0.000253   0.000004  -0.018428  -0.119757
    22  H    0.001345  -0.000471  -0.000666   0.000010   0.018313   0.018220
              13         14         15         16         17         18
     1  C    0.032601   0.029751   1.457226  -0.092814   1.455256  -0.092703
     2  C   -0.018422   0.018263   0.466868  -0.022965   0.089039  -0.037878
     3  C   -0.119799   0.018281   0.089610  -0.037907   0.466908  -0.022917
     4  C    0.024377  -0.056643   0.005511   0.015107  -0.103381   0.022972
     5  H   -0.000367   0.000672   0.015114   0.000051   0.022959  -0.002820
     6  C    0.051537  -0.034916  -1.821818   0.051480  -1.821073   0.051407
     7  C    0.442729  -0.056650  -0.103298   0.022962   0.005813   0.015072
     8  H   -0.010907   0.000673   0.022982  -0.002820   0.015058   0.000053
     9  C   -0.092604   0.426731   0.050477  -0.016703   0.050444  -0.016701
    10  H    0.000757  -0.008927  -0.001255   0.000631  -0.000939   0.000625
    11  C    0.008580  -0.004025  -0.289598   0.468838  -0.974215   0.022526
    12  C   -0.000894  -0.004008  -0.972898   0.022455  -0.285642   0.468604
    13  H    0.479203  -0.008927  -0.000940   0.000625  -0.001253   0.000631
    14  H   -0.008927   0.473154   0.001348  -0.000471   0.001347  -0.000471
    15  C   -0.000940   0.001348   6.770616  -0.080429   0.330508  -0.021556
    16  H    0.000625  -0.000471  -0.080429   0.467095  -0.021561   0.000795
    17  C   -0.001253   0.001347   0.330508  -0.021561   6.768927  -0.080295
    18  H    0.000631  -0.000471  -0.021556   0.000795  -0.080295   0.467085
    19  C    0.000253  -0.000666  -0.076552   0.028627  -0.075715   0.028578
    20  H    0.000004   0.000010   0.442794  -0.010912   0.024343  -0.000367
    21  H    0.000070   0.000010   0.024361  -0.000367   0.442701  -0.010905
    22  H    0.000010  -0.000011  -0.056680   0.000673  -0.056617   0.000671
              19         20         21         22
     1  C   -1.333341   0.051546   0.051512  -0.034912
     2  C   -0.134998  -0.000899   0.008563  -0.004005
     3  C   -0.135077   0.008588  -0.000872  -0.004030
     4  C    0.050526  -0.001261  -0.000940   0.001350
     5  H   -0.016705   0.000631   0.000625  -0.000471
     6  C   -0.082528   0.032669   0.032601   0.029753
     7  C    0.050376  -0.000936  -0.001248   0.001345
     8  H   -0.016700   0.000625   0.000630  -0.000471
     9  C   -0.027709   0.000253   0.000253  -0.000666
    10  H    0.000254   0.000070   0.000004   0.000010
    11  C    0.668841  -0.119968  -0.018428   0.018313
    12  C    0.665957  -0.018353  -0.119757   0.018220
    13  H    0.000253   0.000004   0.000070   0.000010
    14  H   -0.000666   0.000010   0.000010  -0.000011
    15  C   -0.076552   0.442794   0.024361  -0.056680
    16  H    0.028627  -0.010912  -0.000367   0.000673
    17  C   -0.075715   0.024343   0.442701  -0.056617
    18  H    0.028578  -0.000367  -0.010905   0.000671
    19  C    6.545022  -0.092605  -0.092576   0.426741
    20  H   -0.092605   0.479203   0.000756  -0.008928
    21  H   -0.092576   0.000756   0.479201  -0.008927
    22  H    0.426741  -0.008928  -0.008927   0.473156
 Mulliken charges:
               1
     1  C    0.967183
     2  C   -0.563654
     3  C   -0.564792
     4  C   -0.252402
     5  H    0.207595
     6  C    0.967327
     7  C   -0.252479
     8  H    0.207593
     9  C   -0.380062
    10  H    0.212733
    11  C   -0.564289
    12  C   -0.564107
    13  H    0.212737
    14  H    0.205475
    15  C   -0.252392
    16  H    0.207610
    17  C   -0.252612
    18  H    0.207594
    19  C   -0.380000
    20  H    0.212736
    21  H    0.212731
    22  H    0.205476
 Sum of Mulliken charges =  -0.00000
 Mulliken charges with hydrogens summed into heavy atoms:
               1
     1  C    0.967183
     2  C   -0.356058
     3  C   -0.357199
     4  C   -0.039669
     6  C    0.967327
     7  C   -0.039742
     9  C   -0.174587
    11  C   -0.356680
    12  C   -0.356513
    15  C   -0.039656
    17  C   -0.039881
    19  C   -0.174525
 Electronic spatial extent (au):  <R**2>=           2311.9948
 Charge=             -0.0000 electrons
 Dipole moment (field-independent basis, Debye):
    X=              0.0000    Y=             -0.0001    Z=              0.0003  Tot=              0.0004
 Quadrupole moment (field-independent basis, Debye-Ang):
   XX=            -61.6905   YY=            -64.5448   ZZ=            -74.4887
   XY=              0.0003   XZ=             -0.0005   YZ=             -0.0000
 Traceless Quadrupole moment (field-independent basis, Debye-Ang):
   XX=              5.2175   YY=              2.3632   ZZ=             -7.5807
   XY=              0.0003   XZ=             -0.0005   YZ=             -0.0000
 Octapole moment (field-independent basis, Debye-Ang**2):
  XXX=              0.0005  YYY=             -0.0009  ZZZ=              0.0023  XYY=             -0.0004
  XXY=             -0.0016  XXZ=              0.0015  XZZ=              0.0005  YZZ=             -0.0007
  YYZ=              0.0013  XYZ=            -15.5355
 Hexadecapole moment (field-independent basis, Debye-Ang**3):
 XXXX=          -2301.4263 YYYY=           -463.7714 ZZZZ=           -210.0135 XXXY=              0.0001
 XXXZ=             -0.0205 YYYX=              0.0087 YYYZ=             -0.0001 ZZZX=              0.0005
 ZZZY=             -0.0002 XXYY=           -478.8273 XXZZ=           -497.4043 YYZZ=           -105.0750
 XXYZ=             -0.0014 YYXZ=              0.0020 ZZXY=             -0.0043
 N-N= 5.984239968590D+02 E-N=-2.271136327446D+03  KE= 4.610082653972D+02
 No NMR shielding tensors so no spin-rotation constants.
 Leave Link  601 at Sat Nov  5 21:34:08 2022, MaxMem= 16106127360 cpu:               4.3 elap:               0.2
 (Enter /opt/ap/G16/B01/g16/l9999.exe)
 1\1\GINC-N08\SP\RwB97XD\6-311++G(d,p)\C12H10\ROOT\05-Nov-2022\0\\#P wB
 97XD/6-311++G(d,p) scf=maxcycle=512\\_conf007.gjf nmol_natom 1_22\\0,1
 \C\C,1,1.40491871\C,1,1.40495292,2,118.20503621\C,2,1.3939373,1,120.91
 08946,3,0.05365643,0\H,2,1.08593095,1,119.3452094,3,-178.3624307,0\C,1
 ,1.48449301,2,120.90144423,4,-179.96388019,0\C,3,1.39389842,1,120.9105
 0598,2,0.03587687,0\H,3,1.08593608,1,119.34159615,2,-178.38281524,0\C,
 4,1.39606958,2,120.24555868,1,-0.09283196,0\H,4,1.08627898,2,119.66792
 041,1,-179.51486187,0\C,6,1.40492034,1,120.90156908,2,-55.,0\C,6,1.404
 95329,1,120.89324856,2,125.,0\H,7,1.08627928,3,119.67027175,1,-179.512
 58183,0\H,9,1.08597601,4,120.2602535,2,-179.95233103,0\C,11,1.39393437
 ,6,120.91099656,1,-179.95869964,0\H,11,1.08593173,6,119.34475907,1,1.6
 1891886,0\C,12,1.39390147,6,120.91022615,1,-179.94297913,0\H,12,1.0859
 3608,6,119.34175044,1,1.63241608,0\C,15,1.39607161,11,120.24535737,6,-
 0.10315482,0\H,15,1.08627786,11,119.66861247,6,-179.51844254,0\H,17,1.
 08627825,12,119.6702798,6,-179.51590091,0\H,19,1.08597601,15,120.25988
 597,11,-179.94731581,0\\Version=ES64L-G16RevB.01\State=1-A\HF=-463.249
 7741\RMSD=5.460e-09\Dipole=0.0000038,-0.000141,-0.0000286\Quadrupole=2
 .9031416,-4.0591519,1.1560102,1.55586,1.6301792,-2.5982348\PG=C01 [X(C
 12H10)]\\@


 GARBAGE IN, GARBAGE OUT
 Job cpu time:       0 days  0 hours 13 minutes  8.4 seconds.
 Elapsed time:       0 days  0 hours  0 minutes 24.8 seconds.
 File lengths (MBytes):  RWF=     62 Int=      0 D2E=      0 Chk=      8 Scr=      1
 Normal termination of Gaussian 16 at Sat Nov  5 21:34:08 2022.
