 Entering Gaussian System, Link 0=g16
 Input=_conf023.gjf
 Output=_conf023.log
 Initial command:
 /opt/ap/G16/B01/g16/l1.exe "/tmp2/scr/Gau-3457.inp" -scrdir="/tmp2/scr/"
 Entering Link 1 = /opt/ap/G16/B01/g16/l1.exe PID=      3458.
  
 Copyright (c) 1988-2017, Gaussian, Inc.  All Rights Reserved.
  
 This is part of the Gaussian(R) 16 program.  It is based on
 the Gaussian(R) 09 system (copyright 2009, Gaussian, Inc.),
 the Gaussian(R) 03 system (copyright 2003, Gaussian, Inc.),
 the Gaussian(R) 98 system (copyright 1998, Gaussian, Inc.),
 the Gaussian(R) 94 system (copyright 1995, Gaussian, Inc.),
 the Gaussian 92(TM) system (copyright 1992, Gaussian, Inc.),
 the Gaussian 90(TM) system (copyright 1990, Gaussian, Inc.),
 the Gaussian 88(TM) system (copyright 1988, Gaussian, Inc.),
 the Gaussian 86(TM) system (copyright 1986, Carnegie Mellon
 University), and the Gaussian 82(TM) system (copyright 1983,
 Carnegie Mellon University). Gaussian is a federally registered
 trademark of Gaussian, Inc.
  
 This software contains proprietary and confidential information,
 including trade secrets, belonging to Gaussian, Inc.
  
 This software is provided under written license and may be
 used, copied, transmitted, or stored only in accord with that
 written license.
  
 The following legend is applicable only to US Government
 contracts under FAR:
  
                    RESTRICTED RIGHTS LEGEND
  
 Use, reproduction and disclosure by the US Government is
 subject to restrictions as set forth in subparagraphs (a)
 and (c) of the Commercial Computer Software - Restricted
 Rights clause in FAR 52.227-19.
  
 Gaussian, Inc.
 340 Quinnipiac St., Bldg. 40, Wallingford CT 06492
  
  
 ---------------------------------------------------------------
 Warning -- This program may not be used in any manner that
 competes with the business of Gaussian, Inc. or will provide
 assistance to any competitor of Gaussian, Inc.  The licensee
 of this program is prohibited from giving any competitor of
 Gaussian, Inc. access to this program.  By using this program,
 the user acknowledges that Gaussian, Inc. is engaged in the
 business of creating and licensing software in the field of
 computational chemistry and represents and warrants to the
 licensee that it is not a competitor of Gaussian, Inc. and that
 it will not use this program in any manner prohibited above.
 ---------------------------------------------------------------
  

 Cite this work as:
 Gaussian 16, Revision B.01,
 M. J. Frisch, G. W. Trucks, H. B. Schlegel, G. E. Scuseria, 
 M. A. Robb, J. R. Cheeseman, G. Scalmani, V. Barone, 
 G. A. Petersson, H. Nakatsuji, X. Li, M. Caricato, A. V. Marenich, 
 J. Bloino, B. G. Janesko, R. Gomperts, B. Mennucci, H. P. Hratchian, 
 J. V. Ortiz, A. F. Izmaylov, J. L. Sonnenberg, D. Williams-Young, 
 F. Ding, F. Lipparini, F. Egidi, J. Goings, B. Peng, A. Petrone, 
 T. Henderson, D. Ranasinghe, V. G. Zakrzewski, J. Gao, N. Rega, 
 G. Zheng, W. Liang, M. Hada, M. Ehara, K. Toyota, R. Fukuda, 
 J. Hasegawa, M. Ishida, T. Nakajima, Y. Honda, O. Kitao, H. Nakai, 
 T. Vreven, K. Throssell, J. A. Montgomery, Jr., J. E. Peralta, 
 F. Ogliaro, M. J. Bearpark, J. J. Heyd, E. N. Brothers, K. N. Kudin, 
 V. N. Staroverov, T. A. Keith, R. Kobayashi, J. Normand, 
 K. Raghavachari, A. P. Rendell, J. C. Burant, S. S. Iyengar, 
 J. Tomasi, M. Cossi, J. M. Millam, M. Klene, C. Adamo, R. Cammi, 
 J. W. Ochterski, R. L. Martin, K. Morokuma, O. Farkas, 
 J. B. Foresman, and D. J. Fox, Gaussian, Inc., Wallingford CT, 2016.
 
 ******************************************
 Gaussian 16:  ES64L-G16RevB.01 20-Dec-2017
                 5-Nov-2022 
 ******************************************
 %nprocshared=32
 Will use up to   32 processors via shared memory.
 %mem=120GB
 %chk=_conf023.chk
 ----------------------------------------
 #P wB97XD/6-311++G(d,p) scf=maxcycle=512
 ----------------------------------------
 1/38=1,172=1/1;
 2/12=2,17=6,18=5,40=1/2;
 3/5=4,6=6,7=1111,11=2,25=1,30=1,74=-58/1,2,3;
 4//1;
 5/5=2,7=512,38=5/2;
 6/7=2,8=2,9=2,10=2,28=1/1;
 99/5=1,9=1/99;
 Leave Link    1 at Sat Nov  5 21:35:25 2022, MaxMem= 16106127360 cpu:               2.0 elap:               0.1
 (Enter /opt/ap/G16/B01/g16/l101.exe)
 ----------------------------
 _conf023.gjf nmol_natom 1_22
 ----------------------------
 Symbolic Z-matrix:
 Charge =  0 Multiplicity = 1
 C
 C                    1     1.40492 
 C                    1     1.40495  2     118.20504 
 C                    2     1.39394  1     120.91089  3     0.05366  0
 H                    2     1.08593  1     119.34521  3    -178.36243  0
 C                    1     1.48449  2     120.90144  4    -179.96388  0
 C                    3     1.3939   1     120.91051  2     0.03588  0
 H                    3     1.08594  1     119.3416  2    -178.38282  0
 C                    4     1.39607  2     120.24556  1    -0.09283  0
 H                    4     1.08628  2     119.66792  1    -179.51486  0
 C                    6     1.40492  1     120.90157  2     25.      0
 C                    6     1.40495  1     120.89325  2    -155.     0
 H                    7     1.08628  3     119.67027  1    -179.51258  0
 H                    9     1.08598  4     120.26025  2    -179.95233  0
 C                    11    1.39393  6     120.911  1    -179.9587  0
 H                    11    1.08593  6     119.34476  1     1.61892  0
 C                    12    1.3939   6     120.91023  1    -179.94298  0
 H                    12    1.08594  6     119.34175  1     1.63242  0
 C                    15    1.39607  11    120.24536  6    -0.10315  0
 H                    15    1.08628  11    119.66861  6    -179.51844  0
 H                    17    1.08628  12    119.67028  6    -179.5159  0
 H                    19    1.08598  15    120.25989  11   -179.94732  0
 
 ITRead=  0  0  0  0  0  0  0  0  0  0  0  0  0  0  0  0  0  0  0  0
 ITRead=  0  0
 MicOpt= -1 -1 -1 -1 -1 -1 -1 -1 -1 -1 -1 -1 -1 -1 -1 -1 -1 -1 -1 -1
 MicOpt= -1 -1
 NAtoms=     22 NQM=       22 NQMF=       0 NMMI=      0 NMMIF=      0
                NMic=       0 NMicF=      0.
                    Isotopes and Nuclear Properties:
 (Nuclear quadrupole moments (NQMom) in fm**2, nuclear magnetic moments (NMagM)
  in nuclear magnetons)

  Atom         1           2           3           4           5           6           7           8           9          10
 IAtWgt=          12          12          12          12           1          12          12           1          12           1
 AtmWgt=  12.0000000  12.0000000  12.0000000  12.0000000   1.0078250  12.0000000  12.0000000   1.0078250  12.0000000   1.0078250
 NucSpn=           0           0           0           0           1           0           0           1           0           1
 AtZEff=  -0.0000000  -0.0000000  -0.0000000  -0.0000000  -0.0000000  -0.0000000  -0.0000000  -0.0000000  -0.0000000  -0.0000000
 NQMom=    0.0000000   0.0000000   0.0000000   0.0000000   0.0000000   0.0000000   0.0000000   0.0000000   0.0000000   0.0000000
 NMagM=    0.0000000   0.0000000   0.0000000   0.0000000   2.7928460   0.0000000   0.0000000   2.7928460   0.0000000   2.7928460
 AtZNuc=   6.0000000   6.0000000   6.0000000   6.0000000   1.0000000   6.0000000   6.0000000   1.0000000   6.0000000   1.0000000

  Atom        11          12          13          14          15          16          17          18          19          20
 IAtWgt=          12          12           1           1          12           1          12           1          12           1
 AtmWgt=  12.0000000  12.0000000   1.0078250   1.0078250  12.0000000   1.0078250  12.0000000   1.0078250  12.0000000   1.0078250
 NucSpn=           0           0           1           1           0           1           0           1           0           1
 AtZEff=  -0.0000000  -0.0000000  -0.0000000  -0.0000000  -0.0000000  -0.0000000  -0.0000000  -0.0000000  -0.0000000  -0.0000000
 NQMom=    0.0000000   0.0000000   0.0000000   0.0000000   0.0000000   0.0000000   0.0000000   0.0000000   0.0000000   0.0000000
 NMagM=    0.0000000   0.0000000   2.7928460   2.7928460   0.0000000   2.7928460   0.0000000   2.7928460   0.0000000   2.7928460
 AtZNuc=   6.0000000   6.0000000   1.0000000   1.0000000   6.0000000   1.0000000   6.0000000   1.0000000   6.0000000   1.0000000

  Atom        21          22
 IAtWgt=           1           1
 AtmWgt=   1.0078250   1.0078250
 NucSpn=           1           1
 AtZEff=  -0.0000000  -0.0000000
 NQMom=    0.0000000   0.0000000
 NMagM=    2.7928460   2.7928460
 AtZNuc=   1.0000000   1.0000000
 Leave Link  101 at Sat Nov  5 21:35:25 2022, MaxMem= 16106127360 cpu:               5.2 elap:               0.2
 (Enter /opt/ap/G16/B01/g16/l202.exe)
                          Input orientation:                          
 ---------------------------------------------------------------------
 Center     Atomic      Atomic             Coordinates (Angstroms)
 Number     Number       Type             X           Y           Z
 ---------------------------------------------------------------------
      1          6           0        0.000000    0.000000    0.000000
      2          6           0        0.000000    0.000000    1.404919
      3          6           0        1.238131    0.000000   -0.664020
      4          6           0        1.195952    0.001120    2.120990
      5          1           0       -0.946201   -0.027051    1.937101
      6          6           0       -1.273772   -0.000390   -0.762381
      7          6           0        2.434381   -0.000749    0.051479
      8          1           0        1.259850    0.026715   -1.749411
      9          6           0        2.418826    0.000311    1.447501
     10          1           0        1.172413   -0.006894    3.206985
     11          6           0       -2.454119    0.508712   -0.195462
     12          6           0       -1.331426   -0.509927   -2.070410
     13          1           0        3.380326    0.007295   -0.482493
     14          1           0        3.350700    0.000403    2.005133
     15          6           0       -3.650481    0.507662   -0.910844
     16          1           0       -2.425022    0.931308    0.804444
     17          6           0       -2.527015   -0.509389   -2.787019
     18          1           0       -0.436182   -0.932398   -2.516856
     19          6           0       -3.692316   -0.000824   -2.210347
     20          1           0       -4.549461    0.913510   -0.455737
     21          1           0       -2.550411   -0.915586   -3.794221
     22          1           0       -4.624054   -0.000976   -2.768208
 ---------------------------------------------------------------------
                    Distance matrix (angstroms):
                    1          2          3          4          5
     1  C    0.000000
     2  C    1.404919   0.000000
     3  C    1.404953   2.411116   0.000000
     4  C    2.434934   1.393937   2.785330   0.000000
     5  H    2.156012   1.085931   3.396745   2.150216   0.000000
     6  C    1.484493   2.513898   2.513829   3.796494   2.719415
     7  C    2.434925   2.785320   1.393898   2.411760   3.870994
     8  H    2.156008   3.396723   1.085936   3.871013   4.296501
     9  C    2.818861   2.419201   2.419207   1.396070   3.400568
    10  H    3.414579   2.149893   3.871569   1.086279   2.470128
    11  C    2.513901   2.973670   3.756468   4.352772   2.666212
    12  C    2.513826   3.756412   2.973312   4.921041   4.054839
    13  H    3.414594   3.871560   2.149884   3.398478   4.957262
    14  H    3.904837   3.404035   3.404016   2.157861   4.297527
    15  C    3.796494   4.352757   4.921095   5.739035   3.963564
    16  H    2.719411   2.666202   4.054925   3.963583   2.094821
    17  C    3.796414   4.921140   4.352347   6.181396   5.004891
    18  H    2.719225   4.054620   2.665651   5.004492   4.573566
    19  C    4.303351   5.167528   5.167247   6.531129   4.974250
    20  H    4.662595   4.999413   5.862943   6.362527   4.426490
    21  H    4.662511   5.862930   4.998951   7.061538   6.017562
    22  H    5.389327   6.228712   6.228388   7.601100   5.972203
                    6          7          8          9         10
     6  C    0.000000
     7  C    3.796415   0.000000
     8  H    2.719228   2.150228   0.000000
     9  C    4.303354   1.396108   3.400612   0.000000
    10  H    4.662588   3.398502   4.957280   2.156243   0.000000
    11  C    1.404920   4.921175   4.054706   5.167533   4.999423
    12  C    1.404953   4.352353   2.665659   5.167246   5.862862
    13  H    4.662512   1.086279   2.470197   2.156248   4.299689
    14  H    5.389330   2.157871   4.297551   1.085976   2.487858
    15  C    2.434934   6.181431   5.004583   6.531132   6.362514
    16  H    2.156010   5.004946   4.573701   4.974247   4.426507
    17  C    2.434925   5.738574   3.962876   6.530872   7.061611
    18  H    2.156010   3.962884   2.094134   4.973645   6.017183
    19  C    2.818858   6.530870   4.973647   7.122212   7.281010
    20  H    3.414583   7.061670   6.017315   7.281021   6.855838
    21  H    3.414594   6.361957   4.425751   7.280648   7.981355
    22  H    3.904834   7.600798   5.971518   8.208188   8.324781
                   11         12         13         14         15
    11  C    0.000000
    12  C    2.411119   0.000000
    13  H    5.862982   4.998960   0.000000
    14  H    6.228718   6.228386   2.487812   0.000000
    15  C    1.393934   2.785336   7.061593   7.601104   0.000000
    16  H    1.085932   3.396748   6.017646   5.972203   2.150219
    17  C    2.785320   1.393901   6.361955   7.600799   2.411763
    18  H    3.396725   1.085936   4.425764   5.971515   3.871016
    19  C    2.419198   2.419208   7.280646   8.208188   1.396072
    20  H    2.149897   3.871575   7.981444   8.324794   1.086278
    21  H    3.871558   2.149886   6.855136   8.324342   3.398478
    22  H    3.404029   3.404019   8.324340   9.294164   2.157859
                   16         17         18         19         20
    16  H    0.000000
    17  C    3.870997   0.000000
    18  H    4.296501   2.150234   0.000000
    19  C    3.400569   1.396107   3.400615   0.000000
    20  H    2.470145   3.398500   4.957282   2.156238   0.000000
    21  H    4.957264   1.086278   2.470204   2.156245   4.299683
    22  H    4.297527   2.157871   4.297556   1.085976   2.487844
                   21         22
    21  H    0.000000
    22  H    2.487812   0.000000
 Stoichiometry    C12H10
 Framework group  C1[X(C12H10)]
 Deg. of freedom    60
 Full point group                 C1      NOp   1
 Largest Abelian subgroup         C1      NOp   1
 Largest concise Abelian subgroup C1      NOp   1
                         Standard orientation:                         
 ---------------------------------------------------------------------
 Center     Atomic      Atomic             Coordinates (Angstroms)
 Number     Number       Type             X           Y           Z
 ---------------------------------------------------------------------
      1          6           0        0.742246    0.000156   -0.000141
      2          6           0        1.463776    1.177064    0.260780
      3          6           0        1.463595   -1.176950   -0.260851
      4          6           0        2.857713    1.177462    0.259966
      5          1           0        0.925203    2.091490    0.491021
      6          6           0       -0.742247    0.000146   -0.000006
      7          6           0        2.857493   -1.177585   -0.259979
      8          1           0        0.924807   -2.091298   -0.490921
      9          6           0        3.561107   -0.000101   -0.000019
     10          1           0        3.395252    2.097275    0.472093
     11          6           0       -1.463797    1.177074   -0.260787
     12          6           0       -1.463574   -1.176923    0.260936
     13          1           0        3.394924   -2.097493   -0.471967
     14          1           0        4.647083   -0.000231    0.000049
     15          6           0       -2.857731    1.177475   -0.259868
     16          1           0       -0.925231    2.091537   -0.490901
     17          6           0       -2.857475   -1.177594    0.259990
     18          1           0       -0.924770   -2.091226    0.491148
     19          6           0       -3.561105   -0.000156   -0.000125
     20          1           0       -3.395295    2.097310   -0.471828
     21          1           0       -3.394893   -2.097479    0.472107
     22          1           0       -4.647081   -0.000298   -0.000192
 ---------------------------------------------------------------------
 Rotational constants (GHZ):           2.8585222           0.5528105           0.4704534
 Leave Link  202 at Sat Nov  5 21:35:25 2022, MaxMem= 16106127360 cpu:               2.1 elap:               0.1
 (Enter /opt/ap/G16/B01/g16/l301.exe)
 Standard basis: 6-311++G(d,p) (5D, 7F)
 Ernie: Thresh=  0.10000D-02 Tol=  0.10000D-05 Strict=F.
 There are   346 symmetry adapted cartesian basis functions of A   symmetry.
 There are   334 symmetry adapted basis functions of A   symmetry.
   334 basis functions,   522 primitive gaussians,   346 cartesian basis functions
    41 alpha electrons       41 beta electrons
       nuclear repulsion energy       599.3623596154 Hartrees.
 IExCor= 4639 DFT=T Ex+Corr=wB97XD ExCW=0 ScaHFX=  1.000000
 ScaDFX=  1.000000  1.000000  1.000000  1.000000 ScalE2=  1.000000  1.000000
 IRadAn=      5 IRanWt=     -1 IRanGd=            0 ICorTp=0 IEmpDi=121
 HFx  wShort=  0.000000 wLong=  0.200000 cFull=  0.222036 cShort=  0.000000 cLong=  0.777964
 DFx  wShort=  0.000000 wLong=  0.200000 cFull=  0.000000 cShort=  0.000000 cLong=  1.000000
 NAtoms=   22 NActive=   22 NUniq=   22 SFac= 1.00D+00 NAtFMM=   60 NAOKFM=F Big=F
 Integral buffers will be    131072 words long.
 Raffenetti 2 integral format.
 Two-electron integral symmetry is turned on.
 R6Disp:  Grimme-D2 Dispersion energy=       -0.0119686589 Hartrees.
 Nuclear repulsion after empirical dispersion term =      599.3503909565 Hartrees.
 Leave Link  301 at Sat Nov  5 21:35:25 2022, MaxMem= 16106127360 cpu:               1.4 elap:               0.0
 (Enter /opt/ap/G16/B01/g16/l302.exe)
 NPDir=0 NMtPBC=     1 NCelOv=     1 NCel=       1 NClECP=     1 NCelD=      1
         NCelK=      1 NCelE2=     1 NClLst=     1 CellRange=     0.0.
 One-electron integrals computed using PRISM.
 One-electron integral symmetry used in STVInt
 NBasis=   334 RedAO= T EigKep=  1.54D-06  NBF=   334
 NBsUse=   331 1.00D-06 EigRej=  8.80D-07 NBFU=   331
 Precomputing XC quadrature grid using
 IXCGrd= 4 IRadAn=           5 IRanWt=          -1 IRanGd=           0 AccXCQ= 0.00D+00.
 Generated NRdTot=       0 NPtTot=           0 NUsed=           0 NTot=          32
 NSgBfM=   346   346   346   346   346 MxSgAt=    22 MxSgA2=    22.
 Leave Link  302 at Sat Nov  5 21:35:26 2022, MaxMem= 16106127360 cpu:               7.7 elap:               0.2
 (Enter /opt/ap/G16/B01/g16/l303.exe)
 DipDrv:  MaxL=1.
 Leave Link  303 at Sat Nov  5 21:35:26 2022, MaxMem= 16106127360 cpu:               1.5 elap:               0.1
 (Enter /opt/ap/G16/B01/g16/l401.exe)
 ExpMin= 3.60D-02 ExpMax= 4.56D+03 ExpMxC= 6.82D+02 IAcc=3 IRadAn=         5 AccDes= 0.00D+00
 Harris functional with IExCor= 4639 and IRadAn=       5 diagonalized for initial guess.
 HarFok:  IExCor= 4639 AccDes= 0.00D+00 IRadAn=         5 IDoV= 1 UseB2=F ITyADJ=14
 ICtDFT=  3500011 ScaDFX=  1.000000  1.000000  1.000000  1.000000
 FoFCou: FMM=F IPFlag=           0 FMFlag=      100000 FMFlg1=           0
         NFxFlg=           0 DoJE=T BraDBF=F KetDBF=T FulRan=T
         wScrn=  0.000000 ICntrl=       500 IOpCl=  0 I1Cent=   200000004 NGrid=           0
         NMat0=    1 NMatS0=      1 NMatT0=    0 NMatD0=    1 NMtDS0=    0 NMtDT0=    0
 Petite list used in FoFCou.
 Harris En= -441.936883742715    
 JPrj=0 DoOrth=F DoCkMO=F.
 Leave Link  401 at Sat Nov  5 21:35:26 2022, MaxMem= 16106127360 cpu:              20.7 elap:               0.7
 (Enter /opt/ap/G16/B01/g16/l502.exe)
 Integral symmetry usage will be decided dynamically.
 Closed shell SCF:
 Using DIIS extrapolation, IDIIS=  1040.
 NGot= 16106127360 LenX= 16105873520 LenY= 16105753363
 Requested convergence on RMS density matrix=1.00D-08 within 512 cycles.
 Requested convergence on MAX density matrix=1.00D-06.
 Requested convergence on             energy=1.00D-06.
 No special actions if energy rises.
 Fock matrices will be formed incrementally for  20 cycles.

 Cycle   1  Pass 1  IDiag  1:
 FoFJK:  IHMeth= 1 ICntrl=       0 DoSepK=T KAlg= 0 I1Cent=           0 FoldK=F
 IRaf=         1 NMat=       1 IRICut=       1 DoRegI=T DoRafI=F ISym2E= 0 IDoP0=0 IntGTp=1.
 FoFCou: FMM=F IPFlag=           0 FMFlag=      100000 FMFlg1=           0
         NFxFlg=           0 DoJE=T BraDBF=F KetDBF=F FulRan=T
         wScrn=  0.000000 ICntrl=       500 IOpCl=  0 I1Cent=           0 NGrid=           0
         NMat0=    1 NMatS0=      1 NMatT0=    0 NMatD0=    1 NMtDS0=    0 NMtDT0=    0
 Symmetry not used in FoFCou.
 E= -463.151366693850    
 DIIS: error= 6.89D-02 at cycle   1 NSaved=   1.
 NSaved= 1 IEnMin= 1 EnMin= -463.151366693850     IErMin= 1 ErrMin= 6.89D-02
 ErrMax= 6.89D-02  0.00D+00 EMaxC= 1.00D-01 BMatC= 9.52D-01 BMatP= 9.52D-01
 IDIUse=3 WtCom= 3.11D-01 WtEn= 6.89D-01
 Coeff-Com:  0.100D+01
 Coeff-En:   0.100D+01
 Coeff:      0.100D+01
 Gap=     0.314 Goal=   None    Shift=    0.000
 GapD=    0.314 DampG=1.000 DampE=0.500 DampFc=0.5000 IDamp=-1.
 Damping current iteration by 5.00D-01
 RMSDP=6.43D-02 MaxDP=4.67D+00              OVMax= 4.53D-02

 Cycle   2  Pass 1  IDiag  1:
 RMSU=  6.38D-03    CP:  7.74D-01
 E= -463.200621752579     Delta-E=       -0.049255058729 Rises=F Damp=T
 DIIS: error= 3.29D-02 at cycle   2 NSaved=   2.
 NSaved= 2 IEnMin= 2 EnMin= -463.200621752579     IErMin= 2 ErrMin= 3.29D-02
 ErrMax= 3.29D-02  0.00D+00 EMaxC= 1.00D-01 BMatC= 2.16D-01 BMatP= 9.52D-01
 IDIUse=3 WtCom= 6.71D-01 WtEn= 3.29D-01
 Coeff-Com: -0.883D+00 0.188D+01
 Coeff-En:   0.000D+00 0.100D+01
 Coeff:     -0.592D+00 0.159D+01
 Gap=     0.320 Goal=   None    Shift=    0.000
 RMSDP=3.38D-02 MaxDP=2.39D+00 DE=-4.93D-02 OVMax= 3.77D-02

 Cycle   3  Pass 1  IDiag  1:
 RMSU=  4.07D-03    CP:  5.34D-01  1.21D+00
 E= -463.245080011841     Delta-E=       -0.044458259262 Rises=F Damp=F
 DIIS: error= 6.07D-03 at cycle   3 NSaved=   3.
 NSaved= 3 IEnMin= 3 EnMin= -463.245080011841     IErMin= 3 ErrMin= 6.07D-03
 ErrMax= 6.07D-03  0.00D+00 EMaxC= 1.00D-01 BMatC= 4.16D-03 BMatP= 2.16D-01
 IDIUse=3 WtCom= 9.39D-01 WtEn= 6.07D-02
 Coeff-Com: -0.358D+00 0.763D+00 0.595D+00
 Coeff-En:   0.000D+00 0.000D+00 0.100D+01
 Coeff:     -0.336D+00 0.717D+00 0.620D+00
 Gap=     0.319 Goal=   None    Shift=    0.000
 RMSDP=2.61D-03 MaxDP=1.51D-01 DE=-4.45D-02 OVMax= 2.09D-02

 Cycle   4  Pass 1  IDiag  1:
 RMSU=  8.04D-04    CP:  5.20D-01  1.40D+00  7.33D-01
 E= -463.248735710858     Delta-E=       -0.003655699017 Rises=F Damp=F
 DIIS: error= 1.97D-03 at cycle   4 NSaved=   4.
 NSaved= 4 IEnMin= 4 EnMin= -463.248735710858     IErMin= 4 ErrMin= 1.97D-03
 ErrMax= 1.97D-03  0.00D+00 EMaxC= 1.00D-01 BMatC= 2.90D-04 BMatP= 4.16D-03
 IDIUse=3 WtCom= 9.80D-01 WtEn= 1.97D-02
 Coeff-Com: -0.127D+00 0.272D+00 0.295D+00 0.560D+00
 Coeff-En:   0.000D+00 0.000D+00 0.000D+00 0.100D+01
 Coeff:     -0.124D+00 0.266D+00 0.289D+00 0.569D+00
 Gap=     0.319 Goal=   None    Shift=    0.000
 RMSDP=1.39D-03 MaxDP=9.95D-02 DE=-3.66D-03 OVMax= 5.80D-03

 Cycle   5  Pass 1  IDiag  1:
 RMSU=  2.78D-04    CP:  5.11D-01  1.46D+00  7.53D-01  7.39D-01
 E= -463.249041139772     Delta-E=       -0.000305428914 Rises=F Damp=F
 DIIS: error= 4.26D-04 at cycle   5 NSaved=   5.
 NSaved= 5 IEnMin= 5 EnMin= -463.249041139772     IErMin= 5 ErrMin= 4.26D-04
 ErrMax= 4.26D-04  0.00D+00 EMaxC= 1.00D-01 BMatC= 9.50D-06 BMatP= 2.90D-04
 IDIUse=3 WtCom= 9.96D-01 WtEn= 4.26D-03
 Coeff-Com:  0.277D-01-0.592D-01-0.333D-01 0.127D+00 0.938D+00
 Coeff-En:   0.000D+00 0.000D+00 0.000D+00 0.000D+00 0.100D+01
 Coeff:      0.276D-01-0.590D-01-0.331D-01 0.127D+00 0.938D+00
 Gap=     0.319 Goal=   None    Shift=    0.000
 RMSDP=2.60D-04 MaxDP=1.83D-02 DE=-3.05D-04 OVMax= 1.76D-03

 Cycle   6  Pass 1  IDiag  1:
 RMSU=  5.87D-05    CP:  5.09D-01  1.46D+00  7.68D-01  8.12D-01  1.18D+00
 E= -463.249054270865     Delta-E=       -0.000013131093 Rises=F Damp=F
 DIIS: error= 6.07D-05 at cycle   6 NSaved=   6.
 NSaved= 6 IEnMin= 6 EnMin= -463.249054270865     IErMin= 6 ErrMin= 6.07D-05
 ErrMax= 6.07D-05  0.00D+00 EMaxC= 1.00D-01 BMatC= 4.62D-07 BMatP= 9.50D-06
 IDIUse=1 WtCom= 1.00D+00 WtEn= 0.00D+00
 Coeff-Com:  0.118D-01-0.252D-01-0.167D-01 0.317D-01 0.320D+00 0.678D+00
 Coeff:      0.118D-01-0.252D-01-0.167D-01 0.317D-01 0.320D+00 0.678D+00
 Gap=     0.319 Goal=   None    Shift=    0.000
 RMSDP=1.36D-05 MaxDP=5.70D-04 DE=-1.31D-05 OVMax= 2.80D-04

 Cycle   7  Pass 1  IDiag  1:
 RMSU=  1.06D-05    CP:  5.09D-01  1.46D+00  7.68D-01  8.10D-01  1.19D+00
                    CP:  1.04D+00
 E= -463.249054838676     Delta-E=       -0.000000567811 Rises=F Damp=F
 DIIS: error= 2.49D-05 at cycle   7 NSaved=   7.
 NSaved= 7 IEnMin= 7 EnMin= -463.249054838676     IErMin= 7 ErrMin= 2.49D-05
 ErrMax= 2.49D-05  0.00D+00 EMaxC= 1.00D-01 BMatC= 5.83D-08 BMatP= 4.62D-07
 IDIUse=1 WtCom= 1.00D+00 WtEn= 0.00D+00
 Coeff-Com: -0.241D-02 0.518D-02 0.223D-02-0.193D-01-0.113D+00 0.183D+00
 Coeff-Com:  0.944D+00
 Coeff:     -0.241D-02 0.518D-02 0.223D-02-0.193D-01-0.113D+00 0.183D+00
 Coeff:      0.944D+00
 Gap=     0.319 Goal=   None    Shift=    0.000
 RMSDP=1.92D-05 MaxDP=1.23D-03 DE=-5.68D-07 OVMax= 2.12D-04

 Cycle   8  Pass 1  IDiag  1:
 RMSU=  3.27D-06    CP:  5.09D-01  1.46D+00  7.69D-01  8.09D-01  1.22D+00
                    CP:  1.17D+00  1.19D+00
 E= -463.249054949813     Delta-E=       -0.000000111137 Rises=F Damp=F
 DIIS: error= 4.31D-06 at cycle   8 NSaved=   8.
 NSaved= 8 IEnMin= 8 EnMin= -463.249054949813     IErMin= 8 ErrMin= 4.31D-06
 ErrMax= 4.31D-06  0.00D+00 EMaxC= 1.00D-01 BMatC= 1.20D-09 BMatP= 5.83D-08
 IDIUse=1 WtCom= 1.00D+00 WtEn= 0.00D+00
 Coeff-Com: -0.362D-03 0.773D-03 0.510D-03-0.128D-02-0.794D-02-0.153D-01
 Coeff-Com: -0.295D-01 0.105D+01
 Coeff:     -0.362D-03 0.773D-03 0.510D-03-0.128D-02-0.794D-02-0.153D-01
 Coeff:     -0.295D-01 0.105D+01
 Gap=     0.319 Goal=   None    Shift=    0.000
 RMSDP=4.52D-06 MaxDP=3.02D-04 DE=-1.11D-07 OVMax= 4.17D-05

 Cycle   9  Pass 1  IDiag  1:
 RMSU=  8.97D-07    CP:  5.09D-01  1.46D+00  7.69D-01  8.07D-01  1.22D+00
                    CP:  1.18D+00  1.29D+00  1.25D+00
 E= -463.249054953681     Delta-E=       -0.000000003868 Rises=F Damp=F
 DIIS: error= 2.29D-06 at cycle   9 NSaved=   9.
 NSaved= 9 IEnMin= 9 EnMin= -463.249054953681     IErMin= 9 ErrMin= 2.29D-06
 ErrMax= 2.29D-06  0.00D+00 EMaxC= 1.00D-01 BMatC= 3.09D-10 BMatP= 1.20D-09
 IDIUse=1 WtCom= 1.00D+00 WtEn= 0.00D+00
 Coeff-Com:  0.155D-03-0.337D-03-0.727D-04 0.190D-02 0.109D-01-0.254D-01
 Coeff-Com: -0.128D+00 0.378D+00 0.763D+00
 Coeff:      0.155D-03-0.337D-03-0.727D-04 0.190D-02 0.109D-01-0.254D-01
 Coeff:     -0.128D+00 0.378D+00 0.763D+00
 Gap=     0.319 Goal=   None    Shift=    0.000
 RMSDP=1.35D-06 MaxDP=9.98D-05 DE=-3.87D-09 OVMax= 1.66D-05

 Cycle  10  Pass 1  IDiag  1:
 RMSU=  2.05D-07    CP:  5.09D-01  1.46D+00  7.69D-01  8.07D-01  1.22D+00
                    CP:  1.17D+00  1.31D+00  1.32D+00  1.34D+00
 E= -463.249054954212     Delta-E=       -0.000000000531 Rises=F Damp=F
 DIIS: error= 3.41D-07 at cycle  10 NSaved=  10.
 NSaved=10 IEnMin=10 EnMin= -463.249054954212     IErMin=10 ErrMin= 3.41D-07
 ErrMax= 3.41D-07  0.00D+00 EMaxC= 1.00D-01 BMatC= 2.41D-11 BMatP= 3.09D-10
 IDIUse=1 WtCom= 1.00D+00 WtEn= 0.00D+00
 Coeff-Com:  0.614D-04-0.132D-03-0.512D-04 0.532D-03 0.280D-02-0.341D-02
 Coeff-Com: -0.254D-01-0.291D-01 0.196D+00 0.859D+00
 Coeff:      0.614D-04-0.132D-03-0.512D-04 0.532D-03 0.280D-02-0.341D-02
 Coeff:     -0.254D-01-0.291D-01 0.196D+00 0.859D+00
 Gap=     0.319 Goal=   None    Shift=    0.000
 RMSDP=4.78D-07 MaxDP=3.52D-05 DE=-5.31D-10 OVMax= 3.66D-06

 Cycle  11  Pass 1  IDiag  1:
 RMSU=  7.85D-08    CP:  5.09D-01  1.46D+00  7.69D-01  8.07D-01  1.22D+00
                    CP:  1.17D+00  1.31D+00  1.32D+00  1.47D+00  1.19D+00
 E= -463.249054954249     Delta-E=       -0.000000000037 Rises=F Damp=F
 DIIS: error= 8.26D-08 at cycle  11 NSaved=  11.
 NSaved=11 IEnMin=11 EnMin= -463.249054954249     IErMin=11 ErrMin= 8.26D-08
 ErrMax= 8.26D-08  0.00D+00 EMaxC= 1.00D-01 BMatC= 8.62D-13 BMatP= 2.41D-11
 IDIUse=1 WtCom= 1.00D+00 WtEn= 0.00D+00
 Coeff-Com: -0.139D-04 0.304D-04 0.116D-04-0.163D-03-0.973D-03 0.232D-02
 Coeff-Com:  0.994D-02-0.248D-01-0.390D-01-0.120D+00 0.117D+01
 Coeff:     -0.139D-04 0.304D-04 0.116D-04-0.163D-03-0.973D-03 0.232D-02
 Coeff:      0.994D-02-0.248D-01-0.390D-01-0.120D+00 0.117D+01
 Gap=     0.319 Goal=   None    Shift=    0.000
 RMSDP=1.56D-07 MaxDP=1.15D-05 DE=-3.68D-11 OVMax= 9.92D-07

 Cycle  12  Pass 1  IDiag  1:
 RMSU=  1.90D-08    CP:  5.09D-01  1.46D+00  7.69D-01  8.07D-01  1.22D+00
                    CP:  1.17D+00  1.31D+00  1.31D+00  1.52D+00  1.29D+00
                    CP:  1.23D+00
 E= -463.249054954256     Delta-E=       -0.000000000007 Rises=F Damp=F
 DIIS: error= 2.45D-08 at cycle  12 NSaved=  12.
 NSaved=12 IEnMin=12 EnMin= -463.249054954256     IErMin=12 ErrMin= 2.45D-08
 ErrMax= 2.45D-08  0.00D+00 EMaxC= 1.00D-01 BMatC= 8.24D-14 BMatP= 8.62D-13
 IDIUse=1 WtCom= 1.00D+00 WtEn= 0.00D+00
 Coeff-Com: -0.154D-05 0.326D-05 0.248D-05-0.858D-05-0.357D-04 0.637D-05
 Coeff-Com: -0.400D-04 0.381D-02 0.281D-03-0.545D-01-0.137D+00 0.119D+01
 Coeff:     -0.154D-05 0.326D-05 0.248D-05-0.858D-05-0.357D-04 0.637D-05
 Coeff:     -0.400D-04 0.381D-02 0.281D-03-0.545D-01-0.137D+00 0.119D+01
 Gap=     0.319 Goal=   None    Shift=    0.000
 RMSDP=1.16D-08 MaxDP=5.11D-07 DE=-7.28D-12 OVMax= 2.65D-07

 Cycle  13  Pass 1  IDiag  1:
 RMSU=  4.14D-09    CP:  5.09D-01  1.46D+00  7.69D-01  8.07D-01  1.22D+00
                    CP:  1.17D+00  1.31D+00  1.31D+00  1.52D+00  1.30D+00
                    CP:  1.29D+00  1.26D+00
 E= -463.249054954253     Delta-E=        0.000000000003 Rises=F Damp=F
 DIIS: error= 6.00D-09 at cycle  13 NSaved=  13.
 NSaved=13 IEnMin=12 EnMin= -463.249054954256     IErMin=13 ErrMin= 6.00D-09
 ErrMax= 6.00D-09  0.00D+00 EMaxC= 1.00D-01 BMatC= 5.11D-15 BMatP= 8.24D-14
 IDIUse=1 WtCom= 1.00D+00 WtEn= 0.00D+00
 Coeff-Com:  0.488D-06-0.108D-05-0.253D-06 0.693D-05 0.460D-04-0.110D-03
 Coeff-Com: -0.567D-03 0.192D-02 0.329D-02-0.491D-02-0.890D-01 0.205D+00
 Coeff-Com:  0.884D+00
 Coeff:      0.488D-06-0.108D-05-0.253D-06 0.693D-05 0.460D-04-0.110D-03
 Coeff:     -0.567D-03 0.192D-02 0.329D-02-0.491D-02-0.890D-01 0.205D+00
 Coeff:      0.884D+00
 Gap=     0.319 Goal=   None    Shift=    0.000
 RMSDP=5.50D-09 MaxDP=2.44D-07 DE= 2.96D-12 OVMax= 6.10D-08

 SCF Done:  E(RwB97XD) =  -463.249054954     A.U. after   13 cycles
            NFock= 13  Conv=0.55D-08     -V/T= 2.0048
 KE= 4.610199804343D+02 PE=-2.272930095611D+03 EE= 7.493106692659D+02
 Leave Link  502 at Sat Nov  5 21:35:50 2022, MaxMem= 16106127360 cpu:             743.8 elap:              23.3
 (Enter /opt/ap/G16/B01/g16/l601.exe)
 Copying SCF densities to generalized density rwf, IOpCl= 0 IROHF=0.

 **********************************************************************

            Population analysis using the SCF Density.

 **********************************************************************

 Orbital symmetries:
       Occupied  (A) (A) (A) (A) (A) (A) (A) (A) (A) (A) (A) (A)
                 (A) (A) (A) (A) (A) (A) (A) (A) (A) (A) (A) (A)
                 (A) (A) (A) (A) (A) (A) (A) (A) (A) (A) (A) (A)
                 (A) (A) (A) (A) (A)
       Virtual   (A) (A) (A) (A) (A) (A) (A) (A) (A) (A) (A) (A)
                 (A) (A) (A) (A) (A) (A) (A) (A) (A) (A) (A) (A)
                 (A) (A) (A) (A) (A) (A) (A) (A) (A) (A) (A) (A)
                 (A) (A) (A) (A) (A) (A) (A) (A) (A) (A) (A) (A)
                 (A) (A) (A) (A) (A) (A) (A) (A) (A) (A) (A) (A)
                 (A) (A) (A) (A) (A) (A) (A) (A) (A) (A) (A) (A)
                 (A) (A) (A) (A) (A) (A) (A) (A) (A) (A) (A) (A)
                 (A) (A) (A) (A) (A) (A) (A) (A) (A) (A) (A) (A)
                 (A) (A) (A) (A) (A) (A) (A) (A) (A) (A) (A) (A)
                 (A) (A) (A) (A) (A) (A) (A) (A) (A) (A) (A) (A)
                 (A) (A) (A) (A) (A) (A) (A) (A) (A) (A) (A) (A)
                 (A) (A) (A) (A) (A) (A) (A) (A) (A) (A) (A) (A)
                 (A) (A) (A) (A) (A) (A) (A) (A) (A) (A) (A) (A)
                 (A) (A) (A) (A) (A) (A) (A) (A) (A) (A) (A) (A)
                 (A) (A) (A) (A) (A) (A) (A) (A) (A) (A) (A) (A)
                 (A) (A) (A) (A) (A) (A) (A) (A) (A) (A) (A) (A)
                 (A) (A) (A) (A) (A) (A) (A) (A) (A) (A) (A) (A)
                 (A) (A) (A) (A) (A) (A) (A) (A) (A) (A) (A) (A)
                 (A) (A) (A) (A) (A) (A) (A) (A) (A) (A) (A) (A)
                 (A) (A) (A) (A) (A) (A) (A) (A) (A) (A) (A) (A)
                 (A) (A) (A) (A) (A) (A) (A) (A) (A) (A) (A) (A)
                 (A) (A) (A) (A) (A) (A) (A) (A) (A) (A) (A) (A)
                 (A) (A) (A) (A) (A) (A) (A) (A) (A) (A) (A) (A)
                 (A) (A) (A) (A) (A) (A) (A) (A) (A) (A) (A) (A)
                 (A) (A)
 The electronic state is 1-A.
 Alpha  occ. eigenvalues --  -10.30574 -10.30544 -10.29418 -10.29418 -10.29410
 Alpha  occ. eigenvalues --  -10.29410 -10.29311 -10.29310 -10.29308 -10.29308
 Alpha  occ. eigenvalues --  -10.29263 -10.29263  -0.97686  -0.95356  -0.88302
 Alpha  occ. eigenvalues --   -0.85622  -0.84659  -0.82380  -0.72448  -0.72149
 Alpha  occ. eigenvalues --   -0.68647  -0.67533  -0.63067  -0.59148  -0.56748
 Alpha  occ. eigenvalues --   -0.55829  -0.53051  -0.52367  -0.51849  -0.51136
 Alpha  occ. eigenvalues --   -0.50465  -0.47606  -0.45197  -0.45101  -0.44150
 Alpha  occ. eigenvalues --   -0.42464  -0.41688  -0.36575  -0.33702  -0.33374
 Alpha  occ. eigenvalues --   -0.30020
 Alpha virt. eigenvalues --    0.01878   0.03845   0.04234   0.04554   0.04762
 Alpha virt. eigenvalues --    0.05796   0.05895   0.05940   0.07516   0.07940
 Alpha virt. eigenvalues --    0.08136   0.08691   0.09521   0.10209   0.11581
 Alpha virt. eigenvalues --    0.12702   0.13329   0.13436   0.15295   0.15399
 Alpha virt. eigenvalues --    0.15749   0.15987   0.16097   0.16609   0.16981
 Alpha virt. eigenvalues --    0.17464   0.17481   0.17821   0.17965   0.18792
 Alpha virt. eigenvalues --    0.18878   0.19009   0.19490   0.19843   0.20169
 Alpha virt. eigenvalues --    0.20509   0.20518   0.23127   0.23182   0.23490
 Alpha virt. eigenvalues --    0.23504   0.23989   0.24201   0.24294   0.24973
 Alpha virt. eigenvalues --    0.25800   0.25889   0.26855   0.27076   0.27777
 Alpha virt. eigenvalues --    0.28239   0.28694   0.29011   0.30009   0.30378
 Alpha virt. eigenvalues --    0.30641   0.31242   0.31402   0.32083   0.32225
 Alpha virt. eigenvalues --    0.33682   0.33948   0.34446   0.35654   0.35767
 Alpha virt. eigenvalues --    0.35948   0.36310   0.36895   0.37188   0.37675
 Alpha virt. eigenvalues --    0.38798   0.40791   0.41044   0.41902   0.42071
 Alpha virt. eigenvalues --    0.42839   0.43521   0.47388   0.47548   0.48560
 Alpha virt. eigenvalues --    0.56680   0.58144   0.58669   0.60936   0.61197
 Alpha virt. eigenvalues --    0.61656   0.62292   0.62702   0.62925   0.63553
 Alpha virt. eigenvalues --    0.64400   0.64535   0.65478   0.65929   0.66110
 Alpha virt. eigenvalues --    0.67649   0.68650   0.69219   0.69446   0.69501
 Alpha virt. eigenvalues --    0.72496   0.72556   0.74387   0.74934   0.75984
 Alpha virt. eigenvalues --    0.76631   0.77862   0.78437   0.78576   0.79112
 Alpha virt. eigenvalues --    0.80657   0.81144   0.82855   0.83132   0.83458
 Alpha virt. eigenvalues --    0.86478   0.89567   0.89570   0.90652   0.90801
 Alpha virt. eigenvalues --    0.92028   0.93116   0.94123   0.94382   0.94917
 Alpha virt. eigenvalues --    0.95639   0.95747   0.96801   0.99185   0.99653
 Alpha virt. eigenvalues --    1.00431   1.00793   1.00913   1.03089   1.06304
 Alpha virt. eigenvalues --    1.07361   1.08389   1.09181   1.09190   1.10869
 Alpha virt. eigenvalues --    1.13149   1.15663   1.15783   1.17167   1.19552
 Alpha virt. eigenvalues --    1.19742   1.21167   1.23778   1.24273   1.24910
 Alpha virt. eigenvalues --    1.36441   1.38817   1.39389   1.41953   1.55150
 Alpha virt. eigenvalues --    1.56569   1.57276   1.58003   1.58115   1.60217
 Alpha virt. eigenvalues --    1.61149   1.62777   1.63474   1.65256   1.65274
 Alpha virt. eigenvalues --    1.65406   1.66406   1.68208   1.70613   1.71516
 Alpha virt. eigenvalues --    1.74018   1.75168   1.75604   1.77757   1.78298
 Alpha virt. eigenvalues --    1.81485   1.82738   1.84664   1.85364   1.85627
 Alpha virt. eigenvalues --    1.87802   1.89464   1.91711   1.91901   1.94692
 Alpha virt. eigenvalues --    1.98170   1.99248   1.99642   2.00483   2.02877
 Alpha virt. eigenvalues --    2.04056   2.04119   2.04703   2.04874   2.07453
 Alpha virt. eigenvalues --    2.07656   2.09684   2.10010   2.12406   2.13677
 Alpha virt. eigenvalues --    2.13761   2.17174   2.17213   2.17537   2.22412
 Alpha virt. eigenvalues --    2.34142   2.35106   2.35882   2.40835   2.45128
 Alpha virt. eigenvalues --    2.47094   2.50290   2.51654   2.53020   2.55169
 Alpha virt. eigenvalues --    2.55667   2.56425   2.57911   2.59428   2.71103
 Alpha virt. eigenvalues --    2.71928   2.75868   2.76293   2.77591   2.77683
 Alpha virt. eigenvalues --    2.79197   2.80223   2.80561   2.81476   2.82028
 Alpha virt. eigenvalues --    2.82598   2.83625   2.85196   2.85240   2.86445
 Alpha virt. eigenvalues --    2.88481   2.90549   2.90979   2.91823   2.91928
 Alpha virt. eigenvalues --    2.92601   2.95906   2.99533   3.00492   3.03591
 Alpha virt. eigenvalues --    3.03780   3.04022   3.04087   3.08799   3.15903
 Alpha virt. eigenvalues --    3.19503   3.20437   3.29700   3.30302   3.32291
 Alpha virt. eigenvalues --    3.45762   3.46217   3.46787   3.48716   3.59352
 Alpha virt. eigenvalues --    3.61291   3.63536   3.63838   3.67984   3.73079
 Alpha virt. eigenvalues --    3.75607   3.87098   4.08849   4.11144   4.13472
 Alpha virt. eigenvalues --    4.14512   4.24299   4.24397   4.27643   4.28424
 Alpha virt. eigenvalues --    4.61923   4.92188   4.95989  23.68732  23.84799
 Alpha virt. eigenvalues --   24.07361  24.08592  24.09624  24.09719  24.18622
 Alpha virt. eigenvalues --   24.19976  24.22233  24.22556  24.30934  24.31678
          Condensed to atoms (all electrons):
               1          2          3          4          5          6
     1  C   20.135780   1.599664   1.609051  -1.698708   0.040533  -9.368380
     2  C    1.599664  11.875548  -1.690920  -1.255276   0.546976  -4.514974
     3  C    1.609051  -1.690920  11.889546  -0.536290   0.028013  -4.528455
     4  C   -1.698708  -1.255276  -0.536290   6.841776  -0.062026   2.100926
     5  H    0.040533   0.546976   0.028013  -0.062026   0.530287  -0.162267
     6  C   -9.368380  -4.514974  -4.528455   2.100926  -0.162267  20.134636
     7  C   -1.699367  -0.535860  -1.261775   0.408712  -0.014908   2.104646
     8  H    0.040807   0.027984   0.547308  -0.014855   0.003363  -0.162506
     9  C    0.754032   0.718172   0.720949  -0.335475   0.031837  -1.785984
    10  H    0.016124  -0.117508  -0.013726   0.444536  -0.014949   0.054851
    11  C   -4.515383   2.824638  -3.194667   0.232539   0.011669   1.598782
    12  C   -4.530177  -3.193915   2.819780   0.271347  -0.079382   1.609959
    13  H    0.016183  -0.013682  -0.117746   0.025682  -0.000635   0.054878
    14  H    0.042083  -0.001534  -0.001527  -0.050069   0.000592  -0.036653
    15  C    2.101149   0.233660   0.270224  -0.052942   0.003387  -1.697985
    16  H   -0.162289   0.011580  -0.079319   0.003379  -0.000127   0.040518
    17  C    2.105929   0.270986   0.234224  -0.129746   0.021055  -1.700380
    18  H   -0.162630  -0.079356   0.011419   0.021040  -0.004914   0.040894
    19  C   -1.786916  -0.087601  -0.087631   0.065740  -0.014190   0.753958
    20  H    0.054864  -0.001798   0.007447  -0.000411   0.000640   0.016110
    21  H    0.054930   0.007479  -0.001829  -0.000896   0.000497   0.016169
    22  H   -0.036668  -0.002864  -0.002846   0.001418  -0.000440   0.042085
               7          8          9         10         11         12
     1  C   -1.699367   0.040807   0.754032   0.016124  -4.515383  -4.530177
     2  C   -0.535860   0.027984   0.718172  -0.117508   2.824638  -3.193915
     3  C   -1.261775   0.547308   0.720949  -0.013726  -3.194667   2.819780
     4  C    0.408712  -0.014855  -0.335475   0.444536   0.232539   0.271347
     5  H   -0.014908   0.003363   0.031837  -0.014949   0.011669  -0.079382
     6  C    2.104646  -0.162506  -1.785984   0.054851   1.598782   1.609959
     7  C    6.844629  -0.062228  -0.336327   0.025700   0.270370   0.234710
     8  H   -0.062228   0.530369   0.031847  -0.000635  -0.079294   0.011326
     9  C   -0.336327   0.031847   6.533567  -0.094006  -0.087203  -0.088108
    10  H    0.025700  -0.000635  -0.094006   0.482346  -0.001838   0.007474
    11  C    0.270370  -0.079294  -0.087203  -0.001838  11.876546  -1.690747
    12  C    0.234710   0.011326  -0.088108   0.007474  -1.690747  11.891514
    13  H    0.444639  -0.014961  -0.094006   0.001314   0.007459  -0.001798
    14  H   -0.050059   0.000591   0.445916  -0.010038  -0.002847  -0.002865
    15  C   -0.129779   0.021018   0.065790  -0.000420  -1.253139  -0.539307
    16  H    0.021041  -0.004911  -0.014180   0.000638   0.546859   0.028105
    17  C   -0.053542   0.003487   0.065920  -0.000896  -0.535075  -1.263966
    18  H    0.003486  -0.000149  -0.014210   0.000497   0.027940   0.547505
    19  C    0.066013  -0.014198  -0.022032  -0.000337   0.717669   0.723048
    20  H   -0.000899   0.000497  -0.000336   0.000149  -0.117461  -0.013816
    21  H   -0.000431   0.000639  -0.000335   0.000022  -0.013661  -0.117840
    22  H    0.001425  -0.000440  -0.000600   0.000006  -0.001604  -0.001422
              13         14         15         16         17         18
     1  C    0.016183   0.042083   2.101149  -0.162289   2.105929  -0.162630
     2  C   -0.013682  -0.001534   0.233660   0.011580   0.270986  -0.079356
     3  C   -0.117746  -0.001527   0.270224  -0.079319   0.234224   0.011419
     4  C    0.025682  -0.050069  -0.052942   0.003379  -0.129746   0.021040
     5  H   -0.000635   0.000592   0.003387  -0.000127   0.021055  -0.004914
     6  C    0.054878  -0.036653  -1.697985   0.040518  -1.700380   0.040894
     7  C    0.444639  -0.050059  -0.129779   0.021041  -0.053542   0.003486
     8  H   -0.014961   0.000591   0.021018  -0.004911   0.003487  -0.000149
     9  C   -0.094006   0.445916   0.065790  -0.014180   0.065920  -0.014210
    10  H    0.001314  -0.010038  -0.000420   0.000638  -0.000896   0.000497
    11  C    0.007459  -0.002847  -1.253139   0.546859  -0.535075   0.027940
    12  C   -0.001798  -0.002865  -0.539307   0.028105  -1.263966   0.547505
    13  H    0.482351  -0.010036  -0.000895   0.000497  -0.000421   0.000641
    14  H   -0.010036   0.477165   0.001419  -0.000440   0.001423  -0.000441
    15  C   -0.000895   0.001419   6.840775  -0.061914   0.409487  -0.014920
    16  H    0.000497  -0.000440  -0.061914   0.530291  -0.014909   0.003364
    17  C   -0.000421   0.001423   0.409487  -0.014909   6.845988  -0.062366
    18  H    0.000641  -0.000441  -0.014920   0.003364  -0.062366   0.530369
    19  C   -0.000336  -0.000600  -0.335535   0.031847  -0.337613   0.031892
    20  H    0.000022   0.000006   0.444522  -0.014951   0.025734  -0.000636
    21  H    0.000149   0.000006   0.025717  -0.000635   0.444718  -0.014958
    22  H    0.000006  -0.000011  -0.050015   0.000590  -0.050133   0.000593
              19         20         21         22
     1  C   -1.786916   0.054864   0.054930  -0.036668
     2  C   -0.087601  -0.001798   0.007479  -0.002864
     3  C   -0.087631   0.007447  -0.001829  -0.002846
     4  C    0.065740  -0.000411  -0.000896   0.001418
     5  H   -0.014190   0.000640   0.000497  -0.000440
     6  C    0.753958   0.016110   0.016169   0.042085
     7  C    0.066013  -0.000899  -0.000431   0.001425
     8  H   -0.014198   0.000497   0.000639  -0.000440
     9  C   -0.022032  -0.000336  -0.000335  -0.000600
    10  H   -0.000337   0.000149   0.000022   0.000006
    11  C    0.717669  -0.117461  -0.013661  -0.001604
    12  C    0.723048  -0.013816  -0.117840  -0.001422
    13  H   -0.000336   0.000022   0.000149   0.000006
    14  H   -0.000600   0.000006   0.000006  -0.000011
    15  C   -0.335535   0.444522   0.025717  -0.050015
    16  H    0.031847  -0.014951  -0.000635   0.000590
    17  C   -0.337613   0.025734   0.444718  -0.050133
    18  H    0.031892  -0.000636  -0.014958   0.000593
    19  C    6.534371  -0.094001  -0.094073   0.445915
    20  H   -0.094001   0.482343   0.001315  -0.010035
    21  H   -0.094073   0.001315   0.482353  -0.010040
    22  H    0.445915  -0.010035  -0.010040   0.477162
 Mulliken charges:
               1
     1  C    1.389390
     2  C   -0.621400
     3  C   -0.621231
     4  C   -0.280400
     5  H    0.134989
     6  C    1.389175
     7  C   -0.280195
     8  H    0.134942
     9  C   -0.495227
    10  H    0.220696
    11  C   -0.621552
    12  C   -0.621427
    13  H    0.220695
    14  H    0.197919
    15  C   -0.280300
    16  H    0.134965
    17  C   -0.279904
    18  H    0.134939
    19  C   -0.495393
    20  H    0.220695
    21  H    0.220704
    22  H    0.197919
 Sum of Mulliken charges =  -0.00000
 Mulliken charges with hydrogens summed into heavy atoms:
               1
     1  C    1.389390
     2  C   -0.486411
     3  C   -0.486289
     4  C   -0.059704
     6  C    1.389175
     7  C   -0.059500
     9  C   -0.297308
    11  C   -0.486587
    12  C   -0.486487
    15  C   -0.059605
    17  C   -0.059200
    19  C   -0.297473
 Electronic spatial extent (au):  <R**2>=           2311.9321
 Charge=             -0.0000 electrons
 Dipole moment (field-independent basis, Debye):
    X=              0.0000    Y=             -0.0001    Z=              0.0004  Tot=              0.0004
 Quadrupole moment (field-independent basis, Debye-Ang):
   XX=            -61.4990   YY=            -62.1131   ZZ=            -77.0274
   XY=             -0.0002   XZ=              0.0009   YZ=              0.0001
 Traceless Quadrupole moment (field-independent basis, Debye-Ang):
   XX=              5.3809   YY=              4.7667   ZZ=            -10.1476
   XY=             -0.0002   XZ=              0.0009   YZ=              0.0001
 Octapole moment (field-independent basis, Debye-Ang**2):
  XXX=              0.0001  YYY=              0.0013  ZZZ=              0.0010  XYY=             -0.0002
  XXY=             -0.0013  XXZ=              0.0019  XZZ=              0.0003  YZZ=             -0.0002
  YYZ=              0.0029  XYZ=              8.4419
 Hexadecapole moment (field-independent basis, Debye-Ang**3):
 XXXX=          -2298.7111 YYYY=           -522.3551 ZZZZ=           -119.9525 XXXY=             -0.0022
 XXXZ=              0.0225 YYYX=             -0.0051 YYYZ=              0.0004 ZZZX=              0.0009
 ZZZY=              0.0001 XXYY=           -474.0021 XXZZ=           -501.8119 YYZZ=           -120.9557
 XXYZ=              0.0021 YYXZ=              0.0004 ZZXY=              0.0029
 N-N= 5.993503909565D+02 E-N=-2.272930095347D+03  KE= 4.610199804343D+02
 No NMR shielding tensors so no spin-rotation constants.
 Leave Link  601 at Sat Nov  5 21:35:50 2022, MaxMem= 16106127360 cpu:               4.1 elap:               0.2
 (Enter /opt/ap/G16/B01/g16/l9999.exe)
 1\1\GINC-N08\SP\RwB97XD\6-311++G(d,p)\C12H10\ROOT\05-Nov-2022\0\\#P wB
 97XD/6-311++G(d,p) scf=maxcycle=512\\_conf023.gjf nmol_natom 1_22\\0,1
 \C\C,1,1.40491871\C,1,1.40495292,2,118.20503621\C,2,1.3939373,1,120.91
 08946,3,0.05365643,0\H,2,1.08593095,1,119.3452094,3,-178.3624307,0\C,1
 ,1.48449301,2,120.90144423,4,-179.96388019,0\C,3,1.39389842,1,120.9105
 0598,2,0.03587687,0\H,3,1.08593608,1,119.34159615,2,-178.38281524,0\C,
 4,1.39606958,2,120.24555868,1,-0.09283196,0\H,4,1.08627898,2,119.66792
 041,1,-179.51486187,0\C,6,1.40492034,1,120.90156908,2,25.,0\C,6,1.4049
 5329,1,120.89324856,2,-155.,0\H,7,1.08627928,3,119.67027175,1,-179.512
 58183,0\H,9,1.08597601,4,120.2602535,2,-179.95233103,0\C,11,1.39393437
 ,6,120.91099656,1,-179.95869964,0\H,11,1.08593173,6,119.34475907,1,1.6
 1891886,0\C,12,1.39390147,6,120.91022615,1,-179.94297913,0\H,12,1.0859
 3608,6,119.34175044,1,1.63241608,0\C,15,1.39607161,11,120.24535737,6,-
 0.10315482,0\H,15,1.08627786,11,119.66861247,6,-179.51844254,0\H,17,1.
 08627825,12,119.6702798,6,-179.51590091,0\H,19,1.08597601,15,120.25988
 597,11,-179.94731581,0\\Version=ES64L-G16RevB.01\State=1-A\HF=-463.249
 055\RMSD=5.498e-09\Dipole=0.0000012,-0.0001482,0.0000135\Quadrupole=3.
 7436123,-7.0255135,3.2819012,-1.2018147,0.4297088,2.0101887\PG=C01 [X(
 C12H10)]\\@


 I do not feel obliged to believe that the same God who
 has endowed us with sense, reason, and intellect has
 intended us to forgo their use.
                   --Galileo Galilei
 Job cpu time:       0 days  0 hours 13 minutes 28.4 seconds.
 Elapsed time:       0 days  0 hours  0 minutes 25.4 seconds.
 File lengths (MBytes):  RWF=     62 Int=      0 D2E=      0 Chk=      8 Scr=      1
 Normal termination of Gaussian 16 at Sat Nov  5 21:35:51 2022.
