 Entering Gaussian System, Link 0=g16
 Input=_conf013.gjf
 Output=_conf013.log
 Initial command:
 /opt/ap/G16/B01/g16/l1.exe "/tmp2/scr/Gau-23951.inp" -scrdir="/tmp2/scr/"
 Entering Link 1 = /opt/ap/G16/B01/g16/l1.exe PID=     23952.
  
 Copyright (c) 1988-2017, Gaussian, Inc.  All Rights Reserved.
  
 This is part of the Gaussian(R) 16 program.  It is based on
 the Gaussian(R) 09 system (copyright 2009, Gaussian, Inc.),
 the Gaussian(R) 03 system (copyright 2003, Gaussian, Inc.),
 the Gaussian(R) 98 system (copyright 1998, Gaussian, Inc.),
 the Gaussian(R) 94 system (copyright 1995, Gaussian, Inc.),
 the Gaussian 92(TM) system (copyright 1992, Gaussian, Inc.),
 the Gaussian 90(TM) system (copyright 1990, Gaussian, Inc.),
 the Gaussian 88(TM) system (copyright 1988, Gaussian, Inc.),
 the Gaussian 86(TM) system (copyright 1986, Carnegie Mellon
 University), and the Gaussian 82(TM) system (copyright 1983,
 Carnegie Mellon University). Gaussian is a federally registered
 trademark of Gaussian, Inc.
  
 This software contains proprietary and confidential information,
 including trade secrets, belonging to Gaussian, Inc.
  
 This software is provided under written license and may be
 used, copied, transmitted, or stored only in accord with that
 written license.
  
 The following legend is applicable only to US Government
 contracts under FAR:
  
                    RESTRICTED RIGHTS LEGEND
  
 Use, reproduction and disclosure by the US Government is
 subject to restrictions as set forth in subparagraphs (a)
 and (c) of the Commercial Computer Software - Restricted
 Rights clause in FAR 52.227-19.
  
 Gaussian, Inc.
 340 Quinnipiac St., Bldg. 40, Wallingford CT 06492
  
  
 ---------------------------------------------------------------
 Warning -- This program may not be used in any manner that
 competes with the business of Gaussian, Inc. or will provide
 assistance to any competitor of Gaussian, Inc.  The licensee
 of this program is prohibited from giving any competitor of
 Gaussian, Inc. access to this program.  By using this program,
 the user acknowledges that Gaussian, Inc. is engaged in the
 business of creating and licensing software in the field of
 computational chemistry and represents and warrants to the
 licensee that it is not a competitor of Gaussian, Inc. and that
 it will not use this program in any manner prohibited above.
 ---------------------------------------------------------------
  

 Cite this work as:
 Gaussian 16, Revision B.01,
 M. J. Frisch, G. W. Trucks, H. B. Schlegel, G. E. Scuseria, 
 M. A. Robb, J. R. Cheeseman, G. Scalmani, V. Barone, 
 G. A. Petersson, H. Nakatsuji, X. Li, M. Caricato, A. V. Marenich, 
 J. Bloino, B. G. Janesko, R. Gomperts, B. Mennucci, H. P. Hratchian, 
 J. V. Ortiz, A. F. Izmaylov, J. L. Sonnenberg, D. Williams-Young, 
 F. Ding, F. Lipparini, F. Egidi, J. Goings, B. Peng, A. Petrone, 
 T. Henderson, D. Ranasinghe, V. G. Zakrzewski, J. Gao, N. Rega, 
 G. Zheng, W. Liang, M. Hada, M. Ehara, K. Toyota, R. Fukuda, 
 J. Hasegawa, M. Ishida, T. Nakajima, Y. Honda, O. Kitao, H. Nakai, 
 T. Vreven, K. Throssell, J. A. Montgomery, Jr., J. E. Peralta, 
 F. Ogliaro, M. J. Bearpark, J. J. Heyd, E. N. Brothers, K. N. Kudin, 
 V. N. Staroverov, T. A. Keith, R. Kobayashi, J. Normand, 
 K. Raghavachari, A. P. Rendell, J. C. Burant, S. S. Iyengar, 
 J. Tomasi, M. Cossi, J. M. Millam, M. Klene, C. Adamo, R. Cammi, 
 J. W. Ochterski, R. L. Martin, K. Morokuma, O. Farkas, 
 J. B. Foresman, and D. J. Fox, Gaussian, Inc., Wallingford CT, 2016.
 
 ******************************************
 Gaussian 16:  ES64L-G16RevB.01 20-Dec-2017
                 5-Nov-2022 
 ******************************************
 %nprocshared=32
 Will use up to   32 processors via shared memory.
 %mem=120GB
 %chk=_conf013.chk
 ----------------------------------------
 #P wB97XD/6-311++G(d,p) scf=maxcycle=512
 ----------------------------------------
 1/38=1,172=1/1;
 2/12=2,17=6,18=5,40=1/2;
 3/5=4,6=6,7=1111,11=2,25=1,30=1,74=-58/1,2,3;
 4//1;
 5/5=2,7=512,38=5/2;
 6/7=2,8=2,9=2,10=2,28=1/1;
 99/5=1,9=1/99;
 Leave Link    1 at Sat Nov  5 21:34:34 2022, MaxMem= 16106127360 cpu:               1.5 elap:               0.1
 (Enter /opt/ap/G16/B01/g16/l101.exe)
 ----------------------------
 _conf013.gjf nmol_natom 1_22
 ----------------------------
 Symbolic Z-matrix:
 Charge =  0 Multiplicity = 1
 C
 C                    1     1.40492 
 C                    1     1.40495  2     118.20504 
 C                    2     1.39394  1     120.91089  3     0.05366  0
 H                    2     1.08593  1     119.34521  3    -178.36243  0
 C                    1     1.48449  2     120.90144  4    -179.96388  0
 C                    3     1.3939   1     120.91051  2     0.03588  0
 H                    3     1.08594  1     119.3416  2    -178.38282  0
 C                    4     1.39607  2     120.24556  1    -0.09283  0
 H                    4     1.08628  2     119.66792  1    -179.51486  0
 C                    6     1.40492  1     120.90157  2    -25.      0
 C                    6     1.40495  1     120.89325  2     155.     0
 H                    7     1.08628  3     119.67027  1    -179.51258  0
 H                    9     1.08598  4     120.26025  2    -179.95233  0
 C                    11    1.39393  6     120.911  1    -179.9587  0
 H                    11    1.08593  6     119.34476  1     1.61892  0
 C                    12    1.3939   6     120.91023  1    -179.94298  0
 H                    12    1.08594  6     119.34175  1     1.63242  0
 C                    15    1.39607  11    120.24536  6    -0.10315  0
 H                    15    1.08628  11    119.66861  6    -179.51844  0
 H                    17    1.08628  12    119.67028  6    -179.5159  0
 H                    19    1.08598  15    120.25989  11   -179.94732  0
 
 ITRead=  0  0  0  0  0  0  0  0  0  0  0  0  0  0  0  0  0  0  0  0
 ITRead=  0  0
 MicOpt= -1 -1 -1 -1 -1 -1 -1 -1 -1 -1 -1 -1 -1 -1 -1 -1 -1 -1 -1 -1
 MicOpt= -1 -1
 NAtoms=     22 NQM=       22 NQMF=       0 NMMI=      0 NMMIF=      0
                NMic=       0 NMicF=      0.
                    Isotopes and Nuclear Properties:
 (Nuclear quadrupole moments (NQMom) in fm**2, nuclear magnetic moments (NMagM)
  in nuclear magnetons)

  Atom         1           2           3           4           5           6           7           8           9          10
 IAtWgt=          12          12          12          12           1          12          12           1          12           1
 AtmWgt=  12.0000000  12.0000000  12.0000000  12.0000000   1.0078250  12.0000000  12.0000000   1.0078250  12.0000000   1.0078250
 NucSpn=           0           0           0           0           1           0           0           1           0           1
 AtZEff=  -0.0000000  -0.0000000  -0.0000000  -0.0000000  -0.0000000  -0.0000000  -0.0000000  -0.0000000  -0.0000000  -0.0000000
 NQMom=    0.0000000   0.0000000   0.0000000   0.0000000   0.0000000   0.0000000   0.0000000   0.0000000   0.0000000   0.0000000
 NMagM=    0.0000000   0.0000000   0.0000000   0.0000000   2.7928460   0.0000000   0.0000000   2.7928460   0.0000000   2.7928460
 AtZNuc=   6.0000000   6.0000000   6.0000000   6.0000000   1.0000000   6.0000000   6.0000000   1.0000000   6.0000000   1.0000000

  Atom        11          12          13          14          15          16          17          18          19          20
 IAtWgt=          12          12           1           1          12           1          12           1          12           1
 AtmWgt=  12.0000000  12.0000000   1.0078250   1.0078250  12.0000000   1.0078250  12.0000000   1.0078250  12.0000000   1.0078250
 NucSpn=           0           0           1           1           0           1           0           1           0           1
 AtZEff=  -0.0000000  -0.0000000  -0.0000000  -0.0000000  -0.0000000  -0.0000000  -0.0000000  -0.0000000  -0.0000000  -0.0000000
 NQMom=    0.0000000   0.0000000   0.0000000   0.0000000   0.0000000   0.0000000   0.0000000   0.0000000   0.0000000   0.0000000
 NMagM=    0.0000000   0.0000000   2.7928460   2.7928460   0.0000000   2.7928460   0.0000000   2.7928460   0.0000000   2.7928460
 AtZNuc=   6.0000000   6.0000000   1.0000000   1.0000000   6.0000000   1.0000000   6.0000000   1.0000000   6.0000000   1.0000000

  Atom        21          22
 IAtWgt=           1           1
 AtmWgt=   1.0078250   1.0078250
 NucSpn=           1           1
 AtZEff=  -0.0000000  -0.0000000
 NQMom=    0.0000000   0.0000000
 NMagM=    2.7928460   2.7928460
 AtZNuc=   1.0000000   1.0000000
 Leave Link  101 at Sat Nov  5 21:34:34 2022, MaxMem= 16106127360 cpu:               5.5 elap:               0.2
 (Enter /opt/ap/G16/B01/g16/l202.exe)
                          Input orientation:                          
 ---------------------------------------------------------------------
 Center     Atomic      Atomic             Coordinates (Angstroms)
 Number     Number       Type             X           Y           Z
 ---------------------------------------------------------------------
      1          6           0        0.000000    0.000000    0.000000
      2          6           0        0.000000    0.000000    1.404919
      3          6           0        1.238131    0.000000   -0.664020
      4          6           0        1.195952    0.001120    2.120990
      5          1           0       -0.946201   -0.027051    1.937101
      6          6           0       -1.273772   -0.000390   -0.762381
      7          6           0        2.434381   -0.000749    0.051479
      8          1           0        1.259850    0.026715   -1.749411
      9          6           0        2.418826    0.000311    1.447501
     10          1           0        1.172413   -0.006894    3.206985
     11          6           0       -2.453808   -0.510214   -0.195462
     12          6           0       -1.331738    0.509112   -2.070410
     13          1           0        3.380326    0.007295   -0.482493
     14          1           0        3.350700    0.000403    2.005133
     15          6           0       -3.649795   -0.511459   -0.911469
     16          1           0       -2.436075   -0.884322    0.823840
     17          6           0       -2.527844    0.509999   -2.786156
     18          1           0       -0.425032    0.883255   -2.536414
     19          6           0       -3.692501   -0.000661   -2.210037
     20          1           0       -4.551981   -0.903449   -0.450597
     21          1           0       -2.548012    0.901686   -3.799159
     22          1           0       -4.624322   -0.000732   -2.767759
 ---------------------------------------------------------------------
                    Distance matrix (angstroms):
                    1          2          3          4          5
     1  C    0.000000
     2  C    1.404919   0.000000
     3  C    1.404953   2.411116   0.000000
     4  C    2.434934   1.393937   2.785330   0.000000
     5  H    2.156012   1.085931   3.396745   2.150216   0.000000
     6  C    1.484493   2.513898   2.513829   3.796494   2.719415
     7  C    2.434925   2.785320   1.393898   2.411760   3.870994
     8  H    2.156008   3.396723   1.085936   3.871013   4.296501
     9  C    2.818861   2.419201   2.419207   1.396070   3.400568
    10  H    3.414579   2.149893   3.871569   1.086279   2.470128
    11  C    2.513901   2.973670   3.756365   4.352949   2.655966
    12  C    2.513826   3.756412   2.973442   4.920885   4.061559
    13  H    3.414594   3.871560   2.149884   3.398478   4.957262
    14  H    3.904837   3.404035   3.404016   2.157861   4.297527
    15  C    3.796494   4.352958   4.920838   5.739322   3.957073
    16  H    2.719411   2.655962   4.061471   3.957047   2.047923
    17  C    3.796414   4.920894   4.352715   6.181076   5.009908
    18  H    2.719225   4.061391   2.655581   5.009707   4.594846
    19  C    4.303351   5.167443   5.167331   6.531062   4.974095
    20  H    4.662595   4.997968   5.864058   6.361607   4.412576
    21  H    4.662511   5.864113   4.997701   7.062326   6.027689
    22  H    5.389327   6.228611   6.228489   7.601017   5.972016
                    6          7          8          9         10
     6  C    0.000000
     7  C    3.796415   0.000000
     8  H    2.719228   2.150228   0.000000
     9  C    4.303354   1.396108   3.400612   0.000000
    10  H    4.662588   3.398502   4.957280   2.156243   0.000000
    11  C    1.404920   4.920866   4.061317   5.167448   4.997945
    12  C    1.404953   4.352703   2.655574   5.167331   5.864122
    13  H    4.662512   1.086279   2.470197   2.156248   4.299689
    14  H    5.389330   2.157871   4.297551   1.085976   2.487858
    15  C    2.434934   6.181043   5.009629   6.531065   6.361599
    16  H    2.156010   5.009848   4.594721   4.974092   4.412532
    17  C    2.434925   5.739051   3.956643   6.530939   7.062352
    18  H    2.156010   3.956627   2.047404   4.973801   6.027506
    19  C    2.818858   6.530937   4.973802   7.122212   7.280903
    20  H    3.414583   7.062308   6.027396   7.280914   6.852036
    21  H    3.414594   6.361293   4.412126   7.280755   7.984556
    22  H    3.904834   7.600881   5.971706   8.208188   8.324646
                   11         12         13         14         15
    11  C    0.000000
    12  C    2.411119   0.000000
    13  H    5.864070   4.997684   0.000000
    14  H    6.228617   6.228488   2.487812   0.000000
    15  C    1.393934   2.785336   7.062274   7.601020   0.000000
    16  H    1.085932   3.396748   6.027603   5.972014   2.150219
    17  C    2.785320   1.393901   6.361292   7.600883   2.411763
    18  H    3.396725   1.085936   4.412102   5.971703   3.871016
    19  C    2.419198   2.419208   7.280752   8.208188   1.396072
    20  H    2.149897   3.871575   7.984482   8.324658   1.086278
    21  H    3.871558   2.149886   6.851671   8.324478   3.398478
    22  H    3.404029   3.404019   8.324475   9.294164   2.157859
                   16         17         18         19         20
    16  H    0.000000
    17  C    3.870997   0.000000
    18  H    4.296501   2.150234   0.000000
    19  C    3.400569   1.396107   3.400615   0.000000
    20  H    2.470145   3.398500   4.957282   2.156238   0.000000
    21  H    4.957264   1.086278   2.470204   2.156245   4.299683
    22  H    4.297527   2.157871   4.297556   1.085976   2.487844
                   21         22
    21  H    0.000000
    22  H    2.487812   0.000000
 Stoichiometry    C12H10
 Framework group  C1[X(C12H10)]
 Deg. of freedom    60
 Full point group                 C1      NOp   1
 Largest Abelian subgroup         C1      NOp   1
 Largest concise Abelian subgroup C1      NOp   1
                         Standard orientation:                         
 ---------------------------------------------------------------------
 Center     Atomic      Atomic             Coordinates (Angstroms)
 Number     Number       Type             X           Y           Z
 ---------------------------------------------------------------------
      1          6           0       -0.742246   -0.000058   -0.000153
      2          6           0       -1.463741   -1.176986   -0.261077
      3          6           0       -1.463630    1.176925    0.261015
      4          6           0       -2.857678   -1.177037   -0.262013
      5          1           0       -0.925142   -2.103028   -0.438849
      6          6           0        0.742247   -0.000069    0.000007
      7          6           0       -2.857528    1.177098    0.262043
      8          1           0       -0.924868    2.102851    0.438933
      9          6           0       -3.561107    0.000055    0.000004
     10          1           0       -3.395190   -2.100332   -0.458503
     11          6           0        1.463728   -1.176977    0.261071
     12          6           0        1.463644    1.176958   -0.260930
     13          1           0       -3.394985    2.100396    0.458674
     14          1           0       -4.647083    0.000117    0.000097
     15          6           0        2.857662   -1.177026    0.262112
     16          1           0        0.925108   -2.102984    0.438969
     17          6           0        2.857545    1.177093   -0.262031
     18          1           0        0.924893    2.102918   -0.438703
     19          6           0        3.561105    0.000006   -0.000149
     20          1           0        3.395172   -2.100286    0.458765
     21          1           0        3.395016    2.100409   -0.458533
     22          1           0        4.647081    0.000049   -0.000240
 ---------------------------------------------------------------------
 Rotational constants (GHZ):           2.8585222           0.5529244           0.4703710
 Leave Link  202 at Sat Nov  5 21:34:34 2022, MaxMem= 16106127360 cpu:               0.2 elap:               0.0
 (Enter /opt/ap/G16/B01/g16/l301.exe)
 Standard basis: 6-311++G(d,p) (5D, 7F)
 Ernie: Thresh=  0.10000D-02 Tol=  0.10000D-05 Strict=F.
 There are   346 symmetry adapted cartesian basis functions of A   symmetry.
 There are   334 symmetry adapted basis functions of A   symmetry.
   334 basis functions,   522 primitive gaussians,   346 cartesian basis functions
    41 alpha electrons       41 beta electrons
       nuclear repulsion energy       599.3892412057 Hartrees.
 IExCor= 4639 DFT=T Ex+Corr=wB97XD ExCW=0 ScaHFX=  1.000000
 ScaDFX=  1.000000  1.000000  1.000000  1.000000 ScalE2=  1.000000  1.000000
 IRadAn=      5 IRanWt=     -1 IRanGd=            0 ICorTp=0 IEmpDi=121
 HFx  wShort=  0.000000 wLong=  0.200000 cFull=  0.222036 cShort=  0.000000 cLong=  0.777964
 DFx  wShort=  0.000000 wLong=  0.200000 cFull=  0.000000 cShort=  0.000000 cLong=  1.000000
 NAtoms=   22 NActive=   22 NUniq=   22 SFac= 1.00D+00 NAtFMM=   60 NAOKFM=F Big=F
 Integral buffers will be    131072 words long.
 Raffenetti 2 integral format.
 Two-electron integral symmetry is turned on.
 R6Disp:  Grimme-D2 Dispersion energy=       -0.0119410321 Hartrees.
 Nuclear repulsion after empirical dispersion term =      599.3773001736 Hartrees.
 Leave Link  301 at Sat Nov  5 21:34:34 2022, MaxMem= 16106127360 cpu:               1.1 elap:               0.0
 (Enter /opt/ap/G16/B01/g16/l302.exe)
 NPDir=0 NMtPBC=     1 NCelOv=     1 NCel=       1 NClECP=     1 NCelD=      1
         NCelK=      1 NCelE2=     1 NClLst=     1 CellRange=     0.0.
 One-electron integrals computed using PRISM.
 One-electron integral symmetry used in STVInt
 NBasis=   334 RedAO= T EigKep=  1.55D-06  NBF=   334
 NBsUse=   331 1.00D-06 EigRej=  8.49D-07 NBFU=   331
 Precomputing XC quadrature grid using
 IXCGrd= 4 IRadAn=           5 IRanWt=          -1 IRanGd=           0 AccXCQ= 0.00D+00.
 Generated NRdTot=       0 NPtTot=           0 NUsed=           0 NTot=          32
 NSgBfM=   346   346   346   346   346 MxSgAt=    22 MxSgA2=    22.
 Leave Link  302 at Sat Nov  5 21:34:34 2022, MaxMem= 16106127360 cpu:               7.8 elap:               0.2
 (Enter /opt/ap/G16/B01/g16/l303.exe)
 DipDrv:  MaxL=1.
 Leave Link  303 at Sat Nov  5 21:34:34 2022, MaxMem= 16106127360 cpu:               1.7 elap:               0.1
 (Enter /opt/ap/G16/B01/g16/l401.exe)
 ExpMin= 3.60D-02 ExpMax= 4.56D+03 ExpMxC= 6.82D+02 IAcc=3 IRadAn=         5 AccDes= 0.00D+00
 Harris functional with IExCor= 4639 and IRadAn=       5 diagonalized for initial guess.
 HarFok:  IExCor= 4639 AccDes= 0.00D+00 IRadAn=         5 IDoV= 1 UseB2=F ITyADJ=14
 ICtDFT=  3500011 ScaDFX=  1.000000  1.000000  1.000000  1.000000
 FoFCou: FMM=F IPFlag=           0 FMFlag=      100000 FMFlg1=           0
         NFxFlg=           0 DoJE=T BraDBF=F KetDBF=T FulRan=T
         wScrn=  0.000000 ICntrl=       500 IOpCl=  0 I1Cent=   200000004 NGrid=           0
         NMat0=    1 NMatS0=      1 NMatT0=    0 NMatD0=    1 NMtDS0=    0 NMtDT0=    0
 Petite list used in FoFCou.
 Harris En= -441.936127141629    
 JPrj=0 DoOrth=F DoCkMO=F.
 Leave Link  401 at Sat Nov  5 21:34:35 2022, MaxMem= 16106127360 cpu:              19.6 elap:               0.6
 (Enter /opt/ap/G16/B01/g16/l502.exe)
 Integral symmetry usage will be decided dynamically.
 Closed shell SCF:
 Using DIIS extrapolation, IDIIS=  1040.
 NGot= 16106127360 LenX= 16105873520 LenY= 16105753363
 Requested convergence on RMS density matrix=1.00D-08 within 512 cycles.
 Requested convergence on MAX density matrix=1.00D-06.
 Requested convergence on             energy=1.00D-06.
 No special actions if energy rises.
 Fock matrices will be formed incrementally for  20 cycles.

 Cycle   1  Pass 1  IDiag  1:
 FoFJK:  IHMeth= 1 ICntrl=       0 DoSepK=T KAlg= 0 I1Cent=           0 FoldK=F
 IRaf=         1 NMat=       1 IRICut=       1 DoRegI=T DoRafI=F ISym2E= 0 IDoP0=0 IntGTp=1.
 FoFCou: FMM=F IPFlag=           0 FMFlag=      100000 FMFlg1=           0
         NFxFlg=           0 DoJE=T BraDBF=F KetDBF=F FulRan=T
         wScrn=  0.000000 ICntrl=       500 IOpCl=  0 I1Cent=           0 NGrid=           0
         NMat0=    1 NMatS0=      1 NMatT0=    0 NMatD0=    1 NMtDS0=    0 NMtDT0=    0
 Symmetry not used in FoFCou.
 E= -463.150525762596    
 DIIS: error= 6.79D-02 at cycle   1 NSaved=   1.
 NSaved= 1 IEnMin= 1 EnMin= -463.150525762596     IErMin= 1 ErrMin= 6.79D-02
 ErrMax= 6.79D-02  0.00D+00 EMaxC= 1.00D-01 BMatC= 9.52D-01 BMatP= 9.52D-01
 IDIUse=3 WtCom= 3.21D-01 WtEn= 6.79D-01
 Coeff-Com:  0.100D+01
 Coeff-En:   0.100D+01
 Coeff:      0.100D+01
 Gap=     0.314 Goal=   None    Shift=    0.000
 GapD=    0.314 DampG=1.000 DampE=0.500 DampFc=0.5000 IDamp=-1.
 Damping current iteration by 5.00D-01
 RMSDP=6.53D-02 MaxDP=4.67D+00              OVMax= 4.56D-02

 Cycle   2  Pass 1  IDiag  1:
 RMSU=  6.30D-03    CP:  7.79D-01
 E= -463.199843276604     Delta-E=       -0.049317514008 Rises=F Damp=T
 DIIS: error= 3.25D-02 at cycle   2 NSaved=   2.
 NSaved= 2 IEnMin= 2 EnMin= -463.199843276604     IErMin= 2 ErrMin= 3.25D-02
 ErrMax= 3.25D-02  0.00D+00 EMaxC= 1.00D-01 BMatC= 2.16D-01 BMatP= 9.52D-01
 IDIUse=3 WtCom= 6.75D-01 WtEn= 3.25D-01
 Coeff-Com: -0.883D+00 0.188D+01
 Coeff-En:   0.000D+00 0.100D+01
 Coeff:     -0.596D+00 0.160D+01
 Gap=     0.320 Goal=   None    Shift=    0.000
 RMSDP=3.69D-02 MaxDP=2.57D+00 DE=-4.93D-02 OVMax= 3.79D-02

 Cycle   3  Pass 1  IDiag  1:
 RMSU=  4.10D-03    CP:  5.27D-01  1.26D+00
 E= -463.244259797564     Delta-E=       -0.044416520960 Rises=F Damp=F
 DIIS: error= 6.08D-03 at cycle   3 NSaved=   3.
 NSaved= 3 IEnMin= 3 EnMin= -463.244259797564     IErMin= 3 ErrMin= 6.08D-03
 ErrMax= 6.08D-03  0.00D+00 EMaxC= 1.00D-01 BMatC= 4.27D-03 BMatP= 2.16D-01
 IDIUse=3 WtCom= 9.39D-01 WtEn= 6.08D-02
 Coeff-Com: -0.360D+00 0.767D+00 0.593D+00
 Coeff-En:   0.000D+00 0.000D+00 0.100D+01
 Coeff:     -0.338D+00 0.720D+00 0.618D+00
 Gap=     0.319 Goal=   None    Shift=    0.000
 RMSDP=2.57D-03 MaxDP=1.44D-01 DE=-4.44D-02 OVMax= 2.11D-02

 Cycle   4  Pass 1  IDiag  1:
 RMSU=  8.66D-04    CP:  5.15D-01  1.45D+00  7.44D-01
 E= -463.248021607244     Delta-E=       -0.003761809680 Rises=F Damp=F
 DIIS: error= 1.98D-03 at cycle   4 NSaved=   4.
 NSaved= 4 IEnMin= 4 EnMin= -463.248021607244     IErMin= 4 ErrMin= 1.98D-03
 ErrMax= 1.98D-03  0.00D+00 EMaxC= 1.00D-01 BMatC= 2.94D-04 BMatP= 4.27D-03
 IDIUse=3 WtCom= 9.80D-01 WtEn= 1.98D-02
 Coeff-Com: -0.128D+00 0.274D+00 0.294D+00 0.559D+00
 Coeff-En:   0.000D+00 0.000D+00 0.000D+00 0.100D+01
 Coeff:     -0.126D+00 0.269D+00 0.289D+00 0.568D+00
 Gap=     0.318 Goal=   None    Shift=    0.000
 RMSDP=1.41D-03 MaxDP=9.92D-02 DE=-3.76D-03 OVMax= 5.81D-03

 Cycle   5  Pass 1  IDiag  1:
 RMSU=  3.01D-04    CP:  5.06D-01  1.51D+00  7.67D-01  7.97D-01
 E= -463.248331552624     Delta-E=       -0.000309945379 Rises=F Damp=F
 DIIS: error= 4.21D-04 at cycle   5 NSaved=   5.
 NSaved= 5 IEnMin= 5 EnMin= -463.248331552624     IErMin= 5 ErrMin= 4.21D-04
 ErrMax= 4.21D-04  0.00D+00 EMaxC= 1.00D-01 BMatC= 9.47D-06 BMatP= 2.94D-04
 IDIUse=3 WtCom= 9.96D-01 WtEn= 4.21D-03
 Coeff-Com:  0.278D-01-0.595D-01-0.333D-01 0.126D+00 0.939D+00
 Coeff-En:   0.000D+00 0.000D+00 0.000D+00 0.000D+00 0.100D+01
 Coeff:      0.277D-01-0.593D-01-0.331D-01 0.125D+00 0.939D+00
 Gap=     0.319 Goal=   None    Shift=    0.000
 RMSDP=3.80D-04 MaxDP=2.68D-02 DE=-3.10D-04 OVMax= 1.75D-03

 Cycle   6  Pass 1  IDiag  1:
 RMSU=  5.94D-05    CP:  5.03D-01  1.51D+00  7.84D-01  8.90D-01  1.20D+00
 E= -463.248344655687     Delta-E=       -0.000013103064 Rises=F Damp=F
 DIIS: error= 6.06D-05 at cycle   6 NSaved=   6.
 NSaved= 6 IEnMin= 6 EnMin= -463.248344655687     IErMin= 6 ErrMin= 6.06D-05
 ErrMax= 6.06D-05  0.00D+00 EMaxC= 1.00D-01 BMatC= 4.64D-07 BMatP= 9.47D-06
 IDIUse=1 WtCom= 1.00D+00 WtEn= 0.00D+00
 Coeff-Com:  0.119D-01-0.254D-01-0.166D-01 0.314D-01 0.321D+00 0.677D+00
 Coeff:      0.119D-01-0.254D-01-0.166D-01 0.314D-01 0.321D+00 0.677D+00
 Gap=     0.319 Goal=   None    Shift=    0.000
 RMSDP=1.32D-05 MaxDP=4.59D-04 DE=-1.31D-05 OVMax= 2.79D-04

 Cycle   7  Pass 1  IDiag  1:
 RMSU=  1.06D-05    CP:  5.03D-01  1.51D+00  7.85D-01  8.91D-01  1.22D+00
                    CP:  1.05D+00
 E= -463.248345225735     Delta-E=       -0.000000570047 Rises=F Damp=F
 DIIS: error= 2.45D-05 at cycle   7 NSaved=   7.
 NSaved= 7 IEnMin= 7 EnMin= -463.248345225735     IErMin= 7 ErrMin= 2.45D-05
 ErrMax= 2.45D-05  0.00D+00 EMaxC= 1.00D-01 BMatC= 5.83D-08 BMatP= 4.64D-07
 IDIUse=1 WtCom= 1.00D+00 WtEn= 0.00D+00
 Coeff-Com: -0.244D-02 0.524D-02 0.228D-02-0.192D-01-0.113D+00 0.182D+00
 Coeff-Com:  0.946D+00
 Coeff:     -0.244D-02 0.524D-02 0.228D-02-0.192D-01-0.113D+00 0.182D+00
 Coeff:      0.946D+00
 Gap=     0.319 Goal=   None    Shift=    0.000
 RMSDP=2.51D-05 MaxDP=1.70D-03 DE=-5.70D-07 OVMax= 2.12D-04

 Cycle   8  Pass 1  IDiag  1:
 RMSU=  3.37D-06    CP:  5.03D-01  1.52D+00  7.85D-01  8.93D-01  1.25D+00
                    CP:  1.18D+00  1.19D+00
 E= -463.248345336519     Delta-E=       -0.000000110784 Rises=F Damp=F
 DIIS: error= 4.29D-06 at cycle   8 NSaved=   8.
 NSaved= 8 IEnMin= 8 EnMin= -463.248345336519     IErMin= 8 ErrMin= 4.29D-06
 ErrMax= 4.29D-06  0.00D+00 EMaxC= 1.00D-01 BMatC= 1.21D-09 BMatP= 5.83D-08
 IDIUse=1 WtCom= 1.00D+00 WtEn= 0.00D+00
 Coeff-Com: -0.347D-03 0.741D-03 0.493D-03-0.120D-02-0.741D-02-0.151D-01
 Coeff-Com: -0.336D-01 0.106D+01
 Coeff:     -0.347D-03 0.741D-03 0.493D-03-0.120D-02-0.741D-02-0.151D-01
 Coeff:     -0.336D-01 0.106D+01
 Gap=     0.319 Goal=   None    Shift=    0.000
 RMSDP=5.37D-06 MaxDP=3.65D-04 DE=-1.11D-07 OVMax= 4.18D-05

 Cycle   9  Pass 1  IDiag  1:
 RMSU=  9.28D-07    CP:  5.03D-01  1.52D+00  7.85D-01  8.92D-01  1.25D+00
                    CP:  1.18D+00  1.28D+00  1.23D+00
 E= -463.248345340329     Delta-E=       -0.000000003810 Rises=F Damp=F
 DIIS: error= 2.27D-06 at cycle   9 NSaved=   9.
 NSaved= 9 IEnMin= 9 EnMin= -463.248345340329     IErMin= 9 ErrMin= 2.27D-06
 ErrMax= 2.27D-06  0.00D+00 EMaxC= 1.00D-01 BMatC= 3.17D-10 BMatP= 1.21D-09
 IDIUse=1 WtCom= 1.00D+00 WtEn= 0.00D+00
 Coeff-Com:  0.169D-03-0.365D-03-0.868D-04 0.196D-02 0.115D-01-0.257D-01
 Coeff-Com: -0.132D+00 0.387D+00 0.758D+00
 Coeff:      0.169D-03-0.365D-03-0.868D-04 0.196D-02 0.115D-01-0.257D-01
 Coeff:     -0.132D+00 0.387D+00 0.758D+00
 Gap=     0.319 Goal=   None    Shift=    0.000
 RMSDP=1.66D-06 MaxDP=1.21D-04 DE=-3.81D-09 OVMax= 1.67D-05

 Cycle  10  Pass 1  IDiag  1:
 RMSU=  1.97D-07    CP:  5.03D-01  1.52D+00  7.85D-01  8.91D-01  1.25D+00
                    CP:  1.18D+00  1.29D+00  1.29D+00  1.32D+00
 E= -463.248345340881     Delta-E=       -0.000000000552 Rises=F Damp=F
 DIIS: error= 3.42D-07 at cycle  10 NSaved=  10.
 NSaved=10 IEnMin=10 EnMin= -463.248345340881     IErMin=10 ErrMin= 3.42D-07
 ErrMax= 3.42D-07  0.00D+00 EMaxC= 1.00D-01 BMatC= 2.28D-11 BMatP= 3.17D-10
 IDIUse=1 WtCom= 1.00D+00 WtEn= 0.00D+00
 Coeff-Com:  0.576D-04-0.124D-03-0.476D-04 0.490D-03 0.257D-02-0.295D-02
 Coeff-Com: -0.232D-01-0.333D-01 0.181D+00 0.875D+00
 Coeff:      0.576D-04-0.124D-03-0.476D-04 0.490D-03 0.257D-02-0.295D-02
 Coeff:     -0.232D-01-0.333D-01 0.181D+00 0.875D+00
 Gap=     0.319 Goal=   None    Shift=    0.000
 RMSDP=6.22D-07 MaxDP=4.74D-05 DE=-5.52D-10 OVMax= 3.68D-06

 Cycle  11  Pass 1  IDiag  1:
 RMSU=  7.81D-08    CP:  5.03D-01  1.52D+00  7.85D-01  8.91D-01  1.24D+00
                    CP:  1.18D+00  1.29D+00  1.29D+00  1.44D+00  1.19D+00
 E= -463.248345340916     Delta-E=       -0.000000000034 Rises=F Damp=F
 DIIS: error= 1.05D-07 at cycle  11 NSaved=  11.
 NSaved=11 IEnMin=11 EnMin= -463.248345340916     IErMin=11 ErrMin= 1.05D-07
 ErrMax= 1.05D-07  0.00D+00 EMaxC= 1.00D-01 BMatC= 8.93D-13 BMatP= 2.28D-11
 IDIUse=1 WtCom= 1.00D+00 WtEn= 0.00D+00
 Coeff-Com: -0.143D-04 0.312D-04 0.120D-04-0.165D-03-0.995D-03 0.236D-02
 Coeff-Com:  0.102D-01-0.264D-01-0.374D-01-0.112D+00 0.116D+01
 Coeff:     -0.143D-04 0.312D-04 0.120D-04-0.165D-03-0.995D-03 0.236D-02
 Coeff:      0.102D-01-0.264D-01-0.374D-01-0.112D+00 0.116D+01
 Gap=     0.319 Goal=   None    Shift=    0.000
 RMSDP=1.90D-07 MaxDP=1.41D-05 DE=-3.41D-11 OVMax= 1.01D-06

 Cycle  12  Pass 1  IDiag  1:
 RMSU=  1.83D-08    CP:  5.03D-01  1.52D+00  7.85D-01  8.91D-01  1.24D+00
                    CP:  1.18D+00  1.29D+00  1.29D+00  1.48D+00  1.29D+00
                    CP:  1.22D+00
 E= -463.248345340933     Delta-E=       -0.000000000017 Rises=F Damp=F
 DIIS: error= 2.54D-08 at cycle  12 NSaved=  12.
 NSaved=12 IEnMin=12 EnMin= -463.248345340933     IErMin=12 ErrMin= 2.54D-08
 ErrMax= 2.54D-08  0.00D+00 EMaxC= 1.00D-01 BMatC= 8.46D-14 BMatP= 8.93D-13
 IDIUse=1 WtCom= 1.00D+00 WtEn= 0.00D+00
 Coeff-Com: -0.141D-05 0.298D-05 0.233D-05-0.696D-05-0.260D-04-0.150D-04
 Coeff-Com: -0.149D-03 0.423D-02 0.610D-03-0.586D-01-0.135D+00 0.119D+01
 Coeff:     -0.141D-05 0.298D-05 0.233D-05-0.696D-05-0.260D-04-0.150D-04
 Coeff:     -0.149D-03 0.423D-02 0.610D-03-0.586D-01-0.135D+00 0.119D+01
 Gap=     0.319 Goal=   None    Shift=    0.000
 RMSDP=1.12D-08 MaxDP=4.85D-07 DE=-1.71D-11 OVMax= 2.75D-07

 Cycle  13  Pass 1  IDiag  1:
 RMSU=  4.06D-09    CP:  5.03D-01  1.52D+00  7.85D-01  8.91D-01  1.24D+00
                    CP:  1.18D+00  1.29D+00  1.28D+00  1.48D+00  1.30D+00
                    CP:  1.29D+00  1.26D+00
 E= -463.248345340928     Delta-E=        0.000000000005 Rises=F Damp=F
 DIIS: error= 6.00D-09 at cycle  13 NSaved=  13.
 NSaved=13 IEnMin=12 EnMin= -463.248345340933     IErMin=13 ErrMin= 6.00D-09
 ErrMax= 6.00D-09  0.00D+00 EMaxC= 1.00D-01 BMatC= 4.07D-15 BMatP= 8.46D-14
 IDIUse=1 WtCom= 1.00D+00 WtEn= 0.00D+00
 Coeff-Com:  0.596D-06-0.131D-05-0.437D-06 0.753D-05 0.489D-04-0.111D-03
 Coeff-Com: -0.572D-03 0.174D-02 0.322D-02-0.229D-02-0.777D-01 0.127D+00
 Coeff-Com:  0.949D+00
 Coeff:      0.596D-06-0.131D-05-0.437D-06 0.753D-05 0.489D-04-0.111D-03
 Coeff:     -0.572D-03 0.174D-02 0.322D-02-0.229D-02-0.777D-01 0.127D+00
 Coeff:      0.949D+00
 Gap=     0.319 Goal=   None    Shift=    0.000
 RMSDP=7.53D-09 MaxDP=4.53D-07 DE= 5.00D-12 OVMax= 6.32D-08

 SCF Done:  E(RwB97XD) =  -463.248345341     A.U. after   13 cycles
            NFock= 13  Conv=0.75D-08     -V/T= 2.0048
 KE= 4.610206249114D+02 PE=-2.272974392896D+03 EE= 7.493281224706D+02
 Leave Link  502 at Sat Nov  5 21:34:58 2022, MaxMem= 16106127360 cpu:             749.0 elap:              23.5
 (Enter /opt/ap/G16/B01/g16/l601.exe)
 Copying SCF densities to generalized density rwf, IOpCl= 0 IROHF=0.

 **********************************************************************

            Population analysis using the SCF Density.

 **********************************************************************

 Orbital symmetries:
       Occupied  (A) (A) (A) (A) (A) (A) (A) (A) (A) (A) (A) (A)
                 (A) (A) (A) (A) (A) (A) (A) (A) (A) (A) (A) (A)
                 (A) (A) (A) (A) (A) (A) (A) (A) (A) (A) (A) (A)
                 (A) (A) (A) (A) (A)
       Virtual   (A) (A) (A) (A) (A) (A) (A) (A) (A) (A) (A) (A)
                 (A) (A) (A) (A) (A) (A) (A) (A) (A) (A) (A) (A)
                 (A) (A) (A) (A) (A) (A) (A) (A) (A) (A) (A) (A)
                 (A) (A) (A) (A) (A) (A) (A) (A) (A) (A) (A) (A)
                 (A) (A) (A) (A) (A) (A) (A) (A) (A) (A) (A) (A)
                 (A) (A) (A) (A) (A) (A) (A) (A) (A) (A) (A) (A)
                 (A) (A) (A) (A) (A) (A) (A) (A) (A) (A) (A) (A)
                 (A) (A) (A) (A) (A) (A) (A) (A) (A) (A) (A) (A)
                 (A) (A) (A) (A) (A) (A) (A) (A) (A) (A) (A) (A)
                 (A) (A) (A) (A) (A) (A) (A) (A) (A) (A) (A) (A)
                 (A) (A) (A) (A) (A) (A) (A) (A) (A) (A) (A) (A)
                 (A) (A) (A) (A) (A) (A) (A) (A) (A) (A) (A) (A)
                 (A) (A) (A) (A) (A) (A) (A) (A) (A) (A) (A) (A)
                 (A) (A) (A) (A) (A) (A) (A) (A) (A) (A) (A) (A)
                 (A) (A) (A) (A) (A) (A) (A) (A) (A) (A) (A) (A)
                 (A) (A) (A) (A) (A) (A) (A) (A) (A) (A) (A) (A)
                 (A) (A) (A) (A) (A) (A) (A) (A) (A) (A) (A) (A)
                 (A) (A) (A) (A) (A) (A) (A) (A) (A) (A) (A) (A)
                 (A) (A) (A) (A) (A) (A) (A) (A) (A) (A) (A) (A)
                 (A) (A) (A) (A) (A) (A) (A) (A) (A) (A) (A) (A)
                 (A) (A) (A) (A) (A) (A) (A) (A) (A) (A) (A) (A)
                 (A) (A) (A) (A) (A) (A) (A) (A) (A) (A) (A) (A)
                 (A) (A) (A) (A) (A) (A) (A) (A) (A) (A) (A) (A)
                 (A) (A) (A) (A) (A) (A) (A) (A) (A) (A) (A) (A)
                 (A) (A)
 The electronic state is 1-A.
 Alpha  occ. eigenvalues --  -10.30589 -10.30559 -10.29425 -10.29424 -10.29417
 Alpha  occ. eigenvalues --  -10.29417 -10.29324 -10.29323 -10.29321 -10.29321
 Alpha  occ. eigenvalues --  -10.29266 -10.29266  -0.97698  -0.95361  -0.88312
 Alpha  occ. eigenvalues --   -0.85642  -0.84663  -0.82384  -0.72462  -0.72188
 Alpha  occ. eigenvalues --   -0.68634  -0.67537  -0.63113  -0.59131  -0.56815
 Alpha  occ. eigenvalues --   -0.55837  -0.53024  -0.52374  -0.51932  -0.51162
 Alpha  occ. eigenvalues --   -0.50332  -0.47768  -0.45158  -0.45066  -0.44221
 Alpha  occ. eigenvalues --   -0.42504  -0.41653  -0.36561  -0.33749  -0.33337
 Alpha  occ. eigenvalues --   -0.30011
 Alpha virt. eigenvalues --    0.01880   0.03843   0.04217   0.04549   0.04750
 Alpha virt. eigenvalues --    0.05806   0.05895   0.05959   0.07530   0.07929
 Alpha virt. eigenvalues --    0.08372   0.08676   0.09556   0.10513   0.11571
 Alpha virt. eigenvalues --    0.12704   0.13226   0.13276   0.15282   0.15412
 Alpha virt. eigenvalues --    0.15761   0.15979   0.16090   0.16613   0.16996
 Alpha virt. eigenvalues --    0.17415   0.17527   0.17780   0.18054   0.18784
 Alpha virt. eigenvalues --    0.18892   0.19009   0.19579   0.19806   0.20160
 Alpha virt. eigenvalues --    0.20475   0.20643   0.23157   0.23167   0.23495
 Alpha virt. eigenvalues --    0.23507   0.24119   0.24296   0.24452   0.24986
 Alpha virt. eigenvalues --    0.25735   0.25883   0.26874   0.27107   0.27750
 Alpha virt. eigenvalues --    0.28296   0.28523   0.28820   0.30050   0.30345
 Alpha virt. eigenvalues --    0.30579   0.31304   0.31305   0.32085   0.32149
 Alpha virt. eigenvalues --    0.33651   0.33845   0.34435   0.35498   0.36016
 Alpha virt. eigenvalues --    0.36028   0.36348   0.36944   0.37292   0.37654
 Alpha virt. eigenvalues --    0.38944   0.40933   0.40950   0.41884   0.42055
 Alpha virt. eigenvalues --    0.42714   0.43814   0.47534   0.47976   0.48599
 Alpha virt. eigenvalues --    0.56648   0.58613   0.58667   0.60946   0.60991
 Alpha virt. eigenvalues --    0.61622   0.62768   0.62786   0.63045   0.63379
 Alpha virt. eigenvalues --    0.64245   0.64371   0.65645   0.65826   0.66040
 Alpha virt. eigenvalues --    0.66950   0.68776   0.69024   0.69207   0.69641
 Alpha virt. eigenvalues --    0.72502   0.72543   0.74532   0.75018   0.75533
 Alpha virt. eigenvalues --    0.76871   0.77601   0.77922   0.78511   0.79136
 Alpha virt. eigenvalues --    0.80609   0.81754   0.82662   0.83174   0.84216
 Alpha virt. eigenvalues --    0.86284   0.89465   0.90095   0.91117   0.92035
 Alpha virt. eigenvalues --    0.92038   0.93038   0.93910   0.93994   0.94385
 Alpha virt. eigenvalues --    0.95801   0.96002   0.96602   0.99337   0.99543
 Alpha virt. eigenvalues --    1.00086   1.00406   1.00528   1.03166   1.05734
 Alpha virt. eigenvalues --    1.07451   1.08704   1.09231   1.09639   1.10848
 Alpha virt. eigenvalues --    1.12828   1.14202   1.16363   1.17317   1.18667
 Alpha virt. eigenvalues --    1.20090   1.20644   1.24376   1.24460   1.24744
 Alpha virt. eigenvalues --    1.36611   1.39149   1.39382   1.41026   1.55274
 Alpha virt. eigenvalues --    1.56706   1.57300   1.57662   1.57793   1.60222
 Alpha virt. eigenvalues --    1.61470   1.62739   1.63942   1.65270   1.65429
 Alpha virt. eigenvalues --    1.65509   1.66717   1.68111   1.70360   1.71448
 Alpha virt. eigenvalues --    1.73700   1.75667   1.75885   1.77306   1.77622
 Alpha virt. eigenvalues --    1.80725   1.82717   1.84421   1.85650   1.86106
 Alpha virt. eigenvalues --    1.88383   1.89751   1.91428   1.91591   1.94738
 Alpha virt. eigenvalues --    1.98151   1.98572   1.99082   2.00570   2.03352
 Alpha virt. eigenvalues --    2.04100   2.04205   2.04919   2.04951   2.07106
 Alpha virt. eigenvalues --    2.08002   2.09198   2.10483   2.12386   2.13011
 Alpha virt. eigenvalues --    2.13994   2.17307   2.17395   2.17931   2.21559
 Alpha virt. eigenvalues --    2.34315   2.35099   2.35477   2.40570   2.45584
 Alpha virt. eigenvalues --    2.47052   2.50651   2.51267   2.53212   2.54621
 Alpha virt. eigenvalues --    2.55806   2.56329   2.57962   2.59250   2.70678
 Alpha virt. eigenvalues --    2.72251   2.75354   2.75759   2.77196   2.77736
 Alpha virt. eigenvalues --    2.79083   2.80434   2.80550   2.81253   2.81353
 Alpha virt. eigenvalues --    2.82686   2.83135   2.84582   2.85264   2.86572
 Alpha virt. eigenvalues --    2.88036   2.91094   2.91135   2.91864   2.92083
 Alpha virt. eigenvalues --    2.93452   2.95671   2.99336   3.00872   3.03639
 Alpha virt. eigenvalues --    3.03979   3.04138   3.04173   3.08441   3.16279
 Alpha virt. eigenvalues --    3.19499   3.20426   3.29675   3.30264   3.31923
 Alpha virt. eigenvalues --    3.45555   3.46452   3.46861   3.48536   3.59138
 Alpha virt. eigenvalues --    3.61439   3.63479   3.63817   3.67906   3.73013
 Alpha virt. eigenvalues --    3.75691   3.87126   4.08791   4.11281   4.13538
 Alpha virt. eigenvalues --    4.14428   4.24232   4.24461   4.27708   4.28636
 Alpha virt. eigenvalues --    4.61995   4.92257   4.95913  23.68651  23.84791
 Alpha virt. eigenvalues --   24.07357  24.08562  24.09566  24.09749  24.18639
 Alpha virt. eigenvalues --   24.19978  24.22199  24.22542  24.30997  24.31511
          Condensed to atoms (all electrons):
               1          2          3          4          5          6
     1  C   20.411819   1.663600   1.662542  -1.711396   0.067111  -9.585778
     2  C    1.663600  12.103833  -1.690207  -1.381767   0.564821  -4.693860
     3  C    1.662542  -1.690207  12.097842  -0.594735   0.036810  -4.687851
     4  C   -1.711396  -1.381767  -0.594735   6.889666  -0.082340   2.219256
     5  H    0.067111   0.564821   0.036810  -0.082340   0.541188  -0.196379
     6  C   -9.585778  -4.693860  -4.687851   2.219256  -0.196379  20.413679
     7  C   -1.710236  -0.592333  -1.379664   0.457688  -0.021817   2.215401
     8  H    0.067027   0.036836   0.564760  -0.021872   0.003232  -0.196233
     9  C    0.753211   0.780009   0.779711  -0.377520   0.039108  -1.851881
    10  H    0.018600  -0.123535  -0.015032   0.444077  -0.016848   0.060328
    11  C   -4.692451   2.872520  -3.263865   0.242230   0.007764   1.664090
    12  C   -4.685973  -3.264680   2.874373   0.303751  -0.083168   1.662031
    13  H    0.018580  -0.015020  -0.123402   0.026044  -0.000928   0.060307
    14  H    0.039835   0.002224   0.002278  -0.051982   0.000949  -0.039979
    15  C    2.218770   0.241066   0.304923  -0.058144   0.009968  -1.712166
    16  H   -0.196320   0.007823  -0.083221   0.009976   0.002713   0.067140
    17  C    2.213710   0.304095   0.240828  -0.135109   0.026297  -1.709243
    18  H   -0.196091  -0.083197   0.007858   0.026319  -0.004667   0.066943
    19  C   -1.850731  -0.099917  -0.100198   0.067746  -0.018222   0.753372
    20  H    0.060306  -0.002052   0.008807  -0.000636   0.000928   0.018602
    21  H    0.060249   0.008781  -0.002014  -0.001074   0.000640   0.018592
    22  H   -0.039959  -0.003195  -0.003217   0.001486  -0.000608   0.039838
               7          8          9         10         11         12
     1  C   -1.710236   0.067027   0.753211   0.018600  -4.692451  -4.685973
     2  C   -0.592333   0.036836   0.780009  -0.123535   2.872520  -3.264680
     3  C   -1.379664   0.564760   0.779711  -0.015032  -3.263865   2.874373
     4  C    0.457688  -0.021872  -0.377520   0.444077   0.242230   0.303751
     5  H   -0.021817   0.003232   0.039108  -0.016848   0.007764  -0.083168
     6  C    2.215401  -0.196233  -1.851881   0.060328   1.664090   1.662031
     7  C    6.888074  -0.082305  -0.376998   0.026022   0.304716   0.240331
     8  H   -0.082305   0.541231   0.039084  -0.000929  -0.083244   0.007938
     9  C   -0.376998   0.039084   6.569698  -0.095896  -0.100324  -0.099696
    10  H    0.026022  -0.000929  -0.095896   0.483490  -0.002011   0.008780
    11  C    0.304716  -0.083244  -0.100324  -0.002011  12.102428  -1.690950
    12  C    0.240331   0.007938  -0.099696   0.008780  -1.690950  12.095429
    13  H    0.443965  -0.016844  -0.095917   0.001404   0.008801  -0.002045
    14  H   -0.051977   0.000950   0.448119  -0.010081  -0.003212  -0.003199
    15  C   -0.135098   0.026340   0.067702  -0.000627  -1.383760  -0.591341
    16  H    0.026315  -0.004670  -0.018234   0.000931   0.564901   0.036726
    17  C   -0.057354   0.009852   0.067603  -0.001074  -0.592813  -1.376966
    18  H    0.009858   0.002706  -0.018218   0.000640   0.036844   0.564557
    19  C    0.067517  -0.018229  -0.023206  -0.000219   0.780334   0.777264
    20  H   -0.001071   0.000641  -0.000219   0.000142  -0.123576  -0.014929
    21  H   -0.000615   0.000931  -0.000220   0.000014  -0.015033  -0.123288
    22  H    0.001481  -0.000608  -0.000632   0.000010   0.002293   0.002162
              13         14         15         16         17         18
     1  C    0.018580   0.039835   2.218770  -0.196320   2.213710  -0.196091
     2  C   -0.015020   0.002224   0.241066   0.007823   0.304095  -0.083197
     3  C   -0.123402   0.002278   0.304923  -0.083221   0.240828   0.007858
     4  C    0.026044  -0.051982  -0.058144   0.009976  -0.135109   0.026319
     5  H   -0.000928   0.000949   0.009968   0.002713   0.026297  -0.004667
     6  C    0.060307  -0.039979  -1.712166   0.067140  -1.709243   0.066943
     7  C    0.443965  -0.051977  -0.135098   0.026315  -0.057354   0.009858
     8  H   -0.016844   0.000950   0.026340  -0.004670   0.009852   0.002706
     9  C   -0.095917   0.448119   0.067702  -0.018234   0.067603  -0.018218
    10  H    0.001404  -0.010081  -0.000627   0.000931  -0.001074   0.000640
    11  C    0.008801  -0.003212  -1.383760   0.564901  -0.592813   0.036844
    12  C   -0.002045  -0.003199  -0.591341   0.036726  -1.376966   0.564557
    13  H    0.483489  -0.010081  -0.001075   0.000640  -0.000625   0.000929
    14  H   -0.010081   0.477271   0.001485  -0.000608   0.001482  -0.000608
    15  C   -0.001075   0.001485   6.890567  -0.082444   0.456686  -0.021801
    16  H    0.000640  -0.000608  -0.082444   0.541180  -0.021806   0.003231
    17  C   -0.000625   0.001482   0.456686  -0.021806   6.886347  -0.082153
    18  H    0.000929  -0.000608  -0.021801   0.003231  -0.082153   0.541222
    19  C   -0.000219  -0.000632  -0.377330   0.039081  -0.375474   0.039035
    20  H    0.000014   0.000010   0.444098  -0.016843   0.025982  -0.000927
    21  H    0.000142   0.000010   0.026000  -0.000928   0.443869  -0.016846
    22  H    0.000010  -0.000012  -0.052042   0.000950  -0.051897   0.000948
              19         20         21         22
     1  C   -1.850731   0.060306   0.060249  -0.039959
     2  C   -0.099917  -0.002052   0.008781  -0.003195
     3  C   -0.100198   0.008807  -0.002014  -0.003217
     4  C    0.067746  -0.000636  -0.001074   0.001486
     5  H   -0.018222   0.000928   0.000640  -0.000608
     6  C    0.753372   0.018602   0.018592   0.039838
     7  C    0.067517  -0.001071  -0.000615   0.001481
     8  H   -0.018229   0.000641   0.000931  -0.000608
     9  C   -0.023206  -0.000219  -0.000220  -0.000632
    10  H   -0.000219   0.000142   0.000014   0.000010
    11  C    0.780334  -0.123576  -0.015033   0.002293
    12  C    0.777264  -0.014929  -0.123288   0.002162
    13  H   -0.000219   0.000014   0.000142   0.000010
    14  H   -0.000632   0.000010   0.000010  -0.000012
    15  C   -0.377330   0.444098   0.026000  -0.052042
    16  H    0.039081  -0.016843  -0.000928   0.000950
    17  C   -0.375474   0.025982   0.443869  -0.051897
    18  H    0.039035  -0.000927  -0.016846   0.000948
    19  C    6.568733  -0.095902  -0.095842   0.448121
    20  H   -0.095902   0.483494   0.001403  -0.010085
    21  H   -0.095842   0.001403   0.483486  -0.010077
    22  H    0.448121  -0.010085  -0.010077   0.477276
 Mulliken charges:
               1
     1  C    1.413575
     2  C   -0.635847
     3  C   -0.637326
     4  C   -0.271665
     5  H    0.123447
     6  C    1.413790
     7  C   -0.271899
     8  H    0.123408
     9  C   -0.485282
    10  H    0.221815
    11  C   -0.635681
    12  C   -0.637106
    13  H    0.221832
    14  H    0.197757
    15  C   -0.271776
    16  H    0.123468
    17  C   -0.272237
    18  H    0.123419
    19  C   -0.485081
    20  H    0.221814
    21  H    0.221820
    22  H    0.197756
 Sum of Mulliken charges =  -0.00000
 Mulliken charges with hydrogens summed into heavy atoms:
               1
     1  C    1.413575
     2  C   -0.512401
     3  C   -0.513919
     4  C   -0.049849
     6  C    1.413790
     7  C   -0.050067
     9  C   -0.287525
    11  C   -0.512213
    12  C   -0.513687
    15  C   -0.049962
    17  C   -0.050417
    19  C   -0.287325
 Electronic spatial extent (au):  <R**2>=           2311.9357
 Charge=             -0.0000 electrons
 Dipole moment (field-independent basis, Debye):
    X=              0.0000    Y=             -0.0000    Z=              0.0004  Tot=              0.0004
 Quadrupole moment (field-independent basis, Debye-Ang):
   XX=            -61.4852   YY=            -61.9171   ZZ=            -77.2422
   XY=              0.0002   XZ=             -0.0006   YZ=             -0.0001
 Traceless Quadrupole moment (field-independent basis, Debye-Ang):
   XX=              5.3963   YY=              4.9644   ZZ=            -10.3607
   XY=              0.0002   XZ=             -0.0006   YZ=             -0.0001
 Octapole moment (field-independent basis, Debye-Ang**2):
  XXX=              0.0005  YYY=             -0.0011  ZZZ=              0.0010  XYY=             -0.0002
  XXY=             -0.0006  XXZ=              0.0020  XZZ=              0.0003  YZZ=             -0.0003
  YYZ=              0.0030  XYZ=             -7.7848
 Hexadecapole moment (field-independent basis, Debye-Ang**3):
 XXXX=          -2298.4571 YYYY=           -520.8236 ZZZZ=           -119.3358 XXXY=             -0.0003
 XXXZ=             -0.0194 YYYX=              0.0048 YYYZ=             -0.0002 ZZZX=             -0.0005
 ZZZY=             -0.0001 XXYY=           -473.4339 XXZZ=           -502.3342 YYZZ=           -122.0622
 XXYZ=             -0.0022 YYXZ=              0.0020 ZZXY=             -0.0028
 N-N= 5.993773001736D+02 E-N=-2.272974392619D+03  KE= 4.610206249114D+02
 No NMR shielding tensors so no spin-rotation constants.
 Leave Link  601 at Sat Nov  5 21:34:59 2022, MaxMem= 16106127360 cpu:               4.2 elap:               0.2
 (Enter /opt/ap/G16/B01/g16/l9999.exe)
 1\1\GINC-N04\SP\RwB97XD\6-311++G(d,p)\C12H10\ROOT\05-Nov-2022\0\\#P wB
 97XD/6-311++G(d,p) scf=maxcycle=512\\_conf013.gjf nmol_natom 1_22\\0,1
 \C\C,1,1.40491871\C,1,1.40495292,2,118.20503621\C,2,1.3939373,1,120.91
 08946,3,0.05365643,0\H,2,1.08593095,1,119.3452094,3,-178.3624307,0\C,1
 ,1.48449301,2,120.90144423,4,-179.96388019,0\C,3,1.39389842,1,120.9105
 0598,2,0.03587687,0\H,3,1.08593608,1,119.34159615,2,-178.38281524,0\C,
 4,1.39606958,2,120.24555868,1,-0.09283196,0\H,4,1.08627898,2,119.66792
 041,1,-179.51486187,0\C,6,1.40492034,1,120.90156908,2,-25.,0\C,6,1.404
 95329,1,120.89324856,2,155.,0\H,7,1.08627928,3,119.67027175,1,-179.512
 58183,0\H,9,1.08597601,4,120.2602535,2,-179.95233103,0\C,11,1.39393437
 ,6,120.91099656,1,-179.95869964,0\H,11,1.08593173,6,119.34475907,1,1.6
 1891886,0\C,12,1.39390147,6,120.91022615,1,-179.94297913,0\H,12,1.0859
 3608,6,119.34175044,1,1.63241608,0\C,15,1.39607161,11,120.24535737,6,-
 0.10315482,0\H,15,1.08627786,11,119.66861247,6,-179.51844254,0\H,17,1.
 08627825,12,119.6702798,6,-179.51590091,0\H,19,1.08597601,15,120.25988
 597,11,-179.94731581,0\\Version=ES64L-G16RevB.01\State=1-A\HF=-463.248
 3453\RMSD=7.534e-09\Dipole=-0.0000004,-0.0001475,-0.0000211\Quadrupole
 =3.7860616,-7.1686609,3.3825993,1.2380979,0.3770831,-2.0661159\PG=C01 
 [X(C12H10)]\\@


 REALITY IS FOR PEOPLE WHO CAN'T FACE SCIENCE FICTION.
 Job cpu time:       0 days  0 hours 13 minutes 12.6 seconds.
 Elapsed time:       0 days  0 hours  0 minutes 25.0 seconds.
 File lengths (MBytes):  RWF=     62 Int=      0 D2E=      0 Chk=      8 Scr=      1
 Normal termination of Gaussian 16 at Sat Nov  5 21:34:59 2022.
