 Entering Gaussian System, Link 0=g16
 Input=_conf012.gjf
 Output=_conf012.log
 Initial command:
 /opt/ap/G16/B01/g16/l1.exe "/tmp2/scr/Gau-13571.inp" -scrdir="/tmp2/scr/"
 Entering Link 1 = /opt/ap/G16/B01/g16/l1.exe PID=     13572.
  
 Copyright (c) 1988-2017, Gaussian, Inc.  All Rights Reserved.
  
 This is part of the Gaussian(R) 16 program.  It is based on
 the Gaussian(R) 09 system (copyright 2009, Gaussian, Inc.),
 the Gaussian(R) 03 system (copyright 2003, Gaussian, Inc.),
 the Gaussian(R) 98 system (copyright 1998, Gaussian, Inc.),
 the Gaussian(R) 94 system (copyright 1995, Gaussian, Inc.),
 the Gaussian 92(TM) system (copyright 1992, Gaussian, Inc.),
 the Gaussian 90(TM) system (copyright 1990, Gaussian, Inc.),
 the Gaussian 88(TM) system (copyright 1988, Gaussian, Inc.),
 the Gaussian 86(TM) system (copyright 1986, Carnegie Mellon
 University), and the Gaussian 82(TM) system (copyright 1983,
 Carnegie Mellon University). Gaussian is a federally registered
 trademark of Gaussian, Inc.
  
 This software contains proprietary and confidential information,
 including trade secrets, belonging to Gaussian, Inc.
  
 This software is provided under written license and may be
 used, copied, transmitted, or stored only in accord with that
 written license.
  
 The following legend is applicable only to US Government
 contracts under FAR:
  
                    RESTRICTED RIGHTS LEGEND
  
 Use, reproduction and disclosure by the US Government is
 subject to restrictions as set forth in subparagraphs (a)
 and (c) of the Commercial Computer Software - Restricted
 Rights clause in FAR 52.227-19.
  
 Gaussian, Inc.
 340 Quinnipiac St., Bldg. 40, Wallingford CT 06492
  
  
 ---------------------------------------------------------------
 Warning -- This program may not be used in any manner that
 competes with the business of Gaussian, Inc. or will provide
 assistance to any competitor of Gaussian, Inc.  The licensee
 of this program is prohibited from giving any competitor of
 Gaussian, Inc. access to this program.  By using this program,
 the user acknowledges that Gaussian, Inc. is engaged in the
 business of creating and licensing software in the field of
 computational chemistry and represents and warrants to the
 licensee that it is not a competitor of Gaussian, Inc. and that
 it will not use this program in any manner prohibited above.
 ---------------------------------------------------------------
  

 Cite this work as:
 Gaussian 16, Revision B.01,
 M. J. Frisch, G. W. Trucks, H. B. Schlegel, G. E. Scuseria, 
 M. A. Robb, J. R. Cheeseman, G. Scalmani, V. Barone, 
 G. A. Petersson, H. Nakatsuji, X. Li, M. Caricato, A. V. Marenich, 
 J. Bloino, B. G. Janesko, R. Gomperts, B. Mennucci, H. P. Hratchian, 
 J. V. Ortiz, A. F. Izmaylov, J. L. Sonnenberg, D. Williams-Young, 
 F. Ding, F. Lipparini, F. Egidi, J. Goings, B. Peng, A. Petrone, 
 T. Henderson, D. Ranasinghe, V. G. Zakrzewski, J. Gao, N. Rega, 
 G. Zheng, W. Liang, M. Hada, M. Ehara, K. Toyota, R. Fukuda, 
 J. Hasegawa, M. Ishida, T. Nakajima, Y. Honda, O. Kitao, H. Nakai, 
 T. Vreven, K. Throssell, J. A. Montgomery, Jr., J. E. Peralta, 
 F. Ogliaro, M. J. Bearpark, J. J. Heyd, E. N. Brothers, K. N. Kudin, 
 V. N. Staroverov, T. A. Keith, R. Kobayashi, J. Normand, 
 K. Raghavachari, A. P. Rendell, J. C. Burant, S. S. Iyengar, 
 J. Tomasi, M. Cossi, J. M. Millam, M. Klene, C. Adamo, R. Cammi, 
 J. W. Ochterski, R. L. Martin, K. Morokuma, O. Farkas, 
 J. B. Foresman, and D. J. Fox, Gaussian, Inc., Wallingford CT, 2016.
 
 ******************************************
 Gaussian 16:  ES64L-G16RevB.01 20-Dec-2017
                 5-Nov-2022 
 ******************************************
 %nprocshared=32
 Will use up to   32 processors via shared memory.
 %mem=120GB
 %chk=_conf012.chk
 ----------------------------------------
 #P wB97XD/6-311++G(d,p) scf=maxcycle=512
 ----------------------------------------
 1/38=1,172=1/1;
 2/12=2,17=6,18=5,40=1/2;
 3/5=4,6=6,7=1111,11=2,25=1,30=1,74=-58/1,2,3;
 4//1;
 5/5=2,7=512,38=5/2;
 6/7=2,8=2,9=2,10=2,28=1/1;
 99/5=1,9=1/99;
 Leave Link    1 at Sat Nov  5 21:34:38 2022, MaxMem= 16106127360 cpu:               1.8 elap:               0.1
 (Enter /opt/ap/G16/B01/g16/l101.exe)
 ----------------------------
 _conf012.gjf nmol_natom 1_22
 ----------------------------
 Symbolic Z-matrix:
 Charge =  0 Multiplicity = 1
 C
 C                    1     1.40492 
 C                    1     1.40495  2     118.20504 
 C                    2     1.39394  1     120.91089  3     0.05366  0
 H                    2     1.08593  1     119.34521  3    -178.36243  0
 C                    1     1.48449  2     120.90144  4    -179.96388  0
 C                    3     1.3939   1     120.91051  2     0.03588  0
 H                    3     1.08594  1     119.3416  2    -178.38282  0
 C                    4     1.39607  2     120.24556  1    -0.09283  0
 H                    4     1.08628  2     119.66792  1    -179.51486  0
 C                    6     1.40492  1     120.90157  2    -30.      0
 C                    6     1.40495  1     120.89325  2     150.     0
 H                    7     1.08628  3     119.67027  1    -179.51258  0
 H                    9     1.08598  4     120.26025  2    -179.95233  0
 C                    11    1.39393  6     120.911  1    -179.9587  0
 H                    11    1.08593  6     119.34476  1     1.61892  0
 C                    12    1.3939   6     120.91023  1    -179.94298  0
 H                    12    1.08594  6     119.34175  1     1.63242  0
 C                    15    1.39607  11    120.24536  6    -0.10315  0
 H                    15    1.08628  11    119.66861  6    -179.51844  0
 H                    17    1.08628  12    119.67028  6    -179.5159  0
 H                    19    1.08598  15    120.25989  11   -179.94732  0
 
 ITRead=  0  0  0  0  0  0  0  0  0  0  0  0  0  0  0  0  0  0  0  0
 ITRead=  0  0
 MicOpt= -1 -1 -1 -1 -1 -1 -1 -1 -1 -1 -1 -1 -1 -1 -1 -1 -1 -1 -1 -1
 MicOpt= -1 -1
 NAtoms=     22 NQM=       22 NQMF=       0 NMMI=      0 NMMIF=      0
                NMic=       0 NMicF=      0.
                    Isotopes and Nuclear Properties:
 (Nuclear quadrupole moments (NQMom) in fm**2, nuclear magnetic moments (NMagM)
  in nuclear magnetons)

  Atom         1           2           3           4           5           6           7           8           9          10
 IAtWgt=          12          12          12          12           1          12          12           1          12           1
 AtmWgt=  12.0000000  12.0000000  12.0000000  12.0000000   1.0078250  12.0000000  12.0000000   1.0078250  12.0000000   1.0078250
 NucSpn=           0           0           0           0           1           0           0           1           0           1
 AtZEff=  -0.0000000  -0.0000000  -0.0000000  -0.0000000  -0.0000000  -0.0000000  -0.0000000  -0.0000000  -0.0000000  -0.0000000
 NQMom=    0.0000000   0.0000000   0.0000000   0.0000000   0.0000000   0.0000000   0.0000000   0.0000000   0.0000000   0.0000000
 NMagM=    0.0000000   0.0000000   0.0000000   0.0000000   2.7928460   0.0000000   0.0000000   2.7928460   0.0000000   2.7928460
 AtZNuc=   6.0000000   6.0000000   6.0000000   6.0000000   1.0000000   6.0000000   6.0000000   1.0000000   6.0000000   1.0000000

  Atom        11          12          13          14          15          16          17          18          19          20
 IAtWgt=          12          12           1           1          12           1          12           1          12           1
 AtmWgt=  12.0000000  12.0000000   1.0078250   1.0078250  12.0000000   1.0078250  12.0000000   1.0078250  12.0000000   1.0078250
 NucSpn=           0           0           1           1           0           1           0           1           0           1
 AtZEff=  -0.0000000  -0.0000000  -0.0000000  -0.0000000  -0.0000000  -0.0000000  -0.0000000  -0.0000000  -0.0000000  -0.0000000
 NQMom=    0.0000000   0.0000000   0.0000000   0.0000000   0.0000000   0.0000000   0.0000000   0.0000000   0.0000000   0.0000000
 NMagM=    0.0000000   0.0000000   2.7928460   2.7928460   0.0000000   2.7928460   0.0000000   2.7928460   0.0000000   2.7928460
 AtZNuc=   6.0000000   6.0000000   1.0000000   1.0000000   6.0000000   1.0000000   6.0000000   1.0000000   6.0000000   1.0000000

  Atom        21          22
 IAtWgt=           1           1
 AtmWgt=   1.0078250   1.0078250
 NucSpn=           1           1
 AtZEff=  -0.0000000  -0.0000000
 NQMom=    0.0000000   0.0000000
 NMagM=    2.7928460   2.7928460
 AtZNuc=   1.0000000   1.0000000
 Leave Link  101 at Sat Nov  5 21:34:38 2022, MaxMem= 16106127360 cpu:               5.2 elap:               0.2
 (Enter /opt/ap/G16/B01/g16/l202.exe)
                          Input orientation:                          
 ---------------------------------------------------------------------
 Center     Atomic      Atomic             Coordinates (Angstroms)
 Number     Number       Type             X           Y           Z
 ---------------------------------------------------------------------
      1          6           0        0.000000    0.000000    0.000000
      2          6           0        0.000000    0.000000    1.404919
      3          6           0        1.238131    0.000000   -0.664020
      4          6           0        1.195952    0.001120    2.120990
      5          1           0       -0.946201   -0.027051    1.937101
      6          6           0       -1.273772   -0.000390   -0.762381
      7          6           0        2.434381   -0.000749    0.051479
      8          1           0        1.259850    0.026715   -1.749411
      9          6           0        2.418826    0.000311    1.447501
     10          1           0        1.172413   -0.006894    3.206985
     11          6           0       -2.428840   -0.603490   -0.237130
     12          6           0       -1.356708    0.602398   -2.028738
     13          1           0        3.380326    0.007295   -0.482493
     14          1           0        3.350700    0.000403    2.005133
     15          6           0       -3.624789   -0.604717   -0.953202
     16          1           0       -2.392648   -1.051607    0.751369
     17          6           0       -2.552869    0.603269   -2.744391
     18          1           0       -0.468451    1.050551   -2.463957
     19          6           0       -3.692522   -0.000663   -2.210002
     20          1           0       -4.507741   -1.070064   -0.524427
     21          1           0       -2.592271    1.068319   -3.725297
     22          1           0       -4.624353   -0.000735   -2.767708
 ---------------------------------------------------------------------
                    Distance matrix (angstroms):
                    1          2          3          4          5
     1  C    0.000000
     2  C    1.404919   0.000000
     3  C    1.404953   2.411116   0.000000
     4  C    2.434934   1.393937   2.785330   0.000000
     5  H    2.156012   1.085931   3.396745   2.150216   0.000000
     6  C    1.484493   2.513898   2.513829   3.796494   2.719415
     7  C    2.434925   2.785320   1.393898   2.411760   3.870994
     8  H    2.156008   3.396723   1.085936   3.871013   4.296501
     9  C    2.818861   2.419201   2.419207   1.396070   3.400568
    10  H    3.414579   2.149893   3.871569   1.086279   2.470128
    11  C    2.513901   2.993291   3.740738   4.366395   2.694027
    12  C    2.513826   3.740794   2.993080   4.908957   4.036410
    13  H    3.414594   3.871560   2.149884   3.398478   4.957262
    14  H    3.904837   3.404035   3.404016   2.157861   4.297527
    15  C    3.796494   4.366407   4.908900   5.749542   3.982761
    16  H    2.719411   2.694025   4.036306   3.982731   2.132577
    17  C    3.796414   4.908956   4.366184   6.171562   4.989494
    18  H    2.719225   4.036248   2.693669   4.989317   4.556181
    19  C    4.303351   5.167434   5.167340   6.531055   4.974077
    20  H    4.662595   5.018679   5.846330   6.377914   4.453265
    21  H    4.662511   5.846391   5.018436   7.047597   5.997677
    22  H    5.389327   6.228599   6.228501   7.601008   5.971995
                    6          7          8          9         10
     6  C    0.000000
     7  C    3.796415   0.000000
     8  H    2.719228   2.150228   0.000000
     9  C    4.303354   1.396108   3.400612   0.000000
    10  H    4.662588   3.398502   4.957280   2.156243   0.000000
    11  C    1.404920   4.908922   4.036160   5.167439   5.018653
    12  C    1.404953   4.366171   2.693661   5.167340   5.846408
    13  H    4.662512   1.086279   2.470197   2.156248   4.299689
    14  H    5.389330   2.157871   4.297551   1.085976   2.487858
    15  C    2.434934   6.171523   4.989223   6.531057   6.377906
    16  H    2.156010   4.989424   4.556031   4.974074   4.453216
    17  C    2.434925   5.749295   3.982365   6.530947   7.047617
    18  H    2.156010   3.982346   2.132097   4.973818   5.997516
    19  C    2.818858   6.530945   4.973820   7.122212   7.280891
    20  H    3.414583   7.047564   5.997384   7.280902   6.878802
    21  H    3.414594   6.377631   4.452853   7.280767   7.961498
    22  H    3.904834   7.600891   5.971727   8.208188   8.324631
                   11         12         13         14         15
    11  C    0.000000
    12  C    2.411119   0.000000
    13  H    5.846338   5.018417   0.000000
    14  H    6.228605   6.228500   2.487812   0.000000
    15  C    1.393934   2.785336   7.047535   7.601011   0.000000
    16  H    1.085932   3.396748   5.997575   5.971993   2.150219
    17  C    2.785320   1.393901   6.377630   7.600892   2.411763
    18  H    3.396725   1.085936   4.452826   5.971724   3.871016
    19  C    2.419198   2.419208   7.280764   8.208188   1.396072
    20  H    2.149897   3.871575   7.961410   8.324643   1.086278
    21  H    3.871558   2.149886   6.878478   8.324493   3.398478
    22  H    3.404029   3.404019   8.324491   9.294164   2.157859
                   16         17         18         19         20
    16  H    0.000000
    17  C    3.870997   0.000000
    18  H    4.296501   2.150234   0.000000
    19  C    3.400569   1.396107   3.400615   0.000000
    20  H    2.470145   3.398500   4.957282   2.156238   0.000000
    21  H    4.957264   1.086278   2.470204   2.156245   4.299683
    22  H    4.297527   2.157871   4.297556   1.085976   2.487844
                   21         22
    21  H    0.000000
    22  H    2.487812   0.000000
 Stoichiometry    C12H10
 Framework group  C1[X(C12H10)]
 Deg. of freedom    60
 Full point group                 C1      NOp   1
 Largest Abelian subgroup         C1      NOp   1
 Largest concise Abelian subgroup C1      NOp   1
                         Standard orientation:                         
 ---------------------------------------------------------------------
 Center     Atomic      Atomic             Coordinates (Angstroms)
 Number     Number       Type             X           Y           Z
 ---------------------------------------------------------------------
      1          6           0       -0.742246   -0.000047   -0.000152
      2          6           0       -1.463737   -1.164476   -0.312167
      3          6           0       -1.463634    1.164421    0.312105
      4          6           0       -2.857674   -1.164491   -0.313106
      5          1           0       -0.925134   -2.081881   -0.530162
      6          6           0        0.742247   -0.000061    0.000009
      7          6           0       -2.857532    1.164545    0.313137
      8          1           0       -0.924876    2.081707    0.530242
      9          6           0       -3.561107    0.000049    0.000005
     10          1           0       -3.395183   -2.078338   -0.549683
     11          6           0        1.463720   -1.164466    0.312160
     12          6           0        1.463651    1.164460   -0.312021
     13          1           0       -3.394993    2.078385    0.549855
     14          1           0       -4.647083    0.000104    0.000099
     15          6           0        2.857654   -1.164477    0.313204
     16          1           0        0.925095   -2.081828    0.530281
     17          6           0        2.857552    1.164538   -0.313126
     18          1           0        0.924906    2.081788   -0.530015
     19          6           0        3.561105   -0.000010   -0.000148
     20          1           0        3.395159   -2.078284    0.549942
     21          1           0        3.395029    2.078401   -0.549715
     22          1           0        4.647081    0.000023   -0.000240
 ---------------------------------------------------------------------
 Rotational constants (GHZ):           2.8585222           0.5507891           0.4719274
 Leave Link  202 at Sat Nov  5 21:34:38 2022, MaxMem= 16106127360 cpu:               0.5 elap:               0.0
 (Enter /opt/ap/G16/B01/g16/l301.exe)
 Standard basis: 6-311++G(d,p) (5D, 7F)
 Ernie: Thresh=  0.10000D-02 Tol=  0.10000D-05 Strict=F.
 There are   346 symmetry adapted cartesian basis functions of A   symmetry.
 There are   334 symmetry adapted basis functions of A   symmetry.
   334 basis functions,   522 primitive gaussians,   346 cartesian basis functions
    41 alpha electrons       41 beta electrons
       nuclear repulsion energy       599.2438203174 Hartrees.
 IExCor= 4639 DFT=T Ex+Corr=wB97XD ExCW=0 ScaHFX=  1.000000
 ScaDFX=  1.000000  1.000000  1.000000  1.000000 ScalE2=  1.000000  1.000000
 IRadAn=      5 IRanWt=     -1 IRanGd=            0 ICorTp=0 IEmpDi=121
 HFx  wShort=  0.000000 wLong=  0.200000 cFull=  0.222036 cShort=  0.000000 cLong=  0.777964
 DFx  wShort=  0.000000 wLong=  0.200000 cFull=  0.000000 cShort=  0.000000 cLong=  1.000000
 NAtoms=   22 NActive=   22 NUniq=   22 SFac= 1.00D+00 NAtFMM=   60 NAOKFM=F Big=F
 Integral buffers will be    131072 words long.
 Raffenetti 2 integral format.
 Two-electron integral symmetry is turned on.
 R6Disp:  Grimme-D2 Dispersion energy=       -0.0120079220 Hartrees.
 Nuclear repulsion after empirical dispersion term =      599.2318123954 Hartrees.
 Leave Link  301 at Sat Nov  5 21:34:38 2022, MaxMem= 16106127360 cpu:               1.1 elap:               0.0
 (Enter /opt/ap/G16/B01/g16/l302.exe)
 NPDir=0 NMtPBC=     1 NCelOv=     1 NCel=       1 NClECP=     1 NCelD=      1
         NCelK=      1 NCelE2=     1 NClLst=     1 CellRange=     0.0.
 One-electron integrals computed using PRISM.
 One-electron integral symmetry used in STVInt
 NBasis=   334 RedAO= T EigKep=  1.08D-06  NBF=   334
 NBsUse=   332 1.00D-06 EigRej=  7.74D-07 NBFU=   332
 Precomputing XC quadrature grid using
 IXCGrd= 4 IRadAn=           5 IRanWt=          -1 IRanGd=           0 AccXCQ= 0.00D+00.
 Generated NRdTot=       0 NPtTot=           0 NUsed=           0 NTot=          32
 NSgBfM=   346   346   346   346   346 MxSgAt=    22 MxSgA2=    22.
 Leave Link  302 at Sat Nov  5 21:34:39 2022, MaxMem= 16106127360 cpu:               7.6 elap:               0.2
 (Enter /opt/ap/G16/B01/g16/l303.exe)
 DipDrv:  MaxL=1.
 Leave Link  303 at Sat Nov  5 21:34:39 2022, MaxMem= 16106127360 cpu:               1.5 elap:               0.1
 (Enter /opt/ap/G16/B01/g16/l401.exe)
 ExpMin= 3.60D-02 ExpMax= 4.56D+03 ExpMxC= 6.82D+02 IAcc=3 IRadAn=         5 AccDes= 0.00D+00
 Harris functional with IExCor= 4639 and IRadAn=       5 diagonalized for initial guess.
 HarFok:  IExCor= 4639 AccDes= 0.00D+00 IRadAn=         5 IDoV= 1 UseB2=F ITyADJ=14
 ICtDFT=  3500011 ScaDFX=  1.000000  1.000000  1.000000  1.000000
 FoFCou: FMM=F IPFlag=           0 FMFlag=      100000 FMFlg1=           0
         NFxFlg=           0 DoJE=T BraDBF=F KetDBF=T FulRan=T
         wScrn=  0.000000 ICntrl=       500 IOpCl=  0 I1Cent=   200000004 NGrid=           0
         NMat0=    1 NMatS0=      1 NMatT0=    0 NMatD0=    1 NMtDS0=    0 NMtDT0=    0
 Petite list used in FoFCou.
 Harris En= -441.937219422647    
 JPrj=0 DoOrth=F DoCkMO=F.
 Leave Link  401 at Sat Nov  5 21:34:39 2022, MaxMem= 16106127360 cpu:              19.7 elap:               0.6
 (Enter /opt/ap/G16/B01/g16/l502.exe)
 Integral symmetry usage will be decided dynamically.
 Closed shell SCF:
 Using DIIS extrapolation, IDIIS=  1040.
 NGot= 16106127360 LenX= 16105873520 LenY= 16105753363
 Requested convergence on RMS density matrix=1.00D-08 within 512 cycles.
 Requested convergence on MAX density matrix=1.00D-06.
 Requested convergence on             energy=1.00D-06.
 No special actions if energy rises.
 Fock matrices will be formed incrementally for  20 cycles.

 Cycle   1  Pass 1  IDiag  1:
 FoFJK:  IHMeth= 1 ICntrl=       0 DoSepK=T KAlg= 0 I1Cent=           0 FoldK=F
 IRaf=         1 NMat=       1 IRICut=       1 DoRegI=T DoRafI=F ISym2E= 0 IDoP0=0 IntGTp=1.
 FoFCou: FMM=F IPFlag=           0 FMFlag=      100000 FMFlg1=           0
         NFxFlg=           0 DoJE=T BraDBF=F KetDBF=F FulRan=T
         wScrn=  0.000000 ICntrl=       500 IOpCl=  0 I1Cent=           0 NGrid=           0
         NMat0=    1 NMatS0=      1 NMatT0=    0 NMatD0=    1 NMtDS0=    0 NMtDT0=    0
 Symmetry not used in FoFCou.
 E= -463.151466213587    
 DIIS: error= 6.78D-02 at cycle   1 NSaved=   1.
 NSaved= 1 IEnMin= 1 EnMin= -463.151466213587     IErMin= 1 ErrMin= 6.78D-02
 ErrMax= 6.78D-02  0.00D+00 EMaxC= 1.00D-01 BMatC= 9.52D-01 BMatP= 9.52D-01
 IDIUse=3 WtCom= 3.22D-01 WtEn= 6.78D-01
 Coeff-Com:  0.100D+01
 Coeff-En:   0.100D+01
 Coeff:      0.100D+01
 Gap=     0.317 Goal=   None    Shift=    0.000
 GapD=    0.317 DampG=1.000 DampE=0.500 DampFc=0.5000 IDamp=-1.
 Damping current iteration by 5.00D-01
 RMSDP=8.17D-02 MaxDP=5.06D+00              OVMax= 4.52D-02

 Cycle   2  Pass 1  IDiag  1:
 RMSU=  8.83D-03    CP:  7.56D-01
 E= -463.200713683449     Delta-E=       -0.049247469862 Rises=F Damp=T
 DIIS: error= 3.24D-02 at cycle   2 NSaved=   2.
 NSaved= 2 IEnMin= 2 EnMin= -463.200713683449     IErMin= 2 ErrMin= 3.24D-02
 ErrMax= 3.24D-02  0.00D+00 EMaxC= 1.00D-01 BMatC= 2.16D-01 BMatP= 9.52D-01
 IDIUse=3 WtCom= 6.76D-01 WtEn= 3.24D-01
 Coeff-Com: -0.883D+00 0.188D+01
 Coeff-En:   0.000D+00 0.100D+01
 Coeff:     -0.597D+00 0.160D+01
 Gap=     0.323 Goal=   None    Shift=    0.000
 RMSDP=3.89D-02 MaxDP=2.44D+00 DE=-4.92D-02 OVMax= 3.79D-02

 Cycle   3  Pass 1  IDiag  1:
 RMSU=  4.30D-03    CP:  5.20D-01  1.06D+00
 E= -463.245034589842     Delta-E=       -0.044320906394 Rises=F Damp=F
 DIIS: error= 5.86D-03 at cycle   3 NSaved=   3.
 NSaved= 3 IEnMin= 3 EnMin= -463.245034589842     IErMin= 3 ErrMin= 5.86D-03
 ErrMax= 5.86D-03  0.00D+00 EMaxC= 1.00D-01 BMatC= 4.30D-03 BMatP= 2.16D-01
 IDIUse=3 WtCom= 9.41D-01 WtEn= 5.86D-02
 Coeff-Com: -0.361D+00 0.769D+00 0.592D+00
 Coeff-En:   0.000D+00 0.000D+00 0.100D+01
 Coeff:     -0.340D+00 0.724D+00 0.616D+00
 Gap=     0.322 Goal=   None    Shift=    0.000
 RMSDP=5.25D-03 MaxDP=3.20D-01 DE=-4.43D-02 OVMax= 2.12D-02

 Cycle   4  Pass 1  IDiag  1:
 RMSU=  1.18D-03    CP:  4.94D-01  1.36D+00  6.74D-01
 E= -463.248831587053     Delta-E=       -0.003796997211 Rises=F Damp=F
 DIIS: error= 1.94D-03 at cycle   4 NSaved=   4.
 NSaved= 4 IEnMin= 4 EnMin= -463.248831587053     IErMin= 4 ErrMin= 1.94D-03
 ErrMax= 1.94D-03  0.00D+00 EMaxC= 1.00D-01 BMatC= 2.91D-04 BMatP= 4.30D-03
 IDIUse=3 WtCom= 9.81D-01 WtEn= 1.94D-02
 Coeff-Com: -0.128D+00 0.275D+00 0.293D+00 0.560D+00
 Coeff-En:   0.000D+00 0.000D+00 0.000D+00 0.100D+01
 Coeff:     -0.126D+00 0.270D+00 0.287D+00 0.569D+00
 Gap=     0.321 Goal=   None    Shift=    0.000
 RMSDP=1.24D-03 MaxDP=8.02D-02 DE=-3.80D-03 OVMax= 5.75D-03

 Cycle   5  Pass 1  IDiag  1:
 RMSU=  4.49D-04    CP:  4.89D-01  1.34D+00  7.47D-01  5.00D-01
 E= -463.249138591316     Delta-E=       -0.000307004263 Rises=F Damp=F
 DIIS: error= 3.99D-04 at cycle   5 NSaved=   5.
 NSaved= 5 IEnMin= 5 EnMin= -463.249138591316     IErMin= 5 ErrMin= 3.99D-04
 ErrMax= 3.99D-04  0.00D+00 EMaxC= 1.00D-01 BMatC= 9.31D-06 BMatP= 2.91D-04
 IDIUse=3 WtCom= 9.96D-01 WtEn= 3.99D-03
 Coeff-Com:  0.277D-01-0.593D-01-0.329D-01 0.125D+00 0.940D+00
 Coeff-En:   0.000D+00 0.000D+00 0.000D+00 0.000D+00 0.100D+01
 Coeff:      0.276D-01-0.591D-01-0.328D-01 0.125D+00 0.940D+00
 Gap=     0.322 Goal=   None    Shift=    0.000
 RMSDP=3.10D-04 MaxDP=1.79D-02 DE=-3.07D-04 OVMax= 1.73D-03

 Cycle   6  Pass 1  IDiag  1:
 RMSU=  7.10D-05    CP:  4.88D-01  1.32D+00  7.72D-01  5.03D-01  1.29D+00
 E= -463.249151456790     Delta-E=       -0.000012865474 Rises=F Damp=F
 DIIS: error= 5.99D-05 at cycle   6 NSaved=   6.
 NSaved= 6 IEnMin= 6 EnMin= -463.249151456790     IErMin= 6 ErrMin= 5.99D-05
 ErrMax= 5.99D-05  0.00D+00 EMaxC= 1.00D-01 BMatC= 4.69D-07 BMatP= 9.31D-06
 IDIUse=1 WtCom= 1.00D+00 WtEn= 0.00D+00
 Coeff-Com:  0.119D-01-0.255D-01-0.166D-01 0.313D-01 0.324D+00 0.675D+00
 Coeff:      0.119D-01-0.255D-01-0.166D-01 0.313D-01 0.324D+00 0.675D+00
 Gap=     0.322 Goal=   None    Shift=    0.000
 RMSDP=8.16D-05 MaxDP=5.09D-03 DE=-1.29D-05 OVMax= 2.78D-04

 Cycle   7  Pass 1  IDiag  1:
 RMSU=  1.56D-05    CP:  4.88D-01  1.32D+00  7.77D-01  4.83D-01  1.35D+00
                    CP:  1.22D+00
 E= -463.249152027470     Delta-E=       -0.000000570680 Rises=F Damp=F
 DIIS: error= 2.26D-05 at cycle   7 NSaved=   7.
 NSaved= 7 IEnMin= 7 EnMin= -463.249152027470     IErMin= 7 ErrMin= 2.26D-05
 ErrMax= 2.26D-05  0.00D+00 EMaxC= 1.00D-01 BMatC= 5.77D-08 BMatP= 4.69D-07
 IDIUse=1 WtCom= 1.00D+00 WtEn= 0.00D+00
 Coeff-Com: -0.241D-02 0.517D-02 0.227D-02-0.191D-01-0.112D+00 0.179D+00
 Coeff-Com:  0.947D+00
 Coeff:     -0.241D-02 0.517D-02 0.227D-02-0.191D-01-0.112D+00 0.179D+00
 Coeff:      0.947D+00
 Gap=     0.322 Goal=   None    Shift=    0.000
 RMSDP=5.49D-05 MaxDP=3.55D-03 DE=-5.71D-07 OVMax= 2.10D-04

 Cycle   8  Pass 1  IDiag  1:
 RMSU=  5.54D-06    CP:  4.88D-01  1.31D+00  7.81D-01  4.65D-01  1.42D+00
                    CP:  1.42D+00  1.34D+00
 E= -463.249152136478     Delta-E=       -0.000000109008 Rises=F Damp=F
 DIIS: error= 4.06D-06 at cycle   8 NSaved=   8.
 NSaved= 8 IEnMin= 8 EnMin= -463.249152136478     IErMin= 8 ErrMin= 4.06D-06
 ErrMax= 4.06D-06  0.00D+00 EMaxC= 1.00D-01 BMatC= 1.25D-09 BMatP= 5.77D-08
 IDIUse=1 WtCom= 1.00D+00 WtEn= 0.00D+00
 Coeff-Com: -0.359D-03 0.766D-03 0.513D-03-0.130D-02-0.794D-02-0.142D-01
 Coeff-Com: -0.308D-01 0.105D+01
 Coeff:     -0.359D-03 0.766D-03 0.513D-03-0.130D-02-0.794D-02-0.142D-01
 Coeff:     -0.308D-01 0.105D+01
 Gap=     0.322 Goal=   None    Shift=    0.000
 RMSDP=1.46D-05 MaxDP=9.77D-04 DE=-1.09D-07 OVMax= 4.22D-05

 Cycle   9  Pass 1  IDiag  1:
 RMSU=  1.07D-06    CP:  4.88D-01  1.31D+00  7.82D-01  4.61D-01  1.42D+00
                    CP:  1.45D+00  1.48D+00  1.29D+00
 E= -463.249152140349     Delta-E=       -0.000000003871 Rises=F Damp=F
 DIIS: error= 2.16D-06 at cycle   9 NSaved=   9.
 NSaved= 9 IEnMin= 9 EnMin= -463.249152140349     IErMin= 9 ErrMin= 2.16D-06
 ErrMax= 2.16D-06  0.00D+00 EMaxC= 1.00D-01 BMatC= 3.18D-10 BMatP= 1.25D-09
 IDIUse=1 WtCom= 1.00D+00 WtEn= 0.00D+00
 Coeff-Com:  0.167D-03-0.363D-03-0.833D-04 0.194D-02 0.114D-01-0.252D-01
 Coeff-Com: -0.134D+00 0.382D+00 0.764D+00
 Coeff:      0.167D-03-0.363D-03-0.833D-04 0.194D-02 0.114D-01-0.252D-01
 Coeff:     -0.134D+00 0.382D+00 0.764D+00
 Gap=     0.322 Goal=   None    Shift=    0.000
 RMSDP=3.13D-06 MaxDP=1.86D-04 DE=-3.87D-09 OVMax= 1.72D-05

 Cycle  10  Pass 1  IDiag  1:
 RMSU=  2.12D-07    CP:  4.88D-01  1.31D+00  7.82D-01  4.60D-01  1.42D+00
                    CP:  1.46D+00  1.52D+00  1.39D+00  1.33D+00
 E= -463.249152140919     Delta-E=       -0.000000000570 Rises=F Damp=F
 DIIS: error= 3.31D-07 at cycle  10 NSaved=  10.
 NSaved=10 IEnMin=10 EnMin= -463.249152140919     IErMin=10 ErrMin= 3.31D-07
 ErrMax= 3.31D-07  0.00D+00 EMaxC= 1.00D-01 BMatC= 2.44D-11 BMatP= 3.18D-10
 IDIUse=1 WtCom= 1.00D+00 WtEn= 0.00D+00
 Coeff-Com:  0.593D-04-0.127D-03-0.494D-04 0.501D-03 0.264D-02-0.288D-02
 Coeff-Com: -0.240D-01-0.358D-01 0.186D+00 0.874D+00
 Coeff:      0.593D-04-0.127D-03-0.494D-04 0.501D-03 0.264D-02-0.288D-02
 Coeff:     -0.240D-01-0.358D-01 0.186D+00 0.874D+00
 Gap=     0.322 Goal=   None    Shift=    0.000
 RMSDP=4.24D-07 MaxDP=2.72D-05 DE=-5.70D-10 OVMax= 3.83D-06

 Cycle  11  Pass 1  IDiag  1:
 RMSU=  9.83D-08    CP:  4.88D-01  1.31D+00  7.82D-01  4.60D-01  1.42D+00
                    CP:  1.46D+00  1.53D+00  1.41D+00  1.46D+00  1.20D+00
 E= -463.249152140963     Delta-E=       -0.000000000044 Rises=F Damp=F
 DIIS: error= 1.15D-07 at cycle  11 NSaved=  11.
 NSaved=11 IEnMin=11 EnMin= -463.249152140963     IErMin=11 ErrMin= 1.15D-07
 ErrMax= 1.15D-07  0.00D+00 EMaxC= 1.00D-01 BMatC= 9.68D-13 BMatP= 2.44D-11
 IDIUse=1 WtCom= 1.00D+00 WtEn= 0.00D+00
 Coeff-Com: -0.150D-04 0.326D-04 0.126D-04-0.171D-03-0.103D-02 0.240D-02
 Coeff-Com:  0.107D-01-0.263D-01-0.392D-01-0.120D+00 0.117D+01
 Coeff:     -0.150D-04 0.326D-04 0.126D-04-0.171D-03-0.103D-02 0.240D-02
 Coeff:      0.107D-01-0.263D-01-0.392D-01-0.120D+00 0.117D+01
 Gap=     0.322 Goal=   None    Shift=    0.000
 RMSDP=2.70D-07 MaxDP=1.77D-05 DE=-4.41D-11 OVMax= 1.03D-06

 Cycle  12  Pass 1  IDiag  1:
 RMSU=  2.24D-08    CP:  4.88D-01  1.31D+00  7.82D-01  4.60D-01  1.42D+00
                    CP:  1.46D+00  1.52D+00  1.41D+00  1.51D+00  1.30D+00
                    CP:  1.22D+00
 E= -463.249152140963     Delta-E=        0.000000000000 Rises=F Damp=F
 DIIS: error= 2.56D-08 at cycle  12 NSaved=  12.
 NSaved=12 IEnMin=11 EnMin= -463.249152140963     IErMin=12 ErrMin= 2.56D-08
 ErrMax= 2.56D-08  0.00D+00 EMaxC= 1.00D-01 BMatC= 8.82D-14 BMatP= 9.68D-13
 IDIUse=1 WtCom= 1.00D+00 WtEn= 0.00D+00
 Coeff-Com: -0.147D-05 0.310D-05 0.240D-05-0.737D-05-0.280D-04-0.167D-04
 Coeff-Com: -0.131D-03 0.425D-02 0.482D-03-0.579D-01-0.133D+00 0.119D+01
 Coeff:     -0.147D-05 0.310D-05 0.240D-05-0.737D-05-0.280D-04-0.167D-04
 Coeff:     -0.131D-03 0.425D-02 0.482D-03-0.579D-01-0.133D+00 0.119D+01
 Gap=     0.322 Goal=   None    Shift=    0.000
 RMSDP=6.43D-08 MaxDP=3.89D-06 DE= 4.55D-13 OVMax= 2.88D-07

 Cycle  13  Pass 1  IDiag  1:
 RMSU=  6.00D-09    CP:  4.88D-01  1.31D+00  7.82D-01  4.60D-01  1.42D+00
                    CP:  1.46D+00  1.52D+00  1.41D+00  1.51D+00  1.31D+00
                    CP:  1.27D+00  1.33D+00
 E= -463.249152140954     Delta-E=        0.000000000009 Rises=F Damp=F
 DIIS: error= 5.93D-09 at cycle  13 NSaved=  13.
 NSaved=13 IEnMin=11 EnMin= -463.249152140963     IErMin=13 ErrMin= 5.93D-09
 ErrMax= 5.93D-09  0.00D+00 EMaxC= 1.00D-01 BMatC= 4.01D-15 BMatP= 8.82D-14
 IDIUse=1 WtCom= 1.00D+00 WtEn= 0.00D+00
 Coeff-Com:  0.630D-06-0.138D-05-0.489D-06 0.774D-05 0.504D-04-0.111D-03
 Coeff-Com: -0.589D-03 0.170D-02 0.327D-02-0.143D-02-0.764D-01 0.118D+00
 Coeff-Com:  0.955D+00
 Coeff:      0.630D-06-0.138D-05-0.489D-06 0.774D-05 0.504D-04-0.111D-03
 Coeff:     -0.589D-03 0.170D-02 0.327D-02-0.143D-02-0.764D-01 0.118D+00
 Coeff:      0.955D+00
 Gap=     0.322 Goal=   None    Shift=    0.000
 RMSDP=7.92D-09 MaxDP=6.55D-07 DE= 9.09D-12 OVMax= 6.53D-08

 SCF Done:  E(RwB97XD) =  -463.249152141     A.U. after   13 cycles
            NFock= 13  Conv=0.79D-08     -V/T= 2.0048
 KE= 4.610169547040D+02 PE=-2.272693311996D+03 EE= 7.491953927552D+02
 Leave Link  502 at Sat Nov  5 21:35:03 2022, MaxMem= 16106127360 cpu:             767.0 elap:              24.1
 (Enter /opt/ap/G16/B01/g16/l601.exe)
 Copying SCF densities to generalized density rwf, IOpCl= 0 IROHF=0.

 **********************************************************************

            Population analysis using the SCF Density.

 **********************************************************************

 Orbital symmetries:
       Occupied  (A) (A) (A) (A) (A) (A) (A) (A) (A) (A) (A) (A)
                 (A) (A) (A) (A) (A) (A) (A) (A) (A) (A) (A) (A)
                 (A) (A) (A) (A) (A) (A) (A) (A) (A) (A) (A) (A)
                 (A) (A) (A) (A) (A)
       Virtual   (A) (A) (A) (A) (A) (A) (A) (A) (A) (A) (A) (A)
                 (A) (A) (A) (A) (A) (A) (A) (A) (A) (A) (A) (A)
                 (A) (A) (A) (A) (A) (A) (A) (A) (A) (A) (A) (A)
                 (A) (A) (A) (A) (A) (A) (A) (A) (A) (A) (A) (A)
                 (A) (A) (A) (A) (A) (A) (A) (A) (A) (A) (A) (A)
                 (A) (A) (A) (A) (A) (A) (A) (A) (A) (A) (A) (A)
                 (A) (A) (A) (A) (A) (A) (A) (A) (A) (A) (A) (A)
                 (A) (A) (A) (A) (A) (A) (A) (A) (A) (A) (A) (A)
                 (A) (A) (A) (A) (A) (A) (A) (A) (A) (A) (A) (A)
                 (A) (A) (A) (A) (A) (A) (A) (A) (A) (A) (A) (A)
                 (A) (A) (A) (A) (A) (A) (A) (A) (A) (A) (A) (A)
                 (A) (A) (A) (A) (A) (A) (A) (A) (A) (A) (A) (A)
                 (A) (A) (A) (A) (A) (A) (A) (A) (A) (A) (A) (A)
                 (A) (A) (A) (A) (A) (A) (A) (A) (A) (A) (A) (A)
                 (A) (A) (A) (A) (A) (A) (A) (A) (A) (A) (A) (A)
                 (A) (A) (A) (A) (A) (A) (A) (A) (A) (A) (A) (A)
                 (A) (A) (A) (A) (A) (A) (A) (A) (A) (A) (A) (A)
                 (A) (A) (A) (A) (A) (A) (A) (A) (A) (A) (A) (A)
                 (A) (A) (A) (A) (A) (A) (A) (A) (A) (A) (A) (A)
                 (A) (A) (A) (A) (A) (A) (A) (A) (A) (A) (A) (A)
                 (A) (A) (A) (A) (A) (A) (A) (A) (A) (A) (A) (A)
                 (A) (A) (A) (A) (A) (A) (A) (A) (A) (A) (A) (A)
                 (A) (A) (A) (A) (A) (A) (A) (A) (A) (A) (A) (A)
                 (A) (A) (A) (A) (A) (A) (A) (A) (A) (A) (A) (A)
                 (A) (A) (A)
 The electronic state is 1-A.
 Alpha  occ. eigenvalues --  -10.30572 -10.30542 -10.29413 -10.29413 -10.29405
 Alpha  occ. eigenvalues --  -10.29405 -10.29318 -10.29318 -10.29315 -10.29315
 Alpha  occ. eigenvalues --  -10.29261 -10.29261  -0.97678  -0.95357  -0.88295
 Alpha  occ. eigenvalues --   -0.85590  -0.84675  -0.82386  -0.72442  -0.72069
 Alpha  occ. eigenvalues --   -0.68723  -0.67535  -0.63021  -0.59187  -0.56681
 Alpha  occ. eigenvalues --   -0.55787  -0.53092  -0.52530  -0.51790  -0.51117
 Alpha  occ. eigenvalues --   -0.50437  -0.47591  -0.45176  -0.45140  -0.44089
 Alpha  occ. eigenvalues --   -0.42441  -0.41781  -0.36376  -0.33680  -0.33378
 Alpha  occ. eigenvalues --   -0.30136
 Alpha virt. eigenvalues --    0.02047   0.03847   0.04396   0.04558   0.04759
 Alpha virt. eigenvalues --    0.05605   0.05888   0.05942   0.07481   0.07879
 Alpha virt. eigenvalues --    0.08004   0.08501   0.09504   0.10211   0.11658
 Alpha virt. eigenvalues --    0.12715   0.13246   0.13287   0.15090   0.15215
 Alpha virt. eigenvalues --    0.15802   0.15938   0.16063   0.16603   0.16922
 Alpha virt. eigenvalues --    0.17441   0.17524   0.17655   0.17991   0.18653
 Alpha virt. eigenvalues --    0.18820   0.18911   0.19273   0.19821   0.20143
 Alpha virt. eigenvalues --    0.20370   0.20563   0.22786   0.22961   0.23210
 Alpha virt. eigenvalues --    0.23387   0.23900   0.24051   0.24145   0.25035
 Alpha virt. eigenvalues --    0.25620   0.25947   0.26668   0.27316   0.27679
 Alpha virt. eigenvalues --    0.28105   0.28620   0.28874   0.30302   0.30428
 Alpha virt. eigenvalues --    0.31165   0.31204   0.31356   0.31517   0.31520
 Alpha virt. eigenvalues --    0.33855   0.33962   0.34209   0.34301   0.35730
 Alpha virt. eigenvalues --    0.35801   0.35870   0.36296   0.36913   0.37178
 Alpha virt. eigenvalues --    0.37355   0.39212   0.40595   0.41002   0.41907
 Alpha virt. eigenvalues --    0.42019   0.42840   0.43487   0.47348   0.47618
 Alpha virt. eigenvalues --    0.48486   0.56617   0.58439   0.58701   0.61057
 Alpha virt. eigenvalues --    0.61514   0.61568   0.62507   0.62726   0.62895
 Alpha virt. eigenvalues --    0.63865   0.64341   0.64353   0.65811   0.65938
 Alpha virt. eigenvalues --    0.66029   0.67301   0.68751   0.69142   0.69606
 Alpha virt. eigenvalues --    0.70913   0.72283   0.72834   0.74499   0.75012
 Alpha virt. eigenvalues --    0.76060   0.76938   0.77327   0.78210   0.78403
 Alpha virt. eigenvalues --    0.79702   0.80746   0.81448   0.82792   0.82852
 Alpha virt. eigenvalues --    0.83794   0.86603   0.89204   0.89633   0.90490
 Alpha virt. eigenvalues --    0.91393   0.91708   0.93049   0.93285   0.94380
 Alpha virt. eigenvalues --    0.94476   0.95628   0.96430   0.96696   0.98501
 Alpha virt. eigenvalues --    0.99751   1.00556   1.00581   1.00861   1.03187
 Alpha virt. eigenvalues --    1.06336   1.07103   1.08535   1.09737   1.09822
 Alpha virt. eigenvalues --    1.10886   1.13379   1.14053   1.16572   1.17378
 Alpha virt. eigenvalues --    1.18769   1.19913   1.20821   1.24310   1.24441
 Alpha virt. eigenvalues --    1.24955   1.38526   1.39202   1.39450   1.41369
 Alpha virt. eigenvalues --    1.55221   1.57096   1.57254   1.57984   1.58207
 Alpha virt. eigenvalues --    1.60316   1.61286   1.62687   1.63292   1.65349
 Alpha virt. eigenvalues --    1.65399   1.65475   1.66653   1.68231   1.70369
 Alpha virt. eigenvalues --    1.71618   1.74000   1.75127   1.75701   1.78075
 Alpha virt. eigenvalues --    1.78204   1.80988   1.82722   1.84596   1.85463
 Alpha virt. eigenvalues --    1.85674   1.87419   1.89657   1.91847   1.92014
 Alpha virt. eigenvalues --    1.94216   1.98486   1.98814   1.99231   2.00652
 Alpha virt. eigenvalues --    2.03049   2.04143   2.04198   2.04572   2.04827
 Alpha virt. eigenvalues --    2.06882   2.08123   2.09940   2.10142   2.11613
 Alpha virt. eigenvalues --    2.13293   2.13643   2.17177   2.17251   2.17279
 Alpha virt. eigenvalues --    2.22684   2.33467   2.35110   2.36020   2.41244
 Alpha virt. eigenvalues --    2.44824   2.47746   2.50194   2.51598   2.53108
 Alpha virt. eigenvalues --    2.55330   2.55729   2.56361   2.57783   2.60063
 Alpha virt. eigenvalues --    2.71551   2.71775   2.75355   2.76365   2.77726
 Alpha virt. eigenvalues --    2.78613   2.79367   2.80180   2.80473   2.81726
 Alpha virt. eigenvalues --    2.81750   2.82583   2.83593   2.85351   2.85819
 Alpha virt. eigenvalues --    2.86529   2.88496   2.90782   2.91521   2.91962
 Alpha virt. eigenvalues --    2.92083   2.92227   2.95925   2.99264   3.00809
 Alpha virt. eigenvalues --    3.03685   3.03712   3.03780   3.04116   3.08849
 Alpha virt. eigenvalues --    3.15545   3.19500   3.20650   3.29795   3.30258
 Alpha virt. eigenvalues --    3.32060   3.45950   3.46042   3.46789   3.48675
 Alpha virt. eigenvalues --    3.59279   3.60968   3.63269   3.63692   3.68046
 Alpha virt. eigenvalues --    3.73250   3.75394   3.87509   4.08721   4.11112
 Alpha virt. eigenvalues --    4.13483   4.14459   4.24394   4.24460   4.27697
 Alpha virt. eigenvalues --    4.27928   4.60525   4.92346   4.95772  23.69090
 Alpha virt. eigenvalues --   23.84802  24.07260  24.08741  24.09700  24.09846
 Alpha virt. eigenvalues --   24.18484  24.20212  24.22269  24.22430  24.30864
 Alpha virt. eigenvalues --   24.31677
          Condensed to atoms (all electrons):
               1          2          3          4          5          6
     1  C   22.622076   0.488998   0.486886  -1.842394  -0.042207 -11.144084
     2  C    0.488998  16.915884  -6.363882  -1.160561   0.719423  -3.509628
     3  C    0.486886  -6.363882  16.897318  -0.464087  -0.095060  -3.491552
     4  C   -1.842394  -1.160561  -0.464087   6.817549  -0.069727   2.111376
     5  H   -0.042207   0.719423  -0.095060  -0.069727   0.533811  -0.102286
     6  C  -11.144084  -3.509628  -3.491552   2.111376  -0.102286  22.623885
     7  C   -1.843083  -0.463144  -1.157712   0.392409  -0.017897   2.109444
     8  H   -0.042379  -0.095081   0.719194  -0.017916  -0.000071  -0.101815
     9  C    0.339857   0.785963   0.783470  -0.299601   0.046544  -1.597046
    10  H    0.027902  -0.143840   0.000886   0.448028  -0.016536   0.054683
    11  C   -3.506107  -0.910192   0.138619   0.151948  -0.118052   0.495355
    12  C   -3.493233   0.142681  -0.905750   0.312252   0.018078   0.479896
    13  H    0.027764   0.000870  -0.143616   0.024246  -0.000350   0.054652
    14  H    0.038715   0.006353   0.006340  -0.054858   0.000757  -0.039155
    15  C    2.112195   0.149173   0.314594  -0.046471   0.004294  -1.844487
    16  H   -0.102058  -0.118158   0.017949   0.004367  -0.001998  -0.042229
    17  C    2.107664   0.311685   0.152039  -0.125557   0.025909  -1.840889
    18  H   -0.101878   0.018034  -0.117907   0.025955  -0.001731  -0.042491
    19  C   -1.596393  -0.137610  -0.138716   0.058440  -0.020220   0.339947
    20  H    0.054677   0.006497   0.002356  -0.000263   0.001131   0.027860
    21  H    0.054600   0.002306   0.006547  -0.001202   0.000413   0.027837
    22  H   -0.039146  -0.003188  -0.003229   0.001468  -0.000533   0.038717
               7          8          9         10         11         12
     1  C   -1.843083  -0.042379   0.339857   0.027902  -3.506107  -3.493233
     2  C   -0.463144  -0.095081   0.785963  -0.143840  -0.910192   0.142681
     3  C   -1.157712   0.719194   0.783470   0.000886   0.138619  -0.905750
     4  C    0.392409  -0.017916  -0.299601   0.448028   0.151948   0.312252
     5  H   -0.017897  -0.000071   0.046544  -0.016536  -0.118052   0.018078
     6  C    2.109444  -0.101815  -1.597046   0.054683   0.495355   0.479896
     7  C    6.816502  -0.069665  -0.298883   0.024211   0.313868   0.149405
     8  H   -0.069665   0.533845   0.046471  -0.000351   0.017898  -0.117989
     9  C   -0.298883   0.046471   6.656900  -0.098742  -0.138801  -0.137452
    10  H    0.024211  -0.000351  -0.098742   0.482959   0.006541   0.002320
    11  C    0.313868   0.017898  -0.138801   0.006541  16.907939  -6.366052
    12  C    0.149405  -0.117989  -0.137452   0.002320  -6.366052  16.907808
    13  H    0.447938  -0.016528  -0.098720   0.001123   0.002344   0.006499
    14  H   -0.054869   0.000756   0.445217  -0.009743  -0.003227  -0.003189
    15  C   -0.125494   0.026025   0.058368  -0.000251  -1.159519  -0.463841
    16  H    0.025978  -0.001738  -0.020261   0.001134   0.719504  -0.095291
    17  C   -0.045826   0.004355   0.058333  -0.001200  -0.461066  -1.159662
    18  H    0.004274  -0.002005  -0.020223   0.000414  -0.095011   0.719212
    19  C    0.058225  -0.020268  -0.024617  -0.000077   0.784678   0.783690
    20  H   -0.001200   0.000415  -0.000076   0.000124  -0.143858   0.000980
    21  H   -0.000242   0.001135  -0.000078   0.000021   0.000875  -0.143618
    22  H    0.001463  -0.000535  -0.000636   0.000009   0.006376   0.006293
              13         14         15         16         17         18
     1  C    0.027764   0.038715   2.112195  -0.102058   2.107664  -0.101878
     2  C    0.000870   0.006353   0.149173  -0.118158   0.311685   0.018034
     3  C   -0.143616   0.006340   0.314594   0.017949   0.152039  -0.117907
     4  C    0.024246  -0.054858  -0.046471   0.004367  -0.125557   0.025955
     5  H   -0.000350   0.000757   0.004294  -0.001998   0.025909  -0.001731
     6  C    0.054652  -0.039155  -1.844487  -0.042229  -1.840889  -0.042491
     7  C    0.447938  -0.054869  -0.125494   0.025978  -0.045826   0.004274
     8  H   -0.016528   0.000756   0.026025  -0.001738   0.004355  -0.002005
     9  C   -0.098720   0.445217   0.058368  -0.020261   0.058333  -0.020223
    10  H    0.001123  -0.009743  -0.000251   0.001134  -0.001200   0.000414
    11  C    0.002344  -0.003227  -1.159519   0.719504  -0.461066  -0.095011
    12  C    0.006499  -0.003189  -0.463841  -0.095291  -1.159662   0.719212
    13  H    0.482953  -0.009744  -0.001205   0.000414  -0.000256   0.001132
    14  H   -0.009744   0.476194   0.001466  -0.000534   0.001465  -0.000533
    15  C   -0.001205   0.001466   6.818316  -0.069637   0.391848  -0.017937
    16  H    0.000414  -0.000534  -0.069637   0.533799  -0.017808  -0.000073
    17  C   -0.000256   0.001465   0.391848  -0.017808   6.815699  -0.069741
    18  H    0.001132  -0.000533  -0.017937  -0.000073  -0.069741   0.533847
    19  C   -0.000076  -0.000636  -0.299209   0.046469  -0.298372   0.046505
    20  H    0.000021   0.000009   0.448037  -0.016530   0.024176  -0.000350
    21  H    0.000124   0.000009   0.024216  -0.000349   0.447898  -0.016534
    22  H    0.000009  -0.000012  -0.054915   0.000756  -0.054803   0.000756
              19         20         21         22
     1  C   -1.596393   0.054677   0.054600  -0.039146
     2  C   -0.137610   0.006497   0.002306  -0.003188
     3  C   -0.138716   0.002356   0.006547  -0.003229
     4  C    0.058440  -0.000263  -0.001202   0.001468
     5  H   -0.020220   0.001131   0.000413  -0.000533
     6  C    0.339947   0.027860   0.027837   0.038717
     7  C    0.058225  -0.001200  -0.000242   0.001463
     8  H   -0.020268   0.000415   0.001135  -0.000535
     9  C   -0.024617  -0.000076  -0.000078  -0.000636
    10  H   -0.000077   0.000124   0.000021   0.000009
    11  C    0.784678  -0.143858   0.000875   0.006376
    12  C    0.783690   0.000980  -0.143618   0.006293
    13  H   -0.000076   0.000021   0.000124   0.000009
    14  H   -0.000636   0.000009   0.000009  -0.000012
    15  C   -0.299209   0.448037   0.024216  -0.054915
    16  H    0.046469  -0.016530  -0.000349   0.000756
    17  C   -0.298372   0.024176   0.447898  -0.054803
    18  H    0.046505  -0.000350  -0.016534   0.000756
    19  C    6.656301  -0.098735  -0.098682   0.445220
    20  H   -0.098735   0.482962   0.001122  -0.009746
    21  H   -0.098682   0.001122   0.482952  -0.009740
    22  H    0.445220  -0.009746  -0.009740   0.476196
 Mulliken charges:
               1
     1  C    1.391628
     2  C   -0.642584
     3  C   -0.644687
     4  C   -0.265402
     5  H    0.136305
     6  C    1.392012
     7  C   -0.265701
     8  H    0.136248
     9  C   -0.485988
    10  H    0.220387
    11  C   -0.644059
    12  C   -0.643037
    13  H    0.220404
    14  H    0.199219
    15  C   -0.265567
    16  H    0.136294
    17  C   -0.265891
    18  H    0.136284
    19  C   -0.485866
    20  H    0.220392
    21  H    0.220388
    22  H    0.199220
 Sum of Mulliken charges =  -0.00000
 Mulliken charges with hydrogens summed into heavy atoms:
               1
     1  C    1.391628
     2  C   -0.506278
     3  C   -0.508440
     4  C   -0.045015
     6  C    1.392012
     7  C   -0.045297
     9  C   -0.286769
    11  C   -0.507765
    12  C   -0.506752
    15  C   -0.045175
    17  C   -0.045503
    19  C   -0.286646
 Electronic spatial extent (au):  <R**2>=           2311.9469
 Charge=              0.0000 electrons
 Dipole moment (field-independent basis, Debye):
    X=              0.0000    Y=             -0.0001    Z=              0.0004  Tot=              0.0004
 Quadrupole moment (field-independent basis, Debye-Ang):
   XX=            -61.5175   YY=            -62.2203   ZZ=            -76.9218
   XY=              0.0002   XZ=             -0.0006   YZ=             -0.0001
 Traceless Quadrupole moment (field-independent basis, Debye-Ang):
   XX=              5.3691   YY=              4.6662   ZZ=            -10.0352
   XY=              0.0002   XZ=             -0.0006   YZ=             -0.0001
 Octapole moment (field-independent basis, Debye-Ang**2):
  XXX=              0.0005  YYY=             -0.0011  ZZZ=              0.0011  XYY=             -0.0003
  XXY=             -0.0007  XXZ=              0.0019  XZZ=              0.0003  YZZ=             -0.0004
  YYZ=              0.0028  XYZ=             -9.2895
 Hexadecapole moment (field-independent basis, Debye-Ang**3):
 XXXX=          -2299.0318 YYYY=           -514.1928 ZZZZ=           -130.7064 XXXY=             -0.0001
 XXXZ=             -0.0194 YYYX=              0.0058 YYYZ=             -0.0002 ZZZX=             -0.0004
 ZZZY=             -0.0002 XXYY=           -474.0496 XXZZ=           -501.7775 YYZZ=           -119.7263
 XXYZ=             -0.0021 YYXZ=              0.0020 ZZXY=             -0.0033
 N-N= 5.992318123954D+02 E-N=-2.272693311703D+03  KE= 4.610169547040D+02
 No NMR shielding tensors so no spin-rotation constants.
 Leave Link  601 at Sat Nov  5 21:35:04 2022, MaxMem= 16106127360 cpu:               5.4 elap:               0.2
 (Enter /opt/ap/G16/B01/g16/l9999.exe)
 1\1\GINC-N03\SP\RwB97XD\6-311++G(d,p)\C12H10\ROOT\05-Nov-2022\0\\#P wB
 97XD/6-311++G(d,p) scf=maxcycle=512\\_conf012.gjf nmol_natom 1_22\\0,1
 \C\C,1,1.40491871\C,1,1.40495292,2,118.20503621\C,2,1.3939373,1,120.91
 08946,3,0.05365643,0\H,2,1.08593095,1,119.3452094,3,-178.3624307,0\C,1
 ,1.48449301,2,120.90144423,4,-179.96388019,0\C,3,1.39389842,1,120.9105
 0598,2,0.03587687,0\H,3,1.08593608,1,119.34159615,2,-178.38281524,0\C,
 4,1.39606958,2,120.24555868,1,-0.09283196,0\H,4,1.08627898,2,119.66792
 041,1,-179.51486187,0\C,6,1.40492034,1,120.90156908,2,-30.,0\C,6,1.404
 95329,1,120.89324856,2,150.,0\H,7,1.08627928,3,119.67027175,1,-179.512
 58183,0\H,9,1.08597601,4,120.2602535,2,-179.95233103,0\C,11,1.39393437
 ,6,120.91099656,1,-179.95869964,0\H,11,1.08593173,6,119.34475907,1,1.6
 1891886,0\C,12,1.39390147,6,120.91022615,1,-179.94297913,0\H,12,1.0859
 3608,6,119.34175044,1,1.63241608,0\C,15,1.39607161,11,120.24535737,6,-
 0.10315482,0\H,15,1.08627786,11,119.66861247,6,-179.51844254,0\H,17,1.
 08627825,12,119.6702798,6,-179.51590091,0\H,19,1.08597601,15,120.25988
 597,11,-179.94731581,0\\Version=ES64L-G16RevB.01\State=1-A\HF=-463.249
 1521\RMSD=7.920e-09\Dipole=-0.000001,-0.0001481,-0.000022\Quadrupole=3
 .6602972,-6.7282219,3.0679247,1.4048362,0.5533814,-2.3448856\PG=C01 [X
 (C12H10)]\\@


 DON'T WORRY CHARLIE BROWN...WE LEARN MORE FROM LOSING 
 THAN WE DO FROM WINNING.
 THEN THAT MAKES ME THE SMARTEST PERSON IN THE WORLD...
 CHARLES SCHULZ 'PEANUTS'
 Job cpu time:       0 days  0 hours 13 minutes 31.8 seconds.
 Elapsed time:       0 days  0 hours  0 minutes 25.6 seconds.
 File lengths (MBytes):  RWF=     62 Int=      0 D2E=      0 Chk=      8 Scr=      1
 Normal termination of Gaussian 16 at Sat Nov  5 21:35:04 2022.
