 Entering Gaussian System, Link 0=g16
 Input=_conf017.gjf
 Output=_conf017.log
 Initial command:
 /opt/ap/G16/B01/g16/l1.exe "/tmp2/scr/Gau-24269.inp" -scrdir="/tmp2/scr/"
 Entering Link 1 = /opt/ap/G16/B01/g16/l1.exe PID=     24270.
  
 Copyright (c) 1988-2017, Gaussian, Inc.  All Rights Reserved.
  
 This is part of the Gaussian(R) 16 program.  It is based on
 the Gaussian(R) 09 system (copyright 2009, Gaussian, Inc.),
 the Gaussian(R) 03 system (copyright 2003, Gaussian, Inc.),
 the Gaussian(R) 98 system (copyright 1998, Gaussian, Inc.),
 the Gaussian(R) 94 system (copyright 1995, Gaussian, Inc.),
 the Gaussian 92(TM) system (copyright 1992, Gaussian, Inc.),
 the Gaussian 90(TM) system (copyright 1990, Gaussian, Inc.),
 the Gaussian 88(TM) system (copyright 1988, Gaussian, Inc.),
 the Gaussian 86(TM) system (copyright 1986, Carnegie Mellon
 University), and the Gaussian 82(TM) system (copyright 1983,
 Carnegie Mellon University). Gaussian is a federally registered
 trademark of Gaussian, Inc.
  
 This software contains proprietary and confidential information,
 including trade secrets, belonging to Gaussian, Inc.
  
 This software is provided under written license and may be
 used, copied, transmitted, or stored only in accord with that
 written license.
  
 The following legend is applicable only to US Government
 contracts under FAR:
  
                    RESTRICTED RIGHTS LEGEND
  
 Use, reproduction and disclosure by the US Government is
 subject to restrictions as set forth in subparagraphs (a)
 and (c) of the Commercial Computer Software - Restricted
 Rights clause in FAR 52.227-19.
  
 Gaussian, Inc.
 340 Quinnipiac St., Bldg. 40, Wallingford CT 06492
  
  
 ---------------------------------------------------------------
 Warning -- This program may not be used in any manner that
 competes with the business of Gaussian, Inc. or will provide
 assistance to any competitor of Gaussian, Inc.  The licensee
 of this program is prohibited from giving any competitor of
 Gaussian, Inc. access to this program.  By using this program,
 the user acknowledges that Gaussian, Inc. is engaged in the
 business of creating and licensing software in the field of
 computational chemistry and represents and warrants to the
 licensee that it is not a competitor of Gaussian, Inc. and that
 it will not use this program in any manner prohibited above.
 ---------------------------------------------------------------
  

 Cite this work as:
 Gaussian 16, Revision B.01,
 M. J. Frisch, G. W. Trucks, H. B. Schlegel, G. E. Scuseria, 
 M. A. Robb, J. R. Cheeseman, G. Scalmani, V. Barone, 
 G. A. Petersson, H. Nakatsuji, X. Li, M. Caricato, A. V. Marenich, 
 J. Bloino, B. G. Janesko, R. Gomperts, B. Mennucci, H. P. Hratchian, 
 J. V. Ortiz, A. F. Izmaylov, J. L. Sonnenberg, D. Williams-Young, 
 F. Ding, F. Lipparini, F. Egidi, J. Goings, B. Peng, A. Petrone, 
 T. Henderson, D. Ranasinghe, V. G. Zakrzewski, J. Gao, N. Rega, 
 G. Zheng, W. Liang, M. Hada, M. Ehara, K. Toyota, R. Fukuda, 
 J. Hasegawa, M. Ishida, T. Nakajima, Y. Honda, O. Kitao, H. Nakai, 
 T. Vreven, K. Throssell, J. A. Montgomery, Jr., J. E. Peralta, 
 F. Ogliaro, M. J. Bearpark, J. J. Heyd, E. N. Brothers, K. N. Kudin, 
 V. N. Staroverov, T. A. Keith, R. Kobayashi, J. Normand, 
 K. Raghavachari, A. P. Rendell, J. C. Burant, S. S. Iyengar, 
 J. Tomasi, M. Cossi, J. M. Millam, M. Klene, C. Adamo, R. Cammi, 
 J. W. Ochterski, R. L. Martin, K. Morokuma, O. Farkas, 
 J. B. Foresman, and D. J. Fox, Gaussian, Inc., Wallingford CT, 2016.
 
 ******************************************
 Gaussian 16:  ES64L-G16RevB.01 20-Dec-2017
                 5-Nov-2022 
 ******************************************
 %nprocshared=32
 Will use up to   32 processors via shared memory.
 %mem=120GB
 %chk=_conf017.chk
 ----------------------------------------
 #P wB97XD/6-311++G(d,p) scf=maxcycle=512
 ----------------------------------------
 1/38=1,172=1/1;
 2/12=2,17=6,18=5,40=1/2;
 3/5=4,6=6,7=1111,11=2,25=1,30=1,74=-58/1,2,3;
 4//1;
 5/5=2,7=512,38=5/2;
 6/7=2,8=2,9=2,10=2,28=1/1;
 99/5=1,9=1/99;
 Leave Link    1 at Sat Nov  5 21:34:59 2022, MaxMem= 16106127360 cpu:               1.6 elap:               0.1
 (Enter /opt/ap/G16/B01/g16/l101.exe)
 ----------------------------
 _conf017.gjf nmol_natom 1_22
 ----------------------------
 Symbolic Z-matrix:
 Charge =  0 Multiplicity = 1
 C
 C                    1     1.40492 
 C                    1     1.40495  2     118.20504 
 C                    2     1.39394  1     120.91089  3     0.05366  0
 H                    2     1.08593  1     119.34521  3    -178.36243  0
 C                    1     1.48449  2     120.90144  4    -179.96388  0
 C                    3     1.3939   1     120.91051  2     0.03588  0
 H                    3     1.08594  1     119.3416  2    -178.38282  0
 C                    4     1.39607  2     120.24556  1    -0.09283  0
 H                    4     1.08628  2     119.66792  1    -179.51486  0
 C                    6     1.40492  1     120.90157  2    -5.       0
 C                    6     1.40495  1     120.89325  2     175.     0
 H                    7     1.08628  3     119.67027  1    -179.51258  0
 H                    9     1.08598  4     120.26025  2    -179.95233  0
 C                    11    1.39393  6     120.911  1    -179.9587  0
 H                    11    1.08593  6     119.34476  1     1.61892  0
 C                    12    1.3939   6     120.91023  1    -179.94298  0
 H                    12    1.08594  6     119.34175  1     1.63242  0
 C                    15    1.39607  11    120.24536  6    -0.10315  0
 H                    15    1.08628  11    119.66861  6    -179.51844  0
 H                    17    1.08628  12    119.67028  6    -179.5159  0
 H                    19    1.08598  15    120.25989  11   -179.94732  0
 
 ITRead=  0  0  0  0  0  0  0  0  0  0  0  0  0  0  0  0  0  0  0  0
 ITRead=  0  0
 MicOpt= -1 -1 -1 -1 -1 -1 -1 -1 -1 -1 -1 -1 -1 -1 -1 -1 -1 -1 -1 -1
 MicOpt= -1 -1
 NAtoms=     22 NQM=       22 NQMF=       0 NMMI=      0 NMMIF=      0
                NMic=       0 NMicF=      0.
                    Isotopes and Nuclear Properties:
 (Nuclear quadrupole moments (NQMom) in fm**2, nuclear magnetic moments (NMagM)
  in nuclear magnetons)

  Atom         1           2           3           4           5           6           7           8           9          10
 IAtWgt=          12          12          12          12           1          12          12           1          12           1
 AtmWgt=  12.0000000  12.0000000  12.0000000  12.0000000   1.0078250  12.0000000  12.0000000   1.0078250  12.0000000   1.0078250
 NucSpn=           0           0           0           0           1           0           0           1           0           1
 AtZEff=  -0.0000000  -0.0000000  -0.0000000  -0.0000000  -0.0000000  -0.0000000  -0.0000000  -0.0000000  -0.0000000  -0.0000000
 NQMom=    0.0000000   0.0000000   0.0000000   0.0000000   0.0000000   0.0000000   0.0000000   0.0000000   0.0000000   0.0000000
 NMagM=    0.0000000   0.0000000   0.0000000   0.0000000   2.7928460   0.0000000   0.0000000   2.7928460   0.0000000   2.7928460
 AtZNuc=   6.0000000   6.0000000   6.0000000   6.0000000   1.0000000   6.0000000   6.0000000   1.0000000   6.0000000   1.0000000

  Atom        11          12          13          14          15          16          17          18          19          20
 IAtWgt=          12          12           1           1          12           1          12           1          12           1
 AtmWgt=  12.0000000  12.0000000   1.0078250   1.0078250  12.0000000   1.0078250  12.0000000   1.0078250  12.0000000   1.0078250
 NucSpn=           0           0           1           1           0           1           0           1           0           1
 AtZEff=  -0.0000000  -0.0000000  -0.0000000  -0.0000000  -0.0000000  -0.0000000  -0.0000000  -0.0000000  -0.0000000  -0.0000000
 NQMom=    0.0000000   0.0000000   0.0000000   0.0000000   0.0000000   0.0000000   0.0000000   0.0000000   0.0000000   0.0000000
 NMagM=    0.0000000   0.0000000   2.7928460   2.7928460   0.0000000   2.7928460   0.0000000   2.7928460   0.0000000   2.7928460
 AtZNuc=   6.0000000   6.0000000   1.0000000   1.0000000   6.0000000   1.0000000   6.0000000   1.0000000   6.0000000   1.0000000

  Atom        21          22
 IAtWgt=           1           1
 AtmWgt=   1.0078250   1.0078250
 NucSpn=           1           1
 AtZEff=  -0.0000000  -0.0000000
 NQMom=    0.0000000   0.0000000
 NMagM=    2.7928460   2.7928460
 AtZNuc=   1.0000000   1.0000000
 Leave Link  101 at Sat Nov  5 21:34:59 2022, MaxMem= 16106127360 cpu:               5.3 elap:               0.2
 (Enter /opt/ap/G16/B01/g16/l202.exe)
                          Input orientation:                          
 ---------------------------------------------------------------------
 Center     Atomic      Atomic             Coordinates (Angstroms)
 Number     Number       Type             X           Y           Z
 ---------------------------------------------------------------------
      1          6           0        0.000000    0.000000    0.000000
      2          6           0        0.000000    0.000000    1.404919
      3          6           0        1.238131    0.000000   -0.664020
      4          6           0        1.195952    0.001120    2.120990
      5          1           0       -0.946201   -0.027051    1.937101
      6          6           0       -1.273772   -0.000390   -0.762381
      7          6           0        2.434381   -0.000749    0.051479
      8          1           0        1.259850    0.026715   -1.749411
      9          6           0        2.418826    0.000311    1.447501
     10          1           0        1.172413   -0.006894    3.206985
     11          6           0       -2.509580   -0.105834   -0.102486
     12          6           0       -1.275959    0.104687   -2.163397
     13          1           0        3.380326    0.007295   -0.482493
     14          1           0        3.350700    0.000403    2.005133
     15          6           0       -3.705726   -0.107079   -0.818227
     16          1           0       -2.530849   -0.161350    0.981818
     17          6           0       -2.471841    0.105542   -2.879517
     18          1           0       -0.330295    0.160254   -2.694329
     19          6           0       -3.692419   -0.000687   -2.210175
     20          1           0       -4.650214   -0.181716   -0.286840
     21          1           0       -2.449714    0.179854   -3.963025
     22          1           0       -4.624202   -0.000773   -2.767959
 ---------------------------------------------------------------------
                    Distance matrix (angstroms):
                    1          2          3          4          5
     1  C    0.000000
     2  C    1.404919   0.000000
     3  C    1.404953   2.411116   0.000000
     4  C    2.434934   1.393937   2.785330   0.000000
     5  H    2.156012   1.085931   3.396745   2.150216   0.000000
     6  C    1.484493   2.513898   2.513829   3.796494   2.719415
     7  C    2.434925   2.785320   1.393898   2.411760   3.870994
     8  H    2.156008   3.396723   1.085936   3.871013   4.296501
     9  C    2.818861   2.419201   2.419207   1.396070   3.400568
    10  H    3.414579   2.149893   3.871569   1.086279   2.470128
    11  C    2.513901   2.929413   3.791024   4.322760   2.571046
    12  C    2.513826   3.791030   2.929120   4.947429   4.115845
    13  H    3.414594   3.871560   2.149884   3.398478   4.957262
    14  H    3.904837   3.404035   3.404016   2.157861   4.297527
    15  C    3.796494   4.322759   4.947421   5.716394   3.900413
    16  H    2.719411   2.571040   4.115827   3.900405   1.855185
    17  C    3.796414   4.947477   4.322437   6.202313   5.054204
    18  H    2.719225   4.115654   2.570564   5.053915   4.675957
    19  C    4.303351   5.167481   5.167293   6.531092   4.974164
    20  H    4.662595   4.951723   5.903211   6.325246   4.323141
    21  H    4.662511   5.903242   4.951362   7.094933   6.092196
    22  H    5.389327   6.228656   6.228444   7.601054   5.972100
                    6          7          8          9         10
     6  C    0.000000
     7  C    3.796415   0.000000
     8  H    2.719228   2.150228   0.000000
     9  C    4.303354   1.396108   3.400612   0.000000
    10  H    4.662588   3.398502   4.957280   2.156243   0.000000
    11  C    1.404920   4.947474   4.115645   5.167486   4.951712
    12  C    1.404953   4.322432   2.570563   5.167293   5.903218
    13  H    4.662512   1.086279   2.470197   2.156248   4.299689
    14  H    5.389330   2.157871   4.297551   1.085976   2.487858
    15  C    2.434934   6.202307   5.053905   6.531095   6.325236
    16  H    2.156010   5.054189   4.675935   4.974161   4.323121
    17  C    2.434925   5.716035   3.899855   6.530910   7.094980
    18  H    2.156010   3.899849   1.854525   4.973731   6.091927
    19  C    2.818858   6.530908   4.973733   7.122212   7.280951
    20  H    3.414583   7.094977   6.091914   7.280961   6.792669
    21  H    3.414594   6.324812   4.322546   7.280707   8.035155
    22  H    3.904834   7.600844   5.971622   8.208188   8.324707
                   11         12         13         14         15
    11  C    0.000000
    12  C    2.411119   0.000000
    13  H    5.903236   4.951355   0.000000
    14  H    6.228662   6.228443   2.487812   0.000000
    15  C    1.393934   2.785336   7.094923   7.601057   0.000000
    16  H    1.085932   3.396748   6.092178   5.972099   2.150219
    17  C    2.785320   1.393901   6.324811   7.600845   2.411763
    18  H    3.396725   1.085936   4.322537   5.971618   3.871016
    19  C    2.419198   2.419208   7.280705   8.208188   1.396072
    20  H    2.149897   3.871575   8.035146   8.324719   1.086278
    21  H    3.871558   2.149886   6.792145   8.324417   3.398478
    22  H    3.404029   3.404019   8.324415   9.294164   2.157859
                   16         17         18         19         20
    16  H    0.000000
    17  C    3.870997   0.000000
    18  H    4.296501   2.150234   0.000000
    19  C    3.400569   1.396107   3.400615   0.000000
    20  H    2.470145   3.398500   4.957282   2.156238   0.000000
    21  H    4.957264   1.086278   2.470204   2.156245   4.299683
    22  H    4.297527   2.157871   4.297556   1.085976   2.487844
                   21         22
    21  H    0.000000
    22  H    2.487812   0.000000
 Stoichiometry    C12H10
 Framework group  C1[X(C12H10)]
 Deg. of freedom    60
 Full point group                 C1      NOp   1
 Largest Abelian subgroup         C1      NOp   1
 Largest concise Abelian subgroup C1      NOp   1
                         Standard orientation:                         
 ---------------------------------------------------------------------
 Center     Atomic      Atomic             Coordinates (Angstroms)
 Number     Number       Type             X           Y           Z
 ---------------------------------------------------------------------
      1          6           0        0.742246    0.000100   -0.000151
      2          6           0        1.463757    1.204447   -0.052736
      3          6           0        1.463614   -1.204363    0.052672
      4          6           0        2.857694    1.204642   -0.053642
      5          1           0        0.925170    2.147297   -0.067004
      6          6           0       -0.742247    0.000102    0.000001
      7          6           0        2.857512   -1.204730    0.053661
      8          1           0        0.924840   -2.147110    0.067098
      9          6           0        3.561107   -0.000075   -0.000002
     10          1           0        3.395219    2.148023   -0.086816
     11          6           0       -1.463757    1.204446    0.052729
     12          6           0       -1.463614   -1.204372   -0.052585
     13          1           0        3.394957   -2.148152    0.086979
     14          1           0        4.647083   -0.000167    0.000084
     15          6           0       -2.857691    1.204640    0.053743
     16          1           0       -0.925160    2.147290    0.067127
     17          6           0       -2.857515   -1.204730   -0.053649
     18          1           0       -0.924841   -2.147121   -0.066864
     19          6           0       -3.561105   -0.000067   -0.000146
     20          1           0       -3.395224    2.148010    0.087085
     21          1           0       -3.394964   -2.148154   -0.086835
     22          1           0       -4.647081   -0.000152   -0.000230
 ---------------------------------------------------------------------
 Rotational constants (GHZ):           2.8585222           0.5577272           0.4669503
 Leave Link  202 at Sat Nov  5 21:34:59 2022, MaxMem= 16106127360 cpu:               0.3 elap:               0.0
 (Enter /opt/ap/G16/B01/g16/l301.exe)
 Standard basis: 6-311++G(d,p) (5D, 7F)
 Ernie: Thresh=  0.10000D-02 Tol=  0.10000D-05 Strict=F.
 There are   346 symmetry adapted cartesian basis functions of A   symmetry.
 There are   334 symmetry adapted basis functions of A   symmetry.
   334 basis functions,   522 primitive gaussians,   346 cartesian basis functions
    41 alpha electrons       41 beta electrons
       nuclear repulsion energy       599.7454456664 Hartrees.
 IExCor= 4639 DFT=T Ex+Corr=wB97XD ExCW=0 ScaHFX=  1.000000
 ScaDFX=  1.000000  1.000000  1.000000  1.000000 ScalE2=  1.000000  1.000000
 IRadAn=      5 IRanWt=     -1 IRanGd=            0 ICorTp=0 IEmpDi=121
 HFx  wShort=  0.000000 wLong=  0.200000 cFull=  0.222036 cShort=  0.000000 cLong=  0.777964
 DFx  wShort=  0.000000 wLong=  0.200000 cFull=  0.000000 cShort=  0.000000 cLong=  1.000000
 NAtoms=   22 NActive=   22 NUniq=   22 SFac= 1.00D+00 NAtFMM=   60 NAOKFM=F Big=F
 Integral buffers will be    131072 words long.
 Raffenetti 2 integral format.
 Two-electron integral symmetry is turned on.
 R6Disp:  Grimme-D2 Dispersion energy=       -0.0117715403 Hartrees.
 Nuclear repulsion after empirical dispersion term =      599.7336741261 Hartrees.
 Leave Link  301 at Sat Nov  5 21:34:59 2022, MaxMem= 16106127360 cpu:               1.2 elap:               0.0
 (Enter /opt/ap/G16/B01/g16/l302.exe)
 NPDir=0 NMtPBC=     1 NCelOv=     1 NCel=       1 NClECP=     1 NCelD=      1
         NCelK=      1 NCelE2=     1 NClLst=     1 CellRange=     0.0.
 One-electron integrals computed using PRISM.
 One-electron integral symmetry used in STVInt
 NBasis=   334 RedAO= T EigKep=  1.09D-06  NBF=   334
 NBsUse=   331 1.00D-06 EigRej=  3.63D-07 NBFU=   331
 Precomputing XC quadrature grid using
 IXCGrd= 4 IRadAn=           5 IRanWt=          -1 IRanGd=           0 AccXCQ= 0.00D+00.
 Generated NRdTot=       0 NPtTot=           0 NUsed=           0 NTot=          32
 NSgBfM=   346   346   346   346   346 MxSgAt=    22 MxSgA2=    22.
 Leave Link  302 at Sat Nov  5 21:34:59 2022, MaxMem= 16106127360 cpu:               7.6 elap:               0.2
 (Enter /opt/ap/G16/B01/g16/l303.exe)
 DipDrv:  MaxL=1.
 Leave Link  303 at Sat Nov  5 21:34:59 2022, MaxMem= 16106127360 cpu:               1.5 elap:               0.1
 (Enter /opt/ap/G16/B01/g16/l401.exe)
 ExpMin= 3.60D-02 ExpMax= 4.56D+03 ExpMxC= 6.82D+02 IAcc=3 IRadAn=         5 AccDes= 0.00D+00
 Harris functional with IExCor= 4639 and IRadAn=       5 diagonalized for initial guess.
 HarFok:  IExCor= 4639 AccDes= 0.00D+00 IRadAn=         5 IDoV= 1 UseB2=F ITyADJ=14
 ICtDFT=  3500011 ScaDFX=  1.000000  1.000000  1.000000  1.000000
 FoFCou: FMM=F IPFlag=           0 FMFlag=      100000 FMFlg1=           0
         NFxFlg=           0 DoJE=T BraDBF=F KetDBF=T FulRan=T
         wScrn=  0.000000 ICntrl=       500 IOpCl=  0 I1Cent=   200000004 NGrid=           0
         NMat0=    1 NMatS0=      1 NMatT0=    0 NMatD0=    1 NMtDS0=    0 NMtDT0=    0
 Petite list used in FoFCou.
 Harris En= -441.932375725875    
 JPrj=0 DoOrth=F DoCkMO=F.
 Leave Link  401 at Sat Nov  5 21:35:00 2022, MaxMem= 16106127360 cpu:              21.0 elap:               0.7
 (Enter /opt/ap/G16/B01/g16/l502.exe)
 Integral symmetry usage will be decided dynamically.
 Closed shell SCF:
 Using DIIS extrapolation, IDIIS=  1040.
 NGot= 16106127360 LenX= 16105873520 LenY= 16105753363
 Requested convergence on RMS density matrix=1.00D-08 within 512 cycles.
 Requested convergence on MAX density matrix=1.00D-06.
 Requested convergence on             energy=1.00D-06.
 No special actions if energy rises.
 Fock matrices will be formed incrementally for  20 cycles.

 Cycle   1  Pass 1  IDiag  1:
 FoFJK:  IHMeth= 1 ICntrl=       0 DoSepK=T KAlg= 0 I1Cent=           0 FoldK=F
 IRaf=         1 NMat=       1 IRICut=       1 DoRegI=T DoRafI=F ISym2E= 0 IDoP0=0 IntGTp=1.
 FoFCou: FMM=F IPFlag=           0 FMFlag=      100000 FMFlg1=           0
         NFxFlg=           0 DoJE=T BraDBF=F KetDBF=F FulRan=T
         wScrn=  0.000000 ICntrl=       500 IOpCl=  0 I1Cent=           0 NGrid=           0
         NMat0=    1 NMatS0=      1 NMatT0=    0 NMatD0=    1 NMtDS0=    0 NMtDT0=    0
 Symmetry not used in FoFCou.
 E= -463.147048871522    
 DIIS: error= 6.92D-02 at cycle   1 NSaved=   1.
 NSaved= 1 IEnMin= 1 EnMin= -463.147048871522     IErMin= 1 ErrMin= 6.92D-02
 ErrMax= 6.92D-02  0.00D+00 EMaxC= 1.00D-01 BMatC= 9.53D-01 BMatP= 9.53D-01
 IDIUse=3 WtCom= 3.08D-01 WtEn= 6.92D-01
 Coeff-Com:  0.100D+01
 Coeff-En:   0.100D+01
 Coeff:      0.100D+01
 Gap=     0.306 Goal=   None    Shift=    0.000
 GapD=    0.306 DampG=1.000 DampE=0.500 DampFc=0.5000 IDamp=-1.
 Damping current iteration by 5.00D-01
 RMSDP=2.97D-02 MaxDP=1.40D+00              OVMax= 4.65D-02

 Cycle   2  Pass 1  IDiag  1:
 RMSU=  8.02D-03    CP:  8.39D-01
 E= -463.196608836250     Delta-E=       -0.049559964727 Rises=F Damp=T
 DIIS: error= 3.36D-02 at cycle   2 NSaved=   2.
 NSaved= 2 IEnMin= 2 EnMin= -463.196608836250     IErMin= 2 ErrMin= 3.36D-02
 ErrMax= 3.36D-02  0.00D+00 EMaxC= 1.00D-01 BMatC= 2.16D-01 BMatP= 9.53D-01
 IDIUse=3 WtCom= 6.64D-01 WtEn= 3.36D-01
 Coeff-Com: -0.883D+00 0.188D+01
 Coeff-En:   0.000D+00 0.100D+01
 Coeff:     -0.586D+00 0.159D+01
 Gap=     0.313 Goal=   None    Shift=    0.000
 RMSDP=1.86D-02 MaxDP=1.13D+00 DE=-4.96D-02 OVMax= 3.81D-02

 Cycle   3  Pass 1  IDiag  1:
 RMSU=  4.30D-03    CP:  6.06D-01  1.05D+00
 E= -463.241396975144     Delta-E=       -0.044788138894 Rises=F Damp=F
 DIIS: error= 6.62D-03 at cycle   3 NSaved=   3.
 NSaved= 3 IEnMin= 3 EnMin= -463.241396975144     IErMin= 3 ErrMin= 6.62D-03
 ErrMax= 6.62D-03  0.00D+00 EMaxC= 1.00D-01 BMatC= 4.12D-03 BMatP= 2.16D-01
 IDIUse=3 WtCom= 9.34D-01 WtEn= 6.62D-02
 Coeff-Com: -0.354D+00 0.755D+00 0.599D+00
 Coeff-En:   0.000D+00 0.000D+00 0.100D+01
 Coeff:     -0.331D+00 0.705D+00 0.626D+00
 Gap=     0.312 Goal=   None    Shift=    0.000
 RMSDP=1.93D-03 MaxDP=9.39D-02 DE=-4.48D-02 OVMax= 2.10D-02

 Cycle   4  Pass 1  IDiag  1:
 RMSU=  8.81D-04    CP:  6.07D-01  1.24D+00  7.93D-01
 E= -463.244996481938     Delta-E=       -0.003599506794 Rises=F Damp=F
 DIIS: error= 2.09D-03 at cycle   4 NSaved=   4.
 NSaved= 4 IEnMin= 4 EnMin= -463.244996481938     IErMin= 4 ErrMin= 2.09D-03
 ErrMax= 2.09D-03  0.00D+00 EMaxC= 1.00D-01 BMatC= 3.01D-04 BMatP= 4.12D-03
 IDIUse=3 WtCom= 9.79D-01 WtEn= 2.09D-02
 Coeff-Com: -0.126D+00 0.270D+00 0.299D+00 0.557D+00
 Coeff-En:   0.000D+00 0.000D+00 0.000D+00 0.100D+01
 Coeff:     -0.123D+00 0.264D+00 0.293D+00 0.566D+00
 Gap=     0.312 Goal=   None    Shift=    0.000
 RMSDP=4.69D-04 MaxDP=1.45D-02 DE=-3.60D-03 OVMax= 5.95D-03

 Cycle   5  Pass 1  IDiag  1:
 RMSU=  2.82D-04    CP:  6.05D-01  1.27D+00  8.03D-01  7.70D-01
 E= -463.245313942087     Delta-E=       -0.000317460149 Rises=F Damp=F
 DIIS: error= 4.78D-04 at cycle   5 NSaved=   5.
 NSaved= 5 IEnMin= 5 EnMin= -463.245313942087     IErMin= 5 ErrMin= 4.78D-04
 ErrMax= 4.78D-04  0.00D+00 EMaxC= 1.00D-01 BMatC= 9.81D-06 BMatP= 3.01D-04
 IDIUse=3 WtCom= 9.95D-01 WtEn= 4.78D-03
 Coeff-Com:  0.277D-01-0.593D-01-0.342D-01 0.127D+00 0.939D+00
 Coeff-En:   0.000D+00 0.000D+00 0.000D+00 0.000D+00 0.100D+01
 Coeff:      0.276D-01-0.590D-01-0.340D-01 0.126D+00 0.939D+00
 Gap=     0.312 Goal=   None    Shift=    0.000
 RMSDP=1.44D-04 MaxDP=5.59D-03 DE=-3.17D-04 OVMax= 1.81D-03

 Cycle   6  Pass 1  IDiag  1:
 RMSU=  6.10D-05    CP:  6.04D-01  1.26D+00  8.16D-01  8.51D-01  1.02D+00
 E= -463.245327562217     Delta-E=       -0.000013620130 Rises=F Damp=F
 DIIS: error= 6.23D-05 at cycle   6 NSaved=   6.
 NSaved= 6 IEnMin= 6 EnMin= -463.245327562217     IErMin= 6 ErrMin= 6.23D-05
 ErrMax= 6.23D-05  0.00D+00 EMaxC= 1.00D-01 BMatC= 4.56D-07 BMatP= 9.81D-06
 IDIUse=1 WtCom= 1.00D+00 WtEn= 0.00D+00
 Coeff-Com:  0.116D-01-0.249D-01-0.169D-01 0.316D-01 0.317D+00 0.681D+00
 Coeff:      0.116D-01-0.249D-01-0.169D-01 0.316D-01 0.317D+00 0.681D+00
 Gap=     0.312 Goal=   None    Shift=    0.000
 RMSDP=2.08D-05 MaxDP=7.56D-04 DE=-1.36D-05 OVMax= 2.80D-04

 Cycle   7  Pass 1  IDiag  1:
 RMSU=  1.42D-05    CP:  6.04D-01  1.26D+00  8.18D-01  8.56D-01  1.04D+00
                    CP:  1.13D+00
 E= -463.245328130705     Delta-E=       -0.000000568488 Rises=F Damp=F
 DIIS: error= 2.95D-05 at cycle   7 NSaved=   7.
 NSaved= 7 IEnMin= 7 EnMin= -463.245328130705     IErMin= 7 ErrMin= 2.95D-05
 ErrMax= 2.95D-05  0.00D+00 EMaxC= 1.00D-01 BMatC= 5.92D-08 BMatP= 4.56D-07
 IDIUse=1 WtCom= 1.00D+00 WtEn= 0.00D+00
 Coeff-Com: -0.248D-02 0.534D-02 0.235D-02-0.195D-01-0.115D+00 0.186D+00
 Coeff-Com:  0.944D+00
 Coeff:     -0.248D-02 0.534D-02 0.235D-02-0.195D-01-0.115D+00 0.186D+00
 Coeff:      0.944D+00
 Gap=     0.312 Goal=   None    Shift=    0.000
 RMSDP=1.77D-05 MaxDP=1.09D-03 DE=-5.68D-07 OVMax= 2.14D-04

 Cycle   8  Pass 1  IDiag  1:
 RMSU=  4.07D-06    CP:  6.05D-01  1.26D+00  8.18D-01  8.60D-01  1.06D+00
                    CP:  1.28D+00  1.19D+00
 E= -463.245328244797     Delta-E=       -0.000000114092 Rises=F Damp=F
 DIIS: error= 5.18D-06 at cycle   8 NSaved=   8.
 NSaved= 8 IEnMin= 8 EnMin= -463.245328244797     IErMin= 8 ErrMin= 5.18D-06
 ErrMax= 5.18D-06  0.00D+00 EMaxC= 1.00D-01 BMatC= 1.11D-09 BMatP= 5.92D-08
 IDIUse=1 WtCom= 1.00D+00 WtEn= 0.00D+00
 Coeff-Com: -0.306D-03 0.652D-03 0.439D-03-0.861D-03-0.574D-02-0.177D-01
 Coeff-Com: -0.433D-01 0.107D+01
 Coeff:     -0.306D-03 0.652D-03 0.439D-03-0.861D-03-0.574D-02-0.177D-01
 Coeff:     -0.433D-01 0.107D+01
 Gap=     0.312 Goal=   None    Shift=    0.000
 RMSDP=2.09D-06 MaxDP=1.20D-04 DE=-1.14D-07 OVMax= 4.04D-05

 Cycle   9  Pass 1  IDiag  1:
 RMSU=  6.85D-07    CP:  6.05D-01  1.26D+00  8.19D-01  8.60D-01  1.06D+00
                    CP:  1.29D+00  1.23D+00  1.21D+00
 E= -463.245328248388     Delta-E=       -0.000000003591 Rises=F Damp=F
 DIIS: error= 2.53D-06 at cycle   9 NSaved=   9.
 NSaved= 9 IEnMin= 9 EnMin= -463.245328248388     IErMin= 9 ErrMin= 2.53D-06
 ErrMax= 2.53D-06  0.00D+00 EMaxC= 1.00D-01 BMatC= 3.16D-10 BMatP= 1.11D-09
 IDIUse=1 WtCom= 1.00D+00 WtEn= 0.00D+00
 Coeff-Com:  0.174D-03-0.376D-03-0.101D-03 0.203D-02 0.117D-01-0.270D-01
 Coeff-Com: -0.131D+00 0.404D+00 0.740D+00
 Coeff:      0.174D-03-0.376D-03-0.101D-03 0.203D-02 0.117D-01-0.270D-01
 Coeff:     -0.131D+00 0.404D+00 0.740D+00
 Gap=     0.312 Goal=   None    Shift=    0.000
 RMSDP=3.40D-07 MaxDP=1.12D-05 DE=-3.59D-09 OVMax= 1.55D-05

 Cycle  10  Pass 1  IDiag  1:
 RMSU=  1.77D-07    CP:  6.05D-01  1.26D+00  8.19D-01  8.60D-01  1.06D+00
                    CP:  1.29D+00  1.22D+00  1.24D+00  1.22D+00
 E= -463.245328248913     Delta-E=       -0.000000000525 Rises=F Damp=F
 DIIS: error= 3.84D-07 at cycle  10 NSaved=  10.
 NSaved=10 IEnMin=10 EnMin= -463.245328248913     IErMin=10 ErrMin= 3.84D-07
 ErrMax= 3.84D-07  0.00D+00 EMaxC= 1.00D-01 BMatC= 1.84D-11 BMatP= 3.16D-10
 IDIUse=1 WtCom= 1.00D+00 WtEn= 0.00D+00
 Coeff-Com:  0.508D-04-0.109D-03-0.422D-04 0.440D-03 0.228D-02-0.284D-02
 Coeff-Com: -0.199D-01-0.297D-01 0.163D+00 0.887D+00
 Coeff:      0.508D-04-0.109D-03-0.422D-04 0.440D-03 0.228D-02-0.284D-02
 Coeff:     -0.199D-01-0.297D-01 0.163D+00 0.887D+00
 Gap=     0.312 Goal=   None    Shift=    0.000
 RMSDP=1.74D-07 MaxDP=5.58D-06 DE=-5.25D-10 OVMax= 3.26D-06

 Cycle  11  Pass 1  IDiag  1:
 RMSU=  7.19D-08    CP:  6.05D-01  1.26D+00  8.19D-01  8.60D-01  1.06D+00
                    CP:  1.29D+00  1.21D+00  1.24D+00  1.29D+00  1.24D+00
 E= -463.245328248947     Delta-E=       -0.000000000033 Rises=F Damp=F
 DIIS: error= 9.20D-08 at cycle  11 NSaved=  11.
 NSaved=11 IEnMin=11 EnMin= -463.245328248947     IErMin=11 ErrMin= 9.20D-08
 ErrMax= 9.20D-08  0.00D+00 EMaxC= 1.00D-01 BMatC= 7.02D-13 BMatP= 1.84D-11
 IDIUse=1 WtCom= 1.00D+00 WtEn= 0.00D+00
 Coeff-Com: -0.125D-04 0.273D-04 0.105D-04-0.149D-03-0.891D-03 0.222D-02
 Coeff-Com:  0.894D-02-0.263D-01-0.316D-01-0.876D-01 0.114D+01
 Coeff:     -0.125D-04 0.273D-04 0.105D-04-0.149D-03-0.891D-03 0.222D-02
 Coeff:      0.894D-02-0.263D-01-0.316D-01-0.876D-01 0.114D+01
 Gap=     0.312 Goal=   None    Shift=    0.000
 RMSDP=8.37D-08 MaxDP=4.32D-06 DE=-3.34D-11 OVMax= 9.22D-07

 Cycle  12  Pass 1  IDiag  1:
 RMSU=  2.35D-08    CP:  6.05D-01  1.26D+00  8.19D-01  8.60D-01  1.06D+00
                    CP:  1.29D+00  1.21D+00  1.24D+00  1.29D+00  1.33D+00
                    CP:  1.22D+00
 E= -463.245328248943     Delta-E=        0.000000000004 Rises=F Damp=F
 DIIS: error= 2.41D-08 at cycle  12 NSaved=  12.
 NSaved=12 IEnMin=11 EnMin= -463.245328248947     IErMin=12 ErrMin= 2.41D-08
 ErrMax= 2.41D-08  0.00D+00 EMaxC= 1.00D-01 BMatC= 7.30D-14 BMatP= 7.02D-13
 IDIUse=1 WtCom= 1.00D+00 WtEn= 0.00D+00
 Coeff-Com: -0.122D-05 0.257D-05 0.212D-05-0.564D-05-0.203D-04-0.110D-04
 Coeff-Com: -0.193D-03 0.412D-02 0.941D-03-0.612D-01-0.133D+00 0.119D+01
 Coeff:     -0.122D-05 0.257D-05 0.212D-05-0.564D-05-0.203D-04-0.110D-04
 Coeff:     -0.193D-03 0.412D-02 0.941D-03-0.612D-01-0.133D+00 0.119D+01
 Gap=     0.312 Goal=   None    Shift=    0.000
 RMSDP=1.46D-08 MaxDP=4.73D-07 DE= 3.64D-12 OVMax= 2.53D-07

 Cycle  13  Pass 1  IDiag  1:
 RMSU=  3.88D-09    CP:  6.05D-01  1.26D+00  8.19D-01  8.60D-01  1.06D+00
                    CP:  1.29D+00  1.21D+00  1.24D+00  1.28D+00  1.35D+00
                    CP:  1.29D+00  1.25D+00
 E= -463.245328248944     Delta-E=       -0.000000000001 Rises=F Damp=F
 DIIS: error= 6.04D-09 at cycle  13 NSaved=  13.
 NSaved=13 IEnMin=11 EnMin= -463.245328248947     IErMin=13 ErrMin= 6.04D-09
 ErrMax= 6.04D-09  0.00D+00 EMaxC= 1.00D-01 BMatC= 4.47D-15 BMatP= 7.30D-14
 IDIUse=1 WtCom= 1.00D+00 WtEn= 0.00D+00
 Coeff-Com:  0.457D-06-0.101D-05-0.235D-06 0.665D-05 0.436D-04-0.107D-03
 Coeff-Com: -0.529D-03 0.197D-02 0.300D-02-0.688D-02-0.854D-01 0.194D+00
 Coeff-Com:  0.894D+00
 Coeff:      0.457D-06-0.101D-05-0.235D-06 0.665D-05 0.436D-04-0.107D-03
 Coeff:     -0.529D-03 0.197D-02 0.300D-02-0.688D-02-0.854D-01 0.194D+00
 Coeff:      0.894D+00
 Gap=     0.312 Goal=   None    Shift=    0.000
 RMSDP=4.46D-09 MaxDP=3.47D-07 DE=-9.09D-13 OVMax= 5.51D-08

 SCF Done:  E(RwB97XD) =  -463.245328249     A.U. after   13 cycles
            NFock= 13  Conv=0.45D-08     -V/T= 2.0048
 KE= 4.610326807148D+02 PE=-2.273668910217D+03 EE= 7.496572271272D+02
 Leave Link  502 at Sat Nov  5 21:35:24 2022, MaxMem= 16106127360 cpu:             765.6 elap:              24.1
 (Enter /opt/ap/G16/B01/g16/l601.exe)
 Copying SCF densities to generalized density rwf, IOpCl= 0 IROHF=0.

 **********************************************************************

            Population analysis using the SCF Density.

 **********************************************************************

 Orbital symmetries:
       Occupied  (A) (A) (A) (A) (A) (A) (A) (A) (A) (A) (A) (A)
                 (A) (A) (A) (A) (A) (A) (A) (A) (A) (A) (A) (A)
                 (A) (A) (A) (A) (A) (A) (A) (A) (A) (A) (A) (A)
                 (A) (A) (A) (A) (A)
       Virtual   (A) (A) (A) (A) (A) (A) (A) (A) (A) (A) (A) (A)
                 (A) (A) (A) (A) (A) (A) (A) (A) (A) (A) (A) (A)
                 (A) (A) (A) (A) (A) (A) (A) (A) (A) (A) (A) (A)
                 (A) (A) (A) (A) (A) (A) (A) (A) (A) (A) (A) (A)
                 (A) (A) (A) (A) (A) (A) (A) (A) (A) (A) (A) (A)
                 (A) (A) (A) (A) (A) (A) (A) (A) (A) (A) (A) (A)
                 (A) (A) (A) (A) (A) (A) (A) (A) (A) (A) (A) (A)
                 (A) (A) (A) (A) (A) (A) (A) (A) (A) (A) (A) (A)
                 (A) (A) (A) (A) (A) (A) (A) (A) (A) (A) (A) (A)
                 (A) (A) (A) (A) (A) (A) (A) (A) (A) (A) (A) (A)
                 (A) (A) (A) (A) (A) (A) (A) (A) (A) (A) (A) (A)
                 (A) (A) (A) (A) (A) (A) (A) (A) (A) (A) (A) (A)
                 (A) (A) (A) (A) (A) (A) (A) (A) (A) (A) (A) (A)
                 (A) (A) (A) (A) (A) (A) (A) (A) (A) (A) (A) (A)
                 (A) (A) (A) (A) (A) (A) (A) (A) (A) (A) (A) (A)
                 (A) (A) (A) (A) (A) (A) (A) (A) (A) (A) (A) (A)
                 (A) (A) (A) (A) (A) (A) (A) (A) (A) (A) (A) (A)
                 (A) (A) (A) (A) (A) (A) (A) (A) (A) (A) (A) (A)
                 (A) (A) (A) (A) (A) (A) (A) (A) (A) (A) (A) (A)
                 (A) (A) (A) (A) (A) (A) (A) (A) (A) (A) (A) (A)
                 (A) (A) (A) (A) (A) (A) (A) (A) (A) (A) (A) (A)
                 (A) (A) (A) (A) (A) (A) (A) (A) (A) (A) (A) (A)
                 (A) (A) (A) (A) (A) (A) (A) (A) (A) (A) (A) (A)
                 (A) (A) (A) (A) (A) (A) (A) (A) (A) (A) (A) (A)
                 (A) (A)
 The electronic state is 1-A.
 Alpha  occ. eigenvalues --  -10.30622 -10.30593 -10.29447 -10.29447 -10.29440
 Alpha  occ. eigenvalues --  -10.29440 -10.29323 -10.29322 -10.29322 -10.29321
 Alpha  occ. eigenvalues --  -10.29268 -10.29268  -0.97739  -0.95361  -0.88350
 Alpha  occ. eigenvalues --   -0.85763  -0.84626  -0.82370  -0.72511  -0.72473
 Alpha  occ. eigenvalues --   -0.68419  -0.67533  -0.63374  -0.58982  -0.57161
 Alpha  occ. eigenvalues --   -0.55939  -0.52827  -0.52327  -0.51979  -0.51266
 Alpha  occ. eigenvalues --   -0.49968  -0.48283  -0.45123  -0.44848  -0.44545
 Alpha  occ. eigenvalues --   -0.42648  -0.41286  -0.36978  -0.33907  -0.33238
 Alpha  occ. eigenvalues --   -0.29725
 Alpha virt. eigenvalues --    0.01498   0.03818   0.03822   0.04559   0.04739
 Alpha virt. eigenvalues --    0.05857   0.05884   0.06468   0.07637   0.08039
 Alpha virt. eigenvalues --    0.09094   0.09171   0.10749   0.11169   0.12032
 Alpha virt. eigenvalues --    0.12223   0.12672   0.13708   0.15045   0.15260
 Alpha virt. eigenvalues --    0.15397   0.16106   0.16132   0.16661   0.17111
 Alpha virt. eigenvalues --    0.17303   0.17450   0.18246   0.18530   0.19090
 Alpha virt. eigenvalues --    0.19368   0.19519   0.19583   0.19726   0.20635
 Alpha virt. eigenvalues --    0.20791   0.21410   0.22424   0.22546   0.23601
 Alpha virt. eigenvalues --    0.24663   0.24836   0.24922   0.25131   0.25182
 Alpha virt. eigenvalues --    0.25451   0.25553   0.26275   0.26899   0.27245
 Alpha virt. eigenvalues --    0.27375   0.28682   0.29272   0.30378   0.30642
 Alpha virt. eigenvalues --    0.30800   0.30830   0.31736   0.32677   0.33488
 Alpha virt. eigenvalues --    0.33922   0.34965   0.36136   0.36546   0.37109
 Alpha virt. eigenvalues --    0.37175   0.37548   0.38276   0.38567   0.39167
 Alpha virt. eigenvalues --    0.41011   0.41166   0.41697   0.41747   0.42346
 Alpha virt. eigenvalues --    0.43517   0.46517   0.49003   0.50481   0.50515
 Alpha virt. eigenvalues --    0.56685   0.58543   0.60353   0.61614   0.61680
 Alpha virt. eigenvalues --    0.61791   0.62072   0.62445   0.62962   0.64316
 Alpha virt. eigenvalues --    0.64408   0.65161   0.65413   0.65573   0.65591
 Alpha virt. eigenvalues --    0.66306   0.67783   0.68638   0.68962   0.70361
 Alpha virt. eigenvalues --    0.71173   0.73550   0.74439   0.74941   0.75525
 Alpha virt. eigenvalues --    0.76804   0.77290   0.79322   0.79741   0.80170
 Alpha virt. eigenvalues --    0.80266   0.83361   0.84716   0.84838   0.86157
 Alpha virt. eigenvalues --    0.86281   0.89883   0.91437   0.92160   0.93884
 Alpha virt. eigenvalues --    0.93992   0.94440   0.95225   0.96194   0.96487
 Alpha virt. eigenvalues --    0.98921   0.98945   0.99313   0.99933   1.00198
 Alpha virt. eigenvalues --    1.02229   1.02459   1.03765   1.04293   1.07887
 Alpha virt. eigenvalues --    1.08592   1.08817   1.10739   1.11346   1.13591
 Alpha virt. eigenvalues --    1.14264   1.15289   1.15683   1.17222   1.18618
 Alpha virt. eigenvalues --    1.20007   1.20121   1.22626   1.24211   1.24220
 Alpha virt. eigenvalues --    1.30533   1.38738   1.41011   1.42072   1.55183
 Alpha virt. eigenvalues --    1.56115   1.56790   1.57849   1.57912   1.60072
 Alpha virt. eigenvalues --    1.62661   1.63274   1.64156   1.64992   1.65093
 Alpha virt. eigenvalues --    1.65488   1.66421   1.68222   1.71431   1.71535
 Alpha virt. eigenvalues --    1.72654   1.74258   1.75897   1.78566   1.79448
 Alpha virt. eigenvalues --    1.80353   1.81859   1.84121   1.84352   1.86950
 Alpha virt. eigenvalues --    1.89558   1.89613   1.90910   1.93828   1.95135
 Alpha virt. eigenvalues --    1.97704   1.99422   2.00536   2.01208   2.02881
 Alpha virt. eigenvalues --    2.03873   2.04776   2.05782   2.06181   2.06747
 Alpha virt. eigenvalues --    2.07201   2.07470   2.10617   2.11428   2.12654
 Alpha virt. eigenvalues --    2.14954   2.17393   2.17554   2.19760   2.23160
 Alpha virt. eigenvalues --    2.34263   2.34500   2.37900   2.39909   2.46235
 Alpha virt. eigenvalues --    2.48250   2.49722   2.49744   2.52705   2.53617
 Alpha virt. eigenvalues --    2.56152   2.57801   2.58807   2.59454   2.66564
 Alpha virt. eigenvalues --    2.71903   2.74134   2.75317   2.77740   2.78044
 Alpha virt. eigenvalues --    2.79115   2.80383   2.81433   2.81675   2.83151
 Alpha virt. eigenvalues --    2.83171   2.84055   2.84914   2.86148   2.86873
 Alpha virt. eigenvalues --    2.86998   2.87812   2.91213   2.92027   2.94351
 Alpha virt. eigenvalues --    2.95084   2.96847   2.98455   2.98764   3.04193
 Alpha virt. eigenvalues --    3.04245   3.04941   3.07611   3.11615   3.18729
 Alpha virt. eigenvalues --    3.19524   3.22309   3.29450   3.31778   3.34585
 Alpha virt. eigenvalues --    3.44105   3.48065   3.48391   3.49337   3.57898
 Alpha virt. eigenvalues --    3.63785   3.63875   3.64087   3.66836   3.72700
 Alpha virt. eigenvalues --    3.77113   3.87056   4.08020   4.12670   4.13895
 Alpha virt. eigenvalues --    4.14474   4.23564   4.24313   4.28437   4.32366
 Alpha virt. eigenvalues --    4.65886   4.91946   4.97053  23.67478  23.85157
 Alpha virt. eigenvalues --   24.07770  24.08116  24.08899  24.10182  24.18962
 Alpha virt. eigenvalues --   24.19475  24.22137  24.23040  24.31415  24.31600
          Condensed to atoms (all electrons):
               1          2          3          4          5          6
     1  C    8.930156  -1.708258  -1.703862   0.146530  -0.071162   2.019063
     2  C   -1.708258  12.726453  -2.476349  -2.120801   0.546837  -1.138106
     3  C   -1.703862  -2.476349  12.723528   0.272011   0.035877  -1.134690
     4  C    0.146530  -2.120801   0.272011   9.009545  -0.091595  -0.014134
     5  H   -0.071162   0.546837   0.035877  -0.091595   0.546679  -0.065057
     6  C    2.019063  -1.138106  -1.134690  -0.014134  -0.065057   8.929767
     7  C    0.141878   0.274385  -2.123157  -0.289738   0.024475  -0.013277
     8  H   -0.071068   0.035881   0.546783   0.024355   0.003570  -0.065020
     9  C   -0.846221   0.504556   0.504817  -0.090894   0.034523  -0.316609
    10  H    0.036904  -0.075393   0.011422   0.384754  -0.014853   0.016788
    11  C   -1.136343   3.861383  -2.794432  -0.843734   0.070864  -1.707757
    12  C   -1.135602  -2.795258   3.860080  -0.119978  -0.035120  -1.703853
    13  H    0.036861   0.011422  -0.075320  -0.011201  -0.001420   0.016789
    14  H    0.020110  -0.030427  -0.030351   0.004861   0.001656  -0.006570
    15  C   -0.014098  -0.845334  -0.118928  -0.144078  -0.062307   0.145566
    16  H   -0.065038   0.070928  -0.035164  -0.062289   0.016723  -0.071112
    17  C   -0.013639  -0.120238  -0.846148   0.244658  -0.023775   0.143146
    18  H   -0.065071  -0.035106   0.070956  -0.023736  -0.003363  -0.071176
    19  C   -0.316411   0.148110   0.147334  -0.071912   0.001186  -0.846033
    20  H    0.016798  -0.005441   0.004003   0.001566   0.000787   0.036873
    21  H    0.016789   0.003978  -0.005407   0.002042   0.000367   0.036898
    22  H   -0.006568   0.000273   0.000254  -0.001106  -0.000502   0.020107
               7          8          9         10         11         12
     1  C    0.141878  -0.071068  -0.846221   0.036904  -1.136343  -1.135602
     2  C    0.274385   0.035881   0.504556  -0.075393   3.861383  -2.795258
     3  C   -2.123157   0.546783   0.504817   0.011422  -2.794432   3.860080
     4  C   -0.289738   0.024355  -0.090894   0.384754  -0.843734  -0.119978
     5  H    0.024475   0.003570   0.034523  -0.014853   0.070864  -0.035120
     6  C   -0.013277  -0.065020  -0.316609   0.016788  -1.707757  -1.703853
     7  C    9.018289  -0.091581  -0.091712  -0.011259  -0.120256  -0.846008
     8  H   -0.091581   0.546709   0.034556  -0.001422  -0.035096   0.070898
     9  C   -0.091712   0.034556   6.333092  -0.050597   0.147711   0.147766
    10  H   -0.011259  -0.001422  -0.050597   0.477183  -0.005401   0.003982
    11  C   -0.120256  -0.035096   0.147711  -0.005401  12.723962  -2.477724
    12  C   -0.846008   0.070898   0.147766   0.003982  -2.477724  12.726958
    13  H    0.384758  -0.014850  -0.050669   0.001454   0.003985  -0.005421
    14  H    0.004787   0.001659   0.386203  -0.007860   0.000261   0.000263
    15  C    0.244928  -0.023727  -0.072150   0.001588  -2.123009   0.275404
    16  H   -0.023785  -0.003365   0.001210   0.000786   0.546882   0.035789
    17  C   -0.144868  -0.062430  -0.072044   0.002044   0.274637  -2.124434
    18  H   -0.062449   0.016733   0.001203   0.000367   0.035866   0.546941
    19  C   -0.072272   0.001208   0.036883  -0.001170   0.505636   0.503138
    20  H    0.002055   0.000366  -0.001173   0.000051  -0.075459   0.011507
    21  H    0.001589   0.000786  -0.001171   0.000022   0.011403  -0.075369
    22  H   -0.001114  -0.000502   0.000188   0.000011  -0.030321  -0.030425
              13         14         15         16         17         18
     1  C    0.036861   0.020110  -0.014098  -0.065038  -0.013639  -0.065071
     2  C    0.011422  -0.030427  -0.845334   0.070928  -0.120238  -0.035106
     3  C   -0.075320  -0.030351  -0.118928  -0.035164  -0.846148   0.070956
     4  C   -0.011201   0.004861  -0.144078  -0.062289   0.244658  -0.023736
     5  H   -0.001420   0.001656  -0.062307   0.016723  -0.023775  -0.003363
     6  C    0.016789  -0.006570   0.145566  -0.071112   0.143146  -0.071176
     7  C    0.384758   0.004787   0.244928  -0.023785  -0.144868  -0.062449
     8  H   -0.014850   0.001659  -0.023727  -0.003365  -0.062430   0.016733
     9  C   -0.050669   0.386203  -0.072150   0.001210  -0.072044   0.001203
    10  H    0.001454  -0.007860   0.001588   0.000786   0.002044   0.000367
    11  C    0.003985   0.000261  -2.123009   0.546882   0.274637   0.035866
    12  C   -0.005421   0.000263   0.275404   0.035789  -2.124434   0.546941
    13  H    0.477184  -0.007863   0.002048   0.000366   0.001575   0.000785
    14  H   -0.007863   0.469958  -0.001110  -0.000502  -0.001110  -0.000502
    15  C    0.002048  -0.001110   9.012946  -0.091741  -0.290811   0.024399
    16  H    0.000366  -0.000502  -0.091741   0.546687   0.024496   0.003569
    17  C    0.001575  -0.001110  -0.290811   0.024496   9.017597  -0.091627
    18  H    0.000785  -0.000502   0.024399   0.003569  -0.091627   0.546711
    19  C   -0.001173   0.000188  -0.092694   0.034568  -0.089565   0.034532
    20  H    0.000022   0.000011   0.384911  -0.014856  -0.011303  -0.001421
    21  H    0.000051   0.000011  -0.011208  -0.001421   0.384725  -0.014856
    22  H    0.000011  -0.000005   0.004738   0.001658   0.004848   0.001658
              19         20         21         22
     1  C   -0.316411   0.016798   0.016789  -0.006568
     2  C    0.148110  -0.005441   0.003978   0.000273
     3  C    0.147334   0.004003  -0.005407   0.000254
     4  C   -0.071912   0.001566   0.002042  -0.001106
     5  H    0.001186   0.000787   0.000367  -0.000502
     6  C   -0.846033   0.036873   0.036898   0.020107
     7  C   -0.072272   0.002055   0.001589  -0.001114
     8  H    0.001208   0.000366   0.000786  -0.000502
     9  C    0.036883  -0.001173  -0.001171   0.000188
    10  H   -0.001170   0.000051   0.000022   0.000011
    11  C    0.505636  -0.075459   0.011403  -0.030321
    12  C    0.503138   0.011507  -0.075369  -0.030425
    13  H   -0.001173   0.000022   0.000051   0.000011
    14  H    0.000188   0.000011   0.000011  -0.000005
    15  C   -0.092694   0.384911  -0.011208   0.004738
    16  H    0.034568  -0.014856  -0.001421   0.001658
    17  C   -0.089565  -0.011303   0.384725   0.004848
    18  H    0.034532  -0.001421  -0.014856   0.001658
    19  C    6.332914  -0.050673  -0.050611   0.386230
    20  H   -0.050673   0.477196   0.001454  -0.007867
    21  H   -0.050611   0.001454   0.477187  -0.007861
    22  H    0.386230  -0.007867  -0.007861   0.469967
 Mulliken charges:
               1
     1  C    1.788254
     2  C   -0.833495
     3  C   -0.833256
     4  C   -0.205128
     5  H    0.085610
     6  C    1.788397
     7  C   -0.205667
     8  H    0.085560
     9  C   -0.539469
    10  H    0.230598
    11  C   -0.833058
    12  C   -0.833533
    13  H    0.230607
    14  H    0.196333
    15  C   -0.205331
    16  H    0.085611
    17  C   -0.205732
    18  H    0.085588
    19  C   -0.539414
    20  H    0.230592
    21  H    0.230603
    22  H    0.196329
 Sum of Mulliken charges =  -0.00000
 Mulliken charges with hydrogens summed into heavy atoms:
               1
     1  C    1.788254
     2  C   -0.747885
     3  C   -0.747696
     4  C    0.025470
     6  C    1.788397
     7  C    0.024940
     9  C   -0.343136
    11  C   -0.747447
    12  C   -0.747945
    15  C    0.025262
    17  C    0.024872
    19  C   -0.343085
 Electronic spatial extent (au):  <R**2>=           2311.8948
 Charge=             -0.0000 electrons
 Dipole moment (field-independent basis, Debye):
    X=             -0.0000    Y=             -0.0000    Z=              0.0004  Tot=              0.0004
 Quadrupole moment (field-independent basis, Debye-Ang):
   XX=            -61.4223   YY=            -61.2593   ZZ=            -77.9079
   XY=             -0.0000   XZ=              0.0007   YZ=              0.0001
 Traceless Quadrupole moment (field-independent basis, Debye-Ang):
   XX=              5.4409   YY=              5.6038   ZZ=            -11.0448
   XY=             -0.0000   XZ=              0.0007   YZ=              0.0001
 Octapole moment (field-independent basis, Debye-Ang**2):
  XXX=             -0.0004  YYY=              0.0011  ZZZ=              0.0006  XYY=              0.0000
  XXY=             -0.0001  XXZ=              0.0020  XZZ=             -0.0001  YZZ=             -0.0000
  YYZ=              0.0034  XYZ=             -1.3103
 Hexadecapole moment (field-independent basis, Debye-Ang**3):
 XXXX=          -2296.7026 YYYY=           -535.2499 ZZZZ=            -93.8719 XXXY=             -0.0010
 XXXZ=              0.0201 YYYX=              0.0009 YYYZ=              0.0003 ZZZX=              0.0009
 ZZZY=              0.0001 XXYY=           -472.0713 XXZZ=           -503.4561 YYZZ=           -127.2689
 XXYZ=              0.0024 YYXZ=             -0.0013 ZZXY=             -0.0006
 N-N= 5.997336741261D+02 E-N=-2.273668909993D+03  KE= 4.610326807148D+02
 No NMR shielding tensors so no spin-rotation constants.
 Leave Link  601 at Sat Nov  5 21:35:24 2022, MaxMem= 16106127360 cpu:               4.6 elap:               0.2
 (Enter /opt/ap/G16/B01/g16/l9999.exe)
 1\1\GINC-N04\SP\RwB97XD\6-311++G(d,p)\C12H10\ROOT\05-Nov-2022\0\\#P wB
 97XD/6-311++G(d,p) scf=maxcycle=512\\_conf017.gjf nmol_natom 1_22\\0,1
 \C\C,1,1.40491871\C,1,1.40495292,2,118.20503621\C,2,1.3939373,1,120.91
 08946,3,0.05365643,0\H,2,1.08593095,1,119.3452094,3,-178.3624307,0\C,1
 ,1.48449301,2,120.90144423,4,-179.96388019,0\C,3,1.39389842,1,120.9105
 0598,2,0.03587687,0\H,3,1.08593608,1,119.34159615,2,-178.38281524,0\C,
 4,1.39606958,2,120.24555868,1,-0.09283196,0\H,4,1.08627898,2,119.66792
 041,1,-179.51486187,0\C,6,1.40492034,1,120.90156908,2,-5.,0\C,6,1.4049
 5329,1,120.89324856,2,175.,0\H,7,1.08627928,3,119.67027175,1,-179.5125
 8183,0\H,9,1.08597601,4,120.2602535,2,-179.95233103,0\C,11,1.39393437,
 6,120.91099656,1,-179.95869964,0\H,11,1.08593173,6,119.34475907,1,1.61
 891886,0\C,12,1.39390147,6,120.91022615,1,-179.94297913,0\H,12,1.08593
 608,6,119.34175044,1,1.63241608,0\C,15,1.39607161,11,120.24535737,6,-0
 .10315482,0\H,15,1.08627786,11,119.66861247,6,-179.51844254,0\H,17,1.0
 8627825,12,119.6702798,6,-179.51590091,0\H,19,1.08597601,15,120.259885
 97,11,-179.94731581,0\\Version=ES64L-G16RevB.01\State=1-A\HF=-463.2453
 282\RMSD=4.459e-09\Dipole=-0.000001,-0.0001476,-0.0000096\Quadrupole=4
 .07084,-8.1878412,4.1170012,0.2789134,-0.0429201,-0.4631617\PG=C01 [X(
 C12H10)]\\@


 DIATOMIC MOLECULES ARE PECULIAR BECAUSE THEY ONLY HAVE TWO ENDS,
 AND THESE ENDS ARE VERY CLOSE TOGETHER.
 KLAUS RUEDENBERG, REV.MOD.PHYS. PG 176, 32, (1960)
 Job cpu time:       0 days  0 hours 13 minutes 30.6 seconds.
 Elapsed time:       0 days  0 hours  0 minutes 25.6 seconds.
 File lengths (MBytes):  RWF=     62 Int=      0 D2E=      0 Chk=      8 Scr=      1
 Normal termination of Gaussian 16 at Sat Nov  5 21:35:24 2022.
