 Entering Gaussian System, Link 0=g16
 Input=_conf032.gjf
 Output=_conf032.log
 Initial command:
 /opt/ap/G16/B01/g16/l1.exe "/tmp2/scr/Gau-15228.inp" -scrdir="/tmp2/scr/"
 Entering Link 1 = /opt/ap/G16/B01/g16/l1.exe PID=     15229.
  
 Copyright (c) 1988-2017, Gaussian, Inc.  All Rights Reserved.
  
 This is part of the Gaussian(R) 16 program.  It is based on
 the Gaussian(R) 09 system (copyright 2009, Gaussian, Inc.),
 the Gaussian(R) 03 system (copyright 2003, Gaussian, Inc.),
 the Gaussian(R) 98 system (copyright 1998, Gaussian, Inc.),
 the Gaussian(R) 94 system (copyright 1995, Gaussian, Inc.),
 the Gaussian 92(TM) system (copyright 1992, Gaussian, Inc.),
 the Gaussian 90(TM) system (copyright 1990, Gaussian, Inc.),
 the Gaussian 88(TM) system (copyright 1988, Gaussian, Inc.),
 the Gaussian 86(TM) system (copyright 1986, Carnegie Mellon
 University), and the Gaussian 82(TM) system (copyright 1983,
 Carnegie Mellon University). Gaussian is a federally registered
 trademark of Gaussian, Inc.
  
 This software contains proprietary and confidential information,
 including trade secrets, belonging to Gaussian, Inc.
  
 This software is provided under written license and may be
 used, copied, transmitted, or stored only in accord with that
 written license.
  
 The following legend is applicable only to US Government
 contracts under FAR:
  
                    RESTRICTED RIGHTS LEGEND
  
 Use, reproduction and disclosure by the US Government is
 subject to restrictions as set forth in subparagraphs (a)
 and (c) of the Commercial Computer Software - Restricted
 Rights clause in FAR 52.227-19.
  
 Gaussian, Inc.
 340 Quinnipiac St., Bldg. 40, Wallingford CT 06492
  
  
 ---------------------------------------------------------------
 Warning -- This program may not be used in any manner that
 competes with the business of Gaussian, Inc. or will provide
 assistance to any competitor of Gaussian, Inc.  The licensee
 of this program is prohibited from giving any competitor of
 Gaussian, Inc. access to this program.  By using this program,
 the user acknowledges that Gaussian, Inc. is engaged in the
 business of creating and licensing software in the field of
 computational chemistry and represents and warrants to the
 licensee that it is not a competitor of Gaussian, Inc. and that
 it will not use this program in any manner prohibited above.
 ---------------------------------------------------------------
  

 Cite this work as:
 Gaussian 16, Revision B.01,
 M. J. Frisch, G. W. Trucks, H. B. Schlegel, G. E. Scuseria, 
 M. A. Robb, J. R. Cheeseman, G. Scalmani, V. Barone, 
 G. A. Petersson, H. Nakatsuji, X. Li, M. Caricato, A. V. Marenich, 
 J. Bloino, B. G. Janesko, R. Gomperts, B. Mennucci, H. P. Hratchian, 
 J. V. Ortiz, A. F. Izmaylov, J. L. Sonnenberg, D. Williams-Young, 
 F. Ding, F. Lipparini, F. Egidi, J. Goings, B. Peng, A. Petrone, 
 T. Henderson, D. Ranasinghe, V. G. Zakrzewski, J. Gao, N. Rega, 
 G. Zheng, W. Liang, M. Hada, M. Ehara, K. Toyota, R. Fukuda, 
 J. Hasegawa, M. Ishida, T. Nakajima, Y. Honda, O. Kitao, H. Nakai, 
 T. Vreven, K. Throssell, J. A. Montgomery, Jr., J. E. Peralta, 
 F. Ogliaro, M. J. Bearpark, J. J. Heyd, E. N. Brothers, K. N. Kudin, 
 V. N. Staroverov, T. A. Keith, R. Kobayashi, J. Normand, 
 K. Raghavachari, A. P. Rendell, J. C. Burant, S. S. Iyengar, 
 J. Tomasi, M. Cossi, J. M. Millam, M. Klene, C. Adamo, R. Cammi, 
 J. W. Ochterski, R. L. Martin, K. Morokuma, O. Farkas, 
 J. B. Foresman, and D. J. Fox, Gaussian, Inc., Wallingford CT, 2016.
 
 ******************************************
 Gaussian 16:  ES64L-G16RevB.01 20-Dec-2017
                 5-Nov-2022 
 ******************************************
 %nprocshared=32
 Will use up to   32 processors via shared memory.
 %mem=120GB
 %chk=_conf032.chk
 ----------------------------------------
 #P wB97XD/6-311++G(d,p) scf=maxcycle=512
 ----------------------------------------
 1/38=1,172=1/1;
 2/12=2,17=6,18=5,40=1/2;
 3/5=4,6=6,7=1111,11=2,25=1,30=1,74=-58/1,2,3;
 4//1;
 5/5=2,7=512,38=5/2;
 6/7=2,8=2,9=2,10=2,28=1/1;
 99/5=1,9=1/99;
 Leave Link    1 at Sat Nov  5 21:36:48 2022, MaxMem= 16106127360 cpu:               1.5 elap:               0.1
 (Enter /opt/ap/G16/B01/g16/l101.exe)
 ----------------------------
 _conf032.gjf nmol_natom 1_22
 ----------------------------
 Symbolic Z-matrix:
 Charge =  0 Multiplicity = 1
 C
 C                    1     1.40492 
 C                    1     1.40495  2     118.20504 
 C                    2     1.39394  1     120.91089  3     0.05366  0
 H                    2     1.08593  1     119.34521  3    -178.36243  0
 C                    1     1.48449  2     120.90144  4    -179.96388  0
 C                    3     1.3939   1     120.91051  2     0.03588  0
 H                    3     1.08594  1     119.3416  2    -178.38282  0
 C                    4     1.39607  2     120.24556  1    -0.09283  0
 H                    4     1.08628  2     119.66792  1    -179.51486  0
 C                    6     1.40492  1     120.90157  2     70.      0
 C                    6     1.40495  1     120.89325  2    -110.     0
 H                    7     1.08628  3     119.67027  1    -179.51258  0
 H                    9     1.08598  4     120.26025  2    -179.95233  0
 C                    11    1.39393  6     120.911  1    -179.9587  0
 H                    11    1.08593  6     119.34476  1     1.61892  0
 C                    12    1.3939   6     120.91023  1    -179.94298  0
 H                    12    1.08594  6     119.34175  1     1.63242  0
 C                    15    1.39607  11    120.24536  6    -0.10315  0
 H                    15    1.08628  11    119.66861  6    -179.51844  0
 H                    17    1.08628  12    119.67028  6    -179.5159  0
 H                    19    1.08598  15    120.25989  11   -179.94732  0
 
 ITRead=  0  0  0  0  0  0  0  0  0  0  0  0  0  0  0  0  0  0  0  0
 ITRead=  0  0
 MicOpt= -1 -1 -1 -1 -1 -1 -1 -1 -1 -1 -1 -1 -1 -1 -1 -1 -1 -1 -1 -1
 MicOpt= -1 -1
 NAtoms=     22 NQM=       22 NQMF=       0 NMMI=      0 NMMIF=      0
                NMic=       0 NMicF=      0.
                    Isotopes and Nuclear Properties:
 (Nuclear quadrupole moments (NQMom) in fm**2, nuclear magnetic moments (NMagM)
  in nuclear magnetons)

  Atom         1           2           3           4           5           6           7           8           9          10
 IAtWgt=          12          12          12          12           1          12          12           1          12           1
 AtmWgt=  12.0000000  12.0000000  12.0000000  12.0000000   1.0078250  12.0000000  12.0000000   1.0078250  12.0000000   1.0078250
 NucSpn=           0           0           0           0           1           0           0           1           0           1
 AtZEff=  -0.0000000  -0.0000000  -0.0000000  -0.0000000  -0.0000000  -0.0000000  -0.0000000  -0.0000000  -0.0000000  -0.0000000
 NQMom=    0.0000000   0.0000000   0.0000000   0.0000000   0.0000000   0.0000000   0.0000000   0.0000000   0.0000000   0.0000000
 NMagM=    0.0000000   0.0000000   0.0000000   0.0000000   2.7928460   0.0000000   0.0000000   2.7928460   0.0000000   2.7928460
 AtZNuc=   6.0000000   6.0000000   6.0000000   6.0000000   1.0000000   6.0000000   6.0000000   1.0000000   6.0000000   1.0000000

  Atom        11          12          13          14          15          16          17          18          19          20
 IAtWgt=          12          12           1           1          12           1          12           1          12           1
 AtmWgt=  12.0000000  12.0000000   1.0078250   1.0078250  12.0000000   1.0078250  12.0000000   1.0078250  12.0000000   1.0078250
 NucSpn=           0           0           1           1           0           1           0           1           0           1
 AtZEff=  -0.0000000  -0.0000000  -0.0000000  -0.0000000  -0.0000000  -0.0000000  -0.0000000  -0.0000000  -0.0000000  -0.0000000
 NQMom=    0.0000000   0.0000000   0.0000000   0.0000000   0.0000000   0.0000000   0.0000000   0.0000000   0.0000000   0.0000000
 NMagM=    0.0000000   0.0000000   2.7928460   2.7928460   0.0000000   2.7928460   0.0000000   2.7928460   0.0000000   2.7928460
 AtZNuc=   6.0000000   6.0000000   1.0000000   1.0000000   6.0000000   1.0000000   6.0000000   1.0000000   6.0000000   1.0000000

  Atom        21          22
 IAtWgt=           1           1
 AtmWgt=   1.0078250   1.0078250
 NucSpn=           1           1
 AtZEff=  -0.0000000  -0.0000000
 NQMom=    0.0000000   0.0000000
 NMagM=    2.7928460   2.7928460
 AtZNuc=   1.0000000   1.0000000
 Leave Link  101 at Sat Nov  5 21:36:49 2022, MaxMem= 16106127360 cpu:               5.3 elap:               0.2
 (Enter /opt/ap/G16/B01/g16/l202.exe)
                          Input orientation:                          
 ---------------------------------------------------------------------
 Center     Atomic      Atomic             Coordinates (Angstroms)
 Number     Number       Type             X           Y           Z
 ---------------------------------------------------------------------
      1          6           0        0.000000    0.000000    0.000000
      2          6           0        0.000000    0.000000    1.404919
      3          6           0        1.238131    0.000000   -0.664020
      4          6           0        1.195952    0.001120    2.120990
      5          1           0       -0.946201   -0.027051    1.937101
      6          6           0       -1.273772   -0.000390   -0.762381
      7          6           0        2.434381   -0.000749    0.051479
      8          1           0        1.259850    0.026715   -1.749411
      9          6           0        2.418826    0.000311    1.447501
     10          1           0        1.172413   -0.006894    3.206985
     11          6           0       -2.104962    1.132149   -0.779148
     12          6           0       -1.680622   -1.133432   -1.486660
     13          1           0        3.380326    0.007295   -0.482493
     14          1           0        3.350700    0.000403    2.005133
     15          6           0       -3.301486    1.131703   -1.494258
     16          1           0       -1.795751    2.027122   -0.247490
     17          6           0       -2.876015   -1.133780   -2.203597
     18          1           0       -1.065520   -2.028099   -1.464809
     19          6           0       -3.692258   -0.001166   -2.210443
     20          1           0       -3.924956    2.021228   -1.499714
     21          1           0       -3.174948   -2.023654   -2.750189
     22          1           0       -4.623973   -0.001475   -2.768342
 ---------------------------------------------------------------------
                    Distance matrix (angstroms):
                    1          2          3          4          5
     1  C    0.000000
     2  C    1.404919   0.000000
     3  C    1.404953   2.411116   0.000000
     4  C    2.434934   1.393937   2.785330   0.000000
     5  H    2.156012   1.085931   3.396745   2.150216   0.000000
     6  C    1.484493   2.513898   2.513829   3.796494   2.719415
     7  C    2.434925   2.785320   1.393898   2.411760   3.870994
     8  H    2.156008   3.396723   1.085936   3.871013   4.296501
     9  C    2.818861   2.419201   2.419207   1.396070   3.400568
    10  H    3.414579   2.149893   3.871569   1.086279   2.470128
    11  C    2.513901   3.237711   3.531471   4.537186   3.172456
    12  C    2.513826   3.531344   3.237365   4.751530   3.672274
    13  H    3.414594   3.871560   2.149884   3.398478   4.957262
    14  H    3.904837   3.404035   3.404016   2.157861   4.297527
    15  C    3.796494   4.537156   4.751650   5.880067   4.320221
    16  H    2.719411   3.172444   3.672487   4.320263   3.116697
    17  C    3.796414   4.751663   4.536734   6.047393   4.700469
    18  H    2.719225   3.672037   3.171949   4.699994   3.948598
    19  C    4.303351   5.167554   5.167220   6.531150   4.974296
    20  H    4.662595   5.284651   5.607247   6.588933   4.987999
    21  H    4.662511   5.607173   5.284179   6.850757   5.560974
    22  H    5.389327   6.228743   6.228358   7.601125   5.972258
                    6          7          8          9         10
     6  C    0.000000
     7  C    3.796415   0.000000
     8  H    2.719228   2.150228   0.000000
     9  C    4.303354   1.396108   3.400612   0.000000
    10  H    4.662588   3.398502   4.957280   2.156243   0.000000
    11  C    1.404920   4.751740   3.672240   5.167560   5.284681
    12  C    1.404953   4.536750   3.171964   5.167219   5.607067
    13  H    4.662512   1.086279   2.470197   2.156248   4.299689
    14  H    5.389330   2.157871   4.297551   1.085976   2.487858
    15  C    2.434934   6.047472   4.700200   6.531153   6.588920
    16  H    2.156010   4.700602   3.948935   4.974295   4.988047
    17  C    2.434925   5.879577   4.319538   6.530851   6.850842
    18  H    2.156010   4.319559   3.116185   4.973597   5.560510
    19  C    2.818858   6.530850   4.973600   7.122212   7.281043
    20  H    3.414583   6.850968   5.560813   7.281055   7.228379
    21  H    3.414594   6.588328   4.987284   7.280614   7.645573
    22  H    3.904834   7.600773   5.971464   8.208188   8.324821
                   11         12         13         14         15
    11  C    0.000000
    12  C    2.411119   0.000000
    13  H    5.607288   5.284203   0.000000
    14  H    6.228749   6.228355   2.487812   0.000000
    15  C    1.393934   2.785336   6.850881   7.601129   0.000000
    16  H    1.085932   3.396748   5.561177   5.972258   2.150219
    17  C    2.785320   1.393901   6.588326   7.600774   2.411763
    18  H    3.396725   1.085936   4.987316   5.971459   3.871016
    19  C    2.419198   2.419208   7.280613   8.208188   1.396072
    20  H    2.149897   3.871575   7.645771   8.324835   1.086278
    21  H    3.871558   2.149886   7.227642   8.324301   3.398478
    22  H    3.404029   3.404019   8.324300   9.294164   2.157859
                   16         17         18         19         20
    16  H    0.000000
    17  C    3.870997   0.000000
    18  H    4.296501   2.150234   0.000000
    19  C    3.400569   1.396107   3.400615   0.000000
    20  H    2.470145   3.398500   4.957282   2.156238   0.000000
    21  H    4.957264   1.086278   2.470204   2.156245   4.299683
    22  H    4.297527   2.157871   4.297556   1.085976   2.487844
                   21         22
    21  H    0.000000
    22  H    2.487812   0.000000
 Stoichiometry    C12H10
 Framework group  C1[X(C12H10)]
 Deg. of freedom    60
 Full point group                 C1      NOp   1
 Largest Abelian subgroup         C1      NOp   1
 Largest concise Abelian subgroup C1      NOp   1
                         Standard orientation:                         
 ---------------------------------------------------------------------
 Center     Atomic      Atomic             Coordinates (Angstroms)
 Number     Number       Type             X           Y           Z
 ---------------------------------------------------------------------
      1          6           0        0.742246    0.000219   -0.000110
      2          6           0        1.463788    0.987673    0.691344
      3          6           0        1.463583   -0.987532   -0.691423
      4          6           0        2.857725    0.988318    0.690767
      5          1           0        0.925224    1.744395    1.253987
      6          6           0       -0.742247    0.000192   -0.000013
      7          6           0        2.857481   -0.988485   -0.690838
      8          1           0        0.924786   -1.744222   -1.253895
      9          6           0        3.561107   -0.000132   -0.000052
     10          1           0        3.395274    1.756925    1.238752
     11          6           0       -1.463828    0.987703   -0.691349
     12          6           0       -1.463544   -0.987453    0.691494
     13          1           0        3.394902   -1.757258   -1.238716
     14          1           0        4.647083   -0.000304   -0.000021
     15          6           0       -2.857762    0.988361   -0.690683
     16          1           0       -0.925284    1.744520   -1.253885
     17          6           0       -2.857445   -0.988499    0.690847
     18          1           0       -0.924717   -1.744036    1.254082
     19          6           0       -3.561105   -0.000262   -0.000068
     20          1           0       -3.395350    1.757040   -1.238526
     21          1           0       -3.394839   -1.757214    1.238830
     22          1           0       -4.647081   -0.000469   -0.000099
 ---------------------------------------------------------------------
 Rotational constants (GHZ):           2.8585222           0.5241460           0.4934174
 Leave Link  202 at Sat Nov  5 21:36:49 2022, MaxMem= 16106127360 cpu:               0.5 elap:               0.0
 (Enter /opt/ap/G16/B01/g16/l301.exe)
 Standard basis: 6-311++G(d,p) (5D, 7F)
 Ernie: Thresh=  0.10000D-02 Tol=  0.10000D-05 Strict=F.
 There are   346 symmetry adapted cartesian basis functions of A   symmetry.
 There are   334 symmetry adapted basis functions of A   symmetry.
   334 basis functions,   522 primitive gaussians,   346 cartesian basis functions
    41 alpha electrons       41 beta electrons
       nuclear repulsion energy       598.0396188750 Hartrees.
 IExCor= 4639 DFT=T Ex+Corr=wB97XD ExCW=0 ScaHFX=  1.000000
 ScaDFX=  1.000000  1.000000  1.000000  1.000000 ScalE2=  1.000000  1.000000
 IRadAn=      5 IRanWt=     -1 IRanGd=            0 ICorTp=0 IEmpDi=121
 HFx  wShort=  0.000000 wLong=  0.200000 cFull=  0.222036 cShort=  0.000000 cLong=  0.777964
 DFx  wShort=  0.000000 wLong=  0.200000 cFull=  0.000000 cShort=  0.000000 cLong=  1.000000
 NAtoms=   22 NActive=   22 NUniq=   22 SFac= 1.00D+00 NAtFMM=   60 NAOKFM=F Big=F
 Integral buffers will be    131072 words long.
 Raffenetti 2 integral format.
 Two-electron integral symmetry is turned on.
 R6Disp:  Grimme-D2 Dispersion energy=       -0.0119130463 Hartrees.
 Nuclear repulsion after empirical dispersion term =      598.0277058287 Hartrees.
 Leave Link  301 at Sat Nov  5 21:36:49 2022, MaxMem= 16106127360 cpu:               1.2 elap:               0.0
 (Enter /opt/ap/G16/B01/g16/l302.exe)
 NPDir=0 NMtPBC=     1 NCelOv=     1 NCel=       1 NClECP=     1 NCelD=      1
         NCelK=      1 NCelE2=     1 NClLst=     1 CellRange=     0.0.
 One-electron integrals computed using PRISM.
 One-electron integral symmetry used in STVInt
 NBasis=   334 RedAO= T EigKep=  2.01D-06  NBF=   334
 NBsUse=   332 1.00D-06 EigRej=  8.13D-07 NBFU=   332
 Precomputing XC quadrature grid using
 IXCGrd= 4 IRadAn=           5 IRanWt=          -1 IRanGd=           0 AccXCQ= 0.00D+00.
 Generated NRdTot=       0 NPtTot=           0 NUsed=           0 NTot=          32
 NSgBfM=   346   346   346   346   346 MxSgAt=    22 MxSgA2=    22.
 Leave Link  302 at Sat Nov  5 21:36:49 2022, MaxMem= 16106127360 cpu:               7.7 elap:               0.2
 (Enter /opt/ap/G16/B01/g16/l303.exe)
 DipDrv:  MaxL=1.
 Leave Link  303 at Sat Nov  5 21:36:49 2022, MaxMem= 16106127360 cpu:               1.5 elap:               0.1
 (Enter /opt/ap/G16/B01/g16/l401.exe)
 ExpMin= 3.60D-02 ExpMax= 4.56D+03 ExpMxC= 6.82D+02 IAcc=3 IRadAn=         5 AccDes= 0.00D+00
 Harris functional with IExCor= 4639 and IRadAn=       5 diagonalized for initial guess.
 HarFok:  IExCor= 4639 AccDes= 0.00D+00 IRadAn=         5 IDoV= 1 UseB2=F ITyADJ=14
 ICtDFT=  3500011 ScaDFX=  1.000000  1.000000  1.000000  1.000000
 FoFCou: FMM=F IPFlag=           0 FMFlag=      100000 FMFlg1=           0
         NFxFlg=           0 DoJE=T BraDBF=F KetDBF=T FulRan=T
         wScrn=  0.000000 ICntrl=       500 IOpCl=  0 I1Cent=   200000004 NGrid=           0
         NMat0=    1 NMatS0=      1 NMatT0=    0 NMatD0=    1 NMtDS0=    0 NMtDT0=    0
 Petite list used in FoFCou.
 Harris En= -441.937787787340    
 JPrj=0 DoOrth=F DoCkMO=F.
 Leave Link  401 at Sat Nov  5 21:36:50 2022, MaxMem= 16106127360 cpu:              21.8 elap:               0.7
 (Enter /opt/ap/G16/B01/g16/l502.exe)
 Integral symmetry usage will be decided dynamically.
 Closed shell SCF:
 Using DIIS extrapolation, IDIIS=  1040.
 NGot= 16106127360 LenX= 16105873520 LenY= 16105753363
 Requested convergence on RMS density matrix=1.00D-08 within 512 cycles.
 Requested convergence on MAX density matrix=1.00D-06.
 Requested convergence on             energy=1.00D-06.
 No special actions if energy rises.
 Fock matrices will be formed incrementally for  20 cycles.

 Cycle   1  Pass 1  IDiag  1:
 FoFJK:  IHMeth= 1 ICntrl=       0 DoSepK=T KAlg= 0 I1Cent=           0 FoldK=F
 IRaf=         1 NMat=       1 IRICut=       1 DoRegI=T DoRafI=F ISym2E= 0 IDoP0=0 IntGTp=1.
 FoFCou: FMM=F IPFlag=           0 FMFlag=      100000 FMFlg1=           0
         NFxFlg=           0 DoJE=T BraDBF=F KetDBF=F FulRan=T
         wScrn=  0.000000 ICntrl=       500 IOpCl=  0 I1Cent=           0 NGrid=           0
         NMat0=    1 NMatS0=      1 NMatT0=    0 NMatD0=    1 NMtDS0=    0 NMtDT0=    0
 Symmetry not used in FoFCou.
 E= -463.151672907378    
 DIIS: error= 6.20D-02 at cycle   1 NSaved=   1.
 NSaved= 1 IEnMin= 1 EnMin= -463.151672907378     IErMin= 1 ErrMin= 6.20D-02
 ErrMax= 6.20D-02  0.00D+00 EMaxC= 1.00D-01 BMatC= 9.52D-01 BMatP= 9.52D-01
 IDIUse=3 WtCom= 3.80D-01 WtEn= 6.20D-01
 Coeff-Com:  0.100D+01
 Coeff-En:   0.100D+01
 Coeff:      0.100D+01
 Gap=     0.360 Goal=   None    Shift=    0.000
 GapD=    0.360 DampG=1.000 DampE=0.500 DampFc=0.5000 IDamp=-1.
 Damping current iteration by 5.00D-01
 RMSDP=5.26D-02 MaxDP=3.38D+00              OVMax= 4.02D-02

 Cycle   2  Pass 1  IDiag  1:
 RMSU=  5.12D-03    CP:  7.61D-01
 E= -463.200555069009     Delta-E=       -0.048882161631 Rises=F Damp=T
 DIIS: error= 3.03D-02 at cycle   2 NSaved=   2.
 NSaved= 2 IEnMin= 2 EnMin= -463.200555069009     IErMin= 2 ErrMin= 3.03D-02
 ErrMax= 3.03D-02  0.00D+00 EMaxC= 1.00D-01 BMatC= 2.16D-01 BMatP= 9.52D-01
 IDIUse=3 WtCom= 6.97D-01 WtEn= 3.03D-01
 Coeff-Com: -0.883D+00 0.188D+01
 Coeff-En:   0.000D+00 0.100D+01
 Coeff:     -0.616D+00 0.162D+01
 Gap=     0.360 Goal=   None    Shift=    0.000
 RMSDP=2.25D-02 MaxDP=1.28D+00 DE=-4.89D-02 OVMax= 3.70D-02

 Cycle   3  Pass 1  IDiag  1:
 RMSU=  4.19D-03    CP:  5.57D-01  1.04D+00
 E= -463.244039321254     Delta-E=       -0.043484252245 Rises=F Damp=F
 DIIS: error= 5.18D-03 at cycle   3 NSaved=   3.
 NSaved= 3 IEnMin= 3 EnMin= -463.244039321254     IErMin= 3 ErrMin= 5.18D-03
 ErrMax= 5.18D-03  0.00D+00 EMaxC= 1.00D-01 BMatC= 4.80D-03 BMatP= 2.16D-01
 IDIUse=3 WtCom= 9.48D-01 WtEn= 5.18D-02
 Coeff-Com: -0.374D+00 0.795D+00 0.579D+00
 Coeff-En:   0.000D+00 0.000D+00 0.100D+01
 Coeff:     -0.354D+00 0.753D+00 0.601D+00
 Gap=     0.361 Goal=   None    Shift=    0.000
 RMSDP=3.79D-03 MaxDP=2.85D-01 DE=-4.35D-02 OVMax= 2.20D-02

 Cycle   4  Pass 1  IDiag  1:
 RMSU=  9.18D-04    CP:  5.29D-01  1.39D+00  7.19D-01
 E= -463.248328569931     Delta-E=       -0.004289248676 Rises=F Damp=F
 DIIS: error= 1.56D-03 at cycle   4 NSaved=   4.
 NSaved= 4 IEnMin= 4 EnMin= -463.248328569931     IErMin= 4 ErrMin= 1.56D-03
 ErrMax= 1.56D-03  0.00D+00 EMaxC= 1.00D-01 BMatC= 2.97D-04 BMatP= 4.80D-03
 IDIUse=3 WtCom= 9.84D-01 WtEn= 1.56D-02
 Coeff-Com: -0.134D+00 0.286D+00 0.287D+00 0.561D+00
 Coeff-En:   0.000D+00 0.000D+00 0.000D+00 0.100D+01
 Coeff:     -0.132D+00 0.282D+00 0.282D+00 0.568D+00
 Gap=     0.356 Goal=   None    Shift=    0.000
 RMSDP=8.31D-04 MaxDP=4.29D-02 DE=-4.29D-03 OVMax= 5.38D-03

 Cycle   5  Pass 1  IDiag  1:
 RMSU=  2.98D-04    CP:  5.24D-01  1.35D+00  7.97D-01  6.46D-01
 E= -463.248640351533     Delta-E=       -0.000311781602 Rises=F Damp=F
 DIIS: error= 2.35D-04 at cycle   5 NSaved=   5.
 NSaved= 5 IEnMin= 5 EnMin= -463.248640351533     IErMin= 5 ErrMin= 2.35D-04
 ErrMax= 2.35D-04  0.00D+00 EMaxC= 1.00D-01 BMatC= 8.20D-06 BMatP= 2.97D-04
 IDIUse=3 WtCom= 9.98D-01 WtEn= 2.35D-03
 Coeff-Com:  0.270D-01-0.577D-01-0.286D-01 0.116D+00 0.943D+00
 Coeff-En:   0.000D+00 0.000D+00 0.000D+00 0.000D+00 0.100D+01
 Coeff:      0.270D-01-0.576D-01-0.285D-01 0.116D+00 0.943D+00
 Gap=     0.356 Goal=   None    Shift=    0.000
 RMSDP=2.04D-04 MaxDP=9.27D-03 DE=-3.12D-04 OVMax= 1.34D-03

 Cycle   6  Pass 1  IDiag  1:
 RMSU=  5.03D-05    CP:  5.24D-01  1.33D+00  8.29D-01  7.33D-01  1.26D+00
 E= -463.248651245060     Delta-E=       -0.000010893527 Rises=F Damp=F
 DIIS: error= 5.02D-05 at cycle   6 NSaved=   6.
 NSaved= 6 IEnMin= 6 EnMin= -463.248651245060     IErMin= 6 ErrMin= 5.02D-05
 ErrMax= 5.02D-05  0.00D+00 EMaxC= 1.00D-01 BMatC= 5.38D-07 BMatP= 8.20D-06
 IDIUse=1 WtCom= 1.00D+00 WtEn= 0.00D+00
 Coeff-Com:  0.126D-01-0.270D-01-0.158D-01 0.301D-01 0.349D+00 0.651D+00
 Coeff:      0.126D-01-0.270D-01-0.158D-01 0.301D-01 0.349D+00 0.651D+00
 Gap=     0.356 Goal=   None    Shift=    0.000
 RMSDP=5.67D-05 MaxDP=3.97D-03 DE=-1.09D-05 OVMax= 2.44D-04

 Cycle   7  Pass 1  IDiag  1:
 RMSU=  1.19D-05    CP:  5.24D-01  1.32D+00  8.34D-01  7.33D-01  1.31D+00
                    CP:  1.16D+00
 E= -463.248651846226     Delta-E=       -0.000000601165 Rises=F Damp=F
 DIIS: error= 1.85D-05 at cycle   7 NSaved=   7.
 NSaved= 7 IEnMin= 7 EnMin= -463.248651846226     IErMin= 7 ErrMin= 1.85D-05
 ErrMax= 1.85D-05  0.00D+00 EMaxC= 1.00D-01 BMatC= 5.05D-08 BMatP= 5.38D-07
 IDIUse=1 WtCom= 1.00D+00 WtEn= 0.00D+00
 Coeff-Com: -0.207D-02 0.445D-02 0.195D-02-0.169D-01-0.101D+00 0.148D+00
 Coeff-Com:  0.966D+00
 Coeff:     -0.207D-02 0.445D-02 0.195D-02-0.169D-01-0.101D+00 0.148D+00
 Coeff:      0.966D+00
 Gap=     0.356 Goal=   None    Shift=    0.000
 RMSDP=3.24D-05 MaxDP=2.12D-03 DE=-6.01D-07 OVMax= 1.63D-04

 Cycle   8  Pass 1  IDiag  1:
 RMSU=  3.82D-06    CP:  5.24D-01  1.32D+00  8.38D-01  7.36D-01  1.36D+00
                    CP:  1.33D+00  1.31D+00
 E= -463.248651932197     Delta-E=       -0.000000085971 Rises=F Damp=F
 DIIS: error= 3.32D-06 at cycle   8 NSaved=   8.
 NSaved= 8 IEnMin= 8 EnMin= -463.248651932197     IErMin= 8 ErrMin= 3.32D-06
 ErrMax= 3.32D-06  0.00D+00 EMaxC= 1.00D-01 BMatC= 1.80D-09 BMatP= 5.05D-08
 IDIUse=1 WtCom= 1.00D+00 WtEn= 0.00D+00
 Coeff-Com: -0.482D-03 0.103D-02 0.679D-03-0.243D-02-0.144D-01-0.200D-02
 Coeff-Com:  0.144D-01 0.100D+01
 Coeff:     -0.482D-03 0.103D-02 0.679D-03-0.243D-02-0.144D-01-0.200D-02
 Coeff:      0.144D-01 0.100D+01
 Gap=     0.356 Goal=   None    Shift=    0.000
 RMSDP=6.04D-06 MaxDP=4.62D-04 DE=-8.60D-08 OVMax= 3.54D-05

 Cycle   9  Pass 1  IDiag  1:
 RMSU=  4.32D-07    CP:  5.24D-01  1.32D+00  8.38D-01  7.35D-01  1.37D+00
                    CP:  1.35D+00  1.40D+00  1.28D+00
 E= -463.248651936469     Delta-E=       -0.000000004273 Rises=F Damp=F
 DIIS: error= 1.97D-06 at cycle   9 NSaved=   9.
 NSaved= 9 IEnMin= 9 EnMin= -463.248651936469     IErMin= 9 ErrMin= 1.97D-06
 ErrMax= 1.97D-06  0.00D+00 EMaxC= 1.00D-01 BMatC= 3.43D-10 BMatP= 1.80D-09
 IDIUse=1 WtCom= 1.00D+00 WtEn= 0.00D+00
 Coeff-Com:  0.177D-03-0.383D-03-0.563D-04 0.186D-02 0.120D-01-0.197D-01
 Coeff-Com: -0.158D+00 0.322D+00 0.842D+00
 Coeff:      0.177D-03-0.383D-03-0.563D-04 0.186D-02 0.120D-01-0.197D-01
 Coeff:     -0.158D+00 0.322D+00 0.842D+00
 Gap=     0.356 Goal=   None    Shift=    0.000
 RMSDP=1.63D-06 MaxDP=1.10D-04 DE=-4.27D-09 OVMax= 2.01D-05

 Cycle  10  Pass 1  IDiag  1:
 RMSU=  2.21D-07    CP:  5.24D-01  1.32D+00  8.38D-01  7.35D-01  1.37D+00
                    CP:  1.36D+00  1.43D+00  1.39D+00  1.27D+00
 E= -463.248651937307     Delta-E=       -0.000000000838 Rises=F Damp=F
 DIIS: error= 4.45D-07 at cycle  10 NSaved=  10.
 NSaved=10 IEnMin=10 EnMin= -463.248651937307     IErMin=10 ErrMin= 4.45D-07
 ErrMax= 4.45D-07  0.00D+00 EMaxC= 1.00D-01 BMatC= 4.24D-11 BMatP= 3.43D-10
 IDIUse=1 WtCom= 1.00D+00 WtEn= 0.00D+00
 Coeff-Com:  0.705D-04-0.151D-03-0.605D-04 0.529D-03 0.288D-02-0.131D-02
 Coeff-Com: -0.266D-01-0.871D-01 0.194D+00 0.918D+00
 Coeff:      0.705D-04-0.151D-03-0.605D-04 0.529D-03 0.288D-02-0.131D-02
 Coeff:     -0.266D-01-0.871D-01 0.194D+00 0.918D+00
 Gap=     0.356 Goal=   None    Shift=    0.000
 RMSDP=4.49D-07 MaxDP=3.18D-05 DE=-8.38D-10 OVMax= 5.11D-06

 Cycle  11  Pass 1  IDiag  1:
 RMSU=  7.61D-08    CP:  5.24D-01  1.32D+00  8.38D-01  7.36D-01  1.37D+00
                    CP:  1.36D+00  1.43D+00  1.40D+00  1.42D+00  1.20D+00
 E= -463.248651937384     Delta-E=       -0.000000000077 Rises=F Damp=F
 DIIS: error= 9.67D-08 at cycle  11 NSaved=  11.
 NSaved=11 IEnMin=11 EnMin= -463.248651937384     IErMin=11 ErrMin= 9.67D-08
 ErrMax= 9.67D-08  0.00D+00 EMaxC= 1.00D-01 BMatC= 1.48D-12 BMatP= 4.24D-11
 IDIUse=1 WtCom= 1.00D+00 WtEn= 0.00D+00
 Coeff-Com: -0.196D-04 0.426D-04 0.152D-04-0.197D-03-0.130D-02 0.223D-02
 Coeff-Com:  0.149D-01-0.222D-01-0.530D-01-0.146D+00 0.121D+01
 Coeff:     -0.196D-04 0.426D-04 0.152D-04-0.197D-03-0.130D-02 0.223D-02
 Coeff:      0.149D-01-0.222D-01-0.530D-01-0.146D+00 0.121D+01
 Gap=     0.356 Goal=   None    Shift=    0.000
 RMSDP=2.90D-07 MaxDP=2.14D-05 DE=-7.69D-11 OVMax= 1.29D-06

 Cycle  12  Pass 1  IDiag  1:
 RMSU=  2.00D-08    CP:  5.24D-01  1.32D+00  8.38D-01  7.36D-01  1.37D+00
                    CP:  1.36D+00  1.43D+00  1.39D+00  1.48D+00  1.30D+00
                    CP:  1.29D+00
 E= -463.248651937376     Delta-E=        0.000000000008 Rises=F Damp=F
 DIIS: error= 1.80D-08 at cycle  12 NSaved=  12.
 NSaved=12 IEnMin=11 EnMin= -463.248651937384     IErMin=12 ErrMin= 1.80D-08
 ErrMax= 1.80D-08  0.00D+00 EMaxC= 1.00D-01 BMatC= 6.78D-14 BMatP= 1.48D-12
 IDIUse=1 WtCom= 1.00D+00 WtEn= 0.00D+00
 Coeff-Com: -0.169D-05 0.357D-05 0.230D-05-0.834D-05-0.397D-04-0.364D-04
 Coeff-Com:  0.413D-04 0.464D-02-0.764D-03-0.464D-01-0.824D-01 0.112D+01
 Coeff:     -0.169D-05 0.357D-05 0.230D-05-0.834D-05-0.397D-04-0.364D-04
 Coeff:      0.413D-04 0.464D-02-0.764D-03-0.464D-01-0.824D-01 0.112D+01
 Gap=     0.356 Goal=   None    Shift=    0.000
 RMSDP=5.77D-08 MaxDP=4.04D-06 DE= 7.73D-12 OVMax= 2.89D-07

 Cycle  13  Pass 1  IDiag  1:
 RMSU=  5.07D-09    CP:  5.24D-01  1.32D+00  8.38D-01  7.36D-01  1.37D+00
                    CP:  1.36D+00  1.43D+00  1.39D+00  1.49D+00  1.31D+00
                    CP:  1.34D+00  1.33D+00
 E= -463.248651937382     Delta-E=       -0.000000000005 Rises=F Damp=F
 DIIS: error= 4.57D-09 at cycle  13 NSaved=  13.
 NSaved=13 IEnMin=11 EnMin= -463.248651937384     IErMin=13 ErrMin= 4.57D-09
 ErrMax= 4.57D-09  0.00D+00 EMaxC= 1.00D-01 BMatC= 3.21D-15 BMatP= 6.78D-14
 IDIUse=1 WtCom= 1.00D+00 WtEn= 0.00D+00
 Coeff-Com:  0.592D-06-0.129D-05-0.496D-06 0.684D-05 0.476D-04-0.888D-04
 Coeff-Com: -0.614D-03 0.149D-02 0.270D-02-0.134D-02-0.620D-01 0.147D+00
 Coeff-Com:  0.912D+00
 Coeff:      0.592D-06-0.129D-05-0.496D-06 0.684D-05 0.476D-04-0.888D-04
 Coeff:     -0.614D-03 0.149D-02 0.270D-02-0.134D-02-0.620D-01 0.147D+00
 Coeff:      0.912D+00
 Gap=     0.356 Goal=   None    Shift=    0.000
 RMSDP=4.32D-09 MaxDP=1.54D-07 DE=-5.46D-12 OVMax= 5.44D-08

 SCF Done:  E(RwB97XD) =  -463.248651937     A.U. after   13 cycles
            NFock= 13  Conv=0.43D-08     -V/T= 2.0049
 KE= 4.610090604806D+02 PE=-2.270378832392D+03 EE= 7.480934141455D+02
 Leave Link  502 at Sat Nov  5 21:37:14 2022, MaxMem= 16106127360 cpu:             783.4 elap:              24.7
 (Enter /opt/ap/G16/B01/g16/l601.exe)
 Copying SCF densities to generalized density rwf, IOpCl= 0 IROHF=0.

 **********************************************************************

            Population analysis using the SCF Density.

 **********************************************************************

 Orbital symmetries:
       Occupied  (A) (A) (A) (A) (A) (A) (A) (A) (A) (A) (A) (A)
                 (A) (A) (A) (A) (A) (A) (A) (A) (A) (A) (A) (A)
                 (A) (A) (A) (A) (A) (A) (A) (A) (A) (A) (A) (A)
                 (A) (A) (A) (A) (A)
       Virtual   (A) (A) (A) (A) (A) (A) (A) (A) (A) (A) (A) (A)
                 (A) (A) (A) (A) (A) (A) (A) (A) (A) (A) (A) (A)
                 (A) (A) (A) (A) (A) (A) (A) (A) (A) (A) (A) (A)
                 (A) (A) (A) (A) (A) (A) (A) (A) (A) (A) (A) (A)
                 (A) (A) (A) (A) (A) (A) (A) (A) (A) (A) (A) (A)
                 (A) (A) (A) (A) (A) (A) (A) (A) (A) (A) (A) (A)
                 (A) (A) (A) (A) (A) (A) (A) (A) (A) (A) (A) (A)
                 (A) (A) (A) (A) (A) (A) (A) (A) (A) (A) (A) (A)
                 (A) (A) (A) (A) (A) (A) (A) (A) (A) (A) (A) (A)
                 (A) (A) (A) (A) (A) (A) (A) (A) (A) (A) (A) (A)
                 (A) (A) (A) (A) (A) (A) (A) (A) (A) (A) (A) (A)
                 (A) (A) (A) (A) (A) (A) (A) (A) (A) (A) (A) (A)
                 (A) (A) (A) (A) (A) (A) (A) (A) (A) (A) (A) (A)
                 (A) (A) (A) (A) (A) (A) (A) (A) (A) (A) (A) (A)
                 (A) (A) (A) (A) (A) (A) (A) (A) (A) (A) (A) (A)
                 (A) (A) (A) (A) (A) (A) (A) (A) (A) (A) (A) (A)
                 (A) (A) (A) (A) (A) (A) (A) (A) (A) (A) (A) (A)
                 (A) (A) (A) (A) (A) (A) (A) (A) (A) (A) (A) (A)
                 (A) (A) (A) (A) (A) (A) (A) (A) (A) (A) (A) (A)
                 (A) (A) (A) (A) (A) (A) (A) (A) (A) (A) (A) (A)
                 (A) (A) (A) (A) (A) (A) (A) (A) (A) (A) (A) (A)
                 (A) (A) (A) (A) (A) (A) (A) (A) (A) (A) (A) (A)
                 (A) (A) (A) (A) (A) (A) (A) (A) (A) (A) (A) (A)
                 (A) (A) (A) (A) (A) (A) (A) (A) (A) (A) (A) (A)
                 (A) (A) (A)
 The electronic state is 1-A.
 Alpha  occ. eigenvalues --  -10.30398 -10.30367 -10.29316 -10.29316 -10.29302
 Alpha  occ. eigenvalues --  -10.29302 -10.29237 -10.29237 -10.29227 -10.29227
 Alpha  occ. eigenvalues --  -10.29205 -10.29205  -0.97507  -0.95295  -0.88157
 Alpha  occ. eigenvalues --   -0.85123  -0.84820  -0.82377  -0.72305  -0.70855
 Alpha  occ. eigenvalues --   -0.69704  -0.67472  -0.62503  -0.59576  -0.55794
 Alpha  occ. eigenvalues --   -0.55093  -0.53960  -0.53450  -0.50996  -0.50902
 Alpha  occ. eigenvalues --   -0.50781  -0.46212  -0.45611  -0.45532  -0.43077
 Alpha  occ. eigenvalues --   -0.42586  -0.41889  -0.34180  -0.33748  -0.33142
 Alpha  occ. eigenvalues --   -0.31752
 Alpha virt. eigenvalues --    0.03862   0.03884   0.04172   0.04571   0.05071
 Alpha virt. eigenvalues --    0.05601   0.05992   0.06170   0.06389   0.06986
 Alpha virt. eigenvalues --    0.07312   0.07617   0.09178   0.09216   0.12675
 Alpha virt. eigenvalues --    0.12729   0.12970   0.13328   0.15105   0.15170
 Alpha virt. eigenvalues --    0.15428   0.15783   0.16038   0.16316   0.17069
 Alpha virt. eigenvalues --    0.17382   0.17495   0.17498   0.17601   0.17712
 Alpha virt. eigenvalues --    0.18693   0.18729   0.18931   0.19177   0.19537
 Alpha virt. eigenvalues --    0.20474   0.20546   0.22034   0.22092   0.22370
 Alpha virt. eigenvalues --    0.22385   0.22721   0.23726   0.23991   0.25301
 Alpha virt. eigenvalues --    0.25550   0.26293   0.26379   0.26934   0.27180
 Alpha virt. eigenvalues --    0.27885   0.28017   0.29012   0.29903   0.30429
 Alpha virt. eigenvalues --    0.31030   0.31332   0.31858   0.32521   0.32704
 Alpha virt. eigenvalues --    0.33639   0.33822   0.34541   0.35148   0.35186
 Alpha virt. eigenvalues --    0.35439   0.35625   0.35749   0.36455   0.37075
 Alpha virt. eigenvalues --    0.37839   0.38109   0.38924   0.40845   0.42853
 Alpha virt. eigenvalues --    0.43296   0.43609   0.45348   0.45509   0.46050
 Alpha virt. eigenvalues --    0.47980   0.55608   0.58601   0.60759   0.60901
 Alpha virt. eigenvalues --    0.61159   0.61448   0.62421   0.62563   0.63280
 Alpha virt. eigenvalues --    0.63636   0.63988   0.64171   0.64805   0.65709
 Alpha virt. eigenvalues --    0.65946   0.66744   0.67425   0.68503   0.70684
 Alpha virt. eigenvalues --    0.72494   0.73193   0.73735   0.73781   0.74633
 Alpha virt. eigenvalues --    0.77671   0.78055   0.78859   0.80363   0.80968
 Alpha virt. eigenvalues --    0.81278   0.81453   0.81702   0.81985   0.82033
 Alpha virt. eigenvalues --    0.83166   0.85760   0.86001   0.88885   0.89498
 Alpha virt. eigenvalues --    0.90327   0.92106   0.92829   0.93353   0.94046
 Alpha virt. eigenvalues --    0.95359   0.96000   0.96641   0.97083   0.98203
 Alpha virt. eigenvalues --    0.98790   1.01682   1.01741   1.03259   1.03488
 Alpha virt. eigenvalues --    1.03901   1.09230   1.09664   1.10998   1.11154
 Alpha virt. eigenvalues --    1.11467   1.14243   1.14698   1.15300   1.15563
 Alpha virt. eigenvalues --    1.16466   1.20432   1.24627   1.24830   1.25642
 Alpha virt. eigenvalues --    1.27521   1.36940   1.40348   1.41830   1.44356
 Alpha virt. eigenvalues --    1.49326   1.57920   1.58557   1.59378   1.59781
 Alpha virt. eigenvalues --    1.60237   1.61905   1.63086   1.63718   1.64755
 Alpha virt. eigenvalues --    1.65375   1.65780   1.67271   1.71750   1.72710
 Alpha virt. eigenvalues --    1.73072   1.73110   1.74295   1.74751   1.75037
 Alpha virt. eigenvalues --    1.80493   1.82491   1.82821   1.84773   1.86007
 Alpha virt. eigenvalues --    1.86666   1.87300   1.88314   1.91744   1.92273
 Alpha virt. eigenvalues --    1.93321   1.96382   1.98646   2.00156   2.00696
 Alpha virt. eigenvalues --    2.02607   2.04055   2.04438   2.04830   2.05099
 Alpha virt. eigenvalues --    2.05308   2.09334   2.10274   2.10825   2.11186
 Alpha virt. eigenvalues --    2.12019   2.15818   2.16562   2.16976   2.19377
 Alpha virt. eigenvalues --    2.20851   2.30867   2.34949   2.35129   2.39261
 Alpha virt. eigenvalues --    2.47053   2.51360   2.52324   2.52665   2.53031
 Alpha virt. eigenvalues --    2.54954   2.56052   2.56067   2.57348   2.63969
 Alpha virt. eigenvalues --    2.71003   2.73385   2.73718   2.74736   2.74808
 Alpha virt. eigenvalues --    2.79142   2.80257   2.80298   2.80403   2.80781
 Alpha virt. eigenvalues --    2.82553   2.83359   2.84120   2.85611   2.85969
 Alpha virt. eigenvalues --    2.87730   2.89340   2.90965   2.91017   2.92145
 Alpha virt. eigenvalues --    2.92385   2.94102   2.98272   2.99144   3.00688
 Alpha virt. eigenvalues --    3.00971   3.03891   3.04130   3.05207   3.13036
 Alpha virt. eigenvalues --    3.15087   3.20683   3.22222   3.26356   3.28686
 Alpha virt. eigenvalues --    3.34916   3.43762   3.45714   3.48481   3.48825
 Alpha virt. eigenvalues --    3.58662   3.60467   3.63470   3.64119   3.68745
 Alpha virt. eigenvalues --    3.73434   3.75581   3.93662   4.08972   4.09601
 Alpha virt. eigenvalues --    4.13498   4.14726   4.24763   4.25041   4.25184
 Alpha virt. eigenvalues --    4.26330   4.50018   4.93650   4.95082  23.70970
 Alpha virt. eigenvalues --   23.85404  24.06831  24.09074  24.09281  24.11258
 Alpha virt. eigenvalues --   24.17443  24.22081  24.22400  24.22869  24.30948
 Alpha virt. eigenvalues --   24.32362
          Condensed to atoms (all electrons):
               1          2          3          4          5          6
     1  C   17.175254   0.812298   0.811174  -1.752709   0.102221  -5.525568
     2  C    0.812298  12.600885  -3.167979  -0.130967   0.374850  -3.089550
     3  C    0.811174  -3.167979  12.602038  -1.189483   0.077089  -3.088264
     4  C   -1.752709  -0.130967  -1.189483   6.802534  -0.105522   1.381135
     5  H    0.102221   0.374850   0.077089  -0.105522   0.465058  -0.079532
     6  C   -5.525568  -3.089550  -3.088264   1.381135  -0.079532  17.174893
     7  C   -1.754065  -1.189878  -0.133591   0.291067  -0.016969   1.383661
     8  H    0.102260   0.077074   0.375033  -0.016955   0.000431  -0.079706
     9  C   -0.204774   0.599945   0.600150   0.042895   0.017951  -1.222039
    10  H    0.030193  -0.110691  -0.026769   0.443380  -0.011631   0.045824
    11  C   -3.089094  -0.176734  -0.384569   0.327052  -0.009552   0.811797
    12  C   -3.088366  -0.384911  -0.175976   0.209397  -0.054582   0.812041
    13  H    0.030186  -0.026755  -0.110765   0.021986  -0.000254   0.045836
    14  H    0.025604   0.021167   0.021157  -0.052613   0.000751  -0.032780
    15  C    1.380945   0.327456   0.208892  -0.021769   0.017436  -1.752466
    16  H   -0.079533  -0.009551  -0.054559   0.017448   0.001102   0.102185
    17  C    1.383536   0.210141   0.327168  -0.085169   0.019500  -1.754238
    18  H   -0.079676  -0.054643  -0.009568   0.019486  -0.002320   0.102324
    19  C   -1.222045  -0.139456  -0.138800   0.048547  -0.014626  -0.204711
    20  H    0.045813   0.000701   0.007705  -0.001155   0.000375   0.030185
    21  H    0.045847   0.007748   0.000659  -0.001077   0.000558   0.030173
    22  H   -0.032778  -0.004239  -0.004206   0.001304  -0.000462   0.025607
               7          8          9         10         11         12
     1  C   -1.754065   0.102260  -0.204774   0.030193  -3.089094  -3.088366
     2  C   -1.189878   0.077074   0.599945  -0.110691  -0.176734  -0.384911
     3  C   -0.133591   0.375033   0.600150  -0.026769  -0.384569  -0.175976
     4  C    0.291067  -0.016955   0.042895   0.443380   0.327052   0.209397
     5  H   -0.016969   0.000431   0.017951  -0.011631  -0.009552  -0.054582
     6  C    1.383661  -0.079706  -1.222039   0.045824   0.811797   0.812041
     7  C    6.804552  -0.105577   0.042325   0.021994   0.209837   0.327396
     8  H   -0.105577   0.465059   0.017968  -0.000254  -0.054666  -0.009523
     9  C    0.042325   0.017968   6.460387  -0.084892  -0.139179  -0.139099
    10  H    0.021994  -0.000254  -0.084892   0.480497   0.000680   0.007725
    11  C    0.209837  -0.054666  -0.139179   0.000680  12.599358  -3.167591
    12  C    0.327396  -0.009523  -0.139099   0.007725  -3.167591  12.601562
    13  H    0.443429  -0.011632  -0.084879   0.000563   0.007739   0.000669
    14  H   -0.052631   0.000751   0.414499  -0.008368  -0.004223  -0.004223
    15  C   -0.085264   0.019475   0.048600  -0.001159  -0.130028  -1.189949
    16  H    0.019500  -0.002319  -0.014631   0.000375   0.374801   0.077102
    17  C   -0.022167   0.017514   0.048711  -0.001081  -1.189268  -0.133997
    18  H    0.017492   0.001100  -0.014636   0.000558   0.077092   0.375006
    19  C    0.048779  -0.014641  -0.028792   0.000349   0.599438   0.600484
    20  H   -0.001084   0.000558   0.000349   0.000052  -0.110668  -0.026775
    21  H   -0.001168   0.000376   0.000349   0.000009  -0.026758  -0.110762
    22  H    0.001311  -0.000462  -0.000655   0.000009   0.021139   0.021179
              13         14         15         16         17         18
     1  C    0.030186   0.025604   1.380945  -0.079533   1.383536  -0.079676
     2  C   -0.026755   0.021167   0.327456  -0.009551   0.210141  -0.054643
     3  C   -0.110765   0.021157   0.208892  -0.054559   0.327168  -0.009568
     4  C    0.021986  -0.052613  -0.021769   0.017448  -0.085169   0.019486
     5  H   -0.000254   0.000751   0.017436   0.001102   0.019500  -0.002320
     6  C    0.045836  -0.032780  -1.752466   0.102185  -1.754238   0.102324
     7  C    0.443429  -0.052631  -0.085264   0.019500  -0.022167   0.017492
     8  H   -0.011632   0.000751   0.019475  -0.002319   0.017514   0.001100
     9  C   -0.084879   0.414499   0.048600  -0.014631   0.048711  -0.014636
    10  H    0.000563  -0.008368  -0.001159   0.000375  -0.001081   0.000558
    11  C    0.007739  -0.004223  -0.130028   0.374801  -1.189268   0.077092
    12  C    0.000669  -0.004223  -1.189949   0.077102  -0.133997   0.375006
    13  H    0.480497  -0.008367  -0.001077   0.000558  -0.001165   0.000375
    14  H   -0.008367   0.471266   0.001306  -0.000462   0.001309  -0.000462
    15  C   -0.001077   0.001306   6.802101  -0.105464   0.290994  -0.016964
    16  H    0.000558  -0.000462  -0.105464   0.465046  -0.016958   0.000431
    17  C   -0.001165   0.001309   0.290994  -0.016958   6.804554  -0.105624
    18  H    0.000375  -0.000462  -0.016964   0.000431  -0.105624   0.465061
    19  C    0.000349  -0.000655   0.043099   0.017925   0.042271   0.017975
    20  H    0.000009   0.000009   0.443364  -0.011627   0.021990  -0.000255
    21  H    0.000052   0.000009   0.021992  -0.000254   0.443434  -0.011633
    22  H    0.000009  -0.000010  -0.052593   0.000749  -0.052647   0.000751
              19         20         21         22
     1  C   -1.222045   0.045813   0.045847  -0.032778
     2  C   -0.139456   0.000701   0.007748  -0.004239
     3  C   -0.138800   0.007705   0.000659  -0.004206
     4  C    0.048547  -0.001155  -0.001077   0.001304
     5  H   -0.014626   0.000375   0.000558  -0.000462
     6  C   -0.204711   0.030185   0.030173   0.025607
     7  C    0.048779  -0.001084  -0.001168   0.001311
     8  H   -0.014641   0.000558   0.000376  -0.000462
     9  C   -0.028792   0.000349   0.000349  -0.000655
    10  H    0.000349   0.000052   0.000009   0.000009
    11  C    0.599438  -0.110668  -0.026758   0.021139
    12  C    0.600484  -0.026775  -0.110762   0.021179
    13  H    0.000349   0.000009   0.000052   0.000009
    14  H   -0.000655   0.000009   0.000009  -0.000010
    15  C    0.043099   0.443364   0.021992  -0.052593
    16  H    0.017925  -0.011627  -0.000254   0.000749
    17  C    0.042271   0.021990   0.443434  -0.052647
    18  H    0.017975  -0.000255  -0.011633   0.000751
    19  C    6.460343  -0.084871  -0.084888   0.414495
    20  H   -0.084871   0.480496   0.000563  -0.008367
    21  H   -0.084888   0.000563   0.480498  -0.008368
    22  H    0.414495  -0.008367  -0.008368   0.471268
 Mulliken charges:
               1
     1  C    0.883277
     2  C   -0.546909
     3  C   -0.546535
     4  C   -0.248813
     5  H    0.218128
     6  C    0.883191
     7  C   -0.248949
     8  H    0.218138
     9  C   -0.360554
    10  H    0.212636
    11  C   -0.546603
    12  C   -0.546808
    13  H    0.212637
    14  H    0.206967
    15  C   -0.248928
    16  H    0.218135
    17  C   -0.248806
    18  H    0.218130
    19  C   -0.360569
    20  H    0.212631
    21  H    0.212640
    22  H    0.206965
 Sum of Mulliken charges =  -0.00000
 Mulliken charges with hydrogens summed into heavy atoms:
               1
     1  C    0.883277
     2  C   -0.328782
     3  C   -0.328398
     4  C   -0.036177
     6  C    0.883191
     7  C   -0.036311
     9  C   -0.153587
    11  C   -0.328468
    12  C   -0.328678
    15  C   -0.036297
    17  C   -0.036166
    19  C   -0.153603
 Electronic spatial extent (au):  <R**2>=           2312.0102
 Charge=             -0.0000 electrons
 Dipole moment (field-independent basis, Debye):
    X=              0.0000    Y=             -0.0002    Z=              0.0003  Tot=              0.0004
 Quadrupole moment (field-independent basis, Debye-Ang):
   XX=            -61.7726   YY=            -66.9108   ZZ=            -72.0613
   XY=             -0.0005   XZ=              0.0013   YZ=              0.0000
 Traceless Quadrupole moment (field-independent basis, Debye-Ang):
   XX=              5.1423   YY=              0.0041   ZZ=             -5.1464
   XY=             -0.0005   XZ=              0.0013   YZ=              0.0000
 Octapole moment (field-independent basis, Debye-Ang**2):
  XXX=             -0.0000  YYY=              0.0009  ZZZ=              0.0032  XYY=             -0.0005
  XXY=             -0.0047  XXZ=              0.0009  XZZ=              0.0006  YZZ=             -0.0005
  YYZ=              0.0001  XYZ=             18.1259
 Hexadecapole moment (field-independent basis, Debye-Ang**3):
 XXXX=          -2302.4978 YYYY=           -422.1650 ZZZZ=           -268.6789 XXXY=             -0.0019
 XXXZ=              0.0259 YYYX=             -0.0092 YYYZ=              0.0001 ZZZX=              0.0016
 ZZZY=              0.0002 XXYY=           -483.6393 XXZZ=           -492.7489 YYZZ=            -96.4608
 XXYZ=              0.0008 YYXZ=              0.0012 ZZXY=              0.0038
 N-N= 5.980277058287D+02 E-N=-2.270378832107D+03  KE= 4.610090604806D+02
 No NMR shielding tensors so no spin-rotation constants.
 Leave Link  601 at Sat Nov  5 21:37:15 2022, MaxMem= 16106127360 cpu:               4.2 elap:               0.2
 (Enter /opt/ap/G16/B01/g16/l9999.exe)
 1\1\GINC-N03\SP\RwB97XD\6-311++G(d,p)\C12H10\ROOT\05-Nov-2022\0\\#P wB
 97XD/6-311++G(d,p) scf=maxcycle=512\\_conf032.gjf nmol_natom 1_22\\0,1
 \C\C,1,1.40491871\C,1,1.40495292,2,118.20503621\C,2,1.3939373,1,120.91
 08946,3,0.05365643,0\H,2,1.08593095,1,119.3452094,3,-178.3624307,0\C,1
 ,1.48449301,2,120.90144423,4,-179.96388019,0\C,3,1.39389842,1,120.9105
 0598,2,0.03587687,0\H,3,1.08593608,1,119.34159615,2,-178.38281524,0\C,
 4,1.39606958,2,120.24555868,1,-0.09283196,0\H,4,1.08627898,2,119.66792
 041,1,-179.51486187,0\C,6,1.40492034,1,120.90156908,2,70.,0\C,6,1.4049
 5329,1,120.89324856,2,-110.,0\H,7,1.08627928,3,119.67027175,1,-179.512
 58183,0\H,9,1.08597601,4,120.2602535,2,-179.95233103,0\C,11,1.39393437
 ,6,120.91099656,1,-179.95869964,0\H,11,1.08593173,6,119.34475907,1,1.6
 1891886,0\C,12,1.39390147,6,120.91022615,1,-179.94297913,0\H,12,1.0859
 3608,6,119.34175044,1,1.63241608,0\C,15,1.39607161,11,120.24535737,6,-
 0.10315482,0\H,15,1.08627786,11,119.66861247,6,-179.51844254,0\H,17,1.
 08627825,12,119.6702798,6,-179.51590091,0\H,19,1.08597601,15,120.25988
 597,11,-179.94731581,0\\Version=ES64L-G16RevB.01\State=1-A\HF=-463.248
 6519\RMSD=4.321e-09\Dipole=-0.0000008,-0.0001417,0.0000127\Quadrupole=
 2.4834459,-2.5668247,0.0833787,-0.9237394,2.2383989,1.5437962\PG=C01 [
 X(C12H10)]\\@


 K N O W I N G  IS A BARRIER WHICH PREVENTS LEARNING

                     -- TEACHING OF THE BENE GESSERIT
 Job cpu time:       0 days  0 hours 13 minutes 49.0 seconds.
 Elapsed time:       0 days  0 hours  0 minutes 26.2 seconds.
 File lengths (MBytes):  RWF=     62 Int=      0 D2E=      0 Chk=      8 Scr=      1
 Normal termination of Gaussian 16 at Sat Nov  5 21:37:15 2022.
