 Entering Gaussian System, Link 0=g16
 Input=_conf004.gjf
 Output=_conf004.log
 Initial command:
 /opt/ap/G16/B01/g16/l1.exe "/tmp2/scr/Gau-12925.inp" -scrdir="/tmp2/scr/"
 Entering Link 1 = /opt/ap/G16/B01/g16/l1.exe PID=     12926.
  
 Copyright (c) 1988-2017, Gaussian, Inc.  All Rights Reserved.
  
 This is part of the Gaussian(R) 16 program.  It is based on
 the Gaussian(R) 09 system (copyright 2009, Gaussian, Inc.),
 the Gaussian(R) 03 system (copyright 2003, Gaussian, Inc.),
 the Gaussian(R) 98 system (copyright 1998, Gaussian, Inc.),
 the Gaussian(R) 94 system (copyright 1995, Gaussian, Inc.),
 the Gaussian 92(TM) system (copyright 1992, Gaussian, Inc.),
 the Gaussian 90(TM) system (copyright 1990, Gaussian, Inc.),
 the Gaussian 88(TM) system (copyright 1988, Gaussian, Inc.),
 the Gaussian 86(TM) system (copyright 1986, Carnegie Mellon
 University), and the Gaussian 82(TM) system (copyright 1983,
 Carnegie Mellon University). Gaussian is a federally registered
 trademark of Gaussian, Inc.
  
 This software contains proprietary and confidential information,
 including trade secrets, belonging to Gaussian, Inc.
  
 This software is provided under written license and may be
 used, copied, transmitted, or stored only in accord with that
 written license.
  
 The following legend is applicable only to US Government
 contracts under FAR:
  
                    RESTRICTED RIGHTS LEGEND
  
 Use, reproduction and disclosure by the US Government is
 subject to restrictions as set forth in subparagraphs (a)
 and (c) of the Commercial Computer Software - Restricted
 Rights clause in FAR 52.227-19.
  
 Gaussian, Inc.
 340 Quinnipiac St., Bldg. 40, Wallingford CT 06492
  
  
 ---------------------------------------------------------------
 Warning -- This program may not be used in any manner that
 competes with the business of Gaussian, Inc. or will provide
 assistance to any competitor of Gaussian, Inc.  The licensee
 of this program is prohibited from giving any competitor of
 Gaussian, Inc. access to this program.  By using this program,
 the user acknowledges that Gaussian, Inc. is engaged in the
 business of creating and licensing software in the field of
 computational chemistry and represents and warrants to the
 licensee that it is not a competitor of Gaussian, Inc. and that
 it will not use this program in any manner prohibited above.
 ---------------------------------------------------------------
  

 Cite this work as:
 Gaussian 16, Revision B.01,
 M. J. Frisch, G. W. Trucks, H. B. Schlegel, G. E. Scuseria, 
 M. A. Robb, J. R. Cheeseman, G. Scalmani, V. Barone, 
 G. A. Petersson, H. Nakatsuji, X. Li, M. Caricato, A. V. Marenich, 
 J. Bloino, B. G. Janesko, R. Gomperts, B. Mennucci, H. P. Hratchian, 
 J. V. Ortiz, A. F. Izmaylov, J. L. Sonnenberg, D. Williams-Young, 
 F. Ding, F. Lipparini, F. Egidi, J. Goings, B. Peng, A. Petrone, 
 T. Henderson, D. Ranasinghe, V. G. Zakrzewski, J. Gao, N. Rega, 
 G. Zheng, W. Liang, M. Hada, M. Ehara, K. Toyota, R. Fukuda, 
 J. Hasegawa, M. Ishida, T. Nakajima, Y. Honda, O. Kitao, H. Nakai, 
 T. Vreven, K. Throssell, J. A. Montgomery, Jr., J. E. Peralta, 
 F. Ogliaro, M. J. Bearpark, J. J. Heyd, E. N. Brothers, K. N. Kudin, 
 V. N. Staroverov, T. A. Keith, R. Kobayashi, J. Normand, 
 K. Raghavachari, A. P. Rendell, J. C. Burant, S. S. Iyengar, 
 J. Tomasi, M. Cossi, J. M. Millam, M. Klene, C. Adamo, R. Cammi, 
 J. W. Ochterski, R. L. Martin, K. Morokuma, O. Farkas, 
 J. B. Foresman, and D. J. Fox, Gaussian, Inc., Wallingford CT, 2016.
 
 ******************************************
 Gaussian 16:  ES64L-G16RevB.01 20-Dec-2017
                 5-Nov-2022 
 ******************************************
 %nprocshared=32
 Will use up to   32 processors via shared memory.
 %mem=120GB
 %chk=_conf004.chk
 ----------------------------------------
 #P wB97XD/6-311++G(d,p) scf=maxcycle=512
 ----------------------------------------
 1/38=1,172=1/1;
 2/12=2,17=6,18=5,40=1/2;
 3/5=4,6=6,7=1111,11=2,25=1,30=1,74=-58/1,2,3;
 4//1;
 5/5=2,7=512,38=5/2;
 6/7=2,8=2,9=2,10=2,28=1/1;
 99/5=1,9=1/99;
 Leave Link    1 at Sat Nov  5 21:33:43 2022, MaxMem= 16106127360 cpu:               2.4 elap:               0.1
 (Enter /opt/ap/G16/B01/g16/l101.exe)
 ----------------------------
 _conf004.gjf nmol_natom 1_22
 ----------------------------
 Symbolic Z-matrix:
 Charge =  0 Multiplicity = 1
 C
 C                    1     1.40492 
 C                    1     1.40495  2     118.20504 
 C                    2     1.39394  1     120.91089  3     0.05366  0
 H                    2     1.08593  1     119.34521  3    -178.36243  0
 C                    1     1.48449  2     120.90144  4    -179.96388  0
 C                    3     1.3939   1     120.91051  2     0.03588  0
 H                    3     1.08594  1     119.3416  2    -178.38282  0
 C                    4     1.39607  2     120.24556  1    -0.09283  0
 H                    4     1.08628  2     119.66792  1    -179.51486  0
 C                    6     1.40492  1     120.90157  2    -70.      0
 C                    6     1.40495  1     120.89325  2     110.     0
 H                    7     1.08628  3     119.67027  1    -179.51258  0
 H                    9     1.08598  4     120.26025  2    -179.95233  0
 C                    11    1.39393  6     120.911  1    -179.9587  0
 H                    11    1.08593  6     119.34476  1     1.61892  0
 C                    12    1.3939   6     120.91023  1    -179.94298  0
 H                    12    1.08594  6     119.34175  1     1.63242  0
 C                    15    1.39607  11    120.24536  6    -0.10315  0
 H                    15    1.08628  11    119.66861  6    -179.51844  0
 H                    17    1.08628  12    119.67028  6    -179.5159  0
 H                    19    1.08598  15    120.25989  11   -179.94732  0
 
 ITRead=  0  0  0  0  0  0  0  0  0  0  0  0  0  0  0  0  0  0  0  0
 ITRead=  0  0
 MicOpt= -1 -1 -1 -1 -1 -1 -1 -1 -1 -1 -1 -1 -1 -1 -1 -1 -1 -1 -1 -1
 MicOpt= -1 -1
 NAtoms=     22 NQM=       22 NQMF=       0 NMMI=      0 NMMIF=      0
                NMic=       0 NMicF=      0.
                    Isotopes and Nuclear Properties:
 (Nuclear quadrupole moments (NQMom) in fm**2, nuclear magnetic moments (NMagM)
  in nuclear magnetons)

  Atom         1           2           3           4           5           6           7           8           9          10
 IAtWgt=          12          12          12          12           1          12          12           1          12           1
 AtmWgt=  12.0000000  12.0000000  12.0000000  12.0000000   1.0078250  12.0000000  12.0000000   1.0078250  12.0000000   1.0078250
 NucSpn=           0           0           0           0           1           0           0           1           0           1
 AtZEff=  -0.0000000  -0.0000000  -0.0000000  -0.0000000  -0.0000000  -0.0000000  -0.0000000  -0.0000000  -0.0000000  -0.0000000
 NQMom=    0.0000000   0.0000000   0.0000000   0.0000000   0.0000000   0.0000000   0.0000000   0.0000000   0.0000000   0.0000000
 NMagM=    0.0000000   0.0000000   0.0000000   0.0000000   2.7928460   0.0000000   0.0000000   2.7928460   0.0000000   2.7928460
 AtZNuc=   6.0000000   6.0000000   6.0000000   6.0000000   1.0000000   6.0000000   6.0000000   1.0000000   6.0000000   1.0000000

  Atom        11          12          13          14          15          16          17          18          19          20
 IAtWgt=          12          12           1           1          12           1          12           1          12           1
 AtmWgt=  12.0000000  12.0000000   1.0078250   1.0078250  12.0000000   1.0078250  12.0000000   1.0078250  12.0000000   1.0078250
 NucSpn=           0           0           1           1           0           1           0           1           0           1
 AtZEff=  -0.0000000  -0.0000000  -0.0000000  -0.0000000  -0.0000000  -0.0000000  -0.0000000  -0.0000000  -0.0000000  -0.0000000
 NQMom=    0.0000000   0.0000000   0.0000000   0.0000000   0.0000000   0.0000000   0.0000000   0.0000000   0.0000000   0.0000000
 NMagM=    0.0000000   0.0000000   2.7928460   2.7928460   0.0000000   2.7928460   0.0000000   2.7928460   0.0000000   2.7928460
 AtZNuc=   6.0000000   6.0000000   1.0000000   1.0000000   6.0000000   1.0000000   6.0000000   1.0000000   6.0000000   1.0000000

  Atom        21          22
 IAtWgt=           1           1
 AtmWgt=   1.0078250   1.0078250
 NucSpn=           1           1
 AtZEff=  -0.0000000  -0.0000000
 NQMom=    0.0000000   0.0000000
 NMagM=    2.7928460   2.7928460
 AtZNuc=   1.0000000   1.0000000
 Leave Link  101 at Sat Nov  5 21:33:43 2022, MaxMem= 16106127360 cpu:               5.2 elap:               0.2
 (Enter /opt/ap/G16/B01/g16/l202.exe)
                          Input orientation:                          
 ---------------------------------------------------------------------
 Center     Atomic      Atomic             Coordinates (Angstroms)
 Number     Number       Type             X           Y           Z
 ---------------------------------------------------------------------
      1          6           0        0.000000    0.000000    0.000000
      2          6           0        0.000000    0.000000    1.404919
      3          6           0        1.238131    0.000000   -0.664020
      4          6           0        1.195952    0.001120    2.120990
      5          1           0       -0.946201   -0.027051    1.937101
      6          6           0       -1.273772   -0.000390   -0.762381
      7          6           0        2.434381   -0.000749    0.051479
      8          1           0        1.259850    0.026715   -1.749411
      9          6           0        2.418826    0.000311    1.447501
     10          1           0        1.172413   -0.006894    3.206985
     11          6           0       -2.104268   -1.133437   -0.779148
     12          6           0       -1.681316    1.132403   -1.486660
     13          1           0        3.380326    0.007295   -0.482493
     14          1           0        3.350700    0.000403    2.005133
     15          6           0       -3.299960   -1.134314   -1.495648
     16          1           0       -1.820327   -2.009935   -0.204365
     17          6           0       -2.877857    1.132833   -2.201678
     18          1           0       -1.040728    2.009009   -1.508296
     19          6           0       -3.692671   -0.000802   -2.209753
     20          1           0       -3.930561   -2.018784   -1.488284
     21          1           0       -3.169614    2.017055   -2.761167
     22          1           0       -4.624570   -0.000932   -2.767344
 ---------------------------------------------------------------------
                    Distance matrix (angstroms):
                    1          2          3          4          5
     1  C    0.000000
     2  C    1.404919   0.000000
     3  C    1.404953   2.411116   0.000000
     4  C    2.434934   1.393937   2.785330   0.000000
     5  H    2.156012   1.085931   3.396745   2.150216   0.000000
     6  C    1.484493   2.513898   2.513829   3.796494   2.719415
     7  C    2.434925   2.785320   1.393898   2.411760   3.870994
     8  H    2.156008   3.396723   1.085936   3.871013   4.296501
     9  C    2.818861   2.419201   2.419207   1.396070   3.400568
    10  H    3.414579   2.149893   3.871569   1.086279   2.470128
    11  C    2.513901   3.237711   3.531228   4.537563   3.153287
    12  C    2.513826   3.531344   3.237630   4.751170   3.688749
    13  H    3.414594   3.871560   2.149884   3.398478   4.957262
    14  H    3.904837   3.404035   3.404016   2.157861   4.297527
    15  C    3.796494   4.537587   4.751058   5.880690   4.306969
    16  H    2.719411   3.153288   3.688535   4.306920   3.046605
    17  C    3.796414   4.751096   4.537517   6.046665   4.712337
    18  H    2.719225   3.688638   3.153112   4.712332   4.003153
    19  C    4.303351   5.167366   5.167408   6.531001   4.973951
    20  H    4.662595   5.281612   5.609838   6.586958   4.960511
    21  H    4.662511   5.609923   5.281549   6.852564   5.585308
    22  H    5.389327   6.228517   6.228583   7.600941   5.971842
                    6          7          8          9         10
     6  C    0.000000
     7  C    3.796415   0.000000
     8  H    2.719228   2.150228   0.000000
     9  C    4.303354   1.396108   3.400612   0.000000
    10  H    4.662588   3.398502   4.957280   2.156243   0.000000
    11  C    1.404920   4.751027   3.688449   5.167372   5.281571
    12  C    1.404953   4.537496   3.153100   5.167407   5.609997
    13  H    4.662512   1.086279   2.470197   2.156248   4.299689
    14  H    5.389330   2.157871   4.297551   1.085976   2.487858
    15  C    2.434934   6.046589   4.712139   6.531004   6.586953
    16  H    2.156010   4.712200   4.002824   4.973949   4.960441
    17  C    2.434925   5.880612   4.306816   6.531000   6.852539
    18  H    2.156010   4.306786   3.046356   4.973943   5.585313
    19  C    2.818858   6.530998   4.973946   7.122212   7.280806
    20  H    3.414583   6.852432   5.585035   7.280817   7.220360
    21  H    3.414594   6.586902   4.960369   7.280852   7.653000
    22  H    3.904834   7.600958   5.971880   8.208188   8.324521
                   11         12         13         14         15
    11  C    0.000000
    12  C    2.411119   0.000000
    13  H    5.609817   5.281518   0.000000
    14  H    6.228523   6.228582   2.487812   0.000000
    15  C    1.393934   2.785336   6.852443   7.600943   0.000000
    16  H    1.085932   3.396748   5.585102   5.971839   2.150219
    17  C    2.785320   1.393901   6.586902   7.600959   2.411763
    18  H    3.396725   1.085936   4.960327   5.971878   3.871016
    19  C    2.419198   2.419208   7.280850   8.208188   1.396072
    20  H    2.149897   3.871575   7.652821   8.324533   1.086278
    21  H    3.871558   2.149886   7.220333   8.324603   3.398478
    22  H    3.404029   3.404019   8.324600   9.294164   2.157859
                   16         17         18         19         20
    16  H    0.000000
    17  C    3.870997   0.000000
    18  H    4.296501   2.150234   0.000000
    19  C    3.400569   1.396107   3.400615   0.000000
    20  H    2.470145   3.398500   4.957282   2.156238   0.000000
    21  H    4.957264   1.086278   2.470204   2.156245   4.299683
    22  H    4.297527   2.157871   4.297556   1.085976   2.487844
                   21         22
    21  H    0.000000
    22  H    2.487812   0.000000
 Stoichiometry    C12H10
 Framework group  C1[X(C12H10)]
 Deg. of freedom    60
 Full point group                 C1      NOp   1
 Largest Abelian subgroup         C1      NOp   1
 Largest concise Abelian subgroup C1      NOp   1
                         Standard orientation:                         
 ---------------------------------------------------------------------
 Center     Atomic      Atomic             Coordinates (Angstroms)
 Number     Number       Type             X           Y           Z
 ---------------------------------------------------------------------
      1          6           0       -0.742246    0.000039   -0.000144
      2          6           0       -1.463701   -0.987470   -0.691609
      3          6           0       -1.463670    0.987464    0.691545
      4          6           0       -2.857638   -0.987201   -0.692515
      5          1           0       -0.925070   -1.774975   -1.210222
      6          6           0        0.742247    0.000012    0.000023
      7          6           0       -2.857568    0.987188    0.692539
      8          1           0       -0.924940    1.774837    1.210265
      9          6           0       -3.561107   -0.000001    0.000000
     10          1           0       -3.395119   -1.765036   -1.227387
     11          6           0        1.463669   -0.987443    0.691603
     12          6           0        1.463702    0.987550   -0.691473
     13          1           0       -3.395057    1.764940    1.227526
     14          1           0       -4.647083   -0.000011    0.000094
     15          6           0        2.857603   -0.987162    0.692597
     16          1           0        0.925003   -1.774855    1.210322
     17          6           0        2.857603    0.987180   -0.692529
     18          1           0        0.924998    1.775023   -1.210068
     19          6           0        3.561105   -0.000126   -0.000123
     20          1           0        3.395067   -1.764916    1.227602
     21          1           0        3.395121    1.764986   -1.227405
     22          1           0        4.647081   -0.000178   -0.000213
 ---------------------------------------------------------------------
 Rotational constants (GHZ):           2.8585222           0.5243738           0.4932157
 Leave Link  202 at Sat Nov  5 21:33:44 2022, MaxMem= 16106127360 cpu:               2.2 elap:               0.1
 (Enter /opt/ap/G16/B01/g16/l301.exe)
 Standard basis: 6-311++G(d,p) (5D, 7F)
 Ernie: Thresh=  0.10000D-02 Tol=  0.10000D-05 Strict=F.
 There are   346 symmetry adapted cartesian basis functions of A   symmetry.
 There are   334 symmetry adapted basis functions of A   symmetry.
   334 basis functions,   522 primitive gaussians,   346 cartesian basis functions
    41 alpha electrons       41 beta electrons
       nuclear repulsion energy       598.0551553716 Hartrees.
 IExCor= 4639 DFT=T Ex+Corr=wB97XD ExCW=0 ScaHFX=  1.000000
 ScaDFX=  1.000000  1.000000  1.000000  1.000000 ScalE2=  1.000000  1.000000
 IRadAn=      5 IRanWt=     -1 IRanGd=            0 ICorTp=0 IEmpDi=121
 HFx  wShort=  0.000000 wLong=  0.200000 cFull=  0.222036 cShort=  0.000000 cLong=  0.777964
 DFx  wShort=  0.000000 wLong=  0.200000 cFull=  0.000000 cShort=  0.000000 cLong=  1.000000
 NAtoms=   22 NActive=   22 NUniq=   22 SFac= 1.00D+00 NAtFMM=   60 NAOKFM=F Big=F
 Integral buffers will be    131072 words long.
 Raffenetti 2 integral format.
 Two-electron integral symmetry is turned on.
 R6Disp:  Grimme-D2 Dispersion energy=       -0.0119322706 Hartrees.
 Nuclear repulsion after empirical dispersion term =      598.0432231010 Hartrees.
 Leave Link  301 at Sat Nov  5 21:33:44 2022, MaxMem= 16106127360 cpu:               1.2 elap:               0.0
 (Enter /opt/ap/G16/B01/g16/l302.exe)
 NPDir=0 NMtPBC=     1 NCelOv=     1 NCel=       1 NClECP=     1 NCelD=      1
         NCelK=      1 NCelE2=     1 NClLst=     1 CellRange=     0.0.
 One-electron integrals computed using PRISM.
 One-electron integral symmetry used in STVInt
 NBasis=   334 RedAO= T EigKep=  1.93D-06  NBF=   334
 NBsUse=   332 1.00D-06 EigRej=  8.69D-07 NBFU=   332
 Precomputing XC quadrature grid using
 IXCGrd= 4 IRadAn=           5 IRanWt=          -1 IRanGd=           0 AccXCQ= 0.00D+00.
 Generated NRdTot=       0 NPtTot=           0 NUsed=           0 NTot=          32
 NSgBfM=   346   346   346   346   346 MxSgAt=    22 MxSgA2=    22.
 Leave Link  302 at Sat Nov  5 21:33:44 2022, MaxMem= 16106127360 cpu:               7.9 elap:               0.3
 (Enter /opt/ap/G16/B01/g16/l303.exe)
 DipDrv:  MaxL=1.
 Leave Link  303 at Sat Nov  5 21:33:44 2022, MaxMem= 16106127360 cpu:               1.6 elap:               0.1
 (Enter /opt/ap/G16/B01/g16/l401.exe)
 ExpMin= 3.60D-02 ExpMax= 4.56D+03 ExpMxC= 6.82D+02 IAcc=3 IRadAn=         5 AccDes= 0.00D+00
 Harris functional with IExCor= 4639 and IRadAn=       5 diagonalized for initial guess.
 HarFok:  IExCor= 4639 AccDes= 0.00D+00 IRadAn=         5 IDoV= 1 UseB2=F ITyADJ=14
 ICtDFT=  3500011 ScaDFX=  1.000000  1.000000  1.000000  1.000000
 FoFCou: FMM=F IPFlag=           0 FMFlag=      100000 FMFlg1=           0
         NFxFlg=           0 DoJE=T BraDBF=F KetDBF=T FulRan=T
         wScrn=  0.000000 ICntrl=       500 IOpCl=  0 I1Cent=   200000004 NGrid=           0
         NMat0=    1 NMatS0=      1 NMatT0=    0 NMatD0=    1 NMtDS0=    0 NMtDT0=    0
 Petite list used in FoFCou.
 Harris En= -441.937664487019    
 JPrj=0 DoOrth=F DoCkMO=F.
 Leave Link  401 at Sat Nov  5 21:33:45 2022, MaxMem= 16106127360 cpu:              19.8 elap:               0.6
 (Enter /opt/ap/G16/B01/g16/l502.exe)
 Integral symmetry usage will be decided dynamically.
 Closed shell SCF:
 Using DIIS extrapolation, IDIIS=  1040.
 NGot= 16106127360 LenX= 16105873520 LenY= 16105753363
 Requested convergence on RMS density matrix=1.00D-08 within 512 cycles.
 Requested convergence on MAX density matrix=1.00D-06.
 Requested convergence on             energy=1.00D-06.
 No special actions if energy rises.
 Fock matrices will be formed incrementally for  20 cycles.

 Cycle   1  Pass 1  IDiag  1:
 FoFJK:  IHMeth= 1 ICntrl=       0 DoSepK=T KAlg= 0 I1Cent=           0 FoldK=F
 IRaf=         1 NMat=       1 IRICut=       1 DoRegI=T DoRafI=F ISym2E= 0 IDoP0=0 IntGTp=1.
 FoFCou: FMM=F IPFlag=           0 FMFlag=      100000 FMFlg1=           0
         NFxFlg=           0 DoJE=T BraDBF=F KetDBF=F FulRan=T
         wScrn=  0.000000 ICntrl=       500 IOpCl=  0 I1Cent=           0 NGrid=           0
         NMat0=    1 NMatS0=      1 NMatT0=    0 NMatD0=    1 NMtDS0=    0 NMtDT0=    0
 Symmetry not used in FoFCou.
 E= -463.151484869605    
 DIIS: error= 6.14D-02 at cycle   1 NSaved=   1.
 NSaved= 1 IEnMin= 1 EnMin= -463.151484869605     IErMin= 1 ErrMin= 6.14D-02
 ErrMax= 6.14D-02  0.00D+00 EMaxC= 1.00D-01 BMatC= 9.52D-01 BMatP= 9.52D-01
 IDIUse=3 WtCom= 3.86D-01 WtEn= 6.14D-01
 Coeff-Com:  0.100D+01
 Coeff-En:   0.100D+01
 Coeff:      0.100D+01
 Gap=     0.361 Goal=   None    Shift=    0.000
 GapD=    0.361 DampG=1.000 DampE=0.500 DampFc=0.5000 IDamp=-1.
 Damping current iteration by 5.00D-01
 RMSDP=5.49D-02 MaxDP=3.42D+00              OVMax= 4.04D-02

 Cycle   2  Pass 1  IDiag  1:
 RMSU=  5.16D-03    CP:  7.64D-01
 E= -463.200390756181     Delta-E=       -0.048905886576 Rises=F Damp=T
 DIIS: error= 3.00D-02 at cycle   2 NSaved=   2.
 NSaved= 2 IEnMin= 2 EnMin= -463.200390756181     IErMin= 2 ErrMin= 3.00D-02
 ErrMax= 3.00D-02  0.00D+00 EMaxC= 1.00D-01 BMatC= 2.16D-01 BMatP= 9.52D-01
 IDIUse=3 WtCom= 7.00D-01 WtEn= 3.00D-01
 Coeff-Com: -0.883D+00 0.188D+01
 Coeff-En:   0.000D+00 0.100D+01
 Coeff:     -0.618D+00 0.162D+01
 Gap=     0.360 Goal=   None    Shift=    0.000
 RMSDP=2.39D-02 MaxDP=1.33D+00 DE=-4.89D-02 OVMax= 3.71D-02

 Cycle   3  Pass 1  IDiag  1:
 RMSU=  4.35D-03    CP:  5.58D-01  1.01D+00
 E= -463.243821109177     Delta-E=       -0.043430352996 Rises=F Damp=F
 DIIS: error= 5.29D-03 at cycle   3 NSaved=   3.
 NSaved= 3 IEnMin= 3 EnMin= -463.243821109177     IErMin= 3 ErrMin= 5.29D-03
 ErrMax= 5.29D-03  0.00D+00 EMaxC= 1.00D-01 BMatC= 4.89D-03 BMatP= 2.16D-01
 IDIUse=3 WtCom= 9.47D-01 WtEn= 5.29D-02
 Coeff-Com: -0.375D+00 0.797D+00 0.578D+00
 Coeff-En:   0.000D+00 0.000D+00 0.100D+01
 Coeff:     -0.355D+00 0.755D+00 0.600D+00
 Gap=     0.361 Goal=   None    Shift=    0.000
 RMSDP=3.89D-03 MaxDP=2.89D-01 DE=-4.34D-02 OVMax= 2.22D-02

 Cycle   4  Pass 1  IDiag  1:
 RMSU=  9.67D-04    CP:  5.31D-01  1.38D+00  7.09D-01
 E= -463.248190387419     Delta-E=       -0.004369278242 Rises=F Damp=F
 DIIS: error= 1.57D-03 at cycle   4 NSaved=   4.
 NSaved= 4 IEnMin= 4 EnMin= -463.248190387419     IErMin= 4 ErrMin= 1.57D-03
 ErrMax= 1.57D-03  0.00D+00 EMaxC= 1.00D-01 BMatC= 3.02D-04 BMatP= 4.89D-03
 IDIUse=3 WtCom= 9.84D-01 WtEn= 1.57D-02
 Coeff-Com: -0.135D+00 0.287D+00 0.287D+00 0.560D+00
 Coeff-En:   0.000D+00 0.000D+00 0.000D+00 0.100D+01
 Coeff:     -0.132D+00 0.283D+00 0.282D+00 0.567D+00
 Gap=     0.356 Goal=   None    Shift=    0.000
 RMSDP=9.18D-04 MaxDP=5.18D-02 DE=-4.37D-03 OVMax= 5.39D-03

 Cycle   5  Pass 1  IDiag  1:
 RMSU=  3.00D-04    CP:  5.25D-01  1.34D+00  7.92D-01  6.36D-01
 E= -463.248506937359     Delta-E=       -0.000316549939 Rises=F Damp=F
 DIIS: error= 2.34D-04 at cycle   5 NSaved=   5.
 NSaved= 5 IEnMin= 5 EnMin= -463.248506937359     IErMin= 5 ErrMin= 2.34D-04
 ErrMax= 2.34D-04  0.00D+00 EMaxC= 1.00D-01 BMatC= 8.18D-06 BMatP= 3.02D-04
 IDIUse=3 WtCom= 9.98D-01 WtEn= 2.34D-03
 Coeff-Com:  0.271D-01-0.579D-01-0.285D-01 0.115D+00 0.944D+00
 Coeff-En:   0.000D+00 0.000D+00 0.000D+00 0.000D+00 0.100D+01
 Coeff:      0.271D-01-0.578D-01-0.284D-01 0.115D+00 0.944D+00
 Gap=     0.356 Goal=   None    Shift=    0.000
 RMSDP=2.14D-04 MaxDP=9.05D-03 DE=-3.17D-04 OVMax= 1.33D-03

 Cycle   6  Pass 1  IDiag  1:
 RMSU=  5.38D-05    CP:  5.25D-01  1.32D+00  8.24D-01  7.28D-01  1.28D+00
 E= -463.248517802128     Delta-E=       -0.000010864769 Rises=F Damp=F
 DIIS: error= 5.21D-05 at cycle   6 NSaved=   6.
 NSaved= 6 IEnMin= 6 EnMin= -463.248517802128     IErMin= 6 ErrMin= 5.21D-05
 ErrMax= 5.21D-05  0.00D+00 EMaxC= 1.00D-01 BMatC= 5.38D-07 BMatP= 8.18D-06
 IDIUse=1 WtCom= 1.00D+00 WtEn= 0.00D+00
 Coeff-Com:  0.127D-01-0.270D-01-0.158D-01 0.298D-01 0.349D+00 0.651D+00
 Coeff:      0.127D-01-0.270D-01-0.158D-01 0.298D-01 0.349D+00 0.651D+00
 Gap=     0.356 Goal=   None    Shift=    0.000
 RMSDP=5.68D-05 MaxDP=3.99D-03 DE=-1.09D-05 OVMax= 2.41D-04

 Cycle   7  Pass 1  IDiag  1:
 RMSU=  1.22D-05    CP:  5.25D-01  1.32D+00  8.29D-01  7.29D-01  1.34D+00
                    CP:  1.16D+00
 E= -463.248518402541     Delta-E=       -0.000000600413 Rises=F Damp=F
 DIIS: error= 1.79D-05 at cycle   7 NSaved=   7.
 NSaved= 7 IEnMin= 7 EnMin= -463.248518402541     IErMin= 7 ErrMin= 1.79D-05
 ErrMax= 1.79D-05  0.00D+00 EMaxC= 1.00D-01 BMatC= 5.07D-08 BMatP= 5.38D-07
 IDIUse=1 WtCom= 1.00D+00 WtEn= 0.00D+00
 Coeff-Com: -0.207D-02 0.446D-02 0.195D-02-0.168D-01-0.102D+00 0.148D+00
 Coeff-Com:  0.965D+00
 Coeff:     -0.207D-02 0.446D-02 0.195D-02-0.168D-01-0.102D+00 0.148D+00
 Coeff:      0.965D+00
 Gap=     0.356 Goal=   None    Shift=    0.000
 RMSDP=3.23D-05 MaxDP=2.11D-03 DE=-6.00D-07 OVMax= 1.61D-04

 Cycle   8  Pass 1  IDiag  1:
 RMSU=  3.66D-06    CP:  5.26D-01  1.31D+00  8.33D-01  7.32D-01  1.39D+00
                    CP:  1.33D+00  1.30D+00
 E= -463.248518488341     Delta-E=       -0.000000085800 Rises=F Damp=F
 DIIS: error= 3.42D-06 at cycle   8 NSaved=   8.
 NSaved= 8 IEnMin= 8 EnMin= -463.248518488341     IErMin= 8 ErrMin= 3.42D-06
 ErrMax= 3.42D-06  0.00D+00 EMaxC= 1.00D-01 BMatC= 1.82D-09 BMatP= 5.07D-08
 IDIUse=1 WtCom= 1.00D+00 WtEn= 0.00D+00
 Coeff-Com: -0.480D-03 0.103D-02 0.676D-03-0.241D-02-0.143D-01-0.168D-02
 Coeff-Com:  0.141D-01 0.100D+01
 Coeff:     -0.480D-03 0.103D-02 0.676D-03-0.241D-02-0.143D-01-0.168D-02
 Coeff:      0.141D-01 0.100D+01
 Gap=     0.356 Goal=   None    Shift=    0.000
 RMSDP=5.92D-06 MaxDP=4.49D-04 DE=-8.58D-08 OVMax= 3.50D-05

 Cycle   9  Pass 1  IDiag  1:
 RMSU=  4.71D-07    CP:  5.26D-01  1.31D+00  8.33D-01  7.32D-01  1.39D+00
                    CP:  1.35D+00  1.39D+00  1.29D+00
 E= -463.248518492620     Delta-E=       -0.000000004279 Rises=F Damp=F
 DIIS: error= 1.97D-06 at cycle   9 NSaved=   9.
 NSaved= 9 IEnMin= 9 EnMin= -463.248518492620     IErMin= 9 ErrMin= 1.97D-06
 ErrMax= 1.97D-06  0.00D+00 EMaxC= 1.00D-01 BMatC= 3.48D-10 BMatP= 1.82D-09
 IDIUse=1 WtCom= 1.00D+00 WtEn= 0.00D+00
 Coeff-Com:  0.182D-03-0.393D-03-0.592D-04 0.188D-02 0.122D-01-0.198D-01
 Coeff-Com: -0.159D+00 0.323D+00 0.843D+00
 Coeff:      0.182D-03-0.393D-03-0.592D-04 0.188D-02 0.122D-01-0.198D-01
 Coeff:     -0.159D+00 0.323D+00 0.843D+00
 Gap=     0.356 Goal=   None    Shift=    0.000
 RMSDP=1.59D-06 MaxDP=1.04D-04 DE=-4.28D-09 OVMax= 2.01D-05

 Cycle  10  Pass 1  IDiag  1:
 RMSU=  2.24D-07    CP:  5.26D-01  1.31D+00  8.33D-01  7.32D-01  1.39D+00
                    CP:  1.36D+00  1.42D+00  1.40D+00  1.25D+00
 E= -463.248518493468     Delta-E=       -0.000000000849 Rises=F Damp=F
 DIIS: error= 4.64D-07 at cycle  10 NSaved=  10.
 NSaved=10 IEnMin=10 EnMin= -463.248518493468     IErMin=10 ErrMin= 4.64D-07
 ErrMax= 4.64D-07  0.00D+00 EMaxC= 1.00D-01 BMatC= 4.25D-11 BMatP= 3.48D-10
 IDIUse=1 WtCom= 1.00D+00 WtEn= 0.00D+00
 Coeff-Com:  0.699D-04-0.150D-03-0.597D-04 0.519D-03 0.283D-02-0.124D-02
 Coeff-Com: -0.260D-01-0.890D-01 0.190D+00 0.923D+00
 Coeff:      0.699D-04-0.150D-03-0.597D-04 0.519D-03 0.283D-02-0.124D-02
 Coeff:     -0.260D-01-0.890D-01 0.190D+00 0.923D+00
 Gap=     0.356 Goal=   None    Shift=    0.000
 RMSDP=4.84D-07 MaxDP=3.45D-05 DE=-8.49D-10 OVMax= 5.09D-06

 Cycle  11  Pass 1  IDiag  1:
 RMSU=  7.25D-08    CP:  5.26D-01  1.31D+00  8.33D-01  7.32D-01  1.39D+00
                    CP:  1.36D+00  1.42D+00  1.41D+00  1.41D+00  1.19D+00
 E= -463.248518493539     Delta-E=       -0.000000000070 Rises=F Damp=F
 DIIS: error= 1.07D-07 at cycle  11 NSaved=  11.
 NSaved=11 IEnMin=11 EnMin= -463.248518493539     IErMin=11 ErrMin= 1.07D-07
 ErrMax= 1.07D-07  0.00D+00 EMaxC= 1.00D-01 BMatC= 1.47D-12 BMatP= 4.25D-11
 IDIUse=1 WtCom= 1.00D+00 WtEn= 0.00D+00
 Coeff-Com: -0.197D-04 0.428D-04 0.150D-04-0.197D-03-0.131D-02 0.225D-02
 Coeff-Com:  0.151D-01-0.228D-01-0.524D-01-0.139D+00 0.120D+01
 Coeff:     -0.197D-04 0.428D-04 0.150D-04-0.197D-03-0.131D-02 0.225D-02
 Coeff:      0.151D-01-0.228D-01-0.524D-01-0.139D+00 0.120D+01
 Gap=     0.356 Goal=   None    Shift=    0.000
 RMSDP=2.96D-07 MaxDP=2.19D-05 DE=-7.03D-11 OVMax= 1.27D-06

 Cycle  12  Pass 1  IDiag  1:
 RMSU=  1.95D-08    CP:  5.26D-01  1.31D+00  8.33D-01  7.32D-01  1.39D+00
                    CP:  1.36D+00  1.42D+00  1.40D+00  1.47D+00  1.29D+00
                    CP:  1.31D+00
 E= -463.248518493551     Delta-E=       -0.000000000013 Rises=F Damp=F
 DIIS: error= 1.77D-08 at cycle  12 NSaved=  12.
 NSaved=12 IEnMin=12 EnMin= -463.248518493551     IErMin=12 ErrMin= 1.77D-08
 ErrMax= 1.77D-08  0.00D+00 EMaxC= 1.00D-01 BMatC= 6.72D-14 BMatP= 1.47D-12
 IDIUse=1 WtCom= 1.00D+00 WtEn= 0.00D+00
 Coeff-Com: -0.168D-05 0.355D-05 0.224D-05-0.809D-05-0.392D-04-0.379D-04
 Coeff-Com:  0.345D-04 0.463D-02-0.782D-03-0.468D-01-0.804D-01 0.112D+01
 Coeff:     -0.168D-05 0.355D-05 0.224D-05-0.809D-05-0.392D-04-0.379D-04
 Coeff:      0.345D-04 0.463D-02-0.782D-03-0.468D-01-0.804D-01 0.112D+01
 Gap=     0.356 Goal=   None    Shift=    0.000
 RMSDP=5.81D-08 MaxDP=4.02D-06 DE=-1.27D-11 OVMax= 2.88D-07

 Cycle  13  Pass 1  IDiag  1:
 RMSU=  5.42D-09    CP:  5.26D-01  1.31D+00  8.33D-01  7.32D-01  1.39D+00
                    CP:  1.36D+00  1.42D+00  1.40D+00  1.48D+00  1.29D+00
                    CP:  1.36D+00  1.31D+00
 E= -463.248518493546     Delta-E=        0.000000000005 Rises=F Damp=F
 DIIS: error= 4.19D-09 at cycle  13 NSaved=  13.
 NSaved=13 IEnMin=12 EnMin= -463.248518493551     IErMin=13 ErrMin= 4.19D-09
 ErrMax= 4.19D-09  0.00D+00 EMaxC= 1.00D-01 BMatC= 2.60D-15 BMatP= 6.72D-14
 IDIUse=1 WtCom= 1.00D+00 WtEn= 0.00D+00
 Coeff-Com:  0.666D-06-0.145D-05-0.607D-06 0.718D-05 0.493D-04-0.874D-04
 Coeff-Com: -0.616D-03 0.130D-02 0.273D-02 0.452D-03-0.581D-01 0.982D-01
 Coeff-Com:  0.956D+00
 Coeff:      0.666D-06-0.145D-05-0.607D-06 0.718D-05 0.493D-04-0.874D-04
 Coeff:     -0.616D-03 0.130D-02 0.273D-02 0.452D-03-0.581D-01 0.982D-01
 Coeff:      0.956D+00
 Gap=     0.356 Goal=   None    Shift=    0.000
 RMSDP=4.30D-09 MaxDP=1.82D-07 DE= 5.46D-12 OVMax= 5.33D-08

 SCF Done:  E(RwB97XD) =  -463.248518494     A.U. after   13 cycles
            NFock= 13  Conv=0.43D-08     -V/T= 2.0049
 KE= 4.610089646684D+02 PE=-2.270405001857D+03 EE= 7.481042955940D+02
 Leave Link  502 at Sat Nov  5 21:34:13 2022, MaxMem= 16106127360 cpu:             880.5 elap:              28.1
 (Enter /opt/ap/G16/B01/g16/l601.exe)
 Copying SCF densities to generalized density rwf, IOpCl= 0 IROHF=0.

 **********************************************************************

            Population analysis using the SCF Density.

 **********************************************************************

 Orbital symmetries:
       Occupied  (A) (A) (A) (A) (A) (A) (A) (A) (A) (A) (A) (A)
                 (A) (A) (A) (A) (A) (A) (A) (A) (A) (A) (A) (A)
                 (A) (A) (A) (A) (A) (A) (A) (A) (A) (A) (A) (A)
                 (A) (A) (A) (A) (A)
       Virtual   (A) (A) (A) (A) (A) (A) (A) (A) (A) (A) (A) (A)
                 (A) (A) (A) (A) (A) (A) (A) (A) (A) (A) (A) (A)
                 (A) (A) (A) (A) (A) (A) (A) (A) (A) (A) (A) (A)
                 (A) (A) (A) (A) (A) (A) (A) (A) (A) (A) (A) (A)
                 (A) (A) (A) (A) (A) (A) (A) (A) (A) (A) (A) (A)
                 (A) (A) (A) (A) (A) (A) (A) (A) (A) (A) (A) (A)
                 (A) (A) (A) (A) (A) (A) (A) (A) (A) (A) (A) (A)
                 (A) (A) (A) (A) (A) (A) (A) (A) (A) (A) (A) (A)
                 (A) (A) (A) (A) (A) (A) (A) (A) (A) (A) (A) (A)
                 (A) (A) (A) (A) (A) (A) (A) (A) (A) (A) (A) (A)
                 (A) (A) (A) (A) (A) (A) (A) (A) (A) (A) (A) (A)
                 (A) (A) (A) (A) (A) (A) (A) (A) (A) (A) (A) (A)
                 (A) (A) (A) (A) (A) (A) (A) (A) (A) (A) (A) (A)
                 (A) (A) (A) (A) (A) (A) (A) (A) (A) (A) (A) (A)
                 (A) (A) (A) (A) (A) (A) (A) (A) (A) (A) (A) (A)
                 (A) (A) (A) (A) (A) (A) (A) (A) (A) (A) (A) (A)
                 (A) (A) (A) (A) (A) (A) (A) (A) (A) (A) (A) (A)
                 (A) (A) (A) (A) (A) (A) (A) (A) (A) (A) (A) (A)
                 (A) (A) (A) (A) (A) (A) (A) (A) (A) (A) (A) (A)
                 (A) (A) (A) (A) (A) (A) (A) (A) (A) (A) (A) (A)
                 (A) (A) (A) (A) (A) (A) (A) (A) (A) (A) (A) (A)
                 (A) (A) (A) (A) (A) (A) (A) (A) (A) (A) (A) (A)
                 (A) (A) (A) (A) (A) (A) (A) (A) (A) (A) (A) (A)
                 (A) (A) (A) (A) (A) (A) (A) (A) (A) (A) (A) (A)
                 (A) (A) (A)
 The electronic state is 1-A.
 Alpha  occ. eigenvalues --  -10.30407 -10.30377 -10.29320 -10.29319 -10.29307
 Alpha  occ. eigenvalues --  -10.29307 -10.29243 -10.29243 -10.29233 -10.29233
 Alpha  occ. eigenvalues --  -10.29207 -10.29207  -0.97513  -0.95299  -0.88162
 Alpha  occ. eigenvalues --   -0.85135  -0.84821  -0.82381  -0.72311  -0.70888
 Alpha  occ. eigenvalues --   -0.69684  -0.67476  -0.62516  -0.59570  -0.55820
 Alpha  occ. eigenvalues --   -0.55102  -0.53952  -0.53444  -0.51038  -0.50859
 Alpha  occ. eigenvalues --   -0.50794  -0.46364  -0.45522  -0.45499  -0.43128
 Alpha  occ. eigenvalues --   -0.42558  -0.41916  -0.34162  -0.33718  -0.33171
 Alpha  occ. eigenvalues --   -0.31758
 Alpha virt. eigenvalues --    0.03862   0.03912   0.04192   0.04565   0.05034
 Alpha virt. eigenvalues --    0.05634   0.05978   0.06136   0.06356   0.07018
 Alpha virt. eigenvalues --    0.07384   0.07586   0.09232   0.09242   0.12675
 Alpha virt. eigenvalues --    0.12698   0.12894   0.13345   0.15093   0.15205
 Alpha virt. eigenvalues --    0.15473   0.15828   0.15986   0.16293   0.17038
 Alpha virt. eigenvalues --    0.17402   0.17488   0.17575   0.17581   0.17626
 Alpha virt. eigenvalues --    0.18690   0.18693   0.18930   0.19297   0.19481
 Alpha virt. eigenvalues --    0.20425   0.20563   0.22115   0.22119   0.22332
 Alpha virt. eigenvalues --    0.22418   0.22720   0.23740   0.24009   0.25276
 Alpha virt. eigenvalues --    0.25490   0.26321   0.26360   0.26974   0.27143
 Alpha virt. eigenvalues --    0.27888   0.27950   0.29113   0.29906   0.30302
 Alpha virt. eigenvalues --    0.30982   0.31438   0.31887   0.32545   0.32694
 Alpha virt. eigenvalues --    0.33671   0.33765   0.34561   0.35175   0.35213
 Alpha virt. eigenvalues --    0.35338   0.35880   0.36028   0.36261   0.36991
 Alpha virt. eigenvalues --    0.37771   0.38181   0.38867   0.40837   0.42771
 Alpha virt. eigenvalues --    0.43344   0.43688   0.45185   0.45553   0.46045
 Alpha virt. eigenvalues --    0.47954   0.55669   0.58601   0.60871   0.61063
 Alpha virt. eigenvalues --    0.61107   0.61441   0.62146   0.62354   0.63353
 Alpha virt. eigenvalues --    0.63681   0.64207   0.64533   0.64675   0.65693
 Alpha virt. eigenvalues --    0.65890   0.66621   0.67802   0.68710   0.70559
 Alpha virt. eigenvalues --    0.72426   0.72983   0.73449   0.73579   0.74729
 Alpha virt. eigenvalues --    0.77986   0.78095   0.79046   0.80201   0.80713
 Alpha virt. eigenvalues --    0.81028   0.81480   0.81679   0.82069   0.82073
 Alpha virt. eigenvalues --    0.83100   0.85964   0.85964   0.88427   0.89602
 Alpha virt. eigenvalues --    0.90613   0.92114   0.92855   0.93532   0.93916
 Alpha virt. eigenvalues --    0.95176   0.95914   0.96735   0.97460   0.98232
 Alpha virt. eigenvalues --    0.98790   1.01366   1.01707   1.03229   1.03673
 Alpha virt. eigenvalues --    1.04219   1.08509   1.09396   1.10944   1.11222
 Alpha virt. eigenvalues --    1.11299   1.13679   1.14010   1.15869   1.16522
 Alpha virt. eigenvalues --    1.17593   1.19429   1.24421   1.24441   1.25960
 Alpha virt. eigenvalues --    1.27536   1.37535   1.40406   1.41584   1.44423
 Alpha virt. eigenvalues --    1.49323   1.57879   1.58394   1.59586   1.59695
 Alpha virt. eigenvalues --    1.60214   1.62026   1.63032   1.63837   1.65209
 Alpha virt. eigenvalues --    1.65383   1.65749   1.66711   1.71001   1.72404
 Alpha virt. eigenvalues --    1.73165   1.73836   1.74818   1.74857   1.74860
 Alpha virt. eigenvalues --    1.80437   1.82654   1.82727   1.84904   1.86068
 Alpha virt. eigenvalues --    1.86419   1.87579   1.88043   1.92030   1.92265
 Alpha virt. eigenvalues --    1.93052   1.97487   1.98609   1.98730   2.01037
 Alpha virt. eigenvalues --    2.03632   2.04223   2.04358   2.04936   2.04966
 Alpha virt. eigenvalues --    2.05159   2.08974   2.10189   2.10224   2.10834
 Alpha virt. eigenvalues --    2.12223   2.15528   2.16868   2.17062   2.19226
 Alpha virt. eigenvalues --    2.20553   2.30905   2.34834   2.35191   2.39422
 Alpha virt. eigenvalues --    2.46767   2.51591   2.52290   2.52601   2.53004
 Alpha virt. eigenvalues --    2.55188   2.55916   2.56042   2.57612   2.64607
 Alpha virt. eigenvalues --    2.70855   2.73543   2.73618   2.74699   2.74878
 Alpha virt. eigenvalues --    2.79232   2.80327   2.80384   2.80661   2.81084
 Alpha virt. eigenvalues --    2.82634   2.83369   2.84995   2.85899   2.86555
 Alpha virt. eigenvalues --    2.86588   2.89197   2.91219   2.91635   2.91635
 Alpha virt. eigenvalues --    2.91872   2.92403   2.97986   2.98856   3.00502
 Alpha virt. eigenvalues --    3.00659   3.04013   3.04186   3.05344   3.12612
 Alpha virt. eigenvalues --    3.15478   3.20341   3.22379   3.26341   3.28783
 Alpha virt. eigenvalues --    3.35098   3.43923   3.45716   3.48311   3.48850
 Alpha virt. eigenvalues --    3.58499   3.60563   3.63353   3.64275   3.68772
 Alpha virt. eigenvalues --    3.73409   3.75535   3.93632   4.08864   4.09681
 Alpha virt. eigenvalues --    4.13459   4.14712   4.24711   4.24959   4.25255
 Alpha virt. eigenvalues --    4.26384   4.49891   4.93618   4.95105  23.70972
 Alpha virt. eigenvalues --   23.85260  24.06858  24.09068  24.09290  24.11249
 Alpha virt. eigenvalues --   24.17407  24.22029  24.22453  24.22867  24.30878
 Alpha virt. eigenvalues --   24.32401
          Condensed to atoms (all electrons):
               1          2          3          4          5          6
     1  C   18.498741   0.985835   0.985828  -1.791206   0.113383  -6.579775
     2  C    0.985835  12.765821  -3.235749  -0.113397   0.381102  -3.384670
     3  C    0.985828  -3.235749  12.761052  -1.154587   0.079250  -3.381067
     4  C   -1.791206  -0.113397  -1.154587   6.744244  -0.107443   1.444599
     5  H    0.113383   0.381102   0.079250  -0.107443   0.465626  -0.094416
     6  C   -6.579775  -3.384670  -3.381067   1.444599  -0.094416  18.499581
     7  C   -1.790832  -1.153942  -0.111808   0.262346  -0.017510   1.442797
     8  H    0.113333   0.079277   0.380972  -0.017522   0.000433  -0.094270
     9  C   -0.160325   0.626691   0.625939   0.049854   0.021681  -1.329308
    10  H    0.031165  -0.110736  -0.026119   0.441682  -0.012105   0.049106
    11  C   -3.384570  -0.074030  -0.542318   0.321482  -0.018081   0.986234
    12  C   -3.380466  -0.542089  -0.072860   0.213705  -0.051862   0.985225
    13  H    0.031127  -0.026138  -0.110610   0.020876  -0.000276   0.049095
    14  H    0.026840   0.021961   0.021966  -0.053585   0.000809  -0.036039
    15  C    1.444590   0.321145   0.214184  -0.020428   0.018263  -1.791524
    16  H   -0.094390  -0.018087  -0.051881   0.018252   0.000605   0.113417
    17  C    1.442487   0.213494   0.321184  -0.075578   0.020087  -1.790611
    18  H   -0.094264  -0.051860  -0.018031   0.020100  -0.002438   0.113257
    19  C   -1.329077  -0.147337  -0.147501   0.046670  -0.016161  -0.160253
    20  H    0.049108  -0.000552   0.008984  -0.001277   0.000465   0.031167
    21  H    0.049078   0.008964  -0.000535  -0.000823   0.000580   0.031136
    22  H   -0.036037  -0.004462  -0.004484   0.001278  -0.000503   0.026843
               7          8          9         10         11         12
     1  C   -1.790832   0.113333  -0.160325   0.031165  -3.384570  -3.380466
     2  C   -1.153942   0.079277   0.626691  -0.110736  -0.074030  -0.542089
     3  C   -0.111808   0.380972   0.625939  -0.026119  -0.542318  -0.072860
     4  C    0.262346  -0.017522   0.049854   0.441682   0.321482   0.213705
     5  H   -0.017510   0.000433   0.021681  -0.012105  -0.018081  -0.051862
     6  C    1.442797  -0.094270  -1.329308   0.049106   0.986234   0.985225
     7  C    6.743060  -0.107386   0.050336   0.020857   0.213764   0.321045
     8  H   -0.107386   0.465615   0.021672  -0.000277  -0.051830  -0.018087
     9  C    0.050336   0.021672   6.468595  -0.086261  -0.147567  -0.147241
    10  H    0.020857  -0.000277  -0.086261   0.480539  -0.000532   0.008965
    11  C    0.213764  -0.051830  -0.147567  -0.000532  12.767004  -3.236583
    12  C    0.321045  -0.018087  -0.147241   0.008965  -3.236583  12.760793
    13  H    0.441621  -0.012103  -0.086282   0.000542   0.008971  -0.000543
    14  H   -0.053593   0.000809   0.417286  -0.008624  -0.004477  -0.004467
    15  C   -0.075510   0.020113   0.046625  -0.001273  -0.114235  -1.153705
    16  H    0.020090  -0.002438  -0.016157   0.000464   0.381125   0.079225
    17  C   -0.020122   0.018196   0.046573  -0.000822  -1.154230  -0.110955
    18  H    0.018219   0.000610  -0.016155   0.000580   0.079237   0.380987
    19  C    0.046517  -0.016152  -0.028777   0.000298   0.627079   0.625198
    20  H   -0.000819   0.000580   0.000298   0.000056  -0.110751  -0.026095
    21  H   -0.001268   0.000464   0.000297   0.000011  -0.026131  -0.110593
    22  H    0.001273  -0.000503  -0.000653   0.000008   0.021990   0.021929
              13         14         15         16         17         18
     1  C    0.031127   0.026840   1.444590  -0.094390   1.442487  -0.094264
     2  C   -0.026138   0.021961   0.321145  -0.018087   0.213494  -0.051860
     3  C   -0.110610   0.021966   0.214184  -0.051881   0.321184  -0.018031
     4  C    0.020876  -0.053585  -0.020428   0.018252  -0.075578   0.020100
     5  H   -0.000276   0.000809   0.018263   0.000605   0.020087  -0.002438
     6  C    0.049095  -0.036039  -1.791524   0.113417  -1.790611   0.113257
     7  C    0.441621  -0.053593  -0.075510   0.020090  -0.020122   0.018219
     8  H   -0.012103   0.000809   0.020113  -0.002438   0.018196   0.000610
     9  C   -0.086282   0.417286   0.046625  -0.016157   0.046573  -0.016155
    10  H    0.000542  -0.008624  -0.001273   0.000464  -0.000822   0.000580
    11  C    0.008971  -0.004477  -0.114235   0.381125  -1.154230   0.079237
    12  C   -0.000543  -0.004467  -1.153705   0.079225  -0.110955   0.380987
    13  H    0.480540  -0.008625  -0.000823   0.000580  -0.001270   0.000464
    14  H   -0.008625   0.471690   0.001276  -0.000503   0.001275  -0.000503
    15  C   -0.000823   0.001276   6.744469  -0.107485   0.262225  -0.017508
    16  H    0.000580  -0.000503  -0.107485   0.465630  -0.017511   0.000432
    17  C   -0.001270   0.001275   0.262225  -0.017511   6.742712  -0.107327
    18  H    0.000464  -0.000503  -0.017508   0.000432  -0.107327   0.465612
    19  C    0.000298  -0.000653   0.049791   0.021695   0.050587   0.021659
    20  H    0.000011   0.000008   0.441694  -0.012108   0.020851  -0.000276
    21  H    0.000056   0.000008   0.020864  -0.000276   0.441600  -0.012101
    22  H    0.000008  -0.000010  -0.053613   0.000810  -0.053571   0.000808
              19         20         21         22
     1  C   -1.329077   0.049108   0.049078  -0.036037
     2  C   -0.147337  -0.000552   0.008964  -0.004462
     3  C   -0.147501   0.008984  -0.000535  -0.004484
     4  C    0.046670  -0.001277  -0.000823   0.001278
     5  H   -0.016161   0.000465   0.000580  -0.000503
     6  C   -0.160253   0.031167   0.031136   0.026843
     7  C    0.046517  -0.000819  -0.001268   0.001273
     8  H   -0.016152   0.000580   0.000464  -0.000503
     9  C   -0.028777   0.000298   0.000297  -0.000653
    10  H    0.000298   0.000056   0.000011   0.000008
    11  C    0.627079  -0.110751  -0.026131   0.021990
    12  C    0.625198  -0.026095  -0.110593   0.021929
    13  H    0.000298   0.000011   0.000056   0.000008
    14  H   -0.000653   0.000008   0.000008  -0.000010
    15  C    0.049791   0.441694   0.020864  -0.053613
    16  H    0.021695  -0.012108  -0.000276   0.000810
    17  C    0.050587   0.020851   0.441600  -0.053571
    18  H    0.021659  -0.000276  -0.012101   0.000808
    19  C    6.468457  -0.086279  -0.086265   0.417296
    20  H   -0.086279   0.480540   0.000542  -0.008626
    21  H   -0.086265   0.000542   0.480538  -0.008624
    22  H    0.417296  -0.008626  -0.008624   0.471692
 Mulliken charges:
               1
     1  C    0.869427
     2  C   -0.541240
     3  C   -0.541811
     4  C   -0.249241
     5  H    0.218512
     6  C    0.869476
     7  C   -0.249136
     8  H    0.218495
     9  C   -0.357122
    10  H    0.212475
    11  C   -0.541554
    12  C   -0.541528
    13  H    0.212481
    14  H    0.207151
    15  C   -0.249134
    16  H    0.218509
    17  C   -0.249276
    18  H    0.218500
    19  C   -0.357089
    20  H    0.212480
    21  H    0.212477
    22  H    0.207151
 Sum of Mulliken charges =  -0.00000
 Mulliken charges with hydrogens summed into heavy atoms:
               1
     1  C    0.869427
     2  C   -0.322728
     3  C   -0.323316
     4  C   -0.036766
     6  C    0.869476
     7  C   -0.036655
     9  C   -0.149971
    11  C   -0.323045
    12  C   -0.323029
    15  C   -0.036655
    17  C   -0.036799
    19  C   -0.149939
 Electronic spatial extent (au):  <R**2>=           2312.0137
 Charge=              0.0000 electrons
 Dipole moment (field-independent basis, Debye):
    X=              0.0000    Y=             -0.0001    Z=              0.0003  Tot=              0.0004
 Quadrupole moment (field-independent basis, Debye-Ang):
   XX=            -61.7691   YY=            -66.4288   ZZ=            -72.5515
   XY=              0.0004   XZ=             -0.0006   YZ=             -0.0000
 Traceless Quadrupole moment (field-independent basis, Debye-Ang):
   XX=              5.1474   YY=              0.4876   ZZ=             -5.6350
   XY=              0.0004   XZ=             -0.0006   YZ=             -0.0000
 Octapole moment (field-independent basis, Debye-Ang**2):
  XXX=              0.0004  YYY=             -0.0007  ZZZ=              0.0031  XYY=             -0.0005
  XXY=             -0.0024  XXZ=              0.0012  XZZ=              0.0005  YZZ=             -0.0009
  YYZ=              0.0002  XYZ=            -17.8836
 Hexadecapole moment (field-independent basis, Debye-Ang**3):
 XXXX=          -2302.4127 YYYY=           -419.9773 ZZZZ=           -268.9416 XXXY=             -0.0002
 XXXZ=             -0.0216 YYYX=              0.0092 YYYZ=              0.0000 ZZZX=              0.0010
 ZZZY=             -0.0001 XXYY=           -482.4747 XXZZ=           -493.9014 YYZZ=            -97.4368
 XXYZ=             -0.0009 YYXZ=              0.0018 ZZXY=             -0.0039
 N-N= 5.980432231010D+02 E-N=-2.270405001564D+03  KE= 4.610089646684D+02
 No NMR shielding tensors so no spin-rotation constants.
 Leave Link  601 at Sat Nov  5 21:34:13 2022, MaxMem= 16106127360 cpu:               4.3 elap:               0.2
 (Enter /opt/ap/G16/B01/g16/l9999.exe)
 1\1\GINC-N03\SP\RwB97XD\6-311++G(d,p)\C12H10\ROOT\05-Nov-2022\0\\#P wB
 97XD/6-311++G(d,p) scf=maxcycle=512\\_conf004.gjf nmol_natom 1_22\\0,1
 \C\C,1,1.40491871\C,1,1.40495292,2,118.20503621\C,2,1.3939373,1,120.91
 08946,3,0.05365643,0\H,2,1.08593095,1,119.3452094,3,-178.3624307,0\C,1
 ,1.48449301,2,120.90144423,4,-179.96388019,0\C,3,1.39389842,1,120.9105
 0598,2,0.03587687,0\H,3,1.08593608,1,119.34159615,2,-178.38281524,0\C,
 4,1.39606958,2,120.24555868,1,-0.09283196,0\H,4,1.08627898,2,119.66792
 041,1,-179.51486187,0\C,6,1.40492034,1,120.90156908,2,-70.,0\C,6,1.404
 95329,1,120.89324856,2,110.,0\H,7,1.08627928,3,119.67027175,1,-179.512
 58183,0\H,9,1.08597601,4,120.2602535,2,-179.95233103,0\C,11,1.39393437
 ,6,120.91099656,1,-179.95869964,0\H,11,1.08593173,6,119.34475907,1,1.6
 1891886,0\C,12,1.39390147,6,120.91022615,1,-179.94297913,0\H,12,1.0859
 3608,6,119.34175044,1,1.63241608,0\C,15,1.39607161,11,120.24535737,6,-
 0.10315482,0\H,15,1.08627786,11,119.66861247,6,-179.51844254,0\H,17,1.
 08627825,12,119.6702798,6,-179.51590091,0\H,19,1.08597601,15,120.25988
 597,11,-179.94731581,0\\Version=ES64L-G16RevB.01\State=1-A\HF=-463.248
 5185\RMSD=4.300e-09\Dipole=0.0000069,-0.0001352,-0.0000265\Quadrupole=
 2.518038,-2.6914797,0.1734417,1.0988297,2.1868124,-1.8350698\PG=C01 [X
 (C12H10)]\\@


 KNOWLEDGE IS EXPERIMENT'S DAUGHTER.
 -- LEONARDO DA VINCI, IN "PENSIERI" CA. 1492
 Job cpu time:       0 days  0 hours 15 minutes 27.8 seconds.
 Elapsed time:       0 days  0 hours  0 minutes 29.7 seconds.
 File lengths (MBytes):  RWF=     62 Int=      0 D2E=      0 Chk=      8 Scr=      1
 Normal termination of Gaussian 16 at Sat Nov  5 21:34:13 2022.
