 Entering Gaussian System, Link 0=g16
 Input=_conf001.gjf
 Output=_conf001.log
 Initial command:
 /opt/ap/G16/B01/g16/l1.exe "/tmp2/scr/Gau-22979.inp" -scrdir="/tmp2/scr/"
 Entering Link 1 = /opt/ap/G16/B01/g16/l1.exe PID=     22980.
  
 Copyright (c) 1988-2017, Gaussian, Inc.  All Rights Reserved.
  
 This is part of the Gaussian(R) 16 program.  It is based on
 the Gaussian(R) 09 system (copyright 2009, Gaussian, Inc.),
 the Gaussian(R) 03 system (copyright 2003, Gaussian, Inc.),
 the Gaussian(R) 98 system (copyright 1998, Gaussian, Inc.),
 the Gaussian(R) 94 system (copyright 1995, Gaussian, Inc.),
 the Gaussian 92(TM) system (copyright 1992, Gaussian, Inc.),
 the Gaussian 90(TM) system (copyright 1990, Gaussian, Inc.),
 the Gaussian 88(TM) system (copyright 1988, Gaussian, Inc.),
 the Gaussian 86(TM) system (copyright 1986, Carnegie Mellon
 University), and the Gaussian 82(TM) system (copyright 1983,
 Carnegie Mellon University). Gaussian is a federally registered
 trademark of Gaussian, Inc.
  
 This software contains proprietary and confidential information,
 including trade secrets, belonging to Gaussian, Inc.
  
 This software is provided under written license and may be
 used, copied, transmitted, or stored only in accord with that
 written license.
  
 The following legend is applicable only to US Government
 contracts under FAR:
  
                    RESTRICTED RIGHTS LEGEND
  
 Use, reproduction and disclosure by the US Government is
 subject to restrictions as set forth in subparagraphs (a)
 and (c) of the Commercial Computer Software - Restricted
 Rights clause in FAR 52.227-19.
  
 Gaussian, Inc.
 340 Quinnipiac St., Bldg. 40, Wallingford CT 06492
  
  
 ---------------------------------------------------------------
 Warning -- This program may not be used in any manner that
 competes with the business of Gaussian, Inc. or will provide
 assistance to any competitor of Gaussian, Inc.  The licensee
 of this program is prohibited from giving any competitor of
 Gaussian, Inc. access to this program.  By using this program,
 the user acknowledges that Gaussian, Inc. is engaged in the
 business of creating and licensing software in the field of
 computational chemistry and represents and warrants to the
 licensee that it is not a competitor of Gaussian, Inc. and that
 it will not use this program in any manner prohibited above.
 ---------------------------------------------------------------
  

 Cite this work as:
 Gaussian 16, Revision B.01,
 M. J. Frisch, G. W. Trucks, H. B. Schlegel, G. E. Scuseria, 
 M. A. Robb, J. R. Cheeseman, G. Scalmani, V. Barone, 
 G. A. Petersson, H. Nakatsuji, X. Li, M. Caricato, A. V. Marenich, 
 J. Bloino, B. G. Janesko, R. Gomperts, B. Mennucci, H. P. Hratchian, 
 J. V. Ortiz, A. F. Izmaylov, J. L. Sonnenberg, D. Williams-Young, 
 F. Ding, F. Lipparini, F. Egidi, J. Goings, B. Peng, A. Petrone, 
 T. Henderson, D. Ranasinghe, V. G. Zakrzewski, J. Gao, N. Rega, 
 G. Zheng, W. Liang, M. Hada, M. Ehara, K. Toyota, R. Fukuda, 
 J. Hasegawa, M. Ishida, T. Nakajima, Y. Honda, O. Kitao, H. Nakai, 
 T. Vreven, K. Throssell, J. A. Montgomery, Jr., J. E. Peralta, 
 F. Ogliaro, M. J. Bearpark, J. J. Heyd, E. N. Brothers, K. N. Kudin, 
 V. N. Staroverov, T. A. Keith, R. Kobayashi, J. Normand, 
 K. Raghavachari, A. P. Rendell, J. C. Burant, S. S. Iyengar, 
 J. Tomasi, M. Cossi, J. M. Millam, M. Klene, C. Adamo, R. Cammi, 
 J. W. Ochterski, R. L. Martin, K. Morokuma, O. Farkas, 
 J. B. Foresman, and D. J. Fox, Gaussian, Inc., Wallingford CT, 2016.
 
 ******************************************
 Gaussian 16:  ES64L-G16RevB.01 20-Dec-2017
                 5-Nov-2022 
 ******************************************
 %nprocshared=32
 Will use up to   32 processors via shared memory.
 %mem=120GB
 %chk=_conf001.chk
 ----------------------------------------
 #P wB97XD/6-311++G(d,p) scf=maxcycle=512
 ----------------------------------------
 1/38=1,172=1/1;
 2/12=2,17=6,18=5,40=1/2;
 3/5=4,6=6,7=1111,11=2,25=1,30=1,74=-58/1,2,3;
 4//1;
 5/5=2,7=512,38=5/2;
 6/7=2,8=2,9=2,10=2,28=1/1;
 99/5=1,9=1/99;
 Leave Link    1 at Sat Nov  5 21:33:17 2022, MaxMem= 16106127360 cpu:               1.9 elap:               0.1
 (Enter /opt/ap/G16/B01/g16/l101.exe)
 ----------------------------
 _conf001.gjf nmol_natom 1_22
 ----------------------------
 Symbolic Z-matrix:
 Charge =  0 Multiplicity = 1
 C
 C                    1     1.40492 
 C                    1     1.40495  2     118.20504 
 C                    2     1.39394  1     120.91089  3     0.05366  0
 H                    2     1.08593  1     119.34521  3    -178.36243  0
 C                    1     1.48449  2     120.90144  4    -179.96388  0
 C                    3     1.3939   1     120.91051  2     0.03588  0
 H                    3     1.08594  1     119.3416  2    -178.38282  0
 C                    4     1.39607  2     120.24556  1    -0.09283  0
 H                    4     1.08628  2     119.66792  1    -179.51486  0
 C                    6     1.40492  1     120.90157  2    -85.      0
 C                    6     1.40495  1     120.89325  2     95.      0
 H                    7     1.08628  3     119.67027  1    -179.51258  0
 H                    9     1.08598  4     120.26025  2    -179.95233  0
 C                    11    1.39393  6     120.911  1    -179.9587  0
 H                    11    1.08593  6     119.34476  1     1.61892  0
 C                    12    1.3939   6     120.91023  1    -179.94298  0
 H                    12    1.08594  6     119.34175  1     1.63242  0
 C                    15    1.39607  11    120.24536  6    -0.10315  0
 H                    15    1.08628  11    119.66861  6    -179.51844  0
 H                    17    1.08628  12    119.67028  6    -179.5159  0
 H                    19    1.08598  15    120.25989  11   -179.94732  0
 
 ITRead=  0  0  0  0  0  0  0  0  0  0  0  0  0  0  0  0  0  0  0  0
 ITRead=  0  0
 MicOpt= -1 -1 -1 -1 -1 -1 -1 -1 -1 -1 -1 -1 -1 -1 -1 -1 -1 -1 -1 -1
 MicOpt= -1 -1
 NAtoms=     22 NQM=       22 NQMF=       0 NMMI=      0 NMMIF=      0
                NMic=       0 NMicF=      0.
                    Isotopes and Nuclear Properties:
 (Nuclear quadrupole moments (NQMom) in fm**2, nuclear magnetic moments (NMagM)
  in nuclear magnetons)

  Atom         1           2           3           4           5           6           7           8           9          10
 IAtWgt=          12          12          12          12           1          12          12           1          12           1
 AtmWgt=  12.0000000  12.0000000  12.0000000  12.0000000   1.0078250  12.0000000  12.0000000   1.0078250  12.0000000   1.0078250
 NucSpn=           0           0           0           0           1           0           0           1           0           1
 AtZEff=  -0.0000000  -0.0000000  -0.0000000  -0.0000000  -0.0000000  -0.0000000  -0.0000000  -0.0000000  -0.0000000  -0.0000000
 NQMom=    0.0000000   0.0000000   0.0000000   0.0000000   0.0000000   0.0000000   0.0000000   0.0000000   0.0000000   0.0000000
 NMagM=    0.0000000   0.0000000   0.0000000   0.0000000   2.7928460   0.0000000   0.0000000   2.7928460   0.0000000   2.7928460
 AtZNuc=   6.0000000   6.0000000   6.0000000   6.0000000   1.0000000   6.0000000   6.0000000   1.0000000   6.0000000   1.0000000

  Atom        11          12          13          14          15          16          17          18          19          20
 IAtWgt=          12          12           1           1          12           1          12           1          12           1
 AtmWgt=  12.0000000  12.0000000   1.0078250   1.0078250  12.0000000   1.0078250  12.0000000   1.0078250  12.0000000   1.0078250
 NucSpn=           0           0           1           1           0           1           0           1           0           1
 AtZEff=  -0.0000000  -0.0000000  -0.0000000  -0.0000000  -0.0000000  -0.0000000  -0.0000000  -0.0000000  -0.0000000  -0.0000000
 NQMom=    0.0000000   0.0000000   0.0000000   0.0000000   0.0000000   0.0000000   0.0000000   0.0000000   0.0000000   0.0000000
 NMagM=    0.0000000   0.0000000   2.7928460   2.7928460   0.0000000   2.7928460   0.0000000   2.7928460   0.0000000   2.7928460
 AtZNuc=   6.0000000   6.0000000   1.0000000   1.0000000   6.0000000   1.0000000   6.0000000   1.0000000   6.0000000   1.0000000

  Atom        21          22
 IAtWgt=           1           1
 AtmWgt=   1.0078250   1.0078250
 NucSpn=           1           1
 AtZEff=  -0.0000000  -0.0000000
 NQMom=    0.0000000   0.0000000
 NMagM=    2.7928460   2.7928460
 AtZNuc=   1.0000000   1.0000000
 Leave Link  101 at Sat Nov  5 21:33:17 2022, MaxMem= 16106127360 cpu:               6.5 elap:               0.2
 (Enter /opt/ap/G16/B01/g16/l202.exe)
                          Input orientation:                          
 ---------------------------------------------------------------------
 Center     Atomic      Atomic             Coordinates (Angstroms)
 Number     Number       Type             X           Y           Z
 ---------------------------------------------------------------------
      1          6           0        0.000000    0.000000    0.000000
      2          6           0        0.000000    0.000000    1.404919
      3          6           0        1.238131    0.000000   -0.664020
      4          6           0        1.195952    0.001120    2.120990
      5          1           0       -0.946201   -0.027051    1.937101
      6          6           0       -1.273772   -0.000390   -0.762381
      7          6           0        2.434381   -0.000749    0.051479
      8          1           0        1.259850    0.026715   -1.749411
      9          6           0        2.418826    0.000311    1.447501
     10          1           0        1.172413   -0.006894    3.206985
     11          6           0       -1.946462   -1.201502   -1.042773
     12          6           0       -1.839140    1.200475   -1.223006
     13          1           0        3.380326    0.007295   -0.482493
     14          1           0        3.350700    0.000403    2.005133
     15          6           0       -3.142099   -1.202171   -1.759366
     16          1           0       -1.539906   -2.138036   -0.672823
     17          6           0       -3.035770    1.200625   -1.937875
     18          1           0       -1.321147    2.137167   -1.039843
     19          6           0       -3.692709   -0.000900   -2.209690
     20          1           0       -3.649364   -2.141964   -1.958040
     21          1           0       -3.450868    2.140185   -2.291317
     22          1           0       -4.624626   -0.001074   -2.767251
 ---------------------------------------------------------------------
                    Distance matrix (angstroms):
                    1          2          3          4          5
     1  C    0.000000
     2  C    1.404919   0.000000
     3  C    1.404953   2.411116   0.000000
     4  C    2.434934   1.393937   2.785330   0.000000
     5  H    2.156012   1.085931   3.396745   2.150216   0.000000
     6  C    1.484493   2.513898   2.513829   3.796494   2.719415
     7  C    2.434925   2.785320   1.393898   2.411760   3.870994
     8  H    2.156008   3.396723   1.085936   3.871013   4.296501
     9  C    2.818861   2.419201   2.419207   1.396070   3.400568
    10  H    3.414579   2.149893   3.871569   1.086279   2.470128
    11  C    2.513901   3.350152   3.424718   4.618492   3.355519
    12  C    2.513826   3.424845   3.350105   4.672531   3.505772
    13  H    3.414594   3.871560   2.149884   3.398478   4.957262
    14  H    3.904837   3.404035   3.404016   2.157861   4.297527
    15  C    3.796494   4.618517   4.672410   5.943380   4.457213
    16  H    2.719411   3.355520   3.505533   4.457162   3.408878
    17  C    3.796414   4.672437   4.618489   5.985037   4.570441
    18  H    2.719225   3.505677   3.355389   4.570487   3.699543
    19  C    4.303351   5.167349   5.167425   6.530988   4.973919
    20  H    4.662595   5.405123   5.490912   6.686433   5.191539
    21  H    4.662511   5.490996   5.405108   6.755515   5.371200
    22  H    5.389327   6.228496   6.228604   7.600923   5.971802
                    6          7          8          9         10
     6  C    0.000000
     7  C    3.796415   0.000000
     8  H    2.719228   2.150228   0.000000
     9  C    4.303354   1.396108   3.400612   0.000000
    10  H    4.662588   3.398502   4.957280   2.156243   0.000000
    11  C    1.404920   4.672363   3.505465   5.167355   5.405082
    12  C    1.404953   4.618466   3.355376   5.167424   5.491084
    13  H    4.662512   1.086279   2.470197   2.156248   4.299689
    14  H    5.389330   2.157871   4.297551   1.085976   2.487858
    15  C    2.434934   5.984956   4.570275   6.530991   6.686429
    16  H    2.156010   4.570291   3.699164   4.973917   5.191468
    17  C    2.434925   5.943347   4.457121   6.531013   6.755478
    18  H    2.156010   4.457091   3.408671   4.973975   5.371255
    19  C    2.818858   6.531012   4.973978   7.122212   7.280784
    20  H    3.414583   6.755363   5.370947   7.280795   7.381432
    21  H    3.414594   6.686437   5.191462   7.280874   7.497733
    22  H    3.904834   7.600975   5.971920   8.208188   8.324493
                   11         12         13         14         15
    11  C    0.000000
    12  C    2.411119   0.000000
    13  H    5.490880   5.405077   0.000000
    14  H    6.228502   6.228603   2.487812   0.000000
    15  C    1.393934   2.785336   6.755385   7.600926   0.000000
    16  H    1.085932   3.396748   5.370972   5.971800   2.150219
    17  C    2.785320   1.393901   6.686438   7.600977   2.411763
    18  H    3.396725   1.085936   5.191420   5.971917   3.871016
    19  C    2.419198   2.419208   7.280872   8.208188   1.396072
    20  H    2.149897   3.871575   7.497539   8.324505   1.086278
    21  H    3.871558   2.149886   7.381481   8.324631   3.398478
    22  H    3.404029   3.404019   8.324629   9.294164   2.157859
                   16         17         18         19         20
    16  H    0.000000
    17  C    3.870997   0.000000
    18  H    4.296501   2.150234   0.000000
    19  C    3.400569   1.396107   3.400615   0.000000
    20  H    2.470145   3.398500   4.957282   2.156238   0.000000
    21  H    4.957264   1.086278   2.470204   2.156245   4.299683
    22  H    4.297527   2.157871   4.297556   1.085976   2.487844
                   21         22
    21  H    0.000000
    22  H    2.487812   0.000000
 Stoichiometry    C12H10
 Framework group  C1[X(C12H10)]
 Deg. of freedom    60
 Full point group                 C1      NOp   1
 Largest Abelian subgroup         C1      NOp   1
 Largest concise Abelian subgroup C1      NOp   1
                         Standard orientation:                         
 ---------------------------------------------------------------------
 Center     Atomic      Atomic             Coordinates (Angstroms)
 Number     Number       Type             X           Y           Z
 ---------------------------------------------------------------------
      1          6           0       -0.742246    0.000071   -0.000136
      2          6           0       -1.463689   -0.888743   -0.814586
      3          6           0       -1.463682    0.888754    0.814520
      4          6           0       -2.857626   -0.888374   -0.815451
      5          1           0       -0.925048   -1.601810   -1.431552
      6          6           0        0.742247    0.000040    0.000028
      7          6           0       -2.857580    0.888334    0.815467
      8          1           0       -0.924962    1.601690    1.431578
      9          6           0       -3.561107   -0.000021   -0.000004
     10          1           0       -3.395097   -1.589746   -1.447277
     11          6           0        1.463656   -0.888712    0.814577
     12          6           0        1.463715    0.888860   -0.814452
     13          1           0       -3.395079    1.589594    1.447394
     14          1           0       -4.647083   -0.000057    0.000085
     15          6           0        2.857590   -0.888328    0.815521
     16          1           0        0.924980   -1.601673    1.431635
     17          6           0        2.857616    0.888331   -0.815454
     18          1           0        0.925022    1.601917   -1.431393
     19          6           0        3.561105   -0.000165   -0.000107
     20          1           0        3.395044   -1.589607    1.447463
     21          1           0        3.395144    1.589660   -1.447279
     22          1           0        4.647081   -0.000247   -0.000192
 ---------------------------------------------------------------------
 Rotational constants (GHZ):           2.8585222           0.5124028           0.5042973
 Leave Link  202 at Sat Nov  5 21:33:17 2022, MaxMem= 16106127360 cpu:               0.2 elap:               0.0
 (Enter /opt/ap/G16/B01/g16/l301.exe)
 Standard basis: 6-311++G(d,p) (5D, 7F)
 Ernie: Thresh=  0.10000D-02 Tol=  0.10000D-05 Strict=F.
 There are   346 symmetry adapted cartesian basis functions of A   symmetry.
 There are   334 symmetry adapted basis functions of A   symmetry.
   334 basis functions,   522 primitive gaussians,   346 cartesian basis functions
    41 alpha electrons       41 beta electrons
       nuclear repulsion energy       597.8615689809 Hartrees.
 IExCor= 4639 DFT=T Ex+Corr=wB97XD ExCW=0 ScaHFX=  1.000000
 ScaDFX=  1.000000  1.000000  1.000000  1.000000 ScalE2=  1.000000  1.000000
 IRadAn=      5 IRanWt=     -1 IRanGd=            0 ICorTp=0 IEmpDi=121
 HFx  wShort=  0.000000 wLong=  0.200000 cFull=  0.222036 cShort=  0.000000 cLong=  0.777964
 DFx  wShort=  0.000000 wLong=  0.200000 cFull=  0.000000 cShort=  0.000000 cLong=  1.000000
 NAtoms=   22 NActive=   22 NUniq=   22 SFac= 1.00D+00 NAtFMM=   60 NAOKFM=F Big=F
 Integral buffers will be    131072 words long.
 Raffenetti 2 integral format.
 Two-electron integral symmetry is turned on.
 R6Disp:  Grimme-D2 Dispersion energy=       -0.0118578042 Hartrees.
 Nuclear repulsion after empirical dispersion term =      597.8497111767 Hartrees.
 Leave Link  301 at Sat Nov  5 21:33:17 2022, MaxMem= 16106127360 cpu:               1.4 elap:               0.1
 (Enter /opt/ap/G16/B01/g16/l302.exe)
 NPDir=0 NMtPBC=     1 NCelOv=     1 NCel=       1 NClECP=     1 NCelD=      1
         NCelK=      1 NCelE2=     1 NClLst=     1 CellRange=     0.0.
 One-electron integrals computed using PRISM.
 One-electron integral symmetry used in STVInt
 NBasis=   334 RedAO= T EigKep=  1.85D-06  NBF=   334
 NBsUse=   332 1.00D-06 EigRej=  8.63D-07 NBFU=   332
 Precomputing XC quadrature grid using
 IXCGrd= 4 IRadAn=           5 IRanWt=          -1 IRanGd=           0 AccXCQ= 0.00D+00.
 Generated NRdTot=       0 NPtTot=           0 NUsed=           0 NTot=          32
 NSgBfM=   346   346   346   346   346 MxSgAt=    22 MxSgA2=    22.
 Leave Link  302 at Sat Nov  5 21:33:18 2022, MaxMem= 16106127360 cpu:               8.1 elap:               0.3
 (Enter /opt/ap/G16/B01/g16/l303.exe)
 DipDrv:  MaxL=1.
 Leave Link  303 at Sat Nov  5 21:33:18 2022, MaxMem= 16106127360 cpu:               1.7 elap:               0.1
 (Enter /opt/ap/G16/B01/g16/l401.exe)
 ExpMin= 3.60D-02 ExpMax= 4.56D+03 ExpMxC= 6.82D+02 IAcc=3 IRadAn=         5 AccDes= 0.00D+00
 Harris functional with IExCor= 4639 and IRadAn=       5 diagonalized for initial guess.
 HarFok:  IExCor= 4639 AccDes= 0.00D+00 IRadAn=         5 IDoV= 1 UseB2=F ITyADJ=14
 ICtDFT=  3500011 ScaDFX=  1.000000  1.000000  1.000000  1.000000
 FoFCou: FMM=F IPFlag=           0 FMFlag=      100000 FMFlg1=           0
         NFxFlg=           0 DoJE=T BraDBF=F KetDBF=T FulRan=T
         wScrn=  0.000000 ICntrl=       500 IOpCl=  0 I1Cent=   200000004 NGrid=           0
         NMat0=    1 NMatS0=      1 NMatT0=    0 NMatD0=    1 NMtDS0=    0 NMtDT0=    0
 Petite list used in FoFCou.
 Harris En= -441.936813009669    
 JPrj=0 DoOrth=F DoCkMO=F.
 Leave Link  401 at Sat Nov  5 21:33:18 2022, MaxMem= 16106127360 cpu:              20.3 elap:               0.7
 (Enter /opt/ap/G16/B01/g16/l502.exe)
 Integral symmetry usage will be decided dynamically.
 Closed shell SCF:
 Using DIIS extrapolation, IDIIS=  1040.
 NGot= 16106127360 LenX= 16105873520 LenY= 16105753363
 Requested convergence on RMS density matrix=1.00D-08 within 512 cycles.
 Requested convergence on MAX density matrix=1.00D-06.
 Requested convergence on             energy=1.00D-06.
 No special actions if energy rises.
 Fock matrices will be formed incrementally for  20 cycles.

 Cycle   1  Pass 1  IDiag  1:
 FoFJK:  IHMeth= 1 ICntrl=       0 DoSepK=T KAlg= 0 I1Cent=           0 FoldK=F
 IRaf=         1 NMat=       1 IRICut=       1 DoRegI=T DoRafI=F ISym2E= 0 IDoP0=0 IntGTp=1.
 FoFCou: FMM=F IPFlag=           0 FMFlag=      100000 FMFlg1=           0
         NFxFlg=           0 DoJE=T BraDBF=F KetDBF=F FulRan=T
         wScrn=  0.000000 ICntrl=       500 IOpCl=  0 I1Cent=           0 NGrid=           0
         NMat0=    1 NMatS0=      1 NMatT0=    0 NMatD0=    1 NMtDS0=    0 NMtDT0=    0
 Symmetry not used in FoFCou.
 E= -463.150678009068    
 DIIS: error= 6.03D-02 at cycle   1 NSaved=   1.
 NSaved= 1 IEnMin= 1 EnMin= -463.150678009068     IErMin= 1 ErrMin= 6.03D-02
 ErrMax= 6.03D-02  0.00D+00 EMaxC= 1.00D-01 BMatC= 9.52D-01 BMatP= 9.52D-01
 IDIUse=3 WtCom= 3.97D-01 WtEn= 6.03D-01
 Coeff-Com:  0.100D+01
 Coeff-En:   0.100D+01
 Coeff:      0.100D+01
 Gap=     0.368 Goal=   None    Shift=    0.000
 GapD=    0.368 DampG=1.000 DampE=0.500 DampFc=0.5000 IDamp=-1.
 Damping current iteration by 5.00D-01
 RMSDP=5.41D-02 MaxDP=3.27D+00              OVMax= 3.88D-02

 Cycle   2  Pass 1  IDiag  1:
 RMSU=  4.52D-03    CP:  7.67D-01
 E= -463.199558317696     Delta-E=       -0.048880308628 Rises=F Damp=T
 DIIS: error= 2.94D-02 at cycle   2 NSaved=   2.
 NSaved= 2 IEnMin= 2 EnMin= -463.199558317696     IErMin= 2 ErrMin= 2.94D-02
 ErrMax= 2.94D-02  0.00D+00 EMaxC= 1.00D-01 BMatC= 2.16D-01 BMatP= 9.52D-01
 IDIUse=3 WtCom= 7.06D-01 WtEn= 2.94D-01
 Coeff-Com: -0.882D+00 0.188D+01
 Coeff-En:   0.000D+00 0.100D+01
 Coeff:     -0.623D+00 0.162D+01
 Gap=     0.378 Goal=   None    Shift=    0.000
 RMSDP=2.57D-02 MaxDP=1.64D+00 DE=-4.89D-02 OVMax= 3.60D-02

 Cycle   3  Pass 1  IDiag  1:
 RMSU=  4.56D-03    CP:  5.47D-01  1.15D+00
 E= -463.242853815225     Delta-E=       -0.043295497529 Rises=F Damp=F
 DIIS: error= 4.90D-03 at cycle   3 NSaved=   3.
 NSaved= 3 IEnMin= 3 EnMin= -463.242853815225     IErMin= 3 ErrMin= 4.90D-03
 ErrMax= 4.90D-03  0.00D+00 EMaxC= 1.00D-01 BMatC= 5.00D-03 BMatP= 2.16D-01
 IDIUse=3 WtCom= 9.51D-01 WtEn= 4.90D-02
 Coeff-Com: -0.377D+00 0.802D+00 0.575D+00
 Coeff-En:   0.000D+00 0.000D+00 0.100D+01
 Coeff:     -0.359D+00 0.763D+00 0.596D+00
 Gap=     0.368 Goal=   None    Shift=    0.000
 RMSDP=3.09D-03 MaxDP=2.30D-01 DE=-4.33D-02 OVMax= 2.21D-02

 Cycle   4  Pass 1  IDiag  1:
 RMSU=  8.32D-04    CP:  5.27D-01  1.46D+00  7.32D-01
 E= -463.247334647170     Delta-E=       -0.004480831945 Rises=F Damp=F
 DIIS: error= 1.74D-03 at cycle   4 NSaved=   4.
 NSaved= 4 IEnMin= 4 EnMin= -463.247334647170     IErMin= 4 ErrMin= 1.74D-03
 ErrMax= 1.74D-03  0.00D+00 EMaxC= 1.00D-01 BMatC= 2.99D-04 BMatP= 5.00D-03
 IDIUse=3 WtCom= 9.83D-01 WtEn= 1.74D-02
 Coeff-Com: -0.136D+00 0.290D+00 0.285D+00 0.561D+00
 Coeff-En:   0.000D+00 0.000D+00 0.000D+00 0.100D+01
 Coeff:     -0.134D+00 0.285D+00 0.280D+00 0.568D+00
 Gap=     0.366 Goal=   None    Shift=    0.000
 RMSDP=1.00D-03 MaxDP=6.34D-02 DE=-4.48D-03 OVMax= 5.17D-03

 Cycle   5  Pass 1  IDiag  1:
 RMSU=  2.65D-04    CP:  5.19D-01  1.44D+00  8.11D-01  6.19D-01
 E= -463.247647492771     Delta-E=       -0.000312845601 Rises=F Damp=F
 DIIS: error= 2.45D-04 at cycle   5 NSaved=   5.
 NSaved= 5 IEnMin= 5 EnMin= -463.247647492771     IErMin= 5 ErrMin= 2.45D-04
 ErrMax= 2.45D-04  0.00D+00 EMaxC= 1.00D-01 BMatC= 8.21D-06 BMatP= 2.99D-04
 IDIUse=3 WtCom= 9.98D-01 WtEn= 2.45D-03
 Coeff-Com:  0.269D-01-0.574D-01-0.281D-01 0.116D+00 0.943D+00
 Coeff-En:   0.000D+00 0.000D+00 0.000D+00 0.000D+00 0.100D+01
 Coeff:      0.268D-01-0.572D-01-0.280D-01 0.116D+00 0.943D+00
 Gap=     0.364 Goal=   None    Shift=    0.000
 RMSDP=2.31D-04 MaxDP=1.16D-02 DE=-3.13D-04 OVMax= 1.11D-03

 Cycle   6  Pass 1  IDiag  1:
 RMSU=  5.29D-05    CP:  5.19D-01  1.42D+00  8.50D-01  7.00D-01  1.25D+00
 E= -463.247658230390     Delta-E=       -0.000010737619 Rises=F Damp=F
 DIIS: error= 7.21D-05 at cycle   6 NSaved=   6.
 NSaved= 6 IEnMin= 6 EnMin= -463.247658230390     IErMin= 6 ErrMin= 7.21D-05
 ErrMax= 7.21D-05  0.00D+00 EMaxC= 1.00D-01 BMatC= 5.54D-07 BMatP= 8.21D-06
 IDIUse=1 WtCom= 1.00D+00 WtEn= 0.00D+00
 Coeff-Com:  0.128D-01-0.273D-01-0.157D-01 0.303D-01 0.353D+00 0.646D+00
 Coeff:      0.128D-01-0.273D-01-0.157D-01 0.303D-01 0.353D+00 0.646D+00
 Gap=     0.365 Goal=   None    Shift=    0.000
 RMSDP=4.82D-05 MaxDP=3.26D-03 DE=-1.07D-05 OVMax= 2.54D-04

 Cycle   7  Pass 1  IDiag  1:
 RMSU=  1.18D-05    CP:  5.19D-01  1.42D+00  8.56D-01  6.99D-01  1.31D+00
                    CP:  1.11D+00
 E= -463.247658838095     Delta-E=       -0.000000607705 Rises=F Damp=F
 DIIS: error= 1.51D-05 at cycle   7 NSaved=   7.
 NSaved= 7 IEnMin= 7 EnMin= -463.247658838095     IErMin= 7 ErrMin= 1.51D-05
 ErrMax= 1.51D-05  0.00D+00 EMaxC= 1.00D-01 BMatC= 4.91D-08 BMatP= 5.54D-07
 IDIUse=1 WtCom= 1.00D+00 WtEn= 0.00D+00
 Coeff-Com: -0.198D-02 0.426D-02 0.193D-02-0.165D-01-0.985D-01 0.143D+00
 Coeff-Com:  0.968D+00
 Coeff:     -0.198D-02 0.426D-02 0.193D-02-0.165D-01-0.985D-01 0.143D+00
 Coeff:      0.968D+00
 Gap=     0.365 Goal=   None    Shift=    0.000
 RMSDP=2.94D-05 MaxDP=1.81D-03 DE=-6.08D-07 OVMax= 1.17D-04

 Cycle   8  Pass 1  IDiag  1:
 RMSU=  3.08D-06    CP:  5.19D-01  1.41D+00  8.60D-01  7.00D-01  1.35D+00
                    CP:  1.25D+00  1.29D+00
 E= -463.247658917802     Delta-E=       -0.000000079707 Rises=F Damp=F
 DIIS: error= 4.70D-06 at cycle   8 NSaved=   8.
 NSaved= 8 IEnMin= 8 EnMin= -463.247658917802     IErMin= 8 ErrMin= 4.70D-06
 ErrMax= 4.70D-06  0.00D+00 EMaxC= 1.00D-01 BMatC= 1.96D-09 BMatP= 4.91D-08
 IDIUse=1 WtCom= 1.00D+00 WtEn= 0.00D+00
 Coeff-Com: -0.502D-03 0.107D-02 0.713D-03-0.270D-02-0.158D-01 0.146D-02
 Coeff-Com:  0.294D-01 0.986D+00
 Coeff:     -0.502D-03 0.107D-02 0.713D-03-0.270D-02-0.158D-01 0.146D-02
 Coeff:      0.294D-01 0.986D+00
 Gap=     0.365 Goal=   None    Shift=    0.000
 RMSDP=5.11D-06 MaxDP=3.67D-04 DE=-7.97D-08 OVMax= 2.62D-05

 Cycle   9  Pass 1  IDiag  1:
 RMSU=  4.04D-07    CP:  5.19D-01  1.41D+00  8.60D-01  6.99D-01  1.35D+00
                    CP:  1.27D+00  1.37D+00  1.26D+00
 E= -463.247658922037     Delta-E=       -0.000000004235 Rises=F Damp=F
 DIIS: error= 2.42D-06 at cycle   9 NSaved=   9.
 NSaved= 9 IEnMin= 9 EnMin= -463.247658922037     IErMin= 9 ErrMin= 2.42D-06
 ErrMax= 2.42D-06  0.00D+00 EMaxC= 1.00D-01 BMatC= 3.56D-10 BMatP= 1.96D-09
 IDIUse=1 WtCom= 1.00D+00 WtEn= 0.00D+00
 Coeff-Com:  0.186D-03-0.403D-03-0.635D-04 0.191D-02 0.124D-01-0.188D-01
 Coeff-Com: -0.166D+00 0.305D+00 0.866D+00
 Coeff:      0.186D-03-0.403D-03-0.635D-04 0.191D-02 0.124D-01-0.188D-01
 Coeff:     -0.166D+00 0.305D+00 0.866D+00
 Gap=     0.365 Goal=   None    Shift=    0.000
 RMSDP=1.67D-06 MaxDP=9.70D-05 DE=-4.23D-09 OVMax= 1.72D-05

 Cycle  10  Pass 1  IDiag  1:
 RMSU=  2.21D-07    CP:  5.19D-01  1.41D+00  8.60D-01  6.99D-01  1.35D+00
                    CP:  1.28D+00  1.40D+00  1.38D+00  1.18D+00
 E= -463.247658922950     Delta-E=       -0.000000000914 Rises=F Damp=F
 DIIS: error= 4.52D-07 at cycle  10 NSaved=  10.
 NSaved=10 IEnMin=10 EnMin= -463.247658922950     IErMin=10 ErrMin= 4.52D-07
 ErrMax= 4.52D-07  0.00D+00 EMaxC= 1.00D-01 BMatC= 4.61D-11 BMatP= 3.56D-10
 IDIUse=1 WtCom= 1.00D+00 WtEn= 0.00D+00
 Coeff-Com:  0.712D-04-0.153D-03-0.640D-04 0.528D-03 0.283D-02-0.979D-03
 Coeff-Com: -0.259D-01-0.104D+00 0.186D+00 0.941D+00
 Coeff:      0.712D-04-0.153D-03-0.640D-04 0.528D-03 0.283D-02-0.979D-03
 Coeff:     -0.259D-01-0.104D+00 0.186D+00 0.941D+00
 Gap=     0.365 Goal=   None    Shift=    0.000
 RMSDP=3.99D-07 MaxDP=3.07D-05 DE=-9.14D-10 OVMax= 4.60D-06

 Cycle  11  Pass 1  IDiag  1:
 RMSU=  7.43D-08    CP:  5.19D-01  1.41D+00  8.60D-01  6.99D-01  1.35D+00
                    CP:  1.28D+00  1.39D+00  1.38D+00  1.32D+00  1.25D+00
 E= -463.247658923039     Delta-E=       -0.000000000089 Rises=F Damp=F
 DIIS: error= 1.14D-07 at cycle  11 NSaved=  11.
 NSaved=11 IEnMin=11 EnMin= -463.247658923039     IErMin=11 ErrMin= 1.14D-07
 ErrMax= 1.14D-07  0.00D+00 EMaxC= 1.00D-01 BMatC= 1.36D-12 BMatP= 4.61D-11
 IDIUse=1 WtCom= 1.00D+00 WtEn= 0.00D+00
 Coeff-Com: -0.193D-04 0.419D-04 0.149D-04-0.191D-03-0.129D-02 0.206D-02
 Coeff-Com:  0.152D-01-0.206D-01-0.532D-01-0.127D+00 0.118D+01
 Coeff:     -0.193D-04 0.419D-04 0.149D-04-0.191D-03-0.129D-02 0.206D-02
 Coeff:      0.152D-01-0.206D-01-0.532D-01-0.127D+00 0.118D+01
 Gap=     0.365 Goal=   None    Shift=    0.000
 RMSDP=2.85D-07 MaxDP=2.04D-05 DE=-8.87D-11 OVMax= 1.29D-06

 Cycle  12  Pass 1  IDiag  1:
 RMSU=  1.82D-08    CP:  5.19D-01  1.41D+00  8.60D-01  6.99D-01  1.35D+00
                    CP:  1.27D+00  1.39D+00  1.37D+00  1.37D+00  1.36D+00
                    CP:  1.26D+00
 E= -463.247658923058     Delta-E=       -0.000000000019 Rises=F Damp=F
 DIIS: error= 1.43D-08 at cycle  12 NSaved=  12.
 NSaved=12 IEnMin=12 EnMin= -463.247658923058     IErMin=12 ErrMin= 1.43D-08
 ErrMax= 1.43D-08  0.00D+00 EMaxC= 1.00D-01 BMatC= 4.94D-14 BMatP= 1.36D-12
 IDIUse=1 WtCom= 1.00D+00 WtEn= 0.00D+00
 Coeff-Com: -0.170D-05 0.359D-05 0.208D-05-0.835D-05-0.463D-04-0.302D-04
 Coeff-Com:  0.162D-03 0.449D-02-0.144D-02-0.428D-01-0.610D-01 0.110D+01
 Coeff:     -0.170D-05 0.359D-05 0.208D-05-0.835D-05-0.463D-04-0.302D-04
 Coeff:      0.162D-03 0.449D-02-0.144D-02-0.428D-01-0.610D-01 0.110D+01
 Gap=     0.365 Goal=   None    Shift=    0.000
 RMSDP=5.64D-08 MaxDP=3.78D-06 DE=-1.91D-11 OVMax= 2.22D-07

 Cycle  13  Pass 1  IDiag  1:
 RMSU=  4.67D-09    CP:  5.19D-01  1.41D+00  8.60D-01  6.99D-01  1.35D+00
                    CP:  1.27D+00  1.39D+00  1.37D+00  1.37D+00  1.37D+00
                    CP:  1.29D+00  1.27D+00
 E= -463.247658923043     Delta-E=        0.000000000015 Rises=F Damp=F
 DIIS: error= 2.90D-09 at cycle  13 NSaved=  13.
 NSaved=13 IEnMin=12 EnMin= -463.247658923058     IErMin=13 ErrMin= 2.90D-09
 ErrMax= 2.90D-09  0.00D+00 EMaxC= 1.00D-01 BMatC= 2.00D-15 BMatP= 4.94D-14
 IDIUse=1 WtCom= 1.00D+00 WtEn= 0.00D+00
 Coeff-Com:  0.534D-06-0.116D-05-0.546D-06 0.616D-05 0.409D-04-0.734D-04
 Coeff-Com: -0.531D-03 0.118D-02 0.223D-02-0.705D-03-0.504D-01 0.111D+00
 Coeff-Com:  0.938D+00
 Coeff:      0.534D-06-0.116D-05-0.546D-06 0.616D-05 0.409D-04-0.734D-04
 Coeff:     -0.531D-03 0.118D-02 0.223D-02-0.705D-03-0.504D-01 0.111D+00
 Coeff:      0.938D+00
 Gap=     0.365 Goal=   None    Shift=    0.000
 RMSDP=4.67D-09 MaxDP=1.71D-07 DE= 1.50D-11 OVMax= 2.48D-08

 SCF Done:  E(RwB97XD) =  -463.247658923     A.U. after   13 cycles
            NFock= 13  Conv=0.47D-08     -V/T= 2.0049
 KE= 4.610097332118D+02 PE=-2.270033698561D+03 EE= 7.479265952497D+02
 Leave Link  502 at Sat Nov  5 21:33:42 2022, MaxMem= 16106127360 cpu:             745.5 elap:              23.4
 (Enter /opt/ap/G16/B01/g16/l601.exe)
 Copying SCF densities to generalized density rwf, IOpCl= 0 IROHF=0.

 **********************************************************************

            Population analysis using the SCF Density.

 **********************************************************************

 Orbital symmetries:
       Occupied  (A) (A) (A) (A) (A) (A) (A) (A) (A) (A) (A) (A)
                 (A) (A) (A) (A) (A) (A) (A) (A) (A) (A) (A) (A)
                 (A) (A) (A) (A) (A) (A) (A) (A) (A) (A) (A) (A)
                 (A) (A) (A) (A) (A)
       Virtual   (A) (A) (A) (A) (A) (A) (A) (A) (A) (A) (A) (A)
                 (A) (A) (A) (A) (A) (A) (A) (A) (A) (A) (A) (A)
                 (A) (A) (A) (A) (A) (A) (A) (A) (A) (A) (A) (A)
                 (A) (A) (A) (A) (A) (A) (A) (A) (A) (A) (A) (A)
                 (A) (A) (A) (A) (A) (A) (A) (A) (A) (A) (A) (A)
                 (A) (A) (A) (A) (A) (A) (A) (A) (A) (A) (A) (A)
                 (A) (A) (A) (A) (A) (A) (A) (A) (A) (A) (A) (A)
                 (A) (A) (A) (A) (A) (A) (A) (A) (A) (A) (A) (A)
                 (A) (A) (A) (A) (A) (A) (A) (A) (A) (A) (A) (A)
                 (A) (A) (A) (A) (A) (A) (A) (A) (A) (A) (A) (A)
                 (A) (A) (A) (A) (A) (A) (A) (A) (A) (A) (A) (A)
                 (A) (A) (A) (A) (A) (A) (A) (A) (A) (A) (A) (A)
                 (A) (A) (A) (A) (A) (A) (A) (A) (A) (A) (A) (A)
                 (A) (A) (A) (A) (A) (A) (A) (A) (A) (A) (A) (A)
                 (A) (A) (A) (A) (A) (A) (A) (A) (A) (A) (A) (A)
                 (A) (A) (A) (A) (A) (A) (A) (A) (A) (A) (A) (A)
                 (A) (A) (A) (A) (A) (A) (A) (A) (A) (A) (A) (A)
                 (A) (A) (A) (A) (A) (A) (A) (A) (A) (A) (A) (A)
                 (A) (A) (A) (A) (A) (A) (A) (A) (A) (A) (A) (A)
                 (A) (A) (A) (A) (A) (A) (A) (A) (A) (A) (A) (A)
                 (A) (A) (A) (A) (A) (A) (A) (A) (A) (A) (A) (A)
                 (A) (A) (A) (A) (A) (A) (A) (A) (A) (A) (A) (A)
                 (A) (A) (A) (A) (A) (A) (A) (A) (A) (A) (A) (A)
                 (A) (A) (A) (A) (A) (A) (A) (A) (A) (A) (A) (A)
                 (A) (A) (A)
 The electronic state is 1-A.
 Alpha  occ. eigenvalues --  -10.30372 -10.30342 -10.29305 -10.29304 -10.29290
 Alpha  occ. eigenvalues --  -10.29290 -10.29229 -10.29229 -10.29217 -10.29217
 Alpha  occ. eigenvalues --  -10.29196 -10.29196  -0.97484  -0.95286  -0.88140
 Alpha  occ. eigenvalues --   -0.84994  -0.84912  -0.82376  -0.72293  -0.70429
 Alpha  occ. eigenvalues --   -0.70107  -0.67461  -0.62461  -0.59619  -0.55712
 Alpha  occ. eigenvalues --   -0.54722  -0.54428  -0.53475  -0.50954  -0.50895
 Alpha  occ. eigenvalues --   -0.50748  -0.46034  -0.45717  -0.45560  -0.42902
 Alpha  occ. eigenvalues --   -0.42740  -0.41827  -0.33776  -0.33203  -0.33092
 Alpha  occ. eigenvalues --   -0.32603
 Alpha virt. eigenvalues --    0.03853   0.04007   0.04553   0.04682   0.05003
 Alpha virt. eigenvalues --    0.05542   0.05640   0.05982   0.06490   0.06909
 Alpha virt. eigenvalues --    0.07417   0.07462   0.09132   0.09179   0.12598
 Alpha virt. eigenvalues --    0.12657   0.13363   0.13631   0.14564   0.15079
 Alpha virt. eigenvalues --    0.15694   0.15804   0.15874   0.16156   0.17146
 Alpha virt. eigenvalues --    0.17207   0.17365   0.17415   0.17452   0.17485
 Alpha virt. eigenvalues --    0.18720   0.18938   0.18946   0.19293   0.19307
 Alpha virt. eigenvalues --    0.20333   0.20694   0.22027   0.22140   0.22196
 Alpha virt. eigenvalues --    0.22649   0.22856   0.23299   0.24371   0.25038
 Alpha virt. eigenvalues --    0.25143   0.26086   0.26148   0.27186   0.27214
 Alpha virt. eigenvalues --    0.27343   0.27921   0.30145   0.30395   0.30744
 Alpha virt. eigenvalues --    0.31072   0.31575   0.31896   0.32000   0.32965
 Alpha virt. eigenvalues --    0.33578   0.34018   0.34077   0.34424   0.35381
 Alpha virt. eigenvalues --    0.35438   0.35812   0.35854   0.37489   0.37510
 Alpha virt. eigenvalues --    0.37698   0.37803   0.39112   0.40779   0.42851
 Alpha virt. eigenvalues --    0.43204   0.44405   0.44973   0.45528   0.47927
 Alpha virt. eigenvalues --    0.48257   0.56133   0.58829   0.60583   0.60736
 Alpha virt. eigenvalues --    0.60768   0.61340   0.61778   0.62803   0.63258
 Alpha virt. eigenvalues --    0.63432   0.63614   0.63892   0.65663   0.65842
 Alpha virt. eigenvalues --    0.65936   0.66405   0.67760   0.69668   0.70068
 Alpha virt. eigenvalues --    0.72803   0.73047   0.74339   0.74710   0.74912
 Alpha virt. eigenvalues --    0.75814   0.77668   0.79015   0.81003   0.81111
 Alpha virt. eigenvalues --    0.81183   0.81714   0.81976   0.82122   0.82978
 Alpha virt. eigenvalues --    0.84948   0.86174   0.86288   0.88690   0.89799
 Alpha virt. eigenvalues --    0.90929   0.92182   0.93142   0.93736   0.93744
 Alpha virt. eigenvalues --    0.95368   0.95795   0.96981   0.97081   0.97506
 Alpha virt. eigenvalues --    0.98655   1.01069   1.01907   1.03633   1.04240
 Alpha virt. eigenvalues --    1.06040   1.09742   1.09801   1.10097   1.10259
 Alpha virt. eigenvalues --    1.10890   1.13910   1.14046   1.14886   1.16425
 Alpha virt. eigenvalues --    1.17168   1.20086   1.24516   1.26353   1.27490
 Alpha virt. eigenvalues --    1.29162   1.37713   1.40155   1.41585   1.45762
 Alpha virt. eigenvalues --    1.46797   1.58105   1.58463   1.59011   1.59653
 Alpha virt. eigenvalues --    1.60098   1.61180   1.63781   1.64725   1.65072
 Alpha virt. eigenvalues --    1.65596   1.65623   1.66241   1.72090   1.72903
 Alpha virt. eigenvalues --    1.73211   1.73213   1.74056   1.74099   1.74143
 Alpha virt. eigenvalues --    1.82611   1.82741   1.85014   1.85633   1.86016
 Alpha virt. eigenvalues --    1.86402   1.86790   1.87455   1.92204   1.92218
 Alpha virt. eigenvalues --    1.93008   1.94957   1.97860   1.98925   2.00069
 Alpha virt. eigenvalues --    2.03961   2.04081   2.04312   2.04467   2.04522
 Alpha virt. eigenvalues --    2.05750   2.09310   2.10330   2.12233   2.12881
 Alpha virt. eigenvalues --    2.13242   2.15960   2.16832   2.18424   2.18926
 Alpha virt. eigenvalues --    2.19911   2.30741   2.34852   2.35013   2.38444
 Alpha virt. eigenvalues --    2.47952   2.51485   2.51700   2.52244   2.52999
 Alpha virt. eigenvalues --    2.55064   2.55393   2.55999   2.57765   2.68005
 Alpha virt. eigenvalues --    2.70023   2.70998   2.72961   2.73677   2.75488
 Alpha virt. eigenvalues --    2.79044   2.79776   2.80421   2.81156   2.81342
 Alpha virt. eigenvalues --    2.82720   2.83201   2.83280   2.84336   2.85464
 Alpha virt. eigenvalues --    2.85883   2.88146   2.90957   2.91866   2.91882
 Alpha virt. eigenvalues --    2.92136   2.97160   2.97980   2.98585   2.99043
 Alpha virt. eigenvalues --    3.01837   3.03997   3.04027   3.05105   3.13587
 Alpha virt. eigenvalues --    3.14675   3.22046   3.22798   3.26171   3.27059
 Alpha virt. eigenvalues --    3.39759   3.43919   3.44260   3.48836   3.48968
 Alpha virt. eigenvalues --    3.58739   3.59549   3.64266   3.64765   3.69726
 Alpha virt. eigenvalues --    3.73445   3.75866   3.94907   4.09087   4.09370
 Alpha virt. eigenvalues --    4.13385   4.14839   4.24978   4.25136   4.25244
 Alpha virt. eigenvalues --    4.26094   4.48317   4.93904   4.94423  23.71227
 Alpha virt. eigenvalues --   23.85474  24.06844  24.08979  24.08998  24.11425
 Alpha virt. eigenvalues --   24.17407  24.22144  24.22281  24.23763  24.30872
 Alpha virt. eigenvalues --   24.32618
          Condensed to atoms (all electrons):
               1          2          3          4          5          6
     1  C   19.230448   1.450517   1.450272  -1.727165   0.118270  -7.545088
     2  C    1.450517  11.696934  -2.263529  -0.096768   0.368691  -3.749764
     3  C    1.450272  -2.263529  11.692483  -1.068921   0.081802  -3.746429
     4  C   -1.727165  -0.096768  -1.068921   6.609023  -0.108295   1.393192
     5  H    0.118270   0.368691   0.081802  -0.108295   0.467426  -0.083139
     6  C   -7.545088  -3.749764  -3.746429   1.393192  -0.083139  19.230855
     7  C   -1.726774  -1.068725  -0.094803   0.218802  -0.014525   1.391234
     8  H    0.118245   0.081842   0.368581  -0.014538   0.000068  -0.083035
     9  C   -0.082224   0.586270   0.585272   0.127153   0.019096  -1.392004
    10  H    0.029416  -0.102279  -0.024669   0.436741  -0.012153   0.044412
    11  C   -3.749657  -0.329597  -0.353680   0.252660  -0.030820   1.450823
    12  C   -3.746074  -0.353399  -0.328908   0.274177  -0.041634   1.449927
    13  H    0.029383  -0.024693  -0.102169   0.016228  -0.000110   0.044400
    14  H    0.032293   0.021974   0.021979  -0.052743   0.000832  -0.037358
    15  C    1.393326   0.252389   0.274651  -0.032625   0.016058  -1.727614
    16  H   -0.083147  -0.030831  -0.041649   0.016047   0.000158   0.118348
    17  C    1.390889   0.273878   0.252345  -0.035310   0.015448  -1.726356
    18  H   -0.083006  -0.041630  -0.030778   0.015462  -0.000867   0.118157
    19  C   -1.391898  -0.152074  -0.152332   0.039847  -0.015002  -0.082173
    20  H    0.044411   0.002233   0.006265  -0.000746   0.000331   0.029401
    21  H    0.044394   0.006244   0.002251  -0.000429   0.000391   0.029398
    22  H   -0.037357  -0.004730  -0.004749   0.001051  -0.000494   0.032295
               7          8          9         10         11         12
     1  C   -1.726774   0.118245  -0.082224   0.029416  -3.749657  -3.746074
     2  C   -1.068725   0.081842   0.586270  -0.102279  -0.329597  -0.353399
     3  C   -0.094803   0.368581   0.585272  -0.024669  -0.353680  -0.328908
     4  C    0.218802  -0.014538   0.127153   0.436741   0.252660   0.274177
     5  H   -0.014525   0.000068   0.019096  -0.012153  -0.030820  -0.041634
     6  C    1.391234  -0.083035  -1.392004   0.044412   1.450823   1.449927
     7  C    6.608053  -0.108262   0.127652   0.016212   0.274127   0.252296
     8  H   -0.108262   0.467423   0.019087  -0.000111  -0.041594  -0.030839
     9  C    0.127652   0.019087   6.383532  -0.081467  -0.152311  -0.152083
    10  H    0.016212  -0.000111  -0.081467   0.480353   0.002251   0.006246
    11  C    0.274127  -0.041594  -0.152311   0.002251  11.697275  -2.263877
    12  C    0.252296  -0.030839  -0.152083   0.006246  -2.263877  11.692211
    13  H    0.436695  -0.012152  -0.081486   0.000252   0.006250   0.002245
    14  H   -0.052755   0.000833   0.412098  -0.008613  -0.004742  -0.004737
    15  C   -0.035238   0.015479   0.039800  -0.000742  -0.097155  -1.068737
    16  H    0.015454  -0.000868  -0.014999   0.000331   0.368683   0.081823
    17  C   -0.032351   0.015997   0.039730  -0.000427  -1.068619  -0.094309
    18  H    0.016020   0.000162  -0.014996   0.000391   0.081799   0.368591
    19  C    0.039681  -0.014994  -0.027498   0.000144   0.586264   0.585099
    20  H   -0.000424   0.000390   0.000143   0.000050  -0.102278  -0.024667
    21  H   -0.000738   0.000331   0.000143   0.000034  -0.024683  -0.102165
    22  H    0.001045  -0.000494  -0.000591   0.000002   0.021993   0.021956
              13         14         15         16         17         18
     1  C    0.029383   0.032293   1.393326  -0.083147   1.390889  -0.083006
     2  C   -0.024693   0.021974   0.252389  -0.030831   0.273878  -0.041630
     3  C   -0.102169   0.021979   0.274651  -0.041649   0.252345  -0.030778
     4  C    0.016228  -0.052743  -0.032625   0.016047  -0.035310   0.015462
     5  H   -0.000110   0.000832   0.016058   0.000158   0.015448  -0.000867
     6  C    0.044400  -0.037358  -1.727614   0.118348  -1.726356   0.118157
     7  C    0.436695  -0.052755  -0.035238   0.015454  -0.032351   0.016020
     8  H   -0.012152   0.000833   0.015479  -0.000868   0.015997   0.000162
     9  C   -0.081486   0.412098   0.039800  -0.014999   0.039730  -0.014996
    10  H    0.000252  -0.008613  -0.000742   0.000331  -0.000427   0.000391
    11  C    0.006250  -0.004742  -0.097155   0.368683  -1.068619   0.081799
    12  C    0.002245  -0.004737  -1.068737   0.081823  -0.094309   0.368591
    13  H    0.480353  -0.008614  -0.000429   0.000391  -0.000739   0.000331
    14  H   -0.008614   0.471662   0.001049  -0.000494   0.001047  -0.000494
    15  C   -0.000429   0.001049   6.609358  -0.108349   0.218738  -0.014532
    16  H    0.000391  -0.000494  -0.108349   0.467430  -0.014525   0.000068
    17  C   -0.000739   0.001047   0.218738  -0.014525   6.607607  -0.108200
    18  H    0.000331  -0.000494  -0.014532   0.000068  -0.108200   0.467419
    19  C    0.000143  -0.000591   0.127078   0.019100   0.127810   0.019081
    20  H    0.000034   0.000002   0.436758  -0.012155   0.016211  -0.000110
    21  H    0.000050   0.000002   0.016221  -0.000110   0.436677  -0.012151
    22  H    0.000002  -0.000009  -0.052758   0.000833  -0.052743   0.000832
              19         20         21         22
     1  C   -1.391898   0.044411   0.044394  -0.037357
     2  C   -0.152074   0.002233   0.006244  -0.004730
     3  C   -0.152332   0.006265   0.002251  -0.004749
     4  C    0.039847  -0.000746  -0.000429   0.001051
     5  H   -0.015002   0.000331   0.000391  -0.000494
     6  C   -0.082173   0.029401   0.029398   0.032295
     7  C    0.039681  -0.000424  -0.000738   0.001045
     8  H   -0.014994   0.000390   0.000331  -0.000494
     9  C   -0.027498   0.000143   0.000143  -0.000591
    10  H    0.000144   0.000050   0.000034   0.000002
    11  C    0.586264  -0.102278  -0.024683   0.021993
    12  C    0.585099  -0.024667  -0.102165   0.021956
    13  H    0.000143   0.000034   0.000050   0.000002
    14  H   -0.000591   0.000002   0.000002  -0.000009
    15  C    0.127078   0.436758   0.016221  -0.052758
    16  H    0.019100  -0.012155  -0.000110   0.000833
    17  C    0.127810   0.016211   0.436677  -0.052743
    18  H    0.019081  -0.000110  -0.012151   0.000832
    19  C    6.383472  -0.081474  -0.081481   0.412103
    20  H   -0.081474   0.480353   0.000252  -0.008614
    21  H   -0.081481   0.000252   0.480353  -0.008613
    22  H    0.412103  -0.008614  -0.008613   0.471663
 Mulliken charges:
               1
     1  C    0.840523
     2  C   -0.522953
     3  C   -0.523285
     4  C   -0.262842
     5  H    0.218470
     6  C    0.840519
     7  C   -0.262677
     8  H    0.218446
     9  C   -0.340317
    10  H    0.213628
    11  C   -0.523111
    12  C   -0.523143
    13  H    0.213635
    14  H    0.207378
    15  C   -0.262727
    16  H    0.218463
    17  C   -0.262797
    18  H    0.218452
    19  C   -0.340304
    20  H    0.213632
    21  H    0.213632
    22  H    0.207378
 Sum of Mulliken charges =  -0.00000
 Mulliken charges with hydrogens summed into heavy atoms:
               1
     1  C    0.840523
     2  C   -0.304483
     3  C   -0.304839
     4  C   -0.049214
     6  C    0.840519
     7  C   -0.049041
     9  C   -0.132939
    11  C   -0.304648
    12  C   -0.304690
    15  C   -0.049096
    17  C   -0.049166
    19  C   -0.132926
 Electronic spatial extent (au):  <R**2>=           2312.0190
 Charge=             -0.0000 electrons
 Dipole moment (field-independent basis, Debye):
    X=              0.0000    Y=             -0.0002    Z=              0.0003  Tot=              0.0003
 Quadrupole moment (field-independent basis, Debye-Ang):
   XX=            -61.8032   YY=            -68.5045   ZZ=            -70.4488
   XY=              0.0004   XZ=             -0.0006   YZ=              0.0000
 Traceless Quadrupole moment (field-independent basis, Debye-Ang):
   XX=              5.1156   YY=             -1.5856   ZZ=             -3.5300
   XY=              0.0004   XZ=             -0.0006   YZ=              0.0000
 Octapole moment (field-independent basis, Debye-Ang**2):
  XXX=              0.0002  YYY=             -0.0005  ZZZ=              0.0037  XYY=             -0.0005
  XXY=             -0.0035  XXZ=              0.0009  XZZ=              0.0004  YZZ=             -0.0011
  YYZ=             -0.0008  XYZ=            -19.0183
 Hexadecapole moment (field-independent basis, Debye-Ang**3):
 XXXX=          -2302.9089 YYYY=           -367.3643 ZZZZ=           -329.8112 XXXY=             -0.0006
 XXXZ=             -0.0226 YYYX=              0.0088 YYYZ=             -0.0001 ZZZX=              0.0015
 ZZZY=              0.0002 XXYY=           -486.2960 XXZZ=           -490.1009 YYZZ=            -93.2814
 XXYZ=             -0.0003 YYXZ=              0.0017 ZZXY=             -0.0026
 N-N= 5.978497111767D+02 E-N=-2.270033698311D+03  KE= 4.610097332118D+02
 No NMR shielding tensors so no spin-rotation constants.
 Leave Link  601 at Sat Nov  5 21:33:42 2022, MaxMem= 16106127360 cpu:               4.3 elap:               0.2
 (Enter /opt/ap/G16/B01/g16/l9999.exe)
 1\1\GINC-N04\SP\RwB97XD\6-311++G(d,p)\C12H10\ROOT\05-Nov-2022\0\\#P wB
 97XD/6-311++G(d,p) scf=maxcycle=512\\_conf001.gjf nmol_natom 1_22\\0,1
 \C\C,1,1.40491871\C,1,1.40495292,2,118.20503621\C,2,1.3939373,1,120.91
 08946,3,0.05365643,0\H,2,1.08593095,1,119.3452094,3,-178.3624307,0\C,1
 ,1.48449301,2,120.90144423,4,-179.96388019,0\C,3,1.39389842,1,120.9105
 0598,2,0.03587687,0\H,3,1.08593608,1,119.34159615,2,-178.38281524,0\C,
 4,1.39606958,2,120.24555868,1,-0.09283196,0\H,4,1.08627898,2,119.66792
 041,1,-179.51486187,0\C,6,1.40492034,1,120.90156908,2,-85.,0\C,6,1.404
 95329,1,120.89324856,2,95.,0\H,7,1.08627928,3,119.67027175,1,-179.5125
 8183,0\H,9,1.08597601,4,120.2602535,2,-179.95233103,0\C,11,1.39393437,
 6,120.91099656,1,-179.95869964,0\H,11,1.08593173,6,119.34475907,1,1.61
 891886,0\C,12,1.39390147,6,120.91022615,1,-179.94297913,0\H,12,1.08593
 608,6,119.34175044,1,1.63241608,0\C,15,1.39607161,11,120.24535737,6,-0
 .10315482,0\H,15,1.08627786,11,119.66861247,6,-179.51844254,0\H,17,1.0
 8627825,12,119.6702798,6,-179.51590091,0\H,19,1.08597601,15,120.259885
 97,11,-179.94731581,0\\Version=ES64L-G16RevB.01\State=1-A\HF=-463.2476
 589\RMSD=4.666e-09\Dipole=0.0000098,-0.0001299,-0.0000215\Quadrupole=2
 .3154746,-1.9645244,-0.3509502,0.3701203,2.4861766,-0.6176389\PG=C01 [
 X(C12H10)]\\@


 STEINBACH'S GUIDELINES FOR SYSTEMS PROGRAMMING:
 NEVER TEST FOR AN ERROR CONDITION YOU DON'T KNOW HOW
 TO HANDLE.
 Job cpu time:       0 days  0 hours 13 minutes 11.9 seconds.
 Elapsed time:       0 days  0 hours  0 minutes 24.9 seconds.
 File lengths (MBytes):  RWF=     62 Int=      0 D2E=      0 Chk=      8 Scr=      1
 Normal termination of Gaussian 16 at Sat Nov  5 21:33:42 2022.
