 Entering Gaussian System, Link 0=g16
 Input=_conf030.gjf
 Output=_conf030.log
 Initial command:
 /opt/ap/G16/B01/g16/l1.exe "/tmp2/scr/Gau-3512.inp" -scrdir="/tmp2/scr/"
 Entering Link 1 = /opt/ap/G16/B01/g16/l1.exe PID=      3513.
  
 Copyright (c) 1988-2017, Gaussian, Inc.  All Rights Reserved.
  
 This is part of the Gaussian(R) 16 program.  It is based on
 the Gaussian(R) 09 system (copyright 2009, Gaussian, Inc.),
 the Gaussian(R) 03 system (copyright 2003, Gaussian, Inc.),
 the Gaussian(R) 98 system (copyright 1998, Gaussian, Inc.),
 the Gaussian(R) 94 system (copyright 1995, Gaussian, Inc.),
 the Gaussian 92(TM) system (copyright 1992, Gaussian, Inc.),
 the Gaussian 90(TM) system (copyright 1990, Gaussian, Inc.),
 the Gaussian 88(TM) system (copyright 1988, Gaussian, Inc.),
 the Gaussian 86(TM) system (copyright 1986, Carnegie Mellon
 University), and the Gaussian 82(TM) system (copyright 1983,
 Carnegie Mellon University). Gaussian is a federally registered
 trademark of Gaussian, Inc.
  
 This software contains proprietary and confidential information,
 including trade secrets, belonging to Gaussian, Inc.
  
 This software is provided under written license and may be
 used, copied, transmitted, or stored only in accord with that
 written license.
  
 The following legend is applicable only to US Government
 contracts under FAR:
  
                    RESTRICTED RIGHTS LEGEND
  
 Use, reproduction and disclosure by the US Government is
 subject to restrictions as set forth in subparagraphs (a)
 and (c) of the Commercial Computer Software - Restricted
 Rights clause in FAR 52.227-19.
  
 Gaussian, Inc.
 340 Quinnipiac St., Bldg. 40, Wallingford CT 06492
  
  
 ---------------------------------------------------------------
 Warning -- This program may not be used in any manner that
 competes with the business of Gaussian, Inc. or will provide
 assistance to any competitor of Gaussian, Inc.  The licensee
 of this program is prohibited from giving any competitor of
 Gaussian, Inc. access to this program.  By using this program,
 the user acknowledges that Gaussian, Inc. is engaged in the
 business of creating and licensing software in the field of
 computational chemistry and represents and warrants to the
 licensee that it is not a competitor of Gaussian, Inc. and that
 it will not use this program in any manner prohibited above.
 ---------------------------------------------------------------
  

 Cite this work as:
 Gaussian 16, Revision B.01,
 M. J. Frisch, G. W. Trucks, H. B. Schlegel, G. E. Scuseria, 
 M. A. Robb, J. R. Cheeseman, G. Scalmani, V. Barone, 
 G. A. Petersson, H. Nakatsuji, X. Li, M. Caricato, A. V. Marenich, 
 J. Bloino, B. G. Janesko, R. Gomperts, B. Mennucci, H. P. Hratchian, 
 J. V. Ortiz, A. F. Izmaylov, J. L. Sonnenberg, D. Williams-Young, 
 F. Ding, F. Lipparini, F. Egidi, J. Goings, B. Peng, A. Petrone, 
 T. Henderson, D. Ranasinghe, V. G. Zakrzewski, J. Gao, N. Rega, 
 G. Zheng, W. Liang, M. Hada, M. Ehara, K. Toyota, R. Fukuda, 
 J. Hasegawa, M. Ishida, T. Nakajima, Y. Honda, O. Kitao, H. Nakai, 
 T. Vreven, K. Throssell, J. A. Montgomery, Jr., J. E. Peralta, 
 F. Ogliaro, M. J. Bearpark, J. J. Heyd, E. N. Brothers, K. N. Kudin, 
 V. N. Staroverov, T. A. Keith, R. Kobayashi, J. Normand, 
 K. Raghavachari, A. P. Rendell, J. C. Burant, S. S. Iyengar, 
 J. Tomasi, M. Cossi, J. M. Millam, M. Klene, C. Adamo, R. Cammi, 
 J. W. Ochterski, R. L. Martin, K. Morokuma, O. Farkas, 
 J. B. Foresman, and D. J. Fox, Gaussian, Inc., Wallingford CT, 2016.
 
 ******************************************
 Gaussian 16:  ES64L-G16RevB.01 20-Dec-2017
                 5-Nov-2022 
 ******************************************
 %nprocshared=32
 Will use up to   32 processors via shared memory.
 %mem=120GB
 %chk=_conf030.chk
 ----------------------------------------
 #P wB97XD/6-311++G(d,p) scf=maxcycle=512
 ----------------------------------------
 1/38=1,172=1/1;
 2/12=2,17=6,18=5,40=1/2;
 3/5=4,6=6,7=1111,11=2,25=1,30=1,74=-58/1,2,3;
 4//1;
 5/5=2,7=512,38=5/2;
 6/7=2,8=2,9=2,10=2,28=1/1;
 99/5=1,9=1/99;
 Leave Link    1 at Sat Nov  5 21:36:23 2022, MaxMem= 16106127360 cpu:               1.8 elap:               0.1
 (Enter /opt/ap/G16/B01/g16/l101.exe)
 ----------------------------
 _conf030.gjf nmol_natom 1_22
 ----------------------------
 Symbolic Z-matrix:
 Charge =  0 Multiplicity = 1
 C
 C                    1     1.40492 
 C                    1     1.40495  2     118.20504 
 C                    2     1.39394  1     120.91089  3     0.05366  0
 H                    2     1.08593  1     119.34521  3    -178.36243  0
 C                    1     1.48449  2     120.90144  4    -179.96388  0
 C                    3     1.3939   1     120.91051  2     0.03588  0
 H                    3     1.08594  1     119.3416  2    -178.38282  0
 C                    4     1.39607  2     120.24556  1    -0.09283  0
 H                    4     1.08628  2     119.66792  1    -179.51486  0
 C                    6     1.40492  1     120.90157  2     60.      0
 C                    6     1.40495  1     120.89325  2    -120.     0
 H                    7     1.08628  3     119.67027  1    -179.51258  0
 H                    9     1.08598  4     120.26025  2    -179.95233  0
 C                    11    1.39393  6     120.911  1    -179.9587  0
 H                    11    1.08593  6     119.34476  1     1.61892  0
 C                    12    1.3939   6     120.91023  1    -179.94298  0
 H                    12    1.08594  6     119.34175  1     1.63242  0
 C                    15    1.39607  11    120.24536  6    -0.10315  0
 H                    15    1.08628  11    119.66861  6    -179.51844  0
 H                    17    1.08628  12    119.67028  6    -179.5159  0
 H                    19    1.08598  15    120.25989  11   -179.94732  0
 
 ITRead=  0  0  0  0  0  0  0  0  0  0  0  0  0  0  0  0  0  0  0  0
 ITRead=  0  0
 MicOpt= -1 -1 -1 -1 -1 -1 -1 -1 -1 -1 -1 -1 -1 -1 -1 -1 -1 -1 -1 -1
 MicOpt= -1 -1
 NAtoms=     22 NQM=       22 NQMF=       0 NMMI=      0 NMMIF=      0
                NMic=       0 NMicF=      0.
                    Isotopes and Nuclear Properties:
 (Nuclear quadrupole moments (NQMom) in fm**2, nuclear magnetic moments (NMagM)
  in nuclear magnetons)

  Atom         1           2           3           4           5           6           7           8           9          10
 IAtWgt=          12          12          12          12           1          12          12           1          12           1
 AtmWgt=  12.0000000  12.0000000  12.0000000  12.0000000   1.0078250  12.0000000  12.0000000   1.0078250  12.0000000   1.0078250
 NucSpn=           0           0           0           0           1           0           0           1           0           1
 AtZEff=  -0.0000000  -0.0000000  -0.0000000  -0.0000000  -0.0000000  -0.0000000  -0.0000000  -0.0000000  -0.0000000  -0.0000000
 NQMom=    0.0000000   0.0000000   0.0000000   0.0000000   0.0000000   0.0000000   0.0000000   0.0000000   0.0000000   0.0000000
 NMagM=    0.0000000   0.0000000   0.0000000   0.0000000   2.7928460   0.0000000   0.0000000   2.7928460   0.0000000   2.7928460
 AtZNuc=   6.0000000   6.0000000   6.0000000   6.0000000   1.0000000   6.0000000   6.0000000   1.0000000   6.0000000   1.0000000

  Atom        11          12          13          14          15          16          17          18          19          20
 IAtWgt=          12          12           1           1          12           1          12           1          12           1
 AtmWgt=  12.0000000  12.0000000   1.0078250   1.0078250  12.0000000   1.0078250  12.0000000   1.0078250  12.0000000   1.0078250
 NucSpn=           0           0           1           1           0           1           0           1           0           1
 AtZEff=  -0.0000000  -0.0000000  -0.0000000  -0.0000000  -0.0000000  -0.0000000  -0.0000000  -0.0000000  -0.0000000  -0.0000000
 NQMom=    0.0000000   0.0000000   0.0000000   0.0000000   0.0000000   0.0000000   0.0000000   0.0000000   0.0000000   0.0000000
 NMagM=    0.0000000   0.0000000   2.7928460   2.7928460   0.0000000   2.7928460   0.0000000   2.7928460   0.0000000   2.7928460
 AtZNuc=   6.0000000   6.0000000   1.0000000   1.0000000   6.0000000   1.0000000   6.0000000   1.0000000   6.0000000   1.0000000

  Atom        21          22
 IAtWgt=           1           1
 AtmWgt=   1.0078250   1.0078250
 NucSpn=           1           1
 AtZEff=  -0.0000000  -0.0000000
 NQMom=    0.0000000   0.0000000
 NMagM=    2.7928460   2.7928460
 AtZNuc=   1.0000000   1.0000000
 Leave Link  101 at Sat Nov  5 21:36:23 2022, MaxMem= 16106127360 cpu:               5.2 elap:               0.2
 (Enter /opt/ap/G16/B01/g16/l202.exe)
                          Input orientation:                          
 ---------------------------------------------------------------------
 Center     Atomic      Atomic             Coordinates (Angstroms)
 Number     Number       Type             X           Y           Z
 ---------------------------------------------------------------------
      1          6           0        0.000000    0.000000    0.000000
      2          6           0        0.000000    0.000000    1.404919
      3          6           0        1.238131    0.000000   -0.664020
      4          6           0        1.195952    0.001120    2.120990
      5          1           0       -0.946201   -0.027051    1.937101
      6          6           0       -1.273772   -0.000390   -0.762381
      7          6           0        2.434381   -0.000749    0.051479
      8          1           0        1.259850    0.026715   -1.749411
      9          6           0        2.418826    0.000311    1.447501
     10          1           0        1.172413   -0.006894    3.206985
     11          6           0       -2.202739    1.043313   -0.615737
     12          6           0       -1.582834   -1.044587   -1.650089
     13          1           0        3.380326    0.007295   -0.482493
     14          1           0        3.350700    0.000403    2.005133
     15          6           0       -3.399249    1.042715   -1.330871
     16          1           0       -1.970994    1.873051    0.045381
     17          6           0       -2.778238   -1.044716   -2.367006
     18          1           0       -0.890267   -1.874062   -1.757699
     19          6           0       -3.692259   -0.001084   -2.210442
     20          1           0       -4.099583    1.863936   -1.207871
     21          1           0       -3.000303   -1.866290   -3.042064
     22          1           0       -4.623973   -0.001356   -2.768342
 ---------------------------------------------------------------------
                    Distance matrix (angstroms):
                    1          2          3          4          5
     1  C    0.000000
     2  C    1.404919   0.000000
     3  C    1.404953   2.411116   0.000000
     4  C    2.434934   1.393937   2.785330   0.000000
     5  H    2.156012   1.085931   3.396745   2.150216   0.000000
     6  C    1.484493   2.513898   2.513829   3.796494   2.719415
     7  C    2.434925   2.785320   1.393898   2.411760   3.870994
     8  H    2.156008   3.396723   1.085936   3.871013   4.296501
     9  C    2.818861   2.419201   2.419207   1.396070   3.400568
    10  H    3.414579   2.149893   3.871569   1.086279   2.470128
    11  C    2.513901   3.166009   3.595890   4.486307   3.039992
    12  C    2.513826   3.595775   3.165650   4.799604   3.782673
    13  H    3.414594   3.871560   2.149884   3.398478   4.957262
    14  H    3.904837   3.404035   3.404016   2.157861   4.297527
    15  C    3.796494   4.486279   4.799713   5.840903   4.223919
    16  H    2.719411   3.039980   3.782864   4.223958   2.870399
    17  C    3.796414   4.799735   4.485846   6.085234   4.787206
    18  H    2.719225   3.782437   3.039460   4.786736   4.131117
    19  C    4.303351   5.167554   5.167221   6.531150   4.974297
    20  H    4.662595   5.206487   5.679896   6.526415   4.838440
    21  H    4.662511   5.679834   5.206002   6.910348   5.691593
    22  H    5.389327   6.228743   6.228358   7.601125   5.972258
                    6          7          8          9         10
     6  C    0.000000
     7  C    3.796415   0.000000
     8  H    2.719228   2.150228   0.000000
     9  C    4.303354   1.396108   3.400612   0.000000
    10  H    4.662588   3.398502   4.957280   2.156243   0.000000
    11  C    1.404920   4.799805   3.782620   5.167560   5.206515
    12  C    1.404953   4.485861   3.039474   5.167219   5.679732
    13  H    4.662512   1.086279   2.470197   2.156248   4.299689
    14  H    5.389330   2.157871   4.297551   1.085976   2.487858
    15  C    2.434934   6.085306   4.786923   6.531153   6.526401
    16  H    2.156010   4.787326   4.131414   4.974295   4.838485
    17  C    2.434925   5.840405   4.223214   6.530851   6.910434
    18  H    2.156010   4.223234   2.869847   4.973597   5.691137
    19  C    2.818858   6.530850   4.973600   7.122212   7.281042
    20  H    3.414583   6.910549   5.691411   7.281054   7.126352
    21  H    3.414594   6.525798   4.837698   7.280615   7.740770
    22  H    3.904834   7.600773   5.971464   8.208188   8.324822
                   11         12         13         14         15
    11  C    0.000000
    12  C    2.411119   0.000000
    13  H    5.679939   5.206024   0.000000
    14  H    6.228749   6.228356   2.487812   0.000000
    15  C    1.393934   2.785336   6.910461   7.601129   0.000000
    16  H    1.085932   3.396748   5.691776   5.972258   2.150219
    17  C    2.785320   1.393901   6.525797   7.600774   2.411763
    18  H    3.396725   1.085936   4.837728   5.971459   3.871016
    19  C    2.419198   2.419208   7.280613   8.208188   1.396072
    20  H    2.149897   3.871575   7.740951   8.324835   1.086278
    21  H    3.871558   2.149886   7.125598   8.324301   3.398478
    22  H    3.404029   3.404019   8.324300   9.294164   2.157859
                   16         17         18         19         20
    16  H    0.000000
    17  C    3.870997   0.000000
    18  H    4.296501   2.150234   0.000000
    19  C    3.400569   1.396107   3.400615   0.000000
    20  H    2.470145   3.398500   4.957282   2.156238   0.000000
    21  H    4.957264   1.086278   2.470204   2.156245   4.299683
    22  H    4.297527   2.157871   4.297556   1.085976   2.487844
                   21         22
    21  H    0.000000
    22  H    2.487812   0.000000
 Stoichiometry    C12H10
 Framework group  C1[X(C12H10)]
 Deg. of freedom    60
 Full point group                 C1      NOp   1
 Largest Abelian subgroup         C1      NOp   1
 Largest concise Abelian subgroup C1      NOp   1
                         Standard orientation:                         
 ---------------------------------------------------------------------
 Center     Atomic      Atomic             Coordinates (Angstroms)
 Number     Number       Type             X           Y           Z
 ---------------------------------------------------------------------
      1          6           0        0.742246    0.000208   -0.000119
      2          6           0        1.463787    1.044171    0.602638
      3          6           0        1.463584   -1.044034   -0.602716
      4          6           0        2.857724    1.044769    0.601999
      5          1           0        0.925223    1.847049    1.097189
      6          6           0       -0.742247    0.000184   -0.000012
      7          6           0        2.857482   -1.044927   -0.602058
      8          1           0        0.924787   -1.846870   -1.097095
      9          6           0        3.561107   -0.000126   -0.000045
     10          1           0        3.395272    1.858213    1.080908
     11          6           0       -1.463825    1.044196   -0.602644
     12          6           0       -1.463546   -1.043966    0.602791
     13          1           0        3.394903   -1.858523   -1.080850
     14          1           0        4.647083   -0.000290   -0.000005
     15          6           0       -2.857759    1.044804   -0.601911
     16          1           0       -0.925280    1.847158   -1.097083
     17          6           0       -2.857447   -1.044941    0.602068
     18          1           0       -0.924721   -1.846706    1.097293
     19          6           0       -3.561105   -0.000242   -0.000082
     20          1           0       -3.395345    1.858310   -1.080670
     21          1           0       -3.394844   -1.858486    1.080973
     22          1           0       -4.647081   -0.000437   -0.000121
 ---------------------------------------------------------------------
 Rotational constants (GHZ):           2.8585222           0.5318581           0.4867729
 Leave Link  202 at Sat Nov  5 21:36:23 2022, MaxMem= 16106127360 cpu:               0.3 elap:               0.0
 (Enter /opt/ap/G16/B01/g16/l301.exe)
 Standard basis: 6-311++G(d,p) (5D, 7F)
 Ernie: Thresh=  0.10000D-02 Tol=  0.10000D-05 Strict=F.
 There are   346 symmetry adapted cartesian basis functions of A   symmetry.
 There are   334 symmetry adapted basis functions of A   symmetry.
   334 basis functions,   522 primitive gaussians,   346 cartesian basis functions
    41 alpha electrons       41 beta electrons
       nuclear repulsion energy       598.2703804933 Hartrees.
 IExCor= 4639 DFT=T Ex+Corr=wB97XD ExCW=0 ScaHFX=  1.000000
 ScaDFX=  1.000000  1.000000  1.000000  1.000000 ScalE2=  1.000000  1.000000
 IRadAn=      5 IRanWt=     -1 IRanGd=            0 ICorTp=0 IEmpDi=121
 HFx  wShort=  0.000000 wLong=  0.200000 cFull=  0.222036 cShort=  0.000000 cLong=  0.777964
 DFx  wShort=  0.000000 wLong=  0.200000 cFull=  0.000000 cShort=  0.000000 cLong=  1.000000
 NAtoms=   22 NActive=   22 NUniq=   22 SFac= 1.00D+00 NAtFMM=   60 NAOKFM=F Big=F
 Integral buffers will be    131072 words long.
 Raffenetti 2 integral format.
 Two-electron integral symmetry is turned on.
 R6Disp:  Grimme-D2 Dispersion energy=       -0.0119878892 Hartrees.
 Nuclear repulsion after empirical dispersion term =      598.2583926041 Hartrees.
 Leave Link  301 at Sat Nov  5 21:36:23 2022, MaxMem= 16106127360 cpu:               1.2 elap:               0.0
 (Enter /opt/ap/G16/B01/g16/l302.exe)
 NPDir=0 NMtPBC=     1 NCelOv=     1 NCel=       1 NClECP=     1 NCelD=      1
         NCelK=      1 NCelE2=     1 NClLst=     1 CellRange=     0.0.
 One-electron integrals computed using PRISM.
 One-electron integral symmetry used in STVInt
 NBasis=   334 RedAO= T EigKep=  2.03D-06  NBF=   334
 NBsUse=   332 1.00D-06 EigRej=  7.44D-07 NBFU=   332
 Precomputing XC quadrature grid using
 IXCGrd= 4 IRadAn=           5 IRanWt=          -1 IRanGd=           0 AccXCQ= 0.00D+00.
 Generated NRdTot=       0 NPtTot=           0 NUsed=           0 NTot=          32
 NSgBfM=   346   346   346   346   346 MxSgAt=    22 MxSgA2=    22.
 Leave Link  302 at Sat Nov  5 21:36:23 2022, MaxMem= 16106127360 cpu:               7.9 elap:               0.3
 (Enter /opt/ap/G16/B01/g16/l303.exe)
 DipDrv:  MaxL=1.
 Leave Link  303 at Sat Nov  5 21:36:23 2022, MaxMem= 16106127360 cpu:               1.5 elap:               0.1
 (Enter /opt/ap/G16/B01/g16/l401.exe)
 ExpMin= 3.60D-02 ExpMax= 4.56D+03 ExpMxC= 6.82D+02 IAcc=3 IRadAn=         5 AccDes= 0.00D+00
 Harris functional with IExCor= 4639 and IRadAn=       5 diagonalized for initial guess.
 HarFok:  IExCor= 4639 AccDes= 0.00D+00 IRadAn=         5 IDoV= 1 UseB2=F ITyADJ=14
 ICtDFT=  3500011 ScaDFX=  1.000000  1.000000  1.000000  1.000000
 FoFCou: FMM=F IPFlag=           0 FMFlag=      100000 FMFlg1=           0
         NFxFlg=           0 DoJE=T BraDBF=F KetDBF=T FulRan=T
         wScrn=  0.000000 ICntrl=       500 IOpCl=  0 I1Cent=   200000004 NGrid=           0
         NMat0=    1 NMatS0=      1 NMatT0=    0 NMatD0=    1 NMtDS0=    0 NMtDT0=    0
 Petite list used in FoFCou.
 Harris En= -441.938630231871    
 JPrj=0 DoOrth=F DoCkMO=F.
 Leave Link  401 at Sat Nov  5 21:36:24 2022, MaxMem= 16106127360 cpu:              19.7 elap:               0.6
 (Enter /opt/ap/G16/B01/g16/l502.exe)
 Integral symmetry usage will be decided dynamically.
 Closed shell SCF:
 Using DIIS extrapolation, IDIIS=  1040.
 NGot= 16106127360 LenX= 16105873520 LenY= 16105753363
 Requested convergence on RMS density matrix=1.00D-08 within 512 cycles.
 Requested convergence on MAX density matrix=1.00D-06.
 Requested convergence on             energy=1.00D-06.
 No special actions if energy rises.
 Fock matrices will be formed incrementally for  20 cycles.

 Cycle   1  Pass 1  IDiag  1:
 FoFJK:  IHMeth= 1 ICntrl=       0 DoSepK=T KAlg= 0 I1Cent=           0 FoldK=F
 IRaf=         1 NMat=       1 IRICut=       1 DoRegI=T DoRafI=F ISym2E= 0 IDoP0=0 IntGTp=1.
 FoFCou: FMM=F IPFlag=           0 FMFlag=      100000 FMFlg1=           0
         NFxFlg=           0 DoJE=T BraDBF=F KetDBF=F FulRan=T
         wScrn=  0.000000 ICntrl=       500 IOpCl=  0 I1Cent=           0 NGrid=           0
         NMat0=    1 NMatS0=      1 NMatT0=    0 NMatD0=    1 NMtDS0=    0 NMtDT0=    0
 Symmetry not used in FoFCou.
 E= -463.152590268070    
 DIIS: error= 6.41D-02 at cycle   1 NSaved=   1.
 NSaved= 1 IEnMin= 1 EnMin= -463.152590268070     IErMin= 1 ErrMin= 6.41D-02
 ErrMax= 6.41D-02  0.00D+00 EMaxC= 1.00D-01 BMatC= 9.52D-01 BMatP= 9.52D-01
 IDIUse=3 WtCom= 3.59D-01 WtEn= 6.41D-01
 Coeff-Com:  0.100D+01
 Coeff-En:   0.100D+01
 Coeff:      0.100D+01
 Gap=     0.343 Goal=   None    Shift=    0.000
 GapD=    0.343 DampG=1.000 DampE=0.500 DampFc=0.5000 IDamp=-1.
 Damping current iteration by 5.00D-01
 RMSDP=5.77D-02 MaxDP=3.89D+00              OVMax= 4.17D-02

 Cycle   2  Pass 1  IDiag  1:
 RMSU=  5.08D-03    CP:  7.57D-01
 E= -463.201500474680     Delta-E=       -0.048910206610 Rises=F Damp=T
 DIIS: error= 3.07D-02 at cycle   2 NSaved=   2.
 NSaved= 2 IEnMin= 2 EnMin= -463.201500474680     IErMin= 2 ErrMin= 3.07D-02
 ErrMax= 3.07D-02  0.00D+00 EMaxC= 1.00D-01 BMatC= 2.16D-01 BMatP= 9.52D-01
 IDIUse=3 WtCom= 6.93D-01 WtEn= 3.07D-01
 Coeff-Com: -0.883D+00 0.188D+01
 Coeff-En:   0.000D+00 0.100D+01
 Coeff:     -0.612D+00 0.161D+01
 Gap=     0.355 Goal=   None    Shift=    0.000
 RMSDP=2.40D-02 MaxDP=1.50D+00 DE=-4.89D-02 OVMax= 3.74D-02

 Cycle   3  Pass 1  IDiag  1:
 RMSU=  3.64D-03    CP:  5.53D-01  1.17D+00
 E= -463.245141442916     Delta-E=       -0.043640968236 Rises=F Damp=F
 DIIS: error= 5.39D-03 at cycle   3 NSaved=   3.
 NSaved= 3 IEnMin= 3 EnMin= -463.245141442916     IErMin= 3 ErrMin= 5.39D-03
 ErrMax= 5.39D-03  0.00D+00 EMaxC= 1.00D-01 BMatC= 4.67D-03 BMatP= 2.16D-01
 IDIUse=3 WtCom= 9.46D-01 WtEn= 5.39D-02
 Coeff-Com: -0.371D+00 0.789D+00 0.582D+00
 Coeff-En:   0.000D+00 0.000D+00 0.100D+01
 Coeff:     -0.351D+00 0.747D+00 0.604D+00
 Gap=     0.347 Goal=   None    Shift=    0.000
 RMSDP=4.20D-03 MaxDP=3.25D-01 DE=-4.36D-02 OVMax= 2.18D-02

 Cycle   4  Pass 1  IDiag  1:
 RMSU=  1.03D-03    CP:  5.23D-01  1.49D+00  6.73D-01
 E= -463.249297377158     Delta-E=       -0.004155934242 Rises=F Damp=F
 DIIS: error= 1.62D-03 at cycle   4 NSaved=   4.
 NSaved= 4 IEnMin= 4 EnMin= -463.249297377158     IErMin= 4 ErrMin= 1.62D-03
 ErrMax= 1.62D-03  0.00D+00 EMaxC= 1.00D-01 BMatC= 2.95D-04 BMatP= 4.67D-03
 IDIUse=3 WtCom= 9.84D-01 WtEn= 1.62D-02
 Coeff-Com: -0.132D+00 0.283D+00 0.288D+00 0.561D+00
 Coeff-En:   0.000D+00 0.000D+00 0.000D+00 0.100D+01
 Coeff:     -0.130D+00 0.279D+00 0.284D+00 0.568D+00
 Gap=     0.346 Goal=   None    Shift=    0.000
 RMSDP=8.40D-04 MaxDP=4.22D-02 DE=-4.16D-03 OVMax= 5.50D-03

 Cycle   5  Pass 1  IDiag  1:
 RMSU=  3.23D-04    CP:  5.18D-01  1.45D+00  7.63D-01  6.31D-01
 E= -463.249607114021     Delta-E=       -0.000309736863 Rises=F Damp=F
 DIIS: error= 2.73D-04 at cycle   5 NSaved=   5.
 NSaved= 5 IEnMin= 5 EnMin= -463.249607114021     IErMin= 5 ErrMin= 2.73D-04
 ErrMax= 2.73D-04  0.00D+00 EMaxC= 1.00D-01 BMatC= 8.41D-06 BMatP= 2.95D-04
 IDIUse=3 WtCom= 9.97D-01 WtEn= 2.73D-03
 Coeff-Com:  0.272D-01-0.581D-01-0.294D-01 0.119D+00 0.942D+00
 Coeff-En:   0.000D+00 0.000D+00 0.000D+00 0.000D+00 0.100D+01
 Coeff:      0.271D-01-0.580D-01-0.293D-01 0.118D+00 0.942D+00
 Gap=     0.346 Goal=   None    Shift=    0.000
 RMSDP=1.73D-04 MaxDP=8.42D-03 DE=-3.10D-04 OVMax= 1.47D-03

 Cycle   6  Pass 1  IDiag  1:
 RMSU=  5.60D-05    CP:  5.18D-01  1.43D+00  7.86D-01  7.14D-01  1.26D+00
 E= -463.249618408261     Delta-E=       -0.000011294240 Rises=F Damp=F
 DIIS: error= 5.93D-05 at cycle   6 NSaved=   6.
 NSaved= 6 IEnMin= 6 EnMin= -463.249618408261     IErMin= 6 ErrMin= 5.93D-05
 ErrMax= 5.93D-05  0.00D+00 EMaxC= 1.00D-01 BMatC= 5.19D-07 BMatP= 8.41D-06
 IDIUse=1 WtCom= 1.00D+00 WtEn= 0.00D+00
 Coeff-Com:  0.125D-01-0.266D-01-0.159D-01 0.305D-01 0.343D+00 0.657D+00
 Coeff:      0.125D-01-0.266D-01-0.159D-01 0.305D-01 0.343D+00 0.657D+00
 Gap=     0.346 Goal=   None    Shift=    0.000
 RMSDP=6.10D-05 MaxDP=4.46D-03 DE=-1.13D-05 OVMax= 2.42D-04

 Cycle   7  Pass 1  IDiag  1:
 RMSU=  1.18D-05    CP:  5.18D-01  1.43D+00  7.91D-01  7.13D-01  1.32D+00
                    CP:  1.17D+00
 E= -463.249619000504     Delta-E=       -0.000000592243 Rises=F Damp=F
 DIIS: error= 1.91D-05 at cycle   7 NSaved=   7.
 NSaved= 7 IEnMin= 7 EnMin= -463.249619000504     IErMin= 7 ErrMin= 1.91D-05
 ErrMax= 1.91D-05  0.00D+00 EMaxC= 1.00D-01 BMatC= 5.21D-08 BMatP= 5.19D-07
 IDIUse=1 WtCom= 1.00D+00 WtEn= 0.00D+00
 Coeff-Com: -0.216D-02 0.464D-02 0.199D-02-0.174D-01-0.104D+00 0.155D+00
 Coeff-Com:  0.962D+00
 Coeff:     -0.216D-02 0.464D-02 0.199D-02-0.174D-01-0.104D+00 0.155D+00
 Coeff:      0.962D+00
 Gap=     0.346 Goal=   None    Shift=    0.000
 RMSDP=3.32D-05 MaxDP=2.31D-03 DE=-5.92D-07 OVMax= 1.84D-04

 Cycle   8  Pass 1  IDiag  1:
 RMSU=  4.07D-06    CP:  5.19D-01  1.42D+00  7.94D-01  7.14D-01  1.38D+00
                    CP:  1.37D+00  1.26D+00
 E= -463.249619092667     Delta-E=       -0.000000092164 Rises=F Damp=F
 DIIS: error= 3.58D-06 at cycle   8 NSaved=   8.
 NSaved= 8 IEnMin= 8 EnMin= -463.249619092667     IErMin= 8 ErrMin= 3.58D-06
 ErrMax= 3.58D-06  0.00D+00 EMaxC= 1.00D-01 BMatC= 1.64D-09 BMatP= 5.21D-08
 IDIUse=1 WtCom= 1.00D+00 WtEn= 0.00D+00
 Coeff-Com: -0.459D-03 0.980D-03 0.642D-03-0.217D-02-0.128D-01-0.538D-02
 Coeff-Com:  0.135D-02 0.102D+01
 Coeff:     -0.459D-03 0.980D-03 0.642D-03-0.217D-02-0.128D-01-0.538D-02
 Coeff:      0.135D-02 0.102D+01
 Gap=     0.346 Goal=   None    Shift=    0.000
 RMSDP=7.08D-06 MaxDP=5.63D-04 DE=-9.22D-08 OVMax= 3.98D-05

 Cycle   9  Pass 1  IDiag  1:
 RMSU=  5.07D-07    CP:  5.19D-01  1.42D+00  7.94D-01  7.14D-01  1.38D+00
                    CP:  1.40D+00  1.36D+00  1.29D+00
 E= -463.249619096890     Delta-E=       -0.000000004223 Rises=F Damp=F
 DIIS: error= 1.94D-06 at cycle   9 NSaved=   9.
 NSaved= 9 IEnMin= 9 EnMin= -463.249619096890     IErMin= 9 ErrMin= 1.94D-06
 ErrMax= 1.94D-06  0.00D+00 EMaxC= 1.00D-01 BMatC= 3.32D-10 BMatP= 1.64D-09
 IDIUse=1 WtCom= 1.00D+00 WtEn= 0.00D+00
 Coeff-Com:  0.168D-03-0.364D-03-0.539D-04 0.184D-02 0.116D-01-0.208D-01
 Coeff-Com: -0.149D+00 0.337D+00 0.820D+00
 Coeff:      0.168D-03-0.364D-03-0.539D-04 0.184D-02 0.116D-01-0.208D-01
 Coeff:     -0.149D+00 0.337D+00 0.820D+00
 Gap=     0.346 Goal=   None    Shift=    0.000
 RMSDP=1.68D-06 MaxDP=1.21D-04 DE=-4.22D-09 OVMax= 2.01D-05

 Cycle  10  Pass 1  IDiag  1:
 RMSU=  2.00D-07    CP:  5.19D-01  1.42D+00  7.94D-01  7.14D-01  1.38D+00
                    CP:  1.41D+00  1.38D+00  1.39D+00  1.31D+00
 E= -463.249619097636     Delta-E=       -0.000000000746 Rises=F Damp=F
 DIIS: error= 4.34D-07 at cycle  10 NSaved=  10.
 NSaved=10 IEnMin=10 EnMin= -463.249619097636     IErMin=10 ErrMin= 4.34D-07
 ErrMax= 4.34D-07  0.00D+00 EMaxC= 1.00D-01 BMatC= 3.81D-11 BMatP= 3.32D-10
 IDIUse=1 WtCom= 1.00D+00 WtEn= 0.00D+00
 Coeff-Com:  0.695D-04-0.149D-03-0.578D-04 0.537D-03 0.292D-02-0.177D-02
 Coeff-Com: -0.272D-01-0.706D-01 0.200D+00 0.896D+00
 Coeff:      0.695D-04-0.149D-03-0.578D-04 0.537D-03 0.292D-02-0.177D-02
 Coeff:     -0.272D-01-0.706D-01 0.200D+00 0.896D+00
 Gap=     0.346 Goal=   None    Shift=    0.000
 RMSDP=4.22D-07 MaxDP=2.96D-05 DE=-7.46D-10 OVMax= 4.95D-06

 Cycle  11  Pass 1  IDiag  1:
 RMSU=  7.44D-08    CP:  5.19D-01  1.42D+00  7.94D-01  7.14D-01  1.38D+00
                    CP:  1.41D+00  1.38D+00  1.41D+00  1.46D+00  1.23D+00
 E= -463.249619097719     Delta-E=       -0.000000000083 Rises=F Damp=F
 DIIS: error= 1.01D-07 at cycle  11 NSaved=  11.
 NSaved=11 IEnMin=11 EnMin= -463.249619097719     IErMin=11 ErrMin= 1.01D-07
 ErrMax= 1.01D-07  0.00D+00 EMaxC= 1.00D-01 BMatC= 1.47D-12 BMatP= 3.81D-11
 IDIUse=1 WtCom= 1.00D+00 WtEn= 0.00D+00
 Coeff-Com: -0.191D-04 0.416D-04 0.150D-04-0.199D-03-0.127D-02 0.236D-02
 Coeff-Com:  0.142D-01-0.236D-01-0.514D-01-0.155D+00 0.122D+01
 Coeff:     -0.191D-04 0.416D-04 0.150D-04-0.199D-03-0.127D-02 0.236D-02
 Coeff:      0.142D-01-0.236D-01-0.514D-01-0.155D+00 0.122D+01
 Gap=     0.346 Goal=   None    Shift=    0.000
 RMSDP=2.86D-07 MaxDP=2.13D-05 DE=-8.30D-11 OVMax= 1.21D-06

 Cycle  12  Pass 1  IDiag  1:
 RMSU=  2.12D-08    CP:  5.19D-01  1.42D+00  7.94D-01  7.14D-01  1.38D+00
                    CP:  1.41D+00  1.38D+00  1.40D+00  1.53D+00  1.35D+00
                    CP:  1.27D+00
 E= -463.249619097717     Delta-E=        0.000000000002 Rises=F Damp=F
 DIIS: error= 2.16D-08 at cycle  12 NSaved=  12.
 NSaved=12 IEnMin=11 EnMin= -463.249619097719     IErMin=12 ErrMin= 2.16D-08
 ErrMax= 2.16D-08  0.00D+00 EMaxC= 1.00D-01 BMatC= 8.34D-14 BMatP= 1.47D-12
 IDIUse=1 WtCom= 1.00D+00 WtEn= 0.00D+00
 Coeff-Com: -0.171D-05 0.360D-05 0.247D-05-0.869D-05-0.378D-04-0.331D-04
 Coeff-Com: -0.795D-05 0.457D-02-0.370D-03-0.493D-01-0.101D+00 0.115D+01
 Coeff:     -0.171D-05 0.360D-05 0.247D-05-0.869D-05-0.378D-04-0.331D-04
 Coeff:     -0.795D-05 0.457D-02-0.370D-03-0.493D-01-0.101D+00 0.115D+01
 Gap=     0.346 Goal=   None    Shift=    0.000
 RMSDP=5.81D-08 MaxDP=4.17D-06 DE= 2.27D-12 OVMax= 3.29D-07

 Cycle  13  Pass 1  IDiag  1:
 RMSU=  5.26D-09    CP:  5.19D-01  1.42D+00  7.94D-01  7.14D-01  1.38D+00
                    CP:  1.41D+00  1.38D+00  1.40D+00  1.53D+00  1.36D+00
                    CP:  1.32D+00  1.35D+00
 E= -463.249619097719     Delta-E=       -0.000000000002 Rises=F Damp=F
 DIIS: error= 5.40D-09 at cycle  13 NSaved=  13.
 NSaved=13 IEnMin=11 EnMin= -463.249619097719     IErMin=13 ErrMin= 5.40D-09
 ErrMax= 5.40D-09  0.00D+00 EMaxC= 1.00D-01 BMatC= 3.93D-15 BMatP= 8.34D-14
 IDIUse=1 WtCom= 1.00D+00 WtEn= 0.00D+00
 Coeff-Com:  0.630D-06-0.138D-05-0.477D-06 0.734D-05 0.511D-04-0.990D-04
 Coeff-Com: -0.645D-03 0.163D-02 0.304D-02-0.129D-02-0.699D-01 0.157D+00
 Coeff-Com:  0.911D+00
 Coeff:      0.630D-06-0.138D-05-0.477D-06 0.734D-05 0.511D-04-0.990D-04
 Coeff:     -0.645D-03 0.163D-02 0.304D-02-0.129D-02-0.699D-01 0.157D+00
 Coeff:      0.911D+00
 Gap=     0.346 Goal=   None    Shift=    0.000
 RMSDP=4.53D-09 MaxDP=2.89D-07 DE=-1.82D-12 OVMax= 6.48D-08

 SCF Done:  E(RwB97XD) =  -463.249619098     A.U. after   13 cycles
            NFock= 13  Conv=0.45D-08     -V/T= 2.0049
 KE= 4.610084956973D+02 PE=-2.270823847832D+03 EE= 7.483073404327D+02
 Leave Link  502 at Sat Nov  5 21:36:47 2022, MaxMem= 16106127360 cpu:             746.1 elap:              23.4
 (Enter /opt/ap/G16/B01/g16/l601.exe)
 Copying SCF densities to generalized density rwf, IOpCl= 0 IROHF=0.

 **********************************************************************

            Population analysis using the SCF Density.

 **********************************************************************

 Orbital symmetries:
       Occupied  (A) (A) (A) (A) (A) (A) (A) (A) (A) (A) (A) (A)
                 (A) (A) (A) (A) (A) (A) (A) (A) (A) (A) (A) (A)
                 (A) (A) (A) (A) (A) (A) (A) (A) (A) (A) (A) (A)
                 (A) (A) (A) (A) (A)
       Virtual   (A) (A) (A) (A) (A) (A) (A) (A) (A) (A) (A) (A)
                 (A) (A) (A) (A) (A) (A) (A) (A) (A) (A) (A) (A)
                 (A) (A) (A) (A) (A) (A) (A) (A) (A) (A) (A) (A)
                 (A) (A) (A) (A) (A) (A) (A) (A) (A) (A) (A) (A)
                 (A) (A) (A) (A) (A) (A) (A) (A) (A) (A) (A) (A)
                 (A) (A) (A) (A) (A) (A) (A) (A) (A) (A) (A) (A)
                 (A) (A) (A) (A) (A) (A) (A) (A) (A) (A) (A) (A)
                 (A) (A) (A) (A) (A) (A) (A) (A) (A) (A) (A) (A)
                 (A) (A) (A) (A) (A) (A) (A) (A) (A) (A) (A) (A)
                 (A) (A) (A) (A) (A) (A) (A) (A) (A) (A) (A) (A)
                 (A) (A) (A) (A) (A) (A) (A) (A) (A) (A) (A) (A)
                 (A) (A) (A) (A) (A) (A) (A) (A) (A) (A) (A) (A)
                 (A) (A) (A) (A) (A) (A) (A) (A) (A) (A) (A) (A)
                 (A) (A) (A) (A) (A) (A) (A) (A) (A) (A) (A) (A)
                 (A) (A) (A) (A) (A) (A) (A) (A) (A) (A) (A) (A)
                 (A) (A) (A) (A) (A) (A) (A) (A) (A) (A) (A) (A)
                 (A) (A) (A) (A) (A) (A) (A) (A) (A) (A) (A) (A)
                 (A) (A) (A) (A) (A) (A) (A) (A) (A) (A) (A) (A)
                 (A) (A) (A) (A) (A) (A) (A) (A) (A) (A) (A) (A)
                 (A) (A) (A) (A) (A) (A) (A) (A) (A) (A) (A) (A)
                 (A) (A) (A) (A) (A) (A) (A) (A) (A) (A) (A) (A)
                 (A) (A) (A) (A) (A) (A) (A) (A) (A) (A) (A) (A)
                 (A) (A) (A) (A) (A) (A) (A) (A) (A) (A) (A) (A)
                 (A) (A) (A) (A) (A) (A) (A) (A) (A) (A) (A) (A)
                 (A) (A) (A)
 The electronic state is 1-A.
 Alpha  occ. eigenvalues --  -10.30432 -10.30402 -10.29333 -10.29333 -10.29320
 Alpha  occ. eigenvalues --  -10.29320 -10.29251 -10.29251 -10.29242 -10.29242
 Alpha  occ. eigenvalues --  -10.29217 -10.29217  -0.97538  -0.95309  -0.88180
 Alpha  occ. eigenvalues --   -0.85227  -0.84771  -0.82380  -0.72325  -0.71161
 Alpha  occ. eigenvalues --   -0.69435  -0.67486  -0.62570  -0.59515  -0.55922
 Alpha  occ. eigenvalues --   -0.55310  -0.53614  -0.53408  -0.51092  -0.50871
 Alpha  occ. eigenvalues --   -0.50833  -0.46463  -0.45485  -0.45482  -0.43257
 Alpha  occ. eigenvalues --   -0.42443  -0.41984  -0.34814  -0.33692  -0.33225
 Alpha  occ. eigenvalues --   -0.31259
 Alpha virt. eigenvalues --    0.03372   0.03868   0.04404   0.04571   0.04993
 Alpha virt. eigenvalues --    0.05701   0.05792   0.05984   0.06951   0.07083
 Alpha virt. eigenvalues --    0.07350   0.07710   0.09254   0.09276   0.12509
 Alpha virt. eigenvalues --    0.12712   0.12884   0.13318   0.15150   0.15311
 Alpha virt. eigenvalues --    0.15492   0.15762   0.16066   0.16417   0.17005
 Alpha virt. eigenvalues --    0.17433   0.17486   0.17692   0.17803   0.17991
 Alpha virt. eigenvalues --    0.18473   0.18671   0.18904   0.19354   0.19688
 Alpha virt. eigenvalues --    0.20291   0.20673   0.22129   0.22196   0.22227
 Alpha virt. eigenvalues --    0.22563   0.22817   0.23779   0.23815   0.25361
 Alpha virt. eigenvalues --    0.25899   0.26362   0.26511   0.26869   0.27471
 Alpha virt. eigenvalues --    0.27745   0.28473   0.28564   0.29338   0.30520
 Alpha virt. eigenvalues --    0.30977   0.31262   0.31791   0.32414   0.32504
 Alpha virt. eigenvalues --    0.33655   0.33814   0.35043   0.35079   0.35328
 Alpha virt. eigenvalues --    0.35369   0.36005   0.36202   0.36264   0.36693
 Alpha virt. eigenvalues --    0.38142   0.38394   0.38983   0.40995   0.42837
 Alpha virt. eigenvalues --    0.43261   0.43312   0.43443   0.45629   0.46643
 Alpha virt. eigenvalues --    0.48048   0.55799   0.58461   0.61047   0.61142
 Alpha virt. eigenvalues --    0.61555   0.61643   0.62293   0.62863   0.63301
 Alpha virt. eigenvalues --    0.63783   0.64004   0.64531   0.65147   0.65655
 Alpha virt. eigenvalues --    0.65808   0.67083   0.68050   0.68162   0.71208
 Alpha virt. eigenvalues --    0.71671   0.72531   0.72561   0.73876   0.74560
 Alpha virt. eigenvalues --    0.78096   0.78639   0.79155   0.79176   0.80033
 Alpha virt. eigenvalues --    0.80559   0.81284   0.81417   0.81968   0.82286
 Alpha virt. eigenvalues --    0.83111   0.85578   0.85878   0.88495   0.89420
 Alpha virt. eigenvalues --    0.90198   0.91946   0.93176   0.93463   0.93899
 Alpha virt. eigenvalues --    0.95349   0.96383   0.96454   0.96618   0.98796
 Alpha virt. eigenvalues --    0.99335   1.00895   1.02371   1.02493   1.03836
 Alpha virt. eigenvalues --    1.03928   1.07923   1.09242   1.11049   1.11143
 Alpha virt. eigenvalues --    1.11324   1.14047   1.15256   1.15340   1.16260
 Alpha virt. eigenvalues --    1.16634   1.20726   1.22805   1.24536   1.24854
 Alpha virt. eigenvalues --    1.25349   1.37353   1.40635   1.41618   1.43385
 Alpha virt. eigenvalues --    1.51492   1.57776   1.58595   1.59451   1.59790
 Alpha virt. eigenvalues --    1.61093   1.61922   1.61969   1.63079   1.65217
 Alpha virt. eigenvalues --    1.65270   1.65782   1.67369   1.70574   1.72250
 Alpha virt. eigenvalues --    1.73269   1.74506   1.74725   1.74859   1.74936
 Alpha virt. eigenvalues --    1.79824   1.82524   1.82789   1.84072   1.86112
 Alpha virt. eigenvalues --    1.86305   1.88030   1.88573   1.91624   1.92324
 Alpha virt. eigenvalues --    1.93395   1.98571   1.98766   2.01369   2.01601
 Alpha virt. eigenvalues --    2.01970   2.04019   2.04471   2.04517   2.05234
 Alpha virt. eigenvalues --    2.05650   2.07439   2.09174   2.10477   2.10716
 Alpha virt. eigenvalues --    2.10879   2.14629   2.16765   2.16954   2.19984
 Alpha virt. eigenvalues --    2.20836   2.31103   2.34971   2.35444   2.40297
 Alpha virt. eigenvalues --    2.45929   2.51165   2.52366   2.52543   2.52989
 Alpha virt. eigenvalues --    2.55549   2.55950   2.56126   2.57368   2.62204
 Alpha virt. eigenvalues --    2.70903   2.73448   2.74230   2.75374   2.75490
 Alpha virt. eigenvalues --    2.79293   2.79613   2.80249   2.80397   2.81551
 Alpha virt. eigenvalues --    2.82655   2.83027   2.85450   2.85867   2.86850
 Alpha virt. eigenvalues --    2.88243   2.89191   2.89508   2.91195   2.91763
 Alpha virt. eigenvalues --    2.92274   2.92276   2.97655   2.98525   3.00527
 Alpha virt. eigenvalues --    3.02007   3.03774   3.04078   3.05148   3.12143
 Alpha virt. eigenvalues --    3.15114   3.19312   3.21794   3.26964   3.29549
 Alpha virt. eigenvalues --    3.33218   3.43946   3.46547   3.48014   3.48761
 Alpha virt. eigenvalues --    3.58670   3.60697   3.63274   3.63685   3.68285
 Alpha virt. eigenvalues --    3.73399   3.75321   3.92216   4.08713   4.09913
 Alpha virt. eigenvalues --    4.13512   4.14658   4.24502   4.25108   4.25303
 Alpha virt. eigenvalues --    4.26635   4.52046   4.93321   4.95407  23.70858
 Alpha virt. eigenvalues --   23.85209  24.06901  24.09204  24.09524  24.11060
 Alpha virt. eigenvalues --   24.17519  24.22046  24.22182  24.22528  24.30892
 Alpha virt. eigenvalues --   24.32183
          Condensed to atoms (all electrons):
               1          2          3          4          5          6
     1  C   17.701932   0.512242   0.511975  -1.838173   0.072265  -5.535412
     2  C    0.512242  13.715982  -4.291824  -0.127499   0.413295  -2.966999
     3  C    0.511975  -4.291824  13.717095  -1.135621   0.049247  -2.966097
     4  C   -1.838173  -0.127499  -1.135621   6.847975  -0.088446   1.374760
     5  H    0.072265   0.413295   0.049247  -0.088446   0.463040  -0.080534
     6  C   -5.535412  -2.966999  -2.966097   1.374760  -0.080534  17.701409
     7  C   -1.839398  -1.136353  -0.129717   0.309061  -0.018899   1.377103
     8  H    0.072308   0.049220   0.413463  -0.018878   0.000828  -0.080680
     9  C   -0.185751   0.604505   0.604377  -0.010735   0.020433  -1.211679
    10  H    0.030231  -0.113822  -0.023053   0.443566  -0.010683   0.046915
    11  C   -2.967239   0.490624  -0.944312   0.440305  -0.009189   0.512135
    12  C   -2.965932  -0.944412   0.490962   0.099207  -0.047015   0.512446
    13  H    0.030223  -0.023043  -0.113894   0.024131  -0.000308   0.046925
    14  H    0.027377   0.018333   0.018321  -0.053797   0.000624  -0.031921
    15  C    1.374620   0.440781   0.098654   0.002631   0.015373  -1.837990
    16  H   -0.080549  -0.009201  -0.046982   0.015380   0.000820   0.072277
    17  C    1.377241   0.100016   0.440250  -0.106842   0.021105  -1.839572
    18  H   -0.080661  -0.047060  -0.009206   0.021091  -0.002875   0.072357
    19  C   -1.211851  -0.127310  -0.126741   0.050571  -0.014194  -0.185760
    20  H    0.046907   0.000116   0.007476  -0.001140   0.000434   0.030208
    21  H    0.046942   0.007519   0.000068  -0.001126   0.000581   0.030219
    22  H   -0.031922  -0.003878  -0.003842   0.001344  -0.000423   0.027379
               7          8          9         10         11         12
     1  C   -1.839398   0.072308  -0.185751   0.030231  -2.967239  -2.965932
     2  C   -1.136353   0.049220   0.604505  -0.113822   0.490624  -0.944412
     3  C   -0.129717   0.413463   0.604377  -0.023053  -0.944312   0.490962
     4  C    0.309061  -0.018878  -0.010735   0.443566   0.440305   0.099207
     5  H   -0.018899   0.000828   0.020433  -0.010683  -0.009189  -0.047015
     6  C    1.377103  -0.080680  -1.211679   0.046915   0.512135   0.512446
     7  C    6.850026  -0.088509  -0.011248   0.024142   0.099599   0.440589
     8  H   -0.088509   0.463043   0.020434  -0.000308  -0.047067  -0.009178
     9  C   -0.011248   0.020434   6.510235  -0.088063  -0.127031  -0.127045
    10  H    0.024142  -0.000308  -0.088063   0.479516   0.000091   0.007498
    11  C    0.099599  -0.047067  -0.127031   0.000091  13.714245  -4.291177
    12  C    0.440589  -0.009178  -0.127045   0.007498  -4.291177  13.717063
    13  H    0.443622  -0.010683  -0.088049   0.000706   0.007506   0.000084
    14  H   -0.053815   0.000623   0.419828  -0.008506  -0.003859  -0.003862
    15  C   -0.106943   0.021082   0.050626  -0.001145  -0.126031  -1.136913
    16  H    0.021105  -0.002874  -0.014197   0.000435   0.413202   0.049300
    17  C    0.002205   0.015442   0.050716  -0.001129  -1.135435  -0.130715
    18  H    0.015425   0.000817  -0.014200   0.000581   0.049235   0.413465
    19  C    0.050789  -0.014203  -0.027574   0.000305   0.603699   0.605316
    20  H   -0.001133   0.000581   0.000305   0.000062  -0.113782  -0.023087
    21  H   -0.001154   0.000435   0.000305   0.000004  -0.023038  -0.113914
    22  H    0.001351  -0.000423  -0.000657   0.000010   0.018295   0.018362
              13         14         15         16         17         18
     1  C    0.030223   0.027377   1.374620  -0.080549   1.377241  -0.080661
     2  C   -0.023043   0.018333   0.440781  -0.009201   0.100016  -0.047060
     3  C   -0.113894   0.018321   0.098654  -0.046982   0.440250  -0.009206
     4  C    0.024131  -0.053797   0.002631   0.015380  -0.106842   0.021091
     5  H   -0.000308   0.000624   0.015373   0.000820   0.021105  -0.002875
     6  C    0.046925  -0.031921  -1.837990   0.072277  -1.839572   0.072357
     7  C    0.443622  -0.053815  -0.106943   0.021105   0.002205   0.015425
     8  H   -0.010683   0.000623   0.021082  -0.002874   0.015442   0.000817
     9  C   -0.088049   0.419828   0.050626  -0.014197   0.050716  -0.014200
    10  H    0.000706  -0.008506  -0.001145   0.000435  -0.001129   0.000581
    11  C    0.007506  -0.003859  -0.126031   0.413202  -1.135435   0.049235
    12  C    0.000084  -0.003862  -1.136913   0.049300  -0.130715   0.413465
    13  H    0.479515  -0.008505  -0.001127   0.000581  -0.001150   0.000434
    14  H   -0.008505   0.471916   0.001346  -0.000423   0.001349  -0.000423
    15  C   -0.001127   0.001346   6.847760  -0.088402   0.309097  -0.018894
    16  H    0.000581  -0.000423  -0.088402   0.463029  -0.018890   0.000828
    17  C   -0.001150   0.001349   0.309097  -0.018890   6.850094  -0.088562
    18  H    0.000434  -0.000423  -0.018894   0.000828  -0.088562   0.463044
    19  C    0.000305  -0.000657  -0.010617   0.020406  -0.011450   0.020448
    20  H    0.000004   0.000010   0.443564  -0.010679   0.024145  -0.000308
    21  H    0.000062   0.000010   0.024141  -0.000308   0.443634  -0.010685
    22  H    0.000010  -0.000011  -0.053770   0.000622  -0.053841   0.000624
              19         20         21         22
     1  C   -1.211851   0.046907   0.046942  -0.031922
     2  C   -0.127310   0.000116   0.007519  -0.003878
     3  C   -0.126741   0.007476   0.000068  -0.003842
     4  C    0.050571  -0.001140  -0.001126   0.001344
     5  H   -0.014194   0.000434   0.000581  -0.000423
     6  C   -0.185760   0.030208   0.030219   0.027379
     7  C    0.050789  -0.001133  -0.001154   0.001351
     8  H   -0.014203   0.000581   0.000435  -0.000423
     9  C   -0.027574   0.000305   0.000305  -0.000657
    10  H    0.000305   0.000062   0.000004   0.000010
    11  C    0.603699  -0.113782  -0.023038   0.018295
    12  C    0.605316  -0.023087  -0.113914   0.018362
    13  H    0.000305   0.000004   0.000062   0.000010
    14  H   -0.000657   0.000010   0.000010  -0.000011
    15  C   -0.010617   0.443564   0.024141  -0.053770
    16  H    0.020406  -0.010679  -0.000308   0.000622
    17  C   -0.011450   0.024145   0.443634  -0.053841
    18  H    0.020448  -0.000308  -0.010685   0.000624
    19  C    6.510370  -0.088046  -0.088068   0.419823
    20  H   -0.088046   0.479517   0.000706  -0.008505
    21  H   -0.088068   0.000706   0.479517  -0.008505
    22  H    0.419823  -0.008505  -0.008505   0.471916
 Mulliken charges:
               1
     1  C    0.932623
     2  C   -0.561231
     3  C   -0.560597
     4  C   -0.247766
     5  H    0.214521
     6  C    0.932513
     7  C   -0.247849
     8  H    0.214527
     9  C   -0.375533
    10  H    0.212647
    11  C   -0.560774
    12  C   -0.561043
    13  H    0.212650
    14  H    0.206042
    15  C   -0.247841
    16  H    0.214521
    17  C   -0.247706
    18  H    0.214523
    19  C   -0.375561
    20  H    0.212642
    21  H    0.212653
    22  H    0.206040
 Sum of Mulliken charges =  -0.00000
 Mulliken charges with hydrogens summed into heavy atoms:
               1
     1  C    0.932623
     2  C   -0.346710
     3  C   -0.346071
     4  C   -0.035119
     6  C    0.932513
     7  C   -0.035199
     9  C   -0.169492
    11  C   -0.346253
    12  C   -0.346520
    15  C   -0.035199
    17  C   -0.035053
    19  C   -0.169521
 Electronic spatial extent (au):  <R**2>=           2311.9988
 Charge=             -0.0000 electrons
 Dipole moment (field-independent basis, Debye):
    X=              0.0000    Y=             -0.0002    Z=              0.0003  Tot=              0.0004
 Quadrupole moment (field-independent basis, Debye-Ang):
   XX=            -61.7295   YY=            -65.5844   ZZ=            -73.4155
   XY=             -0.0004   XZ=              0.0013   YZ=              0.0000
 Traceless Quadrupole moment (field-independent basis, Debye-Ang):
   XX=              5.1803   YY=              1.3254   ZZ=             -6.5057
   XY=             -0.0004   XZ=              0.0013   YZ=              0.0000
 Octapole moment (field-independent basis, Debye-Ang**2):
  XXX=              0.0001  YYY=              0.0010  ZZZ=              0.0027  XYY=             -0.0004
  XXY=             -0.0038  XXZ=              0.0011  XZZ=              0.0005  YZZ=             -0.0005
  YYZ=              0.0008  XYZ=             16.8032
 Hexadecapole moment (field-independent basis, Debye-Ang**3):
 XXXX=          -2301.9565 YYYY=           -452.6863 ZZZZ=           -229.2696 XXXY=             -0.0022
 XXXZ=              0.0254 YYYX=             -0.0091 YYYZ=              0.0002 ZZZX=              0.0013
 ZZZY=              0.0002 XXYY=           -481.1012 XXZZ=           -495.2245 YYZZ=           -100.9320
 XXYZ=              0.0011 YYXZ=              0.0013 ZZXY=              0.0042
 N-N= 5.982583926041D+02 E-N=-2.270823847526D+03  KE= 4.610084956973D+02
 No NMR shielding tensors so no spin-rotation constants.
 Leave Link  601 at Sat Nov  5 21:36:47 2022, MaxMem= 16106127360 cpu:               4.3 elap:               0.2
 (Enter /opt/ap/G16/B01/g16/l9999.exe)
 1\1\GINC-N05\SP\RwB97XD\6-311++G(d,p)\C12H10\ROOT\05-Nov-2022\0\\#P wB
 97XD/6-311++G(d,p) scf=maxcycle=512\\_conf030.gjf nmol_natom 1_22\\0,1
 \C\C,1,1.40491871\C,1,1.40495292,2,118.20503621\C,2,1.3939373,1,120.91
 08946,3,0.05365643,0\H,2,1.08593095,1,119.3452094,3,-178.3624307,0\C,1
 ,1.48449301,2,120.90144423,4,-179.96388019,0\C,3,1.39389842,1,120.9105
 0598,2,0.03587687,0\H,3,1.08593608,1,119.34159615,2,-178.38281524,0\C,
 4,1.39606958,2,120.24555868,1,-0.09283196,0\H,4,1.08627898,2,119.66792
 041,1,-179.51486187,0\C,6,1.40492034,1,120.90156908,2,60.,0\C,6,1.4049
 5329,1,120.89324856,2,-120.,0\H,7,1.08627928,3,119.67027175,1,-179.512
 58183,0\H,9,1.08597601,4,120.2602535,2,-179.95233103,0\C,11,1.39393437
 ,6,120.91099656,1,-179.95869964,0\H,11,1.08593173,6,119.34475907,1,1.6
 1891886,0\C,12,1.39390147,6,120.91022615,1,-179.94297913,0\H,12,1.0859
 3608,6,119.34175044,1,1.63241608,0\C,15,1.39607161,11,120.24535737,6,-
 0.10315482,0\H,15,1.08627786,11,119.66861247,6,-179.51844254,0\H,17,1.
 08627825,12,119.6702798,6,-179.51590091,0\H,19,1.08597601,15,120.25988
 597,11,-179.94731581,0\\Version=ES64L-G16RevB.01\State=1-A\HF=-463.249
 6191\RMSD=4.531e-09\Dipole=0.,-0.0001437,0.0000157\Quadrupole=2.711949
 5,-3.3817957,0.6698462,-1.2942769,1.9040461,2.1631576\PG=C01 [X(C12H10
 )]\\@


 NECESSARY EVIL: ONE WE LIKE TOO MUCH TO RELINQUISH.
 Job cpu time:       0 days  0 hours 13 minutes  9.8 seconds.
 Elapsed time:       0 days  0 hours  0 minutes 24.8 seconds.
 File lengths (MBytes):  RWF=     62 Int=      0 D2E=      0 Chk=      8 Scr=      1
 Normal termination of Gaussian 16 at Sat Nov  5 21:36:48 2022.
