 Entering Gaussian System, Link 0=g16
 Input=_conf035.gjf
 Output=_conf035.log
 Initial command:
 /opt/ap/G16/B01/g16/l1.exe "/tmp2/scr/Gau-4456.inp" -scrdir="/tmp2/scr/"
 Entering Link 1 = /opt/ap/G16/B01/g16/l1.exe PID=      4457.
  
 Copyright (c) 1988-2017, Gaussian, Inc.  All Rights Reserved.
  
 This is part of the Gaussian(R) 16 program.  It is based on
 the Gaussian(R) 09 system (copyright 2009, Gaussian, Inc.),
 the Gaussian(R) 03 system (copyright 2003, Gaussian, Inc.),
 the Gaussian(R) 98 system (copyright 1998, Gaussian, Inc.),
 the Gaussian(R) 94 system (copyright 1995, Gaussian, Inc.),
 the Gaussian 92(TM) system (copyright 1992, Gaussian, Inc.),
 the Gaussian 90(TM) system (copyright 1990, Gaussian, Inc.),
 the Gaussian 88(TM) system (copyright 1988, Gaussian, Inc.),
 the Gaussian 86(TM) system (copyright 1986, Carnegie Mellon
 University), and the Gaussian 82(TM) system (copyright 1983,
 Carnegie Mellon University). Gaussian is a federally registered
 trademark of Gaussian, Inc.
  
 This software contains proprietary and confidential information,
 including trade secrets, belonging to Gaussian, Inc.
  
 This software is provided under written license and may be
 used, copied, transmitted, or stored only in accord with that
 written license.
  
 The following legend is applicable only to US Government
 contracts under FAR:
  
                    RESTRICTED RIGHTS LEGEND
  
 Use, reproduction and disclosure by the US Government is
 subject to restrictions as set forth in subparagraphs (a)
 and (c) of the Commercial Computer Software - Restricted
 Rights clause in FAR 52.227-19.
  
 Gaussian, Inc.
 340 Quinnipiac St., Bldg. 40, Wallingford CT 06492
  
  
 ---------------------------------------------------------------
 Warning -- This program may not be used in any manner that
 competes with the business of Gaussian, Inc. or will provide
 assistance to any competitor of Gaussian, Inc.  The licensee
 of this program is prohibited from giving any competitor of
 Gaussian, Inc. access to this program.  By using this program,
 the user acknowledges that Gaussian, Inc. is engaged in the
 business of creating and licensing software in the field of
 computational chemistry and represents and warrants to the
 licensee that it is not a competitor of Gaussian, Inc. and that
 it will not use this program in any manner prohibited above.
 ---------------------------------------------------------------
  

 Cite this work as:
 Gaussian 16, Revision B.01,
 M. J. Frisch, G. W. Trucks, H. B. Schlegel, G. E. Scuseria, 
 M. A. Robb, J. R. Cheeseman, G. Scalmani, V. Barone, 
 G. A. Petersson, H. Nakatsuji, X. Li, M. Caricato, A. V. Marenich, 
 J. Bloino, B. G. Janesko, R. Gomperts, B. Mennucci, H. P. Hratchian, 
 J. V. Ortiz, A. F. Izmaylov, J. L. Sonnenberg, D. Williams-Young, 
 F. Ding, F. Lipparini, F. Egidi, J. Goings, B. Peng, A. Petrone, 
 T. Henderson, D. Ranasinghe, V. G. Zakrzewski, J. Gao, N. Rega, 
 G. Zheng, W. Liang, M. Hada, M. Ehara, K. Toyota, R. Fukuda, 
 J. Hasegawa, M. Ishida, T. Nakajima, Y. Honda, O. Kitao, H. Nakai, 
 T. Vreven, K. Throssell, J. A. Montgomery, Jr., J. E. Peralta, 
 F. Ogliaro, M. J. Bearpark, J. J. Heyd, E. N. Brothers, K. N. Kudin, 
 V. N. Staroverov, T. A. Keith, R. Kobayashi, J. Normand, 
 K. Raghavachari, A. P. Rendell, J. C. Burant, S. S. Iyengar, 
 J. Tomasi, M. Cossi, J. M. Millam, M. Klene, C. Adamo, R. Cammi, 
 J. W. Ochterski, R. L. Martin, K. Morokuma, O. Farkas, 
 J. B. Foresman, and D. J. Fox, Gaussian, Inc., Wallingford CT, 2016.
 
 ******************************************
 Gaussian 16:  ES64L-G16RevB.01 20-Dec-2017
                 5-Nov-2022 
 ******************************************
 %nprocshared=32
 Will use up to   32 processors via shared memory.
 %mem=120GB
 %chk=_conf035.chk
 ----------------------------------------
 #P wB97XD/6-311++G(d,p) scf=maxcycle=512
 ----------------------------------------
 1/38=1,172=1/1;
 2/12=2,17=6,18=5,40=1/2;
 3/5=4,6=6,7=1111,11=2,25=1,30=1,74=-58/1,2,3;
 4//1;
 5/5=2,7=512,38=5/2;
 6/7=2,8=2,9=2,10=2,28=1/1;
 99/5=1,9=1/99;
 Leave Link    1 at Sat Nov  5 21:36:41 2022, MaxMem= 16106127360 cpu:               1.8 elap:               0.1
 (Enter /opt/ap/G16/B01/g16/l101.exe)
 ----------------------------
 _conf035.gjf nmol_natom 1_22
 ----------------------------
 Symbolic Z-matrix:
 Charge =  0 Multiplicity = 1
 C
 C                    1     1.40492 
 C                    1     1.40495  2     118.20504 
 C                    2     1.39394  1     120.91089  3     0.05366  0
 H                    2     1.08593  1     119.34521  3    -178.36243  0
 C                    1     1.48449  2     120.90144  4    -179.96388  0
 C                    3     1.3939   1     120.91051  2     0.03588  0
 H                    3     1.08594  1     119.3416  2    -178.38282  0
 C                    4     1.39607  2     120.24556  1    -0.09283  0
 H                    4     1.08628  2     119.66792  1    -179.51486  0
 C                    6     1.40492  1     120.90157  2     85.      0
 C                    6     1.40495  1     120.89325  2    -95.      0
 H                    7     1.08628  3     119.67027  1    -179.51258  0
 H                    9     1.08598  4     120.26025  2    -179.95233  0
 C                    11    1.39393  6     120.911  1    -179.9587  0
 H                    11    1.08593  6     119.34476  1     1.61892  0
 C                    12    1.3939   6     120.91023  1    -179.94298  0
 H                    12    1.08594  6     119.34175  1     1.63242  0
 C                    15    1.39607  11    120.24536  6    -0.10315  0
 H                    15    1.08628  11    119.66861  6    -179.51844  0
 H                    17    1.08628  12    119.67028  6    -179.5159  0
 H                    19    1.08598  15    120.25989  11   -179.94732  0
 
 ITRead=  0  0  0  0  0  0  0  0  0  0  0  0  0  0  0  0  0  0  0  0
 ITRead=  0  0
 MicOpt= -1 -1 -1 -1 -1 -1 -1 -1 -1 -1 -1 -1 -1 -1 -1 -1 -1 -1 -1 -1
 MicOpt= -1 -1
 NAtoms=     22 NQM=       22 NQMF=       0 NMMI=      0 NMMIF=      0
                NMic=       0 NMicF=      0.
                    Isotopes and Nuclear Properties:
 (Nuclear quadrupole moments (NQMom) in fm**2, nuclear magnetic moments (NMagM)
  in nuclear magnetons)

  Atom         1           2           3           4           5           6           7           8           9          10
 IAtWgt=          12          12          12          12           1          12          12           1          12           1
 AtmWgt=  12.0000000  12.0000000  12.0000000  12.0000000   1.0078250  12.0000000  12.0000000   1.0078250  12.0000000   1.0078250
 NucSpn=           0           0           0           0           1           0           0           1           0           1
 AtZEff=  -0.0000000  -0.0000000  -0.0000000  -0.0000000  -0.0000000  -0.0000000  -0.0000000  -0.0000000  -0.0000000  -0.0000000
 NQMom=    0.0000000   0.0000000   0.0000000   0.0000000   0.0000000   0.0000000   0.0000000   0.0000000   0.0000000   0.0000000
 NMagM=    0.0000000   0.0000000   0.0000000   0.0000000   2.7928460   0.0000000   0.0000000   2.7928460   0.0000000   2.7928460
 AtZNuc=   6.0000000   6.0000000   6.0000000   6.0000000   1.0000000   6.0000000   6.0000000   1.0000000   6.0000000   1.0000000

  Atom        11          12          13          14          15          16          17          18          19          20
 IAtWgt=          12          12           1           1          12           1          12           1          12           1
 AtmWgt=  12.0000000  12.0000000   1.0078250   1.0078250  12.0000000   1.0078250  12.0000000   1.0078250  12.0000000   1.0078250
 NucSpn=           0           0           1           1           0           1           0           1           0           1
 AtZEff=  -0.0000000  -0.0000000  -0.0000000  -0.0000000  -0.0000000  -0.0000000  -0.0000000  -0.0000000  -0.0000000  -0.0000000
 NQMom=    0.0000000   0.0000000   0.0000000   0.0000000   0.0000000   0.0000000   0.0000000   0.0000000   0.0000000   0.0000000
 NMagM=    0.0000000   0.0000000   2.7928460   2.7928460   0.0000000   2.7928460   0.0000000   2.7928460   0.0000000   2.7928460
 AtZNuc=   6.0000000   6.0000000   1.0000000   1.0000000   6.0000000   1.0000000   6.0000000   1.0000000   6.0000000   1.0000000

  Atom        21          22
 IAtWgt=           1           1
 AtmWgt=   1.0078250   1.0078250
 NucSpn=           1           1
 AtZEff=  -0.0000000  -0.0000000
 NQMom=    0.0000000   0.0000000
 NMagM=    2.7928460   2.7928460
 AtZNuc=   1.0000000   1.0000000
 Leave Link  101 at Sat Nov  5 21:36:42 2022, MaxMem= 16106127360 cpu:               5.2 elap:               0.2
 (Enter /opt/ap/G16/B01/g16/l202.exe)
                          Input orientation:                          
 ---------------------------------------------------------------------
 Center     Atomic      Atomic             Coordinates (Angstroms)
 Number     Number       Type             X           Y           Z
 ---------------------------------------------------------------------
      1          6           0        0.000000    0.000000    0.000000
      2          6           0        0.000000    0.000000    1.404919
      3          6           0        1.238131    0.000000   -0.664020
      4          6           0        1.195952    0.001120    2.120990
      5          1           0       -0.946201   -0.027051    1.937101
      6          6           0       -1.273772   -0.000390   -0.762381
      7          6           0        2.434381   -0.000749    0.051479
      8          1           0        1.259850    0.026715   -1.749411
      9          6           0        2.418826    0.000311    1.447501
     10          1           0        1.172413   -0.006894    3.206985
     11          6           0       -1.947197    1.200310   -1.042773
     12          6           0       -1.838405   -1.201601   -1.223006
     13          1           0        3.380326    0.007295   -0.482493
     14          1           0        3.350700    0.000403    2.005133
     15          6           0       -3.143716    1.200097   -1.757892
     16          1           0       -1.513852    2.141763   -0.718541
     17          6           0       -3.033816   -1.202275   -1.939910
     18          1           0       -1.347430   -2.142685   -0.993741
     19          6           0       -3.692271   -0.001286   -2.210421
     20          1           0       -3.643423    2.140967   -1.970157
     21          1           0       -3.456522   -2.143485   -2.279679
     22          1           0       -4.623993   -0.001649   -2.768309
 ---------------------------------------------------------------------
                    Distance matrix (angstroms):
                    1          2          3          4          5
     1  C    0.000000
     2  C    1.404919   0.000000
     3  C    1.404953   2.411116   0.000000
     4  C    2.434934   1.393937   2.785330   0.000000
     5  H    2.156012   1.085931   3.396745   2.150216   0.000000
     6  C    1.484493   2.513898   2.513829   3.796494   2.719415
     7  C    2.434925   2.785320   1.393898   2.411760   3.870994
     8  H    2.156008   3.396723   1.085936   3.871013   4.296501
     9  C    2.818861   2.419201   2.419207   1.396070   3.400568
    10  H    3.414579   2.149893   3.871569   1.086279   2.470128
    11  C    2.513901   3.350152   3.424984   4.618100   3.374620
    12  C    2.513826   3.424845   3.349833   4.672919   3.487388
    13  H    3.414594   3.871560   2.149884   3.398478   4.957262
    14  H    3.904837   3.404035   3.404016   2.157861   4.297527
    15  C    3.796494   4.618069   4.673048   5.942726   4.470788
    16  H    2.719411   3.374608   3.487625   4.470831   3.475402
    17  C    3.796414   4.673049   4.617672   5.985817   4.557467
    18  H    2.719225   3.487153   3.374158   4.556999   3.636857
    19  C    4.303351   5.167548   5.167226   6.531145   4.974285
    20  H    4.662595   5.408272   5.488106   6.688496   5.219385
    21  H    4.662511   5.488017   5.407833   6.753572   5.344366
    22  H    5.389327   6.228735   6.228365   7.601119   5.972243
                    6          7          8          9         10
     6  C    0.000000
     7  C    3.796415   0.000000
     8  H    2.719228   2.150228   0.000000
     9  C    4.303354   1.396108   3.400612   0.000000
    10  H    4.662588   3.398502   4.957280   2.156243   0.000000
    11  C    1.404920   4.673131   3.487379   5.167554   5.408304
    12  C    1.404953   4.617689   3.374173   5.167224   5.487911
    13  H    4.662512   1.086279   2.470197   2.156248   4.299689
    14  H    5.389330   2.157871   4.297551   1.085976   2.487858
    15  C    2.434934   5.985902   4.557224   6.531149   6.688483
    16  H    2.156010   4.557612   3.637243   4.974285   5.219435
    17  C    2.434925   5.942262   4.470154   6.530855   6.753653
    18  H    2.156010   4.470175   3.474944   4.973608   5.343904
    19  C    2.818858   6.530854   4.973612   7.122212   7.281035
    20  H    3.414583   6.753788   5.344237   7.281047   7.389748
    21  H    3.414594   6.687926   5.218728   7.280621   7.489696
    22  H    3.904834   7.600779   5.971479   8.208188   8.324811
                   11         12         13         14         15
    11  C    0.000000
    12  C    2.411119   0.000000
    13  H    5.488141   5.407858   0.000000
    14  H    6.228742   6.228363   2.487812   0.000000
    15  C    1.393934   2.785336   6.753706   7.601123   0.000000
    16  H    1.085932   3.396748   5.344590   5.972243   2.150219
    17  C    2.785320   1.393901   6.687925   7.600780   2.411763
    18  H    3.396725   1.085936   5.218760   5.971474   3.871016
    19  C    2.419198   2.419208   7.280620   8.208188   1.396072
    20  H    2.149897   3.871575   7.489909   8.324825   1.086278
    21  H    3.871558   2.149886   7.389061   8.324311   3.398478
    22  H    3.404029   3.404019   8.324310   9.294164   2.157859
                   16         17         18         19         20
    16  H    0.000000
    17  C    3.870997   0.000000
    18  H    4.296501   2.150234   0.000000
    19  C    3.400569   1.396107   3.400615   0.000000
    20  H    2.470145   3.398500   4.957282   2.156238   0.000000
    21  H    4.957264   1.086278   2.470204   2.156245   4.299683
    22  H    4.297527   2.157871   4.297556   1.085976   2.487844
                   21         22
    21  H    0.000000
    22  H    2.487812   0.000000
 Stoichiometry    C12H10
 Framework group  C1[X(C12H10)]
 Deg. of freedom    60
 Full point group                 C1      NOp   1
 Largest Abelian subgroup         C1      NOp   1
 Largest concise Abelian subgroup C1      NOp   1
                         Standard orientation:                         
 ---------------------------------------------------------------------
 Center     Atomic      Atomic             Coordinates (Angstroms)
 Number     Number       Type             X           Y           Z
 ---------------------------------------------------------------------
      1          6           0        0.742246    0.000232   -0.000096
      2          6           0        1.463786    0.888979    0.814340
      3          6           0        1.463585   -0.888836   -0.814418
      4          6           0        2.857723    0.889687    0.813864
      5          1           0        0.925220    1.565789    1.470938
      6          6           0       -0.742247    0.000202   -0.000016
      7          6           0        2.857483   -0.889866   -0.813950
      8          1           0        0.924790   -1.565631   -1.470852
      9          6           0        3.561107   -0.000139   -0.000059
     10          1           0        3.395270    1.580186    1.457491
     11          6           0       -1.463827    0.889021   -0.814341
     12          6           0       -1.463544   -0.888744    0.814477
     13          1           0        3.394906   -1.580550   -1.457483
     14          1           0        4.647083   -0.000320   -0.000042
     15          6           0       -2.857761    0.889744   -0.813785
     16          1           0       -0.925283    1.565946   -1.470840
     17          6           0       -2.857445   -0.889881    0.813954
     18          1           0       -0.924718   -1.565417    1.471011
     19          6           0       -3.561105   -0.000287   -0.000048
     20          1           0       -3.395348    1.580335   -1.457278
     21          1           0       -3.394840   -1.580501    1.457578
     22          1           0       -4.647081   -0.000509   -0.000066
 ---------------------------------------------------------------------
 Rotational constants (GHZ):           2.8585222           0.5121722           0.5045209
 Leave Link  202 at Sat Nov  5 21:36:42 2022, MaxMem= 16106127360 cpu:               0.3 elap:               0.0
 (Enter /opt/ap/G16/B01/g16/l301.exe)
 Standard basis: 6-311++G(d,p) (5D, 7F)
 Ernie: Thresh=  0.10000D-02 Tol=  0.10000D-05 Strict=F.
 There are   346 symmetry adapted cartesian basis functions of A   symmetry.
 There are   334 symmetry adapted basis functions of A   symmetry.
   334 basis functions,   522 primitive gaussians,   346 cartesian basis functions
    41 alpha electrons       41 beta electrons
       nuclear repulsion energy       597.8575489427 Hartrees.
 IExCor= 4639 DFT=T Ex+Corr=wB97XD ExCW=0 ScaHFX=  1.000000
 ScaDFX=  1.000000  1.000000  1.000000  1.000000 ScalE2=  1.000000  1.000000
 IRadAn=      5 IRanWt=     -1 IRanGd=            0 ICorTp=0 IEmpDi=121
 HFx  wShort=  0.000000 wLong=  0.200000 cFull=  0.222036 cShort=  0.000000 cLong=  0.777964
 DFx  wShort=  0.000000 wLong=  0.200000 cFull=  0.000000 cShort=  0.000000 cLong=  1.000000
 NAtoms=   22 NActive=   22 NUniq=   22 SFac= 1.00D+00 NAtFMM=   60 NAOKFM=F Big=F
 Integral buffers will be    131072 words long.
 Raffenetti 2 integral format.
 Two-electron integral symmetry is turned on.
 R6Disp:  Grimme-D2 Dispersion energy=       -0.0118528822 Hartrees.
 Nuclear repulsion after empirical dispersion term =      597.8456960606 Hartrees.
 Leave Link  301 at Sat Nov  5 21:36:42 2022, MaxMem= 16106127360 cpu:               1.5 elap:               0.0
 (Enter /opt/ap/G16/B01/g16/l302.exe)
 NPDir=0 NMtPBC=     1 NCelOv=     1 NCel=       1 NClECP=     1 NCelD=      1
         NCelK=      1 NCelE2=     1 NClLst=     1 CellRange=     0.0.
 One-electron integrals computed using PRISM.
 One-electron integral symmetry used in STVInt
 NBasis=   334 RedAO= T EigKep=  1.89D-06  NBF=   334
 NBsUse=   332 1.00D-06 EigRej=  8.47D-07 NBFU=   332
 Precomputing XC quadrature grid using
 IXCGrd= 4 IRadAn=           5 IRanWt=          -1 IRanGd=           0 AccXCQ= 0.00D+00.
 Generated NRdTot=       0 NPtTot=           0 NUsed=           0 NTot=          32
 NSgBfM=   346   346   346   346   346 MxSgAt=    22 MxSgA2=    22.
 Leave Link  302 at Sat Nov  5 21:36:42 2022, MaxMem= 16106127360 cpu:               7.6 elap:               0.2
 (Enter /opt/ap/G16/B01/g16/l303.exe)
 DipDrv:  MaxL=1.
 Leave Link  303 at Sat Nov  5 21:36:42 2022, MaxMem= 16106127360 cpu:               1.5 elap:               0.1
 (Enter /opt/ap/G16/B01/g16/l401.exe)
 ExpMin= 3.60D-02 ExpMax= 4.56D+03 ExpMxC= 6.82D+02 IAcc=3 IRadAn=         5 AccDes= 0.00D+00
 Harris functional with IExCor= 4639 and IRadAn=       5 diagonalized for initial guess.
 HarFok:  IExCor= 4639 AccDes= 0.00D+00 IRadAn=         5 IDoV= 1 UseB2=F ITyADJ=14
 ICtDFT=  3500011 ScaDFX=  1.000000  1.000000  1.000000  1.000000
 FoFCou: FMM=F IPFlag=           0 FMFlag=      100000 FMFlg1=           0
         NFxFlg=           0 DoJE=T BraDBF=F KetDBF=T FulRan=T
         wScrn=  0.000000 ICntrl=       500 IOpCl=  0 I1Cent=   200000004 NGrid=           0
         NMat0=    1 NMatS0=      1 NMatT0=    0 NMatD0=    1 NMtDS0=    0 NMtDT0=    0
 Petite list used in FoFCou.
 Harris En= -441.936840868249    
 JPrj=0 DoOrth=F DoCkMO=F.
 Leave Link  401 at Sat Nov  5 21:36:43 2022, MaxMem= 16106127360 cpu:              19.7 elap:               0.6
 (Enter /opt/ap/G16/B01/g16/l502.exe)
 Integral symmetry usage will be decided dynamically.
 Closed shell SCF:
 Using DIIS extrapolation, IDIIS=  1040.
 NGot= 16106127360 LenX= 16105873520 LenY= 16105753363
 Requested convergence on RMS density matrix=1.00D-08 within 512 cycles.
 Requested convergence on MAX density matrix=1.00D-06.
 Requested convergence on             energy=1.00D-06.
 No special actions if energy rises.
 Fock matrices will be formed incrementally for  20 cycles.

 Cycle   1  Pass 1  IDiag  1:
 FoFJK:  IHMeth= 1 ICntrl=       0 DoSepK=T KAlg= 0 I1Cent=           0 FoldK=F
 IRaf=         1 NMat=       1 IRICut=       1 DoRegI=T DoRafI=F ISym2E= 0 IDoP0=0 IntGTp=1.
 FoFCou: FMM=F IPFlag=           0 FMFlag=      100000 FMFlg1=           0
         NFxFlg=           0 DoJE=T BraDBF=F KetDBF=F FulRan=T
         wScrn=  0.000000 ICntrl=       500 IOpCl=  0 I1Cent=           0 NGrid=           0
         NMat0=    1 NMatS0=      1 NMatT0=    0 NMatD0=    1 NMtDS0=    0 NMtDT0=    0
 Symmetry not used in FoFCou.
 E= -463.150721872284    
 DIIS: error= 6.02D-02 at cycle   1 NSaved=   1.
 NSaved= 1 IEnMin= 1 EnMin= -463.150721872284     IErMin= 1 ErrMin= 6.02D-02
 ErrMax= 6.02D-02  0.00D+00 EMaxC= 1.00D-01 BMatC= 9.52D-01 BMatP= 9.52D-01
 IDIUse=3 WtCom= 3.98D-01 WtEn= 6.02D-01
 Coeff-Com:  0.100D+01
 Coeff-En:   0.100D+01
 Coeff:      0.100D+01
 Gap=     0.368 Goal=   None    Shift=    0.000
 GapD=    0.368 DampG=1.000 DampE=0.500 DampFc=0.5000 IDamp=-1.
 Damping current iteration by 5.00D-01
 RMSDP=5.30D-02 MaxDP=3.09D+00              OVMax= 3.87D-02

 Cycle   2  Pass 1  IDiag  1:
 RMSU=  4.49D-03    CP:  7.67D-01
 E= -463.199596641628     Delta-E=       -0.048874769344 Rises=F Damp=T
 DIIS: error= 2.94D-02 at cycle   2 NSaved=   2.
 NSaved= 2 IEnMin= 2 EnMin= -463.199596641628     IErMin= 2 ErrMin= 2.94D-02
 ErrMax= 2.94D-02  0.00D+00 EMaxC= 1.00D-01 BMatC= 2.16D-01 BMatP= 9.52D-01
 IDIUse=3 WtCom= 7.06D-01 WtEn= 2.94D-01
 Coeff-Com: -0.882D+00 0.188D+01
 Coeff-En:   0.000D+00 0.100D+01
 Coeff:     -0.623D+00 0.162D+01
 Gap=     0.377 Goal=   None    Shift=    0.000
 RMSDP=2.51D-02 MaxDP=1.55D+00 DE=-4.89D-02 OVMax= 3.61D-02

 Cycle   3  Pass 1  IDiag  1:
 RMSU=  4.55D-03    CP:  5.46D-01  1.16D+00
 E= -463.242891817779     Delta-E=       -0.043295176151 Rises=F Damp=F
 DIIS: error= 4.87D-03 at cycle   3 NSaved=   3.
 NSaved= 3 IEnMin= 3 EnMin= -463.242891817779     IErMin= 3 ErrMin= 4.87D-03
 ErrMax= 4.87D-03  0.00D+00 EMaxC= 1.00D-01 BMatC= 4.99D-03 BMatP= 2.16D-01
 IDIUse=3 WtCom= 9.51D-01 WtEn= 4.87D-02
 Coeff-Com: -0.377D+00 0.802D+00 0.575D+00
 Coeff-En:   0.000D+00 0.000D+00 0.100D+01
 Coeff:     -0.359D+00 0.763D+00 0.596D+00
 Gap=     0.368 Goal=   None    Shift=    0.000
 RMSDP=3.06D-03 MaxDP=2.29D-01 DE=-4.33D-02 OVMax= 2.21D-02

 Cycle   4  Pass 1  IDiag  1:
 RMSU=  8.20D-04    CP:  5.25D-01  1.46D+00  7.38D-01
 E= -463.247366388971     Delta-E=       -0.004474571192 Rises=F Damp=F
 DIIS: error= 1.79D-03 at cycle   4 NSaved=   4.
 NSaved= 4 IEnMin= 4 EnMin= -463.247366388971     IErMin= 4 ErrMin= 1.79D-03
 ErrMax= 1.79D-03  0.00D+00 EMaxC= 1.00D-01 BMatC= 2.97D-04 BMatP= 4.99D-03
 IDIUse=3 WtCom= 9.82D-01 WtEn= 1.79D-02
 Coeff-Com: -0.136D+00 0.290D+00 0.285D+00 0.561D+00
 Coeff-En:   0.000D+00 0.000D+00 0.000D+00 0.100D+01
 Coeff:     -0.134D+00 0.285D+00 0.280D+00 0.569D+00
 Gap=     0.366 Goal=   None    Shift=    0.000
 RMSDP=9.59D-04 MaxDP=5.88D-02 DE=-4.47D-03 OVMax= 5.19D-03

 Cycle   5  Pass 1  IDiag  1:
 RMSU=  2.65D-04    CP:  5.18D-01  1.44D+00  8.14D-01  6.22D-01
 E= -463.247678061607     Delta-E=       -0.000311672636 Rises=F Damp=F
 DIIS: error= 2.71D-04 at cycle   5 NSaved=   5.
 NSaved= 5 IEnMin= 5 EnMin= -463.247678061607     IErMin= 5 ErrMin= 2.71D-04
 ErrMax= 2.71D-04  0.00D+00 EMaxC= 1.00D-01 BMatC= 8.25D-06 BMatP= 2.97D-04
 IDIUse=3 WtCom= 9.97D-01 WtEn= 2.71D-03
 Coeff-Com:  0.269D-01-0.573D-01-0.281D-01 0.117D+00 0.942D+00
 Coeff-En:   0.000D+00 0.000D+00 0.000D+00 0.000D+00 0.100D+01
 Coeff:      0.268D-01-0.572D-01-0.280D-01 0.116D+00 0.942D+00
 Gap=     0.364 Goal=   None    Shift=    0.000
 RMSDP=2.28D-04 MaxDP=1.09D-02 DE=-3.12D-04 OVMax= 1.13D-03

 Cycle   6  Pass 1  IDiag  1:
 RMSU=  5.19D-05    CP:  5.18D-01  1.42D+00  8.53D-01  7.01D-01  1.25D+00
 E= -463.247688850828     Delta-E=       -0.000010789221 Rises=F Damp=F
 DIIS: error= 7.45D-05 at cycle   6 NSaved=   6.
 NSaved= 6 IEnMin= 6 EnMin= -463.247688850828     IErMin= 6 ErrMin= 7.45D-05
 ErrMax= 7.45D-05  0.00D+00 EMaxC= 1.00D-01 BMatC= 5.55D-07 BMatP= 8.25D-06
 IDIUse=1 WtCom= 1.00D+00 WtEn= 0.00D+00
 Coeff-Com:  0.128D-01-0.273D-01-0.157D-01 0.305D-01 0.353D+00 0.646D+00
 Coeff:      0.128D-01-0.273D-01-0.157D-01 0.305D-01 0.353D+00 0.646D+00
 Gap=     0.364 Goal=   None    Shift=    0.000
 RMSDP=4.79D-05 MaxDP=3.23D-03 DE=-1.08D-05 OVMax= 2.55D-04

 Cycle   7  Pass 1  IDiag  1:
 RMSU=  1.15D-05    CP:  5.18D-01  1.42D+00  8.59D-01  7.00D-01  1.30D+00
                    CP:  1.11D+00
 E= -463.247689459053     Delta-E=       -0.000000608225 Rises=F Damp=F
 DIIS: error= 1.56D-05 at cycle   7 NSaved=   7.
 NSaved= 7 IEnMin= 7 EnMin= -463.247689459053     IErMin= 7 ErrMin= 1.56D-05
 ErrMax= 1.56D-05  0.00D+00 EMaxC= 1.00D-01 BMatC= 4.91D-08 BMatP= 5.55D-07
 IDIUse=1 WtCom= 1.00D+00 WtEn= 0.00D+00
 Coeff-Com: -0.198D-02 0.426D-02 0.194D-02-0.166D-01-0.984D-01 0.142D+00
 Coeff-Com:  0.968D+00
 Coeff:     -0.198D-02 0.426D-02 0.194D-02-0.166D-01-0.984D-01 0.142D+00
 Coeff:      0.968D+00
 Gap=     0.364 Goal=   None    Shift=    0.000
 RMSDP=2.93D-05 MaxDP=1.81D-03 DE=-6.08D-07 OVMax= 1.20D-04

 Cycle   8  Pass 1  IDiag  1:
 RMSU=  3.13D-06    CP:  5.18D-01  1.42D+00  8.63D-01  7.01D-01  1.34D+00
                    CP:  1.25D+00  1.28D+00
 E= -463.247689538807     Delta-E=       -0.000000079754 Rises=F Damp=F
 DIIS: error= 4.87D-06 at cycle   8 NSaved=   8.
 NSaved= 8 IEnMin= 8 EnMin= -463.247689538807     IErMin= 8 ErrMin= 4.87D-06
 ErrMax= 4.87D-06  0.00D+00 EMaxC= 1.00D-01 BMatC= 1.95D-09 BMatP= 4.91D-08
 IDIUse=1 WtCom= 1.00D+00 WtEn= 0.00D+00
 Coeff-Com: -0.503D-03 0.108D-02 0.714D-03-0.271D-02-0.158D-01 0.138D-02
 Coeff-Com:  0.294D-01 0.986D+00
 Coeff:     -0.503D-03 0.108D-02 0.714D-03-0.271D-02-0.158D-01 0.138D-02
 Coeff:      0.294D-01 0.986D+00
 Gap=     0.364 Goal=   None    Shift=    0.000
 RMSDP=5.14D-06 MaxDP=3.71D-04 DE=-7.98D-08 OVMax= 2.63D-05

 Cycle   9  Pass 1  IDiag  1:
 RMSU=  3.79D-07    CP:  5.18D-01  1.41D+00  8.64D-01  7.00D-01  1.34D+00
                    CP:  1.27D+00  1.37D+00  1.25D+00
 E= -463.247689543039     Delta-E=       -0.000000004231 Rises=F Damp=F
 DIIS: error= 2.49D-06 at cycle   9 NSaved=   9.
 NSaved= 9 IEnMin= 9 EnMin= -463.247689543039     IErMin= 9 ErrMin= 2.49D-06
 ErrMax= 2.49D-06  0.00D+00 EMaxC= 1.00D-01 BMatC= 3.54D-10 BMatP= 1.95D-09
 IDIUse=1 WtCom= 1.00D+00 WtEn= 0.00D+00
 Coeff-Com:  0.185D-03-0.400D-03-0.632D-04 0.192D-02 0.124D-01-0.188D-01
 Coeff-Com: -0.166D+00 0.305D+00 0.866D+00
 Coeff:      0.185D-03-0.400D-03-0.632D-04 0.192D-02 0.124D-01-0.188D-01
 Coeff:     -0.166D+00 0.305D+00 0.866D+00
 Gap=     0.364 Goal=   None    Shift=    0.000
 RMSDP=1.68D-06 MaxDP=9.86D-05 DE=-4.23D-09 OVMax= 1.75D-05

 Cycle  10  Pass 1  IDiag  1:
 RMSU=  2.21D-07    CP:  5.18D-01  1.41D+00  8.64D-01  7.00D-01  1.35D+00
                    CP:  1.27D+00  1.39D+00  1.37D+00  1.20D+00
 E= -463.247689543949     Delta-E=       -0.000000000910 Rises=F Damp=F
 DIIS: error= 4.49D-07 at cycle  10 NSaved=  10.
 NSaved=10 IEnMin=10 EnMin= -463.247689543949     IErMin=10 ErrMin= 4.49D-07
 ErrMax= 4.49D-07  0.00D+00 EMaxC= 1.00D-01 BMatC= 4.61D-11 BMatP= 3.54D-10
 IDIUse=1 WtCom= 1.00D+00 WtEn= 0.00D+00
 Coeff-Com:  0.713D-04-0.153D-03-0.641D-04 0.531D-03 0.284D-02-0.986D-03
 Coeff-Com: -0.260D-01-0.103D+00 0.187D+00 0.940D+00
 Coeff:      0.713D-04-0.153D-03-0.641D-04 0.531D-03 0.284D-02-0.986D-03
 Coeff:     -0.260D-01-0.103D+00 0.187D+00 0.940D+00
 Gap=     0.364 Goal=   None    Shift=    0.000
 RMSDP=3.87D-07 MaxDP=2.99D-05 DE=-9.10D-10 OVMax= 4.68D-06

 Cycle  11  Pass 1  IDiag  1:
 RMSU=  7.66D-08    CP:  5.18D-01  1.41D+00  8.64D-01  7.00D-01  1.35D+00
                    CP:  1.27D+00  1.39D+00  1.38D+00  1.34D+00  1.25D+00
 E= -463.247689544039     Delta-E=       -0.000000000091 Rises=F Damp=F
 DIIS: error= 1.19D-07 at cycle  11 NSaved=  11.
 NSaved=11 IEnMin=11 EnMin= -463.247689544039     IErMin=11 ErrMin= 1.19D-07
 ErrMax= 1.19D-07  0.00D+00 EMaxC= 1.00D-01 BMatC= 1.37D-12 BMatP= 4.61D-11
 IDIUse=1 WtCom= 1.00D+00 WtEn= 0.00D+00
 Coeff-Com: -0.193D-04 0.418D-04 0.150D-04-0.192D-03-0.128D-02 0.205D-02
 Coeff-Com:  0.152D-01-0.205D-01-0.534D-01-0.129D+00 0.119D+01
 Coeff:     -0.193D-04 0.418D-04 0.150D-04-0.192D-03-0.128D-02 0.205D-02
 Coeff:      0.152D-01-0.205D-01-0.534D-01-0.129D+00 0.119D+01
 Gap=     0.364 Goal=   None    Shift=    0.000
 RMSDP=2.82D-07 MaxDP=2.03D-05 DE=-9.07D-11 OVMax= 1.30D-06

 Cycle  12  Pass 1  IDiag  1:
 RMSU=  1.82D-08    CP:  5.18D-01  1.41D+00  8.64D-01  7.00D-01  1.34D+00
                    CP:  1.27D+00  1.39D+00  1.37D+00  1.38D+00  1.36D+00
                    CP:  1.25D+00
 E= -463.247689544045     Delta-E=       -0.000000000006 Rises=F Damp=F
 DIIS: error= 1.51D-08 at cycle  12 NSaved=  12.
 NSaved=12 IEnMin=12 EnMin= -463.247689544045     IErMin=12 ErrMin= 1.51D-08
 ErrMax= 1.51D-08  0.00D+00 EMaxC= 1.00D-01 BMatC= 4.97D-14 BMatP= 1.37D-12
 IDIUse=1 WtCom= 1.00D+00 WtEn= 0.00D+00
 Coeff-Com: -0.171D-05 0.361D-05 0.210D-05-0.851D-05-0.468D-04-0.293D-04
 Coeff-Com:  0.168D-03 0.451D-02-0.145D-02-0.429D-01-0.608D-01 0.110D+01
 Coeff:     -0.171D-05 0.361D-05 0.210D-05-0.851D-05-0.468D-04-0.293D-04
 Coeff:      0.168D-03 0.451D-02-0.145D-02-0.429D-01-0.608D-01 0.110D+01
 Gap=     0.364 Goal=   None    Shift=    0.000
 RMSDP=5.61D-08 MaxDP=3.80D-06 DE=-5.68D-12 OVMax= 2.22D-07

 Cycle  13  Pass 1  IDiag  1:
 RMSU=  4.56D-09    CP:  5.18D-01  1.41D+00  8.64D-01  7.00D-01  1.34D+00
                    CP:  1.27D+00  1.39D+00  1.36D+00  1.39D+00  1.37D+00
                    CP:  1.29D+00  1.28D+00
 E= -463.247689544039     Delta-E=        0.000000000006 Rises=F Damp=F
 DIIS: error= 2.87D-09 at cycle  13 NSaved=  13.
 NSaved=13 IEnMin=12 EnMin= -463.247689544045     IErMin=13 ErrMin= 2.87D-09
 ErrMax= 2.87D-09  0.00D+00 EMaxC= 1.00D-01 BMatC= 2.32D-15 BMatP= 4.97D-14
 IDIUse=1 WtCom= 1.00D+00 WtEn= 0.00D+00
 Coeff-Com:  0.487D-06-0.107D-05-0.481D-06 0.594D-05 0.397D-04-0.742D-04
 Coeff-Com: -0.528D-03 0.131D-02 0.218D-02-0.185D-02-0.521D-01 0.141D+00
 Coeff-Com:  0.910D+00
 Coeff:      0.487D-06-0.107D-05-0.481D-06 0.594D-05 0.397D-04-0.742D-04
 Coeff:     -0.528D-03 0.131D-02 0.218D-02-0.185D-02-0.521D-01 0.141D+00
 Coeff:      0.910D+00
 Gap=     0.364 Goal=   None    Shift=    0.000
 RMSDP=4.76D-09 MaxDP=1.73D-07 DE= 5.91D-12 OVMax= 2.60D-08

 SCF Done:  E(RwB97XD) =  -463.247689544     A.U. after   13 cycles
            NFock= 13  Conv=0.48D-08     -V/T= 2.0049
 KE= 4.610097416546D+02 PE=-2.270026889227D+03 EE= 7.479237619680D+02
 Leave Link  502 at Sat Nov  5 21:37:06 2022, MaxMem= 16106127360 cpu:             757.5 elap:              23.7
 (Enter /opt/ap/G16/B01/g16/l601.exe)
 Copying SCF densities to generalized density rwf, IOpCl= 0 IROHF=0.

 **********************************************************************

            Population analysis using the SCF Density.

 **********************************************************************

 Orbital symmetries:
       Occupied  (A) (A) (A) (A) (A) (A) (A) (A) (A) (A) (A) (A)
                 (A) (A) (A) (A) (A) (A) (A) (A) (A) (A) (A) (A)
                 (A) (A) (A) (A) (A) (A) (A) (A) (A) (A) (A) (A)
                 (A) (A) (A) (A) (A)
       Virtual   (A) (A) (A) (A) (A) (A) (A) (A) (A) (A) (A) (A)
                 (A) (A) (A) (A) (A) (A) (A) (A) (A) (A) (A) (A)
                 (A) (A) (A) (A) (A) (A) (A) (A) (A) (A) (A) (A)
                 (A) (A) (A) (A) (A) (A) (A) (A) (A) (A) (A) (A)
                 (A) (A) (A) (A) (A) (A) (A) (A) (A) (A) (A) (A)
                 (A) (A) (A) (A) (A) (A) (A) (A) (A) (A) (A) (A)
                 (A) (A) (A) (A) (A) (A) (A) (A) (A) (A) (A) (A)
                 (A) (A) (A) (A) (A) (A) (A) (A) (A) (A) (A) (A)
                 (A) (A) (A) (A) (A) (A) (A) (A) (A) (A) (A) (A)
                 (A) (A) (A) (A) (A) (A) (A) (A) (A) (A) (A) (A)
                 (A) (A) (A) (A) (A) (A) (A) (A) (A) (A) (A) (A)
                 (A) (A) (A) (A) (A) (A) (A) (A) (A) (A) (A) (A)
                 (A) (A) (A) (A) (A) (A) (A) (A) (A) (A) (A) (A)
                 (A) (A) (A) (A) (A) (A) (A) (A) (A) (A) (A) (A)
                 (A) (A) (A) (A) (A) (A) (A) (A) (A) (A) (A) (A)
                 (A) (A) (A) (A) (A) (A) (A) (A) (A) (A) (A) (A)
                 (A) (A) (A) (A) (A) (A) (A) (A) (A) (A) (A) (A)
                 (A) (A) (A) (A) (A) (A) (A) (A) (A) (A) (A) (A)
                 (A) (A) (A) (A) (A) (A) (A) (A) (A) (A) (A) (A)
                 (A) (A) (A) (A) (A) (A) (A) (A) (A) (A) (A) (A)
                 (A) (A) (A) (A) (A) (A) (A) (A) (A) (A) (A) (A)
                 (A) (A) (A) (A) (A) (A) (A) (A) (A) (A) (A) (A)
                 (A) (A) (A) (A) (A) (A) (A) (A) (A) (A) (A) (A)
                 (A) (A) (A) (A) (A) (A) (A) (A) (A) (A) (A) (A)
                 (A) (A) (A)
 The electronic state is 1-A.
 Alpha  occ. eigenvalues --  -10.30370 -10.30340 -10.29304 -10.29303 -10.29289
 Alpha  occ. eigenvalues --  -10.29289 -10.29228 -10.29228 -10.29216 -10.29216
 Alpha  occ. eigenvalues --  -10.29195 -10.29195  -0.97483  -0.95286  -0.88139
 Alpha  occ. eigenvalues --   -0.84987  -0.84915  -0.82375  -0.72292  -0.70401
 Alpha  occ. eigenvalues --   -0.70132  -0.67460  -0.62458  -0.59620  -0.55705
 Alpha  occ. eigenvalues --   -0.54715  -0.54436  -0.53476  -0.50929  -0.50920
 Alpha  occ. eigenvalues --   -0.50745  -0.45894  -0.45847  -0.45562  -0.42862
 Alpha  occ. eigenvalues --   -0.42774  -0.41820  -0.33784  -0.33219  -0.33085
 Alpha  occ. eigenvalues --   -0.32591
 Alpha virt. eigenvalues --    0.03852   0.04002   0.04555   0.04648   0.05038
 Alpha virt. eigenvalues --    0.05510   0.05673   0.05985   0.06502   0.06895
 Alpha virt. eigenvalues --    0.07381   0.07492   0.09111   0.09174   0.12617
 Alpha virt. eigenvalues --    0.12650   0.13352   0.13699   0.14504   0.15086
 Alpha virt. eigenvalues --    0.15647   0.15853   0.15856   0.16173   0.17099
 Alpha virt. eigenvalues --    0.17246   0.17357   0.17433   0.17455   0.17487
 Alpha virt. eigenvalues --    0.18720   0.18933   0.18950   0.19223   0.19373
 Alpha virt. eigenvalues --    0.20325   0.20712   0.22003   0.22122   0.22201
 Alpha virt. eigenvalues --    0.22649   0.22900   0.23266   0.24352   0.25072
 Alpha virt. eigenvalues --    0.25150   0.26062   0.26163   0.27190   0.27260
 Alpha virt. eigenvalues --    0.27266   0.27938   0.30133   0.30390   0.30879
 Alpha virt. eigenvalues --    0.31057   0.31497   0.31886   0.31979   0.32972
 Alpha virt. eigenvalues --    0.33562   0.34010   0.34113   0.34391   0.35329
 Alpha virt. eigenvalues --    0.35529   0.35642   0.35779   0.37519   0.37646
 Alpha virt. eigenvalues --    0.37693   0.37860   0.39298   0.40784   0.43006
 Alpha virt. eigenvalues --    0.43051   0.44340   0.45011   0.45534   0.47950
 Alpha virt. eigenvalues --    0.48339   0.56158   0.58826   0.60511   0.60739
 Alpha virt. eigenvalues --    0.60802   0.61427   0.61745   0.62996   0.63081
 Alpha virt. eigenvalues --    0.63553   0.63603   0.63669   0.65855   0.65946
 Alpha virt. eigenvalues --    0.65957   0.66409   0.67680   0.69536   0.70198
 Alpha virt. eigenvalues --    0.72797   0.73084   0.74687   0.74700   0.75059
 Alpha virt. eigenvalues --    0.75442   0.77626   0.78966   0.81025   0.81157
 Alpha virt. eigenvalues --    0.81311   0.81695   0.82031   0.82062   0.83105
 Alpha virt. eigenvalues --    0.85023   0.86181   0.86230   0.88953   0.89780
 Alpha virt. eigenvalues --    0.90857   0.92162   0.93332   0.93705   0.93761
 Alpha virt. eigenvalues --    0.95538   0.96413   0.96503   0.97059   0.97649
 Alpha virt. eigenvalues --    0.98078   1.01370   1.01468   1.03663   1.04086
 Alpha virt. eigenvalues --    1.06178   1.09635   1.09789   1.10302   1.10383
 Alpha virt. eigenvalues --    1.10917   1.14203   1.14324   1.14567   1.16099
 Alpha virt. eigenvalues --    1.16760   1.20424   1.24555   1.26205   1.28016
 Alpha virt. eigenvalues --    1.28783   1.37507   1.40143   1.41743   1.45715
 Alpha virt. eigenvalues --    1.46837   1.58143   1.58617   1.58811   1.59669
 Alpha virt. eigenvalues --    1.60402   1.60859   1.63699   1.64639   1.64971
 Alpha virt. eigenvalues --    1.65528   1.65693   1.66423   1.72435   1.72858
 Alpha virt. eigenvalues --    1.72946   1.73493   1.73755   1.74100   1.74181
 Alpha virt. eigenvalues --    1.82530   1.82794   1.85173   1.85659   1.85823
 Alpha virt. eigenvalues --    1.86400   1.86733   1.87520   1.92092   1.92235
 Alpha virt. eigenvalues --    1.93191   1.94453   1.98822   1.99015   1.99396
 Alpha virt. eigenvalues --    2.03558   2.04076   2.04296   2.04419   2.04642
 Alpha virt. eigenvalues --    2.05823   2.09318   2.10394   2.12520   2.12632
 Alpha virt. eigenvalues --    2.13522   2.16112   2.16679   2.18297   2.19078
 Alpha virt. eigenvalues --    2.19894   2.30743   2.34919   2.34967   2.38406
 Alpha virt. eigenvalues --    2.48064   2.51272   2.51912   2.52161   2.52992
 Alpha virt. eigenvalues --    2.54949   2.55412   2.56002   2.57651   2.67513
 Alpha virt. eigenvalues --    2.70397   2.71070   2.72843   2.73619   2.75492
 Alpha virt. eigenvalues --    2.78977   2.79367   2.80426   2.81186   2.81385
 Alpha virt. eigenvalues --    2.82808   2.83120   2.83215   2.84099   2.85410
 Alpha virt. eigenvalues --    2.85911   2.88160   2.90942   2.91352   2.92139
 Alpha virt. eigenvalues --    2.92269   2.97590   2.98054   2.98714   2.98999
 Alpha virt. eigenvalues --    3.02195   3.03900   3.04044   3.05040   3.14020
 Alpha virt. eigenvalues --    3.14178   3.22373   3.22531   3.26256   3.26950
 Alpha virt. eigenvalues --    3.39725   3.43737   3.44355   3.48931   3.48962
 Alpha virt. eigenvalues --    3.58968   3.59282   3.64330   3.64688   3.69696
 Alpha virt. eigenvalues --    3.73453   3.75878   3.94916   4.09208   4.09246
 Alpha virt. eigenvalues --    4.13399   4.14845   4.25025   4.25088   4.25274
 Alpha virt. eigenvalues --    4.26086   4.48379   4.94014   4.94291  23.71237
 Alpha virt. eigenvalues --   23.85548  24.06831  24.08976  24.09000  24.11432
 Alpha virt. eigenvalues --   24.17423  24.22193  24.22235  24.23763  24.30898
 Alpha virt. eigenvalues --   24.32614
          Condensed to atoms (all electrons):
               1          2          3          4          5          6
     1  C   18.610635   1.374472   1.373542  -1.709075   0.113036  -7.023881
     2  C    1.374472  11.654829  -2.235392  -0.121474   0.368755  -3.637029
     3  C    1.373542  -2.235392  11.656465  -1.085160   0.080107  -3.636806
     4  C   -1.709075  -0.121474  -1.085160   6.631503  -0.107344   1.380649
     5  H    0.113036   0.368755   0.080107  -0.107344   0.467093  -0.077118
     6  C   -7.023881  -3.637029  -3.636806   1.380649  -0.077118  18.610928
     7  C   -1.710482  -1.085338  -0.124114   0.237510  -0.014812   1.383262
     8  H    0.113094   0.080111   0.368861  -0.014798   0.000073  -0.077252
     9  C   -0.101327   0.587506   0.588080   0.115928   0.018302  -1.359594
    10  H    0.029438  -0.103052  -0.025129   0.437615  -0.011969   0.043806
    11  C   -3.636177  -0.406918  -0.264802   0.271500  -0.026967   1.373854
    12  C   -3.636771  -0.265290  -0.406208   0.262039  -0.044236   1.374289
    13  H    0.029432  -0.025119  -0.103105   0.016902  -0.000114   0.043822
    14  H    0.031753   0.021969   0.021958  -0.052567   0.000836  -0.036171
    15  C    1.380240   0.271834   0.261524  -0.028318   0.015300  -1.708744
    16  H   -0.077088  -0.026971  -0.044210   0.015310   0.000323   0.112970
    17  C    1.383033   0.262607   0.271831  -0.044728   0.015954  -1.710761
    18  H   -0.077235  -0.044290  -0.026989   0.015937  -0.000777   0.113150
    19  C   -1.359393  -0.151568  -0.150912   0.041125  -0.014697  -0.101250
    20  H    0.043794   0.003746   0.004917  -0.000556   0.000307   0.029446
    21  H    0.043820   0.004960   0.003709  -0.000693   0.000397   0.029415
    22  H   -0.036166  -0.004699  -0.004669   0.001070  -0.000484   0.031757
               7          8          9         10         11         12
     1  C   -1.710482   0.113094  -0.101327   0.029438  -3.636177  -3.636771
     2  C   -1.085338   0.080111   0.587506  -0.103052  -0.406918  -0.265290
     3  C   -0.124114   0.368861   0.588080  -0.025129  -0.264802  -0.406208
     4  C    0.237510  -0.014798   0.115928   0.437615   0.271500   0.262039
     5  H   -0.014812   0.000073   0.018302  -0.011969  -0.026967  -0.044236
     6  C    1.383262  -0.077252  -1.359594   0.043806   1.373854   1.374289
     7  C    6.633200  -0.107384   0.115379   0.016905   0.262341   0.271973
     8  H   -0.107384   0.467090   0.018317  -0.000114  -0.044315  -0.026946
     9  C    0.115379   0.018317   6.387337  -0.081609  -0.151285  -0.151211
    10  H    0.016905  -0.000114  -0.081609   0.480318   0.003727   0.004939
    11  C    0.262341  -0.044315  -0.151285   0.003727  11.653837  -2.235622
    12  C    0.271973  -0.026946  -0.151211   0.004939  -2.235622  11.656224
    13  H    0.437648  -0.011971  -0.081609   0.000266   0.004952   0.003717
    14  H   -0.052577   0.000836   0.411021  -0.008564  -0.004685  -0.004683
    15  C   -0.044821   0.015923   0.041176  -0.000561  -0.120835  -1.084948
    16  H    0.015953  -0.000776  -0.014701   0.000307   0.368724   0.080087
    17  C   -0.028638   0.015368   0.041299  -0.000698  -1.085018  -0.124162
    18  H    0.015348   0.000320  -0.014707   0.000397   0.080117   0.368851
    19  C    0.041357  -0.014711  -0.027988   0.000180   0.587285   0.587835
    20  H   -0.000701   0.000397   0.000180   0.000047  -0.103042  -0.025113
    21  H   -0.000568   0.000308   0.000180   0.000034  -0.025122  -0.103087
    22  H    0.001077  -0.000485  -0.000601   0.000002   0.021949   0.021965
              13         14         15         16         17         18
     1  C    0.029432   0.031753   1.380240  -0.077088   1.383033  -0.077235
     2  C   -0.025119   0.021969   0.271834  -0.026971   0.262607  -0.044290
     3  C   -0.103105   0.021958   0.261524  -0.044210   0.271831  -0.026989
     4  C    0.016902  -0.052567  -0.028318   0.015310  -0.044728   0.015937
     5  H   -0.000114   0.000836   0.015300   0.000323   0.015954  -0.000777
     6  C    0.043822  -0.036171  -1.708744   0.112970  -1.710761   0.113150
     7  C    0.437648  -0.052577  -0.044821   0.015953  -0.028638   0.015348
     8  H   -0.011971   0.000836   0.015923  -0.000776   0.015368   0.000320
     9  C   -0.081609   0.411021   0.041176  -0.014701   0.041299  -0.014707
    10  H    0.000266  -0.008564  -0.000561   0.000307  -0.000698   0.000397
    11  C    0.004952  -0.004685  -0.120835   0.368724  -1.085018   0.080117
    12  C    0.003717  -0.004683  -1.084948   0.080087  -0.124162   0.368851
    13  H    0.480320  -0.008563  -0.000693   0.000397  -0.000566   0.000307
    14  H   -0.008563   0.471544   0.001072  -0.000484   0.001075  -0.000485
    15  C   -0.000693   0.001072   6.630940  -0.107282   0.237349  -0.014797
    16  H    0.000397  -0.000484  -0.107282   0.467085  -0.014802   0.000072
    17  C   -0.000566   0.001075   0.237349  -0.014802   6.633261  -0.107423
    18  H    0.000307  -0.000485  -0.014797   0.000072  -0.107423   0.467093
    19  C    0.000180  -0.000601   0.116195   0.018286   0.115454   0.018317
    20  H    0.000034   0.000002   0.437593  -0.011967   0.016896  -0.000114
    21  H    0.000047   0.000003   0.016901  -0.000113   0.437648  -0.011971
    22  H    0.000003  -0.000009  -0.052557   0.000835  -0.052582   0.000836
              19         20         21         22
     1  C   -1.359393   0.043794   0.043820  -0.036166
     2  C   -0.151568   0.003746   0.004960  -0.004699
     3  C   -0.150912   0.004917   0.003709  -0.004669
     4  C    0.041125  -0.000556  -0.000693   0.001070
     5  H   -0.014697   0.000307   0.000397  -0.000484
     6  C   -0.101250   0.029446   0.029415   0.031757
     7  C    0.041357  -0.000701  -0.000568   0.001077
     8  H   -0.014711   0.000397   0.000308  -0.000485
     9  C   -0.027988   0.000180   0.000180  -0.000601
    10  H    0.000180   0.000047   0.000034   0.000002
    11  C    0.587285  -0.103042  -0.025122   0.021949
    12  C    0.587835  -0.025113  -0.103087   0.021965
    13  H    0.000180   0.000034   0.000047   0.000003
    14  H   -0.000601   0.000002   0.000003  -0.000009
    15  C    0.116195   0.437593   0.016901  -0.052557
    16  H    0.018286  -0.011967  -0.000113   0.000835
    17  C    0.115454   0.016896   0.437648  -0.052582
    18  H    0.018317  -0.000114  -0.011971   0.000836
    19  C    6.387164  -0.081598  -0.081605   0.411020
    20  H   -0.081598   0.480318   0.000266  -0.008564
    21  H   -0.081605   0.000266   0.480319  -0.008563
    22  H    0.411020  -0.008564  -0.008563   0.471546
 Mulliken charges:
               1
     1  C    0.841305
     2  C   -0.523650
     3  C   -0.523499
     4  C   -0.262376
     5  H    0.218034
     6  C    0.841257
     7  C   -0.262519
     8  H    0.218052
     9  C   -0.340074
    10  H    0.213714
    11  C   -0.523499
    12  C   -0.523645
    13  H    0.213712
    14  H    0.207320
    15  C   -0.262492
    16  H    0.218044
    17  C   -0.262396
    18  H    0.218041
    19  C   -0.340075
    20  H    0.213711
    21  H    0.213716
    22  H    0.207319
 Sum of Mulliken charges =  -0.00000
 Mulliken charges with hydrogens summed into heavy atoms:
               1
     1  C    0.841305
     2  C   -0.305615
     3  C   -0.305447
     4  C   -0.048662
     6  C    0.841257
     7  C   -0.048807
     9  C   -0.132754
    11  C   -0.305455
    12  C   -0.305604
    15  C   -0.048781
    17  C   -0.048681
    19  C   -0.132756
 Electronic spatial extent (au):  <R**2>=           2312.0179
 Charge=             -0.0000 electrons
 Dipole moment (field-independent basis, Debye):
    X=              0.0000    Y=             -0.0002    Z=              0.0003  Tot=              0.0004
 Quadrupole moment (field-independent basis, Debye-Ang):
   XX=            -61.8040   YY=            -69.0181   ZZ=            -69.9329
   XY=             -0.0005   XZ=              0.0014   YZ=              0.0000
 Traceless Quadrupole moment (field-independent basis, Debye-Ang):
   XX=              5.1143   YY=             -2.0998   ZZ=             -3.0146
   XY=             -0.0005   XZ=              0.0014   YZ=              0.0000
 Octapole moment (field-independent basis, Debye-Ang**2):
  XXX=             -0.0001  YYY=              0.0007  ZZZ=              0.0038  XYY=             -0.0007
  XXY=             -0.0061  XXZ=              0.0006  XZZ=              0.0007  YZZ=             -0.0005
  YYZ=             -0.0009  XYZ=             19.0802
 Hexadecapole moment (field-independent basis, Debye-Ang**3):
 XXXX=          -2302.9324 YYYY=           -368.9209 ZZZZ=           -328.7732 XXXY=             -0.0012
 XXXZ=              0.0257 YYYX=             -0.0087 YYYZ=             -0.0002 ZZZX=              0.0023
 ZZZY=              0.0004 XXYY=           -487.5163 XXZZ=           -488.8828 YYZZ=            -93.0167
 XXYZ=              0.0001 YYXZ=              0.0007 ZZXY=              0.0025
 N-N= 5.978456960606D+02 E-N=-2.270026888984D+03  KE= 4.610097416546D+02
 No NMR shielding tensors so no spin-rotation constants.
 Leave Link  601 at Sat Nov  5 21:37:07 2022, MaxMem= 16106127360 cpu:               4.2 elap:               0.2
 (Enter /opt/ap/G16/B01/g16/l9999.exe)
 1\1\GINC-N08\SP\RwB97XD\6-311++G(d,p)\C12H10\ROOT\05-Nov-2022\0\\#P wB
 97XD/6-311++G(d,p) scf=maxcycle=512\\_conf035.gjf nmol_natom 1_22\\0,1
 \C\C,1,1.40491871\C,1,1.40495292,2,118.20503621\C,2,1.3939373,1,120.91
 08946,3,0.05365643,0\H,2,1.08593095,1,119.3452094,3,-178.3624307,0\C,1
 ,1.48449301,2,120.90144423,4,-179.96388019,0\C,3,1.39389842,1,120.9105
 0598,2,0.03587687,0\H,3,1.08593608,1,119.34159615,2,-178.38281524,0\C,
 4,1.39606958,2,120.24555868,1,-0.09283196,0\H,4,1.08627898,2,119.66792
 041,1,-179.51486187,0\C,6,1.40492034,1,120.90156908,2,85.,0\C,6,1.4049
 5329,1,120.89324856,2,-95.,0\H,7,1.08627928,3,119.67027175,1,-179.5125
 8183,0\H,9,1.08597601,4,120.2602535,2,-179.95233103,0\C,11,1.39393437,
 6,120.91099656,1,-179.95869964,0\H,11,1.08593173,6,119.34475907,1,1.61
 891886,0\C,12,1.39390147,6,120.91022615,1,-179.94297913,0\H,12,1.08593
 608,6,119.34175044,1,1.63241608,0\C,15,1.39607161,11,120.24535737,6,-0
 .10315482,0\H,15,1.08627786,11,119.66861247,6,-179.51844254,0\H,17,1.0
 8627825,12,119.6702798,6,-179.51590091,0\H,19,1.08597601,15,120.259885
 97,11,-179.94731581,0\\Version=ES64L-G16RevB.01\State=1-A\HF=-463.2476
 895\RMSD=4.755e-09\Dipole=-0.0000033,-0.0001387,0.0000076\Quadrupole=2
 .3055056,-1.930903,-0.3746026,-0.1738249,2.5004839,0.2907804\PG=C01 [X
 (C12H10)]\\@


 "THE ACADEMIC HIERARCHY"


 THE PRESIDENT:
   LEAPS TALL BUILDINGS IN A SINGLE BOUND,
     IS MORE POWERFUL THAN A LOCOMOTIVE,
       IS FASTER THAN A SPEEDING BULLET,
         WALKS ON WATER,
           GIVES POLICY TO GOD.

 THE VICE PRESIDENT FOR ACADEMIC AFFAIRS:
   LEAPS SHORT BUILDINGS IN A SINGLE BOUND,
     IS MORE POWERFUL THAN A SWITCH ENGINE,
       IS JUST AS FAST AS A SPEEDING BULLET,
         WALKS ON WATER IF SEA IS CALM,
           TALKS WITH GOD.

 PROFESSOR:
   LEAPS SHORT BUILDINGS WITH A RUNNING START AND FAVORABLE WINDS,
     IS ALMOST AS POWERFUL AS A SWITCH ENGINE,
       CAN FIRE A SPEEDING BULLET,
         WALKS ON WATER IN AN INDOOR SWIMMING POOL,
          TALKS WITH GOD IF SPECIAL REQUEST IS APPROVED.

 ASSOCIATE PROFESSOR:
   BARELY CLEARS A QUONSET HUT,
     LOSES TUG OF WAR WITH LOCOMOTIVE,
       MISFIRES FREQUENTLY,
         SWIMS WELL,
           IS OCCASIONALLY ADDRESSED BY GOD.

 ASSISTANT PROFESSOR:
   MAKES HIGH MARKS ON WALLS WHEN TRYING TO LEAP TALL BUILDINGS,
     IS RUN OVER BY LOCOMOTIVES,
       CAN SOMETIMES HANDLE A GUN WITHOUT INFLICTING SELF INJURY,
         DOG PADDLES,
           TALKS TO ANIMALS.

 GRADUATE STUDENT:
   RUNS INTO BUILDINGS,
     RECOGNIZES LOCOMOTIVES TWO OUT OF THREE TIMES,
       IS NOT ISSUED AMMUNITION,
         CAN STAY AFLOAT WITH A LIFE JACKET,
           TALKS TO WALLS.

 UNDERGRADUATE AND WORK STUDY STUDENT:
   FALLS OVER DOORSTEP WHEN TRYING TO ENTER BUILDINGS,
     SAYS, "LOOK AT THE CHOO-CHOO,"
       WETS HIMSELF WITH A WATER PISTOL,
        PLAYS IN MUD PUDDLES,
          MUMBLES TO HIMSELF.

 DEPARTMENT SECRETARY:
   LIFTS TALL BUILDINGS AND WALKS UNDER THEM,
     KICKS LOCOMOTIVES OFF THE TRACKS,
       CATCHES SPEEDING BULLETS IN HER TEETH AND EATS THEM,
         FREEZES WATER WITH A SINGLE GLANCE,
           IS GOD.
 Job cpu time:       0 days  0 hours 13 minutes 21.2 seconds.
 Elapsed time:       0 days  0 hours  0 minutes 25.2 seconds.
 File lengths (MBytes):  RWF=     62 Int=      0 D2E=      0 Chk=      8 Scr=      1
 Normal termination of Gaussian 16 at Sat Nov  5 21:37:07 2022.
