 Entering Gaussian System, Link 0=g16
 Input=_conf034.gjf
 Output=_conf034.log
 Initial command:
 /opt/ap/G16/B01/g16/l1.exe "/tmp2/scr/Gau-3830.inp" -scrdir="/tmp2/scr/"
 Entering Link 1 = /opt/ap/G16/B01/g16/l1.exe PID=      3831.
  
 Copyright (c) 1988-2017, Gaussian, Inc.  All Rights Reserved.
  
 This is part of the Gaussian(R) 16 program.  It is based on
 the Gaussian(R) 09 system (copyright 2009, Gaussian, Inc.),
 the Gaussian(R) 03 system (copyright 2003, Gaussian, Inc.),
 the Gaussian(R) 98 system (copyright 1998, Gaussian, Inc.),
 the Gaussian(R) 94 system (copyright 1995, Gaussian, Inc.),
 the Gaussian 92(TM) system (copyright 1992, Gaussian, Inc.),
 the Gaussian 90(TM) system (copyright 1990, Gaussian, Inc.),
 the Gaussian 88(TM) system (copyright 1988, Gaussian, Inc.),
 the Gaussian 86(TM) system (copyright 1986, Carnegie Mellon
 University), and the Gaussian 82(TM) system (copyright 1983,
 Carnegie Mellon University). Gaussian is a federally registered
 trademark of Gaussian, Inc.
  
 This software contains proprietary and confidential information,
 including trade secrets, belonging to Gaussian, Inc.
  
 This software is provided under written license and may be
 used, copied, transmitted, or stored only in accord with that
 written license.
  
 The following legend is applicable only to US Government
 contracts under FAR:
  
                    RESTRICTED RIGHTS LEGEND
  
 Use, reproduction and disclosure by the US Government is
 subject to restrictions as set forth in subparagraphs (a)
 and (c) of the Commercial Computer Software - Restricted
 Rights clause in FAR 52.227-19.
  
 Gaussian, Inc.
 340 Quinnipiac St., Bldg. 40, Wallingford CT 06492
  
  
 ---------------------------------------------------------------
 Warning -- This program may not be used in any manner that
 competes with the business of Gaussian, Inc. or will provide
 assistance to any competitor of Gaussian, Inc.  The licensee
 of this program is prohibited from giving any competitor of
 Gaussian, Inc. access to this program.  By using this program,
 the user acknowledges that Gaussian, Inc. is engaged in the
 business of creating and licensing software in the field of
 computational chemistry and represents and warrants to the
 licensee that it is not a competitor of Gaussian, Inc. and that
 it will not use this program in any manner prohibited above.
 ---------------------------------------------------------------
  

 Cite this work as:
 Gaussian 16, Revision B.01,
 M. J. Frisch, G. W. Trucks, H. B. Schlegel, G. E. Scuseria, 
 M. A. Robb, J. R. Cheeseman, G. Scalmani, V. Barone, 
 G. A. Petersson, H. Nakatsuji, X. Li, M. Caricato, A. V. Marenich, 
 J. Bloino, B. G. Janesko, R. Gomperts, B. Mennucci, H. P. Hratchian, 
 J. V. Ortiz, A. F. Izmaylov, J. L. Sonnenberg, D. Williams-Young, 
 F. Ding, F. Lipparini, F. Egidi, J. Goings, B. Peng, A. Petrone, 
 T. Henderson, D. Ranasinghe, V. G. Zakrzewski, J. Gao, N. Rega, 
 G. Zheng, W. Liang, M. Hada, M. Ehara, K. Toyota, R. Fukuda, 
 J. Hasegawa, M. Ishida, T. Nakajima, Y. Honda, O. Kitao, H. Nakai, 
 T. Vreven, K. Throssell, J. A. Montgomery, Jr., J. E. Peralta, 
 F. Ogliaro, M. J. Bearpark, J. J. Heyd, E. N. Brothers, K. N. Kudin, 
 V. N. Staroverov, T. A. Keith, R. Kobayashi, J. Normand, 
 K. Raghavachari, A. P. Rendell, J. C. Burant, S. S. Iyengar, 
 J. Tomasi, M. Cossi, J. M. Millam, M. Klene, C. Adamo, R. Cammi, 
 J. W. Ochterski, R. L. Martin, K. Morokuma, O. Farkas, 
 J. B. Foresman, and D. J. Fox, Gaussian, Inc., Wallingford CT, 2016.
 
 ******************************************
 Gaussian 16:  ES64L-G16RevB.01 20-Dec-2017
                 5-Nov-2022 
 ******************************************
 %nprocshared=32
 Will use up to   32 processors via shared memory.
 %mem=120GB
 %chk=_conf034.chk
 ----------------------------------------
 #P wB97XD/6-311++G(d,p) scf=maxcycle=512
 ----------------------------------------
 1/38=1,172=1/1;
 2/12=2,17=6,18=5,40=1/2;
 3/5=4,6=6,7=1111,11=2,25=1,30=1,74=-58/1,2,3;
 4//1;
 5/5=2,7=512,38=5/2;
 6/7=2,8=2,9=2,10=2,28=1/1;
 99/5=1,9=1/99;
 Leave Link    1 at Sat Nov  5 21:36:48 2022, MaxMem= 16106127360 cpu:               1.4 elap:               0.1
 (Enter /opt/ap/G16/B01/g16/l101.exe)
 ----------------------------
 _conf034.gjf nmol_natom 1_22
 ----------------------------
 Symbolic Z-matrix:
 Charge =  0 Multiplicity = 1
 C
 C                    1     1.40492 
 C                    1     1.40495  2     118.20504 
 C                    2     1.39394  1     120.91089  3     0.05366  0
 H                    2     1.08593  1     119.34521  3    -178.36243  0
 C                    1     1.48449  2     120.90144  4    -179.96388  0
 C                    3     1.3939   1     120.91051  2     0.03588  0
 H                    3     1.08594  1     119.3416  2    -178.38282  0
 C                    4     1.39607  2     120.24556  1    -0.09283  0
 H                    4     1.08628  2     119.66792  1    -179.51486  0
 C                    6     1.40492  1     120.90157  2     80.      0
 C                    6     1.40495  1     120.89325  2    -100.     0
 H                    7     1.08628  3     119.67027  1    -179.51258  0
 H                    9     1.08598  4     120.26025  2    -179.95233  0
 C                    11    1.39393  6     120.911  1    -179.9587  0
 H                    11    1.08593  6     119.34476  1     1.61892  0
 C                    12    1.3939   6     120.91023  1    -179.94298  0
 H                    12    1.08594  6     119.34175  1     1.63242  0
 C                    15    1.39607  11    120.24536  6    -0.10315  0
 H                    15    1.08628  11    119.66861  6    -179.51844  0
 H                    17    1.08628  12    119.67028  6    -179.5159  0
 H                    19    1.08598  15    120.25989  11   -179.94732  0
 
 ITRead=  0  0  0  0  0  0  0  0  0  0  0  0  0  0  0  0  0  0  0  0
 ITRead=  0  0
 MicOpt= -1 -1 -1 -1 -1 -1 -1 -1 -1 -1 -1 -1 -1 -1 -1 -1 -1 -1 -1 -1
 MicOpt= -1 -1
 NAtoms=     22 NQM=       22 NQMF=       0 NMMI=      0 NMMIF=      0
                NMic=       0 NMicF=      0.
                    Isotopes and Nuclear Properties:
 (Nuclear quadrupole moments (NQMom) in fm**2, nuclear magnetic moments (NMagM)
  in nuclear magnetons)

  Atom         1           2           3           4           5           6           7           8           9          10
 IAtWgt=          12          12          12          12           1          12          12           1          12           1
 AtmWgt=  12.0000000  12.0000000  12.0000000  12.0000000   1.0078250  12.0000000  12.0000000   1.0078250  12.0000000   1.0078250
 NucSpn=           0           0           0           0           1           0           0           1           0           1
 AtZEff=  -0.0000000  -0.0000000  -0.0000000  -0.0000000  -0.0000000  -0.0000000  -0.0000000  -0.0000000  -0.0000000  -0.0000000
 NQMom=    0.0000000   0.0000000   0.0000000   0.0000000   0.0000000   0.0000000   0.0000000   0.0000000   0.0000000   0.0000000
 NMagM=    0.0000000   0.0000000   0.0000000   0.0000000   2.7928460   0.0000000   0.0000000   2.7928460   0.0000000   2.7928460
 AtZNuc=   6.0000000   6.0000000   6.0000000   6.0000000   1.0000000   6.0000000   6.0000000   1.0000000   6.0000000   1.0000000

  Atom        11          12          13          14          15          16          17          18          19          20
 IAtWgt=          12          12           1           1          12           1          12           1          12           1
 AtmWgt=  12.0000000  12.0000000   1.0078250   1.0078250  12.0000000   1.0078250  12.0000000   1.0078250  12.0000000   1.0078250
 NucSpn=           0           0           1           1           0           1           0           1           0           1
 AtZEff=  -0.0000000  -0.0000000  -0.0000000  -0.0000000  -0.0000000  -0.0000000  -0.0000000  -0.0000000  -0.0000000  -0.0000000
 NQMom=    0.0000000   0.0000000   0.0000000   0.0000000   0.0000000   0.0000000   0.0000000   0.0000000   0.0000000   0.0000000
 NMagM=    0.0000000   0.0000000   2.7928460   2.7928460   0.0000000   2.7928460   0.0000000   2.7928460   0.0000000   2.7928460
 AtZNuc=   6.0000000   6.0000000   1.0000000   1.0000000   6.0000000   1.0000000   6.0000000   1.0000000   6.0000000   1.0000000

  Atom        21          22
 IAtWgt=           1           1
 AtmWgt=   1.0078250   1.0078250
 NucSpn=           1           1
 AtZEff=  -0.0000000  -0.0000000
 NQMom=    0.0000000   0.0000000
 NMagM=    2.7928460   2.7928460
 AtZNuc=   1.0000000   1.0000000
 Leave Link  101 at Sat Nov  5 21:36:48 2022, MaxMem= 16106127360 cpu:               5.2 elap:               0.2
 (Enter /opt/ap/G16/B01/g16/l202.exe)
                          Input orientation:                          
 ---------------------------------------------------------------------
 Center     Atomic      Atomic             Coordinates (Angstroms)
 Number     Number       Type             X           Y           Z
 ---------------------------------------------------------------------
      1          6           0        0.000000    0.000000    0.000000
      2          6           0        0.000000    0.000000    1.404919
      3          6           0        1.238131    0.000000   -0.664020
      4          6           0        1.195952    0.001120    2.120990
      5          1           0       -0.946201   -0.027051    1.937101
      6          6           0       -1.273772   -0.000390   -0.762381
      7          6           0        2.434381   -0.000749    0.051479
      8          1           0        1.259850    0.026715   -1.749411
      9          6           0        2.418826    0.000311    1.447501
     10          1           0        1.172413   -0.006894    3.206985
     11          6           0       -2.000740    1.186567   -0.953308
     12          6           0       -1.784856   -1.187856   -1.312481
     13          1           0        3.380326    0.007295   -0.482493
     14          1           0        3.350700    0.000403    2.005133
     15          6           0       -3.197264    1.186277   -1.668418
     16          1           0       -1.609417    2.119586   -0.558861
     17          6           0       -2.980256   -1.188423   -2.029404
     18          1           0       -1.251862   -2.120528   -1.153426
     19          6           0       -3.692265   -0.001246   -2.210432
     20          1           0       -3.738943    2.117073   -1.810552
     21          1           0       -3.360988   -2.119563   -2.439309
     22          1           0       -4.623983   -0.001592   -2.768324
 ---------------------------------------------------------------------
                    Distance matrix (angstroms):
                    1          2          3          4          5
     1  C    0.000000
     2  C    1.404919   0.000000
     3  C    1.404953   2.411116   0.000000
     4  C    2.434934   1.393937   2.785330   0.000000
     5  H    2.156012   1.085931   3.396745   2.150216   0.000000
     6  C    1.484493   2.513898   2.513829   3.796494   2.719415
     7  C    2.434925   2.785320   1.393898   2.411760   3.870994
     8  H    2.156008   3.396723   1.085936   3.871013   4.296501
     9  C    2.818861   2.419201   2.419207   1.396070   3.400568
    10  H    3.414579   2.149893   3.871569   1.086279   2.470128
    11  C    2.513901   3.312421   3.461490   4.590799   3.307474
    12  C    2.513826   3.461354   3.312092   4.699745   3.551140
    13  H    3.414594   3.871560   2.149884   3.398478   4.957262
    14  H    3.904837   3.404035   3.404016   2.157861   4.297527
    15  C    3.796494   4.590768   4.699873   5.921534   4.420319
    16  H    2.719411   3.307462   3.551371   4.420362   3.358234
    17  C    3.796414   4.699878   4.590361   6.006788   4.606445
    18  H    2.719225   3.550904   3.306996   4.605972   3.745321
    19  C    4.303351   5.167551   5.167223   6.531148   4.974290
    20  H    4.662595   5.366651   5.528815   6.654883   5.142137
    21  H    4.662511   5.528731   5.366199   6.786702   5.418742
    22  H    5.389327   6.228739   6.228362   7.601122   5.972250
                    6          7          8          9         10
     6  C    0.000000
     7  C    3.796415   0.000000
     8  H    2.719228   2.150228   0.000000
     9  C    4.303354   1.396108   3.400612   0.000000
    10  H    4.662588   3.398502   4.957280   2.156243   0.000000
    11  C    1.404920   4.699959   3.551124   5.167557   5.366683
    12  C    1.404953   4.590378   3.307011   5.167222   5.528624
    13  H    4.662512   1.086279   2.470197   2.156248   4.299689
    14  H    5.389330   2.157871   4.297551   1.085976   2.487858
    15  C    2.434934   6.006871   4.606192   6.531151   6.654869
    16  H    2.156010   4.606586   3.745692   4.974290   5.142188
    17  C    2.434925   5.921059   4.419667   6.530853   6.786784
    18  H    2.156010   4.419688   3.357759   4.973603   5.418278
    19  C    2.818858   6.530852   4.973606   7.122212   7.281039
    20  H    3.414583   6.786918   5.418603   7.281051   7.335416
    21  H    3.414594   6.654299   5.141460   7.280618   7.542925
    22  H    3.904834   7.600776   5.971472   8.208188   8.324816
                   11         12         13         14         15
    11  C    0.000000
    12  C    2.411119   0.000000
    13  H    5.528853   5.366224   0.000000
    14  H    6.228745   6.228359   2.487812   0.000000
    15  C    1.393934   2.785336   6.786833   7.601126   0.000000
    16  H    1.085932   3.396748   5.418961   5.972250   2.150219
    17  C    2.785320   1.393901   6.654297   7.600777   2.411763
    18  H    3.396725   1.085936   5.141492   5.971467   3.871016
    19  C    2.419198   2.419208   7.280617   8.208188   1.396072
    20  H    2.149897   3.871575   7.543135   8.324829   1.086278
    21  H    3.871558   2.149886   7.334709   8.324306   3.398478
    22  H    3.404029   3.404019   8.324306   9.294164   2.157859
                   16         17         18         19         20
    16  H    0.000000
    17  C    3.870997   0.000000
    18  H    4.296501   2.150234   0.000000
    19  C    3.400569   1.396107   3.400615   0.000000
    20  H    2.470145   3.398500   4.957282   2.156238   0.000000
    21  H    4.957264   1.086278   2.470204   2.156245   4.299683
    22  H    4.297527   2.157871   4.297556   1.085976   2.487844
                   21         22
    21  H    0.000000
    22  H    2.487812   0.000000
 Stoichiometry    C12H10
 Framework group  C1[X(C12H10)]
 Deg. of freedom    60
 Full point group                 C1      NOp   1
 Largest Abelian subgroup         C1      NOp   1
 Largest concise Abelian subgroup C1      NOp   1
                         Standard orientation:                         
 ---------------------------------------------------------------------
 Center     Atomic      Atomic             Coordinates (Angstroms)
 Number     Number       Type             X           Y           Z
 ---------------------------------------------------------------------
      1          6           0        0.742246    0.000228   -0.000101
      2          6           0        1.463787    0.923657    0.774789
      3          6           0        1.463584   -0.923514   -0.774868
      4          6           0        2.857724    0.924345    0.774279
      5          1           0        0.925222    1.628463    1.401241
      6          6           0       -0.742247    0.000199   -0.000015
      7          6           0        2.857482   -0.924520   -0.774360
      8          1           0        0.924788   -1.628300   -1.401153
      9          6           0        3.561107   -0.000137   -0.000057
     10          1           0        3.395272    1.642264    1.387171
     11          6           0       -1.463828    0.923693   -0.774793
     12          6           0       -1.463543   -0.923425    0.774933
     13          1           0        3.394904   -1.642618   -1.387153
     14          1           0        4.647083   -0.000315   -0.000035
     15          6           0       -2.857762    0.924396   -0.774199
     16          1           0       -0.925284    1.628607   -1.401144
     17          6           0       -2.857444   -0.924534    0.774367
     18          1           0       -0.924717   -1.628093    1.401324
     19          6           0       -3.561105   -0.000279   -0.000055
     20          1           0       -3.395350    1.642399   -1.386956
     21          1           0       -3.394838   -1.642568    1.387258
     22          1           0       -4.647081   -0.000497   -0.000077
 ---------------------------------------------------------------------
 Rotational constants (GHZ):           2.8585222           0.5161730           0.5006980
 Leave Link  202 at Sat Nov  5 21:36:48 2022, MaxMem= 16106127360 cpu:               0.3 elap:               0.0
 (Enter /opt/ap/G16/B01/g16/l301.exe)
 Standard basis: 6-311++G(d,p) (5D, 7F)
 Ernie: Thresh=  0.10000D-02 Tol=  0.10000D-05 Strict=F.
 There are   346 symmetry adapted cartesian basis functions of A   symmetry.
 There are   334 symmetry adapted basis functions of A   symmetry.
   334 basis functions,   522 primitive gaussians,   346 cartesian basis functions
    41 alpha electrons       41 beta electrons
       nuclear repulsion energy       597.8939751341 Hartrees.
 IExCor= 4639 DFT=T Ex+Corr=wB97XD ExCW=0 ScaHFX=  1.000000
 ScaDFX=  1.000000  1.000000  1.000000  1.000000 ScalE2=  1.000000  1.000000
 IRadAn=      5 IRanWt=     -1 IRanGd=            0 ICorTp=0 IEmpDi=121
 HFx  wShort=  0.000000 wLong=  0.200000 cFull=  0.222036 cShort=  0.000000 cLong=  0.777964
 DFx  wShort=  0.000000 wLong=  0.200000 cFull=  0.000000 cShort=  0.000000 cLong=  1.000000
 NAtoms=   22 NActive=   22 NUniq=   22 SFac= 1.00D+00 NAtFMM=   60 NAOKFM=F Big=F
 Integral buffers will be    131072 words long.
 Raffenetti 2 integral format.
 Two-electron integral symmetry is turned on.
 R6Disp:  Grimme-D2 Dispersion energy=       -0.0118644227 Hartrees.
 Nuclear repulsion after empirical dispersion term =      597.8821107115 Hartrees.
 Leave Link  301 at Sat Nov  5 21:36:48 2022, MaxMem= 16106127360 cpu:               1.2 elap:               0.0
 (Enter /opt/ap/G16/B01/g16/l302.exe)
 NPDir=0 NMtPBC=     1 NCelOv=     1 NCel=       1 NClECP=     1 NCelD=      1
         NCelK=      1 NCelE2=     1 NClLst=     1 CellRange=     0.0.
 One-electron integrals computed using PRISM.
 One-electron integral symmetry used in STVInt
 NBasis=   334 RedAO= T EigKep=  1.94D-06  NBF=   334
 NBsUse=   332 1.00D-06 EigRej=  8.40D-07 NBFU=   332
 Precomputing XC quadrature grid using
 IXCGrd= 4 IRadAn=           5 IRanWt=          -1 IRanGd=           0 AccXCQ= 0.00D+00.
 Generated NRdTot=       0 NPtTot=           0 NUsed=           0 NTot=          32
 NSgBfM=   346   346   346   346   346 MxSgAt=    22 MxSgA2=    22.
 Leave Link  302 at Sat Nov  5 21:36:48 2022, MaxMem= 16106127360 cpu:               7.7 elap:               0.2
 (Enter /opt/ap/G16/B01/g16/l303.exe)
 DipDrv:  MaxL=1.
 Leave Link  303 at Sat Nov  5 21:36:48 2022, MaxMem= 16106127360 cpu:               1.5 elap:               0.1
 (Enter /opt/ap/G16/B01/g16/l401.exe)
 ExpMin= 3.60D-02 ExpMax= 4.56D+03 ExpMxC= 6.82D+02 IAcc=3 IRadAn=         5 AccDes= 0.00D+00
 Harris functional with IExCor= 4639 and IRadAn=       5 diagonalized for initial guess.
 HarFok:  IExCor= 4639 AccDes= 0.00D+00 IRadAn=         5 IDoV= 1 UseB2=F ITyADJ=14
 ICtDFT=  3500011 ScaDFX=  1.000000  1.000000  1.000000  1.000000
 FoFCou: FMM=F IPFlag=           0 FMFlag=      100000 FMFlg1=           0
         NFxFlg=           0 DoJE=T BraDBF=F KetDBF=T FulRan=T
         wScrn=  0.000000 ICntrl=       500 IOpCl=  0 I1Cent=   200000004 NGrid=           0
         NMat0=    1 NMatS0=      1 NMatT0=    0 NMatD0=    1 NMtDS0=    0 NMtDT0=    0
 Petite list used in FoFCou.
 Harris En= -441.937058655470    
 JPrj=0 DoOrth=F DoCkMO=F.
 Leave Link  401 at Sat Nov  5 21:36:49 2022, MaxMem= 16106127360 cpu:              19.5 elap:               0.6
 (Enter /opt/ap/G16/B01/g16/l502.exe)
 Integral symmetry usage will be decided dynamically.
 Closed shell SCF:
 Using DIIS extrapolation, IDIIS=  1040.
 NGot= 16106127360 LenX= 16105873520 LenY= 16105753363
 Requested convergence on RMS density matrix=1.00D-08 within 512 cycles.
 Requested convergence on MAX density matrix=1.00D-06.
 Requested convergence on             energy=1.00D-06.
 No special actions if energy rises.
 Fock matrices will be formed incrementally for  20 cycles.

 Cycle   1  Pass 1  IDiag  1:
 FoFJK:  IHMeth= 1 ICntrl=       0 DoSepK=T KAlg= 0 I1Cent=           0 FoldK=F
 IRaf=         1 NMat=       1 IRICut=       1 DoRegI=T DoRafI=F ISym2E= 0 IDoP0=0 IntGTp=1.
 FoFCou: FMM=F IPFlag=           0 FMFlag=      100000 FMFlg1=           0
         NFxFlg=           0 DoJE=T BraDBF=F KetDBF=F FulRan=T
         wScrn=  0.000000 ICntrl=       500 IOpCl=  0 I1Cent=           0 NGrid=           0
         NMat0=    1 NMatS0=      1 NMatT0=    0 NMatD0=    1 NMtDS0=    0 NMtDT0=    0
 Symmetry not used in FoFCou.
 E= -463.150933918591    
 DIIS: error= 6.11D-02 at cycle   1 NSaved=   1.
 NSaved= 1 IEnMin= 1 EnMin= -463.150933918591     IErMin= 1 ErrMin= 6.11D-02
 ErrMax= 6.11D-02  0.00D+00 EMaxC= 1.00D-01 BMatC= 9.52D-01 BMatP= 9.52D-01
 IDIUse=3 WtCom= 3.89D-01 WtEn= 6.11D-01
 Coeff-Com:  0.100D+01
 Coeff-En:   0.100D+01
 Coeff:      0.100D+01
 Gap=     0.365 Goal=   None    Shift=    0.000
 GapD=    0.365 DampG=1.000 DampE=0.500 DampFc=0.5000 IDamp=-1.
 Damping current iteration by 5.00D-01
 RMSDP=5.16D-02 MaxDP=3.00D+00              OVMax= 3.88D-02

 Cycle   2  Pass 1  IDiag  1:
 RMSU=  4.63D-03    CP:  7.66D-01
 E= -463.199807887607     Delta-E=       -0.048873969017 Rises=F Damp=T
 DIIS: error= 2.98D-02 at cycle   2 NSaved=   2.
 NSaved= 2 IEnMin= 2 EnMin= -463.199807887607     IErMin= 2 ErrMin= 2.98D-02
 ErrMax= 2.98D-02  0.00D+00 EMaxC= 1.00D-01 BMatC= 2.16D-01 BMatP= 9.52D-01
 IDIUse=3 WtCom= 7.02D-01 WtEn= 2.98D-01
 Coeff-Com: -0.883D+00 0.188D+01
 Coeff-En:   0.000D+00 0.100D+01
 Coeff:     -0.620D+00 0.162D+01
 Gap=     0.365 Goal=   None    Shift=    0.000
 RMSDP=2.39D-02 MaxDP=1.37D+00 DE=-4.89D-02 OVMax= 3.64D-02

 Cycle   3  Pass 1  IDiag  1:
 RMSU=  4.46D-03    CP:  5.51D-01  1.11D+00
 E= -463.243172340978     Delta-E=       -0.043364453370 Rises=F Damp=F
 DIIS: error= 4.92D-03 at cycle   3 NSaved=   3.
 NSaved= 3 IEnMin= 3 EnMin= -463.243172340978     IErMin= 3 ErrMin= 4.92D-03
 ErrMax= 4.92D-03  0.00D+00 EMaxC= 1.00D-01 BMatC= 4.92D-03 BMatP= 2.16D-01
 IDIUse=3 WtCom= 9.51D-01 WtEn= 4.92D-02
 Coeff-Com: -0.376D+00 0.799D+00 0.577D+00
 Coeff-En:   0.000D+00 0.000D+00 0.100D+01
 Coeff:     -0.357D+00 0.760D+00 0.598D+00
 Gap=     0.365 Goal=   None    Shift=    0.000
 RMSDP=3.19D-03 MaxDP=2.40D-01 DE=-4.34D-02 OVMax= 2.20D-02

 Cycle   4  Pass 1  IDiag  1:
 RMSU=  8.38D-04    CP:  5.28D-01  1.43D+00  7.40D-01
 E= -463.247576873483     Delta-E=       -0.004404532505 Rises=F Damp=F
 DIIS: error= 1.73D-03 at cycle   4 NSaved=   4.
 NSaved= 4 IEnMin= 4 EnMin= -463.247576873483     IErMin= 4 ErrMin= 1.73D-03
 ErrMax= 1.73D-03  0.00D+00 EMaxC= 1.00D-01 BMatC= 2.97D-04 BMatP= 4.92D-03
 IDIUse=3 WtCom= 9.83D-01 WtEn= 1.73D-02
 Coeff-Com: -0.135D+00 0.289D+00 0.285D+00 0.561D+00
 Coeff-En:   0.000D+00 0.000D+00 0.000D+00 0.100D+01
 Coeff:     -0.133D+00 0.284D+00 0.280D+00 0.569D+00
 Gap=     0.363 Goal=   None    Shift=    0.000
 RMSDP=9.05D-04 MaxDP=5.19D-02 DE=-4.40D-03 OVMax= 5.25D-03

 Cycle   5  Pass 1  IDiag  1:
 RMSU=  2.70D-04    CP:  5.22D-01  1.40D+00  8.16D-01  6.30D-01
 E= -463.247887766685     Delta-E=       -0.000310893202 Rises=F Damp=F
 DIIS: error= 2.44D-04 at cycle   5 NSaved=   5.
 NSaved= 5 IEnMin= 5 EnMin= -463.247887766685     IErMin= 5 ErrMin= 2.44D-04
 ErrMax= 2.44D-04  0.00D+00 EMaxC= 1.00D-01 BMatC= 8.23D-06 BMatP= 2.97D-04
 IDIUse=3 WtCom= 9.98D-01 WtEn= 2.44D-03
 Coeff-Com:  0.269D-01-0.573D-01-0.283D-01 0.117D+00 0.942D+00
 Coeff-En:   0.000D+00 0.000D+00 0.000D+00 0.000D+00 0.100D+01
 Coeff:      0.268D-01-0.572D-01-0.282D-01 0.116D+00 0.942D+00
 Gap=     0.361 Goal=   None    Shift=    0.000
 RMSDP=2.22D-04 MaxDP=9.52D-03 DE=-3.11D-04 OVMax= 1.20D-03

 Cycle   6  Pass 1  IDiag  1:
 RMSU=  5.08D-05    CP:  5.21D-01  1.38D+00  8.53D-01  7.12D-01  1.25D+00
 E= -463.247898566333     Delta-E=       -0.000010799648 Rises=F Damp=F
 DIIS: error= 7.12D-05 at cycle   6 NSaved=   6.
 NSaved= 6 IEnMin= 6 EnMin= -463.247898566333     IErMin= 6 ErrMin= 7.12D-05
 ErrMax= 7.12D-05  0.00D+00 EMaxC= 1.00D-01 BMatC= 5.51D-07 BMatP= 8.23D-06
 IDIUse=1 WtCom= 1.00D+00 WtEn= 0.00D+00
 Coeff-Com:  0.127D-01-0.272D-01-0.158D-01 0.304D-01 0.352D+00 0.647D+00
 Coeff:      0.127D-01-0.272D-01-0.158D-01 0.304D-01 0.352D+00 0.647D+00
 Gap=     0.362 Goal=   None    Shift=    0.000
 RMSDP=4.98D-05 MaxDP=3.40D-03 DE=-1.08D-05 OVMax= 2.53D-04

 Cycle   7  Pass 1  IDiag  1:
 RMSU=  1.17D-05    CP:  5.22D-01  1.38D+00  8.59D-01  7.11D-01  1.30D+00
                    CP:  1.12D+00
 E= -463.247899173125     Delta-E=       -0.000000606792 Rises=F Damp=F
 DIIS: error= 1.68D-05 at cycle   7 NSaved=   7.
 NSaved= 7 IEnMin= 7 EnMin= -463.247899173125     IErMin= 7 ErrMin= 1.68D-05
 ErrMax= 1.68D-05  0.00D+00 EMaxC= 1.00D-01 BMatC= 4.94D-08 BMatP= 5.51D-07
 IDIUse=1 WtCom= 1.00D+00 WtEn= 0.00D+00
 Coeff-Com: -0.200D-02 0.430D-02 0.194D-02-0.166D-01-0.991D-01 0.144D+00
 Coeff-Com:  0.968D+00
 Coeff:     -0.200D-02 0.430D-02 0.194D-02-0.166D-01-0.991D-01 0.144D+00
 Coeff:      0.968D+00
 Gap=     0.362 Goal=   None    Shift=    0.000
 RMSDP=3.01D-05 MaxDP=1.88D-03 DE=-6.07D-07 OVMax= 1.35D-04

 Cycle   8  Pass 1  IDiag  1:
 RMSU=  3.30D-06    CP:  5.22D-01  1.37D+00  8.63D-01  7.13D-01  1.34D+00
                    CP:  1.27D+00  1.29D+00
 E= -463.247899254262     Delta-E=       -0.000000081136 Rises=F Damp=F
 DIIS: error= 4.63D-06 at cycle   8 NSaved=   8.
 NSaved= 8 IEnMin= 8 EnMin= -463.247899254262     IErMin= 8 ErrMin= 4.63D-06
 ErrMax= 4.63D-06  0.00D+00 EMaxC= 1.00D-01 BMatC= 1.92D-09 BMatP= 4.94D-08
 IDIUse=1 WtCom= 1.00D+00 WtEn= 0.00D+00
 Coeff-Com: -0.498D-03 0.107D-02 0.708D-03-0.265D-02-0.155D-01 0.632D-03
 Coeff-Com:  0.260D-01 0.990D+00
 Coeff:     -0.498D-03 0.107D-02 0.708D-03-0.265D-02-0.155D-01 0.632D-03
 Coeff:      0.260D-01 0.990D+00
 Gap=     0.362 Goal=   None    Shift=    0.000
 RMSDP=5.32D-06 MaxDP=3.90D-04 DE=-8.11D-08 OVMax= 2.87D-05

 Cycle   9  Pass 1  IDiag  1:
 RMSU=  3.90D-07    CP:  5.22D-01  1.37D+00  8.64D-01  7.12D-01  1.35D+00
                    CP:  1.28D+00  1.38D+00  1.26D+00
 E= -463.247899258492     Delta-E=       -0.000000004231 Rises=F Damp=F
 DIIS: error= 2.37D-06 at cycle   9 NSaved=   9.
 NSaved= 9 IEnMin= 9 EnMin= -463.247899258492     IErMin= 9 ErrMin= 2.37D-06
 ErrMax= 2.37D-06  0.00D+00 EMaxC= 1.00D-01 BMatC= 3.52D-10 BMatP= 1.92D-09
 IDIUse=1 WtCom= 1.00D+00 WtEn= 0.00D+00
 Coeff-Com:  0.183D-03-0.396D-03-0.620D-04 0.190D-02 0.123D-01-0.190D-01
 Coeff-Com: -0.164D+00 0.309D+00 0.860D+00
 Coeff:      0.183D-03-0.396D-03-0.620D-04 0.190D-02 0.123D-01-0.190D-01
 Coeff:     -0.164D+00 0.309D+00 0.860D+00
 Gap=     0.362 Goal=   None    Shift=    0.000
 RMSDP=1.66D-06 MaxDP=1.01D-04 DE=-4.23D-09 OVMax= 1.87D-05

 Cycle  10  Pass 1  IDiag  1:
 RMSU=  2.23D-07    CP:  5.22D-01  1.37D+00  8.64D-01  7.12D-01  1.35D+00
                    CP:  1.29D+00  1.41D+00  1.38D+00  1.21D+00
 E= -463.247899259392     Delta-E=       -0.000000000899 Rises=F Damp=F
 DIIS: error= 4.47D-07 at cycle  10 NSaved=  10.
 NSaved=10 IEnMin=10 EnMin= -463.247899259392     IErMin=10 ErrMin= 4.47D-07
 ErrMax= 4.47D-07  0.00D+00 EMaxC= 1.00D-01 BMatC= 4.53D-11 BMatP= 3.52D-10
 IDIUse=1 WtCom= 1.00D+00 WtEn= 0.00D+00
 Coeff-Com:  0.711D-04-0.152D-03-0.635D-04 0.531D-03 0.285D-02-0.105D-02
 Coeff-Com: -0.261D-01-0.995D-01 0.189D+00 0.935D+00
 Coeff:      0.711D-04-0.152D-03-0.635D-04 0.531D-03 0.285D-02-0.105D-02
 Coeff:     -0.261D-01-0.995D-01 0.189D+00 0.935D+00
 Gap=     0.362 Goal=   None    Shift=    0.000
 RMSDP=4.01D-07 MaxDP=3.02D-05 DE=-8.99D-10 OVMax= 4.93D-06

 Cycle  11  Pass 1  IDiag  1:
 RMSU=  7.77D-08    CP:  5.22D-01  1.37D+00  8.64D-01  7.12D-01  1.35D+00
                    CP:  1.29D+00  1.41D+00  1.39D+00  1.36D+00  1.23D+00
 E= -463.247899259475     Delta-E=       -0.000000000083 Rises=F Damp=F
 DIIS: error= 1.03D-07 at cycle  11 NSaved=  11.
 NSaved=11 IEnMin=11 EnMin= -463.247899259475     IErMin=11 ErrMin= 1.03D-07
 ErrMax= 1.03D-07  0.00D+00 EMaxC= 1.00D-01 BMatC= 1.40D-12 BMatP= 4.53D-11
 IDIUse=1 WtCom= 1.00D+00 WtEn= 0.00D+00
 Coeff-Com: -0.194D-04 0.421D-04 0.152D-04-0.194D-03-0.129D-02 0.209D-02
 Coeff-Com:  0.152D-01-0.209D-01-0.535D-01-0.134D+00 0.119D+01
 Coeff:     -0.194D-04 0.421D-04 0.152D-04-0.194D-03-0.129D-02 0.209D-02
 Coeff:      0.152D-01-0.209D-01-0.535D-01-0.134D+00 0.119D+01
 Gap=     0.362 Goal=   None    Shift=    0.000
 RMSDP=2.82D-07 MaxDP=2.05D-05 DE=-8.32D-11 OVMax= 1.30D-06

 Cycle  12  Pass 1  IDiag  1:
 RMSU=  1.87D-08    CP:  5.22D-01  1.37D+00  8.64D-01  7.12D-01  1.35D+00
                    CP:  1.29D+00  1.40D+00  1.38D+00  1.40D+00  1.33D+00
                    CP:  1.27D+00
 E= -463.247899259501     Delta-E=       -0.000000000026 Rises=F Damp=F
 DIIS: error= 1.35D-08 at cycle  12 NSaved=  12.
 NSaved=12 IEnMin=12 EnMin= -463.247899259501     IErMin=12 ErrMin= 1.35D-08
 ErrMax= 1.35D-08  0.00D+00 EMaxC= 1.00D-01 BMatC= 5.38D-14 BMatP= 1.40D-12
 IDIUse=1 WtCom= 1.00D+00 WtEn= 0.00D+00
 Coeff-Com: -0.170D-05 0.359D-05 0.216D-05-0.842D-05-0.446D-04-0.319D-04
 Coeff-Com:  0.130D-03 0.456D-02-0.126D-02-0.437D-01-0.662D-01 0.111D+01
 Coeff:     -0.170D-05 0.359D-05 0.216D-05-0.842D-05-0.446D-04-0.319D-04
 Coeff:      0.130D-03 0.456D-02-0.126D-02-0.437D-01-0.662D-01 0.111D+01
 Gap=     0.362 Goal=   None    Shift=    0.000
 RMSDP=5.59D-08 MaxDP=3.84D-06 DE=-2.57D-11 OVMax= 2.29D-07

 Cycle  13  Pass 1  IDiag  1:
 RMSU=  4.69D-09    CP:  5.22D-01  1.37D+00  8.64D-01  7.12D-01  1.35D+00
                    CP:  1.29D+00  1.40D+00  1.38D+00  1.41D+00  1.34D+00
                    CP:  1.31D+00  1.29D+00
 E= -463.247899259489     Delta-E=        0.000000000011 Rises=F Damp=F
 DIIS: error= 2.80D-09 at cycle  13 NSaved=  13.
 NSaved=13 IEnMin=12 EnMin= -463.247899259501     IErMin=13 ErrMin= 2.80D-09
 ErrMax= 2.80D-09  0.00D+00 EMaxC= 1.00D-01 BMatC= 2.55D-15 BMatP= 5.38D-14
 IDIUse=1 WtCom= 1.00D+00 WtEn= 0.00D+00
 Coeff-Com:  0.516D-06-0.113D-05-0.488D-06 0.619D-05 0.419D-04-0.780D-04
 Coeff-Com: -0.554D-03 0.136D-02 0.232D-02-0.173D-02-0.547D-01 0.143D+00
 Coeff-Com:  0.910D+00
 Coeff:      0.516D-06-0.113D-05-0.488D-06 0.619D-05 0.419D-04-0.780D-04
 Coeff:     -0.554D-03 0.136D-02 0.232D-02-0.173D-02-0.547D-01 0.143D+00
 Coeff:      0.910D+00
 Gap=     0.362 Goal=   None    Shift=    0.000
 RMSDP=4.62D-09 MaxDP=1.61D-07 DE= 1.11D-11 OVMax= 3.58D-08

 SCF Done:  E(RwB97XD) =  -463.247899259     A.U. after   13 cycles
            NFock= 13  Conv=0.46D-08     -V/T= 2.0049
 KE= 4.610096583092D+02 PE=-2.270097552940D+03 EE= 7.479578846602D+02
 Leave Link  502 at Sat Nov  5 21:37:12 2022, MaxMem= 16106127360 cpu:             752.8 elap:              23.6
 (Enter /opt/ap/G16/B01/g16/l601.exe)
 Copying SCF densities to generalized density rwf, IOpCl= 0 IROHF=0.

 **********************************************************************

            Population analysis using the SCF Density.

 **********************************************************************

 Orbital symmetries:
       Occupied  (A) (A) (A) (A) (A) (A) (A) (A) (A) (A) (A) (A)
                 (A) (A) (A) (A) (A) (A) (A) (A) (A) (A) (A) (A)
                 (A) (A) (A) (A) (A) (A) (A) (A) (A) (A) (A) (A)
                 (A) (A) (A) (A) (A)
       Virtual   (A) (A) (A) (A) (A) (A) (A) (A) (A) (A) (A) (A)
                 (A) (A) (A) (A) (A) (A) (A) (A) (A) (A) (A) (A)
                 (A) (A) (A) (A) (A) (A) (A) (A) (A) (A) (A) (A)
                 (A) (A) (A) (A) (A) (A) (A) (A) (A) (A) (A) (A)
                 (A) (A) (A) (A) (A) (A) (A) (A) (A) (A) (A) (A)
                 (A) (A) (A) (A) (A) (A) (A) (A) (A) (A) (A) (A)
                 (A) (A) (A) (A) (A) (A) (A) (A) (A) (A) (A) (A)
                 (A) (A) (A) (A) (A) (A) (A) (A) (A) (A) (A) (A)
                 (A) (A) (A) (A) (A) (A) (A) (A) (A) (A) (A) (A)
                 (A) (A) (A) (A) (A) (A) (A) (A) (A) (A) (A) (A)
                 (A) (A) (A) (A) (A) (A) (A) (A) (A) (A) (A) (A)
                 (A) (A) (A) (A) (A) (A) (A) (A) (A) (A) (A) (A)
                 (A) (A) (A) (A) (A) (A) (A) (A) (A) (A) (A) (A)
                 (A) (A) (A) (A) (A) (A) (A) (A) (A) (A) (A) (A)
                 (A) (A) (A) (A) (A) (A) (A) (A) (A) (A) (A) (A)
                 (A) (A) (A) (A) (A) (A) (A) (A) (A) (A) (A) (A)
                 (A) (A) (A) (A) (A) (A) (A) (A) (A) (A) (A) (A)
                 (A) (A) (A) (A) (A) (A) (A) (A) (A) (A) (A) (A)
                 (A) (A) (A) (A) (A) (A) (A) (A) (A) (A) (A) (A)
                 (A) (A) (A) (A) (A) (A) (A) (A) (A) (A) (A) (A)
                 (A) (A) (A) (A) (A) (A) (A) (A) (A) (A) (A) (A)
                 (A) (A) (A) (A) (A) (A) (A) (A) (A) (A) (A) (A)
                 (A) (A) (A) (A) (A) (A) (A) (A) (A) (A) (A) (A)
                 (A) (A) (A) (A) (A) (A) (A) (A) (A) (A) (A) (A)
                 (A) (A) (A)
 The electronic state is 1-A.
 Alpha  occ. eigenvalues --  -10.30375 -10.30345 -10.29306 -10.29306 -10.29291
 Alpha  occ. eigenvalues --  -10.29291 -10.29229 -10.29229 -10.29218 -10.29218
 Alpha  occ. eigenvalues --  -10.29197 -10.29197  -0.97487  -0.95287  -0.88142
 Alpha  occ. eigenvalues --   -0.85030  -0.84881  -0.82375  -0.72294  -0.70551
 Alpha  occ. eigenvalues --   -0.69986  -0.67462  -0.62466  -0.59612  -0.55722
 Alpha  occ. eigenvalues --   -0.54848  -0.54283  -0.53471  -0.50939  -0.50920
 Alpha  occ. eigenvalues --   -0.50752  -0.45993  -0.45763  -0.45557  -0.42928
 Alpha  occ. eigenvalues --   -0.42712  -0.41833  -0.33779  -0.33537  -0.33095
 Alpha  occ. eigenvalues --   -0.32299
 Alpha virt. eigenvalues --    0.03854   0.04035   0.04402   0.04561   0.05093
 Alpha virt. eigenvalues --    0.05523   0.05866   0.05988   0.06431   0.06915
 Alpha virt. eigenvalues --    0.07347   0.07532   0.09121   0.09183   0.12634
 Alpha virt. eigenvalues --    0.12660   0.13343   0.13473   0.14711   0.15101
 Alpha virt. eigenvalues --    0.15569   0.15828   0.15930   0.16214   0.17084
 Alpha virt. eigenvalues --    0.17302   0.17373   0.17485   0.17486   0.17491
 Alpha virt. eigenvalues --    0.18714   0.18902   0.18948   0.19183   0.19417
 Alpha virt. eigenvalues --    0.20384   0.20654   0.21993   0.22101   0.22249
 Alpha virt. eigenvalues --    0.22664   0.22703   0.23454   0.24238   0.25193
 Alpha virt. eigenvalues --    0.25211   0.26079   0.26242   0.27195   0.27219
 Alpha virt. eigenvalues --    0.27329   0.27963   0.29898   0.30295   0.30669
 Alpha virt. eigenvalues --    0.31079   0.31407   0.31875   0.32248   0.32912
 Alpha virt. eigenvalues --    0.33566   0.34005   0.34119   0.34628   0.35369
 Alpha virt. eigenvalues --    0.35566   0.35582   0.35659   0.37365   0.37427
 Alpha virt. eigenvalues --    0.37634   0.37823   0.39072   0.40794   0.42926
 Alpha virt. eigenvalues --    0.43160   0.44067   0.45350   0.45509   0.47594
 Alpha virt. eigenvalues --    0.47953   0.55908   0.58753   0.60520   0.60714
 Alpha virt. eigenvalues --    0.61009   0.61286   0.61963   0.62909   0.63303
 Alpha virt. eigenvalues --    0.63420   0.63605   0.63806   0.65527   0.65800
 Alpha virt. eigenvalues --    0.65972   0.66494   0.67531   0.69182   0.70370
 Alpha virt. eigenvalues --    0.72667   0.73176   0.74320   0.74676   0.74768
 Alpha virt. eigenvalues --    0.76153   0.77772   0.78911   0.80920   0.81178
 Alpha virt. eigenvalues --    0.81302   0.81698   0.81981   0.82032   0.83134
 Alpha virt. eigenvalues --    0.84030   0.86039   0.86196   0.89009   0.89691
 Alpha virt. eigenvalues --    0.90644   0.92148   0.93064   0.93556   0.93930
 Alpha virt. eigenvalues --    0.95485   0.96110   0.96825   0.96933   0.97585
 Alpha virt. eigenvalues --    0.98512   1.01473   1.01843   1.03125   1.03987
 Alpha virt. eigenvalues --    1.04928   1.09547   1.10140   1.10454   1.10620
 Alpha virt. eigenvalues --    1.11175   1.14430   1.14444   1.14448   1.15904
 Alpha virt. eigenvalues --    1.16629   1.20378   1.24658   1.25986   1.27014
 Alpha virt. eigenvalues --    1.28865   1.37238   1.40183   1.41780   1.45251
 Alpha virt. eigenvalues --    1.47521   1.58082   1.58527   1.59023   1.59703
 Alpha virt. eigenvalues --    1.60149   1.61294   1.63746   1.64332   1.64717
 Alpha virt. eigenvalues --    1.65478   1.65731   1.66751   1.72520   1.72613
 Alpha virt. eigenvalues --    1.72851   1.73351   1.73857   1.74247   1.74515
 Alpha virt. eigenvalues --    1.82502   1.82810   1.83274   1.85346   1.85869
 Alpha virt. eigenvalues --    1.86618   1.86844   1.87709   1.91987   1.92242
 Alpha virt. eigenvalues --    1.93158   1.94946   1.98888   1.99344   1.99496
 Alpha virt. eigenvalues --    2.03310   2.04068   2.04387   2.04411   2.04757
 Alpha virt. eigenvalues --    2.05732   2.09393   2.10334   2.12098   2.12561
 Alpha virt. eigenvalues --    2.12961   2.16253   2.16776   2.17471   2.18926
 Alpha virt. eigenvalues --    2.20421   2.30761   2.34955   2.34970   2.38580
 Alpha virt. eigenvalues --    2.47858   2.51289   2.52151   2.52175   2.53003
 Alpha virt. eigenvalues --    2.54835   2.55662   2.56011   2.57512   2.66280
 Alpha virt. eigenvalues --    2.71065   2.71566   2.73008   2.73871   2.75384
 Alpha virt. eigenvalues --    2.79014   2.79259   2.80420   2.80823   2.81249
 Alpha virt. eigenvalues --    2.82600   2.83229   2.83321   2.84220   2.85948
 Alpha virt. eigenvalues --    2.86593   2.88650   2.90886   2.91178   2.92148
 Alpha virt. eigenvalues --    2.92457   2.97084   2.98581   2.98881   2.99206
 Alpha virt. eigenvalues --    3.01845   3.03878   3.04082   3.05099   3.13715
 Alpha virt. eigenvalues --    3.14506   3.21940   3.22544   3.26119   3.27519
 Alpha virt. eigenvalues --    3.38099   3.43660   3.44743   3.48827   3.48920
 Alpha virt. eigenvalues --    3.58802   3.59681   3.64008   3.64523   3.69358
 Alpha virt. eigenvalues --    3.73452   3.75807   3.94651   4.09136   4.09350
 Alpha virt. eigenvalues --    4.13430   4.14815   4.24997   4.25113   4.25141
 Alpha virt. eigenvalues --    4.26136   4.48717   4.93870   4.94551  23.71148
 Alpha virt. eigenvalues --   23.85526  24.06817  24.08997  24.09056  24.11396
 Alpha virt. eigenvalues --   24.17424  24.22153  24.22284  24.23515  24.30920
 Alpha virt. eigenvalues --   24.32552
          Condensed to atoms (all electrons):
               1          2          3          4          5          6
     1  C   17.851144   1.195941   1.194765  -1.703516   0.110679  -6.329637
     2  C    1.195941  11.849095  -2.400491  -0.148886   0.369005  -3.448315
     3  C    1.194765  -2.400491  11.850524  -1.131597   0.081291  -3.447529
     4  C   -1.703516  -0.148886  -1.131597   6.690177  -0.108322   1.389435
     5  H    0.110679   0.369005   0.081291  -0.108322   0.466650  -0.077361
     6  C   -6.329637  -3.448315  -3.447529   1.389435  -0.077361  17.851250
     7  C   -1.704943  -1.131806  -0.151634   0.263535  -0.015642   1.392078
     8  H    0.110727   0.081288   0.369150  -0.015628   0.000161  -0.077518
     9  C   -0.142009   0.600000   0.600494   0.087316   0.018205  -1.312087
    10  H    0.029781  -0.106125  -0.026385   0.440278  -0.011967   0.044625
    11  C   -3.447366  -0.405134  -0.244591   0.277407  -0.020016   1.195265
    12  C   -3.447627  -0.245104  -0.404362   0.262900  -0.050205   1.195679
    13  H    0.029776  -0.026371  -0.106189   0.018658  -0.000162   0.044640
    14  H    0.029079   0.022187   0.022177  -0.052473   0.000829  -0.034979
    15  C    1.389087   0.277777   0.262383  -0.030263   0.016458  -1.703229
    16  H   -0.077342  -0.020018  -0.050181   0.016470   0.000705   0.110616
    17  C    1.391773   0.263531   0.277680  -0.057631   0.017159  -1.705172
    18  H   -0.077489  -0.050264  -0.020036   0.017144  -0.001374   0.110788
    19  C   -1.311914  -0.149579  -0.148898   0.044302  -0.014867  -0.141922
    20  H    0.044611   0.002613   0.006227  -0.000799   0.000318   0.029785
    21  H    0.044640   0.006271   0.002575  -0.000836   0.000466   0.029758
    22  H   -0.034974  -0.004592  -0.004561   0.001164  -0.000483   0.029083
               7          8          9         10         11         12
     1  C   -1.704943   0.110727  -0.142009   0.029781  -3.447366  -3.447627
     2  C   -1.131806   0.081288   0.600000  -0.106125  -0.405134  -0.245104
     3  C   -0.151634   0.369150   0.600494  -0.026385  -0.244591  -0.404362
     4  C    0.263535  -0.015628   0.087316   0.440278   0.277407   0.262900
     5  H   -0.015642   0.000161   0.018205  -0.011967  -0.020016  -0.050205
     6  C    1.392078  -0.077518  -1.312087   0.044625   1.195265   1.195679
     7  C    6.692015  -0.108365   0.086742   0.018662   0.263261   0.277866
     8  H   -0.108365   0.466648   0.018224  -0.000162  -0.050290  -0.019992
     9  C    0.086742   0.018224   6.411229  -0.082741  -0.149289  -0.149210
    10  H    0.018662  -0.000162  -0.082741   0.480600   0.002593   0.006248
    11  C    0.263261  -0.050290  -0.149289   0.002593  11.847803  -2.400572
    12  C    0.277866  -0.019992  -0.149210   0.006248  -2.400572  11.850129
    13  H    0.440317  -0.011969  -0.082736   0.000357   0.006263   0.002583
    14  H   -0.052488   0.000829   0.411541  -0.008482  -0.004577  -0.004576
    15  C   -0.057728   0.017132   0.044355  -0.000804  -0.148167  -1.131502
    16  H    0.017160  -0.001374  -0.014872   0.000319   0.368974   0.081277
    17  C   -0.030613   0.016531   0.044475  -0.000841  -1.131375  -0.151664
    18  H    0.016510   0.000702  -0.014879   0.000466   0.081298   0.369124
    19  C    0.044539  -0.014883  -0.028750   0.000261   0.599662   0.600355
    20  H   -0.000844   0.000466   0.000261   0.000050  -0.106111  -0.026372
    21  H   -0.000811   0.000319   0.000261   0.000024  -0.026375  -0.106170
    22  H    0.001172  -0.000483  -0.000627   0.000005   0.022164   0.022187
              13         14         15         16         17         18
     1  C    0.029776   0.029079   1.389087  -0.077342   1.391773  -0.077489
     2  C   -0.026371   0.022187   0.277777  -0.020018   0.263531  -0.050264
     3  C   -0.106189   0.022177   0.262383  -0.050181   0.277680  -0.020036
     4  C    0.018658  -0.052473  -0.030263   0.016470  -0.057631   0.017144
     5  H   -0.000162   0.000829   0.016458   0.000705   0.017159  -0.001374
     6  C    0.044640  -0.034979  -1.703229   0.110616  -1.705172   0.110788
     7  C    0.440317  -0.052488  -0.057728   0.017160  -0.030613   0.016510
     8  H   -0.011969   0.000829   0.017132  -0.001374   0.016531   0.000702
     9  C   -0.082736   0.411541   0.044355  -0.014872   0.044475  -0.014879
    10  H    0.000357  -0.008482  -0.000804   0.000319  -0.000841   0.000466
    11  C    0.006263  -0.004577  -0.148167   0.368974  -1.131375   0.081298
    12  C    0.002583  -0.004576  -1.131502   0.081277  -0.151664   0.369124
    13  H    0.480602  -0.008480  -0.000837   0.000466  -0.000810   0.000319
    14  H   -0.008480   0.471338   0.001166  -0.000483   0.001169  -0.000483
    15  C   -0.000837   0.001166   6.689583  -0.108255   0.263364  -0.015630
    16  H    0.000466  -0.000483  -0.108255   0.466640  -0.015629   0.000161
    17  C   -0.000810   0.001169   0.263364  -0.015629   6.692015  -0.108407
    18  H    0.000319  -0.000483  -0.015630   0.000161  -0.108407   0.466650
    19  C    0.000261  -0.000627   0.087609   0.018184   0.086819   0.018224
    20  H    0.000024   0.000005   0.440254  -0.011965   0.018654  -0.000162
    21  H    0.000050   0.000005   0.018658  -0.000162   0.440316  -0.011969
    22  H    0.000005  -0.000010  -0.052459   0.000828  -0.052495   0.000829
              19         20         21         22
     1  C   -1.311914   0.044611   0.044640  -0.034974
     2  C   -0.149579   0.002613   0.006271  -0.004592
     3  C   -0.148898   0.006227   0.002575  -0.004561
     4  C    0.044302  -0.000799  -0.000836   0.001164
     5  H   -0.014867   0.000318   0.000466  -0.000483
     6  C   -0.141922   0.029785   0.029758   0.029083
     7  C    0.044539  -0.000844  -0.000811   0.001172
     8  H   -0.014883   0.000466   0.000319  -0.000483
     9  C   -0.028750   0.000261   0.000261  -0.000627
    10  H    0.000261   0.000050   0.000024   0.000005
    11  C    0.599662  -0.106111  -0.026375   0.022164
    12  C    0.600355  -0.026372  -0.106170   0.022187
    13  H    0.000261   0.000024   0.000050   0.000005
    14  H   -0.000627   0.000005   0.000005  -0.000010
    15  C    0.087609   0.440254   0.018658  -0.052459
    16  H    0.018184  -0.011965  -0.000162   0.000828
    17  C    0.086819   0.018654   0.440316  -0.052495
    18  H    0.018224  -0.000162  -0.011969   0.000829
    19  C    6.411053  -0.082723  -0.082734   0.411538
    20  H   -0.082723   0.480599   0.000356  -0.008481
    21  H   -0.082734   0.000356   0.480601  -0.008481
    22  H    0.411538  -0.008481  -0.008481   0.471340
 Mulliken charges:
               1
     1  C    0.854813
     2  C   -0.531021
     3  C   -0.530813
     4  C   -0.258833
     5  H    0.218471
     6  C    0.854749
     7  C   -0.258983
     8  H    0.218487
     9  C   -0.345903
    10  H    0.213236
    11  C   -0.530826
    12  C   -0.530991
    13  H    0.213235
    14  H    0.207333
    15  C   -0.258953
    16  H    0.218480
    17  C   -0.258850
    18  H    0.218476
    19  C   -0.345909
    20  H    0.213232
    21  H    0.213239
    22  H    0.207331
 Sum of Mulliken charges =  -0.00000
 Mulliken charges with hydrogens summed into heavy atoms:
               1
     1  C    0.854813
     2  C   -0.312550
     3  C   -0.312326
     4  C   -0.045596
     6  C    0.854749
     7  C   -0.045748
     9  C   -0.138570
    11  C   -0.312346
    12  C   -0.312515
    15  C   -0.045721
    17  C   -0.045611
    19  C   -0.138578
 Electronic spatial extent (au):  <R**2>=           2312.0162
 Charge=             -0.0000 electrons
 Dipole moment (field-independent basis, Debye):
    X=              0.0000    Y=             -0.0002    Z=              0.0003  Tot=              0.0004
 Quadrupole moment (field-independent basis, Debye-Ang):
   XX=            -61.7978   YY=            -68.3063   ZZ=            -70.6486
   XY=             -0.0005   XZ=              0.0014   YZ=              0.0000
 Traceless Quadrupole moment (field-independent basis, Debye-Ang):
   XX=              5.1198   YY=             -1.3887   ZZ=             -3.7310
   XY=             -0.0005   XZ=              0.0014   YZ=              0.0000
 Octapole moment (field-independent basis, Debye-Ang**2):
  XXX=             -0.0001  YYY=              0.0007  ZZZ=              0.0036  XYY=             -0.0006
  XXY=             -0.0057  XXZ=              0.0007  XZZ=              0.0006  YZZ=             -0.0005
  YYZ=             -0.0006  XYZ=             18.9018
 Hexadecapole moment (field-independent basis, Debye-Ang**3):
 XXXX=          -2302.8505 YYYY=           -387.5275 ZZZZ=           -308.8616 XXXY=             -0.0015
 XXXZ=              0.0259 YYYX=             -0.0090 YYYZ=             -0.0000 ZZZX=              0.0021
 ZZZY=              0.0003 XXYY=           -486.2212 XXZZ=           -490.1788 YYZZ=            -93.6707
 XXYZ=              0.0003 YYXZ=              0.0009 ZZXY=              0.0030
 N-N= 5.978821107115D+02 E-N=-2.270097552686D+03  KE= 4.610096583092D+02
 No NMR shielding tensors so no spin-rotation constants.
 Leave Link  601 at Sat Nov  5 21:37:13 2022, MaxMem= 16106127360 cpu:               4.2 elap:               0.2
 (Enter /opt/ap/G16/B01/g16/l9999.exe)
 1\1\GINC-N05\SP\RwB97XD\6-311++G(d,p)\C12H10\ROOT\05-Nov-2022\0\\#P wB
 97XD/6-311++G(d,p) scf=maxcycle=512\\_conf034.gjf nmol_natom 1_22\\0,1
 \C\C,1,1.40491871\C,1,1.40495292,2,118.20503621\C,2,1.3939373,1,120.91
 08946,3,0.05365643,0\H,2,1.08593095,1,119.3452094,3,-178.3624307,0\C,1
 ,1.48449301,2,120.90144423,4,-179.96388019,0\C,3,1.39389842,1,120.9105
 0598,2,0.03587687,0\H,3,1.08593608,1,119.34159615,2,-178.38281524,0\C,
 4,1.39606958,2,120.24555868,1,-0.09283196,0\H,4,1.08627898,2,119.66792
 041,1,-179.51486187,0\C,6,1.40492034,1,120.90156908,2,80.,0\C,6,1.4049
 5329,1,120.89324856,2,-100.,0\H,7,1.08627928,3,119.67027175,1,-179.512
 58183,0\H,9,1.08597601,4,120.2602535,2,-179.95233103,0\C,11,1.39393437
 ,6,120.91099656,1,-179.95869964,0\H,11,1.08593173,6,119.34475907,1,1.6
 1891886,0\C,12,1.39390147,6,120.91022615,1,-179.94297913,0\H,12,1.0859
 3608,6,119.34175044,1,1.63241608,0\C,15,1.39607161,11,120.24535737,6,-
 0.10315482,0\H,15,1.08627786,11,119.66861247,6,-179.51844254,0\H,17,1.
 08627825,12,119.6702798,6,-179.51590091,0\H,19,1.08597601,15,120.25988
 597,11,-179.94731581,0\\Version=ES64L-G16RevB.01\State=1-A\HF=-463.247
 8993\RMSD=4.616e-09\Dipole=-0.0000023,-0.0001396,0.0000092\Quadrupole=
 2.3401691,-2.0545912,-0.2855779,-0.4402151,2.4494723,0.7358349\PG=C01 
 [X(C12H10)]\\@


 THERE'S NOTHING SO GREAT AS THE GREAT OUTDOORS.

                                       -- ZIGGY
 Job cpu time:       0 days  0 hours 13 minutes 15.7 seconds.
 Elapsed time:       0 days  0 hours  0 minutes 25.1 seconds.
 File lengths (MBytes):  RWF=     62 Int=      0 D2E=      0 Chk=      8 Scr=      1
 Normal termination of Gaussian 16 at Sat Nov  5 21:37:13 2022.
