 Entering Gaussian System, Link 0=g16
 Input=_conf029.gjf
 Output=_conf029.log
 Initial command:
 /opt/ap/G16/B01/g16/l1.exe "/tmp2/scr/Gau-25229.inp" -scrdir="/tmp2/scr/"
 Entering Link 1 = /opt/ap/G16/B01/g16/l1.exe PID=     25230.
  
 Copyright (c) 1988-2017, Gaussian, Inc.  All Rights Reserved.
  
 This is part of the Gaussian(R) 16 program.  It is based on
 the Gaussian(R) 09 system (copyright 2009, Gaussian, Inc.),
 the Gaussian(R) 03 system (copyright 2003, Gaussian, Inc.),
 the Gaussian(R) 98 system (copyright 1998, Gaussian, Inc.),
 the Gaussian(R) 94 system (copyright 1995, Gaussian, Inc.),
 the Gaussian 92(TM) system (copyright 1992, Gaussian, Inc.),
 the Gaussian 90(TM) system (copyright 1990, Gaussian, Inc.),
 the Gaussian 88(TM) system (copyright 1988, Gaussian, Inc.),
 the Gaussian 86(TM) system (copyright 1986, Carnegie Mellon
 University), and the Gaussian 82(TM) system (copyright 1983,
 Carnegie Mellon University). Gaussian is a federally registered
 trademark of Gaussian, Inc.
  
 This software contains proprietary and confidential information,
 including trade secrets, belonging to Gaussian, Inc.
  
 This software is provided under written license and may be
 used, copied, transmitted, or stored only in accord with that
 written license.
  
 The following legend is applicable only to US Government
 contracts under FAR:
  
                    RESTRICTED RIGHTS LEGEND
  
 Use, reproduction and disclosure by the US Government is
 subject to restrictions as set forth in subparagraphs (a)
 and (c) of the Commercial Computer Software - Restricted
 Rights clause in FAR 52.227-19.
  
 Gaussian, Inc.
 340 Quinnipiac St., Bldg. 40, Wallingford CT 06492
  
  
 ---------------------------------------------------------------
 Warning -- This program may not be used in any manner that
 competes with the business of Gaussian, Inc. or will provide
 assistance to any competitor of Gaussian, Inc.  The licensee
 of this program is prohibited from giving any competitor of
 Gaussian, Inc. access to this program.  By using this program,
 the user acknowledges that Gaussian, Inc. is engaged in the
 business of creating and licensing software in the field of
 computational chemistry and represents and warrants to the
 licensee that it is not a competitor of Gaussian, Inc. and that
 it will not use this program in any manner prohibited above.
 ---------------------------------------------------------------
  

 Cite this work as:
 Gaussian 16, Revision B.01,
 M. J. Frisch, G. W. Trucks, H. B. Schlegel, G. E. Scuseria, 
 M. A. Robb, J. R. Cheeseman, G. Scalmani, V. Barone, 
 G. A. Petersson, H. Nakatsuji, X. Li, M. Caricato, A. V. Marenich, 
 J. Bloino, B. G. Janesko, R. Gomperts, B. Mennucci, H. P. Hratchian, 
 J. V. Ortiz, A. F. Izmaylov, J. L. Sonnenberg, D. Williams-Young, 
 F. Ding, F. Lipparini, F. Egidi, J. Goings, B. Peng, A. Petrone, 
 T. Henderson, D. Ranasinghe, V. G. Zakrzewski, J. Gao, N. Rega, 
 G. Zheng, W. Liang, M. Hada, M. Ehara, K. Toyota, R. Fukuda, 
 J. Hasegawa, M. Ishida, T. Nakajima, Y. Honda, O. Kitao, H. Nakai, 
 T. Vreven, K. Throssell, J. A. Montgomery, Jr., J. E. Peralta, 
 F. Ogliaro, M. J. Bearpark, J. J. Heyd, E. N. Brothers, K. N. Kudin, 
 V. N. Staroverov, T. A. Keith, R. Kobayashi, J. Normand, 
 K. Raghavachari, A. P. Rendell, J. C. Burant, S. S. Iyengar, 
 J. Tomasi, M. Cossi, J. M. Millam, M. Klene, C. Adamo, R. Cammi, 
 J. W. Ochterski, R. L. Martin, K. Morokuma, O. Farkas, 
 J. B. Foresman, and D. J. Fox, Gaussian, Inc., Wallingford CT, 2016.
 
 ******************************************
 Gaussian 16:  ES64L-G16RevB.01 20-Dec-2017
                 5-Nov-2022 
 ******************************************
 %nprocshared=32
 Will use up to   32 processors via shared memory.
 %mem=120GB
 %chk=_conf029.chk
 ----------------------------------------
 #P wB97XD/6-311++G(d,p) scf=maxcycle=512
 ----------------------------------------
 1/38=1,172=1/1;
 2/12=2,17=6,18=5,40=1/2;
 3/5=4,6=6,7=1111,11=2,25=1,30=1,74=-58/1,2,3;
 4//1;
 5/5=2,7=512,38=5/2;
 6/7=2,8=2,9=2,10=2,28=1/1;
 99/5=1,9=1/99;
 Leave Link    1 at Sat Nov  5 21:36:16 2022, MaxMem= 16106127360 cpu:               1.8 elap:               0.1
 (Enter /opt/ap/G16/B01/g16/l101.exe)
 ----------------------------
 _conf029.gjf nmol_natom 1_22
 ----------------------------
 Symbolic Z-matrix:
 Charge =  0 Multiplicity = 1
 C
 C                    1     1.40492 
 C                    1     1.40495  2     118.20504 
 C                    2     1.39394  1     120.91089  3     0.05366  0
 H                    2     1.08593  1     119.34521  3    -178.36243  0
 C                    1     1.48449  2     120.90144  4    -179.96388  0
 C                    3     1.3939   1     120.91051  2     0.03588  0
 H                    3     1.08594  1     119.3416  2    -178.38282  0
 C                    4     1.39607  2     120.24556  1    -0.09283  0
 H                    4     1.08628  2     119.66792  1    -179.51486  0
 C                    6     1.40492  1     120.90157  2     55.      0
 C                    6     1.40495  1     120.89325  2    -125.     0
 H                    7     1.08628  3     119.67027  1    -179.51258  0
 H                    9     1.08598  4     120.26025  2    -179.95233  0
 C                    11    1.39393  6     120.911  1    -179.9587  0
 H                    11    1.08593  6     119.34476  1     1.61892  0
 C                    12    1.3939   6     120.91023  1    -179.94298  0
 H                    12    1.08594  6     119.34175  1     1.63242  0
 C                    15    1.39607  11    120.24536  6    -0.10315  0
 H                    15    1.08628  11    119.66861  6    -179.51844  0
 H                    17    1.08628  12    119.67028  6    -179.5159  0
 H                    19    1.08598  15    120.25989  11   -179.94732  0
 
 ITRead=  0  0  0  0  0  0  0  0  0  0  0  0  0  0  0  0  0  0  0  0
 ITRead=  0  0
 MicOpt= -1 -1 -1 -1 -1 -1 -1 -1 -1 -1 -1 -1 -1 -1 -1 -1 -1 -1 -1 -1
 MicOpt= -1 -1
 NAtoms=     22 NQM=       22 NQMF=       0 NMMI=      0 NMMIF=      0
                NMic=       0 NMicF=      0.
                    Isotopes and Nuclear Properties:
 (Nuclear quadrupole moments (NQMom) in fm**2, nuclear magnetic moments (NMagM)
  in nuclear magnetons)

  Atom         1           2           3           4           5           6           7           8           9          10
 IAtWgt=          12          12          12          12           1          12          12           1          12           1
 AtmWgt=  12.0000000  12.0000000  12.0000000  12.0000000   1.0078250  12.0000000  12.0000000   1.0078250  12.0000000   1.0078250
 NucSpn=           0           0           0           0           1           0           0           1           0           1
 AtZEff=  -0.0000000  -0.0000000  -0.0000000  -0.0000000  -0.0000000  -0.0000000  -0.0000000  -0.0000000  -0.0000000  -0.0000000
 NQMom=    0.0000000   0.0000000   0.0000000   0.0000000   0.0000000   0.0000000   0.0000000   0.0000000   0.0000000   0.0000000
 NMagM=    0.0000000   0.0000000   0.0000000   0.0000000   2.7928460   0.0000000   0.0000000   2.7928460   0.0000000   2.7928460
 AtZNuc=   6.0000000   6.0000000   6.0000000   6.0000000   1.0000000   6.0000000   6.0000000   1.0000000   6.0000000   1.0000000

  Atom        11          12          13          14          15          16          17          18          19          20
 IAtWgt=          12          12           1           1          12           1          12           1          12           1
 AtmWgt=  12.0000000  12.0000000   1.0078250   1.0078250  12.0000000   1.0078250  12.0000000   1.0078250  12.0000000   1.0078250
 NucSpn=           0           0           1           1           0           1           0           1           0           1
 AtZEff=  -0.0000000  -0.0000000  -0.0000000  -0.0000000  -0.0000000  -0.0000000  -0.0000000  -0.0000000  -0.0000000  -0.0000000
 NQMom=    0.0000000   0.0000000   0.0000000   0.0000000   0.0000000   0.0000000   0.0000000   0.0000000   0.0000000   0.0000000
 NMagM=    0.0000000   0.0000000   2.7928460   2.7928460   0.0000000   2.7928460   0.0000000   2.7928460   0.0000000   2.7928460
 AtZNuc=   6.0000000   6.0000000   1.0000000   1.0000000   6.0000000   1.0000000   6.0000000   1.0000000   6.0000000   1.0000000

  Atom        21          22
 IAtWgt=           1           1
 AtmWgt=   1.0078250   1.0078250
 NucSpn=           1           1
 AtZEff=  -0.0000000  -0.0000000
 NQMom=    0.0000000   0.0000000
 NMagM=    2.7928460   2.7928460
 AtZNuc=   1.0000000   1.0000000
 Leave Link  101 at Sat Nov  5 21:36:17 2022, MaxMem= 16106127360 cpu:               5.3 elap:               0.2
 (Enter /opt/ap/G16/B01/g16/l202.exe)
                          Input orientation:                          
 ---------------------------------------------------------------------
 Center     Atomic      Atomic             Coordinates (Angstroms)
 Number     Number       Type             X           Y           Z
 ---------------------------------------------------------------------
      1          6           0        0.000000    0.000000    0.000000
      2          6           0        0.000000    0.000000    1.404919
      3          6           0        1.238131    0.000000   -0.664020
      4          6           0        1.195952    0.001120    2.120990
      5          1           0       -0.946201   -0.027051    1.937101
      6          6           0       -1.273772   -0.000390   -0.762381
      7          6           0        2.434381   -0.000749    0.051479
      8          1           0        1.259850    0.026715   -1.749411
      9          6           0        2.418826    0.000311    1.447501
     10          1           0        1.172413   -0.006894    3.206985
     11          6           0       -2.248273    0.986794   -0.539632
     12          6           0       -1.537295   -0.988062   -1.726203
     13          1           0        3.380326    0.007295   -0.482493
     14          1           0        3.350700    0.000403    2.005133
     15          6           0       -3.444771    0.986121   -1.254786
     16          1           0       -2.052775    1.774306    0.182070
     17          6           0       -2.732712   -0.988083   -2.443099
     18          1           0       -0.808479   -1.775332   -1.894398
     19          6           0       -3.692262   -0.001043   -2.210437
     20          1           0       -4.180949    1.763672   -1.071874
     21          1           0       -2.918929   -1.765988   -3.178074
     22          1           0       -4.623977   -0.001297   -2.768336
 ---------------------------------------------------------------------
                    Distance matrix (angstroms):
                    1          2          3          4          5
     1  C    0.000000
     2  C    1.404919   0.000000
     3  C    1.404953   2.411116   0.000000
     4  C    2.434934   1.393937   2.785330   0.000000
     5  H    2.156012   1.085931   3.396745   2.150216   0.000000
     6  C    1.484493   2.513898   2.513829   3.796494   2.719415
     7  C    2.434925   2.785320   1.393898   2.411760   3.870994
     8  H    2.156008   3.396723   1.085936   3.871013   4.296501
     9  C    2.818861   2.419201   2.419207   1.396070   3.400568
    10  H    3.414579   2.149893   3.871569   1.086279   2.470128
    11  C    2.513901   3.132055   3.625500   4.462415   2.976152
    12  C    2.513826   3.625392   3.131691   4.821827   3.833110
    13  H    3.414594   3.871560   2.149884   3.398478   4.957262
    14  H    3.904837   3.404035   3.404016   2.157861   4.297527
    15  C    3.796494   4.462388   4.821931   5.822577   4.178219
    16  H    2.719411   2.976139   3.833288   4.178257   2.747640
    17  C    3.796414   4.821956   4.461953   6.102773   4.827148
    18  H    2.719225   3.832875   2.975609   4.826683   4.213768
    19  C    4.303351   5.167552   5.167222   6.531149   4.974294
    20  H    4.662595   5.169659   5.713433   6.497079   4.766992
    21  H    4.662511   5.713377   5.169171   6.937939   5.751572
    22  H    5.389327   6.228741   6.228359   7.601124   5.972256
                    6          7          8          9         10
     6  C    0.000000
     7  C    3.796415   0.000000
     8  H    2.719228   2.150228   0.000000
     9  C    4.303354   1.396108   3.400612   0.000000
    10  H    4.662588   3.398502   4.957280   2.156243   0.000000
    11  C    1.404920   4.822022   3.833046   5.167558   5.169685
    12  C    1.404953   4.461967   2.975623   5.167221   5.713278
    13  H    4.662512   1.086279   2.470197   2.156248   4.299689
    14  H    5.389330   2.157871   4.297551   1.085976   2.487858
    15  C    2.434934   6.102841   4.826859   6.531152   6.497066
    16  H    2.156010   4.827260   4.214045   4.974293   4.767035
    17  C    2.434925   5.822079   4.177508   6.530852   6.938024
    18  H    2.156010   4.177526   2.747068   4.973600   5.751123
    19  C    2.818858   6.530851   4.973603   7.122212   7.281041
    20  H    3.414583   6.938133   5.751380   7.281052   7.078278
    21  H    3.414594   6.496461   4.766241   7.280616   7.784758
    22  H    3.904834   7.600774   5.971466   8.208188   8.324820
                   11         12         13         14         15
    11  C    0.000000
    12  C    2.411119   0.000000
    13  H    5.713476   5.169192   0.000000
    14  H    6.228748   6.228357   2.487812   0.000000
    15  C    1.393934   2.785336   6.938046   7.601128   0.000000
    16  H    1.085932   3.396748   5.751743   5.972256   2.150219
    17  C    2.785320   1.393901   6.496459   7.600775   2.411763
    18  H    3.396725   1.085936   4.766269   5.971462   3.871016
    19  C    2.419198   2.419208   7.280615   8.208188   1.396072
    20  H    2.149897   3.871575   7.784928   8.324833   1.086278
    21  H    3.871558   2.149886   7.077520   8.324303   3.398478
    22  H    3.404029   3.404019   8.324302   9.294164   2.157859
                   16         17         18         19         20
    16  H    0.000000
    17  C    3.870997   0.000000
    18  H    4.296501   2.150234   0.000000
    19  C    3.400569   1.396107   3.400615   0.000000
    20  H    2.470145   3.398500   4.957282   2.156238   0.000000
    21  H    4.957264   1.086278   2.470204   2.156245   4.299683
    22  H    4.297527   2.157871   4.297556   1.085976   2.487844
                   21         22
    21  H    0.000000
    22  H    2.487812   0.000000
 Stoichiometry    C12H10
 Framework group  C1[X(C12H10)]
 Deg. of freedom    60
 Full point group                 C1      NOp   1
 Largest Abelian subgroup         C1      NOp   1
 Largest concise Abelian subgroup C1      NOp   1
                         Standard orientation:                         
 ---------------------------------------------------------------------
 Center     Atomic      Atomic             Coordinates (Angstroms)
 Number     Number       Type             X           Y           Z
 ---------------------------------------------------------------------
      1          6           0        0.742246    0.000202   -0.000123
      2          6           0        1.463786    1.069465    0.556521
      3          6           0        1.463585   -1.069330   -0.556599
      4          6           0        2.857723    1.070037    0.555854
      5          1           0        0.925221    1.893150    1.015583
      6          6           0       -0.742247    0.000180   -0.000011
      7          6           0        2.857483   -1.070191   -0.555906
      8          1           0        0.924788   -1.892967   -1.015486
      9          6           0        3.561107   -0.000123   -0.000042
     10          1           0        3.395271    1.903598    0.998823
     11          6           0       -1.463822    1.069488   -0.556528
     12          6           0       -1.463549   -1.069267    0.556676
     13          1           0        3.394905   -1.903896   -0.998756
     14          1           0        4.647083   -0.000283    0.000003
     15          6           0       -2.857756    1.070069   -0.555764
     16          1           0       -0.925276    1.893250   -1.015474
     17          6           0       -2.857450   -1.070204    0.555916
     18          1           0       -0.924726   -1.892816    1.015690
     19          6           0       -3.561105   -0.000231   -0.000088
     20          1           0       -3.395340    1.903685   -0.998580
     21          1           0       -3.394848   -1.903862    0.998881
     22          1           0       -4.647081   -0.000420   -0.000132
 ---------------------------------------------------------------------
 Rotational constants (GHZ):           2.8585222           0.5355295           0.4837377
 Leave Link  202 at Sat Nov  5 21:36:17 2022, MaxMem= 16106127360 cpu:               0.4 elap:               0.0
 (Enter /opt/ap/G16/B01/g16/l301.exe)
 Standard basis: 6-311++G(d,p) (5D, 7F)
 Ernie: Thresh=  0.10000D-02 Tol=  0.10000D-05 Strict=F.
 There are   346 symmetry adapted cartesian basis functions of A   symmetry.
 There are   334 symmetry adapted basis functions of A   symmetry.
   334 basis functions,   522 primitive gaussians,   346 cartesian basis functions
    41 alpha electrons       41 beta electrons
       nuclear repulsion energy       598.4111603540 Hartrees.
 IExCor= 4639 DFT=T Ex+Corr=wB97XD ExCW=0 ScaHFX=  1.000000
 ScaDFX=  1.000000  1.000000  1.000000  1.000000 ScalE2=  1.000000  1.000000
 IRadAn=      5 IRanWt=     -1 IRanGd=            0 ICorTp=0 IEmpDi=121
 HFx  wShort=  0.000000 wLong=  0.200000 cFull=  0.222036 cShort=  0.000000 cLong=  0.777964
 DFx  wShort=  0.000000 wLong=  0.200000 cFull=  0.000000 cShort=  0.000000 cLong=  1.000000
 NAtoms=   22 NActive=   22 NUniq=   22 SFac= 1.00D+00 NAtFMM=   60 NAOKFM=F Big=F
 Integral buffers will be    131072 words long.
 Raffenetti 2 integral format.
 Two-electron integral symmetry is turned on.
 R6Disp:  Grimme-D2 Dispersion energy=       -0.0120297698 Hartrees.
 Nuclear repulsion after empirical dispersion term =      598.3991305841 Hartrees.
 Leave Link  301 at Sat Nov  5 21:36:17 2022, MaxMem= 16106127360 cpu:               1.4 elap:               0.1
 (Enter /opt/ap/G16/B01/g16/l302.exe)
 NPDir=0 NMtPBC=     1 NCelOv=     1 NCel=       1 NClECP=     1 NCelD=      1
         NCelK=      1 NCelE2=     1 NClLst=     1 CellRange=     0.0.
 One-electron integrals computed using PRISM.
 One-electron integral symmetry used in STVInt
 NBasis=   334 RedAO= T EigKep=  2.03D-06  NBF=   334
 NBsUse=   332 1.00D-06 EigRej=  6.96D-07 NBFU=   332
 Precomputing XC quadrature grid using
 IXCGrd= 4 IRadAn=           5 IRanWt=          -1 IRanGd=           0 AccXCQ= 0.00D+00.
 Generated NRdTot=       0 NPtTot=           0 NUsed=           0 NTot=          32
 NSgBfM=   346   346   346   346   346 MxSgAt=    22 MxSgA2=    22.
 Leave Link  302 at Sat Nov  5 21:36:17 2022, MaxMem= 16106127360 cpu:               7.4 elap:               0.2
 (Enter /opt/ap/G16/B01/g16/l303.exe)
 DipDrv:  MaxL=1.
 Leave Link  303 at Sat Nov  5 21:36:17 2022, MaxMem= 16106127360 cpu:               1.5 elap:               0.1
 (Enter /opt/ap/G16/B01/g16/l401.exe)
 ExpMin= 3.60D-02 ExpMax= 4.56D+03 ExpMxC= 6.82D+02 IAcc=3 IRadAn=         5 AccDes= 0.00D+00
 Harris functional with IExCor= 4639 and IRadAn=       5 diagonalized for initial guess.
 HarFok:  IExCor= 4639 AccDes= 0.00D+00 IRadAn=         5 IDoV= 1 UseB2=F ITyADJ=14
 ICtDFT=  3500011 ScaDFX=  1.000000  1.000000  1.000000  1.000000
 FoFCou: FMM=F IPFlag=           0 FMFlag=      100000 FMFlg1=           0
         NFxFlg=           0 DoJE=T BraDBF=F KetDBF=T FulRan=T
         wScrn=  0.000000 ICntrl=       500 IOpCl=  0 I1Cent=   200000004 NGrid=           0
         NMat0=    1 NMatS0=      1 NMatT0=    0 NMatD0=    1 NMtDS0=    0 NMtDT0=    0
 Petite list used in FoFCou.
 Harris En= -441.938988647995    
 JPrj=0 DoOrth=F DoCkMO=F.
 Leave Link  401 at Sat Nov  5 21:36:18 2022, MaxMem= 16106127360 cpu:              19.9 elap:               0.6
 (Enter /opt/ap/G16/B01/g16/l502.exe)
 Integral symmetry usage will be decided dynamically.
 Closed shell SCF:
 Using DIIS extrapolation, IDIIS=  1040.
 NGot= 16106127360 LenX= 16105873520 LenY= 16105753363
 Requested convergence on RMS density matrix=1.00D-08 within 512 cycles.
 Requested convergence on MAX density matrix=1.00D-06.
 Requested convergence on             energy=1.00D-06.
 No special actions if energy rises.
 Fock matrices will be formed incrementally for  20 cycles.

 Cycle   1  Pass 1  IDiag  1:
 FoFJK:  IHMeth= 1 ICntrl=       0 DoSepK=T KAlg= 0 I1Cent=           0 FoldK=F
 IRaf=         1 NMat=       1 IRICut=       1 DoRegI=T DoRafI=F ISym2E= 0 IDoP0=0 IntGTp=1.
 FoFCou: FMM=F IPFlag=           0 FMFlag=      100000 FMFlg1=           0
         NFxFlg=           0 DoJE=T BraDBF=F KetDBF=F FulRan=T
         wScrn=  0.000000 ICntrl=       500 IOpCl=  0 I1Cent=           0 NGrid=           0
         NMat0=    1 NMatS0=      1 NMatT0=    0 NMatD0=    1 NMtDS0=    0 NMtDT0=    0
 Symmetry not used in FoFCou.
 E= -463.152995230357    
 DIIS: error= 6.53D-02 at cycle   1 NSaved=   1.
 NSaved= 1 IEnMin= 1 EnMin= -463.152995230357     IErMin= 1 ErrMin= 6.53D-02
 ErrMax= 6.53D-02  0.00D+00 EMaxC= 1.00D-01 BMatC= 9.52D-01 BMatP= 9.52D-01
 IDIUse=3 WtCom= 3.47D-01 WtEn= 6.53D-01
 Coeff-Com:  0.100D+01
 Coeff-En:   0.100D+01
 Coeff:      0.100D+01
 Gap=     0.338 Goal=   None    Shift=    0.000
 GapD=    0.338 DampG=1.000 DampE=0.500 DampFc=0.5000 IDamp=-1.
 Damping current iteration by 5.00D-01
 RMSDP=5.89D-02 MaxDP=4.04D+00              OVMax= 4.24D-02

 Cycle   2  Pass 1  IDiag  1:
 RMSU=  4.79D-03    CP:  7.60D-01
 E= -463.201928014213     Delta-E=       -0.048932783856 Rises=F Damp=T
 DIIS: error= 3.12D-02 at cycle   2 NSaved=   2.
 NSaved= 2 IEnMin= 2 EnMin= -463.201928014213     IErMin= 2 ErrMin= 3.12D-02
 ErrMax= 3.12D-02  0.00D+00 EMaxC= 1.00D-01 BMatC= 2.16D-01 BMatP= 9.52D-01
 IDIUse=3 WtCom= 6.88D-01 WtEn= 3.12D-01
 Coeff-Com: -0.883D+00 0.188D+01
 Coeff-En:   0.000D+00 0.100D+01
 Coeff:     -0.607D+00 0.161D+01
 Gap=     0.353 Goal=   None    Shift=    0.000
 RMSDP=2.54D-02 MaxDP=1.63D+00 DE=-4.89D-02 OVMax= 3.74D-02

 Cycle   3  Pass 1  IDiag  1:
 RMSU=  3.11D-03    CP:  5.51D-01  1.32D+00
 E= -463.245701389097     Delta-E=       -0.043773374885 Rises=F Damp=F
 DIIS: error= 5.44D-03 at cycle   3 NSaved=   3.
 NSaved= 3 IEnMin= 3 EnMin= -463.245701389097     IErMin= 3 ErrMin= 5.44D-03
 ErrMax= 5.44D-03  0.00D+00 EMaxC= 1.00D-01 BMatC= 4.55D-03 BMatP= 2.16D-01
 IDIUse=3 WtCom= 9.46D-01 WtEn= 5.44D-02
 Coeff-Com: -0.368D+00 0.784D+00 0.584D+00
 Coeff-En:   0.000D+00 0.000D+00 0.100D+01
 Coeff:     -0.348D+00 0.741D+00 0.607D+00
 Gap=     0.342 Goal=   None    Shift=    0.000
 RMSDP=3.96D-03 MaxDP=3.20D-01 DE=-4.38D-02 OVMax= 2.16D-02

 Cycle   4  Pass 1  IDiag  1:
 RMSU=  1.08D-03    CP:  5.23D-01  1.58D+00  6.50D-01
 E= -463.249745705382     Delta-E=       -0.004044316284 Rises=F Damp=F
 DIIS: error= 1.68D-03 at cycle   4 NSaved=   4.
 NSaved= 4 IEnMin= 4 EnMin= -463.249745705382     IErMin= 4 ErrMin= 1.68D-03
 ErrMax= 1.68D-03  0.00D+00 EMaxC= 1.00D-01 BMatC= 2.92D-04 BMatP= 4.55D-03
 IDIUse=3 WtCom= 9.83D-01 WtEn= 1.68D-02
 Coeff-Com: -0.131D+00 0.281D+00 0.289D+00 0.562D+00
 Coeff-En:   0.000D+00 0.000D+00 0.000D+00 0.100D+01
 Coeff:     -0.129D+00 0.276D+00 0.284D+00 0.569D+00
 Gap=     0.341 Goal=   None    Shift=    0.000
 RMSDP=8.70D-04 MaxDP=4.40D-02 DE=-4.04D-03 OVMax= 5.54D-03

 Cycle   5  Pass 1  IDiag  1:
 RMSU=  3.28D-04    CP:  5.18D-01  1.55D+00  7.53D-01  6.14D-01
 E= -463.250052535216     Delta-E=       -0.000306829834 Rises=F Damp=F
 DIIS: error= 2.94D-04 at cycle   5 NSaved=   5.
 NSaved= 5 IEnMin= 5 EnMin= -463.250052535216     IErMin= 5 ErrMin= 2.94D-04
 ErrMax= 2.94D-04  0.00D+00 EMaxC= 1.00D-01 BMatC= 8.56D-06 BMatP= 2.92D-04
 IDIUse=3 WtCom= 9.97D-01 WtEn= 2.94D-03
 Coeff-Com:  0.272D-01-0.582D-01-0.300D-01 0.120D+00 0.941D+00
 Coeff-En:   0.000D+00 0.000D+00 0.000D+00 0.000D+00 0.100D+01
 Coeff:      0.272D-01-0.580D-01-0.299D-01 0.120D+00 0.941D+00
 Gap=     0.341 Goal=   None    Shift=    0.000
 RMSDP=1.67D-04 MaxDP=1.07D-02 DE=-3.07D-04 OVMax= 1.53D-03

 Cycle   6  Pass 1  IDiag  1:
 RMSU=  6.06D-05    CP:  5.18D-01  1.54D+00  7.75D-01  6.90D-01  1.25D+00
 E= -463.250064088748     Delta-E=       -0.000011553532 Rises=F Damp=F
 DIIS: error= 5.91D-05 at cycle   6 NSaved=   6.
 NSaved= 6 IEnMin= 6 EnMin= -463.250064088748     IErMin= 6 ErrMin= 5.91D-05
 ErrMax= 5.91D-05  0.00D+00 EMaxC= 1.00D-01 BMatC= 5.09D-07 BMatP= 8.56D-06
 IDIUse=1 WtCom= 1.00D+00 WtEn= 0.00D+00
 Coeff-Com:  0.123D-01-0.264D-01-0.161D-01 0.308D-01 0.339D+00 0.660D+00
 Coeff:      0.123D-01-0.264D-01-0.161D-01 0.308D-01 0.339D+00 0.660D+00
 Gap=     0.342 Goal=   None    Shift=    0.000
 RMSDP=5.91D-05 MaxDP=4.44D-03 DE=-1.16D-05 OVMax= 2.51D-04

 Cycle   7  Pass 1  IDiag  1:
 RMSU=  1.23D-05    CP:  5.18D-01  1.53D+00  7.81D-01  6.88D-01  1.31D+00
                    CP:  1.16D+00
 E= -463.250064675974     Delta-E=       -0.000000587226 Rises=F Damp=F
 DIIS: error= 1.90D-05 at cycle   7 NSaved=   7.
 NSaved= 7 IEnMin= 7 EnMin= -463.250064675974     IErMin= 7 ErrMin= 1.90D-05
 ErrMax= 1.90D-05  0.00D+00 EMaxC= 1.00D-01 BMatC= 5.29D-08 BMatP= 5.09D-07
 IDIUse=1 WtCom= 1.00D+00 WtEn= 0.00D+00
 Coeff-Com: -0.219D-02 0.472D-02 0.203D-02-0.178D-01-0.105D+00 0.159D+00
 Coeff-Com:  0.960D+00
 Coeff:     -0.219D-02 0.472D-02 0.203D-02-0.178D-01-0.105D+00 0.159D+00
 Coeff:      0.960D+00
 Gap=     0.342 Goal=   None    Shift=    0.000
 RMSDP=3.30D-05 MaxDP=2.32D-03 DE=-5.87D-07 OVMax= 1.91D-04

 Cycle   8  Pass 1  IDiag  1:
 RMSU=  3.92D-06    CP:  5.18D-01  1.53D+00  7.85D-01  6.88D-01  1.36D+00
                    CP:  1.35D+00  1.23D+00
 E= -463.250064771266     Delta-E=       -0.000000095292 Rises=F Damp=F
 DIIS: error= 3.52D-06 at cycle   8 NSaved=   8.
 NSaved= 8 IEnMin= 8 EnMin= -463.250064771266     IErMin= 8 ErrMin= 3.52D-06
 ErrMax= 3.52D-06  0.00D+00 EMaxC= 1.00D-01 BMatC= 1.55D-09 BMatP= 5.29D-08
 IDIUse=1 WtCom= 1.00D+00 WtEn= 0.00D+00
 Coeff-Com: -0.444D-03 0.950D-03 0.625D-03-0.204D-02-0.121D-01-0.709D-02
 Coeff-Com: -0.434D-02 0.102D+01
 Coeff:     -0.444D-03 0.950D-03 0.625D-03-0.204D-02-0.121D-01-0.709D-02
 Coeff:     -0.434D-02 0.102D+01
 Gap=     0.342 Goal=   None    Shift=    0.000
 RMSDP=7.54D-06 MaxDP=6.08D-04 DE=-9.53D-08 OVMax= 4.11D-05

 Cycle   9  Pass 1  IDiag  1:
 RMSU=  5.57D-07    CP:  5.18D-01  1.53D+00  7.85D-01  6.87D-01  1.37D+00
                    CP:  1.39D+00  1.32D+00  1.29D+00
 E= -463.250064775446     Delta-E=       -0.000000004180 Rises=F Damp=F
 DIIS: error= 1.88D-06 at cycle   9 NSaved=   9.
 NSaved= 9 IEnMin= 9 EnMin= -463.250064775446     IErMin= 9 ErrMin= 1.88D-06
 ErrMax= 1.88D-06  0.00D+00 EMaxC= 1.00D-01 BMatC= 3.26D-10 BMatP= 1.55D-09
 IDIUse=1 WtCom= 1.00D+00 WtEn= 0.00D+00
 Coeff-Com:  0.163D-03-0.353D-03-0.546D-04 0.183D-02 0.113D-01-0.214D-01
 Coeff-Com: -0.145D+00 0.343D+00 0.810D+00
 Coeff:      0.163D-03-0.353D-03-0.546D-04 0.183D-02 0.113D-01-0.214D-01
 Coeff:     -0.145D+00 0.343D+00 0.810D+00
 Gap=     0.342 Goal=   None    Shift=    0.000
 RMSDP=1.72D-06 MaxDP=1.27D-04 DE=-4.18D-09 OVMax= 1.97D-05

 Cycle  10  Pass 1  IDiag  1:
 RMSU=  1.98D-07    CP:  5.18D-01  1.53D+00  7.85D-01  6.87D-01  1.37D+00
                    CP:  1.40D+00  1.34D+00  1.41D+00  1.33D+00
 E= -463.250064776157     Delta-E=       -0.000000000711 Rises=F Damp=F
 DIIS: error= 4.19D-07 at cycle  10 NSaved=  10.
 NSaved=10 IEnMin=10 EnMin= -463.250064776157     IErMin=10 ErrMin= 4.19D-07
 ErrMax= 4.19D-07  0.00D+00 EMaxC= 1.00D-01 BMatC= 3.57D-11 BMatP= 3.26D-10
 IDIUse=1 WtCom= 1.00D+00 WtEn= 0.00D+00
 Coeff-Com:  0.687D-04-0.147D-03-0.571D-04 0.543D-03 0.294D-02-0.207D-02
 Coeff-Com: -0.275D-01-0.620D-01 0.203D+00 0.885D+00
 Coeff:      0.687D-04-0.147D-03-0.571D-04 0.543D-03 0.294D-02-0.207D-02
 Coeff:     -0.275D-01-0.620D-01 0.203D+00 0.885D+00
 Gap=     0.342 Goal=   None    Shift=    0.000
 RMSDP=3.48D-07 MaxDP=2.50D-05 DE=-7.11D-10 OVMax= 4.79D-06

 Cycle  11  Pass 1  IDiag  1:
 RMSU=  7.41D-08    CP:  5.18D-01  1.53D+00  7.85D-01  6.87D-01  1.37D+00
                    CP:  1.40D+00  1.34D+00  1.43D+00  1.48D+00  1.24D+00
 E= -463.250064776215     Delta-E=       -0.000000000059 Rises=F Damp=F
 DIIS: error= 1.08D-07 at cycle  11 NSaved=  11.
 NSaved=11 IEnMin=11 EnMin= -463.250064776215     IErMin=11 ErrMin= 1.08D-07
 ErrMax= 1.08D-07  0.00D+00 EMaxC= 1.00D-01 BMatC= 1.42D-12 BMatP= 3.57D-11
 IDIUse=1 WtCom= 1.00D+00 WtEn= 0.00D+00
 Coeff-Com: -0.185D-04 0.403D-04 0.148D-04-0.197D-03-0.124D-02 0.240D-02
 Coeff-Com:  0.136D-01-0.240D-01-0.501D-01-0.157D+00 0.122D+01
 Coeff:     -0.185D-04 0.403D-04 0.148D-04-0.197D-03-0.124D-02 0.240D-02
 Coeff:      0.136D-01-0.240D-01-0.501D-01-0.157D+00 0.122D+01
 Gap=     0.342 Goal=   None    Shift=    0.000
 RMSDP=2.70D-07 MaxDP=2.02D-05 DE=-5.89D-11 OVMax= 1.15D-06

 Cycle  12  Pass 1  IDiag  1:
 RMSU=  2.11D-08    CP:  5.18D-01  1.53D+00  7.85D-01  6.87D-01  1.37D+00
                    CP:  1.39D+00  1.34D+00  1.42D+00  1.54D+00  1.39D+00
                    CP:  1.24D+00
 E= -463.250064776220     Delta-E=       -0.000000000004 Rises=F Damp=F
 DIIS: error= 2.31D-08 at cycle  12 NSaved=  12.
 NSaved=12 IEnMin=12 EnMin= -463.250064776220     IErMin=12 ErrMin= 2.31D-08
 ErrMax= 2.31D-08  0.00D+00 EMaxC= 1.00D-01 BMatC= 8.91D-14 BMatP= 1.42D-12
 IDIUse=1 WtCom= 1.00D+00 WtEn= 0.00D+00
 Coeff-Com: -0.171D-05 0.362D-05 0.255D-05-0.897D-05-0.381D-04-0.279D-04
 Coeff-Com: -0.141D-04 0.447D-02-0.233D-03-0.505D-01-0.110D+00 0.116D+01
 Coeff:     -0.171D-05 0.362D-05 0.255D-05-0.897D-05-0.381D-04-0.279D-04
 Coeff:     -0.141D-04 0.447D-02-0.233D-03-0.505D-01-0.110D+00 0.116D+01
 Gap=     0.342 Goal=   None    Shift=    0.000
 RMSDP=5.53D-08 MaxDP=4.04D-06 DE=-4.09D-12 OVMax= 3.34D-07

 Cycle  13  Pass 1  IDiag  1:
 RMSU=  5.16D-09    CP:  5.18D-01  1.53D+00  7.85D-01  6.87D-01  1.37D+00
                    CP:  1.39D+00  1.33D+00  1.42D+00  1.55D+00  1.41D+00
                    CP:  1.28D+00  1.34D+00
 E= -463.250064776222     Delta-E=       -0.000000000003 Rises=F Damp=F
 DIIS: error= 5.44D-09 at cycle  13 NSaved=  13.
 NSaved=13 IEnMin=13 EnMin= -463.250064776222     IErMin=13 ErrMin= 5.44D-09
 ErrMax= 5.44D-09  0.00D+00 EMaxC= 1.00D-01 BMatC= 4.24D-15 BMatP= 8.91D-14
 IDIUse=1 WtCom= 1.00D+00 WtEn= 0.00D+00
 Coeff-Com:  0.628D-06-0.137D-05-0.461D-06 0.748D-05 0.516D-04-0.103D-03
 Coeff-Com: -0.647D-03 0.168D-02 0.316D-02-0.141D-02-0.737D-01 0.162D+00
 Coeff-Com:  0.909D+00
 Coeff:      0.628D-06-0.137D-05-0.461D-06 0.748D-05 0.516D-04-0.103D-03
 Coeff:     -0.647D-03 0.168D-02 0.316D-02-0.141D-02-0.737D-01 0.162D+00
 Coeff:      0.909D+00
 Gap=     0.342 Goal=   None    Shift=    0.000
 RMSDP=4.99D-09 MaxDP=3.58D-07 DE=-2.50D-12 OVMax= 6.71D-08

 SCF Done:  E(RwB97XD) =  -463.250064776     A.U. after   13 cycles
            NFock= 13  Conv=0.50D-08     -V/T= 2.0049
 KE= 4.610084162104D+02 PE=-2.271095001647D+03 EE= 7.484373900763D+02
 Leave Link  502 at Sat Nov  5 21:36:41 2022, MaxMem= 16106127360 cpu:             744.9 elap:              23.3
 (Enter /opt/ap/G16/B01/g16/l601.exe)
 Copying SCF densities to generalized density rwf, IOpCl= 0 IROHF=0.

 **********************************************************************

            Population analysis using the SCF Density.

 **********************************************************************

 Orbital symmetries:
       Occupied  (A) (A) (A) (A) (A) (A) (A) (A) (A) (A) (A) (A)
                 (A) (A) (A) (A) (A) (A) (A) (A) (A) (A) (A) (A)
                 (A) (A) (A) (A) (A) (A) (A) (A) (A) (A) (A) (A)
                 (A) (A) (A) (A) (A)
       Virtual   (A) (A) (A) (A) (A) (A) (A) (A) (A) (A) (A) (A)
                 (A) (A) (A) (A) (A) (A) (A) (A) (A) (A) (A) (A)
                 (A) (A) (A) (A) (A) (A) (A) (A) (A) (A) (A) (A)
                 (A) (A) (A) (A) (A) (A) (A) (A) (A) (A) (A) (A)
                 (A) (A) (A) (A) (A) (A) (A) (A) (A) (A) (A) (A)
                 (A) (A) (A) (A) (A) (A) (A) (A) (A) (A) (A) (A)
                 (A) (A) (A) (A) (A) (A) (A) (A) (A) (A) (A) (A)
                 (A) (A) (A) (A) (A) (A) (A) (A) (A) (A) (A) (A)
                 (A) (A) (A) (A) (A) (A) (A) (A) (A) (A) (A) (A)
                 (A) (A) (A) (A) (A) (A) (A) (A) (A) (A) (A) (A)
                 (A) (A) (A) (A) (A) (A) (A) (A) (A) (A) (A) (A)
                 (A) (A) (A) (A) (A) (A) (A) (A) (A) (A) (A) (A)
                 (A) (A) (A) (A) (A) (A) (A) (A) (A) (A) (A) (A)
                 (A) (A) (A) (A) (A) (A) (A) (A) (A) (A) (A) (A)
                 (A) (A) (A) (A) (A) (A) (A) (A) (A) (A) (A) (A)
                 (A) (A) (A) (A) (A) (A) (A) (A) (A) (A) (A) (A)
                 (A) (A) (A) (A) (A) (A) (A) (A) (A) (A) (A) (A)
                 (A) (A) (A) (A) (A) (A) (A) (A) (A) (A) (A) (A)
                 (A) (A) (A) (A) (A) (A) (A) (A) (A) (A) (A) (A)
                 (A) (A) (A) (A) (A) (A) (A) (A) (A) (A) (A) (A)
                 (A) (A) (A) (A) (A) (A) (A) (A) (A) (A) (A) (A)
                 (A) (A) (A) (A) (A) (A) (A) (A) (A) (A) (A) (A)
                 (A) (A) (A) (A) (A) (A) (A) (A) (A) (A) (A) (A)
                 (A) (A) (A) (A) (A) (A) (A) (A) (A) (A) (A) (A)
                 (A) (A) (A)
 The electronic state is 1-A.
 Alpha  occ. eigenvalues --  -10.30453 -10.30423 -10.29344 -10.29343 -10.29332
 Alpha  occ. eigenvalues --  -10.29332 -10.29260 -10.29259 -10.29252 -10.29252
 Alpha  occ. eigenvalues --  -10.29225 -10.29224  -0.97558  -0.95316  -0.88195
 Alpha  occ. eigenvalues --   -0.85283  -0.84750  -0.82382  -0.72338  -0.71313
 Alpha  occ. eigenvalues --   -0.69305  -0.67495  -0.62616  -0.59475  -0.56007
 Alpha  occ. eigenvalues --   -0.55408  -0.53435  -0.53378  -0.51158  -0.50867
 Alpha  occ. eigenvalues --   -0.50847  -0.46601  -0.45452  -0.45426  -0.43362
 Alpha  occ. eigenvalues --   -0.42361  -0.42044  -0.35120  -0.33655  -0.33279
 Alpha  occ. eigenvalues --   -0.31035
 Alpha virt. eigenvalues --    0.03124   0.03867   0.04555   0.04569   0.04948
 Alpha virt. eigenvalues --    0.05573   0.05748   0.05975   0.07140   0.07222
 Alpha virt. eigenvalues --    0.07395   0.07766   0.09275   0.09340   0.12303
 Alpha virt. eigenvalues --    0.12723   0.12984   0.13315   0.15149   0.15260
 Alpha virt. eigenvalues --    0.15637   0.15763   0.16049   0.16460   0.16958
 Alpha virt. eigenvalues --    0.17452   0.17471   0.17717   0.17937   0.18081
 Alpha virt. eigenvalues --    0.18437   0.18665   0.18935   0.19487   0.19758
 Alpha virt. eigenvalues --    0.20213   0.20706   0.22175   0.22259   0.22334
 Alpha virt. eigenvalues --    0.22645   0.22882   0.23738   0.23774   0.25356
 Alpha virt. eigenvalues --    0.26058   0.26317   0.26337   0.27322   0.27518
 Alpha virt. eigenvalues --    0.27630   0.28482   0.28625   0.29231   0.30640
 Alpha virt. eigenvalues --    0.30950   0.31207   0.31728   0.32305   0.32420
 Alpha virt. eigenvalues --    0.33589   0.33906   0.35117   0.35284   0.35303
 Alpha virt. eigenvalues --    0.35367   0.36103   0.36244   0.36296   0.36924
 Alpha virt. eigenvalues --    0.38084   0.38527   0.39078   0.41142   0.42781
 Alpha virt. eigenvalues --    0.42800   0.43197   0.43227   0.45736   0.46868
 Alpha virt. eigenvalues --    0.48094   0.55991   0.58381   0.61169   0.61259
 Alpha virt. eigenvalues --    0.61534   0.61634   0.62203   0.62929   0.63289
 Alpha virt. eigenvalues --    0.63943   0.64060   0.64464   0.65517   0.65629
 Alpha virt. eigenvalues --    0.65746   0.67272   0.68160   0.68703   0.70399
 Alpha virt. eigenvalues --    0.71490   0.71928   0.72714   0.74124   0.74521
 Alpha virt. eigenvalues --    0.78006   0.78340   0.78691   0.79372   0.79540
 Alpha virt. eigenvalues --    0.80815   0.81258   0.81298   0.81947   0.82690
 Alpha virt. eigenvalues --    0.83031   0.85434   0.86123   0.88275   0.89459
 Alpha virt. eigenvalues --    0.90103   0.91828   0.93409   0.93651   0.93698
 Alpha virt. eigenvalues --    0.95374   0.96304   0.96437   0.96664   0.98677
 Alpha virt. eigenvalues --    0.99932   1.00650   1.02110   1.02897   1.03627
 Alpha virt. eigenvalues --    1.03747   1.07302   1.09054   1.10907   1.11047
 Alpha virt. eigenvalues --    1.11107   1.13941   1.15114   1.15574   1.16363
 Alpha virt. eigenvalues --    1.17138   1.20817   1.22423   1.23226   1.24830
 Alpha virt. eigenvalues --    1.25203   1.37884   1.40871   1.41268   1.42822
 Alpha virt. eigenvalues --    1.52451   1.57697   1.58607   1.59300   1.59742
 Alpha virt. eigenvalues --    1.61502   1.61550   1.61723   1.62707   1.65218
 Alpha virt. eigenvalues --    1.65409   1.65758   1.67244   1.69887   1.71940
 Alpha virt. eigenvalues --    1.73429   1.74496   1.74785   1.74852   1.75559
 Alpha virt. eigenvalues --    1.79849   1.82539   1.82737   1.83628   1.86103
 Alpha virt. eigenvalues --    1.86166   1.88203   1.88450   1.91721   1.92366
 Alpha virt. eigenvalues --    1.93361   1.98560   2.00143   2.01072   2.01540
 Alpha virt. eigenvalues --    2.02967   2.03758   2.03958   2.04601   2.04854
 Alpha virt. eigenvalues --    2.06217   2.06415   2.08493   2.09843   2.10696
 Alpha virt. eigenvalues --    2.11116   2.14236   2.16817   2.16884   2.19156
 Alpha virt. eigenvalues --    2.21770   2.31279   2.34989   2.35699   2.40918
 Alpha virt. eigenvalues --    2.45287   2.50862   2.51758   2.52636   2.52918
 Alpha virt. eigenvalues --    2.55677   2.55927   2.56173   2.57407   2.61559
 Alpha virt. eigenvalues --    2.70834   2.73327   2.74194   2.75644   2.75998
 Alpha virt. eigenvalues --    2.79205   2.79406   2.80084   2.80401   2.81885
 Alpha virt. eigenvalues --    2.82434   2.82687   2.84242   2.85774   2.87304
 Alpha virt. eigenvalues --    2.87970   2.89246   2.89814   2.91793   2.92260
 Alpha virt. eigenvalues --    2.92279   2.92651   2.97320   2.98408   3.00410
 Alpha virt. eigenvalues --    3.02488   3.03709   3.04009   3.05033   3.11631
 Alpha virt. eigenvalues --    3.14953   3.18938   3.21593   3.27346   3.29807
 Alpha virt. eigenvalues --    3.32858   3.44059   3.46763   3.47741   3.48770
 Alpha virt. eigenvalues --    3.58689   3.60629   3.63263   3.63474   3.68105
 Alpha virt. eigenvalues --    3.73400   3.75211   3.91381   4.08556   4.10105
 Alpha virt. eigenvalues --    4.13491   4.14643   4.24401   4.25032   4.25554
 Alpha virt. eigenvalues --    4.26825   4.53266   4.93074   4.95478  23.70790
 Alpha virt. eigenvalues --   23.85100  24.06947  24.09290  24.09550  24.10938
 Alpha virt. eigenvalues --   24.17597  24.21831  24.22055  24.22573  24.30829
 Alpha virt. eigenvalues --   24.32130
          Condensed to atoms (all electrons):
               1          2          3          4          5          6
     1  C   18.054910   0.420366   0.420618  -1.839895   0.048415  -5.733769
     2  C    0.420366  14.214531  -4.762279  -0.211607   0.448238  -2.988172
     3  C    0.420618  -4.762279  14.215884  -1.036498   0.026390  -2.987772
     4  C   -1.839895  -0.211607  -1.036498   6.830134  -0.076947   1.394079
     5  H    0.048415   0.448238   0.026390  -0.076947   0.463412  -0.081118
     6  C   -5.733769  -2.988172  -2.987772   1.394079  -0.081118  18.054429
     7  C   -1.841058  -1.037375  -0.213651   0.327663  -0.019775   1.396342
     8  H    0.048460   0.026356   0.448389  -0.019746   0.000939  -0.081234
     9  C   -0.126924   0.618410   0.618207  -0.055099   0.022917  -1.235396
    10  H    0.029913  -0.116393  -0.019642   0.443970  -0.010226   0.047557
    11  C   -2.988707   0.805416  -1.215870   0.471461  -0.011444   0.420431
    12  C   -2.987409  -1.215857   0.805430   0.071890  -0.041536   0.420904
    13  H    0.029907  -0.019634  -0.116466   0.024771  -0.000304   0.047566
    14  H    0.029612   0.016545   0.016533  -0.054820   0.000561  -0.031971
    15  C    1.393912   0.472013   0.071267   0.008075   0.014157  -1.839729
    16  H   -0.081138  -0.011469  -0.041494   0.014162   0.000163   0.048449
    17  C    1.396569   0.072709   0.471349  -0.110697   0.021439  -1.841282
    18  H   -0.081222  -0.041568  -0.011469   0.021424  -0.002982   0.048497
    19  C   -1.235618  -0.122733  -0.122189   0.051265  -0.014138  -0.126971
    20  H    0.047552   0.000077   0.007189  -0.001085   0.000475   0.029885
    21  H    0.047586   0.007233   0.000025  -0.001075   0.000574   0.029905
    22  H   -0.031974  -0.003719  -0.003681   0.001346  -0.000402   0.029614
               7          8          9         10         11         12
     1  C   -1.841058   0.048460  -0.126924   0.029913  -2.988707  -2.987409
     2  C   -1.037375   0.026356   0.618410  -0.116393   0.805416  -1.215857
     3  C   -0.213651   0.448389   0.618207  -0.019642  -1.215870   0.805430
     4  C    0.327663  -0.019746  -0.055099   0.443970   0.471461   0.071890
     5  H   -0.019775   0.000939   0.022917  -0.010226  -0.011444  -0.041536
     6  C    1.396342  -0.081234  -1.235396   0.047557   0.420431   0.420904
     7  C    6.832155  -0.077010  -0.055570   0.024783   0.072201   0.471785
     8  H   -0.077010   0.463415   0.022906  -0.000303  -0.041560  -0.011457
     9  C   -0.055570   0.022906   6.531027  -0.090088  -0.122435  -0.122518
    10  H    0.024783  -0.000303  -0.090088   0.479108   0.000048   0.007213
    11  C    0.072201  -0.041560  -0.122435   0.000048  14.212748  -4.761631
    12  C    0.471785  -0.011457  -0.122518   0.007213  -4.761631  14.216064
    13  H    0.444028  -0.010226  -0.090073   0.000747   0.007216   0.000047
    14  H   -0.054837   0.000560   0.423428  -0.008681  -0.003698  -0.003703
    15  C   -0.110805   0.021416   0.051321  -0.001091  -0.209811  -1.038147
    16  H    0.021439  -0.002982  -0.014140   0.000475   0.448121   0.026459
    17  C    0.007641   0.014218   0.051403  -0.001078  -1.036305  -0.214870
    18  H    0.014206   0.000160  -0.014141   0.000574   0.026367   0.448413
    19  C    0.051480  -0.014143  -0.026848   0.000244   0.617434   0.619386
    20  H   -0.001081   0.000574   0.000244   0.000071  -0.116344  -0.019688
    21  H   -0.001100   0.000475   0.000244   0.000004  -0.019624  -0.116494
    22  H    0.001353  -0.000402  -0.000652   0.000010   0.016500   0.016582
              13         14         15         16         17         18
     1  C    0.029907   0.029612   1.393912  -0.081138   1.396569  -0.081222
     2  C   -0.019634   0.016545   0.472013  -0.011469   0.072709  -0.041568
     3  C   -0.116466   0.016533   0.071267  -0.041494   0.471349  -0.011469
     4  C    0.024771  -0.054820   0.008075   0.014162  -0.110697   0.021424
     5  H   -0.000304   0.000561   0.014157   0.000163   0.021439  -0.002982
     6  C    0.047566  -0.031971  -1.839729   0.048449  -1.841282   0.048497
     7  C    0.444028  -0.054837  -0.110805   0.021439   0.007641   0.014206
     8  H   -0.010226   0.000560   0.021416  -0.002982   0.014218   0.000160
     9  C   -0.090073   0.423428   0.051321  -0.014140   0.051403  -0.014141
    10  H    0.000747  -0.008681  -0.001091   0.000475  -0.001078   0.000574
    11  C    0.007216  -0.003698  -0.209811   0.448121  -1.036305   0.026367
    12  C    0.000047  -0.003703  -1.038147   0.026459  -0.214870   0.448413
    13  H    0.479106  -0.008680  -0.001076   0.000574  -0.001095   0.000475
    14  H   -0.008680   0.472542   0.001348  -0.000402   0.001351  -0.000402
    15  C   -0.001076   0.001348   6.829922  -0.076903   0.327728  -0.019767
    16  H    0.000574  -0.000402  -0.076903   0.463402  -0.019765   0.000940
    17  C   -0.001095   0.001351   0.327728  -0.019765   6.832289  -0.077068
    18  H    0.000475  -0.000402  -0.019767   0.000940  -0.077068   0.463417
    19  C    0.000244  -0.000652  -0.054983   0.022889  -0.055826   0.022925
    20  H    0.000004   0.000010   0.443970  -0.010222   0.024789  -0.000304
    21  H    0.000071   0.000010   0.024783  -0.000303   0.444043  -0.010227
    22  H    0.000010  -0.000011  -0.054790   0.000560  -0.054868   0.000561
              19         20         21         22
     1  C   -1.235618   0.047552   0.047586  -0.031974
     2  C   -0.122733   0.000077   0.007233  -0.003719
     3  C   -0.122189   0.007189   0.000025  -0.003681
     4  C    0.051265  -0.001085  -0.001075   0.001346
     5  H   -0.014138   0.000475   0.000574  -0.000402
     6  C   -0.126971   0.029885   0.029905   0.029614
     7  C    0.051480  -0.001081  -0.001100   0.001353
     8  H   -0.014143   0.000574   0.000475  -0.000402
     9  C   -0.026848   0.000244   0.000244  -0.000652
    10  H    0.000244   0.000071   0.000004   0.000010
    11  C    0.617434  -0.116344  -0.019624   0.016500
    12  C    0.619386  -0.019688  -0.116494   0.016582
    13  H    0.000244   0.000004   0.000071   0.000010
    14  H   -0.000652   0.000010   0.000010  -0.000011
    15  C   -0.054983   0.443970   0.024783  -0.054790
    16  H    0.022889  -0.010222  -0.000303   0.000560
    17  C   -0.055826   0.024789   0.444043  -0.054868
    18  H    0.022925  -0.000304  -0.010227   0.000561
    19  C    6.531238  -0.090072  -0.090097   0.423424
    20  H   -0.090072   0.479109   0.000747  -0.008680
    21  H   -0.090097   0.000747   0.479109  -0.008681
    22  H    0.423424  -0.008680  -0.008681   0.472542
 Mulliken charges:
               1
     1  C    0.979893
     2  C   -0.571087
     3  C   -0.570269
     4  C   -0.252768
     5  H    0.211192
     6  C    0.979757
     7  C   -0.252813
     8  H    0.211195
     9  C   -0.386222
    10  H    0.212784
    11  C   -0.570511
    12  C   -0.570863
    13  H    0.212787
    14  H    0.205358
    15  C   -0.252810
    16  H    0.211186
    17  C   -0.252672
    18  H    0.211193
    19  C   -0.386259
    20  H    0.212780
    21  H    0.212791
    22  H    0.205357
 Sum of Mulliken charges =  -0.00000
 Mulliken charges with hydrogens summed into heavy atoms:
               1
     1  C    0.979893
     2  C   -0.359896
     3  C   -0.359073
     4  C   -0.039984
     6  C    0.979757
     7  C   -0.040025
     9  C   -0.180864
    11  C   -0.359325
    12  C   -0.359670
    15  C   -0.040030
    17  C   -0.039881
    19  C   -0.180902
 Electronic spatial extent (au):  <R**2>=           2311.9901
 Charge=              0.0000 electrons
 Dipole moment (field-independent basis, Debye):
    X=              0.0000    Y=             -0.0001    Z=              0.0003  Tot=              0.0004
 Quadrupole moment (field-independent basis, Debye-Ang):
   XX=            -61.6999   YY=            -64.9608   ZZ=            -74.0570
   XY=             -0.0004   XZ=              0.0012   YZ=              0.0001
 Traceless Quadrupole moment (field-independent basis, Debye-Ang):
   XX=              5.2060   YY=              1.9451   ZZ=             -7.1511
   XY=             -0.0004   XZ=              0.0012   YZ=              0.0001
 Octapole moment (field-independent basis, Debye-Ang**2):
  XXX=              0.0001  YYY=              0.0011  ZZZ=              0.0024  XYY=             -0.0004
  XXY=             -0.0034  XXZ=              0.0013  XZZ=              0.0005  YZZ=             -0.0005
  YYZ=              0.0012  XYZ=             15.9455
 Hexadecapole moment (field-independent basis, Debye-Ang**3):
 XXXX=          -2301.6042 YYYY=           -466.2299 ZZZZ=           -210.3459 XXXY=             -0.0023
 XXXZ=              0.0251 YYYX=             -0.0088 YYYZ=              0.0002 ZZZX=              0.0012
 ZZZY=              0.0002 XXYY=           -479.8675 XXZZ=           -496.3955 YYZZ=           -103.6427
 XXYZ=              0.0013 YYXZ=              0.0012 ZZXY=              0.0043
 N-N= 5.983991305841D+02 E-N=-2.271095001337D+03  KE= 4.610084162104D+02
 No NMR shielding tensors so no spin-rotation constants.
 Leave Link  601 at Sat Nov  5 21:36:41 2022, MaxMem= 16106127360 cpu:               4.3 elap:               0.2
 (Enter /opt/ap/G16/B01/g16/l9999.exe)
 1\1\GINC-N04\SP\RwB97XD\6-311++G(d,p)\C12H10\ROOT\05-Nov-2022\0\\#P wB
 97XD/6-311++G(d,p) scf=maxcycle=512\\_conf029.gjf nmol_natom 1_22\\0,1
 \C\C,1,1.40491871\C,1,1.40495292,2,118.20503621\C,2,1.3939373,1,120.91
 08946,3,0.05365643,0\H,2,1.08593095,1,119.3452094,3,-178.3624307,0\C,1
 ,1.48449301,2,120.90144423,4,-179.96388019,0\C,3,1.39389842,1,120.9105
 0598,2,0.03587687,0\H,3,1.08593608,1,119.34159615,2,-178.38281524,0\C,
 4,1.39606958,2,120.24555868,1,-0.09283196,0\H,4,1.08627898,2,119.66792
 041,1,-179.51486187,0\C,6,1.40492034,1,120.90156908,2,55.,0\C,6,1.4049
 5329,1,120.89324856,2,-125.,0\H,7,1.08627928,3,119.67027175,1,-179.512
 58183,0\H,9,1.08597601,4,120.2602535,2,-179.95233103,0\C,11,1.39393437
 ,6,120.91099656,1,-179.95869964,0\H,11,1.08593173,6,119.34475907,1,1.6
 1891886,0\C,12,1.39390147,6,120.91022615,1,-179.94297913,0\H,12,1.0859
 3608,6,119.34175044,1,1.63241608,0\C,15,1.39607161,11,120.24535737,6,-
 0.10315482,0\H,15,1.08627786,11,119.66861247,6,-179.51844254,0\H,17,1.
 08627825,12,119.6702798,6,-179.51590091,0\H,19,1.08597601,15,120.25988
 597,11,-179.94731581,0\\Version=ES64L-G16RevB.01\State=1-A\HF=-463.250
 0648\RMSD=4.986e-09\Dipole=0.0000004,-0.0001446,0.0000167\Quadrupole=2
 .8512403,-3.8753361,1.0240958,-1.421904,1.7033694,2.3765826\PG=C01 [X(
 C12H10)]\\@


 THERE IS AN OLD, OLD RECIPE IN MAINE FOR STEWING COOT. PLACE THE
 BIRD IN A KETTLE OF WATER WITH A RED BUILDING BRICK FREE OF MORTAR AND
 BLEMISHES. PARBOIL THE COOT AND BRICK TOGETHER FOR THREE HOURS.
 POUR OFF THE WATER, REFILL THE KETTLE, AND AGAIN PARBOIL FOR THREE HOURS.
 ONCE AGAIN POUR OFF THE WATER, FOR THE LAST TIME ADD FRESH WATER,
 AND LET THE COOT AND BRICK SIMMER TOGETHER OVERNIGHT. IN THE MORNING,
 THROW AWAY THE COOT AND EAT THE BRICK.
 Job cpu time:       0 days  0 hours 13 minutes  8.6 seconds.
 Elapsed time:       0 days  0 hours  0 minutes 24.8 seconds.
 File lengths (MBytes):  RWF=     62 Int=      0 D2E=      0 Chk=      8 Scr=      1
 Normal termination of Gaussian 16 at Sat Nov  5 21:36:41 2022.
