 Entering Gaussian System, Link 0=g16
 Input=_conf009.gjf
 Output=_conf009.log
 Initial command:
 /opt/ap/G16/B01/g16/l1.exe "/tmp2/scr/Gau-23628.inp" -scrdir="/tmp2/scr/"
 Entering Link 1 = /opt/ap/G16/B01/g16/l1.exe PID=     23629.
  
 Copyright (c) 1988-2017, Gaussian, Inc.  All Rights Reserved.
  
 This is part of the Gaussian(R) 16 program.  It is based on
 the Gaussian(R) 09 system (copyright 2009, Gaussian, Inc.),
 the Gaussian(R) 03 system (copyright 2003, Gaussian, Inc.),
 the Gaussian(R) 98 system (copyright 1998, Gaussian, Inc.),
 the Gaussian(R) 94 system (copyright 1995, Gaussian, Inc.),
 the Gaussian 92(TM) system (copyright 1992, Gaussian, Inc.),
 the Gaussian 90(TM) system (copyright 1990, Gaussian, Inc.),
 the Gaussian 88(TM) system (copyright 1988, Gaussian, Inc.),
 the Gaussian 86(TM) system (copyright 1986, Carnegie Mellon
 University), and the Gaussian 82(TM) system (copyright 1983,
 Carnegie Mellon University). Gaussian is a federally registered
 trademark of Gaussian, Inc.
  
 This software contains proprietary and confidential information,
 including trade secrets, belonging to Gaussian, Inc.
  
 This software is provided under written license and may be
 used, copied, transmitted, or stored only in accord with that
 written license.
  
 The following legend is applicable only to US Government
 contracts under FAR:
  
                    RESTRICTED RIGHTS LEGEND
  
 Use, reproduction and disclosure by the US Government is
 subject to restrictions as set forth in subparagraphs (a)
 and (c) of the Commercial Computer Software - Restricted
 Rights clause in FAR 52.227-19.
  
 Gaussian, Inc.
 340 Quinnipiac St., Bldg. 40, Wallingford CT 06492
  
  
 ---------------------------------------------------------------
 Warning -- This program may not be used in any manner that
 competes with the business of Gaussian, Inc. or will provide
 assistance to any competitor of Gaussian, Inc.  The licensee
 of this program is prohibited from giving any competitor of
 Gaussian, Inc. access to this program.  By using this program,
 the user acknowledges that Gaussian, Inc. is engaged in the
 business of creating and licensing software in the field of
 computational chemistry and represents and warrants to the
 licensee that it is not a competitor of Gaussian, Inc. and that
 it will not use this program in any manner prohibited above.
 ---------------------------------------------------------------
  

 Cite this work as:
 Gaussian 16, Revision B.01,
 M. J. Frisch, G. W. Trucks, H. B. Schlegel, G. E. Scuseria, 
 M. A. Robb, J. R. Cheeseman, G. Scalmani, V. Barone, 
 G. A. Petersson, H. Nakatsuji, X. Li, M. Caricato, A. V. Marenich, 
 J. Bloino, B. G. Janesko, R. Gomperts, B. Mennucci, H. P. Hratchian, 
 J. V. Ortiz, A. F. Izmaylov, J. L. Sonnenberg, D. Williams-Young, 
 F. Ding, F. Lipparini, F. Egidi, J. Goings, B. Peng, A. Petrone, 
 T. Henderson, D. Ranasinghe, V. G. Zakrzewski, J. Gao, N. Rega, 
 G. Zheng, W. Liang, M. Hada, M. Ehara, K. Toyota, R. Fukuda, 
 J. Hasegawa, M. Ishida, T. Nakajima, Y. Honda, O. Kitao, H. Nakai, 
 T. Vreven, K. Throssell, J. A. Montgomery, Jr., J. E. Peralta, 
 F. Ogliaro, M. J. Bearpark, J. J. Heyd, E. N. Brothers, K. N. Kudin, 
 V. N. Staroverov, T. A. Keith, R. Kobayashi, J. Normand, 
 K. Raghavachari, A. P. Rendell, J. C. Burant, S. S. Iyengar, 
 J. Tomasi, M. Cossi, J. M. Millam, M. Klene, C. Adamo, R. Cammi, 
 J. W. Ochterski, R. L. Martin, K. Morokuma, O. Farkas, 
 J. B. Foresman, and D. J. Fox, Gaussian, Inc., Wallingford CT, 2016.
 
 ******************************************
 Gaussian 16:  ES64L-G16RevB.01 20-Dec-2017
                 5-Nov-2022 
 ******************************************
 %nprocshared=32
 Will use up to   32 processors via shared memory.
 %mem=120GB
 %chk=_conf009.chk
 ----------------------------------------
 #P wB97XD/6-311++G(d,p) scf=maxcycle=512
 ----------------------------------------
 1/38=1,172=1/1;
 2/12=2,17=6,18=5,40=1/2;
 3/5=4,6=6,7=1111,11=2,25=1,30=1,74=-58/1,2,3;
 4//1;
 5/5=2,7=512,38=5/2;
 6/7=2,8=2,9=2,10=2,28=1/1;
 99/5=1,9=1/99;
 Leave Link    1 at Sat Nov  5 21:34:07 2022, MaxMem= 16106127360 cpu:               1.8 elap:               0.1
 (Enter /opt/ap/G16/B01/g16/l101.exe)
 ----------------------------
 _conf009.gjf nmol_natom 1_22
 ----------------------------
 Symbolic Z-matrix:
 Charge =  0 Multiplicity = 1
 C
 C                    1     1.40492 
 C                    1     1.40495  2     118.20504 
 C                    2     1.39394  1     120.91089  3     0.05366  0
 H                    2     1.08593  1     119.34521  3    -178.36243  0
 C                    1     1.48449  2     120.90144  4    -179.96388  0
 C                    3     1.3939   1     120.91051  2     0.03588  0
 H                    3     1.08594  1     119.3416  2    -178.38282  0
 C                    4     1.39607  2     120.24556  1    -0.09283  0
 H                    4     1.08628  2     119.66792  1    -179.51486  0
 C                    6     1.40492  1     120.90157  2    -45.      0
 C                    6     1.40495  1     120.89325  2     135.     0
 H                    7     1.08628  3     119.67027  1    -179.51258  0
 H                    9     1.08598  4     120.26025  2    -179.95233  0
 C                    11    1.39393  6     120.911  1    -179.9587  0
 H                    11    1.08593  6     119.34476  1     1.61892  0
 C                    12    1.3939   6     120.91023  1    -179.94298  0
 H                    12    1.08594  6     119.34175  1     1.63242  0
 C                    15    1.39607  11    120.24536  6    -0.10315  0
 H                    15    1.08628  11    119.66861  6    -179.51844  0
 H                    17    1.08628  12    119.67028  6    -179.5159  0
 H                    19    1.08598  15    120.25989  11   -179.94732  0
 
 ITRead=  0  0  0  0  0  0  0  0  0  0  0  0  0  0  0  0  0  0  0  0
 ITRead=  0  0
 MicOpt= -1 -1 -1 -1 -1 -1 -1 -1 -1 -1 -1 -1 -1 -1 -1 -1 -1 -1 -1 -1
 MicOpt= -1 -1
 NAtoms=     22 NQM=       22 NQMF=       0 NMMI=      0 NMMIF=      0
                NMic=       0 NMicF=      0.
                    Isotopes and Nuclear Properties:
 (Nuclear quadrupole moments (NQMom) in fm**2, nuclear magnetic moments (NMagM)
  in nuclear magnetons)

  Atom         1           2           3           4           5           6           7           8           9          10
 IAtWgt=          12          12          12          12           1          12          12           1          12           1
 AtmWgt=  12.0000000  12.0000000  12.0000000  12.0000000   1.0078250  12.0000000  12.0000000   1.0078250  12.0000000   1.0078250
 NucSpn=           0           0           0           0           1           0           0           1           0           1
 AtZEff=  -0.0000000  -0.0000000  -0.0000000  -0.0000000  -0.0000000  -0.0000000  -0.0000000  -0.0000000  -0.0000000  -0.0000000
 NQMom=    0.0000000   0.0000000   0.0000000   0.0000000   0.0000000   0.0000000   0.0000000   0.0000000   0.0000000   0.0000000
 NMagM=    0.0000000   0.0000000   0.0000000   0.0000000   2.7928460   0.0000000   0.0000000   2.7928460   0.0000000   2.7928460
 AtZNuc=   6.0000000   6.0000000   6.0000000   6.0000000   1.0000000   6.0000000   6.0000000   1.0000000   6.0000000   1.0000000

  Atom        11          12          13          14          15          16          17          18          19          20
 IAtWgt=          12          12           1           1          12           1          12           1          12           1
 AtmWgt=  12.0000000  12.0000000   1.0078250   1.0078250  12.0000000   1.0078250  12.0000000   1.0078250  12.0000000   1.0078250
 NucSpn=           0           0           1           1           0           1           0           1           0           1
 AtZEff=  -0.0000000  -0.0000000  -0.0000000  -0.0000000  -0.0000000  -0.0000000  -0.0000000  -0.0000000  -0.0000000  -0.0000000
 NQMom=    0.0000000   0.0000000   0.0000000   0.0000000   0.0000000   0.0000000   0.0000000   0.0000000   0.0000000   0.0000000
 NMagM=    0.0000000   0.0000000   2.7928460   2.7928460   0.0000000   2.7928460   0.0000000   2.7928460   0.0000000   2.7928460
 AtZNuc=   6.0000000   6.0000000   1.0000000   1.0000000   6.0000000   1.0000000   6.0000000   1.0000000   6.0000000   1.0000000

  Atom        21          22
 IAtWgt=           1           1
 AtmWgt=   1.0078250   1.0078250
 NucSpn=           1           1
 AtZEff=  -0.0000000  -0.0000000
 NQMom=    0.0000000   0.0000000
 NMagM=    2.7928460   2.7928460
 AtZNuc=   1.0000000   1.0000000
 Leave Link  101 at Sat Nov  5 21:34:07 2022, MaxMem= 16106127360 cpu:               5.2 elap:               0.2
 (Enter /opt/ap/G16/B01/g16/l202.exe)
                          Input orientation:                          
 ---------------------------------------------------------------------
 Center     Atomic      Atomic             Coordinates (Angstroms)
 Number     Number       Type             X           Y           Z
 ---------------------------------------------------------------------
      1          6           0        0.000000    0.000000    0.000000
      2          6           0        0.000000    0.000000    1.404919
      3          6           0        1.238131    0.000000   -0.664020
      4          6           0        1.195952    0.001120    2.120990
      5          1           0       -0.946201   -0.027051    1.937101
      6          6           0       -1.273772   -0.000390   -0.762381
      7          6           0        2.434381   -0.000749    0.051479
      8          1           0        1.259850    0.026715   -1.749411
      9          6           0        2.418826    0.000311    1.447501
     10          1           0        1.172413   -0.006894    3.206985
     11          6           0       -2.330378   -0.853126   -0.401511
     12          6           0       -1.455181    0.852061   -1.864339
     13          1           0        3.380326    0.007295   -0.482493
     14          1           0        3.350700    0.000403    2.005133
     15          6           0       -3.526216   -0.854264   -1.117768
     16          1           0       -2.220041   -1.500684    0.463210
     17          6           0       -2.651503    0.852829   -2.579723
     18          1           0       -0.641036    1.499669   -2.175834
     19          6           0       -3.692584   -0.000691   -2.209899
     20          1           0       -4.332916   -1.516343   -0.816294
     21          1           0       -2.767157    1.514630   -3.433330
     22          1           0       -4.624442   -0.000773   -2.767558
 ---------------------------------------------------------------------
                    Distance matrix (angstroms):
                    1          2          3          4          5
     1  C    0.000000
     2  C    1.404919   0.000000
     3  C    1.404953   2.411116   0.000000
     4  C    2.434934   1.393937   2.785330   0.000000
     5  H    2.156012   1.085931   3.396745   2.150216   0.000000
     6  C    1.484493   2.513898   2.513829   3.796494   2.719415
     7  C    2.434925   2.785320   1.393898   2.411760   3.870994
     8  H    2.156008   3.396723   1.085936   3.871013   4.296501
     9  C    2.818861   2.419201   2.419207   1.396070   3.400568
    10  H    3.414579   2.149893   3.871569   1.086279   2.470128
    11  C    2.513901   3.069474   3.678450   4.419022   2.840326
    12  C    2.513826   3.678533   3.069317   4.861631   3.934825
    13  H    3.414594   3.871560   2.149884   3.398478   4.957262
    14  H    3.904837   3.404035   3.404016   2.157861   4.297527
    15  C    3.796494   4.419040   4.861549   5.789655   4.083256
    16  H    2.719411   2.840325   3.934673   4.083217   2.442666
    17  C    3.796414   4.861600   4.418879   6.133924   4.907540
    18  H    2.719225   3.934682   2.840045   4.907430   4.397753
    19  C    4.303351   5.167406   5.167368   6.531033   4.974025
    20  H    4.662595   5.099729   5.775729   6.441949   4.611834
    21  H    4.662511   5.775804   5.099560   6.989092   5.876580
    22  H    5.389327   6.228566   6.228535   7.600980   5.971932
                    6          7          8          9         10
     6  C    0.000000
     7  C    3.796415   0.000000
     8  H    2.719228   2.150228   0.000000
     9  C    4.303354   1.396108   3.400612   0.000000
    10  H    4.662588   3.398502   4.957280   2.156243   0.000000
    11  C    1.404920   4.861551   3.934551   5.167411   5.099696
    12  C    1.404953   4.418861   2.840035   5.167368   5.775844
    13  H    4.662512   1.086279   2.470197   2.156248   4.299689
    14  H    5.389330   2.157871   4.297551   1.085976   2.487858
    15  C    2.434934   6.133868   4.907293   6.531035   6.441943
    16  H    2.156010   4.907440   4.397530   4.974023   4.611773
    17  C    2.434925   5.789476   4.082960   6.530969   6.989095
    18  H    2.156010   4.082936   2.442293   4.973870   5.876484
    19  C    2.818858   6.530967   4.973872   7.122212   7.280856
    20  H    3.414583   6.989017   5.876288   7.280867   6.983828
    21  H    3.414594   6.441759   4.611535   7.280802   7.869499
    22  H    3.904834   7.600918   5.971790   8.208188   8.324586
                   11         12         13         14         15
    11  C    0.000000
    12  C    2.411119   0.000000
    13  H    5.775727   5.099535   0.000000
    14  H    6.228571   6.228534   2.487812   0.000000
    15  C    1.393934   2.785336   6.989004   7.600983   0.000000
    16  H    1.085932   3.396748   5.876432   5.971930   2.150219
    17  C    2.785320   1.393901   6.441759   7.600920   2.411763
    18  H    3.396725   1.085936   4.611500   5.971787   3.871016
    19  C    2.419198   2.419208   7.280800   8.208188   1.396072
    20  H    2.149897   3.871575   7.869370   8.324597   1.086278
    21  H    3.871558   2.149886   6.983626   8.324538   3.398478
    22  H    3.404029   3.404019   8.324536   9.294164   2.157859
                   16         17         18         19         20
    16  H    0.000000
    17  C    3.870997   0.000000
    18  H    4.296501   2.150234   0.000000
    19  C    3.400569   1.396107   3.400615   0.000000
    20  H    2.470145   3.398500   4.957282   2.156238   0.000000
    21  H    4.957264   1.086278   2.470204   2.156245   4.299683
    22  H    4.297527   2.157871   4.297556   1.085976   2.487844
                   21         22
    21  H    0.000000
    22  H    2.487812   0.000000
 Stoichiometry    C12H10
 Framework group  C1[X(C12H10)]
 Deg. of freedom    60
 Full point group                 C1      NOp   1
 Largest Abelian subgroup         C1      NOp   1
 Largest concise Abelian subgroup C1      NOp   1
                         Standard orientation:                         
 ---------------------------------------------------------------------
 Center     Atomic      Atomic             Coordinates (Angstroms)
 Number     Number       Type             X           Y           Z
 ---------------------------------------------------------------------
      1          6           0       -0.742246   -0.000015   -0.000151
      2          6           0       -1.463723   -1.113763   -0.461488
      3          6           0       -1.463648    1.113727    0.461425
      4          6           0       -2.857660   -1.113669   -0.462427
      5          1           0       -0.925110   -1.994859   -0.797361
      6          6           0        0.742247   -0.000034    0.000014
      7          6           0       -2.857546    1.113700    0.462459
      8          1           0       -0.924900    1.994697    0.797429
      9          6           0       -3.561107    0.000032    0.000005
     10          1           0       -3.395159   -1.988824   -0.816264
     11          6           0        1.463699   -1.113746    0.461482
     12          6           0        1.463672    1.113783   -0.461345
     13          1           0       -3.395017    1.988818    0.816429
     14          1           0       -4.647083    0.000063    0.000101
     15          6           0        2.857633   -1.113647    0.462521
     16          1           0        0.925057   -1.994780    0.797475
     17          6           0        2.857573    1.113691   -0.462448
     18          1           0        0.924944    1.994819   -0.797210
     19          6           0        3.561105   -0.000055   -0.000143
     20          1           0        3.395121   -1.988745    0.816510
     21          1           0        3.395067    1.988844   -0.816295
     22          1           0        4.647081   -0.000054   -0.000236
 ---------------------------------------------------------------------
 Rotational constants (GHZ):           2.8585222           0.5425106           0.4781795
 Leave Link  202 at Sat Nov  5 21:34:07 2022, MaxMem= 16106127360 cpu:               0.3 elap:               0.0
 (Enter /opt/ap/G16/B01/g16/l301.exe)
 Standard basis: 6-311++G(d,p) (5D, 7F)
 Ernie: Thresh=  0.10000D-02 Tol=  0.10000D-05 Strict=F.
 There are   346 symmetry adapted cartesian basis functions of A   symmetry.
 There are   334 symmetry adapted basis functions of A   symmetry.
   334 basis functions,   522 primitive gaussians,   346 cartesian basis functions
    41 alpha electrons       41 beta electrons
       nuclear repulsion energy       598.7547582543 Hartrees.
 IExCor= 4639 DFT=T Ex+Corr=wB97XD ExCW=0 ScaHFX=  1.000000
 ScaDFX=  1.000000  1.000000  1.000000  1.000000 ScalE2=  1.000000  1.000000
 IRadAn=      5 IRanWt=     -1 IRanGd=            0 ICorTp=0 IEmpDi=121
 HFx  wShort=  0.000000 wLong=  0.200000 cFull=  0.222036 cShort=  0.000000 cLong=  0.777964
 DFx  wShort=  0.000000 wLong=  0.200000 cFull=  0.000000 cShort=  0.000000 cLong=  1.000000
 NAtoms=   22 NActive=   22 NUniq=   22 SFac= 1.00D+00 NAtFMM=   60 NAOKFM=F Big=F
 Integral buffers will be    131072 words long.
 Raffenetti 2 integral format.
 Two-electron integral symmetry is turned on.
 R6Disp:  Grimme-D2 Dispersion energy=       -0.0121129044 Hartrees.
 Nuclear repulsion after empirical dispersion term =      598.7426453499 Hartrees.
 Leave Link  301 at Sat Nov  5 21:34:07 2022, MaxMem= 16106127360 cpu:               1.2 elap:               0.0
 (Enter /opt/ap/G16/B01/g16/l302.exe)
 NPDir=0 NMtPBC=     1 NCelOv=     1 NCel=       1 NClECP=     1 NCelD=      1
         NCelK=      1 NCelE2=     1 NClLst=     1 CellRange=     0.0.
 One-electron integrals computed using PRISM.
 One-electron integral symmetry used in STVInt
 NBasis=   334 RedAO= T EigKep=  1.98D-06  NBF=   334
 NBsUse=   332 1.00D-06 EigRej=  6.43D-07 NBFU=   332
 Precomputing XC quadrature grid using
 IXCGrd= 4 IRadAn=           5 IRanWt=          -1 IRanGd=           0 AccXCQ= 0.00D+00.
 Generated NRdTot=       0 NPtTot=           0 NUsed=           0 NTot=          32
 NSgBfM=   346   346   346   346   346 MxSgAt=    22 MxSgA2=    22.
 Leave Link  302 at Sat Nov  5 21:34:08 2022, MaxMem= 16106127360 cpu:               7.5 elap:               0.2
 (Enter /opt/ap/G16/B01/g16/l303.exe)
 DipDrv:  MaxL=1.
 Leave Link  303 at Sat Nov  5 21:34:08 2022, MaxMem= 16106127360 cpu:               1.4 elap:               0.1
 (Enter /opt/ap/G16/B01/g16/l401.exe)
 ExpMin= 3.60D-02 ExpMax= 4.56D+03 ExpMxC= 6.82D+02 IAcc=3 IRadAn=         5 AccDes= 0.00D+00
 Harris functional with IExCor= 4639 and IRadAn=       5 diagonalized for initial guess.
 HarFok:  IExCor= 4639 AccDes= 0.00D+00 IRadAn=         5 IDoV= 1 UseB2=F ITyADJ=14
 ICtDFT=  3500011 ScaDFX=  1.000000  1.000000  1.000000  1.000000
 FoFCou: FMM=F IPFlag=           0 FMFlag=      100000 FMFlg1=           0
         NFxFlg=           0 DoJE=T BraDBF=F KetDBF=T FulRan=T
         wScrn=  0.000000 ICntrl=       500 IOpCl=  0 I1Cent=   200000004 NGrid=           0
         NMat0=    1 NMatS0=      1 NMatT0=    0 NMatD0=    1 NMtDS0=    0 NMtDT0=    0
 Petite list used in FoFCou.
 Harris En= -441.938885529064    
 JPrj=0 DoOrth=F DoCkMO=F.
 Leave Link  401 at Sat Nov  5 21:34:08 2022, MaxMem= 16106127360 cpu:              20.3 elap:               0.6
 (Enter /opt/ap/G16/B01/g16/l502.exe)
 Integral symmetry usage will be decided dynamically.
 Closed shell SCF:
 Using DIIS extrapolation, IDIIS=  1040.
 NGot= 16106127360 LenX= 16105873520 LenY= 16105753363
 Requested convergence on RMS density matrix=1.00D-08 within 512 cycles.
 Requested convergence on MAX density matrix=1.00D-06.
 Requested convergence on             energy=1.00D-06.
 No special actions if energy rises.
 Fock matrices will be formed incrementally for  20 cycles.

 Cycle   1  Pass 1  IDiag  1:
 FoFJK:  IHMeth= 1 ICntrl=       0 DoSepK=T KAlg= 0 I1Cent=           0 FoldK=F
 IRaf=         1 NMat=       1 IRICut=       1 DoRegI=T DoRafI=F ISym2E= 0 IDoP0=0 IntGTp=1.
 FoFCou: FMM=F IPFlag=           0 FMFlag=      100000 FMFlg1=           0
         NFxFlg=           0 DoJE=T BraDBF=F KetDBF=F FulRan=T
         wScrn=  0.000000 ICntrl=       500 IOpCl=  0 I1Cent=           0 NGrid=           0
         NMat0=    1 NMatS0=      1 NMatT0=    0 NMatD0=    1 NMtDS0=    0 NMtDT0=    0
 Symmetry not used in FoFCou.
 E= -463.152872589237    
 DIIS: error= 6.63D-02 at cycle   1 NSaved=   1.
 NSaved= 1 IEnMin= 1 EnMin= -463.152872589237     IErMin= 1 ErrMin= 6.63D-02
 ErrMax= 6.63D-02  0.00D+00 EMaxC= 1.00D-01 BMatC= 9.52D-01 BMatP= 9.52D-01
 IDIUse=3 WtCom= 3.37D-01 WtEn= 6.63D-01
 Coeff-Com:  0.100D+01
 Coeff-En:   0.100D+01
 Coeff:      0.100D+01
 Gap=     0.329 Goal=   None    Shift=    0.000
 GapD=    0.329 DampG=1.000 DampE=0.500 DampFc=0.5000 IDamp=-1.
 Damping current iteration by 5.00D-01
 RMSDP=5.97D-02 MaxDP=4.04D+00              OVMax= 4.38D-02

 Cycle   2  Pass 1  IDiag  1:
 RMSU=  5.46D-03    CP:  7.72D-01
 E= -463.201924575363     Delta-E=       -0.049051986126 Rises=F Damp=T
 DIIS: error= 3.17D-02 at cycle   2 NSaved=   2.
 NSaved= 2 IEnMin= 2 EnMin= -463.201924575363     IErMin= 2 ErrMin= 3.17D-02
 ErrMax= 3.17D-02  0.00D+00 EMaxC= 1.00D-01 BMatC= 2.16D-01 BMatP= 9.52D-01
 IDIUse=3 WtCom= 6.83D-01 WtEn= 3.17D-01
 Coeff-Com: -0.883D+00 0.188D+01
 Coeff-En:   0.000D+00 0.100D+01
 Coeff:     -0.603D+00 0.160D+01
 Gap=     0.348 Goal=   None    Shift=    0.000
 RMSDP=2.90D-02 MaxDP=1.88D+00 DE=-4.91D-02 OVMax= 3.77D-02

 Cycle   3  Pass 1  IDiag  1:
 RMSU=  3.18D-03    CP:  5.49D-01  1.26D+00
 E= -463.245889799072     Delta-E=       -0.043965223710 Rises=F Damp=F
 DIIS: error= 5.56D-03 at cycle   3 NSaved=   3.
 NSaved= 3 IEnMin= 3 EnMin= -463.245889799072     IErMin= 3 ErrMin= 5.56D-03
 ErrMax= 5.56D-03  0.00D+00 EMaxC= 1.00D-01 BMatC= 4.48D-03 BMatP= 2.16D-01
 IDIUse=3 WtCom= 9.44D-01 WtEn= 5.56D-02
 Coeff-Com: -0.366D+00 0.779D+00 0.587D+00
 Coeff-En:   0.000D+00 0.000D+00 0.100D+01
 Coeff:     -0.346D+00 0.736D+00 0.610D+00
 Gap=     0.333 Goal=   None    Shift=    0.000
 RMSDP=3.33D-03 MaxDP=2.71D-01 DE=-4.40D-02 OVMax= 2.15D-02

 Cycle   4  Pass 1  IDiag  1:
 RMSU=  1.17D-03    CP:  5.27D-01  1.47D+00  7.31D-01
 E= -463.249862523018     Delta-E=       -0.003972723945 Rises=F Damp=F
 DIIS: error= 1.81D-03 at cycle   4 NSaved=   4.
 NSaved= 4 IEnMin= 4 EnMin= -463.249862523018     IErMin= 4 ErrMin= 1.81D-03
 ErrMax= 1.81D-03  0.00D+00 EMaxC= 1.00D-01 BMatC= 2.91D-04 BMatP= 4.48D-03
 IDIUse=3 WtCom= 9.82D-01 WtEn= 1.81D-02
 Coeff-Com: -0.130D+00 0.278D+00 0.290D+00 0.561D+00
 Coeff-En:   0.000D+00 0.000D+00 0.000D+00 0.100D+01
 Coeff:     -0.128D+00 0.273D+00 0.285D+00 0.569D+00
 Gap=     0.333 Goal=   None    Shift=    0.000
 RMSDP=9.83D-04 MaxDP=5.41D-02 DE=-3.97D-03 OVMax= 5.62D-03

 Cycle   5  Pass 1  IDiag  1:
 RMSU=  3.55D-04    CP:  5.22D-01  1.47D+00  7.93D-01  5.60D-01
 E= -463.250169351079     Delta-E=       -0.000306828061 Rises=F Damp=F
 DIIS: error= 3.30D-04 at cycle   5 NSaved=   5.
 NSaved= 5 IEnMin= 5 EnMin= -463.250169351079     IErMin= 5 ErrMin= 3.30D-04
 ErrMax= 3.30D-04  0.00D+00 EMaxC= 1.00D-01 BMatC= 8.84D-06 BMatP= 2.91D-04
 IDIUse=3 WtCom= 9.97D-01 WtEn= 3.30D-03
 Coeff-Com:  0.275D-01-0.588D-01-0.313D-01 0.122D+00 0.941D+00
 Coeff-En:   0.000D+00 0.000D+00 0.000D+00 0.000D+00 0.100D+01
 Coeff:      0.274D-01-0.586D-01-0.312D-01 0.121D+00 0.941D+00
 Gap=     0.333 Goal=   None    Shift=    0.000
 RMSDP=2.43D-04 MaxDP=1.80D-02 DE=-3.07D-04 OVMax= 1.62D-03

 Cycle   6  Pass 1  IDiag  1:
 RMSU=  5.76D-05    CP:  5.21D-01  1.44D+00  8.25D-01  6.13D-01  1.24D+00
 E= -463.250181410143     Delta-E=       -0.000012059065 Rises=F Damp=F
 DIIS: error= 5.67D-05 at cycle   6 NSaved=   6.
 NSaved= 6 IEnMin= 6 EnMin= -463.250181410143     IErMin= 6 ErrMin= 5.67D-05
 ErrMax= 5.67D-05  0.00D+00 EMaxC= 1.00D-01 BMatC= 4.91D-07 BMatP= 8.84D-06
 IDIUse=1 WtCom= 1.00D+00 WtEn= 0.00D+00
 Coeff-Com:  0.122D-01-0.261D-01-0.163D-01 0.309D-01 0.333D+00 0.666D+00
 Coeff:      0.122D-01-0.261D-01-0.163D-01 0.309D-01 0.333D+00 0.666D+00
 Gap=     0.333 Goal=   None    Shift=    0.000
 RMSDP=5.34D-05 MaxDP=3.81D-03 DE=-1.21D-05 OVMax= 2.65D-04

 Cycle   7  Pass 1  IDiag  1:
 RMSU=  1.33D-05    CP:  5.21D-01  1.44D+00  8.31D-01  6.05D-01  1.31D+00
                    CP:  1.19D+00
 E= -463.250181989168     Delta-E=       -0.000000579025 Rises=F Damp=F
 DIIS: error= 1.79D-05 at cycle   7 NSaved=   7.
 NSaved= 7 IEnMin= 7 EnMin= -463.250181989168     IErMin= 7 ErrMin= 1.79D-05
 ErrMax= 1.79D-05  0.00D+00 EMaxC= 1.00D-01 BMatC= 5.49D-08 BMatP= 4.91D-07
 IDIUse=1 WtCom= 1.00D+00 WtEn= 0.00D+00
 Coeff-Com: -0.229D-02 0.493D-02 0.215D-02-0.183D-01-0.109D+00 0.167D+00
 Coeff-Com:  0.955D+00
 Coeff:     -0.229D-02 0.493D-02 0.215D-02-0.183D-01-0.109D+00 0.167D+00
 Coeff:      0.955D+00
 Gap=     0.333 Goal=   None    Shift=    0.000
 RMSDP=3.40D-05 MaxDP=2.20D-03 DE=-5.79D-07 OVMax= 2.02D-04

 Cycle   8  Pass 1  IDiag  1:
 RMSU=  3.62D-06    CP:  5.21D-01  1.43D+00  8.35D-01  5.98D-01  1.36D+00
                    CP:  1.38D+00  1.26D+00
 E= -463.250182090367     Delta-E=       -0.000000101199 Rises=F Damp=F
 DIIS: error= 3.42D-06 at cycle   8 NSaved=   8.
 NSaved= 8 IEnMin= 8 EnMin= -463.250182090367     IErMin= 8 ErrMin= 3.42D-06
 ErrMax= 3.42D-06  0.00D+00 EMaxC= 1.00D-01 BMatC= 1.42D-09 BMatP= 5.49D-08
 IDIUse=1 WtCom= 1.00D+00 WtEn= 0.00D+00
 Coeff-Com: -0.407D-03 0.869D-03 0.579D-03-0.173D-02-0.103D-01-0.994D-02
 Coeff-Com: -0.166D-01 0.104D+01
 Coeff:     -0.407D-03 0.869D-03 0.579D-03-0.173D-02-0.103D-01-0.994D-02
 Coeff:     -0.166D-01 0.104D+01
 Gap=     0.333 Goal=   None    Shift=    0.000
 RMSDP=8.03D-06 MaxDP=6.35D-04 DE=-1.01D-07 OVMax= 4.23D-05

 Cycle   9  Pass 1  IDiag  1:
 RMSU=  8.05D-07    CP:  5.21D-01  1.43D+00  8.36D-01  5.97D-01  1.37D+00
                    CP:  1.41D+00  1.34D+00  1.29D+00
 E= -463.250182094440     Delta-E=       -0.000000004072 Rises=F Damp=F
 DIIS: error= 1.75D-06 at cycle   9 NSaved=   9.
 NSaved= 9 IEnMin= 9 EnMin= -463.250182094440     IErMin= 9 ErrMin= 1.75D-06
 ErrMax= 1.75D-06  0.00D+00 EMaxC= 1.00D-01 BMatC= 3.24D-10 BMatP= 1.42D-09
 IDIUse=1 WtCom= 1.00D+00 WtEn= 0.00D+00
 Coeff-Com:  0.167D-03-0.362D-03-0.693D-04 0.188D-02 0.115D-01-0.230D-01
 Coeff-Com: -0.141D+00 0.361D+00 0.789D+00
 Coeff:      0.167D-03-0.362D-03-0.693D-04 0.188D-02 0.115D-01-0.230D-01
 Coeff:     -0.141D+00 0.361D+00 0.789D+00
 Gap=     0.333 Goal=   None    Shift=    0.000
 RMSDP=1.74D-06 MaxDP=1.24D-04 DE=-4.07D-09 OVMax= 1.88D-05

 Cycle  10  Pass 1  IDiag  1:
 RMSU=  2.31D-07    CP:  5.21D-01  1.43D+00  8.36D-01  5.96D-01  1.37D+00
                    CP:  1.42D+00  1.36D+00  1.39D+00  1.41D+00
 E= -463.250182095083     Delta-E=       -0.000000000643 Rises=F Damp=F
 DIIS: error= 3.88D-07 at cycle  10 NSaved=  10.
 NSaved=10 IEnMin=10 EnMin= -463.250182095083     IErMin=10 ErrMin= 3.88D-07
 ErrMax= 3.88D-07  0.00D+00 EMaxC= 1.00D-01 BMatC= 3.05D-11 BMatP= 3.24D-10
 IDIUse=1 WtCom= 1.00D+00 WtEn= 0.00D+00
 Coeff-Com:  0.643D-04-0.138D-03-0.535D-04 0.521D-03 0.280D-02-0.239D-02
 Coeff-Com: -0.260D-01-0.501D-01 0.195D+00 0.880D+00
 Coeff:      0.643D-04-0.138D-03-0.535D-04 0.521D-03 0.280D-02-0.239D-02
 Coeff:     -0.260D-01-0.501D-01 0.195D+00 0.880D+00
 Gap=     0.333 Goal=   None    Shift=    0.000
 RMSDP=2.53D-07 MaxDP=1.57D-05 DE=-6.43D-10 OVMax= 4.41D-06

 Cycle  11  Pass 1  IDiag  1:
 RMSU=  7.38D-08    CP:  5.21D-01  1.43D+00  8.36D-01  5.96D-01  1.37D+00
                    CP:  1.42D+00  1.36D+00  1.40D+00  1.56D+00  1.15D+00
 E= -463.250182095128     Delta-E=       -0.000000000045 Rises=F Damp=F
 DIIS: error= 1.17D-07 at cycle  11 NSaved=  11.
 NSaved=11 IEnMin=11 EnMin= -463.250182095128     IErMin=11 ErrMin= 1.17D-07
 ErrMax= 1.17D-07  0.00D+00 EMaxC= 1.00D-01 BMatC= 1.26D-12 BMatP= 3.05D-11
 IDIUse=1 WtCom= 1.00D+00 WtEn= 0.00D+00
 Coeff-Com: -0.173D-04 0.377D-04 0.142D-04-0.189D-03-0.117D-02 0.245D-02
 Coeff-Com:  0.125D-01-0.258D-01-0.455D-01-0.143D+00 0.120D+01
 Coeff:     -0.173D-04 0.377D-04 0.142D-04-0.189D-03-0.117D-02 0.245D-02
 Coeff:      0.125D-01-0.258D-01-0.455D-01-0.143D+00 0.120D+01
 Gap=     0.333 Goal=   None    Shift=    0.000
 RMSDP=2.30D-07 MaxDP=1.67D-05 DE=-4.50D-11 OVMax= 1.11D-06

 Cycle  12  Pass 1  IDiag  1:
 RMSU=  2.10D-08    CP:  5.21D-01  1.43D+00  8.36D-01  5.96D-01  1.37D+00
                    CP:  1.42D+00  1.35D+00  1.39D+00  1.63D+00  1.27D+00
                    CP:  1.26D+00
 E= -463.250182095141     Delta-E=       -0.000000000013 Rises=F Damp=F
 DIIS: error= 2.54D-08 at cycle  12 NSaved=  12.
 NSaved=12 IEnMin=12 EnMin= -463.250182095141     IErMin=12 ErrMin= 2.54D-08
 ErrMax= 2.54D-08  0.00D+00 EMaxC= 1.00D-01 BMatC= 9.44D-14 BMatP= 1.26D-12
 IDIUse=1 WtCom= 1.00D+00 WtEn= 0.00D+00
 Coeff-Com: -0.161D-05 0.340D-05 0.250D-05-0.813D-05-0.324D-04-0.279D-04
 Coeff-Com: -0.907D-04 0.445D-02 0.153D-03-0.549D-01-0.122D+00 0.117D+01
 Coeff:     -0.161D-05 0.340D-05 0.250D-05-0.813D-05-0.324D-04-0.279D-04
 Coeff:     -0.907D-04 0.445D-02 0.153D-03-0.549D-01-0.122D+00 0.117D+01
 Gap=     0.333 Goal=   None    Shift=    0.000
 RMSDP=4.81D-08 MaxDP=3.42D-06 DE=-1.34D-11 OVMax= 3.30D-07

 Cycle  13  Pass 1  IDiag  1:
 RMSU=  5.84D-09    CP:  5.21D-01  1.43D+00  8.36D-01  5.96D-01  1.37D+00
                    CP:  1.42D+00  1.35D+00  1.39D+00  1.63D+00  1.29D+00
                    CP:  1.32D+00  1.34D+00
 E= -463.250182095141     Delta-E=        0.000000000000 Rises=F Damp=F
 DIIS: error= 5.59D-09 at cycle  13 NSaved=  13.
 NSaved=13 IEnMin=12 EnMin= -463.250182095141     IErMin=13 ErrMin= 5.59D-09
 ErrMax= 5.59D-09  0.00D+00 EMaxC= 1.00D-01 BMatC= 3.63D-15 BMatP= 9.44D-14
 IDIUse=1 WtCom= 1.00D+00 WtEn= 0.00D+00
 Coeff-Com:  0.720D-06-0.157D-05-0.612D-06 0.816D-05 0.541D-04-0.108D-03
 Coeff-Com: -0.637D-03 0.155D-02 0.330D-02 0.799D-03-0.706D-01 0.939D-01
 Coeff-Com:  0.972D+00
 Coeff:      0.720D-06-0.157D-05-0.612D-06 0.816D-05 0.541D-04-0.108D-03
 Coeff:     -0.637D-03 0.155D-02 0.330D-02 0.799D-03-0.706D-01 0.939D-01
 Coeff:      0.972D+00
 Gap=     0.333 Goal=   None    Shift=    0.000
 RMSDP=6.39D-09 MaxDP=5.67D-07 DE= 2.27D-13 OVMax= 6.98D-08

 SCF Done:  E(RwB97XD) =  -463.250182095     A.U. after   13 cycles
            NFock= 13  Conv=0.64D-08     -V/T= 2.0049
 KE= 4.610096244646D+02 PE=-2.271748973877D+03 EE= 7.487465219674D+02
 Leave Link  502 at Sat Nov  5 21:34:33 2022, MaxMem= 16106127360 cpu:             786.0 elap:              24.7
 (Enter /opt/ap/G16/B01/g16/l601.exe)
 Copying SCF densities to generalized density rwf, IOpCl= 0 IROHF=0.

 **********************************************************************

            Population analysis using the SCF Density.

 **********************************************************************

 Orbital symmetries:
       Occupied  (A) (A) (A) (A) (A) (A) (A) (A) (A) (A) (A) (A)
                 (A) (A) (A) (A) (A) (A) (A) (A) (A) (A) (A) (A)
                 (A) (A) (A) (A) (A) (A) (A) (A) (A) (A) (A) (A)
                 (A) (A) (A) (A) (A)
       Virtual   (A) (A) (A) (A) (A) (A) (A) (A) (A) (A) (A) (A)
                 (A) (A) (A) (A) (A) (A) (A) (A) (A) (A) (A) (A)
                 (A) (A) (A) (A) (A) (A) (A) (A) (A) (A) (A) (A)
                 (A) (A) (A) (A) (A) (A) (A) (A) (A) (A) (A) (A)
                 (A) (A) (A) (A) (A) (A) (A) (A) (A) (A) (A) (A)
                 (A) (A) (A) (A) (A) (A) (A) (A) (A) (A) (A) (A)
                 (A) (A) (A) (A) (A) (A) (A) (A) (A) (A) (A) (A)
                 (A) (A) (A) (A) (A) (A) (A) (A) (A) (A) (A) (A)
                 (A) (A) (A) (A) (A) (A) (A) (A) (A) (A) (A) (A)
                 (A) (A) (A) (A) (A) (A) (A) (A) (A) (A) (A) (A)
                 (A) (A) (A) (A) (A) (A) (A) (A) (A) (A) (A) (A)
                 (A) (A) (A) (A) (A) (A) (A) (A) (A) (A) (A) (A)
                 (A) (A) (A) (A) (A) (A) (A) (A) (A) (A) (A) (A)
                 (A) (A) (A) (A) (A) (A) (A) (A) (A) (A) (A) (A)
                 (A) (A) (A) (A) (A) (A) (A) (A) (A) (A) (A) (A)
                 (A) (A) (A) (A) (A) (A) (A) (A) (A) (A) (A) (A)
                 (A) (A) (A) (A) (A) (A) (A) (A) (A) (A) (A) (A)
                 (A) (A) (A) (A) (A) (A) (A) (A) (A) (A) (A) (A)
                 (A) (A) (A) (A) (A) (A) (A) (A) (A) (A) (A) (A)
                 (A) (A) (A) (A) (A) (A) (A) (A) (A) (A) (A) (A)
                 (A) (A) (A) (A) (A) (A) (A) (A) (A) (A) (A) (A)
                 (A) (A) (A) (A) (A) (A) (A) (A) (A) (A) (A) (A)
                 (A) (A) (A) (A) (A) (A) (A) (A) (A) (A) (A) (A)
                 (A) (A) (A) (A) (A) (A) (A) (A) (A) (A) (A) (A)
                 (A) (A) (A)
 The electronic state is 1-A.
 Alpha  occ. eigenvalues --  -10.30512 -10.30482 -10.29376 -10.29375 -10.29366
 Alpha  occ. eigenvalues --  -10.29366 -10.29293 -10.29293 -10.29288 -10.29288
 Alpha  occ. eigenvalues --  -10.29244 -10.29244  -0.97613  -0.95339  -0.88240
 Alpha  occ. eigenvalues --   -0.85419  -0.84719  -0.82390  -0.72383  -0.71655
 Alpha  occ. eigenvalues --   -0.69045  -0.67519  -0.62770  -0.59364  -0.56279
 Alpha  occ. eigenvalues --   -0.55590  -0.53278  -0.53062  -0.51406  -0.50976
 Alpha  occ. eigenvalues --   -0.50683  -0.47074  -0.45339  -0.45257  -0.43677
 Alpha  occ. eigenvalues --   -0.42227  -0.42142  -0.35671  -0.33520  -0.33462
 Alpha  occ. eigenvalues --   -0.30625
 Alpha virt. eigenvalues --    0.02663   0.03860   0.04561   0.04829   0.04957
 Alpha virt. eigenvalues --    0.05062   0.05836   0.05940   0.07296   0.07629
 Alpha virt. eigenvalues --    0.07649   0.07925   0.09356   0.09638   0.11934
 Alpha virt. eigenvalues --    0.12737   0.13127   0.13289   0.15103   0.15211
 Alpha virt. eigenvalues --    0.15822   0.15886   0.15941   0.16535   0.16848
 Alpha virt. eigenvalues --    0.17463   0.17467   0.17555   0.18134   0.18196
 Alpha virt. eigenvalues --    0.18599   0.18684   0.19106   0.19790   0.19942
 Alpha virt. eigenvalues --    0.20100   0.20716   0.22435   0.22499   0.22781
 Alpha virt. eigenvalues --    0.22924   0.23057   0.23726   0.23818   0.25254
 Alpha virt. eigenvalues --    0.25965   0.26251   0.26293   0.27419   0.27665
 Alpha virt. eigenvalues --    0.28070   0.28524   0.28543   0.29370   0.30713
 Alpha virt. eigenvalues --    0.30874   0.31116   0.31599   0.32171   0.32181
 Alpha virt. eigenvalues --    0.33559   0.34054   0.35052   0.35213   0.35309
 Alpha virt. eigenvalues --    0.35508   0.36144   0.36175   0.36687   0.37379
 Alpha virt. eigenvalues --    0.37457   0.38832   0.39522   0.41425   0.41826
 Alpha virt. eigenvalues --    0.42605   0.43071   0.43091   0.46195   0.47196
 Alpha virt. eigenvalues --    0.48216   0.56393   0.58250   0.59948   0.61380
 Alpha virt. eigenvalues --    0.61468   0.61521   0.62133   0.62664   0.63238
 Alpha virt. eigenvalues --    0.64224   0.64359   0.64427   0.65650   0.65755
 Alpha virt. eigenvalues --    0.66019   0.67366   0.68640   0.69065   0.70320
 Alpha virt. eigenvalues --    0.70708   0.71557   0.73138   0.74565   0.74751
 Alpha virt. eigenvalues --    0.76935   0.77659   0.78207   0.78343   0.79336
 Alpha virt. eigenvalues --    0.81110   0.81132   0.81143   0.82029   0.82998
 Alpha virt. eigenvalues --    0.83481   0.86171   0.86802   0.88023   0.89802
 Alpha virt. eigenvalues --    0.90001   0.91587   0.92960   0.93778   0.94341
 Alpha virt. eigenvalues --    0.95445   0.95985   0.96170   0.96916   0.97267
 Alpha virt. eigenvalues --    1.00217   1.00898   1.01299   1.01552   1.03547
 Alpha virt. eigenvalues --    1.04990   1.07060   1.08467   1.10451   1.11102
 Alpha virt. eigenvalues --    1.11392   1.13325   1.13954   1.16542   1.17706
 Alpha virt. eigenvalues --    1.19003   1.19261   1.21309   1.23451   1.24082
 Alpha virt. eigenvalues --    1.25430   1.39392   1.40044   1.41527   1.41824
 Alpha virt. eigenvalues --    1.54006   1.57447   1.58240   1.58406   1.59291
 Alpha virt. eigenvalues --    1.60882   1.61280   1.62133   1.62226   1.65141
 Alpha virt. eigenvalues --    1.65463   1.65710   1.66643   1.68567   1.71089
 Alpha virt. eigenvalues --    1.73038   1.74093   1.74521   1.75345   1.77914
 Alpha virt. eigenvalues --    1.79527   1.82162   1.82596   1.83509   1.85860
 Alpha virt. eigenvalues --    1.85892   1.86394   1.89743   1.92233   1.92630
 Alpha virt. eigenvalues --    1.92818   1.98555   2.00745   2.00906   2.01330
 Alpha virt. eigenvalues --    2.02047   2.03086   2.04097   2.04139   2.05094
 Alpha virt. eigenvalues --    2.05152   2.08177   2.08183   2.09215   2.11120
 Alpha virt. eigenvalues --    2.11814   2.14327   2.16608   2.16822   2.17477
 Alpha virt. eigenvalues --    2.23284   2.31920   2.34974   2.36396   2.42616
 Alpha virt. eigenvalues --    2.43539   2.49908   2.50068   2.52406   2.52951
 Alpha virt. eigenvalues --    2.54959   2.56263   2.56663   2.57608   2.61183
 Alpha virt. eigenvalues --    2.70760   2.72786   2.75062   2.75399   2.77727
 Alpha virt. eigenvalues --    2.78374   2.79710   2.80273   2.80385   2.81933
 Alpha virt. eigenvalues --    2.82359   2.82629   2.83391   2.85684   2.87527
 Alpha virt. eigenvalues --    2.87558   2.89817   2.90137   2.91111   2.92098
 Alpha virt. eigenvalues --    2.93281   2.94112   2.96967   2.98560   3.00293
 Alpha virt. eigenvalues --    3.02809   3.03853   3.03939   3.04670   3.10187
 Alpha virt. eigenvalues --    3.14694   3.19117   3.21242   3.28293   3.30083
 Alpha virt. eigenvalues --    3.32687   3.44614   3.46728   3.47125   3.48916
 Alpha virt. eigenvalues --    3.58807   3.60518   3.63197   3.63278   3.68026
 Alpha virt. eigenvalues --    3.73589   3.74985   3.89489   4.08313   4.10635
 Alpha virt. eigenvalues --    4.13430   4.14552   4.24232   4.24937   4.26313
 Alpha virt. eigenvalues --    4.27446   4.55931   4.92691   4.95410  23.70331
 Alpha virt. eigenvalues --   23.84916  24.07049  24.09306  24.09529  24.10595
 Alpha virt. eigenvalues --   24.17900  24.21122  24.22134  24.22543  24.30681
 Alpha virt. eigenvalues --   24.32096
          Condensed to atoms (all electrons):
               1          2          3          4          5          6
     1  C   19.210099   0.501275   0.499279  -1.731525   0.004440  -7.121896
     2  C    0.501275  14.905448  -5.192158  -0.662917   0.556424  -3.304370
     3  C    0.499279  -5.192158  14.898675  -0.680437  -0.026386  -3.296200
     4  C   -1.731525  -0.662917  -0.680437   6.720587  -0.069706   1.588668
     5  H    0.004440   0.556424  -0.026386  -0.069706   0.483374  -0.096428
     6  C   -7.121896  -3.304370  -3.296200   1.588668  -0.096428  19.210814
     7  C   -1.731429  -0.678671  -0.662492   0.375525  -0.021656   1.587160
     8  H    0.004332  -0.026349   0.556344  -0.021693   0.000535  -0.096241
     9  C    0.107069   0.707456   0.706856  -0.190615   0.035105  -1.398678
    10  H    0.030290  -0.129103  -0.010081   0.446266  -0.011681   0.053277
    11  C   -3.303250   0.927328  -1.374018   0.394057  -0.033110   0.501261
    12  C   -3.296569  -1.374314   0.930425   0.148759  -0.025600   0.499027
    13  H    0.030215  -0.010100  -0.128956   0.025089  -0.000333   0.053264
    14  H    0.033948   0.014544   0.014555  -0.058082   0.000582  -0.035744
    15  C    1.588901   0.393338   0.149578  -0.008358   0.013442  -1.731885
    16  H   -0.096347  -0.033108  -0.025631   0.013435  -0.000300   0.004351
    17  C    1.586668   0.148842   0.393563  -0.105217   0.023390  -1.730971
    18  H   -0.096234  -0.025600  -0.033033   0.023404  -0.002307   0.004333
    19  C   -1.398345  -0.132072  -0.132227   0.051664  -0.017152   0.107228
    20  H    0.053276  -0.000581   0.007669  -0.001062   0.000713   0.030303
    21  H    0.053234   0.007637  -0.000542  -0.000924   0.000563   0.030225
    22  H   -0.035741  -0.003655  -0.003685   0.001372  -0.000460   0.033948
               7          8          9         10         11         12
     1  C   -1.731429   0.004332   0.107069   0.030290  -3.303250  -3.296569
     2  C   -0.678671  -0.026349   0.707456  -0.129103   0.927328  -1.374314
     3  C   -0.662492   0.556344   0.706856  -0.010081  -1.374018   0.930425
     4  C    0.375525  -0.021693  -0.190615   0.446266   0.394057   0.148759
     5  H   -0.021656   0.000535   0.035105  -0.011681  -0.033110  -0.025600
     6  C    1.587160  -0.096241  -1.398678   0.053277   0.501261   0.499027
     7  C    6.719798  -0.069708  -0.190251   0.025059   0.149504   0.392971
     8  H   -0.069708   0.483369   0.035096  -0.000334  -0.025617  -0.033054
     9  C   -0.190251   0.035096   6.585709  -0.096407  -0.132410  -0.131830
    10  H    0.025059  -0.000334  -0.096407   0.479747  -0.000545   0.007643
    11  C    0.149504  -0.025617  -0.132410  -0.000545  14.906961  -5.193058
    12  C    0.392971  -0.033054  -0.131830   0.007643  -5.193058  14.898419
    13  H    0.446207  -0.011676  -0.096411   0.000842   0.007659  -0.000575
    14  H   -0.058081   0.000583   0.434394  -0.009172  -0.003680  -0.003659
    15  C   -0.105142   0.023420   0.051614  -0.001055  -0.665205  -0.678267
    16  H    0.023398  -0.002309  -0.017152   0.000713   0.556587  -0.026481
    17  C   -0.008002   0.013394   0.051575  -0.000922  -0.679639  -0.661036
    18  H    0.013398  -0.000300  -0.017146   0.000564  -0.026360   0.556241
    19  C    0.051501  -0.017151  -0.026295   0.000103   0.708614   0.705264
    20  H   -0.000920   0.000564   0.000103   0.000097  -0.129165  -0.010010
    21  H   -0.001047   0.000713   0.000103   0.000007  -0.010112  -0.128916
    22  H    0.001367  -0.000460  -0.000654   0.000009   0.014601   0.014491
              13         14         15         16         17         18
     1  C    0.030215   0.033948   1.588901  -0.096347   1.586668  -0.096234
     2  C   -0.010100   0.014544   0.393338  -0.033108   0.148842  -0.025600
     3  C   -0.128956   0.014555   0.149578  -0.025631   0.393563  -0.033033
     4  C    0.025089  -0.058082  -0.008358   0.013435  -0.105217   0.023404
     5  H   -0.000333   0.000582   0.013442  -0.000300   0.023390  -0.002307
     6  C    0.053264  -0.035744  -1.731885   0.004351  -1.730971   0.004333
     7  C    0.446207  -0.058081  -0.105142   0.023398  -0.008002   0.013398
     8  H   -0.011676   0.000583   0.023420  -0.002309   0.013394  -0.000300
     9  C   -0.096411   0.434394   0.051614  -0.017152   0.051575  -0.017146
    10  H    0.000842  -0.009172  -0.001055   0.000713  -0.000922   0.000564
    11  C    0.007659  -0.003680  -0.665205   0.556587  -0.679639  -0.026360
    12  C   -0.000575  -0.003659  -0.678267  -0.026481  -0.661036   0.556241
    13  H    0.479744  -0.009172  -0.000923   0.000564  -0.001054   0.000713
    14  H   -0.009172   0.474317   0.001370  -0.000460   0.001369  -0.000459
    15  C   -0.000923   0.001370   6.721120  -0.069753   0.375341  -0.021658
    16  H    0.000564  -0.000460  -0.069753   0.483362  -0.021660   0.000534
    17  C   -0.001054   0.001369   0.375341  -0.021660   6.719268  -0.069642
    18  H    0.000713  -0.000459  -0.021658   0.000534  -0.069642   0.483367
    19  C    0.000103  -0.000654  -0.190749   0.035119  -0.189823   0.035063
    20  H    0.000007   0.000009   0.446284  -0.011681   0.025047  -0.000333
    21  H    0.000097   0.000009   0.025069  -0.000333   0.446175  -0.011676
    22  H    0.000009  -0.000011  -0.058121   0.000583  -0.058045   0.000581
              19         20         21         22
     1  C   -1.398345   0.053276   0.053234  -0.035741
     2  C   -0.132072  -0.000581   0.007637  -0.003655
     3  C   -0.132227   0.007669  -0.000542  -0.003685
     4  C    0.051664  -0.001062  -0.000924   0.001372
     5  H   -0.017152   0.000713   0.000563  -0.000460
     6  C    0.107228   0.030303   0.030225   0.033948
     7  C    0.051501  -0.000920  -0.001047   0.001367
     8  H   -0.017151   0.000564   0.000713  -0.000460
     9  C   -0.026295   0.000103   0.000103  -0.000654
    10  H    0.000103   0.000097   0.000007   0.000009
    11  C    0.708614  -0.129165  -0.010112   0.014601
    12  C    0.705264  -0.010010  -0.128916   0.014491
    13  H    0.000103   0.000007   0.000097   0.000009
    14  H   -0.000654   0.000009   0.000009  -0.000011
    15  C   -0.190749   0.446284   0.025069  -0.058121
    16  H    0.035119  -0.011681  -0.000333   0.000583
    17  C   -0.189823   0.025047   0.446175  -0.058045
    18  H    0.035063  -0.000333  -0.011676   0.000581
    19  C    6.585350  -0.096421  -0.096376   0.434401
    20  H   -0.096421   0.479747   0.000841  -0.009174
    21  H   -0.096376   0.000841   0.479743  -0.009170
    22  H    0.434401  -0.009174  -0.009170   0.474318
 Mulliken charges:
               1
     1  C    1.108311
     2  C   -0.589293
     3  C   -0.591098
     4  C   -0.258290
     5  H    0.186550
     6  C    1.108558
     7  C   -0.258491
     8  H    0.186544
     9  C   -0.417233
    10  H    0.214682
    11  C   -0.590404
    12  C   -0.589871
    13  H    0.214689
    14  H    0.203492
    15  C   -0.258357
    16  H    0.186569
    17  C   -0.258620
    18  H    0.186552
    19  C   -0.417146
    20  H    0.214685
    21  H    0.214679
    22  H    0.203494
 Sum of Mulliken charges =  -0.00000
 Mulliken charges with hydrogens summed into heavy atoms:
               1
     1  C    1.108311
     2  C   -0.402743
     3  C   -0.404554
     4  C   -0.043608
     6  C    1.108558
     7  C   -0.043802
     9  C   -0.213741
    11  C   -0.403836
    12  C   -0.403319
    15  C   -0.043672
    17  C   -0.043941
    19  C   -0.213653
 Electronic spatial extent (au):  <R**2>=           2311.9745
 Charge=             -0.0000 electrons
 Dipole moment (field-independent basis, Debye):
    X=              0.0000    Y=             -0.0001    Z=              0.0004  Tot=              0.0004
 Quadrupole moment (field-independent basis, Debye-Ang):
   XX=            -61.6157   YY=            -63.4686   ZZ=            -75.6123
   XY=              0.0003   XZ=             -0.0005   YZ=             -0.0000
 Traceless Quadrupole moment (field-independent basis, Debye-Ang):
   XX=              5.2832   YY=              3.4303   ZZ=             -8.7135
   XY=              0.0003   XZ=             -0.0005   YZ=             -0.0000
 Octapole moment (field-independent basis, Debye-Ang**2):
  XXX=              0.0005  YYY=             -0.0010  ZZZ=              0.0018  XYY=             -0.0004
  XXY=             -0.0012  XXZ=              0.0017  XZZ=              0.0004  YZZ=             -0.0006
  YYZ=              0.0019  XYZ=            -13.3471
 Hexadecapole moment (field-independent basis, Debye-Ang**3):
 XXXX=          -2300.4594 YYYY=           -487.3798 ZZZZ=           -174.4808 XXXY=              0.0001
 XXXZ=             -0.0200 YYYX=              0.0078 YYYZ=             -0.0001 ZZZX=              0.0001
 ZZZY=             -0.0002 XXYY=           -476.6357 XXZZ=           -499.4204 YYZZ=           -111.1360
 XXYZ=             -0.0017 YYXZ=              0.0021 ZZXY=             -0.0042
 N-N= 5.987426453499D+02 E-N=-2.271748973552D+03  KE= 4.610096244646D+02
 No NMR shielding tensors so no spin-rotation constants.
 Leave Link  601 at Sat Nov  5 21:34:33 2022, MaxMem= 16106127360 cpu:               4.3 elap:               0.2
 (Enter /opt/ap/G16/B01/g16/l9999.exe)
 1\1\GINC-N04\SP\RwB97XD\6-311++G(d,p)\C12H10\ROOT\05-Nov-2022\0\\#P wB
 97XD/6-311++G(d,p) scf=maxcycle=512\\_conf009.gjf nmol_natom 1_22\\0,1
 \C\C,1,1.40491871\C,1,1.40495292,2,118.20503621\C,2,1.3939373,1,120.91
 08946,3,0.05365643,0\H,2,1.08593095,1,119.3452094,3,-178.3624307,0\C,1
 ,1.48449301,2,120.90144423,4,-179.96388019,0\C,3,1.39389842,1,120.9105
 0598,2,0.03587687,0\H,3,1.08593608,1,119.34159615,2,-178.38281524,0\C,
 4,1.39606958,2,120.24555868,1,-0.09283196,0\H,4,1.08627898,2,119.66792
 041,1,-179.51486187,0\C,6,1.40492034,1,120.90156908,2,-45.,0\C,6,1.404
 95329,1,120.89324856,2,135.,0\H,7,1.08627928,3,119.67027175,1,-179.512
 58183,0\H,9,1.08597601,4,120.2602535,2,-179.95233103,0\C,11,1.39393437
 ,6,120.91099656,1,-179.95869964,0\H,11,1.08593173,6,119.34475907,1,1.6
 1891886,0\C,12,1.39390147,6,120.91022615,1,-179.94297913,0\H,12,1.0859
 3608,6,119.34175044,1,1.63241608,0\C,15,1.39607161,11,120.24535737,6,-
 0.10315482,0\H,15,1.08627786,11,119.66861247,6,-179.51844254,0\H,17,1.
 08627825,12,119.6702798,6,-179.51590091,0\H,19,1.08597601,15,120.25988
 597,11,-179.94731581,0\\Version=ES64L-G16RevB.01\State=1-A\HF=-463.250
 1821\RMSD=6.390e-09\Dipole=0.0000018,-0.0001442,-0.0000276\Quadrupole=
 3.2152753,-5.1553835,1.9401082,1.6404068,1.1902077,-2.7390887\PG=C01 [
 X(C12H10)]\\@


 CHARLIE BROWN.."I CAN'T GET THAT STUPID KITE IN THE
 AIR... I CAN'T... I C A N N O T..."
 LUCY.."OH COME NOW CHARLIE BROWN...THAT'S NO WAY TO TALK...
 THE TROUBLE WITH YOU IS YOU DON'T BELIEVE IN YOURSELF... YOU
 DON'T BELIEVE IN YOUR OWN ABILITIES...  YOU'VE GOT TO SAY TO
 YOURSELF...'I BELIEVE I CAN FLY THIS KITE.'... GO AHEAD SAY
 IT...."
 CHARLIE BROWN.."I BELIEVE THAT I CAN FLY THIS STUPID
 KITE.....I BELIEVE THAT I CAN FLY THIS KITE........
 I  A C T U A L L Y  B E L I E V E  T H A T  I  C A N ******"
 LUCY.."I'LL BET YOU TEN-TO-ONE YOU'RE WRONG......."    SCHULZ
 Job cpu time:       0 days  0 hours 13 minutes 51.2 seconds.
 Elapsed time:       0 days  0 hours  0 minutes 26.2 seconds.
 File lengths (MBytes):  RWF=     62 Int=      0 D2E=      0 Chk=      8 Scr=      1
 Normal termination of Gaussian 16 at Sat Nov  5 21:34:34 2022.
