 Entering Gaussian System, Link 0=g16
 Input=_conf002.gjf
 Output=_conf002.log
 Initial command:
 /opt/ap/G16/B01/g16/l1.exe "/tmp2/scr/Gau-1081.inp" -scrdir="/tmp2/scr/"
 Entering Link 1 = /opt/ap/G16/B01/g16/l1.exe PID=      1082.
  
 Copyright (c) 1988-2017, Gaussian, Inc.  All Rights Reserved.
  
 This is part of the Gaussian(R) 16 program.  It is based on
 the Gaussian(R) 09 system (copyright 2009, Gaussian, Inc.),
 the Gaussian(R) 03 system (copyright 2003, Gaussian, Inc.),
 the Gaussian(R) 98 system (copyright 1998, Gaussian, Inc.),
 the Gaussian(R) 94 system (copyright 1995, Gaussian, Inc.),
 the Gaussian 92(TM) system (copyright 1992, Gaussian, Inc.),
 the Gaussian 90(TM) system (copyright 1990, Gaussian, Inc.),
 the Gaussian 88(TM) system (copyright 1988, Gaussian, Inc.),
 the Gaussian 86(TM) system (copyright 1986, Carnegie Mellon
 University), and the Gaussian 82(TM) system (copyright 1983,
 Carnegie Mellon University). Gaussian is a federally registered
 trademark of Gaussian, Inc.
  
 This software contains proprietary and confidential information,
 including trade secrets, belonging to Gaussian, Inc.
  
 This software is provided under written license and may be
 used, copied, transmitted, or stored only in accord with that
 written license.
  
 The following legend is applicable only to US Government
 contracts under FAR:
  
                    RESTRICTED RIGHTS LEGEND
  
 Use, reproduction and disclosure by the US Government is
 subject to restrictions as set forth in subparagraphs (a)
 and (c) of the Commercial Computer Software - Restricted
 Rights clause in FAR 52.227-19.
  
 Gaussian, Inc.
 340 Quinnipiac St., Bldg. 40, Wallingford CT 06492
  
  
 ---------------------------------------------------------------
 Warning -- This program may not be used in any manner that
 competes with the business of Gaussian, Inc. or will provide
 assistance to any competitor of Gaussian, Inc.  The licensee
 of this program is prohibited from giving any competitor of
 Gaussian, Inc. access to this program.  By using this program,
 the user acknowledges that Gaussian, Inc. is engaged in the
 business of creating and licensing software in the field of
 computational chemistry and represents and warrants to the
 licensee that it is not a competitor of Gaussian, Inc. and that
 it will not use this program in any manner prohibited above.
 ---------------------------------------------------------------
  

 Cite this work as:
 Gaussian 16, Revision B.01,
 M. J. Frisch, G. W. Trucks, H. B. Schlegel, G. E. Scuseria, 
 M. A. Robb, J. R. Cheeseman, G. Scalmani, V. Barone, 
 G. A. Petersson, H. Nakatsuji, X. Li, M. Caricato, A. V. Marenich, 
 J. Bloino, B. G. Janesko, R. Gomperts, B. Mennucci, H. P. Hratchian, 
 J. V. Ortiz, A. F. Izmaylov, J. L. Sonnenberg, D. Williams-Young, 
 F. Ding, F. Lipparini, F. Egidi, J. Goings, B. Peng, A. Petrone, 
 T. Henderson, D. Ranasinghe, V. G. Zakrzewski, J. Gao, N. Rega, 
 G. Zheng, W. Liang, M. Hada, M. Ehara, K. Toyota, R. Fukuda, 
 J. Hasegawa, M. Ishida, T. Nakajima, Y. Honda, O. Kitao, H. Nakai, 
 T. Vreven, K. Throssell, J. A. Montgomery, Jr., J. E. Peralta, 
 F. Ogliaro, M. J. Bearpark, J. J. Heyd, E. N. Brothers, K. N. Kudin, 
 V. N. Staroverov, T. A. Keith, R. Kobayashi, J. Normand, 
 K. Raghavachari, A. P. Rendell, J. C. Burant, S. S. Iyengar, 
 J. Tomasi, M. Cossi, J. M. Millam, M. Klene, C. Adamo, R. Cammi, 
 J. W. Ochterski, R. L. Martin, K. Morokuma, O. Farkas, 
 J. B. Foresman, and D. J. Fox, Gaussian, Inc., Wallingford CT, 2016.
 
 ******************************************
 Gaussian 16:  ES64L-G16RevB.01 20-Dec-2017
                 5-Nov-2022 
 ******************************************
 %nprocshared=32
 Will use up to   32 processors via shared memory.
 %mem=120GB
 %chk=_conf002.chk
 ----------------------------------------
 #P wB97XD/6-311++G(d,p) scf=maxcycle=512
 ----------------------------------------
 1/38=1,172=1/1;
 2/12=2,17=6,18=5,40=1/2;
 3/5=4,6=6,7=1111,11=2,25=1,30=1,74=-58/1,2,3;
 4//1;
 5/5=2,7=512,38=5/2;
 6/7=2,8=2,9=2,10=2,28=1/1;
 99/5=1,9=1/99;
 Leave Link    1 at Sat Nov  5 21:33:17 2022, MaxMem= 16106127360 cpu:               1.8 elap:               0.1
 (Enter /opt/ap/G16/B01/g16/l101.exe)
 ----------------------------
 _conf002.gjf nmol_natom 1_22
 ----------------------------
 Symbolic Z-matrix:
 Charge =  0 Multiplicity = 1
 C
 C                    1     1.40492 
 C                    1     1.40495  2     118.20504 
 C                    2     1.39394  1     120.91089  3     0.05366  0
 H                    2     1.08593  1     119.34521  3    -178.36243  0
 C                    1     1.48449  2     120.90144  4    -179.96388  0
 C                    3     1.3939   1     120.91051  2     0.03588  0
 H                    3     1.08594  1     119.3416  2    -178.38282  0
 C                    4     1.39607  2     120.24556  1    -0.09283  0
 H                    4     1.08628  2     119.66792  1    -179.51486  0
 C                    6     1.40492  1     120.90157  2    -80.      0
 C                    6     1.40495  1     120.89325  2     100.     0
 H                    7     1.08628  3     119.67027  1    -179.51258  0
 H                    9     1.08598  4     120.26025  2    -179.95233  0
 C                    11    1.39393  6     120.911  1    -179.9587  0
 H                    11    1.08593  6     119.34476  1     1.61892  0
 C                    12    1.3939   6     120.91023  1    -179.94298  0
 H                    12    1.08594  6     119.34175  1     1.63242  0
 C                    15    1.39607  11    120.24536  6    -0.10315  0
 H                    15    1.08628  11    119.66861  6    -179.51844  0
 H                    17    1.08628  12    119.67028  6    -179.5159  0
 H                    19    1.08598  15    120.25989  11   -179.94732  0
 
 ITRead=  0  0  0  0  0  0  0  0  0  0  0  0  0  0  0  0  0  0  0  0
 ITRead=  0  0
 MicOpt= -1 -1 -1 -1 -1 -1 -1 -1 -1 -1 -1 -1 -1 -1 -1 -1 -1 -1 -1 -1
 MicOpt= -1 -1
 NAtoms=     22 NQM=       22 NQMF=       0 NMMI=      0 NMMIF=      0
                NMic=       0 NMicF=      0.
                    Isotopes and Nuclear Properties:
 (Nuclear quadrupole moments (NQMom) in fm**2, nuclear magnetic moments (NMagM)
  in nuclear magnetons)

  Atom         1           2           3           4           5           6           7           8           9          10
 IAtWgt=          12          12          12          12           1          12          12           1          12           1
 AtmWgt=  12.0000000  12.0000000  12.0000000  12.0000000   1.0078250  12.0000000  12.0000000   1.0078250  12.0000000   1.0078250
 NucSpn=           0           0           0           0           1           0           0           1           0           1
 AtZEff=  -0.0000000  -0.0000000  -0.0000000  -0.0000000  -0.0000000  -0.0000000  -0.0000000  -0.0000000  -0.0000000  -0.0000000
 NQMom=    0.0000000   0.0000000   0.0000000   0.0000000   0.0000000   0.0000000   0.0000000   0.0000000   0.0000000   0.0000000
 NMagM=    0.0000000   0.0000000   0.0000000   0.0000000   2.7928460   0.0000000   0.0000000   2.7928460   0.0000000   2.7928460
 AtZNuc=   6.0000000   6.0000000   6.0000000   6.0000000   1.0000000   6.0000000   6.0000000   1.0000000   6.0000000   1.0000000

  Atom        11          12          13          14          15          16          17          18          19          20
 IAtWgt=          12          12           1           1          12           1          12           1          12           1
 AtmWgt=  12.0000000  12.0000000   1.0078250   1.0078250  12.0000000   1.0078250  12.0000000   1.0078250  12.0000000   1.0078250
 NucSpn=           0           0           1           1           0           1           0           1           0           1
 AtZEff=  -0.0000000  -0.0000000  -0.0000000  -0.0000000  -0.0000000  -0.0000000  -0.0000000  -0.0000000  -0.0000000  -0.0000000
 NQMom=    0.0000000   0.0000000   0.0000000   0.0000000   0.0000000   0.0000000   0.0000000   0.0000000   0.0000000   0.0000000
 NMagM=    0.0000000   0.0000000   2.7928460   2.7928460   0.0000000   2.7928460   0.0000000   2.7928460   0.0000000   2.7928460
 AtZNuc=   6.0000000   6.0000000   1.0000000   1.0000000   6.0000000   1.0000000   6.0000000   1.0000000   6.0000000   1.0000000

  Atom        21          22
 IAtWgt=           1           1
 AtmWgt=   1.0078250   1.0078250
 NucSpn=           1           1
 AtZEff=  -0.0000000  -0.0000000
 NQMom=    0.0000000   0.0000000
 NMagM=    2.7928460   2.7928460
 AtZNuc=   1.0000000   1.0000000
 Leave Link  101 at Sat Nov  5 21:33:18 2022, MaxMem= 16106127360 cpu:               6.4 elap:               0.2
 (Enter /opt/ap/G16/B01/g16/l202.exe)
                          Input orientation:                          
 ---------------------------------------------------------------------
 Center     Atomic      Atomic             Coordinates (Angstroms)
 Number     Number       Type             X           Y           Z
 ---------------------------------------------------------------------
      1          6           0        0.000000    0.000000    0.000000
      2          6           0        0.000000    0.000000    1.404919
      3          6           0        1.238131    0.000000   -0.664020
      4          6           0        1.195952    0.001120    2.120990
      5          1           0       -0.946201   -0.027051    1.937101
      6          6           0       -1.273772   -0.000390   -0.762381
      7          6           0        2.434381   -0.000749    0.051479
      8          1           0        1.259850    0.026715   -1.749411
      9          6           0        2.418826    0.000311    1.447501
     10          1           0        1.172413   -0.006894    3.206985
     11          6           0       -2.000013   -1.187791   -0.953308
     12          6           0       -1.785582    1.186763   -1.312481
     13          1           0        3.380326    0.007295   -0.482493
     14          1           0        3.350700    0.000403    2.005133
     15          6           0       -3.195665   -1.188533   -1.669875
     16          1           0       -1.635173   -2.111292   -0.513665
     17          6           0       -2.982187    1.187011   -2.027393
     18          1           0       -1.225879    2.110404   -1.199000
     19          6           0       -3.692698   -0.000865   -2.209709
     20          1           0       -3.744816   -2.116902   -1.798573
     21          1           0       -3.355398    2.115143   -2.450814
     22          1           0       -4.624610   -0.001023   -2.767278
 ---------------------------------------------------------------------
                    Distance matrix (angstroms):
                    1          2          3          4          5
     1  C    0.000000
     2  C    1.404919   0.000000
     3  C    1.404953   2.411116   0.000000
     4  C    2.434934   1.393937   2.785330   0.000000
     5  H    2.156012   1.085931   3.396745   2.150216   0.000000
     6  C    1.484493   2.513898   2.513829   3.796494   2.719415
     7  C    2.434925   2.785320   1.393898   2.411760   3.870994
     8  H    2.156008   3.396723   1.085936   3.871013   4.296501
     9  C    2.818861   2.419201   2.419207   1.396070   3.400568
    10  H    3.414579   2.149893   3.871569   1.086279   2.470128
    11  C    2.513901   3.312421   3.461230   4.591189   3.288207
    12  C    2.513826   3.461354   3.312364   4.699364   3.568990
    13  H    3.414594   3.871560   2.149884   3.398478   4.957262
    14  H    3.904837   3.404035   3.404016   2.157861   4.297527
    15  C    3.796494   4.591214   4.699245   5.922182   4.406746
    16  H    2.719411   3.288207   3.568759   4.406695   3.290137
    17  C    3.796414   4.699276   4.591173   6.006019   4.619134
    18  H    2.719225   3.568890   3.288063   4.619165   3.805531
    19  C    4.303351   5.167354   5.167420   6.530992   4.973928
    20  H    4.662595   5.363514   5.531569   6.652833   5.114195
    21  H    4.662511   5.531654   5.363485   6.788613   5.444908
    22  H    5.389327   6.228503   6.228598   7.600929   5.971814
                    6          7          8          9         10
     6  C    0.000000
     7  C    3.796415   0.000000
     8  H    2.719228   2.150228   0.000000
     9  C    4.303354   1.396108   3.400612   0.000000
    10  H    4.662588   3.398502   4.957280   2.156243   0.000000
    11  C    1.404920   4.699204   3.568685   5.167360   5.363473
    12  C    1.404953   4.591151   3.288051   5.167419   5.531738
    13  H    4.662512   1.086279   2.470197   2.156248   4.299689
    14  H    5.389330   2.157871   4.297551   1.085976   2.487858
    15  C    2.434934   6.005940   4.618957   6.530995   6.652829
    16  H    2.156010   4.618988   3.805167   4.973927   5.114124
    17  C    2.434925   5.922136   4.406636   6.531009   6.788580
    18  H    2.156010   4.406605   3.289918   4.973966   5.444948
    19  C    2.818858   6.531008   4.973968   7.122212   7.280790
    20  H    3.414583   6.788466   5.444648   7.280802   7.327134
    21  H    3.414594   6.652819   5.114099   7.280867   7.550814
    22  H    3.904834   7.600970   5.971908   8.208188   8.324502
                   11         12         13         14         15
    11  C    0.000000
    12  C    2.411119   0.000000
    13  H    5.531541   5.363453   0.000000
    14  H    6.228508   6.228597   2.487812   0.000000
    15  C    1.393934   2.785336   6.788486   7.600931   0.000000
    16  H    1.085932   3.396748   5.444686   5.971812   2.150219
    17  C    2.785320   1.393901   6.652820   7.600972   2.411763
    18  H    3.396725   1.085936   5.114056   5.971906   3.871016
    19  C    2.419198   2.419208   7.280865   8.208188   1.396072
    20  H    2.149897   3.871575   7.550624   8.324513   1.086278
    21  H    3.871558   2.149886   7.327160   8.324622   3.398478
    22  H    3.404029   3.404019   8.324620   9.294164   2.157859
                   16         17         18         19         20
    16  H    0.000000
    17  C    3.870997   0.000000
    18  H    4.296501   2.150234   0.000000
    19  C    3.400569   1.396107   3.400615   0.000000
    20  H    2.470145   3.398500   4.957282   2.156238   0.000000
    21  H    4.957264   1.086278   2.470204   2.156245   4.299683
    22  H    4.297527   2.157871   4.297556   1.085976   2.487844
                   21         22
    21  H    0.000000
    22  H    2.487812   0.000000
 Stoichiometry    C12H10
 Framework group  C1[X(C12H10)]
 Deg. of freedom    60
 Full point group                 C1      NOp   1
 Largest Abelian subgroup         C1      NOp   1
 Largest concise Abelian subgroup C1      NOp   1
                         Standard orientation:                         
 ---------------------------------------------------------------------
 Center     Atomic      Atomic             Coordinates (Angstroms)
 Number     Number       Type             X           Y           Z
 ---------------------------------------------------------------------
      1          6           0       -0.742246    0.000060   -0.000139
      2          6           0       -1.463692   -0.923431   -0.775042
      3          6           0       -1.463679    0.923436    0.774977
      4          6           0       -2.857629   -0.923095   -0.775923
      5          1           0       -0.925055   -1.662734   -1.360317
      6          6           0        0.742247    0.000031    0.000026
      7          6           0       -2.857577    0.923064    0.775942
      8          1           0       -0.924955    1.662608    1.360348
      9          6           0       -3.561107   -0.000014   -0.000003
     10          1           0       -3.395104   -1.651357   -1.376553
     11          6           0        1.463660   -0.923400    0.775035
     12          6           0        1.463711    0.923535   -0.774908
     13          1           0       -3.395072    1.651224    1.376678
     14          1           0       -4.647083   -0.000041    0.000088
     15          6           0        2.857594   -0.923050    0.775998
     16          1           0        0.924987   -1.662601    1.360408
     17          6           0        2.857612    0.923058   -0.775931
     18          1           0        0.925015    1.662820   -1.360161
     19          6           0        3.561105   -0.000153   -0.000113
     20          1           0        3.395051   -1.651223    1.376752
     21          1           0        3.395137    1.651282   -1.376562
     22          1           0        4.647081   -0.000224   -0.000200
 ---------------------------------------------------------------------
 Rotational constants (GHZ):           2.8585222           0.5164045           0.5004803
 Leave Link  202 at Sat Nov  5 21:33:18 2022, MaxMem= 16106127360 cpu:               0.4 elap:               0.0
 (Enter /opt/ap/G16/B01/g16/l301.exe)
 Standard basis: 6-311++G(d,p) (5D, 7F)
 Ernie: Thresh=  0.10000D-02 Tol=  0.10000D-05 Strict=F.
 There are   346 symmetry adapted cartesian basis functions of A   symmetry.
 There are   334 symmetry adapted basis functions of A   symmetry.
   334 basis functions,   522 primitive gaussians,   346 cartesian basis functions
    41 alpha electrons       41 beta electrons
       nuclear repulsion energy       597.9019625640 Hartrees.
 IExCor= 4639 DFT=T Ex+Corr=wB97XD ExCW=0 ScaHFX=  1.000000
 ScaDFX=  1.000000  1.000000  1.000000  1.000000 ScalE2=  1.000000  1.000000
 IRadAn=      5 IRanWt=     -1 IRanGd=            0 ICorTp=0 IEmpDi=121
 HFx  wShort=  0.000000 wLong=  0.200000 cFull=  0.222036 cShort=  0.000000 cLong=  0.777964
 DFx  wShort=  0.000000 wLong=  0.200000 cFull=  0.000000 cShort=  0.000000 cLong=  1.000000
 NAtoms=   22 NActive=   22 NUniq=   22 SFac= 1.00D+00 NAtFMM=   60 NAOKFM=F Big=F
 Integral buffers will be    131072 words long.
 Raffenetti 2 integral format.
 Two-electron integral symmetry is turned on.
 R6Disp:  Grimme-D2 Dispersion energy=       -0.0118742287 Hartrees.
 Nuclear repulsion after empirical dispersion term =      597.8900883353 Hartrees.
 Leave Link  301 at Sat Nov  5 21:33:18 2022, MaxMem= 16106127360 cpu:               1.5 elap:               0.1
 (Enter /opt/ap/G16/B01/g16/l302.exe)
 NPDir=0 NMtPBC=     1 NCelOv=     1 NCel=       1 NClECP=     1 NCelD=      1
         NCelK=      1 NCelE2=     1 NClLst=     1 CellRange=     0.0.
 One-electron integrals computed using PRISM.
 One-electron integral symmetry used in STVInt
 NBasis=   334 RedAO= T EigKep=  1.87D-06  NBF=   334
 NBsUse=   332 1.00D-06 EigRej=  8.72D-07 NBFU=   332
 Precomputing XC quadrature grid using
 IXCGrd= 4 IRadAn=           5 IRanWt=          -1 IRanGd=           0 AccXCQ= 0.00D+00.
 Generated NRdTot=       0 NPtTot=           0 NUsed=           0 NTot=          32
 NSgBfM=   346   346   346   346   346 MxSgAt=    22 MxSgA2=    22.
 Leave Link  302 at Sat Nov  5 21:33:18 2022, MaxMem= 16106127360 cpu:               8.3 elap:               0.3
 (Enter /opt/ap/G16/B01/g16/l303.exe)
 DipDrv:  MaxL=1.
 Leave Link  303 at Sat Nov  5 21:33:18 2022, MaxMem= 16106127360 cpu:               1.6 elap:               0.1
 (Enter /opt/ap/G16/B01/g16/l401.exe)
 ExpMin= 3.60D-02 ExpMax= 4.56D+03 ExpMxC= 6.82D+02 IAcc=3 IRadAn=         5 AccDes= 0.00D+00
 Harris functional with IExCor= 4639 and IRadAn=       5 diagonalized for initial guess.
 HarFok:  IExCor= 4639 AccDes= 0.00D+00 IRadAn=         5 IDoV= 1 UseB2=F ITyADJ=14
 ICtDFT=  3500011 ScaDFX=  1.000000  1.000000  1.000000  1.000000
 FoFCou: FMM=F IPFlag=           0 FMFlag=      100000 FMFlg1=           0
         NFxFlg=           0 DoJE=T BraDBF=F KetDBF=T FulRan=T
         wScrn=  0.000000 ICntrl=       500 IOpCl=  0 I1Cent=   200000004 NGrid=           0
         NMat0=    1 NMatS0=      1 NMatT0=    0 NMatD0=    1 NMtDS0=    0 NMtDT0=    0
 Petite list used in FoFCou.
 Harris En= -441.937002841490    
 JPrj=0 DoOrth=F DoCkMO=F.
 Leave Link  401 at Sat Nov  5 21:33:19 2022, MaxMem= 16106127360 cpu:              20.5 elap:               0.7
 (Enter /opt/ap/G16/B01/g16/l502.exe)
 Integral symmetry usage will be decided dynamically.
 Closed shell SCF:
 Using DIIS extrapolation, IDIIS=  1040.
 NGot= 16106127360 LenX= 16105873520 LenY= 16105753363
 Requested convergence on RMS density matrix=1.00D-08 within 512 cycles.
 Requested convergence on MAX density matrix=1.00D-06.
 Requested convergence on             energy=1.00D-06.
 No special actions if energy rises.
 Fock matrices will be formed incrementally for  20 cycles.

 Cycle   1  Pass 1  IDiag  1:
 FoFJK:  IHMeth= 1 ICntrl=       0 DoSepK=T KAlg= 0 I1Cent=           0 FoldK=F
 IRaf=         1 NMat=       1 IRICut=       1 DoRegI=T DoRafI=F ISym2E= 0 IDoP0=0 IntGTp=1.
 FoFCou: FMM=F IPFlag=           0 FMFlag=      100000 FMFlg1=           0
         NFxFlg=           0 DoJE=T BraDBF=F KetDBF=F FulRan=T
         wScrn=  0.000000 ICntrl=       500 IOpCl=  0 I1Cent=           0 NGrid=           0
         NMat0=    1 NMatS0=      1 NMatT0=    0 NMatD0=    1 NMtDS0=    0 NMtDT0=    0
 Symmetry not used in FoFCou.
 E= -463.150846515802    
 DIIS: error= 6.10D-02 at cycle   1 NSaved=   1.
 NSaved= 1 IEnMin= 1 EnMin= -463.150846515802     IErMin= 1 ErrMin= 6.10D-02
 ErrMax= 6.10D-02  0.00D+00 EMaxC= 1.00D-01 BMatC= 9.52D-01 BMatP= 9.52D-01
 IDIUse=3 WtCom= 3.90D-01 WtEn= 6.10D-01
 Coeff-Com:  0.100D+01
 Coeff-En:   0.100D+01
 Coeff:      0.100D+01
 Gap=     0.365 Goal=   None    Shift=    0.000
 GapD=    0.365 DampG=1.000 DampE=0.500 DampFc=0.5000 IDamp=-1.
 Damping current iteration by 5.00D-01
 RMSDP=5.36D-02 MaxDP=3.06D+00              OVMax= 3.88D-02

 Cycle   2  Pass 1  IDiag  1:
 RMSU=  4.68D-03    CP:  7.67D-01
 E= -463.199731740108     Delta-E=       -0.048885224307 Rises=F Damp=T
 DIIS: error= 2.98D-02 at cycle   2 NSaved=   2.
 NSaved= 2 IEnMin= 2 EnMin= -463.199731740108     IErMin= 2 ErrMin= 2.98D-02
 ErrMax= 2.98D-02  0.00D+00 EMaxC= 1.00D-01 BMatC= 2.16D-01 BMatP= 9.52D-01
 IDIUse=3 WtCom= 7.02D-01 WtEn= 2.98D-01
 Coeff-Com: -0.882D+00 0.188D+01
 Coeff-En:   0.000D+00 0.100D+01
 Coeff:     -0.620D+00 0.162D+01
 Gap=     0.365 Goal=   None    Shift=    0.000
 RMSDP=2.49D-02 MaxDP=1.54D+00 DE=-4.89D-02 OVMax= 3.64D-02

 Cycle   3  Pass 1  IDiag  1:
 RMSU=  4.51D-03    CP:  5.52D-01  1.10D+00
 E= -463.243077249189     Delta-E=       -0.043345509081 Rises=F Damp=F
 DIIS: error= 5.02D-03 at cycle   3 NSaved=   3.
 NSaved= 3 IEnMin= 3 EnMin= -463.243077249189     IErMin= 3 ErrMin= 5.02D-03
 ErrMax= 5.02D-03  0.00D+00 EMaxC= 1.00D-01 BMatC= 4.95D-03 BMatP= 2.16D-01
 IDIUse=3 WtCom= 9.50D-01 WtEn= 5.02D-02
 Coeff-Com: -0.376D+00 0.800D+00 0.576D+00
 Coeff-En:   0.000D+00 0.000D+00 0.100D+01
 Coeff:     -0.357D+00 0.760D+00 0.598D+00
 Gap=     0.365 Goal=   None    Shift=    0.000
 RMSDP=3.25D-03 MaxDP=2.43D-01 DE=-4.33D-02 OVMax= 2.22D-02

 Cycle   4  Pass 1  IDiag  1:
 RMSU=  8.62D-04    CP:  5.30D-01  1.43D+00  7.28D-01
 E= -463.247512724817     Delta-E=       -0.004435475628 Rises=F Damp=F
 DIIS: error= 1.64D-03 at cycle   4 NSaved=   4.
 NSaved= 4 IEnMin= 4 EnMin= -463.247512724817     IErMin= 4 ErrMin= 1.64D-03
 ErrMax= 1.64D-03  0.00D+00 EMaxC= 1.00D-01 BMatC= 3.00D-04 BMatP= 4.95D-03
 IDIUse=3 WtCom= 9.84D-01 WtEn= 1.64D-02
 Coeff-Com: -0.135D+00 0.289D+00 0.286D+00 0.561D+00
 Coeff-En:   0.000D+00 0.000D+00 0.000D+00 0.100D+01
 Coeff:     -0.133D+00 0.284D+00 0.281D+00 0.568D+00
 Gap=     0.363 Goal=   None    Shift=    0.000
 RMSDP=9.76D-04 MaxDP=5.98D-02 DE=-4.44D-03 OVMax= 5.24D-03

 Cycle   5  Pass 1  IDiag  1:
 RMSU=  2.71D-04    CP:  5.23D-01  1.40D+00  8.09D-01  6.25D-01
 E= -463.247827068651     Delta-E=       -0.000314343833 Rises=F Damp=F
 DIIS: error= 2.45D-04 at cycle   5 NSaved=   5.
 NSaved= 5 IEnMin= 5 EnMin= -463.247827068651     IErMin= 5 ErrMin= 2.45D-04
 ErrMax= 2.45D-04  0.00D+00 EMaxC= 1.00D-01 BMatC= 8.14D-06 BMatP= 3.00D-04
 IDIUse=3 WtCom= 9.98D-01 WtEn= 2.45D-03
 Coeff-Com:  0.269D-01-0.575D-01-0.281D-01 0.115D+00 0.943D+00
 Coeff-En:   0.000D+00 0.000D+00 0.000D+00 0.000D+00 0.100D+01
 Coeff:      0.268D-01-0.573D-01-0.281D-01 0.115D+00 0.944D+00
 Gap=     0.362 Goal=   None    Shift=    0.000
 RMSDP=2.27D-04 MaxDP=1.08D-02 DE=-3.14D-04 OVMax= 1.19D-03

 Cycle   6  Pass 1  IDiag  1:
 RMSU=  5.27D-05    CP:  5.23D-01  1.38D+00  8.47D-01  7.09D-01  1.26D+00
 E= -463.247837771079     Delta-E=       -0.000010702428 Rises=F Damp=F
 DIIS: error= 6.67D-05 at cycle   6 NSaved=   6.
 NSaved= 6 IEnMin= 6 EnMin= -463.247837771079     IErMin= 6 ErrMin= 6.67D-05
 ErrMax= 6.67D-05  0.00D+00 EMaxC= 1.00D-01 BMatC= 5.51D-07 BMatP= 8.14D-06
 IDIUse=1 WtCom= 1.00D+00 WtEn= 0.00D+00
 Coeff-Com:  0.127D-01-0.272D-01-0.157D-01 0.300D-01 0.353D+00 0.648D+00
 Coeff:      0.127D-01-0.272D-01-0.157D-01 0.300D-01 0.353D+00 0.648D+00
 Gap=     0.362 Goal=   None    Shift=    0.000
 RMSDP=5.04D-05 MaxDP=3.44D-03 DE=-1.07D-05 OVMax= 2.52D-04

 Cycle   7  Pass 1  IDiag  1:
 RMSU=  1.21D-05    CP:  5.23D-01  1.37D+00  8.52D-01  7.09D-01  1.31D+00
                    CP:  1.12D+00
 E= -463.247838377375     Delta-E=       -0.000000606296 Rises=F Damp=F
 DIIS: error= 1.62D-05 at cycle   7 NSaved=   7.
 NSaved= 7 IEnMin= 7 EnMin= -463.247838377375     IErMin= 7 ErrMin= 1.62D-05
 ErrMax= 1.62D-05  0.00D+00 EMaxC= 1.00D-01 BMatC= 4.95D-08 BMatP= 5.51D-07
 IDIUse=1 WtCom= 1.00D+00 WtEn= 0.00D+00
 Coeff-Com: -0.200D-02 0.430D-02 0.193D-02-0.165D-01-0.992D-01 0.144D+00
 Coeff-Com:  0.968D+00
 Coeff:     -0.200D-02 0.430D-02 0.193D-02-0.165D-01-0.992D-01 0.144D+00
 Coeff:      0.968D+00
 Gap=     0.362 Goal=   None    Shift=    0.000
 RMSDP=3.03D-05 MaxDP=1.89D-03 DE=-6.06D-07 OVMax= 1.33D-04

 Cycle   8  Pass 1  IDiag  1:
 RMSU=  3.22D-06    CP:  5.23D-01  1.37D+00  8.57D-01  7.11D-01  1.36D+00
                    CP:  1.27D+00  1.29D+00
 E= -463.247838458449     Delta-E=       -0.000000081074 Rises=F Damp=F
 DIIS: error= 4.28D-06 at cycle   8 NSaved=   8.
 NSaved= 8 IEnMin= 8 EnMin= -463.247838458449     IErMin= 8 ErrMin= 4.28D-06
 ErrMax= 4.28D-06  0.00D+00 EMaxC= 1.00D-01 BMatC= 1.93D-09 BMatP= 4.95D-08
 IDIUse=1 WtCom= 1.00D+00 WtEn= 0.00D+00
 Coeff-Com: -0.497D-03 0.106D-02 0.705D-03-0.263D-02-0.155D-01 0.787D-03
 Coeff-Com:  0.258D-01 0.990D+00
 Coeff:     -0.497D-03 0.106D-02 0.705D-03-0.263D-02-0.155D-01 0.787D-03
 Coeff:      0.258D-01 0.990D+00
 Gap=     0.362 Goal=   None    Shift=    0.000
 RMSDP=5.27D-06 MaxDP=3.84D-04 DE=-8.11D-08 OVMax= 2.82D-05

 Cycle   9  Pass 1  IDiag  1:
 RMSU=  4.28D-07    CP:  5.23D-01  1.37D+00  8.57D-01  7.10D-01  1.36D+00
                    CP:  1.29D+00  1.38D+00  1.27D+00
 E= -463.247838462689     Delta-E=       -0.000000004240 Rises=F Damp=F
 DIIS: error= 2.21D-06 at cycle   9 NSaved=   9.
 NSaved= 9 IEnMin= 9 EnMin= -463.247838462689     IErMin= 9 ErrMin= 2.21D-06
 ErrMax= 2.21D-06  0.00D+00 EMaxC= 1.00D-01 BMatC= 3.54D-10 BMatP= 1.93D-09
 IDIUse=1 WtCom= 1.00D+00 WtEn= 0.00D+00
 Coeff-Com:  0.186D-03-0.401D-03-0.618D-04 0.190D-02 0.124D-01-0.190D-01
 Coeff-Com: -0.165D+00 0.309D+00 0.861D+00
 Coeff:      0.186D-03-0.401D-03-0.618D-04 0.190D-02 0.124D-01-0.190D-01
 Coeff:     -0.165D+00 0.309D+00 0.861D+00
 Gap=     0.362 Goal=   None    Shift=    0.000
 RMSDP=1.64D-06 MaxDP=9.84D-05 DE=-4.24D-09 OVMax= 1.86D-05

 Cycle  10  Pass 1  IDiag  1:
 RMSU=  2.24D-07    CP:  5.23D-01  1.37D+00  8.57D-01  7.10D-01  1.37D+00
                    CP:  1.30D+00  1.41D+00  1.39D+00  1.19D+00
 E= -463.247838463601     Delta-E=       -0.000000000912 Rises=F Damp=F
 DIIS: error= 4.54D-07 at cycle  10 NSaved=  10.
 NSaved=10 IEnMin=10 EnMin= -463.247838463601     IErMin=10 ErrMin= 4.54D-07
 ErrMax= 4.54D-07  0.00D+00 EMaxC= 1.00D-01 BMatC= 4.54D-11 BMatP= 3.54D-10
 IDIUse=1 WtCom= 1.00D+00 WtEn= 0.00D+00
 Coeff-Com:  0.709D-04-0.152D-03-0.629D-04 0.524D-03 0.284D-02-0.103D-02
 Coeff-Com: -0.259D-01-0.100D+00 0.187D+00 0.937D+00
 Coeff:      0.709D-04-0.152D-03-0.629D-04 0.524D-03 0.284D-02-0.103D-02
 Coeff:     -0.259D-01-0.100D+00 0.187D+00 0.937D+00
 Gap=     0.362 Goal=   None    Shift=    0.000
 RMSDP=4.23D-07 MaxDP=3.18D-05 DE=-9.12D-10 OVMax= 4.87D-06

 Cycle  11  Pass 1  IDiag  1:
 RMSU=  7.45D-08    CP:  5.23D-01  1.37D+00  8.57D-01  7.10D-01  1.37D+00
                    CP:  1.29D+00  1.41D+00  1.40D+00  1.34D+00  1.23D+00
 E= -463.247838463691     Delta-E=       -0.000000000090 Rises=F Damp=F
 DIIS: error= 1.11D-07 at cycle  11 NSaved=  11.
 NSaved=11 IEnMin=11 EnMin= -463.247838463691     IErMin=11 ErrMin= 1.11D-07
 ErrMax= 1.11D-07  0.00D+00 EMaxC= 1.00D-01 BMatC= 1.39D-12 BMatP= 4.54D-11
 IDIUse=1 WtCom= 1.00D+00 WtEn= 0.00D+00
 Coeff-Com: -0.195D-04 0.422D-04 0.149D-04-0.192D-03-0.130D-02 0.210D-02
 Coeff-Com:  0.152D-01-0.212D-01-0.531D-01-0.130D+00 0.119D+01
 Coeff:     -0.195D-04 0.422D-04 0.149D-04-0.192D-03-0.130D-02 0.210D-02
 Coeff:      0.152D-01-0.212D-01-0.531D-01-0.130D+00 0.119D+01
 Gap=     0.362 Goal=   None    Shift=    0.000
 RMSDP=2.88D-07 MaxDP=2.08D-05 DE=-8.96D-11 OVMax= 1.29D-06

 Cycle  12  Pass 1  IDiag  1:
 RMSU=  1.86D-08    CP:  5.23D-01  1.37D+00  8.57D-01  7.10D-01  1.36D+00
                    CP:  1.29D+00  1.40D+00  1.38D+00  1.38D+00  1.33D+00
                    CP:  1.28D+00
 E= -463.247838463693     Delta-E=       -0.000000000003 Rises=F Damp=F
 DIIS: error= 1.45D-08 at cycle  12 NSaved=  12.
 NSaved=12 IEnMin=12 EnMin= -463.247838463693     IErMin=12 ErrMin= 1.45D-08
 ErrMax= 1.45D-08  0.00D+00 EMaxC= 1.00D-01 BMatC= 5.33D-14 BMatP= 1.39D-12
 IDIUse=1 WtCom= 1.00D+00 WtEn= 0.00D+00
 Coeff-Com: -0.169D-05 0.358D-05 0.212D-05-0.827D-05-0.446D-04-0.323D-04
 Coeff-Com:  0.131D-03 0.453D-02-0.128D-02-0.437D-01-0.655D-01 0.111D+01
 Coeff:     -0.169D-05 0.358D-05 0.212D-05-0.827D-05-0.446D-04-0.323D-04
 Coeff:      0.131D-03 0.453D-02-0.128D-02-0.437D-01-0.655D-01 0.111D+01
 Gap=     0.362 Goal=   None    Shift=    0.000
 RMSDP=5.66D-08 MaxDP=3.84D-06 DE=-2.73D-12 OVMax= 2.28D-07

 Cycle  13  Pass 1  IDiag  1:
 RMSU=  4.92D-09    CP:  5.23D-01  1.37D+00  8.57D-01  7.10D-01  1.36D+00
                    CP:  1.29D+00  1.40D+00  1.38D+00  1.39D+00  1.34D+00
                    CP:  1.32D+00  1.28D+00
 E= -463.247838463693     Delta-E=        0.000000000001 Rises=F Damp=F
 DIIS: error= 3.18D-09 at cycle  13 NSaved=  13.
 NSaved=13 IEnMin=12 EnMin= -463.247838463693     IErMin=13 ErrMin= 3.18D-09
 ErrMax= 3.18D-09  0.00D+00 EMaxC= 1.00D-01 BMatC= 2.16D-15 BMatP= 5.33D-14
 IDIUse=1 WtCom= 1.00D+00 WtEn= 0.00D+00
 Coeff-Com:  0.569D-06-0.124D-05-0.561D-06 0.642D-05 0.432D-04-0.770D-04
 Coeff-Com: -0.556D-03 0.121D-02 0.236D-02-0.425D-03-0.525D-01 0.108D+00
 Coeff-Com:  0.942D+00
 Coeff:      0.569D-06-0.124D-05-0.561D-06 0.642D-05 0.432D-04-0.770D-04
 Coeff:     -0.556D-03 0.121D-02 0.236D-02-0.425D-03-0.525D-01 0.108D+00
 Coeff:      0.942D+00
 Gap=     0.362 Goal=   None    Shift=    0.000
 RMSDP=4.62D-09 MaxDP=1.80D-07 DE= 9.09D-13 OVMax= 3.31D-08

 SCF Done:  E(RwB97XD) =  -463.247838464     A.U. after   13 cycles
            NFock= 13  Conv=0.46D-08     -V/T= 2.0049
 KE= 4.610096067381D+02 PE=-2.270111039736D+03 EE= 7.479635061990D+02
 Leave Link  502 at Sat Nov  5 21:33:42 2022, MaxMem= 16106127360 cpu:             744.7 elap:              23.3
 (Enter /opt/ap/G16/B01/g16/l601.exe)
 Copying SCF densities to generalized density rwf, IOpCl= 0 IROHF=0.

 **********************************************************************

            Population analysis using the SCF Density.

 **********************************************************************

 Orbital symmetries:
       Occupied  (A) (A) (A) (A) (A) (A) (A) (A) (A) (A) (A) (A)
                 (A) (A) (A) (A) (A) (A) (A) (A) (A) (A) (A) (A)
                 (A) (A) (A) (A) (A) (A) (A) (A) (A) (A) (A) (A)
                 (A) (A) (A) (A) (A)
       Virtual   (A) (A) (A) (A) (A) (A) (A) (A) (A) (A) (A) (A)
                 (A) (A) (A) (A) (A) (A) (A) (A) (A) (A) (A) (A)
                 (A) (A) (A) (A) (A) (A) (A) (A) (A) (A) (A) (A)
                 (A) (A) (A) (A) (A) (A) (A) (A) (A) (A) (A) (A)
                 (A) (A) (A) (A) (A) (A) (A) (A) (A) (A) (A) (A)
                 (A) (A) (A) (A) (A) (A) (A) (A) (A) (A) (A) (A)
                 (A) (A) (A) (A) (A) (A) (A) (A) (A) (A) (A) (A)
                 (A) (A) (A) (A) (A) (A) (A) (A) (A) (A) (A) (A)
                 (A) (A) (A) (A) (A) (A) (A) (A) (A) (A) (A) (A)
                 (A) (A) (A) (A) (A) (A) (A) (A) (A) (A) (A) (A)
                 (A) (A) (A) (A) (A) (A) (A) (A) (A) (A) (A) (A)
                 (A) (A) (A) (A) (A) (A) (A) (A) (A) (A) (A) (A)
                 (A) (A) (A) (A) (A) (A) (A) (A) (A) (A) (A) (A)
                 (A) (A) (A) (A) (A) (A) (A) (A) (A) (A) (A) (A)
                 (A) (A) (A) (A) (A) (A) (A) (A) (A) (A) (A) (A)
                 (A) (A) (A) (A) (A) (A) (A) (A) (A) (A) (A) (A)
                 (A) (A) (A) (A) (A) (A) (A) (A) (A) (A) (A) (A)
                 (A) (A) (A) (A) (A) (A) (A) (A) (A) (A) (A) (A)
                 (A) (A) (A) (A) (A) (A) (A) (A) (A) (A) (A) (A)
                 (A) (A) (A) (A) (A) (A) (A) (A) (A) (A) (A) (A)
                 (A) (A) (A) (A) (A) (A) (A) (A) (A) (A) (A) (A)
                 (A) (A) (A) (A) (A) (A) (A) (A) (A) (A) (A) (A)
                 (A) (A) (A) (A) (A) (A) (A) (A) (A) (A) (A) (A)
                 (A) (A) (A) (A) (A) (A) (A) (A) (A) (A) (A) (A)
                 (A) (A) (A)
 The electronic state is 1-A.
 Alpha  occ. eigenvalues --  -10.30380 -10.30350 -10.29308 -10.29307 -10.29294
 Alpha  occ. eigenvalues --  -10.29294 -10.29232 -10.29232 -10.29221 -10.29221
 Alpha  occ. eigenvalues --  -10.29198 -10.29198  -0.97491  -0.95289  -0.88145
 Alpha  occ. eigenvalues --   -0.85038  -0.84878  -0.82377  -0.72297  -0.70581
 Alpha  occ. eigenvalues --   -0.69963  -0.67464  -0.62472  -0.59609  -0.55734
 Alpha  occ. eigenvalues --   -0.54856  -0.54276  -0.53469  -0.50974  -0.50884
 Alpha  occ. eigenvalues --   -0.50758  -0.46137  -0.45638  -0.45552  -0.42971
 Alpha  occ. eigenvalues --   -0.42681  -0.41846  -0.33763  -0.33520  -0.33110
 Alpha  occ. eigenvalues --   -0.32310
 Alpha virt. eigenvalues --    0.03856   0.04045   0.04434   0.04557   0.05058
 Alpha virt. eigenvalues --    0.05556   0.05833   0.05982   0.06410   0.06939
 Alpha virt. eigenvalues --    0.07391   0.07503   0.09160   0.09193   0.12604
 Alpha virt. eigenvalues --    0.12668   0.13362   0.13390   0.14778   0.15089
 Alpha virt. eigenvalues --    0.15615   0.15863   0.15877   0.16187   0.17109
 Alpha virt. eigenvalues --    0.17307   0.17382   0.17443   0.17476   0.17488
 Alpha virt. eigenvalues --    0.18714   0.18898   0.18949   0.19261   0.19354
 Alpha virt. eigenvalues --    0.20398   0.20621   0.22040   0.22124   0.22254
 Alpha virt. eigenvalues --    0.22656   0.22664   0.23480   0.24262   0.25160
 Alpha virt. eigenvalues --    0.25179   0.26107   0.26229   0.27125   0.27294
 Alpha virt. eigenvalues --    0.27374   0.27923   0.29925   0.30302   0.30519
 Alpha virt. eigenvalues --    0.31059   0.31503   0.31894   0.32285   0.32899
 Alpha virt. eigenvalues --    0.33595   0.33965   0.34134   0.34656   0.35397
 Alpha virt. eigenvalues --    0.35478   0.35803   0.35901   0.36993   0.37372
 Alpha virt. eigenvalues --    0.37500   0.37918   0.38912   0.40785   0.42790
 Alpha virt. eigenvalues --    0.43288   0.44139   0.45328   0.45515   0.47451
 Alpha virt. eigenvalues --    0.47920   0.55894   0.58760   0.60625   0.60735
 Alpha virt. eigenvalues --    0.60988   0.61191   0.61962   0.62552   0.63364
 Alpha virt. eigenvalues --    0.63565   0.63667   0.64054   0.65202   0.65780
 Alpha virt. eigenvalues --    0.65948   0.66446   0.67696   0.69325   0.70241
 Alpha virt. eigenvalues --    0.72650   0.73127   0.73980   0.74523   0.74722
 Alpha virt. eigenvalues --    0.76512   0.77826   0.79009   0.80861   0.81084
 Alpha virt. eigenvalues --    0.81086   0.81743   0.81912   0.82115   0.82983
 Alpha virt. eigenvalues --    0.83922   0.86086   0.86250   0.88578   0.89732
 Alpha virt. eigenvalues --    0.90823   0.92180   0.92852   0.93629   0.93854
 Alpha virt. eigenvalues --    0.95253   0.95680   0.96979   0.97199   0.97549
 Alpha virt. eigenvalues --    0.98984   1.01084   1.02499   1.03107   1.04258
 Alpha virt. eigenvalues --    1.04725   1.09566   1.09952   1.10353   1.10456
 Alpha virt. eigenvalues --    1.11084   1.13816   1.13985   1.15118   1.16509
 Alpha virt. eigenvalues --    1.17328   1.19757   1.24532   1.26234   1.26480
 Alpha virt. eigenvalues --    1.29144   1.37607   1.40207   1.41543   1.45304
 Alpha virt. eigenvalues --    1.47485   1.58028   1.58385   1.59240   1.59668
 Alpha virt. eigenvalues --    1.59922   1.61565   1.63793   1.64466   1.64987
 Alpha virt. eigenvalues --    1.65533   1.65669   1.66417   1.71790   1.72868
 Alpha virt. eigenvalues --    1.72998   1.73246   1.74298   1.74323   1.74433
 Alpha virt. eigenvalues --    1.82657   1.82709   1.83228   1.85383   1.85986
 Alpha virt. eigenvalues --    1.86524   1.86979   1.87565   1.92161   1.92246
 Alpha virt. eigenvalues --    1.92959   1.95692   1.97783   1.98778   2.00472
 Alpha virt. eigenvalues --    2.04042   2.04110   2.04385   2.04424   2.04678
 Alpha virt. eigenvalues --    2.05582   2.09363   2.10231   2.11737   2.12499
 Alpha virt. eigenvalues --    2.12815   2.15931   2.16970   2.17774   2.18741
 Alpha virt. eigenvalues --    2.20342   2.30766   2.34836   2.35052   2.38657
 Alpha virt. eigenvalues --    2.47657   2.51681   2.51741   2.52343   2.53010
 Alpha virt. eigenvalues --    2.55012   2.55644   2.56006   2.57718   2.66816
 Alpha virt. eigenvalues --    2.70951   2.71276   2.73192   2.73949   2.75376
 Alpha virt. eigenvalues --    2.79106   2.80007   2.80409   2.80848   2.81178
 Alpha virt. eigenvalues --    2.82601   2.83359   2.83439   2.84656   2.85898
 Alpha virt. eigenvalues --    2.86399   2.88622   2.90940   2.91755   2.92033
 Alpha virt. eigenvalues --    2.92136   2.96105   2.98408   2.98752   2.99166
 Alpha virt. eigenvalues --    3.01334   3.04007   3.04100   3.05201   3.13295
 Alpha virt. eigenvalues --    3.15027   3.21598   3.22765   3.26062   3.27626
 Alpha virt. eigenvalues --    3.38180   3.43865   3.44690   3.48679   3.48931
 Alpha virt. eigenvalues --    3.58596   3.59937   3.63909   3.64658   3.69397
 Alpha virt. eigenvalues --    3.73434   3.75785   3.94636   4.09021   4.09464
 Alpha virt. eigenvalues --    4.13405   4.14804   4.24940   4.25067   4.25196
 Alpha virt. eigenvalues --    4.26154   4.48616   4.93783   4.94671  23.71136
 Alpha virt. eigenvalues --   23.85405  24.06840  24.08997  24.09058  24.11385
 Alpha virt. eigenvalues --   24.17397  24.22101  24.22333  24.23514  24.30875
 Alpha virt. eigenvalues --   24.32563
          Condensed to atoms (all electrons):
               1          2          3          4          5          6
     1  C   18.938406   1.333655   1.333612  -1.738186   0.120155  -7.229758
     2  C    1.333655  11.936665  -2.450548  -0.109194   0.369499  -3.657919
     3  C    1.333612  -2.450548  11.932172  -1.104674   0.084248  -3.654765
     4  C   -1.738186  -0.109194  -1.104674   6.649035  -0.110018   1.420028
     5  H    0.120155   0.369499   0.084248  -0.110018   0.467180  -0.088283
     6  C   -7.229758  -3.657919  -3.654765   1.420028  -0.088283  18.938922
     7  C   -1.737784  -1.104392  -0.107216   0.231949  -0.015305   1.418028
     8  H    0.120125   0.084286   0.369369  -0.015318   0.000153  -0.088154
     9  C   -0.107406   0.603116   0.602156   0.104443   0.019874  -1.378080
    10  H    0.029824  -0.104987  -0.025682   0.438773  -0.012298   0.046104
    11  C   -3.658060  -0.332643  -0.344349   0.258515  -0.024819   1.334120
    12  C   -3.654226  -0.344012  -0.331831   0.272186  -0.048063   1.333038
    13  H    0.029788  -0.025706  -0.104867   0.017513  -0.000159   0.046092
    14  H    0.030106   0.022357   0.022361  -0.052883   0.000836  -0.037229
    15  C    1.420140   0.258210   0.272671  -0.031862   0.017320  -1.738595
    16  H   -0.088280  -0.024828  -0.048080   0.017308   0.000381   0.120226
    17  C    1.417792   0.271895   0.258218  -0.046684   0.016848  -1.737447
    18  H   -0.088141  -0.048057  -0.024774   0.016861  -0.001502   0.120039
    19  C   -1.377976  -0.152103  -0.152352   0.042105  -0.015523  -0.107359
    20  H    0.046106   0.001072   0.007536  -0.000947   0.000360   0.029813
    21  H    0.046084   0.007515   0.001090  -0.000544   0.000465   0.029803
    22  H   -0.037228  -0.004691  -0.004712   0.001130  -0.000503   0.030108
               7          8          9         10         11         12
     1  C   -1.737784   0.120125  -0.107406   0.029824  -3.658060  -3.654226
     2  C   -1.104392   0.084286   0.603116  -0.104987  -0.332643  -0.344012
     3  C   -0.107216   0.369369   0.602156  -0.025682  -0.344349  -0.331831
     4  C    0.231949  -0.015318   0.104443   0.438773   0.258515   0.272186
     5  H   -0.015305   0.000153   0.019874  -0.012298  -0.024819  -0.048063
     6  C    1.418028  -0.088154  -1.378080   0.046104   1.334120   1.333038
     7  C    6.647987  -0.109978   0.104951   0.017496   0.272148   0.258124
     8  H   -0.109978   0.467174   0.019863  -0.000160  -0.048022  -0.024833
     9  C    0.104951   0.019863   6.408503  -0.082789  -0.152345  -0.152087
    10  H    0.017496  -0.000160  -0.082789   0.480642   0.001091   0.007517
    11  C    0.272148  -0.048022  -0.152345   0.001091  11.937391  -2.451017
    12  C    0.258124  -0.024833  -0.152087   0.007517  -2.451017  11.932001
    13  H    0.438721  -0.012296  -0.082810   0.000330   0.007521   0.001084
    14  H   -0.052892   0.000836   0.413456  -0.008599  -0.004704  -0.004698
    15  C   -0.046612   0.016877   0.042058  -0.000943  -0.109703  -1.104371
    16  H    0.016852  -0.001502  -0.015519   0.000360   0.369496   0.084258
    17  C   -0.031571   0.017255   0.041993  -0.000542  -1.104415  -0.106726
    18  H    0.017279   0.000387  -0.015517   0.000465   0.084244   0.369389
    19  C    0.041940  -0.015513  -0.028106   0.000200   0.603251   0.601880
    20  H   -0.000539   0.000465   0.000200   0.000054  -0.104991  -0.025676
    21  H   -0.000939   0.000360   0.000199   0.000025  -0.025696  -0.104864
    22  H    0.001124  -0.000503  -0.000614   0.000004   0.022380   0.022335
              13         14         15         16         17         18
     1  C    0.029788   0.030106   1.420140  -0.088280   1.417792  -0.088141
     2  C   -0.025706   0.022357   0.258210  -0.024828   0.271895  -0.048057
     3  C   -0.104867   0.022361   0.272671  -0.048080   0.258218  -0.024774
     4  C    0.017513  -0.052883  -0.031862   0.017308  -0.046684   0.016861
     5  H   -0.000159   0.000836   0.017320   0.000381   0.016848  -0.001502
     6  C    0.046092  -0.037229  -1.738595   0.120226  -1.737447   0.120039
     7  C    0.438721  -0.052892  -0.046612   0.016852  -0.031571   0.017279
     8  H   -0.012296   0.000836   0.016877  -0.001502   0.017255   0.000387
     9  C   -0.082810   0.413456   0.042058  -0.015519   0.041993  -0.015517
    10  H    0.000330  -0.008599  -0.000943   0.000360  -0.000542   0.000465
    11  C    0.007521  -0.004704  -0.109703   0.369496  -1.104415   0.084244
    12  C    0.001084  -0.004698  -1.104371   0.084258  -0.106726   0.369389
    13  H    0.480643  -0.008600  -0.000543   0.000465  -0.000940   0.000360
    14  H   -0.008600   0.471571   0.001128  -0.000503   0.001126  -0.000503
    15  C   -0.000543   0.001128   6.649402  -0.110074   0.231898  -0.015310
    16  H    0.000465  -0.000503  -0.110074   0.467184  -0.015308   0.000152
    17  C   -0.000940   0.001126   0.231898  -0.015308   6.647606  -0.109917
    18  H    0.000360  -0.000503  -0.015310   0.000152  -0.109917   0.467170
    19  C    0.000199  -0.000614   0.104330   0.019883   0.105104   0.019856
    20  H    0.000025   0.000004   0.438792  -0.012299   0.017495  -0.000159
    21  H    0.000054   0.000004   0.017505  -0.000159   0.438704  -0.012295
    22  H    0.000004  -0.000010  -0.052903   0.000837  -0.052878   0.000836
              19         20         21         22
     1  C   -1.377976   0.046106   0.046084  -0.037228
     2  C   -0.152103   0.001072   0.007515  -0.004691
     3  C   -0.152352   0.007536   0.001090  -0.004712
     4  C    0.042105  -0.000947  -0.000544   0.001130
     5  H   -0.015523   0.000360   0.000465  -0.000503
     6  C   -0.107359   0.029813   0.029803   0.030108
     7  C    0.041940  -0.000539  -0.000939   0.001124
     8  H   -0.015513   0.000465   0.000360  -0.000503
     9  C   -0.028106   0.000200   0.000199  -0.000614
    10  H    0.000200   0.000054   0.000025   0.000004
    11  C    0.603251  -0.104991  -0.025696   0.022380
    12  C    0.601880  -0.025676  -0.104864   0.022335
    13  H    0.000199   0.000025   0.000054   0.000004
    14  H   -0.000614   0.000004   0.000004  -0.000010
    15  C    0.104330   0.438792   0.017505  -0.052903
    16  H    0.019883  -0.012299  -0.000159   0.000837
    17  C    0.105104   0.017495   0.438704  -0.052878
    18  H    0.019856  -0.000159  -0.012295   0.000836
    19  C    6.408459  -0.082803  -0.082801   0.413463
    20  H   -0.082803   0.480643   0.000330  -0.008601
    21  H   -0.082801   0.000330   0.480642  -0.008600
    22  H    0.413463  -0.008601  -0.008600   0.471572
 Mulliken charges:
               1
     1  C    0.851253
     2  C   -0.529190
     3  C   -0.529583
     4  C   -0.259533
     5  H    0.219153
     6  C    0.851268
     7  C   -0.259373
     8  H    0.219130
     9  C   -0.345540
    10  H    0.213115
    11  C   -0.529391
    12  C   -0.529409
    13  H    0.213122
    14  H    0.207450
    15  C   -0.259415
    16  H    0.219146
    17  C   -0.259505
    18  H    0.219136
    19  C   -0.345520
    20  H    0.213119
    21  H    0.213119
    22  H    0.207450
 Sum of Mulliken charges =  -0.00000
 Mulliken charges with hydrogens summed into heavy atoms:
               1
     1  C    0.851253
     2  C   -0.310038
     3  C   -0.310454
     4  C   -0.046418
     6  C    0.851268
     7  C   -0.046251
     9  C   -0.138091
    11  C   -0.310245
    12  C   -0.310272
    15  C   -0.046296
    17  C   -0.046386
    19  C   -0.138071
 Electronic spatial extent (au):  <R**2>=           2312.0183
 Charge=             -0.0000 electrons
 Dipole moment (field-independent basis, Debye):
    X=              0.0000    Y=             -0.0002    Z=              0.0003  Tot=              0.0003
 Quadrupole moment (field-independent basis, Debye-Ang):
   XX=            -61.7963   YY=            -67.7997   ZZ=            -71.1597
   XY=              0.0004   XZ=             -0.0006   YZ=             -0.0000
 Traceless Quadrupole moment (field-independent basis, Debye-Ang):
   XX=              5.1223   YY=             -0.8811   ZZ=             -4.2411
   XY=              0.0004   XZ=             -0.0006   YZ=             -0.0000
 Octapole moment (field-independent basis, Debye-Ang**2):
  XXX=              0.0003  YYY=             -0.0006  ZZZ=              0.0035  XYY=             -0.0005
  XXY=             -0.0031  XXZ=              0.0010  XZZ=              0.0005  YZZ=             -0.0010
  YYZ=             -0.0005  XYZ=            -18.7787
 Hexadecapole moment (field-independent basis, Debye-Ang**3):
 XXXX=          -2302.8067 YYYY=           -385.7345 ZZZZ=           -309.6324 XXXY=             -0.0004
 XXXZ=             -0.0223 YYYX=              0.0090 YYYZ=              0.0000 ZZZX=              0.0014
 ZZZY=              0.0000 XXYY=           -485.0116 XXZZ=           -491.3838 YYZZ=            -94.1914
 XXYZ=             -0.0005 YYXZ=              0.0017 ZZXY=             -0.0031
 N-N= 5.978900883353D+02 E-N=-2.270111039476D+03  KE= 4.610096067381D+02
 No NMR shielding tensors so no spin-rotation constants.
 Leave Link  601 at Sat Nov  5 21:33:42 2022, MaxMem= 16106127360 cpu:               4.3 elap:               0.2
 (Enter /opt/ap/G16/B01/g16/l9999.exe)
 1\1\GINC-N05\SP\RwB97XD\6-311++G(d,p)\C12H10\ROOT\05-Nov-2022\0\\#P wB
 97XD/6-311++G(d,p) scf=maxcycle=512\\_conf002.gjf nmol_natom 1_22\\0,1
 \C\C,1,1.40491871\C,1,1.40495292,2,118.20503621\C,2,1.3939373,1,120.91
 08946,3,0.05365643,0\H,2,1.08593095,1,119.3452094,3,-178.3624307,0\C,1
 ,1.48449301,2,120.90144423,4,-179.96388019,0\C,3,1.39389842,1,120.9105
 0598,2,0.03587687,0\H,3,1.08593608,1,119.34159615,2,-178.38281524,0\C,
 4,1.39606958,2,120.24555868,1,-0.09283196,0\H,4,1.08627898,2,119.66792
 041,1,-179.51486187,0\C,6,1.40492034,1,120.90156908,2,-80.,0\C,6,1.404
 95329,1,120.89324856,2,100.,0\H,7,1.08627928,3,119.67027175,1,-179.512
 58183,0\H,9,1.08597601,4,120.2602535,2,-179.95233103,0\C,11,1.39393437
 ,6,120.91099656,1,-179.95869964,0\H,11,1.08593173,6,119.34475907,1,1.6
 1891886,0\C,12,1.39390147,6,120.91022615,1,-179.94297913,0\H,12,1.0859
 3608,6,119.34175044,1,1.63241608,0\C,15,1.39607161,11,120.24535737,6,-
 0.10315482,0\H,15,1.08627786,11,119.66861247,6,-179.51844254,0\H,17,1.
 08627825,12,119.6702798,6,-179.51590091,0\H,19,1.08597601,15,120.25988
 597,11,-179.94731581,0\\Version=ES64L-G16RevB.01\State=1-A\HF=-463.247
 8385\RMSD=4.615e-09\Dipole=0.0000087,-0.0001315,-0.0000233\Quadrupole=
 2.3589058,-2.1207837,-0.238122,0.6320607,2.4217257,-1.0553016\PG=C01 [
 X(C12H10)]\\@


 A CHEMICAL PHYSICIST MAKES PRECISE MEASUREMENTS ON IMPURE COMPOUNDS.
 A THEORETICAL PHYSICAL CHEMIST MAKES IMPRECISE
     MEASUREMENTS ON PURE COMPOUNDS.
 AN EXPERIMENTAL PHYSICAL CHEMIST MAKES IMPRECISE
     MEASUREMENTS ON IMPURE COMPOUNDS.
 Job cpu time:       0 days  0 hours 13 minutes 11.6 seconds.
 Elapsed time:       0 days  0 hours  0 minutes 24.9 seconds.
 File lengths (MBytes):  RWF=     62 Int=      0 D2E=      0 Chk=      8 Scr=      1
 Normal termination of Gaussian 16 at Sat Nov  5 21:33:43 2022.
