 Entering Gaussian System, Link 0=g16
 Input=_conf025.gjf
 Output=_conf025.log
 Initial command:
 /opt/ap/G16/B01/g16/l1.exe "/tmp2/scr/Gau-24911.inp" -scrdir="/tmp2/scr/"
 Entering Link 1 = /opt/ap/G16/B01/g16/l1.exe PID=     24912.
  
 Copyright (c) 1988-2017, Gaussian, Inc.  All Rights Reserved.
  
 This is part of the Gaussian(R) 16 program.  It is based on
 the Gaussian(R) 09 system (copyright 2009, Gaussian, Inc.),
 the Gaussian(R) 03 system (copyright 2003, Gaussian, Inc.),
 the Gaussian(R) 98 system (copyright 1998, Gaussian, Inc.),
 the Gaussian(R) 94 system (copyright 1995, Gaussian, Inc.),
 the Gaussian 92(TM) system (copyright 1992, Gaussian, Inc.),
 the Gaussian 90(TM) system (copyright 1990, Gaussian, Inc.),
 the Gaussian 88(TM) system (copyright 1988, Gaussian, Inc.),
 the Gaussian 86(TM) system (copyright 1986, Carnegie Mellon
 University), and the Gaussian 82(TM) system (copyright 1983,
 Carnegie Mellon University). Gaussian is a federally registered
 trademark of Gaussian, Inc.
  
 This software contains proprietary and confidential information,
 including trade secrets, belonging to Gaussian, Inc.
  
 This software is provided under written license and may be
 used, copied, transmitted, or stored only in accord with that
 written license.
  
 The following legend is applicable only to US Government
 contracts under FAR:
  
                    RESTRICTED RIGHTS LEGEND
  
 Use, reproduction and disclosure by the US Government is
 subject to restrictions as set forth in subparagraphs (a)
 and (c) of the Commercial Computer Software - Restricted
 Rights clause in FAR 52.227-19.
  
 Gaussian, Inc.
 340 Quinnipiac St., Bldg. 40, Wallingford CT 06492
  
  
 ---------------------------------------------------------------
 Warning -- This program may not be used in any manner that
 competes with the business of Gaussian, Inc. or will provide
 assistance to any competitor of Gaussian, Inc.  The licensee
 of this program is prohibited from giving any competitor of
 Gaussian, Inc. access to this program.  By using this program,
 the user acknowledges that Gaussian, Inc. is engaged in the
 business of creating and licensing software in the field of
 computational chemistry and represents and warrants to the
 licensee that it is not a competitor of Gaussian, Inc. and that
 it will not use this program in any manner prohibited above.
 ---------------------------------------------------------------
  

 Cite this work as:
 Gaussian 16, Revision B.01,
 M. J. Frisch, G. W. Trucks, H. B. Schlegel, G. E. Scuseria, 
 M. A. Robb, J. R. Cheeseman, G. Scalmani, V. Barone, 
 G. A. Petersson, H. Nakatsuji, X. Li, M. Caricato, A. V. Marenich, 
 J. Bloino, B. G. Janesko, R. Gomperts, B. Mennucci, H. P. Hratchian, 
 J. V. Ortiz, A. F. Izmaylov, J. L. Sonnenberg, D. Williams-Young, 
 F. Ding, F. Lipparini, F. Egidi, J. Goings, B. Peng, A. Petrone, 
 T. Henderson, D. Ranasinghe, V. G. Zakrzewski, J. Gao, N. Rega, 
 G. Zheng, W. Liang, M. Hada, M. Ehara, K. Toyota, R. Fukuda, 
 J. Hasegawa, M. Ishida, T. Nakajima, Y. Honda, O. Kitao, H. Nakai, 
 T. Vreven, K. Throssell, J. A. Montgomery, Jr., J. E. Peralta, 
 F. Ogliaro, M. J. Bearpark, J. J. Heyd, E. N. Brothers, K. N. Kudin, 
 V. N. Staroverov, T. A. Keith, R. Kobayashi, J. Normand, 
 K. Raghavachari, A. P. Rendell, J. C. Burant, S. S. Iyengar, 
 J. Tomasi, M. Cossi, J. M. Millam, M. Klene, C. Adamo, R. Cammi, 
 J. W. Ochterski, R. L. Martin, K. Morokuma, O. Farkas, 
 J. B. Foresman, and D. J. Fox, Gaussian, Inc., Wallingford CT, 2016.
 
 ******************************************
 Gaussian 16:  ES64L-G16RevB.01 20-Dec-2017
                 5-Nov-2022 
 ******************************************
 %nprocshared=32
 Will use up to   32 processors via shared memory.
 %mem=120GB
 %chk=_conf025.chk
 ----------------------------------------
 #P wB97XD/6-311++G(d,p) scf=maxcycle=512
 ----------------------------------------
 1/38=1,172=1/1;
 2/12=2,17=6,18=5,40=1/2;
 3/5=4,6=6,7=1111,11=2,25=1,30=1,74=-58/1,2,3;
 4//1;
 5/5=2,7=512,38=5/2;
 6/7=2,8=2,9=2,10=2,28=1/1;
 99/5=1,9=1/99;
 Leave Link    1 at Sat Nov  5 21:35:50 2022, MaxMem= 16106127360 cpu:              15.7 elap:               0.5
 (Enter /opt/ap/G16/B01/g16/l101.exe)
 ----------------------------
 _conf025.gjf nmol_natom 1_22
 ----------------------------
 Symbolic Z-matrix:
 Charge =  0 Multiplicity = 1
 C
 C                    1     1.40492 
 C                    1     1.40495  2     118.20504 
 C                    2     1.39394  1     120.91089  3     0.05366  0
 H                    2     1.08593  1     119.34521  3    -178.36243  0
 C                    1     1.48449  2     120.90144  4    -179.96388  0
 C                    3     1.3939   1     120.91051  2     0.03588  0
 H                    3     1.08594  1     119.3416  2    -178.38282  0
 C                    4     1.39607  2     120.24556  1    -0.09283  0
 H                    4     1.08628  2     119.66792  1    -179.51486  0
 C                    6     1.40492  1     120.90157  2     35.      0
 C                    6     1.40495  1     120.89325  2    -145.     0
 H                    7     1.08628  3     119.67027  1    -179.51258  0
 H                    9     1.08598  4     120.26025  2    -179.95233  0
 C                    11    1.39393  6     120.911  1    -179.9587  0
 H                    11    1.08593  6     119.34476  1     1.61892  0
 C                    12    1.3939   6     120.91023  1    -179.94298  0
 H                    12    1.08594  6     119.34175  1     1.63242  0
 C                    15    1.39607  11    120.24536  6    -0.10315  0
 H                    15    1.08628  11    119.66861  6    -179.51844  0
 H                    17    1.08628  12    119.67028  6    -179.5159  0
 H                    19    1.08598  15    120.25989  11   -179.94732  0
 
 ITRead=  0  0  0  0  0  0  0  0  0  0  0  0  0  0  0  0  0  0  0  0
 ITRead=  0  0
 MicOpt= -1 -1 -1 -1 -1 -1 -1 -1 -1 -1 -1 -1 -1 -1 -1 -1 -1 -1 -1 -1
 MicOpt= -1 -1
 NAtoms=     22 NQM=       22 NQMF=       0 NMMI=      0 NMMIF=      0
                NMic=       0 NMicF=      0.
                    Isotopes and Nuclear Properties:
 (Nuclear quadrupole moments (NQMom) in fm**2, nuclear magnetic moments (NMagM)
  in nuclear magnetons)

  Atom         1           2           3           4           5           6           7           8           9          10
 IAtWgt=          12          12          12          12           1          12          12           1          12           1
 AtmWgt=  12.0000000  12.0000000  12.0000000  12.0000000   1.0078250  12.0000000  12.0000000   1.0078250  12.0000000   1.0078250
 NucSpn=           0           0           0           0           1           0           0           1           0           1
 AtZEff=  -0.0000000  -0.0000000  -0.0000000  -0.0000000  -0.0000000  -0.0000000  -0.0000000  -0.0000000  -0.0000000  -0.0000000
 NQMom=    0.0000000   0.0000000   0.0000000   0.0000000   0.0000000   0.0000000   0.0000000   0.0000000   0.0000000   0.0000000
 NMagM=    0.0000000   0.0000000   0.0000000   0.0000000   2.7928460   0.0000000   0.0000000   2.7928460   0.0000000   2.7928460
 AtZNuc=   6.0000000   6.0000000   6.0000000   6.0000000   1.0000000   6.0000000   6.0000000   1.0000000   6.0000000   1.0000000

  Atom        11          12          13          14          15          16          17          18          19          20
 IAtWgt=          12          12           1           1          12           1          12           1          12           1
 AtmWgt=  12.0000000  12.0000000   1.0078250   1.0078250  12.0000000   1.0078250  12.0000000   1.0078250  12.0000000   1.0078250
 NucSpn=           0           0           1           1           0           1           0           1           0           1
 AtZEff=  -0.0000000  -0.0000000  -0.0000000  -0.0000000  -0.0000000  -0.0000000  -0.0000000  -0.0000000  -0.0000000  -0.0000000
 NQMom=    0.0000000   0.0000000   0.0000000   0.0000000   0.0000000   0.0000000   0.0000000   0.0000000   0.0000000   0.0000000
 NMagM=    0.0000000   0.0000000   2.7928460   2.7928460   0.0000000   2.7928460   0.0000000   2.7928460   0.0000000   2.7928460
 AtZNuc=   6.0000000   6.0000000   1.0000000   1.0000000   6.0000000   1.0000000   6.0000000   1.0000000   6.0000000   1.0000000

  Atom        21          22
 IAtWgt=           1           1
 AtmWgt=   1.0078250   1.0078250
 NucSpn=           1           1
 AtZEff=  -0.0000000  -0.0000000
 NQMom=    0.0000000   0.0000000
 NMagM=    2.7928460   2.7928460
 AtZNuc=   1.0000000   1.0000000
 Leave Link  101 at Sat Nov  5 21:35:51 2022, MaxMem= 16106127360 cpu:               5.2 elap:               0.2
 (Enter /opt/ap/G16/B01/g16/l202.exe)
                          Input orientation:                          
 ---------------------------------------------------------------------
 Center     Atomic      Atomic             Coordinates (Angstroms)
 Number     Number       Type             X           Y           Z
 ---------------------------------------------------------------------
      1          6           0        0.000000    0.000000    0.000000
      2          6           0        0.000000    0.000000    1.404919
      3          6           0        1.238131    0.000000   -0.664020
      4          6           0        1.195952    0.001120    2.120990
      5          1           0       -0.946201   -0.027051    1.937101
      6          6           0       -1.273772   -0.000390   -0.762381
      7          6           0        2.434381   -0.000749    0.051479
      8          1           0        1.259850    0.026715   -1.749411
      9          6           0        2.418826    0.000311    1.447501
     10          1           0        1.172413   -0.006894    3.206985
     11          6           0       -2.400217    0.690708   -0.285614
     12          6           0       -1.385334   -0.691943   -1.980248
     13          1           0        3.380326    0.007295   -0.482493
     14          1           0        3.350700    0.000403    2.005133
     15          6           0       -3.596636    0.689767   -1.000901
     16          1           0       -2.326899    1.253276    0.640339
     17          6           0       -2.580849   -0.691571   -2.696980
     18          1           0       -0.534323   -1.254351   -2.352720
     19          6           0       -3.692291   -0.000891   -2.210388
     20          1           0       -4.452792    1.237429   -0.617415
     21          1           0       -2.647074   -1.239585   -3.632552
     22          1           0       -4.624018   -0.001074   -2.768266
 ---------------------------------------------------------------------
                    Distance matrix (angstroms):
                    1          2          3          4          5
     1  C    0.000000
     2  C    1.404919   0.000000
     3  C    1.404953   2.411116   0.000000
     4  C    2.434934   1.393937   2.785330   0.000000
     5  H    2.156012   1.085931   3.396745   2.150216   0.000000
     6  C    1.484493   2.513898   2.513829   3.796494   2.719415
     7  C    2.434925   2.785320   1.393898   2.411760   3.870994
     8  H    2.156008   3.396723   1.085936   3.871013   4.296501
     9  C    2.818861   2.419201   2.419207   1.396070   3.400568
    10  H    3.414579   2.149893   3.871569   1.086279   2.470128
    11  C    2.513901   3.015961   3.722613   4.381748   2.751328
    12  C    2.513826   3.722538   3.015595   4.895256   3.997568
    13  H    3.414594   3.871560   2.149884   3.398478   4.957262
    14  H    3.904837   3.404035   3.404016   2.157861   4.297527
    15  C    3.796494   4.381728   4.895328   5.761019   4.021255
    16  H    2.719411   2.751317   3.997687   4.021282   2.286298
    17  C    3.796414   4.895368   4.381302   6.160916   4.958667
    18  H    2.719225   3.997342   2.750763   4.958240   4.480901
    19  C    4.303351   5.167539   5.167235   6.531138   4.974270
    20  H    4.662595   5.044643   5.824089   6.398096   4.518920
    21  H    4.662511   5.824061   5.044163   7.029328   5.948467
    22  H    5.389327   6.228725   6.228375   7.601111   5.972227
                    6          7          8          9         10
     6  C    0.000000
     7  C    3.796415   0.000000
     8  H    2.719228   2.150228   0.000000
     9  C    4.303354   1.396108   3.400612   0.000000
    10  H    4.662588   3.398502   4.957280   2.156243   0.000000
    11  C    1.404920   4.895415   3.997459   5.167544   5.044659
    12  C    1.404953   4.381311   2.750773   5.167235   5.823981
    13  H    4.662512   1.086279   2.470197   2.156248   4.299689
    14  H    5.389330   2.157871   4.297551   1.085976   2.487858
    15  C    2.434934   6.160964   4.958362   6.531141   6.398083
    16  H    2.156010   4.958742   4.481085   4.974268   4.518948
    17  C    2.434925   5.760538   4.020546   6.530863   7.029407
    18  H    2.156010   4.020559   2.285644   4.973624   5.948059
    19  C    2.818858   6.530862   4.973627   7.122212   7.281024
    20  H    3.414583   7.029485   5.948237   7.281035   6.915006
    21  H    3.414594   6.397499   4.518163   7.280634   7.930150
    22  H    3.904834   7.600787   5.971494   8.208188   8.324799
                   11         12         13         14         15
    11  C    0.000000
    12  C    2.411119   0.000000
    13  H    5.824130   5.044177   0.000000
    14  H    6.228732   6.228373   2.487812   0.000000
    15  C    1.393934   2.785336   7.029403   7.601115   0.000000
    16  H    1.085932   3.396748   5.948583   5.972227   2.150219
    17  C    2.785320   1.393901   6.397497   7.600788   2.411763
    18  H    3.396725   1.085936   4.518182   5.971490   3.871016
    19  C    2.419198   2.419208   7.280632   8.208188   1.396072
    20  H    2.149897   3.871575   7.930269   8.324811   1.086278
    21  H    3.871558   2.149886   6.914270   8.324324   3.398478
    22  H    3.404029   3.404019   8.324323   9.294164   2.157859
                   16         17         18         19         20
    16  H    0.000000
    17  C    3.870997   0.000000
    18  H    4.296501   2.150234   0.000000
    19  C    3.400569   1.396107   3.400615   0.000000
    20  H    2.470145   3.398500   4.957282   2.156238   0.000000
    21  H    4.957264   1.086278   2.470204   2.156245   4.299683
    22  H    4.297527   2.157871   4.297556   1.085976   2.487844
                   21         22
    21  H    0.000000
    22  H    2.487812   0.000000
 Stoichiometry    C12H10
 Framework group  C1[X(C12H10)]
 Deg. of freedom    60
 Full point group                 C1      NOp   1
 Largest Abelian subgroup         C1      NOp   1
 Largest concise Abelian subgroup C1      NOp   1
                         Standard orientation:                         
 ---------------------------------------------------------------------
 Center     Atomic      Atomic             Coordinates (Angstroms)
 Number     Number       Type             X           Y           Z
 ---------------------------------------------------------------------
      1          6           0        0.742246    0.000173   -0.000136
      2          6           0        1.463780    1.149858    0.362369
      3          6           0        1.463591   -1.149735   -0.362442
      4          6           0        2.857717    1.150317    0.361599
      5          1           0        0.925211    2.040740    0.671430
      6          6           0       -0.742247    0.000158   -0.000007
      7          6           0        2.857489   -1.150451   -0.361624
      8          1           0        0.924799   -2.040549   -0.671330
      9          6           0        3.561107   -0.000109   -0.000027
     10          1           0        3.395260    2.048139    0.653087
     11          6           0       -1.463807    1.149872   -0.362376
     12          6           0       -1.463564   -1.149696    0.362525
     13          1           0        3.394916   -2.048386   -0.652979
     14          1           0        4.647083   -0.000250    0.000034
     15          6           0       -2.857741    1.150336   -0.361502
     16          1           0       -0.925249    2.040804   -0.671313
     17          6           0       -2.857465   -1.150462    0.361635
     18          1           0       -0.924752   -2.040450    0.671551
     19          6           0       -3.561105   -0.000183   -0.000114
     20          1           0       -3.395314    2.048192   -0.652827
     21          1           0       -3.394875   -2.048366    0.653115
     22          1           0       -4.647081   -0.000342   -0.000174
 ---------------------------------------------------------------------
 Rotational constants (GHZ):           2.8585222           0.5481708           0.4738667
 Leave Link  202 at Sat Nov  5 21:35:51 2022, MaxMem= 16106127360 cpu:               2.2 elap:               0.1
 (Enter /opt/ap/G16/B01/g16/l301.exe)
 Standard basis: 6-311++G(d,p) (5D, 7F)
 Ernie: Thresh=  0.10000D-02 Tol=  0.10000D-05 Strict=F.
 There are   346 symmetry adapted cartesian basis functions of A   symmetry.
 There are   334 symmetry adapted basis functions of A   symmetry.
   334 basis functions,   522 primitive gaussians,   346 cartesian basis functions
    41 alpha electrons       41 beta electrons
       nuclear repulsion energy       599.0561747690 Hartrees.
 IExCor= 4639 DFT=T Ex+Corr=wB97XD ExCW=0 ScaHFX=  1.000000
 ScaDFX=  1.000000  1.000000  1.000000  1.000000 ScalE2=  1.000000  1.000000
 IRadAn=      5 IRanWt=     -1 IRanGd=            0 ICorTp=0 IEmpDi=121
 HFx  wShort=  0.000000 wLong=  0.200000 cFull=  0.222036 cShort=  0.000000 cLong=  0.777964
 DFx  wShort=  0.000000 wLong=  0.200000 cFull=  0.000000 cShort=  0.000000 cLong=  1.000000
 NAtoms=   22 NActive=   22 NUniq=   22 SFac= 1.00D+00 NAtFMM=   60 NAOKFM=F Big=F
 Integral buffers will be    131072 words long.
 Raffenetti 2 integral format.
 Two-electron integral symmetry is turned on.
 R6Disp:  Grimme-D2 Dispersion energy=       -0.0120811699 Hartrees.
 Nuclear repulsion after empirical dispersion term =      599.0440935991 Hartrees.
 Leave Link  301 at Sat Nov  5 21:35:51 2022, MaxMem= 16106127360 cpu:               1.2 elap:               0.0
 (Enter /opt/ap/G16/B01/g16/l302.exe)
 NPDir=0 NMtPBC=     1 NCelOv=     1 NCel=       1 NClECP=     1 NCelD=      1
         NCelK=      1 NCelE2=     1 NClLst=     1 CellRange=     0.0.
 One-electron integrals computed using PRISM.
 One-electron integral symmetry used in STVInt
 NBasis=   334 RedAO= T EigKep=  1.47D-06  NBF=   334
 NBsUse=   332 1.00D-06 EigRej=  7.35D-07 NBFU=   332
 Precomputing XC quadrature grid using
 IXCGrd= 4 IRadAn=           5 IRanWt=          -1 IRanGd=           0 AccXCQ= 0.00D+00.
 Generated NRdTot=       0 NPtTot=           0 NUsed=           0 NTot=          32
 NSgBfM=   346   346   346   346   346 MxSgAt=    22 MxSgA2=    22.
 Leave Link  302 at Sat Nov  5 21:35:51 2022, MaxMem= 16106127360 cpu:              18.1 elap:               0.6
 (Enter /opt/ap/G16/B01/g16/l303.exe)
 DipDrv:  MaxL=1.
 Leave Link  303 at Sat Nov  5 21:35:52 2022, MaxMem= 16106127360 cpu:               1.5 elap:               0.1
 (Enter /opt/ap/G16/B01/g16/l401.exe)
 ExpMin= 3.60D-02 ExpMax= 4.56D+03 ExpMxC= 6.82D+02 IAcc=3 IRadAn=         5 AccDes= 0.00D+00
 Harris functional with IExCor= 4639 and IRadAn=       5 diagonalized for initial guess.
 HarFok:  IExCor= 4639 AccDes= 0.00D+00 IRadAn=         5 IDoV= 1 UseB2=F ITyADJ=14
 ICtDFT=  3500011 ScaDFX=  1.000000  1.000000  1.000000  1.000000
 FoFCou: FMM=F IPFlag=           0 FMFlag=      100000 FMFlg1=           0
         NFxFlg=           0 DoJE=T BraDBF=F KetDBF=T FulRan=T
         wScrn=  0.000000 ICntrl=       500 IOpCl=  0 I1Cent=   200000004 NGrid=           0
         NMat0=    1 NMatS0=      1 NMatT0=    0 NMatD0=    1 NMtDS0=    0 NMtDT0=    0
 Petite list used in FoFCou.
 Harris En= -441.938696337383    
 JPrj=0 DoOrth=F DoCkMO=F.
 Leave Link  401 at Sat Nov  5 21:35:52 2022, MaxMem= 16106127360 cpu:              19.8 elap:               0.6
 (Enter /opt/ap/G16/B01/g16/l502.exe)
 Integral symmetry usage will be decided dynamically.
 Closed shell SCF:
 Using DIIS extrapolation, IDIIS=  1040.
 NGot= 16106127360 LenX= 16105873520 LenY= 16105753363
 Requested convergence on RMS density matrix=1.00D-08 within 512 cycles.
 Requested convergence on MAX density matrix=1.00D-06.
 Requested convergence on             energy=1.00D-06.
 No special actions if energy rises.
 Fock matrices will be formed incrementally for  20 cycles.

 Cycle   1  Pass 1  IDiag  1:
 FoFJK:  IHMeth= 1 ICntrl=       0 DoSepK=T KAlg= 0 I1Cent=           0 FoldK=F
 IRaf=         1 NMat=       1 IRICut=       1 DoRegI=T DoRafI=F ISym2E= 0 IDoP0=0 IntGTp=1.
 FoFCou: FMM=F IPFlag=           0 FMFlag=      100000 FMFlg1=           0
         NFxFlg=           0 DoJE=T BraDBF=F KetDBF=F FulRan=T
         wScrn=  0.000000 ICntrl=       500 IOpCl=  0 I1Cent=           0 NGrid=           0
         NMat0=    1 NMatS0=      1 NMatT0=    0 NMatD0=    1 NMtDS0=    0 NMtDT0=    0
 Symmetry not used in FoFCou.
 E= -463.152948680679    
 DIIS: error= 6.85D-02 at cycle   1 NSaved=   1.
 NSaved= 1 IEnMin= 1 EnMin= -463.152948680679     IErMin= 1 ErrMin= 6.85D-02
 ErrMax= 6.85D-02  0.00D+00 EMaxC= 1.00D-01 BMatC= 9.52D-01 BMatP= 9.52D-01
 IDIUse=3 WtCom= 3.15D-01 WtEn= 6.85D-01
 Coeff-Com:  0.100D+01
 Coeff-En:   0.100D+01
 Coeff:      0.100D+01
 Gap=     0.320 Goal=   None    Shift=    0.000
 GapD=    0.320 DampG=1.000 DampE=0.500 DampFc=0.5000 IDamp=-1.
 Damping current iteration by 5.00D-01
 RMSDP=7.15D-02 MaxDP=4.60D+00              OVMax= 4.44D-02

 Cycle   2  Pass 1  IDiag  1:
 RMSU=  7.73D-03    CP:  7.58D-01
 E= -463.202059511765     Delta-E=       -0.049110831086 Rises=F Damp=T
 DIIS: error= 3.27D-02 at cycle   2 NSaved=   2.
 NSaved= 2 IEnMin= 2 EnMin= -463.202059511765     IErMin= 2 ErrMin= 3.27D-02
 ErrMax= 3.27D-02  0.00D+00 EMaxC= 1.00D-01 BMatC= 2.16D-01 BMatP= 9.52D-01
 IDIUse=3 WtCom= 6.73D-01 WtEn= 3.27D-01
 Coeff-Com: -0.883D+00 0.188D+01
 Coeff-En:   0.000D+00 0.100D+01
 Coeff:     -0.594D+00 0.159D+01
 Gap=     0.327 Goal=   None    Shift=    0.000
 RMSDP=3.30D-02 MaxDP=2.15D+00 DE=-4.91D-02 OVMax= 3.75D-02

 Cycle   3  Pass 1  IDiag  1:
 RMSU=  3.78D-03    CP:  5.30D-01  1.13D+00
 E= -463.246320746792     Delta-E=       -0.044261235027 Rises=F Damp=F
 DIIS: error= 5.63D-03 at cycle   3 NSaved=   3.
 NSaved= 3 IEnMin= 3 EnMin= -463.246320746792     IErMin= 3 ErrMin= 5.63D-03
 ErrMax= 5.63D-03  0.00D+00 EMaxC= 1.00D-01 BMatC= 4.22D-03 BMatP= 2.16D-01
 IDIUse=3 WtCom= 9.44D-01 WtEn= 5.63D-02
 Coeff-Com: -0.360D+00 0.767D+00 0.593D+00
 Coeff-En:   0.000D+00 0.000D+00 0.100D+01
 Coeff:     -0.340D+00 0.724D+00 0.616D+00
 Gap=     0.326 Goal=   None    Shift=    0.000
 RMSDP=4.37D-03 MaxDP=2.90D-01 DE=-4.43D-02 OVMax= 2.09D-02

 Cycle   4  Pass 1  IDiag  1:
 RMSU=  1.13D-03    CP:  5.06D-01  1.40D+00  6.97D-01
 E= -463.250044591514     Delta-E=       -0.003723844722 Rises=F Damp=F
 DIIS: error= 1.88D-03 at cycle   4 NSaved=   4.
 NSaved= 4 IEnMin= 4 EnMin= -463.250044591514     IErMin= 4 ErrMin= 1.88D-03
 ErrMax= 1.88D-03  0.00D+00 EMaxC= 1.00D-01 BMatC= 2.84D-04 BMatP= 4.22D-03
 IDIUse=3 WtCom= 9.81D-01 WtEn= 1.88D-02
 Coeff-Com: -0.128D+00 0.273D+00 0.292D+00 0.562D+00
 Coeff-En:   0.000D+00 0.000D+00 0.000D+00 0.100D+01
 Coeff:     -0.125D+00 0.268D+00 0.287D+00 0.570D+00
 Gap=     0.325 Goal=   None    Shift=    0.000
 RMSDP=1.11D-03 MaxDP=6.69D-02 DE=-3.72D-03 OVMax= 5.68D-03

 Cycle   5  Pass 1  IDiag  1:
 RMSU=  3.63D-04    CP:  5.00D-01  1.39D+00  7.44D-01  4.78D-01
 E= -463.250344179408     Delta-E=       -0.000299587894 Rises=F Damp=F
 DIIS: error= 3.84D-04 at cycle   5 NSaved=   5.
 NSaved= 5 IEnMin= 5 EnMin= -463.250344179408     IErMin= 5 ErrMin= 3.84D-04
 ErrMax= 3.84D-04  0.00D+00 EMaxC= 1.00D-01 BMatC= 9.19D-06 BMatP= 2.84D-04
 IDIUse=3 WtCom= 9.96D-01 WtEn= 3.84D-03
 Coeff-Com:  0.275D-01-0.588D-01-0.325D-01 0.126D+00 0.938D+00
 Coeff-En:   0.000D+00 0.000D+00 0.000D+00 0.000D+00 0.100D+01
 Coeff:      0.274D-01-0.586D-01-0.324D-01 0.125D+00 0.938D+00
 Gap=     0.325 Goal=   None    Shift=    0.000
 RMSDP=2.22D-04 MaxDP=1.58D-02 DE=-3.00D-04 OVMax= 1.70D-03

 Cycle   6  Pass 1  IDiag  1:
 RMSU=  6.10D-05    CP:  5.00D-01  1.37D+00  7.64D-01  4.83D-01  1.25D+00
 E= -463.250356809339     Delta-E=       -0.000012629931 Rises=F Damp=F
 DIIS: error= 5.95D-05 at cycle   6 NSaved=   6.
 NSaved= 6 IEnMin= 6 EnMin= -463.250356809339     IErMin= 6 ErrMin= 5.95D-05
 ErrMax= 5.95D-05  0.00D+00 EMaxC= 1.00D-01 BMatC= 4.73D-07 BMatP= 9.19D-06
 IDIUse=1 WtCom= 1.00D+00 WtEn= 0.00D+00
 Coeff-Com:  0.119D-01-0.255D-01-0.166D-01 0.316D-01 0.325D+00 0.673D+00
 Coeff:      0.119D-01-0.255D-01-0.166D-01 0.316D-01 0.325D+00 0.673D+00
 Gap=     0.325 Goal=   None    Shift=    0.000
 RMSDP=7.16D-05 MaxDP=4.72D-03 DE=-1.26D-05 OVMax= 2.76D-04

 Cycle   7  Pass 1  IDiag  1:
 RMSU=  1.45D-05    CP:  5.00D-01  1.37D+00  7.67D-01  4.63D-01  1.32D+00
                    CP:  1.23D+00
 E= -463.250357380480     Delta-E=       -0.000000571141 Rises=F Damp=F
 DIIS: error= 2.09D-05 at cycle   7 NSaved=   7.
 NSaved= 7 IEnMin= 7 EnMin= -463.250357380480     IErMin= 7 ErrMin= 2.09D-05
 ErrMax= 2.09D-05  0.00D+00 EMaxC= 1.00D-01 BMatC= 5.67D-08 BMatP= 4.73D-07
 IDIUse=1 WtCom= 1.00D+00 WtEn= 0.00D+00
 Coeff-Com: -0.234D-02 0.504D-02 0.219D-02-0.190D-01-0.111D+00 0.176D+00
 Coeff-Com:  0.948D+00
 Coeff:     -0.234D-02 0.504D-02 0.219D-02-0.190D-01-0.111D+00 0.176D+00
 Coeff:      0.948D+00
 Gap=     0.325 Goal=   None    Shift=    0.000
 RMSDP=4.72D-05 MaxDP=3.05D-03 DE=-5.71D-07 OVMax= 2.08D-04

 Cycle   8  Pass 1  IDiag  1:
 RMSU=  4.66D-06    CP:  5.00D-01  1.36D+00  7.70D-01  4.45D-01  1.38D+00
                    CP:  1.44D+00  1.34D+00
 E= -463.250357487572     Delta-E=       -0.000000107091 Rises=F Damp=F
 DIIS: error= 3.95D-06 at cycle   8 NSaved=   8.
 NSaved= 8 IEnMin= 8 EnMin= -463.250357487572     IErMin= 8 ErrMin= 3.95D-06
 ErrMax= 3.95D-06  0.00D+00 EMaxC= 1.00D-01 BMatC= 1.28D-09 BMatP= 5.67D-08
 IDIUse=1 WtCom= 1.00D+00 WtEn= 0.00D+00
 Coeff-Com: -0.388D-03 0.829D-03 0.550D-03-0.152D-02-0.914D-02-0.133D-01
 Coeff-Com: -0.229D-01 0.105D+01
 Coeff:     -0.388D-03 0.829D-03 0.550D-03-0.152D-02-0.914D-02-0.133D-01
 Coeff:     -0.229D-01 0.105D+01
 Gap=     0.325 Goal=   None    Shift=    0.000
 RMSDP=1.19D-05 MaxDP=8.48D-04 DE=-1.07D-07 OVMax= 4.24D-05

 Cycle   9  Pass 1  IDiag  1:
 RMSU=  8.79D-07    CP:  5.00D-01  1.36D+00  7.70D-01  4.41D-01  1.39D+00
                    CP:  1.48D+00  1.47D+00  1.28D+00
 E= -463.250357491543     Delta-E=       -0.000000003971 Rises=F Damp=F
 DIIS: error= 2.07D-06 at cycle   9 NSaved=   9.
 NSaved= 9 IEnMin= 9 EnMin= -463.250357491543     IErMin= 9 ErrMin= 2.07D-06
 ErrMax= 2.07D-06  0.00D+00 EMaxC= 1.00D-01 BMatC= 3.11D-10 BMatP= 1.28D-09
 IDIUse=1 WtCom= 1.00D+00 WtEn= 0.00D+00
 Coeff-Com:  0.152D-03-0.331D-03-0.654D-04 0.185D-02 0.109D-01-0.242D-01
 Coeff-Com: -0.131D+00 0.367D+00 0.775D+00
 Coeff:      0.152D-03-0.331D-03-0.654D-04 0.185D-02 0.109D-01-0.242D-01
 Coeff:     -0.131D+00 0.367D+00 0.775D+00
 Gap=     0.325 Goal=   None    Shift=    0.000
 RMSDP=2.58D-06 MaxDP=1.63D-04 DE=-3.97D-09 OVMax= 1.75D-05

 Cycle  10  Pass 1  IDiag  1:
 RMSU=  2.38D-07    CP:  5.00D-01  1.36D+00  7.70D-01  4.41D-01  1.39D+00
                    CP:  1.48D+00  1.50D+00  1.38D+00  1.36D+00
 E= -463.250357492121     Delta-E=       -0.000000000578 Rises=F Damp=F
 DIIS: error= 3.48D-07 at cycle  10 NSaved=  10.
 NSaved=10 IEnMin=10 EnMin= -463.250357492121     IErMin=10 ErrMin= 3.48D-07
 ErrMax= 3.48D-07  0.00D+00 EMaxC= 1.00D-01 BMatC= 2.73D-11 BMatP= 3.11D-10
 IDIUse=1 WtCom= 1.00D+00 WtEn= 0.00D+00
 Coeff-Com:  0.644D-04-0.139D-03-0.544D-04 0.550D-03 0.292D-02-0.319D-02
 Coeff-Com: -0.269D-01-0.352D-01 0.204D+00 0.858D+00
 Coeff:      0.644D-04-0.139D-03-0.544D-04 0.550D-03 0.292D-02-0.319D-02
 Coeff:     -0.269D-01-0.352D-01 0.204D+00 0.858D+00
 Gap=     0.325 Goal=   None    Shift=    0.000
 RMSDP=2.46D-07 MaxDP=1.10D-05 DE=-5.78D-10 OVMax= 3.99D-06

 Cycle  11  Pass 1  IDiag  1:
 RMSU=  9.27D-08    CP:  5.00D-01  1.36D+00  7.70D-01  4.41D-01  1.39D+00
                    CP:  1.48D+00  1.50D+00  1.40D+00  1.50D+00  1.20D+00
 E= -463.250357492160     Delta-E=       -0.000000000038 Rises=F Damp=F
 DIIS: error= 1.13D-07 at cycle  11 NSaved=  11.
 NSaved=11 IEnMin=11 EnMin= -463.250357492160     IErMin=11 ErrMin= 1.13D-07
 ErrMax= 1.13D-07  0.00D+00 EMaxC= 1.00D-01 BMatC= 1.02D-12 BMatP= 2.73D-11
 IDIUse=1 WtCom= 1.00D+00 WtEn= 0.00D+00
 Coeff-Com: -0.152D-04 0.331D-04 0.128D-04-0.174D-03-0.105D-02 0.238D-02
 Coeff-Com:  0.109D-01-0.245D-01-0.427D-01-0.137D+00 0.119D+01
 Coeff:     -0.152D-04 0.331D-04 0.128D-04-0.174D-03-0.105D-02 0.238D-02
 Coeff:      0.109D-01-0.245D-01-0.427D-01-0.137D+00 0.119D+01
 Gap=     0.325 Goal=   None    Shift=    0.000
 RMSDP=2.56D-07 MaxDP=1.71D-05 DE=-3.84D-11 OVMax= 1.03D-06

 Cycle  12  Pass 1  IDiag  1:
 RMSU=  2.33D-08    CP:  5.00D-01  1.36D+00  7.70D-01  4.41D-01  1.39D+00
                    CP:  1.48D+00  1.50D+00  1.39D+00  1.56D+00  1.30D+00
                    CP:  1.21D+00
 E= -463.250357492175     Delta-E=       -0.000000000015 Rises=F Damp=F
 DIIS: error= 2.49D-08 at cycle  12 NSaved=  12.
 NSaved=12 IEnMin=12 EnMin= -463.250357492175     IErMin=12 ErrMin= 2.49D-08
 ErrMax= 2.49D-08  0.00D+00 EMaxC= 1.00D-01 BMatC= 8.96D-14 BMatP= 1.02D-12
 IDIUse=1 WtCom= 1.00D+00 WtEn= 0.00D+00
 Coeff-Com: -0.165D-05 0.348D-05 0.261D-05-0.929D-05-0.388D-04-0.180D-06
 Coeff-Com: -0.130D-04 0.393D-02 0.797D-04-0.533D-01-0.135D+00 0.118D+01
 Coeff:     -0.165D-05 0.348D-05 0.261D-05-0.929D-05-0.388D-04-0.180D-06
 Coeff:     -0.130D-04 0.393D-02 0.797D-04-0.533D-01-0.135D+00 0.118D+01
 Gap=     0.325 Goal=   None    Shift=    0.000
 RMSDP=5.99D-08 MaxDP=3.79D-06 DE=-1.52D-11 OVMax= 2.91D-07

 Cycle  13  Pass 1  IDiag  1:
 RMSU=  6.23D-09    CP:  5.00D-01  1.36D+00  7.70D-01  4.41D-01  1.39D+00
                    CP:  1.48D+00  1.50D+00  1.39D+00  1.56D+00  1.30D+00
                    CP:  1.25D+00  1.33D+00
 E= -463.250357492165     Delta-E=        0.000000000009 Rises=F Damp=F
 DIIS: error= 5.81D-09 at cycle  13 NSaved=  13.
 NSaved=13 IEnMin=12 EnMin= -463.250357492175     IErMin=13 ErrMin= 5.81D-09
 ErrMax= 5.81D-09  0.00D+00 EMaxC= 1.00D-01 BMatC= 4.98D-15 BMatP= 8.96D-14
 IDIUse=1 WtCom= 1.00D+00 WtEn= 0.00D+00
 Coeff-Com:  0.546D-06-0.120D-05-0.343D-06 0.728D-05 0.487D-04-0.110D-03
 Coeff-Com: -0.599D-03 0.183D-02 0.336D-02-0.318D-02-0.858D-01 0.187D+00
 Coeff-Com:  0.898D+00
 Coeff:      0.546D-06-0.120D-05-0.343D-06 0.728D-05 0.487D-04-0.110D-03
 Coeff:     -0.599D-03 0.183D-02 0.336D-02-0.318D-02-0.858D-01 0.187D+00
 Coeff:      0.898D+00
 Gap=     0.325 Goal=   None    Shift=    0.000
 RMSDP=6.10D-09 MaxDP=5.07D-07 DE= 9.32D-12 OVMax= 6.51D-08

 SCF Done:  E(RwB97XD) =  -463.250357492     A.U. after   13 cycles
            NFock= 13  Conv=0.61D-08     -V/T= 2.0049
 KE= 4.610134384835D+02 PE=-2.272338876237D+03 EE= 7.490309866619D+02
 Leave Link  502 at Sat Nov  5 21:36:16 2022, MaxMem= 16106127360 cpu:             755.2 elap:              23.7
 (Enter /opt/ap/G16/B01/g16/l601.exe)
 Copying SCF densities to generalized density rwf, IOpCl= 0 IROHF=0.

 **********************************************************************

            Population analysis using the SCF Density.

 **********************************************************************

 Orbital symmetries:
       Occupied  (A) (A) (A) (A) (A) (A) (A) (A) (A) (A) (A) (A)
                 (A) (A) (A) (A) (A) (A) (A) (A) (A) (A) (A) (A)
                 (A) (A) (A) (A) (A) (A) (A) (A) (A) (A) (A) (A)
                 (A) (A) (A) (A) (A)
       Virtual   (A) (A) (A) (A) (A) (A) (A) (A) (A) (A) (A) (A)
                 (A) (A) (A) (A) (A) (A) (A) (A) (A) (A) (A) (A)
                 (A) (A) (A) (A) (A) (A) (A) (A) (A) (A) (A) (A)
                 (A) (A) (A) (A) (A) (A) (A) (A) (A) (A) (A) (A)
                 (A) (A) (A) (A) (A) (A) (A) (A) (A) (A) (A) (A)
                 (A) (A) (A) (A) (A) (A) (A) (A) (A) (A) (A) (A)
                 (A) (A) (A) (A) (A) (A) (A) (A) (A) (A) (A) (A)
                 (A) (A) (A) (A) (A) (A) (A) (A) (A) (A) (A) (A)
                 (A) (A) (A) (A) (A) (A) (A) (A) (A) (A) (A) (A)
                 (A) (A) (A) (A) (A) (A) (A) (A) (A) (A) (A) (A)
                 (A) (A) (A) (A) (A) (A) (A) (A) (A) (A) (A) (A)
                 (A) (A) (A) (A) (A) (A) (A) (A) (A) (A) (A) (A)
                 (A) (A) (A) (A) (A) (A) (A) (A) (A) (A) (A) (A)
                 (A) (A) (A) (A) (A) (A) (A) (A) (A) (A) (A) (A)
                 (A) (A) (A) (A) (A) (A) (A) (A) (A) (A) (A) (A)
                 (A) (A) (A) (A) (A) (A) (A) (A) (A) (A) (A) (A)
                 (A) (A) (A) (A) (A) (A) (A) (A) (A) (A) (A) (A)
                 (A) (A) (A) (A) (A) (A) (A) (A) (A) (A) (A) (A)
                 (A) (A) (A) (A) (A) (A) (A) (A) (A) (A) (A) (A)
                 (A) (A) (A) (A) (A) (A) (A) (A) (A) (A) (A) (A)
                 (A) (A) (A) (A) (A) (A) (A) (A) (A) (A) (A) (A)
                 (A) (A) (A) (A) (A) (A) (A) (A) (A) (A) (A) (A)
                 (A) (A) (A) (A) (A) (A) (A) (A) (A) (A) (A) (A)
                 (A) (A) (A) (A) (A) (A) (A) (A) (A) (A) (A) (A)
                 (A) (A) (A)
 The electronic state is 1-A.
 Alpha  occ. eigenvalues --  -10.30536 -10.30506 -10.29394 -10.29394 -10.29384
 Alpha  occ. eigenvalues --  -10.29384 -10.29297 -10.29297 -10.29293 -10.29293
 Alpha  occ. eigenvalues --  -10.29253 -10.29253  -0.97644  -0.95346  -0.88266
 Alpha  occ. eigenvalues --   -0.85514  -0.84684  -0.82383  -0.72407  -0.71896
 Alpha  occ. eigenvalues --   -0.68837  -0.67525  -0.62888  -0.59264  -0.56475
 Alpha  occ. eigenvalues --   -0.55721  -0.53184  -0.52700  -0.51571  -0.51042
 Alpha  occ. eigenvalues --   -0.50646  -0.47244  -0.45254  -0.45245  -0.43875
 Alpha  occ. eigenvalues --   -0.42326  -0.41942  -0.36181  -0.33555  -0.33469
 Alpha  occ. eigenvalues --   -0.30290
 Alpha virt. eigenvalues --    0.02230   0.03853   0.04524   0.04672   0.04796
 Alpha virt. eigenvalues --    0.05353   0.05873   0.05938   0.07401   0.07691
 Alpha virt. eigenvalues --    0.07846   0.08321   0.09415   0.09783   0.11749
 Alpha virt. eigenvalues --    0.12719   0.13319   0.13344   0.15067   0.15179
 Alpha virt. eigenvalues --    0.15786   0.15942   0.16023   0.16577   0.16868
 Alpha virt. eigenvalues --    0.17456   0.17498   0.17647   0.17960   0.18553
 Alpha virt. eigenvalues --    0.18747   0.18809   0.19209   0.19874   0.20091
 Alpha virt. eigenvalues --    0.20122   0.20635   0.22729   0.22731   0.22924
 Alpha virt. eigenvalues --    0.23265   0.23427   0.23752   0.23994   0.25110
 Alpha virt. eigenvalues --    0.25759   0.26147   0.26505   0.27519   0.27733
 Alpha virt. eigenvalues --    0.27785   0.28710   0.29250   0.30193   0.30564
 Alpha virt. eigenvalues --    0.30638   0.31304   0.31378   0.31657   0.31845
 Alpha virt. eigenvalues --    0.33605   0.34213   0.34406   0.34621   0.35390
 Alpha virt. eigenvalues --    0.35628   0.36263   0.36585   0.36907   0.36932
 Alpha virt. eigenvalues --    0.37179   0.38991   0.40098   0.41265   0.41840
 Alpha virt. eigenvalues --    0.42209   0.43031   0.43149   0.46621   0.47437
 Alpha virt. eigenvalues --    0.48359   0.56586   0.58126   0.58995   0.61456
 Alpha virt. eigenvalues --    0.61456   0.61544   0.62054   0.62620   0.62889
 Alpha virt. eigenvalues --    0.64156   0.64395   0.64535   0.65685   0.65871
 Alpha virt. eigenvalues --    0.66122   0.67898   0.68550   0.69207   0.69737
 Alpha virt. eigenvalues --    0.71570   0.71652   0.73198   0.74322   0.74851
 Alpha virt. eigenvalues --    0.77003   0.77256   0.77319   0.78404   0.79274
 Alpha virt. eigenvalues --    0.80183   0.80868   0.80888   0.82509   0.83089
 Alpha virt. eigenvalues --    0.83341   0.86843   0.88339   0.89409   0.89711
 Alpha virt. eigenvalues --    0.89866   0.91636   0.92489   0.93453   0.94465
 Alpha virt. eigenvalues --    0.95472   0.95856   0.96021   0.96947   0.98330
 Alpha virt. eigenvalues --    0.99999   1.00874   1.01152   1.01330   1.03195
 Alpha virt. eigenvalues --    1.06790   1.06804   1.08538   1.09742   1.09786
 Alpha virt. eigenvalues --    1.11033   1.13670   1.15389   1.15457   1.17108
 Alpha virt. eigenvalues --    1.18701   1.20082   1.21964   1.23387   1.24635
 Alpha virt. eigenvalues --    1.24826   1.39066   1.39530   1.39604   1.42545
 Alpha virt. eigenvalues --    1.54801   1.57265   1.57370   1.58536   1.58869
 Alpha virt. eigenvalues --    1.60383   1.61011   1.62336   1.62542   1.65227
 Alpha virt. eigenvalues --    1.65345   1.65487   1.66505   1.68200   1.70738
 Alpha virt. eigenvalues --    1.72329   1.74356   1.74581   1.74823   1.78309
 Alpha virt. eigenvalues --    1.79592   1.81987   1.82674   1.83661   1.85358
 Alpha virt. eigenvalues --    1.85755   1.86741   1.89299   1.92336   1.92733
 Alpha virt. eigenvalues --    1.93516   1.98411   1.99738   2.00350   2.01069
 Alpha virt. eigenvalues --    2.02290   2.03814   2.04007   2.04168   2.04872
 Alpha virt. eigenvalues --    2.06973   2.07886   2.08892   2.10153   2.10760
 Alpha virt. eigenvalues --    2.12542   2.14603   2.16812   2.16826   2.16953
 Alpha virt. eigenvalues --    2.23761   2.32671   2.35099   2.36514   2.42305
 Alpha virt. eigenvalues --    2.43701   2.48534   2.49739   2.52210   2.52850
 Alpha virt. eigenvalues --    2.55152   2.56401   2.56714   2.57625   2.60224
 Alpha virt. eigenvalues --    2.71128   2.72148   2.75407   2.75939   2.77882
 Alpha virt. eigenvalues --    2.78806   2.79567   2.79934   2.80459   2.82278
 Alpha virt. eigenvalues --    2.82283   2.82452   2.84524   2.85468   2.87043
 Alpha virt. eigenvalues --    2.88262   2.88865   2.89920   2.91132   2.92074
 Alpha virt. eigenvalues --    2.92686   2.92943   2.96535   2.99274   3.00365
 Alpha virt. eigenvalues --    3.03529   3.03678   3.03987   3.04020   3.09648
 Alpha virt. eigenvalues --    3.14971   3.19361   3.20827   3.29573   3.29929
 Alpha virt. eigenvalues --    3.32661   3.45253   3.46397   3.46841   3.48965
 Alpha virt. eigenvalues --    3.59221   3.60621   3.63163   3.63600   3.67941
 Alpha virt. eigenvalues --    3.73452   3.75213   3.88066   4.08516   4.10882
 Alpha virt. eigenvalues --    4.13421   4.14601   4.24243   4.24656   4.27268
 Alpha virt. eigenvalues --    4.27562   4.59010   4.92311   4.95738  23.69690
 Alpha virt. eigenvalues --   23.84823  24.07184  24.08989  24.09611  24.10177
 Alpha virt. eigenvalues --   24.18260  24.20494  24.22326  24.22414  24.30741
 Alpha virt. eigenvalues --   24.31989
          Condensed to atoms (all electrons):
               1          2          3          4          5          6
     1  C   20.636361   0.449739   0.447961  -1.750218  -0.025393  -9.099237
     2  C    0.449739  15.846185  -5.814838  -0.945012   0.622831  -3.283850
     3  C    0.447961  -5.814838  15.854138  -0.484574  -0.063057  -3.286544
     4  C   -1.750218  -0.945012  -0.484574   6.739783  -0.058189   1.824173
     5  H   -0.025393   0.622831  -0.063057  -0.058189   0.500357  -0.092150
     6  C   -9.099237  -3.283850  -3.286544   1.824173  -0.092150  20.635557
     7  C   -1.751071  -0.485138  -0.948446   0.363539  -0.016577   1.826792
     8  H   -0.025358  -0.063111   0.623016  -0.016522   0.000671  -0.092198
     9  C    0.269213   0.708056   0.708968  -0.245221   0.035446  -1.457210
    10  H    0.025231  -0.132759  -0.003466   0.449030  -0.012636   0.050389
    11  C   -3.285364  -0.167487  -0.410992   0.252623  -0.060004   0.447039
    12  C   -3.285404  -0.412172  -0.168678   0.223934  -0.007608   0.451180
    13  H    0.025266  -0.003455  -0.132890   0.024893  -0.000188   0.050394
    14  H    0.038893   0.006908   0.006919  -0.055054   0.000445  -0.035258
    15  C    1.823524   0.254144   0.222523  -0.028154   0.006720  -1.749114
    16  H   -0.092264  -0.059985  -0.007543   0.006703  -0.003349  -0.025301
    17  C    1.827512   0.225092   0.252227  -0.117044   0.021961  -1.752293
    18  H   -0.092166  -0.007575  -0.060140   0.021926  -0.002624  -0.025340
    19  C   -1.457547  -0.123633  -0.122665   0.055312  -0.015378   0.269190
    20  H    0.050387   0.003575   0.003531  -0.000466   0.000723   0.025229
    21  H    0.050429   0.003583   0.003509  -0.001028   0.000406   0.025230
    22  H   -0.035261  -0.003051  -0.003004   0.001400  -0.000373   0.038897
               7          8          9         10         11         12
     1  C   -1.751071  -0.025358   0.269213   0.025231  -3.285364  -3.285404
     2  C   -0.485138  -0.063111   0.708056  -0.132759  -0.167487  -0.412172
     3  C   -0.948446   0.623016   0.708968  -0.003466  -0.410992  -0.168678
     4  C    0.363539  -0.016522  -0.245221   0.449030   0.252623   0.223934
     5  H   -0.016577   0.000671   0.035446  -0.012636  -0.060004  -0.007608
     6  C    1.826792  -0.092198  -1.457210   0.050389   0.447039   0.451180
     7  C    6.741998  -0.058306  -0.245802   0.024908   0.223831   0.253601
     8  H   -0.058306   0.500407   0.035424  -0.000187  -0.007507  -0.060117
     9  C   -0.245802   0.035424   6.605213  -0.096912  -0.123007  -0.123344
    10  H    0.024908  -0.000187  -0.096912   0.480945   0.003538   0.003557
    11  C    0.223831  -0.007507  -0.123007   0.003538  15.847950  -5.813646
    12  C    0.253601  -0.060117  -0.123344   0.003557  -5.813646  15.849528
    13  H    0.449105  -0.012642  -0.096897   0.000982   0.003555   0.003548
    14  H   -0.055073   0.000444   0.439416  -0.009537  -0.003021  -0.003035
    15  C   -0.117116   0.021891   0.055370  -0.000475  -0.943839  -0.485883
    16  H    0.021933  -0.002620  -0.015364   0.000722   0.622643  -0.062912
    17  C   -0.028702   0.006719   0.055462  -0.001030  -0.485038  -0.948268
    18  H    0.006742  -0.003358  -0.015375   0.000406  -0.063149   0.623106
    19  C    0.055553  -0.015356  -0.024353  -0.000103   0.707627   0.709745
    20  H   -0.001032   0.000405  -0.000103   0.000122  -0.132699  -0.003545
    21  H   -0.000483   0.000720  -0.000103   0.000019  -0.003440  -0.132907
    22  H    0.001407  -0.000372  -0.000619   0.000006   0.006865   0.006969
              13         14         15         16         17         18
     1  C    0.025266   0.038893   1.823524  -0.092264   1.827512  -0.092166
     2  C   -0.003455   0.006908   0.254144  -0.059985   0.225092  -0.007575
     3  C   -0.132890   0.006919   0.222523  -0.007543   0.252227  -0.060140
     4  C    0.024893  -0.055054  -0.028154   0.006703  -0.117044   0.021926
     5  H   -0.000188   0.000445   0.006720  -0.003349   0.021961  -0.002624
     6  C    0.050394  -0.035258  -1.749114  -0.025301  -1.752293  -0.025340
     7  C    0.449105  -0.055073  -0.117116   0.021933  -0.028702   0.006742
     8  H   -0.012642   0.000444   0.021891  -0.002620   0.006719  -0.003358
     9  C   -0.096897   0.439416   0.055370  -0.015364   0.055462  -0.015375
    10  H    0.000982  -0.009537  -0.000475   0.000722  -0.001030   0.000406
    11  C    0.003555  -0.003021  -0.943839   0.622643  -0.485038  -0.063149
    12  C    0.003548  -0.003035  -0.485883  -0.062912  -0.948268   0.623106
    13  H    0.480947  -0.009536  -0.001027   0.000406  -0.000473   0.000722
    14  H   -0.009536   0.475321   0.001402  -0.000373   0.001405  -0.000373
    15  C   -0.001027   0.001402   6.739037  -0.058167   0.363759  -0.016544
    16  H    0.000406  -0.000373  -0.058167   0.500361  -0.016593   0.000672
    17  C   -0.000473   0.001405   0.363759  -0.016593   6.742358  -0.058330
    18  H    0.000722  -0.000373  -0.016544   0.000672  -0.058330   0.500406
    19  C   -0.000104  -0.000619  -0.245239   0.035450  -0.246143   0.035438
    20  H    0.000019   0.000006   0.449018  -0.012636   0.024926  -0.000188
    21  H    0.000123   0.000006   0.024914  -0.000188   0.449130  -0.012639
    22  H    0.000006  -0.000011  -0.055018   0.000444  -0.055117   0.000445
              19         20         21         22
     1  C   -1.457547   0.050387   0.050429  -0.035261
     2  C   -0.123633   0.003575   0.003583  -0.003051
     3  C   -0.122665   0.003531   0.003509  -0.003004
     4  C    0.055312  -0.000466  -0.001028   0.001400
     5  H   -0.015378   0.000723   0.000406  -0.000373
     6  C    0.269190   0.025229   0.025230   0.038897
     7  C    0.055553  -0.001032  -0.000483   0.001407
     8  H   -0.015356   0.000405   0.000720  -0.000372
     9  C   -0.024353  -0.000103  -0.000103  -0.000619
    10  H   -0.000103   0.000122   0.000019   0.000006
    11  C    0.707627  -0.132699  -0.003440   0.006865
    12  C    0.709745  -0.003545  -0.132907   0.006969
    13  H   -0.000104   0.000019   0.000123   0.000006
    14  H   -0.000619   0.000006   0.000006  -0.000011
    15  C   -0.245239   0.449018   0.024914  -0.055018
    16  H    0.035450  -0.012636  -0.000188   0.000444
    17  C   -0.246143   0.024926   0.449130  -0.055117
    18  H    0.035438  -0.000188  -0.012639   0.000445
    19  C    6.605590  -0.096907  -0.096934   0.439416
    20  H   -0.096907   0.480943   0.000983  -0.009535
    21  H   -0.096934   0.000983   0.480949  -0.009539
    22  H    0.439416  -0.009535  -0.009539   0.475322
 Mulliken charges:
               1
     1  C    1.254767
     2  C   -0.618045
     3  C   -0.615954
     4  C   -0.261834
     5  H    0.167967
     6  C    1.254425
     7  C   -0.261662
     8  H    0.167957
     9  C   -0.468258
    10  H    0.217251
    11  C   -0.616478
    12  C   -0.617649
    13  H    0.217247
    14  H    0.200725
    15  C   -0.261728
    16  H    0.167963
    17  C   -0.261520
    18  H    0.167938
    19  C   -0.468339
    20  H    0.217245
    21  H    0.217260
    22  H    0.200723
 Sum of Mulliken charges =  -0.00000
 Mulliken charges with hydrogens summed into heavy atoms:
               1
     1  C    1.254767
     2  C   -0.450077
     3  C   -0.447997
     4  C   -0.044583
     6  C    1.254425
     7  C   -0.044415
     9  C   -0.267533
    11  C   -0.448515
    12  C   -0.449711
    15  C   -0.044484
    17  C   -0.044260
    19  C   -0.267616
 Electronic spatial extent (au):  <R**2>=           2311.9486
 Charge=              0.0000 electrons
 Dipole moment (field-independent basis, Debye):
    X=              0.0000    Y=             -0.0001    Z=              0.0004  Tot=              0.0004
 Quadrupole moment (field-independent basis, Debye-Ang):
   XX=            -61.5599   YY=            -62.8568   ZZ=            -76.2451
   XY=             -0.0003   XZ=              0.0010   YZ=              0.0001
 Traceless Quadrupole moment (field-independent basis, Debye-Ang):
   XX=              5.3274   YY=              4.0305   ZZ=             -9.3579
   XY=             -0.0003   XZ=              0.0010   YZ=              0.0001
 Octapole moment (field-independent basis, Debye-Ang**2):
  XXX=              0.0001  YYY=              0.0012  ZZZ=              0.0014  XYY=             -0.0003
  XXY=             -0.0019  XXZ=              0.0017  XZZ=              0.0004  YZZ=             -0.0003
  YYZ=              0.0025  XYZ=             11.3254
 Hexadecapole moment (field-independent basis, Debye-Ang**3):
 XXXX=          -2299.7115 YYYY=           -508.3908 ZZZZ=           -144.4629 XXXY=             -0.0024
 XXXZ=              0.0234 YYYX=             -0.0068 YYYZ=              0.0004 ZZZX=              0.0009
 ZZZY=              0.0001 XXYY=           -475.5528 XXZZ=           -500.3845 YYZZ=           -115.6638
 XXYZ=              0.0019 YYXZ=              0.0008 ZZXY=              0.0037
 N-N= 5.990440935991D+02 E-N=-2.272338875946D+03  KE= 4.610134384835D+02
 No NMR shielding tensors so no spin-rotation constants.
 Leave Link  601 at Sat Nov  5 21:36:16 2022, MaxMem= 16106127360 cpu:               4.2 elap:               0.2
 (Enter /opt/ap/G16/B01/g16/l9999.exe)
 1\1\GINC-N04\SP\RwB97XD\6-311++G(d,p)\C12H10\ROOT\05-Nov-2022\0\\#P wB
 97XD/6-311++G(d,p) scf=maxcycle=512\\_conf025.gjf nmol_natom 1_22\\0,1
 \C\C,1,1.40491871\C,1,1.40495292,2,118.20503621\C,2,1.3939373,1,120.91
 08946,3,0.05365643,0\H,2,1.08593095,1,119.3452094,3,-178.3624307,0\C,1
 ,1.48449301,2,120.90144423,4,-179.96388019,0\C,3,1.39389842,1,120.9105
 0598,2,0.03587687,0\H,3,1.08593608,1,119.34159615,2,-178.38281524,0\C,
 4,1.39606958,2,120.24555868,1,-0.09283196,0\H,4,1.08627898,2,119.66792
 041,1,-179.51486187,0\C,6,1.40492034,1,120.90156908,2,35.,0\C,6,1.4049
 5329,1,120.89324856,2,-145.,0\H,7,1.08627928,3,119.67027175,1,-179.512
 58183,0\H,9,1.08597601,4,120.2602535,2,-179.95233103,0\C,11,1.39393437
 ,6,120.91099656,1,-179.95869964,0\H,11,1.08593173,6,119.34475907,1,1.6
 1891886,0\C,12,1.39390147,6,120.91022615,1,-179.94297913,0\H,12,1.0859
 3608,6,119.34175044,1,1.63241608,0\C,15,1.39607161,11,120.24535737,6,-
 0.10315482,0\H,15,1.08627786,11,119.66861247,6,-179.51844254,0\H,17,1.
 08627825,12,119.6702798,6,-179.51590091,0\H,19,1.08597601,15,120.25988
 597,11,-179.94731581,0\\Version=ES64L-G16RevB.01\State=1-A\HF=-463.250
 3575\RMSD=6.102e-09\Dipole=0.000002,-0.0001482,0.0000153\Quadrupole=3.
 4696464,-6.0578589,2.5882125,-1.4648346,0.8210267,2.4492078\PG=C01 [X(
 C12H10)]\\@


 NOTHING MAKES A PERSON MORE PRODUCTIVE THAN THE LAST MINUTE.
 Job cpu time:       0 days  0 hours 13 minutes 44.6 seconds.
 Elapsed time:       0 days  0 hours  0 minutes 26.2 seconds.
 File lengths (MBytes):  RWF=     62 Int=      0 D2E=      0 Chk=      8 Scr=      1
 Normal termination of Gaussian 16 at Sat Nov  5 21:36:16 2022.
