 Entering Gaussian System, Link 0=g16
 Input=_conf006.gjf
 Output=_conf006.log
 Initial command:
 /opt/ap/G16/B01/g16/l1.exe "/tmp2/scr/Gau-1416.inp" -scrdir="/tmp2/scr/"
 Entering Link 1 = /opt/ap/G16/B01/g16/l1.exe PID=      1417.
  
 Copyright (c) 1988-2017, Gaussian, Inc.  All Rights Reserved.
  
 This is part of the Gaussian(R) 16 program.  It is based on
 the Gaussian(R) 09 system (copyright 2009, Gaussian, Inc.),
 the Gaussian(R) 03 system (copyright 2003, Gaussian, Inc.),
 the Gaussian(R) 98 system (copyright 1998, Gaussian, Inc.),
 the Gaussian(R) 94 system (copyright 1995, Gaussian, Inc.),
 the Gaussian 92(TM) system (copyright 1992, Gaussian, Inc.),
 the Gaussian 90(TM) system (copyright 1990, Gaussian, Inc.),
 the Gaussian 88(TM) system (copyright 1988, Gaussian, Inc.),
 the Gaussian 86(TM) system (copyright 1986, Carnegie Mellon
 University), and the Gaussian 82(TM) system (copyright 1983,
 Carnegie Mellon University). Gaussian is a federally registered
 trademark of Gaussian, Inc.
  
 This software contains proprietary and confidential information,
 including trade secrets, belonging to Gaussian, Inc.
  
 This software is provided under written license and may be
 used, copied, transmitted, or stored only in accord with that
 written license.
  
 The following legend is applicable only to US Government
 contracts under FAR:
  
                    RESTRICTED RIGHTS LEGEND
  
 Use, reproduction and disclosure by the US Government is
 subject to restrictions as set forth in subparagraphs (a)
 and (c) of the Commercial Computer Software - Restricted
 Rights clause in FAR 52.227-19.
  
 Gaussian, Inc.
 340 Quinnipiac St., Bldg. 40, Wallingford CT 06492
  
  
 ---------------------------------------------------------------
 Warning -- This program may not be used in any manner that
 competes with the business of Gaussian, Inc. or will provide
 assistance to any competitor of Gaussian, Inc.  The licensee
 of this program is prohibited from giving any competitor of
 Gaussian, Inc. access to this program.  By using this program,
 the user acknowledges that Gaussian, Inc. is engaged in the
 business of creating and licensing software in the field of
 computational chemistry and represents and warrants to the
 licensee that it is not a competitor of Gaussian, Inc. and that
 it will not use this program in any manner prohibited above.
 ---------------------------------------------------------------
  

 Cite this work as:
 Gaussian 16, Revision B.01,
 M. J. Frisch, G. W. Trucks, H. B. Schlegel, G. E. Scuseria, 
 M. A. Robb, J. R. Cheeseman, G. Scalmani, V. Barone, 
 G. A. Petersson, H. Nakatsuji, X. Li, M. Caricato, A. V. Marenich, 
 J. Bloino, B. G. Janesko, R. Gomperts, B. Mennucci, H. P. Hratchian, 
 J. V. Ortiz, A. F. Izmaylov, J. L. Sonnenberg, D. Williams-Young, 
 F. Ding, F. Lipparini, F. Egidi, J. Goings, B. Peng, A. Petrone, 
 T. Henderson, D. Ranasinghe, V. G. Zakrzewski, J. Gao, N. Rega, 
 G. Zheng, W. Liang, M. Hada, M. Ehara, K. Toyota, R. Fukuda, 
 J. Hasegawa, M. Ishida, T. Nakajima, Y. Honda, O. Kitao, H. Nakai, 
 T. Vreven, K. Throssell, J. A. Montgomery, Jr., J. E. Peralta, 
 F. Ogliaro, M. J. Bearpark, J. J. Heyd, E. N. Brothers, K. N. Kudin, 
 V. N. Staroverov, T. A. Keith, R. Kobayashi, J. Normand, 
 K. Raghavachari, A. P. Rendell, J. C. Burant, S. S. Iyengar, 
 J. Tomasi, M. Cossi, J. M. Millam, M. Klene, C. Adamo, R. Cammi, 
 J. W. Ochterski, R. L. Martin, K. Morokuma, O. Farkas, 
 J. B. Foresman, and D. J. Fox, Gaussian, Inc., Wallingford CT, 2016.
 
 ******************************************
 Gaussian 16:  ES64L-G16RevB.01 20-Dec-2017
                 5-Nov-2022 
 ******************************************
 %nprocshared=32
 Will use up to   32 processors via shared memory.
 %mem=120GB
 %chk=_conf006.chk
 ----------------------------------------
 #P wB97XD/6-311++G(d,p) scf=maxcycle=512
 ----------------------------------------
 1/38=1,172=1/1;
 2/12=2,17=6,18=5,40=1/2;
 3/5=4,6=6,7=1111,11=2,25=1,30=1,74=-58/1,2,3;
 4//1;
 5/5=2,7=512,38=5/2;
 6/7=2,8=2,9=2,10=2,28=1/1;
 99/5=1,9=1/99;
 Leave Link    1 at Sat Nov  5 21:33:43 2022, MaxMem= 16106127360 cpu:               1.5 elap:               0.1
 (Enter /opt/ap/G16/B01/g16/l101.exe)
 ----------------------------
 _conf006.gjf nmol_natom 1_22
 ----------------------------
 Symbolic Z-matrix:
 Charge =  0 Multiplicity = 1
 C
 C                    1     1.40492 
 C                    1     1.40495  2     118.20504 
 C                    2     1.39394  1     120.91089  3     0.05366  0
 H                    2     1.08593  1     119.34521  3    -178.36243  0
 C                    1     1.48449  2     120.90144  4    -179.96388  0
 C                    3     1.3939   1     120.91051  2     0.03588  0
 H                    3     1.08594  1     119.3416  2    -178.38282  0
 C                    4     1.39607  2     120.24556  1    -0.09283  0
 H                    4     1.08628  2     119.66792  1    -179.51486  0
 C                    6     1.40492  1     120.90157  2    -60.      0
 C                    6     1.40495  1     120.89325  2     120.     0
 H                    7     1.08628  3     119.67027  1    -179.51258  0
 H                    9     1.08598  4     120.26025  2    -179.95233  0
 C                    11    1.39393  6     120.911  1    -179.9587  0
 H                    11    1.08593  6     119.34476  1     1.61892  0
 C                    12    1.3939   6     120.91023  1    -179.94298  0
 H                    12    1.08594  6     119.34175  1     1.63242  0
 C                    15    1.39607  11    120.24536  6    -0.10315  0
 H                    15    1.08628  11    119.66861  6    -179.51844  0
 H                    17    1.08628  12    119.67028  6    -179.5159  0
 H                    19    1.08598  15    120.25989  11   -179.94732  0
 
 ITRead=  0  0  0  0  0  0  0  0  0  0  0  0  0  0  0  0  0  0  0  0
 ITRead=  0  0
 MicOpt= -1 -1 -1 -1 -1 -1 -1 -1 -1 -1 -1 -1 -1 -1 -1 -1 -1 -1 -1 -1
 MicOpt= -1 -1
 NAtoms=     22 NQM=       22 NQMF=       0 NMMI=      0 NMMIF=      0
                NMic=       0 NMicF=      0.
                    Isotopes and Nuclear Properties:
 (Nuclear quadrupole moments (NQMom) in fm**2, nuclear magnetic moments (NMagM)
  in nuclear magnetons)

  Atom         1           2           3           4           5           6           7           8           9          10
 IAtWgt=          12          12          12          12           1          12          12           1          12           1
 AtmWgt=  12.0000000  12.0000000  12.0000000  12.0000000   1.0078250  12.0000000  12.0000000   1.0078250  12.0000000   1.0078250
 NucSpn=           0           0           0           0           1           0           0           1           0           1
 AtZEff=  -0.0000000  -0.0000000  -0.0000000  -0.0000000  -0.0000000  -0.0000000  -0.0000000  -0.0000000  -0.0000000  -0.0000000
 NQMom=    0.0000000   0.0000000   0.0000000   0.0000000   0.0000000   0.0000000   0.0000000   0.0000000   0.0000000   0.0000000
 NMagM=    0.0000000   0.0000000   0.0000000   0.0000000   2.7928460   0.0000000   0.0000000   2.7928460   0.0000000   2.7928460
 AtZNuc=   6.0000000   6.0000000   6.0000000   6.0000000   1.0000000   6.0000000   6.0000000   1.0000000   6.0000000   1.0000000

  Atom        11          12          13          14          15          16          17          18          19          20
 IAtWgt=          12          12           1           1          12           1          12           1          12           1
 AtmWgt=  12.0000000  12.0000000   1.0078250   1.0078250  12.0000000   1.0078250  12.0000000   1.0078250  12.0000000   1.0078250
 NucSpn=           0           0           1           1           0           1           0           1           0           1
 AtZEff=  -0.0000000  -0.0000000  -0.0000000  -0.0000000  -0.0000000  -0.0000000  -0.0000000  -0.0000000  -0.0000000  -0.0000000
 NQMom=    0.0000000   0.0000000   0.0000000   0.0000000   0.0000000   0.0000000   0.0000000   0.0000000   0.0000000   0.0000000
 NMagM=    0.0000000   0.0000000   2.7928460   2.7928460   0.0000000   2.7928460   0.0000000   2.7928460   0.0000000   2.7928460
 AtZNuc=   6.0000000   6.0000000   1.0000000   1.0000000   6.0000000   1.0000000   6.0000000   1.0000000   6.0000000   1.0000000

  Atom        21          22
 IAtWgt=           1           1
 AtmWgt=   1.0078250   1.0078250
 NucSpn=           1           1
 AtZEff=  -0.0000000  -0.0000000
 NQMom=    0.0000000   0.0000000
 NMagM=    2.7928460   2.7928460
 AtZNuc=   1.0000000   1.0000000
 Leave Link  101 at Sat Nov  5 21:33:43 2022, MaxMem= 16106127360 cpu:               5.2 elap:               0.2
 (Enter /opt/ap/G16/B01/g16/l202.exe)
                          Input orientation:                          
 ---------------------------------------------------------------------
 Center     Atomic      Atomic             Coordinates (Angstroms)
 Number     Number       Type             X           Y           Z
 ---------------------------------------------------------------------
      1          6           0        0.000000    0.000000    0.000000
      2          6           0        0.000000    0.000000    1.404919
      3          6           0        1.238131    0.000000   -0.664020
      4          6           0        1.195952    0.001120    2.120990
      5          1           0       -0.946201   -0.027051    1.937101
      6          6           0       -1.273772   -0.000390   -0.762381
      7          6           0        2.434381   -0.000749    0.051479
      8          1           0        1.259850    0.026715   -1.749411
      9          6           0        2.418826    0.000311    1.447501
     10          1           0        1.172413   -0.006894    3.206985
     11          6           0       -2.202100   -1.044662   -0.615737
     12          6           0       -1.583473    1.043618   -1.650089
     13          1           0        3.380326    0.007295   -0.482493
     14          1           0        3.350700    0.000403    2.005133
     15          6           0       -3.397843   -1.045657   -1.332152
     16          1           0       -1.993644   -1.847521    0.085126
     17          6           0       -2.779936    1.044205   -2.365238
     18          1           0       -0.867418    1.846557   -1.797776
     19          6           0       -3.692639   -0.000749   -2.209806
     20          1           0       -4.104748   -1.859359   -1.197337
     21          1           0       -2.995387    1.857647   -3.052182
     22          1           0       -4.624524   -0.000856   -2.767422
 ---------------------------------------------------------------------
                    Distance matrix (angstroms):
                    1          2          3          4          5
     1  C    0.000000
     2  C    1.404919   0.000000
     3  C    1.404953   2.411116   0.000000
     4  C    2.434934   1.393937   2.785330   0.000000
     5  H    2.156012   1.085931   3.396745   2.150216   0.000000
     6  C    1.484493   2.513898   2.513829   3.796494   2.719415
     7  C    2.434925   2.785320   1.393898   2.411760   3.870994
     8  H    2.156008   3.396723   1.085936   3.871013   4.296501
     9  C    2.818861   2.419201   2.419207   1.396070   3.400568
    10  H    3.414579   2.149893   3.871569   1.086279   2.470128
    11  C    2.513901   3.166009   3.595670   4.486658   3.021556
    12  C    2.513826   3.595775   3.165900   4.799276   3.797418
    13  H    3.414594   3.871560   2.149884   3.398478   4.957262
    14  H    3.904837   3.404035   3.404016   2.157861   4.297527
    15  C    3.796494   4.486680   4.799173   5.841480   4.211429
    16  H    2.719411   3.021556   3.797226   4.211382   2.800189
    17  C    3.796414   4.799217   4.486577   6.084567   4.797947
    18  H    2.719225   3.797294   3.021343   4.797902   4.179225
    19  C    4.303351   5.167381   5.167393   6.531013   4.973978
    20  H    4.662595   5.203644   5.682253   6.524577   4.812326
    21  H    4.662511   5.682336   5.203542   6.911999   5.713510
    22  H    5.389327   6.228535   6.228565   7.600955   5.971875
                    6          7          8          9         10
     6  C    0.000000
     7  C    3.796415   0.000000
     8  H    2.719228   2.150228   0.000000
     9  C    4.303354   1.396108   3.400612   0.000000
    10  H    4.662588   3.398502   4.957280   2.156243   0.000000
    11  C    1.404920   4.799155   3.797125   5.167386   5.203605
    12  C    1.404953   4.486556   3.021331   5.167393   5.682398
    13  H    4.662512   1.086279   2.470197   2.156248   4.299689
    14  H    5.389330   2.157871   4.297551   1.085976   2.487858
    15  C    2.434934   6.084498   4.797728   6.531016   6.524572
    16  H    2.156010   4.797822   4.178936   4.973976   4.812258
    17  C    2.434925   5.841365   4.211223   6.530989   6.911985
    18  H    2.156010   4.211195   2.799899   4.973916   5.713477
    19  C    2.818858   6.530987   4.973919   7.122212   7.280824
    20  H    3.414583   6.911887   5.713227   7.280835   7.118856
    21  H    3.414594   6.524471   4.812127   7.280834   7.747531
    22  H    3.904834   7.600943   5.971847   8.208188   8.324545
                   11         12         13         14         15
    11  C    0.000000
    12  C    2.411119   0.000000
    13  H    5.682240   5.203512   0.000000
    14  H    6.228541   6.228564   2.487812   0.000000
    15  C    1.393934   2.785336   6.911889   7.600958   0.000000
    16  H    1.085932   3.396748   5.713325   5.971873   2.150219
    17  C    2.785320   1.393901   6.524472   7.600945   2.411763
    18  H    3.396725   1.085936   4.812087   5.971845   3.871016
    19  C    2.419198   2.419208   7.280831   8.208188   1.396072
    20  H    2.149897   3.871575   7.747369   8.324557   1.086278
    21  H    3.871558   2.149886   7.118765   8.324579   3.398478
    22  H    3.404029   3.404019   8.324577   9.294164   2.157859
                   16         17         18         19         20
    16  H    0.000000
    17  C    3.870997   0.000000
    18  H    4.296501   2.150234   0.000000
    19  C    3.400569   1.396107   3.400615   0.000000
    20  H    2.470145   3.398500   4.957282   2.156238   0.000000
    21  H    4.957264   1.086278   2.470204   2.156245   4.299683
    22  H    4.297527   2.157871   4.297556   1.085976   2.487844
                   21         22
    21  H    0.000000
    22  H    2.487812   0.000000
 Stoichiometry    C12H10
 Framework group  C1[X(C12H10)]
 Deg. of freedom    60
 Full point group                 C1      NOp   1
 Largest Abelian subgroup         C1      NOp   1
 Largest concise Abelian subgroup C1      NOp   1
                         Standard orientation:                         
 ---------------------------------------------------------------------
 Center     Atomic      Atomic             Coordinates (Angstroms)
 Number     Number       Type             X           Y           Z
 ---------------------------------------------------------------------
      1          6           0       -0.742246    0.000018   -0.000147
      2          6           0       -1.463710   -1.043993   -0.602914
      3          6           0       -1.463661    1.043975    0.602850
      4          6           0       -2.857647   -1.043793   -0.603838
      5          1           0       -0.925086   -1.873706   -1.050918
      6          6           0        0.742247   -0.000006    0.000019
      7          6           0       -2.857559    1.043798    0.603866
      8          1           0       -0.924924    1.873558    1.050971
      9          6           0       -3.561107    0.000013    0.000003
     10          1           0       -3.395134   -1.865282   -1.068881
     11          6           0        1.463680   -1.043970    0.602908
     12          6           0        1.463691    1.044049   -0.602774
     13          1           0       -3.395041    1.865222    1.069032
     14          1           0       -4.647083    0.000019    0.000098
     15          6           0        2.857614   -1.043761    0.603925
     16          1           0        0.925023   -1.873602    1.051024
     17          6           0        2.857592    1.043789   -0.603856
     18          1           0        0.924978    1.873718   -1.050765
     19          6           0        3.561105   -0.000099   -0.000132
     20          1           0        3.395087   -1.865178    1.069110
     21          1           0        3.395101    1.865260   -1.068905
     22          1           0        4.647081   -0.000129   -0.000224
 ---------------------------------------------------------------------
 Rotational constants (GHZ):           2.8585222           0.5320743           0.4865919
 Leave Link  202 at Sat Nov  5 21:33:43 2022, MaxMem= 16106127360 cpu:               1.4 elap:               0.1
 (Enter /opt/ap/G16/B01/g16/l301.exe)
 Standard basis: 6-311++G(d,p) (5D, 7F)
 Ernie: Thresh=  0.10000D-02 Tol=  0.10000D-05 Strict=F.
 There are   346 symmetry adapted cartesian basis functions of A   symmetry.
 There are   334 symmetry adapted basis functions of A   symmetry.
   334 basis functions,   522 primitive gaussians,   346 cartesian basis functions
    41 alpha electrons       41 beta electrons
       nuclear repulsion energy       598.2925205856 Hartrees.
 IExCor= 4639 DFT=T Ex+Corr=wB97XD ExCW=0 ScaHFX=  1.000000
 ScaDFX=  1.000000  1.000000  1.000000  1.000000 ScalE2=  1.000000  1.000000
 IRadAn=      5 IRanWt=     -1 IRanGd=            0 ICorTp=0 IEmpDi=121
 HFx  wShort=  0.000000 wLong=  0.200000 cFull=  0.222036 cShort=  0.000000 cLong=  0.777964
 DFx  wShort=  0.000000 wLong=  0.200000 cFull=  0.000000 cShort=  0.000000 cLong=  1.000000
 NAtoms=   22 NActive=   22 NUniq=   22 SFac= 1.00D+00 NAtFMM=   60 NAOKFM=F Big=F
 Integral buffers will be    131072 words long.
 Raffenetti 2 integral format.
 Two-electron integral symmetry is turned on.
 R6Disp:  Grimme-D2 Dispersion energy=       -0.0120146770 Hartrees.
 Nuclear repulsion after empirical dispersion term =      598.2805059085 Hartrees.
 Leave Link  301 at Sat Nov  5 21:33:43 2022, MaxMem= 16106127360 cpu:               1.2 elap:               0.0
 (Enter /opt/ap/G16/B01/g16/l302.exe)
 NPDir=0 NMtPBC=     1 NCelOv=     1 NCel=       1 NClECP=     1 NCelD=      1
         NCelK=      1 NCelE2=     1 NClLst=     1 CellRange=     0.0.
 One-electron integrals computed using PRISM.
 One-electron integral symmetry used in STVInt
 NBasis=   334 RedAO= T EigKep=  1.97D-06  NBF=   334
 NBsUse=   332 1.00D-06 EigRej=  7.98D-07 NBFU=   332
 Precomputing XC quadrature grid using
 IXCGrd= 4 IRadAn=           5 IRanWt=          -1 IRanGd=           0 AccXCQ= 0.00D+00.
 Generated NRdTot=       0 NPtTot=           0 NUsed=           0 NTot=          32
 NSgBfM=   346   346   346   346   346 MxSgAt=    22 MxSgA2=    22.
 Leave Link  302 at Sat Nov  5 21:33:43 2022, MaxMem= 16106127360 cpu:               7.8 elap:               0.2
 (Enter /opt/ap/G16/B01/g16/l303.exe)
 DipDrv:  MaxL=1.
 Leave Link  303 at Sat Nov  5 21:33:43 2022, MaxMem= 16106127360 cpu:               1.5 elap:               0.1
 (Enter /opt/ap/G16/B01/g16/l401.exe)
 ExpMin= 3.60D-02 ExpMax= 4.56D+03 ExpMxC= 6.82D+02 IAcc=3 IRadAn=         5 AccDes= 0.00D+00
 Harris functional with IExCor= 4639 and IRadAn=       5 diagonalized for initial guess.
 HarFok:  IExCor= 4639 AccDes= 0.00D+00 IRadAn=         5 IDoV= 1 UseB2=F ITyADJ=14
 ICtDFT=  3500011 ScaDFX=  1.000000  1.000000  1.000000  1.000000
 FoFCou: FMM=F IPFlag=           0 FMFlag=      100000 FMFlg1=           0
         NFxFlg=           0 DoJE=T BraDBF=F KetDBF=T FulRan=T
         wScrn=  0.000000 ICntrl=       500 IOpCl=  0 I1Cent=   200000004 NGrid=           0
         NMat0=    1 NMatS0=      1 NMatT0=    0 NMatD0=    1 NMtDS0=    0 NMtDT0=    0
 Petite list used in FoFCou.
 Harris En= -441.938415002388    
 JPrj=0 DoOrth=F DoCkMO=F.
 Leave Link  401 at Sat Nov  5 21:33:44 2022, MaxMem= 16106127360 cpu:              19.8 elap:               0.6
 (Enter /opt/ap/G16/B01/g16/l502.exe)
 Integral symmetry usage will be decided dynamically.
 Closed shell SCF:
 Using DIIS extrapolation, IDIIS=  1040.
 NGot= 16106127360 LenX= 16105873520 LenY= 16105753363
 Requested convergence on RMS density matrix=1.00D-08 within 512 cycles.
 Requested convergence on MAX density matrix=1.00D-06.
 Requested convergence on             energy=1.00D-06.
 No special actions if energy rises.
 Fock matrices will be formed incrementally for  20 cycles.

 Cycle   1  Pass 1  IDiag  1:
 FoFJK:  IHMeth= 1 ICntrl=       0 DoSepK=T KAlg= 0 I1Cent=           0 FoldK=F
 IRaf=         1 NMat=       1 IRICut=       1 DoRegI=T DoRafI=F ISym2E= 0 IDoP0=0 IntGTp=1.
 FoFCou: FMM=F IPFlag=           0 FMFlag=      100000 FMFlg1=           0
         NFxFlg=           0 DoJE=T BraDBF=F KetDBF=F FulRan=T
         wScrn=  0.000000 ICntrl=       500 IOpCl=  0 I1Cent=           0 NGrid=           0
         NMat0=    1 NMatS0=      1 NMatT0=    0 NMatD0=    1 NMtDS0=    0 NMtDT0=    0
 Symmetry not used in FoFCou.
 E= -463.152277494136    
 DIIS: error= 6.32D-02 at cycle   1 NSaved=   1.
 NSaved= 1 IEnMin= 1 EnMin= -463.152277494136     IErMin= 1 ErrMin= 6.32D-02
 ErrMax= 6.32D-02  0.00D+00 EMaxC= 1.00D-01 BMatC= 9.52D-01 BMatP= 9.52D-01
 IDIUse=3 WtCom= 3.68D-01 WtEn= 6.32D-01
 Coeff-Com:  0.100D+01
 Coeff-En:   0.100D+01
 Coeff:      0.100D+01
 Gap=     0.343 Goal=   None    Shift=    0.000
 GapD=    0.343 DampG=1.000 DampE=0.500 DampFc=0.5000 IDamp=-1.
 Damping current iteration by 5.00D-01
 RMSDP=5.86D-02 MaxDP=3.88D+00              OVMax= 4.20D-02

 Cycle   2  Pass 1  IDiag  1:
 RMSU=  5.02D-03    CP:  7.61D-01
 E= -463.201223435038     Delta-E=       -0.048945940902 Rises=F Damp=T
 DIIS: error= 3.02D-02 at cycle   2 NSaved=   2.
 NSaved= 2 IEnMin= 2 EnMin= -463.201223435038     IErMin= 2 ErrMin= 3.02D-02
 ErrMax= 3.02D-02  0.00D+00 EMaxC= 1.00D-01 BMatC= 2.16D-01 BMatP= 9.52D-01
 IDIUse=3 WtCom= 6.98D-01 WtEn= 3.02D-01
 Coeff-Com: -0.883D+00 0.188D+01
 Coeff-En:   0.000D+00 0.100D+01
 Coeff:     -0.616D+00 0.162D+01
 Gap=     0.355 Goal=   None    Shift=    0.000
 RMSDP=2.52D-02 MaxDP=1.53D+00 DE=-4.89D-02 OVMax= 3.76D-02

 Cycle   3  Pass 1  IDiag  1:
 RMSU=  3.80D-03    CP:  5.55D-01  1.15D+00
 E= -463.244793305118     Delta-E=       -0.043569870080 Rises=F Damp=F
 DIIS: error= 5.50D-03 at cycle   3 NSaved=   3.
 NSaved= 3 IEnMin= 3 EnMin= -463.244793305118     IErMin= 3 ErrMin= 5.50D-03
 ErrMax= 5.50D-03  0.00D+00 EMaxC= 1.00D-01 BMatC= 4.78D-03 BMatP= 2.16D-01
 IDIUse=3 WtCom= 9.45D-01 WtEn= 5.50D-02
 Coeff-Com: -0.373D+00 0.793D+00 0.580D+00
 Coeff-En:   0.000D+00 0.000D+00 0.100D+01
 Coeff:     -0.352D+00 0.750D+00 0.603D+00
 Gap=     0.347 Goal=   None    Shift=    0.000
 RMSDP=4.19D-03 MaxDP=3.24D-01 DE=-4.36D-02 OVMax= 2.21D-02

 Cycle   4  Pass 1  IDiag  1:
 RMSU=  1.11D-03    CP:  5.27D-01  1.48D+00  6.78D-01
 E= -463.249059278135     Delta-E=       -0.004265973017 Rises=F Damp=F
 DIIS: error= 1.65D-03 at cycle   4 NSaved=   4.
 NSaved= 4 IEnMin= 4 EnMin= -463.249059278135     IErMin= 4 ErrMin= 1.65D-03
 ErrMax= 1.65D-03  0.00D+00 EMaxC= 1.00D-01 BMatC= 3.00D-04 BMatP= 4.78D-03
 IDIUse=3 WtCom= 9.84D-01 WtEn= 1.65D-02
 Coeff-Com: -0.133D+00 0.285D+00 0.288D+00 0.560D+00
 Coeff-En:   0.000D+00 0.000D+00 0.000D+00 0.100D+01
 Coeff:     -0.131D+00 0.280D+00 0.283D+00 0.567D+00
 Gap=     0.346 Goal=   None    Shift=    0.000
 RMSDP=9.04D-04 MaxDP=4.86D-02 DE=-4.27D-03 OVMax= 5.52D-03

 Cycle   5  Pass 1  IDiag  1:
 RMSU=  3.22D-04    CP:  5.21D-01  1.44D+00  7.70D-01  6.28D-01
 E= -463.249374884738     Delta-E=       -0.000315606603 Rises=F Damp=F
 DIIS: error= 2.63D-04 at cycle   5 NSaved=   5.
 NSaved= 5 IEnMin= 5 EnMin= -463.249374884738     IErMin= 5 ErrMin= 2.63D-04
 ErrMax= 2.63D-04  0.00D+00 EMaxC= 1.00D-01 BMatC= 8.39D-06 BMatP= 3.00D-04
 IDIUse=3 WtCom= 9.97D-01 WtEn= 2.63D-03
 Coeff-Com:  0.274D-01-0.584D-01-0.293D-01 0.117D+00 0.943D+00
 Coeff-En:   0.000D+00 0.000D+00 0.000D+00 0.000D+00 0.100D+01
 Coeff:      0.273D-01-0.583D-01-0.292D-01 0.117D+00 0.943D+00
 Gap=     0.346 Goal=   None    Shift=    0.000
 RMSDP=1.94D-04 MaxDP=1.10D-02 DE=-3.16D-04 OVMax= 1.46D-03

 Cycle   6  Pass 1  IDiag  1:
 RMSU=  6.06D-05    CP:  5.21D-01  1.42D+00  7.95D-01  7.18D-01  1.28D+00
 E= -463.249386158268     Delta-E=       -0.000011273530 Rises=F Damp=F
 DIIS: error= 5.89D-05 at cycle   6 NSaved=   6.
 NSaved= 6 IEnMin= 6 EnMin= -463.249386158268     IErMin= 6 ErrMin= 5.89D-05
 ErrMax= 5.89D-05  0.00D+00 EMaxC= 1.00D-01 BMatC= 5.19D-07 BMatP= 8.39D-06
 IDIUse=1 WtCom= 1.00D+00 WtEn= 0.00D+00
 Coeff-Com:  0.125D-01-0.268D-01-0.159D-01 0.301D-01 0.343D+00 0.657D+00
 Coeff:      0.125D-01-0.268D-01-0.159D-01 0.301D-01 0.343D+00 0.657D+00
 Gap=     0.346 Goal=   None    Shift=    0.000
 RMSDP=5.89D-05 MaxDP=4.31D-03 DE=-1.13D-05 OVMax= 2.40D-04

 Cycle   7  Pass 1  IDiag  1:
 RMSU=  1.20D-05    CP:  5.22D-01  1.42D+00  8.01D-01  7.19D-01  1.34D+00
                    CP:  1.16D+00
 E= -463.249386749935     Delta-E=       -0.000000591667 Rises=F Damp=F
 DIIS: error= 1.88D-05 at cycle   7 NSaved=   7.
 NSaved= 7 IEnMin= 7 EnMin= -463.249386749935     IErMin= 7 ErrMin= 1.88D-05
 ErrMax= 1.88D-05  0.00D+00 EMaxC= 1.00D-01 BMatC= 5.23D-08 BMatP= 5.19D-07
 IDIUse=1 WtCom= 1.00D+00 WtEn= 0.00D+00
 Coeff-Com: -0.217D-02 0.466D-02 0.200D-02-0.173D-01-0.104D+00 0.155D+00
 Coeff-Com:  0.962D+00
 Coeff:     -0.217D-02 0.466D-02 0.200D-02-0.173D-01-0.104D+00 0.155D+00
 Coeff:      0.962D+00
 Gap=     0.347 Goal=   None    Shift=    0.000
 RMSDP=3.22D-05 MaxDP=2.21D-03 DE=-5.92D-07 OVMax= 1.82D-04

 Cycle   8  Pass 1  IDiag  1:
 RMSU=  3.79D-06    CP:  5.22D-01  1.42D+00  8.04D-01  7.21D-01  1.40D+00
                    CP:  1.35D+00  1.25D+00
 E= -463.249386841732     Delta-E=       -0.000000091797 Rises=F Damp=F
 DIIS: error= 3.62D-06 at cycle   8 NSaved=   8.
 NSaved= 8 IEnMin= 8 EnMin= -463.249386841732     IErMin= 8 ErrMin= 3.62D-06
 ErrMax= 3.62D-06  0.00D+00 EMaxC= 1.00D-01 BMatC= 1.66D-09 BMatP= 5.23D-08
 IDIUse=1 WtCom= 1.00D+00 WtEn= 0.00D+00
 Coeff-Com: -0.455D-03 0.972D-03 0.637D-03-0.215D-02-0.127D-01-0.491D-02
 Coeff-Com:  0.704D-03 0.102D+01
 Coeff:     -0.455D-03 0.972D-03 0.637D-03-0.215D-02-0.127D-01-0.491D-02
 Coeff:      0.704D-03 0.102D+01
 Gap=     0.347 Goal=   None    Shift=    0.000
 RMSDP=6.75D-06 MaxDP=5.35D-04 DE=-9.18D-08 OVMax= 3.96D-05

 Cycle   9  Pass 1  IDiag  1:
 RMSU=  5.40D-07    CP:  5.22D-01  1.42D+00  8.04D-01  7.21D-01  1.40D+00
                    CP:  1.38D+00  1.34D+00  1.30D+00
 E= -463.249386845954     Delta-E=       -0.000000004222 Rises=F Damp=F
 DIIS: error= 1.96D-06 at cycle   9 NSaved=   9.
 NSaved= 9 IEnMin= 9 EnMin= -463.249386845954     IErMin= 9 ErrMin= 1.96D-06
 ErrMax= 1.96D-06  0.00D+00 EMaxC= 1.00D-01 BMatC= 3.38D-10 BMatP= 1.66D-09
 IDIUse=1 WtCom= 1.00D+00 WtEn= 0.00D+00
 Coeff-Com:  0.176D-03-0.380D-03-0.597D-04 0.187D-02 0.119D-01-0.209D-01
 Coeff-Com: -0.152D+00 0.339D+00 0.820D+00
 Coeff:      0.176D-03-0.380D-03-0.597D-04 0.187D-02 0.119D-01-0.209D-01
 Coeff:     -0.152D+00 0.339D+00 0.820D+00
 Gap=     0.347 Goal=   None    Shift=    0.000
 RMSDP=1.59D-06 MaxDP=1.13D-04 DE=-4.22D-09 OVMax= 2.02D-05

 Cycle  10  Pass 1  IDiag  1:
 RMSU=  2.05D-07    CP:  5.22D-01  1.42D+00  8.04D-01  7.21D-01  1.40D+00
                    CP:  1.39D+00  1.36D+00  1.41D+00  1.32D+00
 E= -463.249386846715     Delta-E=       -0.000000000761 Rises=F Damp=F
 DIIS: error= 4.49D-07 at cycle  10 NSaved=  10.
 NSaved=10 IEnMin=10 EnMin= -463.249386846715     IErMin=10 ErrMin= 4.49D-07
 ErrMax= 4.49D-07  0.00D+00 EMaxC= 1.00D-01 BMatC= 3.79D-11 BMatP= 3.38D-10
 IDIUse=1 WtCom= 1.00D+00 WtEn= 0.00D+00
 Coeff-Com:  0.681D-04-0.146D-03-0.564D-04 0.519D-03 0.283D-02-0.162D-02
 Coeff-Com: -0.262D-01-0.735D-01 0.193D+00 0.905D+00
 Coeff:      0.681D-04-0.146D-03-0.564D-04 0.519D-03 0.283D-02-0.162D-02
 Coeff:     -0.262D-01-0.735D-01 0.193D+00 0.905D+00
 Gap=     0.347 Goal=   None    Shift=    0.000
 RMSDP=4.52D-07 MaxDP=3.21D-05 DE=-7.61D-10 OVMax= 4.96D-06

 Cycle  11  Pass 1  IDiag  1:
 RMSU=  6.70D-08    CP:  5.22D-01  1.42D+00  8.04D-01  7.21D-01  1.40D+00
                    CP:  1.39D+00  1.36D+00  1.42D+00  1.49D+00  1.21D+00
 E= -463.249386846792     Delta-E=       -0.000000000077 Rises=F Damp=F
 DIIS: error= 1.02D-07 at cycle  11 NSaved=  11.
 NSaved=11 IEnMin=11 EnMin= -463.249386846792     IErMin=11 ErrMin= 1.02D-07
 ErrMax= 1.02D-07  0.00D+00 EMaxC= 1.00D-01 BMatC= 1.47D-12 BMatP= 3.79D-11
 IDIUse=1 WtCom= 1.00D+00 WtEn= 0.00D+00
 Coeff-Com: -0.194D-04 0.421D-04 0.149D-04-0.199D-03-0.128D-02 0.238D-02
 Coeff-Com:  0.144D-01-0.245D-01-0.506D-01-0.147D+00 0.121D+01
 Coeff:     -0.194D-04 0.421D-04 0.149D-04-0.199D-03-0.128D-02 0.238D-02
 Coeff:      0.144D-01-0.245D-01-0.506D-01-0.147D+00 0.121D+01
 Gap=     0.347 Goal=   None    Shift=    0.000
 RMSDP=2.86D-07 MaxDP=2.14D-05 DE=-7.71D-11 OVMax= 1.20D-06

 Cycle  12  Pass 1  IDiag  1:
 RMSU=  2.02D-08    CP:  5.22D-01  1.42D+00  8.04D-01  7.21D-01  1.40D+00
                    CP:  1.39D+00  1.36D+00  1.42D+00  1.56D+00  1.34D+00
                    CP:  1.30D+00
 E= -463.249386846793     Delta-E=       -0.000000000001 Rises=F Damp=F
 DIIS: error= 2.20D-08 at cycle  12 NSaved=  12.
 NSaved=12 IEnMin=12 EnMin= -463.249386846793     IErMin=12 ErrMin= 2.20D-08
 ErrMax= 2.20D-08  0.00D+00 EMaxC= 1.00D-01 BMatC= 8.28D-14 BMatP= 1.47D-12
 IDIUse=1 WtCom= 1.00D+00 WtEn= 0.00D+00
 Coeff-Com: -0.167D-05 0.352D-05 0.237D-05-0.809D-05-0.351D-04-0.388D-04
 Coeff-Com: -0.418D-04 0.465D-02-0.312D-03-0.505D-01-0.978D-01 0.114D+01
 Coeff:     -0.167D-05 0.352D-05 0.237D-05-0.809D-05-0.351D-04-0.388D-04
 Coeff:     -0.418D-04 0.465D-02-0.312D-03-0.505D-01-0.978D-01 0.114D+01
 Gap=     0.347 Goal=   None    Shift=    0.000
 RMSDP=5.70D-08 MaxDP=4.06D-06 DE=-1.14D-12 OVMax= 3.32D-07

 Cycle  13  Pass 1  IDiag  1:
 RMSU=  5.52D-09    CP:  5.22D-01  1.42D+00  8.04D-01  7.21D-01  1.40D+00
                    CP:  1.39D+00  1.36D+00  1.42D+00  1.56D+00  1.35D+00
                    CP:  1.36D+00  1.34D+00
 E= -463.249386846790     Delta-E=        0.000000000003 Rises=F Damp=F
 DIIS: error= 4.91D-09 at cycle  13 NSaved=  13.
 NSaved=13 IEnMin=12 EnMin= -463.249386846793     IErMin=13 ErrMin= 4.91D-09
 ErrMax= 4.91D-09  0.00D+00 EMaxC= 1.00D-01 BMatC= 3.07D-15 BMatP= 8.28D-14
 IDIUse=1 WtCom= 1.00D+00 WtEn= 0.00D+00
 Coeff-Com:  0.728D-06-0.158D-05-0.629D-06 0.782D-05 0.533D-04-0.977D-04
 Coeff-Com: -0.648D-03 0.141D-02 0.305D-02 0.103D-02-0.635D-01 0.928D-01
 Coeff-Com:  0.966D+00
 Coeff:      0.728D-06-0.158D-05-0.629D-06 0.782D-05 0.533D-04-0.977D-04
 Coeff:     -0.648D-03 0.141D-02 0.305D-02 0.103D-02-0.635D-01 0.928D-01
 Coeff:      0.966D+00
 Gap=     0.347 Goal=   None    Shift=    0.000
 RMSDP=4.87D-09 MaxDP=3.48D-07 DE= 2.73D-12 OVMax= 6.53D-08

 SCF Done:  E(RwB97XD) =  -463.249386847     A.U. after   13 cycles
            NFock= 13  Conv=0.49D-08     -V/T= 2.0049
 KE= 4.610083442932D+02 PE=-2.270860813915D+03 EE= 7.483225768660D+02
 Leave Link  502 at Sat Nov  5 21:34:07 2022, MaxMem= 16106127360 cpu:             743.2 elap:              23.3
 (Enter /opt/ap/G16/B01/g16/l601.exe)
 Copying SCF densities to generalized density rwf, IOpCl= 0 IROHF=0.

 **********************************************************************

            Population analysis using the SCF Density.

 **********************************************************************

 Orbital symmetries:
       Occupied  (A) (A) (A) (A) (A) (A) (A) (A) (A) (A) (A) (A)
                 (A) (A) (A) (A) (A) (A) (A) (A) (A) (A) (A) (A)
                 (A) (A) (A) (A) (A) (A) (A) (A) (A) (A) (A) (A)
                 (A) (A) (A) (A) (A)
       Virtual   (A) (A) (A) (A) (A) (A) (A) (A) (A) (A) (A) (A)
                 (A) (A) (A) (A) (A) (A) (A) (A) (A) (A) (A) (A)
                 (A) (A) (A) (A) (A) (A) (A) (A) (A) (A) (A) (A)
                 (A) (A) (A) (A) (A) (A) (A) (A) (A) (A) (A) (A)
                 (A) (A) (A) (A) (A) (A) (A) (A) (A) (A) (A) (A)
                 (A) (A) (A) (A) (A) (A) (A) (A) (A) (A) (A) (A)
                 (A) (A) (A) (A) (A) (A) (A) (A) (A) (A) (A) (A)
                 (A) (A) (A) (A) (A) (A) (A) (A) (A) (A) (A) (A)
                 (A) (A) (A) (A) (A) (A) (A) (A) (A) (A) (A) (A)
                 (A) (A) (A) (A) (A) (A) (A) (A) (A) (A) (A) (A)
                 (A) (A) (A) (A) (A) (A) (A) (A) (A) (A) (A) (A)
                 (A) (A) (A) (A) (A) (A) (A) (A) (A) (A) (A) (A)
                 (A) (A) (A) (A) (A) (A) (A) (A) (A) (A) (A) (A)
                 (A) (A) (A) (A) (A) (A) (A) (A) (A) (A) (A) (A)
                 (A) (A) (A) (A) (A) (A) (A) (A) (A) (A) (A) (A)
                 (A) (A) (A) (A) (A) (A) (A) (A) (A) (A) (A) (A)
                 (A) (A) (A) (A) (A) (A) (A) (A) (A) (A) (A) (A)
                 (A) (A) (A) (A) (A) (A) (A) (A) (A) (A) (A) (A)
                 (A) (A) (A) (A) (A) (A) (A) (A) (A) (A) (A) (A)
                 (A) (A) (A) (A) (A) (A) (A) (A) (A) (A) (A) (A)
                 (A) (A) (A) (A) (A) (A) (A) (A) (A) (A) (A) (A)
                 (A) (A) (A) (A) (A) (A) (A) (A) (A) (A) (A) (A)
                 (A) (A) (A) (A) (A) (A) (A) (A) (A) (A) (A) (A)
                 (A) (A) (A) (A) (A) (A) (A) (A) (A) (A) (A) (A)
                 (A) (A) (A)
 The electronic state is 1-A.
 Alpha  occ. eigenvalues --  -10.30446 -10.30416 -10.29338 -10.29338 -10.29327
 Alpha  occ. eigenvalues --  -10.29327 -10.29260 -10.29260 -10.29252 -10.29252
 Alpha  occ. eigenvalues --  -10.29220 -10.29220  -0.97548  -0.95313  -0.88188
 Alpha  occ. eigenvalues --   -0.85243  -0.84774  -0.82385  -0.72334  -0.71198
 Alpha  occ. eigenvalues --   -0.69417  -0.67492  -0.62591  -0.59505  -0.55962
 Alpha  occ. eigenvalues --   -0.55320  -0.53607  -0.53398  -0.51143  -0.50852
 Alpha  occ. eigenvalues --   -0.50815  -0.46622  -0.45469  -0.45384  -0.43318
 Alpha  occ. eigenvalues --   -0.42417  -0.42021  -0.34795  -0.33651  -0.33267
 Alpha  occ. eigenvalues --   -0.31260
 Alpha virt. eigenvalues --    0.03393   0.03866   0.04433   0.04568   0.04955
 Alpha virt. eigenvalues --    0.05727   0.05748   0.05964   0.06919   0.07115
 Alpha virt. eigenvalues --    0.07453   0.07680   0.09273   0.09357   0.12446
 Alpha virt. eigenvalues --    0.12728   0.12837   0.13321   0.15110   0.15356
 Alpha virt. eigenvalues --    0.15526   0.15810   0.16018   0.16408   0.16951
 Alpha virt. eigenvalues --    0.17432   0.17473   0.17714   0.17760   0.17972
 Alpha virt. eigenvalues --    0.18436   0.18672   0.18893   0.19517   0.19629
 Alpha virt. eigenvalues --    0.20240   0.20688   0.22156   0.22223   0.22302
 Alpha virt. eigenvalues --    0.22629   0.22816   0.23789   0.23830   0.25334
 Alpha virt. eigenvalues --    0.25842   0.26350   0.26506   0.26877   0.27438
 Alpha virt. eigenvalues --    0.27598   0.28586   0.28590   0.29349   0.30422
 Alpha virt. eigenvalues --    0.30912   0.31382   0.31824   0.32444   0.32503
 Alpha virt. eigenvalues --    0.33593   0.33817   0.35021   0.35082   0.35340
 Alpha virt. eigenvalues --    0.35445   0.36053   0.36283   0.36435   0.36747
 Alpha virt. eigenvalues --    0.38095   0.38452   0.38982   0.41018   0.42827
 Alpha virt. eigenvalues --    0.43241   0.43294   0.43367   0.45698   0.46633
 Alpha virt. eigenvalues --    0.48035   0.55892   0.58440   0.61113   0.61205
 Alpha virt. eigenvalues --    0.61640   0.61657   0.62051   0.62745   0.63476
 Alpha virt. eigenvalues --    0.63896   0.64133   0.64483   0.65352   0.65657
 Alpha virt. eigenvalues --    0.65726   0.66899   0.68467   0.68655   0.71085
 Alpha virt. eigenvalues --    0.71272   0.72190   0.72397   0.73955   0.74698
 Alpha virt. eigenvalues --    0.78132   0.78679   0.78957   0.79310   0.80041
 Alpha virt. eigenvalues --    0.80305   0.81096   0.81426   0.82092   0.82579
 Alpha virt. eigenvalues --    0.83082   0.85413   0.86194   0.88232   0.89607
 Alpha virt. eigenvalues --    0.90379   0.91899   0.93436   0.93738   0.93744
 Alpha virt. eigenvalues --    0.95252   0.96478   0.96563   0.96945   0.98455
 Alpha virt. eigenvalues --    0.99463   1.00900   1.02106   1.02287   1.03339
 Alpha virt. eigenvalues --    1.04035   1.07198   1.08925   1.11136   1.11173
 Alpha virt. eigenvalues --    1.11634   1.13543   1.14043   1.16407   1.17053
 Alpha virt. eigenvalues --    1.18016   1.19496   1.23239   1.24166   1.24232
 Alpha virt. eigenvalues --    1.25710   1.38113   1.40792   1.41367   1.43461
 Alpha virt. eigenvalues --    1.51531   1.57748   1.58433   1.59553   1.59644
 Alpha virt. eigenvalues --    1.61134   1.61917   1.61993   1.63049   1.65221
 Alpha virt. eigenvalues --    1.65517   1.65792   1.66768   1.69951   1.71981
 Alpha virt. eigenvalues --    1.73459   1.74542   1.74915   1.74934   1.75660
 Alpha virt. eigenvalues --    1.79665   1.82609   1.82701   1.84165   1.86061
 Alpha virt. eigenvalues --    1.86193   1.87736   1.88802   1.91948   1.92254
 Alpha virt. eigenvalues --    1.93072   1.98598   1.99988   2.00807   2.01268
 Alpha virt. eigenvalues --    2.02845   2.03752   2.04159   2.04461   2.04848
 Alpha virt. eigenvalues --    2.05911   2.06882   2.08630   2.10505   2.10811
 Alpha virt. eigenvalues --    2.10871   2.14690   2.16704   2.16925   2.19578
 Alpha virt. eigenvalues --    2.20824   2.31175   2.34871   2.35523   2.40546
 Alpha virt. eigenvalues --    2.45629   2.51126   2.52066   2.52813   2.52894
 Alpha virt. eigenvalues --    2.55598   2.55712   2.56112   2.57584   2.62886
 Alpha virt. eigenvalues --    2.70713   2.73487   2.74568   2.75198   2.75466
 Alpha virt. eigenvalues --    2.79428   2.79576   2.80107   2.80373   2.81823
 Alpha virt. eigenvalues --    2.82742   2.82925   2.84149   2.85769   2.87725
 Alpha virt. eigenvalues --    2.87966   2.89328   2.89464   2.91410   2.91859
 Alpha virt. eigenvalues --    2.92201   2.92409   2.97324   2.98274   3.00392
 Alpha virt. eigenvalues --    3.01767   3.03923   3.04126   3.05286   3.11711
 Alpha virt. eigenvalues --    3.15231   3.19119   3.21915   3.26962   3.29642
 Alpha virt. eigenvalues --    3.33477   3.44050   3.46554   3.47862   3.48818
 Alpha virt. eigenvalues --    3.58547   3.60652   3.63153   3.63790   3.68328
 Alpha virt. eigenvalues --    3.73430   3.75231   3.92149   4.08600   4.09990
 Alpha virt. eigenvalues --    4.13470   4.14637   4.24447   4.25189   4.25238
 Alpha virt. eigenvalues --    4.26757   4.51914   4.93342   4.95303  23.70857
 Alpha virt. eigenvalues --   23.85102  24.06916  24.09215  24.09515  24.11055
 Alpha virt. eigenvalues --   24.17497  24.22007  24.22175  24.22570  24.30808
 Alpha virt. eigenvalues --   24.32260
          Condensed to atoms (all electrons):
               1          2          3          4          5          6
     1  C   18.696972   0.659610   0.659045  -1.838918   0.077821  -6.325065
     2  C    0.659610  13.860472  -4.316761  -0.173651   0.429820  -3.241830
     3  C    0.659045  -4.316761  13.855493  -1.082587   0.046950  -3.236824
     4  C   -1.838918  -0.173651  -1.082587   6.784150  -0.090490   1.440985
     5  H    0.077821   0.429820   0.046950  -0.090490   0.464787  -0.093481
     6  C   -6.325065  -3.241830  -3.236824   1.440985  -0.093481  18.697857
     7  C   -1.838540  -1.081292  -0.172835   0.302393  -0.020467   1.439448
     8  H    0.077749   0.046968   0.429720  -0.020485   0.000768  -0.093338
     9  C   -0.141400   0.649947   0.649502  -0.023903   0.025745  -1.318520
    10  H    0.032610  -0.116203  -0.022080   0.442101  -0.011232   0.050846
    11  C   -3.241173   0.647167  -1.158882   0.441787  -0.020827   0.659558
    12  C   -3.236518  -1.158887   0.648906   0.107924  -0.043206   0.658885
    13  H    0.032570  -0.022090  -0.116082   0.023546  -0.000361   0.050837
    14  H    0.027945   0.019763   0.019777  -0.055382   0.000725  -0.035038
    15  C    1.440950   0.441377   0.108454   0.002090   0.016141  -1.839121
    16  H   -0.093439  -0.020819  -0.043237   0.016133   0.000412   0.077803
    17  C    1.438985   0.107871   0.441403  -0.099141   0.022474  -1.838351
    18  H   -0.093326  -0.043213  -0.020769   0.022487  -0.002863   0.077696
    19  C   -1.318173  -0.138584  -0.138663   0.049671  -0.016515  -0.141264
    20  H    0.050846  -0.000844   0.008802  -0.001300   0.000574   0.032627
    21  H    0.050814   0.008780  -0.000822  -0.000956   0.000627   0.032570
    22  H   -0.035034  -0.004158  -0.004181   0.001341  -0.000482   0.027948
               7          8          9         10         11         12
     1  C   -1.838540   0.077749  -0.141400   0.032610  -3.241173  -3.236518
     2  C   -1.081292   0.046968   0.649947  -0.116203   0.647167  -1.158887
     3  C   -0.172835   0.429720   0.649502  -0.022080  -1.158882   0.648906
     4  C    0.302393  -0.020485  -0.023903   0.442101   0.441787   0.107924
     5  H   -0.020467   0.000768   0.025745  -0.011232  -0.020827  -0.043206
     6  C    1.439448  -0.093338  -1.318520   0.050846   0.659558   0.658885
     7  C    6.782950  -0.090438  -0.023496   0.023525   0.108235   0.441154
     8  H   -0.090438   0.464774   0.025741  -0.000362  -0.043200  -0.020808
     9  C   -0.023496   0.025741   6.523216  -0.090441  -0.138823  -0.138384
    10  H    0.023525  -0.000362  -0.090441   0.479559  -0.000818   0.008780
    11  C    0.108235  -0.043200  -0.138823  -0.000818  13.862108  -4.317717
    12  C    0.441154  -0.020808  -0.138384   0.008780  -4.317717  13.854599
    13  H    0.442038  -0.011230  -0.090459   0.000710   0.008793  -0.000838
    14  H   -0.055390   0.000726   0.423051  -0.008795  -0.004176  -0.004161
    15  C   -0.099065   0.022497   0.049624  -0.001295  -0.175144  -1.080885
    16  H    0.022477  -0.002863  -0.016512   0.000573   0.429893   0.046886
    17  C    0.002389   0.016081   0.049587  -0.000955  -1.081986  -0.171424
    18  H    0.016099   0.000416  -0.016511   0.000627   0.046936   0.429702
    19  C    0.049524  -0.016509  -0.028265   0.000298   0.650725   0.648176
    20  H   -0.000952   0.000627   0.000298   0.000062  -0.116237  -0.022031
    21  H   -0.001289   0.000573   0.000297   0.000005  -0.022092  -0.116044
    22  H    0.001335  -0.000482  -0.000668   0.000010   0.019805   0.019723
              13         14         15         16         17         18
     1  C    0.032570   0.027945   1.440950  -0.093439   1.438985  -0.093326
     2  C   -0.022090   0.019763   0.441377  -0.020819   0.107871  -0.043213
     3  C   -0.116082   0.019777   0.108454  -0.043237   0.441403  -0.020769
     4  C    0.023546  -0.055382   0.002090   0.016133  -0.099141   0.022487
     5  H   -0.000361   0.000725   0.016141   0.000412   0.022474  -0.002863
     6  C    0.050837  -0.035038  -1.839121   0.077803  -1.838351   0.077696
     7  C    0.442038  -0.055390  -0.099065   0.022477   0.002389   0.016099
     8  H   -0.011230   0.000726   0.022497  -0.002863   0.016081   0.000416
     9  C   -0.090459   0.423051   0.049624  -0.016512   0.049587  -0.016511
    10  H    0.000710  -0.008795  -0.001295   0.000573  -0.000955   0.000627
    11  C    0.008793  -0.004176  -0.175144   0.429893  -1.081986   0.046936
    12  C   -0.000838  -0.004161  -1.080885   0.046886  -0.171424   0.429702
    13  H    0.479559  -0.008796  -0.000956   0.000627  -0.001293   0.000573
    14  H   -0.008796   0.472511   0.001338  -0.000482   0.001337  -0.000482
    15  C   -0.000956   0.001338   6.784235  -0.090520   0.302205  -0.020464
    16  H    0.000627  -0.000482  -0.090520   0.464786  -0.020468   0.000767
    17  C   -0.001293   0.001337   0.302205  -0.020468   6.782562  -0.090377
    18  H    0.000573  -0.000482  -0.020464   0.000767  -0.090377   0.464772
    19  C    0.000297  -0.000667  -0.023937   0.025763  -0.023127   0.025720
    20  H    0.000005   0.000010   0.442104  -0.011235   0.023515  -0.000361
    21  H    0.000062   0.000010   0.023531  -0.000362   0.442012  -0.011228
    22  H    0.000010  -0.000011  -0.055416   0.000727  -0.055360   0.000725
              19         20         21         22
     1  C   -1.318173   0.050846   0.050814  -0.035034
     2  C   -0.138584  -0.000844   0.008780  -0.004158
     3  C   -0.138663   0.008802  -0.000822  -0.004181
     4  C    0.049671  -0.001300  -0.000956   0.001341
     5  H   -0.016515   0.000574   0.000627  -0.000482
     6  C   -0.141264   0.032627   0.032570   0.027948
     7  C    0.049524  -0.000952  -0.001289   0.001335
     8  H   -0.016509   0.000627   0.000573  -0.000482
     9  C   -0.028265   0.000298   0.000297  -0.000668
    10  H    0.000298   0.000062   0.000005   0.000010
    11  C    0.650725  -0.116237  -0.022092   0.019805
    12  C    0.648176  -0.022031  -0.116044   0.019723
    13  H    0.000297   0.000005   0.000062   0.000010
    14  H   -0.000667   0.000010   0.000010  -0.000011
    15  C   -0.023937   0.442104   0.023531  -0.055416
    16  H    0.025763  -0.011235  -0.000362   0.000727
    17  C   -0.023127   0.023515   0.442012  -0.055360
    18  H    0.025720  -0.000361  -0.011228   0.000725
    19  C    6.522937  -0.090458  -0.090435   0.423061
    20  H   -0.090458   0.479559   0.000710  -0.008797
    21  H   -0.090435   0.000710   0.479557  -0.008795
    22  H    0.423061  -0.008797  -0.008795   0.472513
 Mulliken charges:
               1
     1  C    0.915670
     2  C   -0.553444
     3  C   -0.554332
     4  C   -0.247796
     5  H    0.213080
     6  C    0.915771
     7  C   -0.247803
     8  H    0.213073
     9  C   -0.369626
    10  H    0.212474
    11  C   -0.553932
    12  C   -0.553832
    13  H    0.212477
    14  H    0.206185
    15  C   -0.247745
    16  H    0.213088
    17  C   -0.247941
    18  H    0.213074
    19  C   -0.369577
    20  H    0.212477
    21  H    0.212473
    22  H    0.206185
 Sum of Mulliken charges =  -0.00000
 Mulliken charges with hydrogens summed into heavy atoms:
               1
     1  C    0.915670
     2  C   -0.340364
     3  C   -0.341259
     4  C   -0.035322
     6  C    0.915771
     7  C   -0.035326
     9  C   -0.163441
    11  C   -0.340844
    12  C   -0.340758
    15  C   -0.035267
    17  C   -0.035468
    19  C   -0.163392
 Electronic spatial extent (au):  <R**2>=           2312.0031
 Charge=             -0.0000 electrons
 Dipole moment (field-independent basis, Debye):
    X=              0.0000    Y=             -0.0001    Z=              0.0003  Tot=              0.0004
 Quadrupole moment (field-independent basis, Debye-Ang):
   XX=            -61.7225   YY=            -65.1423   ZZ=            -73.8703
   XY=              0.0004   XZ=             -0.0005   YZ=             -0.0000
 Traceless Quadrupole moment (field-independent basis, Debye-Ang):
   XX=              5.1892   YY=              1.7694   ZZ=             -6.9586
   XY=              0.0004   XZ=             -0.0005   YZ=             -0.0000
 Octapole moment (field-independent basis, Debye-Ang**2):
  XXX=              0.0005  YYY=             -0.0008  ZZZ=              0.0026  XYY=             -0.0005
  XXY=             -0.0018  XXZ=              0.0014  XZZ=              0.0005  YZZ=             -0.0008
  YYZ=              0.0009  XYZ=            -16.4475
 Hexadecapole moment (field-independent basis, Debye-Ang**3):
 XXXX=          -2301.8158 YYYY=           -450.2639 ZZZZ=           -229.1071 XXXY=              0.0000
 XXXZ=             -0.0209 YYYX=              0.0090 YYYZ=             -0.0000 ZZZX=              0.0007
 ZZZY=             -0.0001 XXYY=           -480.0122 XXZZ=           -496.2896 YYZZ=           -102.2490
 XXYZ=             -0.0012 YYXZ=              0.0019 ZZXY=             -0.0043
 N-N= 5.982805059085D+02 E-N=-2.270860813595D+03  KE= 4.610083442932D+02
 No NMR shielding tensors so no spin-rotation constants.
 Leave Link  601 at Sat Nov  5 21:34:07 2022, MaxMem= 16106127360 cpu:               4.4 elap:               0.2
 (Enter /opt/ap/G16/B01/g16/l9999.exe)
 1\1\GINC-N05\SP\RwB97XD\6-311++G(d,p)\C12H10\ROOT\05-Nov-2022\0\\#P wB
 97XD/6-311++G(d,p) scf=maxcycle=512\\_conf006.gjf nmol_natom 1_22\\0,1
 \C\C,1,1.40491871\C,1,1.40495292,2,118.20503621\C,2,1.3939373,1,120.91
 08946,3,0.05365643,0\H,2,1.08593095,1,119.3452094,3,-178.3624307,0\C,1
 ,1.48449301,2,120.90144423,4,-179.96388019,0\C,3,1.39389842,1,120.9105
 0598,2,0.03587687,0\H,3,1.08593608,1,119.34159615,2,-178.38281524,0\C,
 4,1.39606958,2,120.24555868,1,-0.09283196,0\H,4,1.08627898,2,119.66792
 041,1,-179.51486187,0\C,6,1.40492034,1,120.90156908,2,-60.,0\C,6,1.404
 95329,1,120.89324856,2,120.,0\H,7,1.08627928,3,119.67027175,1,-179.512
 58183,0\H,9,1.08597601,4,120.2602535,2,-179.95233103,0\C,11,1.39393437
 ,6,120.91099656,1,-179.95869964,0\H,11,1.08593173,6,119.34475907,1,1.6
 1891886,0\C,12,1.39390147,6,120.91022615,1,-179.94297913,0\H,12,1.0859
 3608,6,119.34175044,1,1.63241608,0\C,15,1.39607161,11,120.24535737,6,-
 0.10315482,0\H,15,1.08627786,11,119.66861247,6,-179.51844254,0\H,17,1.
 08627825,12,119.6702798,6,-179.51590091,0\H,19,1.08597601,15,120.25988
 597,11,-179.94731581,0\\Version=ES64L-G16RevB.01\State=1-A\HF=-463.249
 3868\RMSD=4.869e-09\Dipole=0.0000049,-0.0001391,-0.0000284\Quadrupole=
 2.7591591,-3.5506932,0.7915341,1.4436798,1.8356583,-2.4109807\PG=C01 [
 X(C12H10)]\\@


 GARBAGE IN, GARBAGE OUT
 Job cpu time:       0 days  0 hours 13 minutes  7.9 seconds.
 Elapsed time:       0 days  0 hours  0 minutes 24.8 seconds.
 File lengths (MBytes):  RWF=     62 Int=      0 D2E=      0 Chk=      8 Scr=      1
 Normal termination of Gaussian 16 at Sat Nov  5 21:34:08 2022.
