 Entering Gaussian System, Link 0=g16
 Input=_conf024.gjf
 Output=_conf024.log
 Initial command:
 /opt/ap/G16/B01/g16/l1.exe "/tmp2/scr/Gau-14586.inp" -scrdir="/tmp2/scr/"
 Entering Link 1 = /opt/ap/G16/B01/g16/l1.exe PID=     14587.
  
 Copyright (c) 1988-2017, Gaussian, Inc.  All Rights Reserved.
  
 This is part of the Gaussian(R) 16 program.  It is based on
 the Gaussian(R) 09 system (copyright 2009, Gaussian, Inc.),
 the Gaussian(R) 03 system (copyright 2003, Gaussian, Inc.),
 the Gaussian(R) 98 system (copyright 1998, Gaussian, Inc.),
 the Gaussian(R) 94 system (copyright 1995, Gaussian, Inc.),
 the Gaussian 92(TM) system (copyright 1992, Gaussian, Inc.),
 the Gaussian 90(TM) system (copyright 1990, Gaussian, Inc.),
 the Gaussian 88(TM) system (copyright 1988, Gaussian, Inc.),
 the Gaussian 86(TM) system (copyright 1986, Carnegie Mellon
 University), and the Gaussian 82(TM) system (copyright 1983,
 Carnegie Mellon University). Gaussian is a federally registered
 trademark of Gaussian, Inc.
  
 This software contains proprietary and confidential information,
 including trade secrets, belonging to Gaussian, Inc.
  
 This software is provided under written license and may be
 used, copied, transmitted, or stored only in accord with that
 written license.
  
 The following legend is applicable only to US Government
 contracts under FAR:
  
                    RESTRICTED RIGHTS LEGEND
  
 Use, reproduction and disclosure by the US Government is
 subject to restrictions as set forth in subparagraphs (a)
 and (c) of the Commercial Computer Software - Restricted
 Rights clause in FAR 52.227-19.
  
 Gaussian, Inc.
 340 Quinnipiac St., Bldg. 40, Wallingford CT 06492
  
  
 ---------------------------------------------------------------
 Warning -- This program may not be used in any manner that
 competes with the business of Gaussian, Inc. or will provide
 assistance to any competitor of Gaussian, Inc.  The licensee
 of this program is prohibited from giving any competitor of
 Gaussian, Inc. access to this program.  By using this program,
 the user acknowledges that Gaussian, Inc. is engaged in the
 business of creating and licensing software in the field of
 computational chemistry and represents and warrants to the
 licensee that it is not a competitor of Gaussian, Inc. and that
 it will not use this program in any manner prohibited above.
 ---------------------------------------------------------------
  

 Cite this work as:
 Gaussian 16, Revision B.01,
 M. J. Frisch, G. W. Trucks, H. B. Schlegel, G. E. Scuseria, 
 M. A. Robb, J. R. Cheeseman, G. Scalmani, V. Barone, 
 G. A. Petersson, H. Nakatsuji, X. Li, M. Caricato, A. V. Marenich, 
 J. Bloino, B. G. Janesko, R. Gomperts, B. Mennucci, H. P. Hratchian, 
 J. V. Ortiz, A. F. Izmaylov, J. L. Sonnenberg, D. Williams-Young, 
 F. Ding, F. Lipparini, F. Egidi, J. Goings, B. Peng, A. Petrone, 
 T. Henderson, D. Ranasinghe, V. G. Zakrzewski, J. Gao, N. Rega, 
 G. Zheng, W. Liang, M. Hada, M. Ehara, K. Toyota, R. Fukuda, 
 J. Hasegawa, M. Ishida, T. Nakajima, Y. Honda, O. Kitao, H. Nakai, 
 T. Vreven, K. Throssell, J. A. Montgomery, Jr., J. E. Peralta, 
 F. Ogliaro, M. J. Bearpark, J. J. Heyd, E. N. Brothers, K. N. Kudin, 
 V. N. Staroverov, T. A. Keith, R. Kobayashi, J. Normand, 
 K. Raghavachari, A. P. Rendell, J. C. Burant, S. S. Iyengar, 
 J. Tomasi, M. Cossi, J. M. Millam, M. Klene, C. Adamo, R. Cammi, 
 J. W. Ochterski, R. L. Martin, K. Morokuma, O. Farkas, 
 J. B. Foresman, and D. J. Fox, Gaussian, Inc., Wallingford CT, 2016.
 
 ******************************************
 Gaussian 16:  ES64L-G16RevB.01 20-Dec-2017
                 5-Nov-2022 
 ******************************************
 %nprocshared=32
 Will use up to   32 processors via shared memory.
 %mem=120GB
 %chk=_conf024.chk
 ----------------------------------------
 #P wB97XD/6-311++G(d,p) scf=maxcycle=512
 ----------------------------------------
 1/38=1,172=1/1;
 2/12=2,17=6,18=5,40=1/2;
 3/5=4,6=6,7=1111,11=2,25=1,30=1,74=-58/1,2,3;
 4//1;
 5/5=2,7=512,38=5/2;
 6/7=2,8=2,9=2,10=2,28=1/1;
 99/5=1,9=1/99;
 Leave Link    1 at Sat Nov  5 21:35:58 2022, MaxMem= 16106127360 cpu:               1.5 elap:               0.1
 (Enter /opt/ap/G16/B01/g16/l101.exe)
 ----------------------------
 _conf024.gjf nmol_natom 1_22
 ----------------------------
 Symbolic Z-matrix:
 Charge =  0 Multiplicity = 1
 C
 C                    1     1.40492 
 C                    1     1.40495  2     118.20504 
 C                    2     1.39394  1     120.91089  3     0.05366  0
 H                    2     1.08593  1     119.34521  3    -178.36243  0
 C                    1     1.48449  2     120.90144  4    -179.96388  0
 C                    3     1.3939   1     120.91051  2     0.03588  0
 H                    3     1.08594  1     119.3416  2    -178.38282  0
 C                    4     1.39607  2     120.24556  1    -0.09283  0
 H                    4     1.08628  2     119.66792  1    -179.51486  0
 C                    6     1.40492  1     120.90157  2     30.      0
 C                    6     1.40495  1     120.89325  2    -150.     0
 H                    7     1.08628  3     119.67027  1    -179.51258  0
 H                    9     1.08598  4     120.26025  2    -179.95233  0
 C                    11    1.39393  6     120.911  1    -179.9587  0
 H                    11    1.08593  6     119.34476  1     1.61892  0
 C                    12    1.3939   6     120.91023  1    -179.94298  0
 H                    12    1.08594  6     119.34175  1     1.63242  0
 C                    15    1.39607  11    120.24536  6    -0.10315  0
 H                    15    1.08628  11    119.66861  6    -179.51844  0
 H                    17    1.08628  12    119.67028  6    -179.5159  0
 H                    19    1.08598  15    120.25989  11   -179.94732  0
 
 ITRead=  0  0  0  0  0  0  0  0  0  0  0  0  0  0  0  0  0  0  0  0
 ITRead=  0  0
 MicOpt= -1 -1 -1 -1 -1 -1 -1 -1 -1 -1 -1 -1 -1 -1 -1 -1 -1 -1 -1 -1
 MicOpt= -1 -1
 NAtoms=     22 NQM=       22 NQMF=       0 NMMI=      0 NMMIF=      0
                NMic=       0 NMicF=      0.
                    Isotopes and Nuclear Properties:
 (Nuclear quadrupole moments (NQMom) in fm**2, nuclear magnetic moments (NMagM)
  in nuclear magnetons)

  Atom         1           2           3           4           5           6           7           8           9          10
 IAtWgt=          12          12          12          12           1          12          12           1          12           1
 AtmWgt=  12.0000000  12.0000000  12.0000000  12.0000000   1.0078250  12.0000000  12.0000000   1.0078250  12.0000000   1.0078250
 NucSpn=           0           0           0           0           1           0           0           1           0           1
 AtZEff=  -0.0000000  -0.0000000  -0.0000000  -0.0000000  -0.0000000  -0.0000000  -0.0000000  -0.0000000  -0.0000000  -0.0000000
 NQMom=    0.0000000   0.0000000   0.0000000   0.0000000   0.0000000   0.0000000   0.0000000   0.0000000   0.0000000   0.0000000
 NMagM=    0.0000000   0.0000000   0.0000000   0.0000000   2.7928460   0.0000000   0.0000000   2.7928460   0.0000000   2.7928460
 AtZNuc=   6.0000000   6.0000000   6.0000000   6.0000000   1.0000000   6.0000000   6.0000000   1.0000000   6.0000000   1.0000000

  Atom        11          12          13          14          15          16          17          18          19          20
 IAtWgt=          12          12           1           1          12           1          12           1          12           1
 AtmWgt=  12.0000000  12.0000000   1.0078250   1.0078250  12.0000000   1.0078250  12.0000000   1.0078250  12.0000000   1.0078250
 NucSpn=           0           0           1           1           0           1           0           1           0           1
 AtZEff=  -0.0000000  -0.0000000  -0.0000000  -0.0000000  -0.0000000  -0.0000000  -0.0000000  -0.0000000  -0.0000000  -0.0000000
 NQMom=    0.0000000   0.0000000   0.0000000   0.0000000   0.0000000   0.0000000   0.0000000   0.0000000   0.0000000   0.0000000
 NMagM=    0.0000000   0.0000000   2.7928460   2.7928460   0.0000000   2.7928460   0.0000000   2.7928460   0.0000000   2.7928460
 AtZNuc=   6.0000000   6.0000000   1.0000000   1.0000000   6.0000000   1.0000000   6.0000000   1.0000000   6.0000000   1.0000000

  Atom        21          22
 IAtWgt=           1           1
 AtmWgt=   1.0078250   1.0078250
 NucSpn=           1           1
 AtZEff=  -0.0000000  -0.0000000
 NQMom=    0.0000000   0.0000000
 NMagM=    2.7928460   2.7928460
 AtZNuc=   1.0000000   1.0000000
 Leave Link  101 at Sat Nov  5 21:35:58 2022, MaxMem= 16106127360 cpu:               5.2 elap:               0.2
 (Enter /opt/ap/G16/B01/g16/l202.exe)
                          Input orientation:                          
 ---------------------------------------------------------------------
 Center     Atomic      Atomic             Coordinates (Angstroms)
 Number     Number       Type             X           Y           Z
 ---------------------------------------------------------------------
      1          6           0        0.000000    0.000000    0.000000
      2          6           0        0.000000    0.000000    1.404919
      3          6           0        1.238131    0.000000   -0.664020
      4          6           0        1.195952    0.001120    2.120990
      5          1           0       -0.946201   -0.027051    1.937101
      6          6           0       -1.273772   -0.000390   -0.762381
      7          6           0        2.434381   -0.000749    0.051479
      8          1           0        1.259850    0.026715   -1.749411
      9          6           0        2.418826    0.000311    1.447501
     10          1           0        1.172413   -0.006894    3.206985
     11          6           0       -2.429209    0.602003   -0.237130
     12          6           0       -1.356339   -0.603228   -2.028738
     13          1           0        3.380326    0.007295   -0.482493
     14          1           0        3.350700    0.000403    2.005133
     15          6           0       -3.625600    0.601005   -0.952462
     16          1           0       -2.379571    1.096466    0.728422
     17          6           0       -2.551889   -0.602770   -2.745412
     18          1           0       -0.481642   -1.097549   -2.440818
     19          6           0       -3.692303   -0.000856   -2.210369
     20          1           0       -4.504759    1.079582   -0.530509
     21          1           0       -2.595109   -1.081698   -3.719455
     22          1           0       -4.624035   -0.001024   -2.768239
 ---------------------------------------------------------------------
                    Distance matrix (angstroms):
                    1          2          3          4          5
     1  C    0.000000
     2  C    1.404919   0.000000
     3  C    1.404953   2.411116   0.000000
     4  C    2.434934   1.393937   2.785330   0.000000
     5  H    2.156012   1.085931   3.396745   2.150216   0.000000
     6  C    1.484493   2.513898   2.513829   3.796494   2.719415
     7  C    2.434925   2.785320   1.393898   2.411760   3.870994
     8  H    2.156008   3.396723   1.085936   3.871013   4.296501
     9  C    2.818861   2.419201   2.419207   1.396070   3.400568
    10  H    3.414579   2.149893   3.871569   1.086279   2.470128
    11  C    2.513901   2.993291   3.740860   4.366187   2.705975
    12  C    2.513826   3.740794   2.992928   4.909142   4.028409
    13  H    3.414594   3.871560   2.149884   3.398478   4.957262
    14  H    3.904837   3.404035   3.404016   2.157861   4.297527
    15  C    3.796494   4.366169   4.909205   5.749203   3.990390
    16  H    2.719411   2.705965   4.028512   3.990413   2.185806
    17  C    3.796414   4.909248   4.365751   6.171942   4.983535
    18  H    2.719225   4.028186   2.705411   4.983121   4.530779
    19  C    4.303351   5.167534   5.167241   6.531134   4.974261
    20  H    4.662595   5.020381   5.845007   6.378999   4.469572
    21  H    4.662511   5.844987   5.019909   7.046662   5.985634
    22  H    5.389327   6.228719   6.228381   7.601106   5.972216
                    6          7          8          9         10
     6  C    0.000000
     7  C    3.796415   0.000000
     8  H    2.719228   2.150228   0.000000
     9  C    4.303354   1.396108   3.400612   0.000000
    10  H    4.662588   3.398502   4.957280   2.156243   0.000000
    11  C    1.404920   4.909289   4.028288   5.167539   5.020395
    12  C    1.404953   4.365758   2.705420   5.167240   5.844912
    13  H    4.662512   1.086279   2.470197   2.156248   4.299689
    14  H    5.389330   2.157871   4.297551   1.085976   2.487858
    15  C    2.434934   6.171983   4.983228   6.531137   6.378987
    16  H    2.156010   4.983600   4.530939   4.974258   4.469594
    17  C    2.434925   5.748732   3.989690   6.530868   7.046738
    18  H    2.156010   3.989700   2.185134   4.973634   5.985241
    19  C    2.818858   6.530866   4.973636   7.122212   7.281017
    20  H    3.414583   7.046807   5.985396   7.281028   6.883282
    21  H    3.414594   6.378414   4.468821   7.280640   7.957701
    22  H    3.904834   7.600792   5.971506   8.208188   8.324791
                   11         12         13         14         15
    11  C    0.000000
    12  C    2.411119   0.000000
    13  H    5.845047   5.019921   0.000000
    14  H    6.228726   6.228379   2.487812   0.000000
    15  C    1.393934   2.785336   7.046727   7.601109   0.000000
    16  H    1.085932   3.396748   5.985735   5.972216   2.150219
    17  C    2.785320   1.393901   6.378413   7.600793   2.411763
    18  H    3.396725   1.085936   4.468838   5.971502   3.871016
    19  C    2.419198   2.419208   7.280638   8.208188   1.396072
    20  H    2.149897   3.871575   7.957805   8.324803   1.086278
    21  H    3.871558   2.149886   6.882562   8.324332   3.398478
    22  H    3.404029   3.404019   8.324331   9.294164   2.157859
                   16         17         18         19         20
    16  H    0.000000
    17  C    3.870997   0.000000
    18  H    4.296501   2.150234   0.000000
    19  C    3.400569   1.396107   3.400615   0.000000
    20  H    2.470145   3.398500   4.957282   2.156238   0.000000
    21  H    4.957264   1.086278   2.470204   2.156245   4.299683
    22  H    4.297527   2.157871   4.297556   1.085976   2.487844
                   21         22
    21  H    0.000000
    22  H    2.487812   0.000000
 Stoichiometry    C12H10
 Framework group  C1[X(C12H10)]
 Deg. of freedom    60
 Full point group                 C1      NOp   1
 Largest Abelian subgroup         C1      NOp   1
 Largest concise Abelian subgroup C1      NOp   1
                         Standard orientation:                         
 ---------------------------------------------------------------------
 Center     Atomic      Atomic             Coordinates (Angstroms)
 Number     Number       Type             X           Y           Z
 ---------------------------------------------------------------------
      1          6           0        0.742246    0.000165   -0.000138
      2          6           0        1.463778    1.164569    0.311871
      3          6           0        1.463593   -1.164451   -0.311943
      4          6           0        2.857715    1.164998    0.311079
      5          1           0        0.925207    2.068083    0.581779
      6          6           0       -0.742247    0.000152   -0.000006
      7          6           0        2.857491   -1.165127   -0.311097
      8          1           0        0.924803   -2.067891   -0.581679
      9          6           0        3.561107   -0.000105   -0.000023
     10          1           0        3.395256    2.074682    0.563126
     11          6           0       -1.463802    1.164581   -0.311878
     12          6           0       -1.463569   -1.164418    0.312028
     13          1           0        3.394920   -2.074914   -0.563009
     14          1           0        4.647083   -0.000241    0.000042
     15          6           0       -2.857736    1.165014   -0.310981
     16          1           0       -0.925240    2.068139   -0.581661
     17          6           0       -2.857470   -1.165137    0.311109
     18          1           0       -0.924761   -2.067806    0.581903
     19          6           0       -3.561105   -0.000169   -0.000119
     20          1           0       -3.395305    2.074726   -0.562863
     21          1           0       -3.394883   -2.074897    0.563147
     22          1           0       -4.647081   -0.000320   -0.000183
 ---------------------------------------------------------------------
 Rotational constants (GHZ):           2.8585222           0.5506553           0.4720257
 Leave Link  202 at Sat Nov  5 21:35:58 2022, MaxMem= 16106127360 cpu:               0.4 elap:               0.0
 (Enter /opt/ap/G16/B01/g16/l301.exe)
 Standard basis: 6-311++G(d,p) (5D, 7F)
 Ernie: Thresh=  0.10000D-02 Tol=  0.10000D-05 Strict=F.
 There are   346 symmetry adapted cartesian basis functions of A   symmetry.
 There are   334 symmetry adapted basis functions of A   symmetry.
   334 basis functions,   522 primitive gaussians,   346 cartesian basis functions
    41 alpha electrons       41 beta electrons
       nuclear repulsion energy       599.2148949869 Hartrees.
 IExCor= 4639 DFT=T Ex+Corr=wB97XD ExCW=0 ScaHFX=  1.000000
 ScaDFX=  1.000000  1.000000  1.000000  1.000000 ScalE2=  1.000000  1.000000
 IRadAn=      5 IRanWt=     -1 IRanGd=            0 ICorTp=0 IEmpDi=121
 HFx  wShort=  0.000000 wLong=  0.200000 cFull=  0.222036 cShort=  0.000000 cLong=  0.777964
 DFx  wShort=  0.000000 wLong=  0.200000 cFull=  0.000000 cShort=  0.000000 cLong=  1.000000
 NAtoms=   22 NActive=   22 NUniq=   22 SFac= 1.00D+00 NAtFMM=   60 NAOKFM=F Big=F
 Integral buffers will be    131072 words long.
 Raffenetti 2 integral format.
 Two-electron integral symmetry is turned on.
 R6Disp:  Grimme-D2 Dispersion energy=       -0.0120324067 Hartrees.
 Nuclear repulsion after empirical dispersion term =      599.2028625802 Hartrees.
 Leave Link  301 at Sat Nov  5 21:35:58 2022, MaxMem= 16106127360 cpu:               1.2 elap:               0.0
 (Enter /opt/ap/G16/B01/g16/l302.exe)
 NPDir=0 NMtPBC=     1 NCelOv=     1 NCel=       1 NClECP=     1 NCelD=      1
         NCelK=      1 NCelE2=     1 NClLst=     1 CellRange=     0.0.
 One-electron integrals computed using PRISM.
 One-electron integral symmetry used in STVInt
 NBasis=   334 RedAO= T EigKep=  1.14D-06  NBF=   334
 NBsUse=   332 1.00D-06 EigRej=  8.07D-07 NBFU=   332
 Precomputing XC quadrature grid using
 IXCGrd= 4 IRadAn=           5 IRanWt=          -1 IRanGd=           0 AccXCQ= 0.00D+00.
 Generated NRdTot=       0 NPtTot=           0 NUsed=           0 NTot=          32
 NSgBfM=   346   346   346   346   346 MxSgAt=    22 MxSgA2=    22.
 Leave Link  302 at Sat Nov  5 21:35:59 2022, MaxMem= 16106127360 cpu:               7.5 elap:               0.2
 (Enter /opt/ap/G16/B01/g16/l303.exe)
 DipDrv:  MaxL=1.
 Leave Link  303 at Sat Nov  5 21:35:59 2022, MaxMem= 16106127360 cpu:               1.4 elap:               0.1
 (Enter /opt/ap/G16/B01/g16/l401.exe)
 ExpMin= 3.60D-02 ExpMax= 4.56D+03 ExpMxC= 6.82D+02 IAcc=3 IRadAn=         5 AccDes= 0.00D+00
 Harris functional with IExCor= 4639 and IRadAn=       5 diagonalized for initial guess.
 HarFok:  IExCor= 4639 AccDes= 0.00D+00 IRadAn=         5 IDoV= 1 UseB2=F ITyADJ=14
 ICtDFT=  3500011 ScaDFX=  1.000000  1.000000  1.000000  1.000000
 FoFCou: FMM=F IPFlag=           0 FMFlag=      100000 FMFlg1=           0
         NFxFlg=           0 DoJE=T BraDBF=F KetDBF=T FulRan=T
         wScrn=  0.000000 ICntrl=       500 IOpCl=  0 I1Cent=   200000004 NGrid=           0
         NMat0=    1 NMatS0=      1 NMatT0=    0 NMatD0=    1 NMtDS0=    0 NMtDT0=    0
 Petite list used in FoFCou.
 Harris En= -441.937935238311    
 JPrj=0 DoOrth=F DoCkMO=F.
 Leave Link  401 at Sat Nov  5 21:35:59 2022, MaxMem= 16106127360 cpu:              19.9 elap:               0.6
 (Enter /opt/ap/G16/B01/g16/l502.exe)
 Integral symmetry usage will be decided dynamically.
 Closed shell SCF:
 Using DIIS extrapolation, IDIIS=  1040.
 NGot= 16106127360 LenX= 16105873520 LenY= 16105753363
 Requested convergence on RMS density matrix=1.00D-08 within 512 cycles.
 Requested convergence on MAX density matrix=1.00D-06.
 Requested convergence on             energy=1.00D-06.
 No special actions if energy rises.
 Fock matrices will be formed incrementally for  20 cycles.

 Cycle   1  Pass 1  IDiag  1:
 FoFJK:  IHMeth= 1 ICntrl=       0 DoSepK=T KAlg= 0 I1Cent=           0 FoldK=F
 IRaf=         1 NMat=       1 IRICut=       1 DoRegI=T DoRafI=F ISym2E= 0 IDoP0=0 IntGTp=1.
 FoFCou: FMM=F IPFlag=           0 FMFlag=      100000 FMFlg1=           0
         NFxFlg=           0 DoJE=T BraDBF=F KetDBF=F FulRan=T
         wScrn=  0.000000 ICntrl=       500 IOpCl=  0 I1Cent=           0 NGrid=           0
         NMat0=    1 NMatS0=      1 NMatT0=    0 NMatD0=    1 NMtDS0=    0 NMtDT0=    0
 Symmetry not used in FoFCou.
 E= -463.152278195059    
 DIIS: error= 6.88D-02 at cycle   1 NSaved=   1.
 NSaved= 1 IEnMin= 1 EnMin= -463.152278195059     IErMin= 1 ErrMin= 6.88D-02
 ErrMax= 6.88D-02  0.00D+00 EMaxC= 1.00D-01 BMatC= 9.52D-01 BMatP= 9.52D-01
 IDIUse=3 WtCom= 3.12D-01 WtEn= 6.88D-01
 Coeff-Com:  0.100D+01
 Coeff-En:   0.100D+01
 Coeff:      0.100D+01
 Gap=     0.317 Goal=   None    Shift=    0.000
 GapD=    0.317 DampG=1.000 DampE=0.500 DampFc=0.5000 IDamp=-1.
 Damping current iteration by 5.00D-01
 RMSDP=8.35D-02 MaxDP=5.21D+00              OVMax= 4.49D-02

 Cycle   2  Pass 1  IDiag  1:
 RMSU=  8.93D-03    CP:  7.49D-01
 E= -463.201463341481     Delta-E=       -0.049185146422 Rises=F Damp=T
 DIIS: error= 3.29D-02 at cycle   2 NSaved=   2.
 NSaved= 2 IEnMin= 2 EnMin= -463.201463341481     IErMin= 2 ErrMin= 3.29D-02
 ErrMax= 3.29D-02  0.00D+00 EMaxC= 1.00D-01 BMatC= 2.16D-01 BMatP= 9.52D-01
 IDIUse=3 WtCom= 6.71D-01 WtEn= 3.29D-01
 Coeff-Com: -0.883D+00 0.188D+01
 Coeff-En:   0.000D+00 0.100D+01
 Coeff:     -0.593D+00 0.159D+01
 Gap=     0.323 Goal=   None    Shift=    0.000
 RMSDP=3.77D-02 MaxDP=2.41D+00 DE=-4.92D-02 OVMax= 3.76D-02

 Cycle   3  Pass 1  IDiag  1:
 RMSU=  4.16D-03    CP:  5.19D-01  1.09D+00
 E= -463.245833055124     Delta-E=       -0.044369713642 Rises=F Damp=F
 DIIS: error= 5.85D-03 at cycle   3 NSaved=   3.
 NSaved= 3 IEnMin= 3 EnMin= -463.245833055124     IErMin= 3 ErrMin= 5.85D-03
 ErrMax= 5.85D-03  0.00D+00 EMaxC= 1.00D-01 BMatC= 4.18D-03 BMatP= 2.16D-01
 IDIUse=3 WtCom= 9.41D-01 WtEn= 5.85D-02
 Coeff-Com: -0.359D+00 0.765D+00 0.594D+00
 Coeff-En:   0.000D+00 0.000D+00 0.100D+01
 Coeff:     -0.338D+00 0.720D+00 0.618D+00
 Gap=     0.322 Goal=   None    Shift=    0.000
 RMSDP=5.48D-03 MaxDP=3.36D-01 DE=-4.44D-02 OVMax= 2.09D-02

 Cycle   4  Pass 1  IDiag  1:
 RMSU=  1.23D-03    CP:  4.92D-01  1.39D+00  6.76D-01
 E= -463.249515697549     Delta-E=       -0.003682642425 Rises=F Damp=F
 DIIS: error= 1.93D-03 at cycle   4 NSaved=   4.
 NSaved= 4 IEnMin= 4 EnMin= -463.249515697549     IErMin= 4 ErrMin= 1.93D-03
 ErrMax= 1.93D-03  0.00D+00 EMaxC= 1.00D-01 BMatC= 2.87D-04 BMatP= 4.18D-03
 IDIUse=3 WtCom= 9.81D-01 WtEn= 1.93D-02
 Coeff-Com: -0.127D+00 0.272D+00 0.294D+00 0.561D+00
 Coeff-En:   0.000D+00 0.000D+00 0.000D+00 0.100D+01
 Coeff:     -0.125D+00 0.267D+00 0.288D+00 0.570D+00
 Gap=     0.321 Goal=   None    Shift=    0.000
 RMSDP=1.23D-03 MaxDP=7.99D-02 DE=-3.68D-03 OVMax= 5.74D-03

 Cycle   5  Pass 1  IDiag  1:
 RMSU=  3.94D-04    CP:  4.86D-01  1.37D+00  7.34D-01  4.60D-01
 E= -463.249818127978     Delta-E=       -0.000302430430 Rises=F Damp=F
 DIIS: error= 4.06D-04 at cycle   5 NSaved=   5.
 NSaved= 5 IEnMin= 5 EnMin= -463.249818127978     IErMin= 5 ErrMin= 4.06D-04
 ErrMax= 4.06D-04  0.00D+00 EMaxC= 1.00D-01 BMatC= 9.35D-06 BMatP= 2.87D-04
 IDIUse=3 WtCom= 9.96D-01 WtEn= 4.06D-03
 Coeff-Com:  0.276D-01-0.590D-01-0.329D-01 0.127D+00 0.938D+00
 Coeff-En:   0.000D+00 0.000D+00 0.000D+00 0.000D+00 0.100D+01
 Coeff:      0.275D-01-0.588D-01-0.328D-01 0.126D+00 0.938D+00
 Gap=     0.322 Goal=   None    Shift=    0.000
 RMSDP=2.41D-04 MaxDP=1.53D-02 DE=-3.02D-04 OVMax= 1.73D-03

 Cycle   6  Pass 1  IDiag  1:
 RMSU=  6.80D-05    CP:  4.86D-01  1.35D+00  7.53D-01  4.52D-01  1.26D+00
 E= -463.249831027189     Delta-E=       -0.000012899210 Rises=F Damp=F
 DIIS: error= 6.02D-05 at cycle   6 NSaved=   6.
 NSaved= 6 IEnMin= 6 EnMin= -463.249831027189     IErMin= 6 ErrMin= 6.02D-05
 ErrMax= 6.02D-05  0.00D+00 EMaxC= 1.00D-01 BMatC= 4.66D-07 BMatP= 9.35D-06
 IDIUse=1 WtCom= 1.00D+00 WtEn= 0.00D+00
 Coeff-Com:  0.118D-01-0.253D-01-0.166D-01 0.317D-01 0.322D+00 0.676D+00
 Coeff:      0.118D-01-0.253D-01-0.166D-01 0.317D-01 0.322D+00 0.676D+00
 Gap=     0.322 Goal=   None    Shift=    0.000
 RMSDP=8.75D-05 MaxDP=5.60D-03 DE=-1.29D-05 OVMax= 2.78D-04

 Cycle   7  Pass 1  IDiag  1:
 RMSU=  1.66D-05    CP:  4.86D-01  1.35D+00  7.57D-01  4.28D-01  1.33D+00
                    CP:  1.22D+00
 E= -463.249831595789     Delta-E=       -0.000000568600 Rises=F Damp=F
 DIIS: error= 2.30D-05 at cycle   7 NSaved=   7.
 NSaved= 7 IEnMin= 7 EnMin= -463.249831595789     IErMin= 7 ErrMin= 2.30D-05
 ErrMax= 2.30D-05  0.00D+00 EMaxC= 1.00D-01 BMatC= 5.76D-08 BMatP= 4.66D-07
 IDIUse=1 WtCom= 1.00D+00 WtEn= 0.00D+00
 Coeff-Com: -0.238D-02 0.512D-02 0.221D-02-0.192D-01-0.112D+00 0.180D+00
 Coeff-Com:  0.946D+00
 Coeff:     -0.238D-02 0.512D-02 0.221D-02-0.192D-01-0.112D+00 0.180D+00
 Coeff:      0.946D+00
 Gap=     0.322 Goal=   None    Shift=    0.000
 RMSDP=5.87D-05 MaxDP=3.81D-03 DE=-5.69D-07 OVMax= 2.10D-04

 Cycle   8  Pass 1  IDiag  1:
 RMSU=  5.81D-06    CP:  4.86D-01  1.35D+00  7.60D-01  4.06D-01  1.39D+00
                    CP:  1.42D+00  1.38D+00
 E= -463.249831705148     Delta-E=       -0.000000109359 Rises=F Damp=F
 DIIS: error= 4.13D-06 at cycle   8 NSaved=   8.
 NSaved= 8 IEnMin= 8 EnMin= -463.249831705148     IErMin= 8 ErrMin= 4.13D-06
 ErrMax= 4.13D-06  0.00D+00 EMaxC= 1.00D-01 BMatC= 1.23D-09 BMatP= 5.76D-08
 IDIUse=1 WtCom= 1.00D+00 WtEn= 0.00D+00
 Coeff-Com: -0.374D-03 0.798D-03 0.529D-03-0.139D-02-0.846D-02-0.145D-01
 Coeff-Com: -0.268D-01 0.105D+01
 Coeff:     -0.374D-03 0.798D-03 0.529D-03-0.139D-02-0.846D-02-0.145D-01
 Coeff:     -0.268D-01 0.105D+01
 Gap=     0.322 Goal=   None    Shift=    0.000
 RMSDP=1.56D-05 MaxDP=1.04D-03 DE=-1.09D-07 OVMax= 4.21D-05

 Cycle   9  Pass 1  IDiag  1:
 RMSU=  9.56D-07    CP:  4.86D-01  1.35D+00  7.61D-01  4.01D-01  1.40D+00
                    CP:  1.46D+00  1.54D+00  1.28D+00
 E= -463.249831709058     Delta-E=       -0.000000003910 Rises=F Damp=F
 DIIS: error= 2.19D-06 at cycle   9 NSaved=   9.
 NSaved= 9 IEnMin= 9 EnMin= -463.249831709058     IErMin= 9 ErrMin= 2.19D-06
 ErrMax= 2.19D-06  0.00D+00 EMaxC= 1.00D-01 BMatC= 3.10D-10 BMatP= 1.23D-09
 IDIUse=1 WtCom= 1.00D+00 WtEn= 0.00D+00
 Coeff-Com:  0.154D-03-0.333D-03-0.688D-04 0.188D-02 0.109D-01-0.249D-01
 Coeff-Com: -0.129D+00 0.373D+00 0.768D+00
 Coeff:      0.154D-03-0.333D-03-0.688D-04 0.188D-02 0.109D-01-0.249D-01
 Coeff:     -0.129D+00 0.373D+00 0.768D+00
 Gap=     0.322 Goal=   None    Shift=    0.000
 RMSDP=3.38D-06 MaxDP=2.00D-04 DE=-3.91D-09 OVMax= 1.70D-05

 Cycle  10  Pass 1  IDiag  1:
 RMSU=  2.31D-07    CP:  4.86D-01  1.35D+00  7.61D-01  4.00D-01  1.40D+00
                    CP:  1.46D+00  1.57D+00  1.38D+00  1.33D+00
 E= -463.249831709607     Delta-E=       -0.000000000550 Rises=F Damp=F
 DIIS: error= 3.34D-07 at cycle  10 NSaved=  10.
 NSaved=10 IEnMin=10 EnMin= -463.249831709607     IErMin=10 ErrMin= 3.34D-07
 ErrMax= 3.34D-07  0.00D+00 EMaxC= 1.00D-01 BMatC= 2.56D-11 BMatP= 3.10D-10
 IDIUse=1 WtCom= 1.00D+00 WtEn= 0.00D+00
 Coeff-Com:  0.629D-04-0.135D-03-0.528D-04 0.541D-03 0.286D-02-0.333D-02
 Coeff-Com: -0.262D-01-0.316D-01 0.200D+00 0.857D+00
 Coeff:      0.629D-04-0.135D-03-0.528D-04 0.541D-03 0.286D-02-0.333D-02
 Coeff:     -0.262D-01-0.316D-01 0.200D+00 0.857D+00
 Gap=     0.322 Goal=   None    Shift=    0.000
 RMSDP=3.70D-07 MaxDP=1.90D-05 DE=-5.50D-10 OVMax= 3.81D-06

 Cycle  11  Pass 1  IDiag  1:
 RMSU=  1.01D-07    CP:  4.86D-01  1.35D+00  7.61D-01  4.00D-01  1.40D+00
                    CP:  1.46D+00  1.59D+00  1.40D+00  1.47D+00  1.23D+00
 E= -463.249831709656     Delta-E=       -0.000000000049 Rises=F Damp=F
 DIIS: error= 1.09D-07 at cycle  11 NSaved=  11.
 NSaved=11 IEnMin=11 EnMin= -463.249831709656     IErMin=11 ErrMin= 1.09D-07
 ErrMax= 1.09D-07  0.00D+00 EMaxC= 1.00D-01 BMatC= 9.32D-13 BMatP= 2.56D-11
 IDIUse=1 WtCom= 1.00D+00 WtEn= 0.00D+00
 Coeff-Com: -0.145D-04 0.316D-04 0.122D-04-0.168D-03-0.101D-02 0.235D-02
 Coeff-Com:  0.104D-01-0.246D-01-0.407D-01-0.128D+00 0.118D+01
 Coeff:     -0.145D-04 0.316D-04 0.122D-04-0.168D-03-0.101D-02 0.235D-02
 Coeff:      0.104D-01-0.246D-01-0.407D-01-0.128D+00 0.118D+01
 Gap=     0.322 Goal=   None    Shift=    0.000
 RMSDP=2.84D-07 MaxDP=1.85D-05 DE=-4.87D-11 OVMax= 1.01D-06

 Cycle  12  Pass 1  IDiag  1:
 RMSU=  2.35D-08    CP:  4.86D-01  1.35D+00  7.61D-01  4.00D-01  1.40D+00
                    CP:  1.46D+00  1.58D+00  1.40D+00  1.52D+00  1.33D+00
                    CP:  1.22D+00
 E= -463.249831709673     Delta-E=       -0.000000000017 Rises=F Damp=F
 DIIS: error= 2.47D-08 at cycle  12 NSaved=  12.
 NSaved=12 IEnMin=12 EnMin= -463.249831709673     IErMin=12 ErrMin= 2.47D-08
 ErrMax= 2.47D-08  0.00D+00 EMaxC= 1.00D-01 BMatC= 8.60D-14 BMatP= 9.32D-13
 IDIUse=1 WtCom= 1.00D+00 WtEn= 0.00D+00
 Coeff-Com: -0.160D-05 0.338D-05 0.255D-05-0.898D-05-0.375D-04 0.428D-05
 Coeff-Com: -0.236D-04 0.385D-02 0.161D-03-0.539D-01-0.136D+00 0.119D+01
 Coeff:     -0.160D-05 0.338D-05 0.255D-05-0.898D-05-0.375D-04 0.428D-05
 Coeff:     -0.236D-04 0.385D-02 0.161D-03-0.539D-01-0.136D+00 0.119D+01
 Gap=     0.322 Goal=   None    Shift=    0.000
 RMSDP=6.96D-08 MaxDP=4.21D-06 DE=-1.73D-11 OVMax= 2.75D-07

 Cycle  13  Pass 1  IDiag  1:
 RMSU=  6.15D-09    CP:  4.86D-01  1.35D+00  7.61D-01  4.00D-01  1.40D+00
                    CP:  1.46D+00  1.58D+00  1.39D+00  1.52D+00  1.33D+00
                    CP:  1.26D+00  1.31D+00
 E= -463.249831709658     Delta-E=        0.000000000016 Rises=F Damp=F
 DIIS: error= 5.91D-09 at cycle  13 NSaved=  13.
 NSaved=13 IEnMin=12 EnMin= -463.249831709673     IErMin=13 ErrMin= 5.91D-09
 ErrMax= 5.91D-09  0.00D+00 EMaxC= 1.00D-01 BMatC= 5.06D-15 BMatP= 8.60D-14
 IDIUse=1 WtCom= 1.00D+00 WtEn= 0.00D+00
 Coeff-Com:  0.517D-06-0.114D-05-0.297D-06 0.711D-05 0.473D-04-0.110D-03
 Coeff-Com: -0.581D-03 0.187D-02 0.333D-02-0.404D-02-0.876D-01 0.196D+00
 Coeff-Com:  0.891D+00
 Coeff:      0.517D-06-0.114D-05-0.297D-06 0.711D-05 0.473D-04-0.110D-03
 Coeff:     -0.581D-03 0.187D-02 0.333D-02-0.404D-02-0.876D-01 0.196D+00
 Coeff:      0.891D+00
 Gap=     0.322 Goal=   None    Shift=    0.000
 RMSDP=6.44D-09 MaxDP=5.02D-07 DE= 1.57D-11 OVMax= 6.30D-08

 SCF Done:  E(RwB97XD) =  -463.249831710     A.U. after   13 cycles
            NFock= 13  Conv=0.64D-08     -V/T= 2.0048
 KE= 4.610164650917D+02 PE=-2.272645838264D+03 EE= 7.491766788829D+02
 Leave Link  502 at Sat Nov  5 21:36:23 2022, MaxMem= 16106127360 cpu:             755.3 elap:              23.7
 (Enter /opt/ap/G16/B01/g16/l601.exe)
 Copying SCF densities to generalized density rwf, IOpCl= 0 IROHF=0.

 **********************************************************************

            Population analysis using the SCF Density.

 **********************************************************************

 Orbital symmetries:
       Occupied  (A) (A) (A) (A) (A) (A) (A) (A) (A) (A) (A) (A)
                 (A) (A) (A) (A) (A) (A) (A) (A) (A) (A) (A) (A)
                 (A) (A) (A) (A) (A) (A) (A) (A) (A) (A) (A) (A)
                 (A) (A) (A) (A) (A)
       Virtual   (A) (A) (A) (A) (A) (A) (A) (A) (A) (A) (A) (A)
                 (A) (A) (A) (A) (A) (A) (A) (A) (A) (A) (A) (A)
                 (A) (A) (A) (A) (A) (A) (A) (A) (A) (A) (A) (A)
                 (A) (A) (A) (A) (A) (A) (A) (A) (A) (A) (A) (A)
                 (A) (A) (A) (A) (A) (A) (A) (A) (A) (A) (A) (A)
                 (A) (A) (A) (A) (A) (A) (A) (A) (A) (A) (A) (A)
                 (A) (A) (A) (A) (A) (A) (A) (A) (A) (A) (A) (A)
                 (A) (A) (A) (A) (A) (A) (A) (A) (A) (A) (A) (A)
                 (A) (A) (A) (A) (A) (A) (A) (A) (A) (A) (A) (A)
                 (A) (A) (A) (A) (A) (A) (A) (A) (A) (A) (A) (A)
                 (A) (A) (A) (A) (A) (A) (A) (A) (A) (A) (A) (A)
                 (A) (A) (A) (A) (A) (A) (A) (A) (A) (A) (A) (A)
                 (A) (A) (A) (A) (A) (A) (A) (A) (A) (A) (A) (A)
                 (A) (A) (A) (A) (A) (A) (A) (A) (A) (A) (A) (A)
                 (A) (A) (A) (A) (A) (A) (A) (A) (A) (A) (A) (A)
                 (A) (A) (A) (A) (A) (A) (A) (A) (A) (A) (A) (A)
                 (A) (A) (A) (A) (A) (A) (A) (A) (A) (A) (A) (A)
                 (A) (A) (A) (A) (A) (A) (A) (A) (A) (A) (A) (A)
                 (A) (A) (A) (A) (A) (A) (A) (A) (A) (A) (A) (A)
                 (A) (A) (A) (A) (A) (A) (A) (A) (A) (A) (A) (A)
                 (A) (A) (A) (A) (A) (A) (A) (A) (A) (A) (A) (A)
                 (A) (A) (A) (A) (A) (A) (A) (A) (A) (A) (A) (A)
                 (A) (A) (A) (A) (A) (A) (A) (A) (A) (A) (A) (A)
                 (A) (A) (A) (A) (A) (A) (A) (A) (A) (A) (A) (A)
                 (A) (A) (A)
 The electronic state is 1-A.
 Alpha  occ. eigenvalues --  -10.30555 -10.30525 -10.29406 -10.29405 -10.29397
 Alpha  occ. eigenvalues --  -10.29397 -10.29304 -10.29303 -10.29301 -10.29301
 Alpha  occ. eigenvalues --  -10.29258 -10.29258  -0.97665  -0.95351  -0.88284
 Alpha  occ. eigenvalues --   -0.85569  -0.84670  -0.82381  -0.72427  -0.72027
 Alpha  occ. eigenvalues --   -0.68736  -0.67529  -0.62975  -0.59204  -0.56611
 Alpha  occ. eigenvalues --   -0.55778  -0.53119  -0.52527  -0.51706  -0.51089
 Alpha  occ. eigenvalues --   -0.50563  -0.47423  -0.45223  -0.45174  -0.44014
 Alpha  occ. eigenvalues --   -0.42397  -0.41816  -0.36391  -0.33629  -0.33419
 Alpha  occ. eigenvalues --   -0.30145
 Alpha virt. eigenvalues --    0.02044   0.03849   0.04408   0.04574   0.04775
 Alpha virt. eigenvalues --    0.05579   0.05887   0.05937   0.07462   0.07814
 Alpha virt. eigenvalues --    0.07897   0.08517   0.09467   0.09973   0.11666
 Alpha virt. eigenvalues --    0.12712   0.13323   0.13399   0.15019   0.15230
 Alpha virt. eigenvalues --    0.15777   0.15954   0.16068   0.16596   0.16911
 Alpha virt. eigenvalues --    0.17472   0.17491   0.17712   0.17895   0.18681
 Alpha virt. eigenvalues --    0.18807   0.18911   0.19215   0.19864   0.20146
 Alpha virt. eigenvalues --    0.20258   0.20579   0.22778   0.22925   0.23205
 Alpha virt. eigenvalues --    0.23379   0.23787   0.23820   0.24134   0.25031
 Alpha virt. eigenvalues --    0.25660   0.25995   0.26661   0.27290   0.27745
 Alpha virt. eigenvalues --    0.28028   0.28814   0.29015   0.30256   0.30466
 Alpha virt. eigenvalues --    0.31200   0.31275   0.31300   0.31499   0.31620
 Alpha virt. eigenvalues --    0.33666   0.34022   0.34291   0.34309   0.35485
 Alpha virt. eigenvalues --    0.35772   0.36198   0.36280   0.36864   0.37074
 Alpha virt. eigenvalues --    0.37372   0.39107   0.40466   0.41130   0.41925
 Alpha virt. eigenvalues --    0.42038   0.42952   0.43295   0.47027   0.47556
 Alpha virt. eigenvalues --    0.48454   0.56646   0.58116   0.58770   0.61327
 Alpha virt. eigenvalues --    0.61517   0.61603   0.62138   0.62688   0.62795
 Alpha virt. eigenvalues --    0.63989   0.64445   0.64488   0.65777   0.65902
 Alpha virt. eigenvalues --    0.66108   0.67867   0.68612   0.69405   0.69411
 Alpha virt. eigenvalues --    0.71292   0.72159   0.72911   0.74327   0.74909
 Alpha virt. eigenvalues --    0.76590   0.76752   0.77648   0.78480   0.78837
 Alpha virt. eigenvalues --    0.79624   0.80776   0.80922   0.82801   0.83063
 Alpha virt. eigenvalues --    0.83261   0.86733   0.88906   0.89666   0.90090
 Alpha virt. eigenvalues --    0.91475   0.91740   0.92693   0.93302   0.94469
 Alpha virt. eigenvalues --    0.95462   0.95518   0.95970   0.96881   0.98782
 Alpha virt. eigenvalues --    0.99852   1.00617   1.01054   1.01225   1.03101
 Alpha virt. eigenvalues --    1.06912   1.06921   1.08463   1.09424   1.09446
 Alpha virt. eigenvalues --    1.10948   1.13721   1.15524   1.15605   1.17123
 Alpha virt. eigenvalues --    1.19276   1.19817   1.21598   1.23691   1.24453
 Alpha virt. eigenvalues --    1.24871   1.38338   1.38818   1.39576   1.42379
 Alpha virt. eigenvalues --    1.55053   1.57064   1.57237   1.58385   1.58441
 Alpha virt. eigenvalues --    1.60288   1.61056   1.62677   1.62834   1.65288
 Alpha virt. eigenvalues --    1.65313   1.65376   1.66423   1.68184   1.70616
 Alpha virt. eigenvalues --    1.71859   1.74206   1.74929   1.75036   1.78221
 Alpha virt. eigenvalues --    1.79097   1.81710   1.82722   1.84437   1.84945
 Alpha virt. eigenvalues --    1.85676   1.87180   1.89335   1.92114   1.92367
 Alpha virt. eigenvalues --    1.94099   1.98337   1.99653   1.99727   2.00784
 Alpha virt. eigenvalues --    2.02617   2.04036   2.04143   2.04299   2.04820
 Alpha virt. eigenvalues --    2.07252   2.07817   2.09436   2.10370   2.11369
 Alpha virt. eigenvalues --    2.13059   2.14380   2.16951   2.16983   2.17097
 Alpha virt. eigenvalues --    2.23335   2.33313   2.35119   2.36303   2.41542
 Alpha virt. eigenvalues --    2.44409   2.47769   2.49928   2.51948   2.52921
 Alpha virt. eigenvalues --    2.55326   2.56174   2.56434   2.57736   2.59986
 Alpha virt. eigenvalues --    2.71485   2.71719   2.75562   2.76404   2.77721
 Alpha virt. eigenvalues --    2.78943   2.79435   2.79969   2.80500   2.81940
 Alpha virt. eigenvalues --    2.82360   2.82453   2.85345   2.85367   2.85853
 Alpha virt. eigenvalues --    2.86724   2.89093   2.90330   2.90853   2.92037
 Alpha virt. eigenvalues --    2.92126   2.92178   2.96173   2.99468   3.00477
 Alpha virt. eigenvalues --    3.03650   3.03714   3.03764   3.04071   3.09222
 Alpha virt. eigenvalues --    3.15357   3.19467   3.20654   3.29817   3.30344
 Alpha virt. eigenvalues --    3.32488   3.45828   3.46114   3.46768   3.48866
 Alpha virt. eigenvalues --    3.59380   3.60872   3.63303   3.63728   3.68008
 Alpha virt. eigenvalues --    3.73304   3.75375   3.87504   4.08703   4.11016
 Alpha virt. eigenvalues --    4.13438   4.14562   4.24311   4.24496   4.27622
 Alpha virt. eigenvalues --    4.27813   4.60502   4.92243   4.95876  23.69213
 Alpha virt. eigenvalues --   23.84800  24.07266  24.08785  24.09661  24.09908
 Alpha virt. eigenvalues --   24.18454  24.20216  24.22317  24.22439  24.30821
 Alpha virt. eigenvalues --   24.31852
          Condensed to atoms (all electrons):
               1          2          3          4          5          6
     1  C   22.457031   0.415871   0.409535  -1.841472  -0.041355 -11.011460
     2  C    0.415871  16.888435  -6.485969  -1.077493   0.679011  -3.342068
     3  C    0.409535  -6.485969  16.904477  -0.435618  -0.086777  -3.347215
     4  C   -1.841472  -1.077493  -0.435618   6.796727  -0.055489   2.033152
     5  H   -0.041355   0.679011  -0.086777  -0.055489   0.518970  -0.089168
     6  C  -11.011460  -3.342068  -3.347215   2.033152  -0.089168  22.455692
     7  C   -1.841807  -0.434869  -1.083430   0.362696  -0.013766   2.035900
     8  H   -0.041405  -0.086803   0.679347  -0.013740   0.000638  -0.089260
     9  C    0.332921   0.738281   0.740909  -0.271497   0.038747  -1.539059
    10  H    0.026137  -0.137872   0.001052   0.448119  -0.014387   0.049752
    11  C   -3.345271  -1.072103   0.315159   0.160335  -0.098413   0.408223
    12  C   -3.344984   0.310216  -1.073375   0.276735   0.011122   0.417863
    13  H    0.026207   0.001067  -0.138057   0.024112  -0.000188   0.049756
    14  H    0.040630   0.003252   0.003284  -0.053238   0.000497  -0.036272
    15  C    2.032049   0.163431   0.274166  -0.041894   0.000966  -1.839205
    16  H   -0.089372  -0.098334   0.011271   0.000890  -0.004352  -0.041314
    17  C    2.037492   0.278297   0.159577  -0.124732   0.022089  -1.844196
    18  H   -0.089175   0.011187  -0.098605   0.022037  -0.002557  -0.041308
    19  C   -1.539572  -0.127890  -0.126077   0.057885  -0.016506   0.332925
    20  H    0.049751   0.006937   0.001229  -0.000099   0.000896   0.026169
    21  H    0.049803   0.001297   0.006858  -0.001076   0.000340   0.026135
    22  H   -0.036279  -0.002928  -0.002868   0.001419  -0.000396   0.040634
               7          8          9         10         11         12
     1  C   -1.841807  -0.041405   0.332921   0.026137  -3.345271  -3.344984
     2  C   -0.434869  -0.086803   0.738281  -0.137872  -1.072103   0.310216
     3  C   -1.083430   0.679347   0.740909   0.001052   0.315159  -1.073375
     4  C    0.362696  -0.013740  -0.271497   0.448119   0.160335   0.276735
     5  H   -0.013766   0.000638   0.038747  -0.014387  -0.098413   0.011122
     6  C    2.035900  -0.089260  -1.539059   0.049752   0.408223   0.417863
     7  C    6.799397  -0.055697  -0.272395   0.024124   0.275889   0.162504
     8  H   -0.055697   0.519038   0.038770  -0.000187   0.011345  -0.098537
     9  C   -0.272395   0.038770   6.627585  -0.097265  -0.126562  -0.127466
    10  H    0.024124  -0.000187  -0.097265   0.481930   0.006892   0.001267
    11  C    0.275889   0.011345  -0.126562   0.006892  16.897761  -6.484177
    12  C    0.162504  -0.098537  -0.127466   0.001267  -6.484177  16.891924
    13  H    0.448217  -0.014397  -0.097259   0.001080   0.001257   0.006908
    14  H   -0.053244   0.000497   0.443066  -0.009770  -0.002887  -0.002910
    15  C   -0.124818   0.021964   0.057966  -0.000111  -1.079241  -0.435066
    16  H    0.022021  -0.002550  -0.016464   0.000893   0.678912  -0.086549
    17  C   -0.042548   0.000888   0.058054  -0.001079  -0.437192  -1.080452
    18  H    0.000970  -0.004364  -0.016499   0.000340  -0.086896   0.679332
    19  C    0.058172  -0.016453  -0.023857  -0.000167   0.739861   0.740033
    20  H   -0.001079   0.000338  -0.000168   0.000128  -0.137862   0.000969
    21  H   -0.000119   0.000892  -0.000168   0.000025   0.001069  -0.138033
    22  H    0.001427  -0.000394  -0.000610   0.000005   0.003239   0.003313
              13         14         15         16         17         18
     1  C    0.026207   0.040630   2.032049  -0.089372   2.037492  -0.089175
     2  C    0.001067   0.003252   0.163431  -0.098334   0.278297   0.011187
     3  C   -0.138057   0.003284   0.274166   0.011271   0.159577  -0.098605
     4  C    0.024112  -0.053238  -0.041894   0.000890  -0.124732   0.022037
     5  H   -0.000188   0.000497   0.000966  -0.004352   0.022089  -0.002557
     6  C    0.049756  -0.036272  -1.839205  -0.041314  -1.844196  -0.041308
     7  C    0.448217  -0.053244  -0.124818   0.022021  -0.042548   0.000970
     8  H   -0.014397   0.000497   0.021964  -0.002550   0.000888  -0.004364
     9  C   -0.097259   0.443066   0.057966  -0.016464   0.058054  -0.016499
    10  H    0.001080  -0.009770  -0.000111   0.000893  -0.001079   0.000340
    11  C    0.001257  -0.002887  -1.079241   0.678912  -0.437192  -0.086896
    12  C    0.006908  -0.002910  -0.435066  -0.086549  -1.080452   0.679332
    13  H    0.481933  -0.009769  -0.001073   0.000339  -0.000106   0.000895
    14  H   -0.009769   0.476140   0.001421  -0.000395   0.001424  -0.000396
    15  C   -0.001073   0.001421   6.796098  -0.055579   0.363111  -0.013713
    16  H    0.000339  -0.000395  -0.055579   0.518977  -0.013848   0.000639
    17  C   -0.000106   0.001424   0.363111  -0.013848   6.799771  -0.055612
    18  H    0.000895  -0.000396  -0.013713   0.000639  -0.055612   0.519032
    19  C   -0.000169  -0.000610  -0.271920   0.038811  -0.272653   0.038733
    20  H    0.000025   0.000005   0.448130  -0.014391   0.024158  -0.000188
    21  H    0.000128   0.000005   0.024133  -0.000189   0.448232  -0.014391
    22  H    0.000005  -0.000011  -0.053192   0.000498  -0.053303   0.000497
              19         20         21         22
     1  C   -1.539572   0.049751   0.049803  -0.036279
     2  C   -0.127890   0.006937   0.001297  -0.002928
     3  C   -0.126077   0.001229   0.006858  -0.002868
     4  C    0.057885  -0.000099  -0.001076   0.001419
     5  H   -0.016506   0.000896   0.000340  -0.000396
     6  C    0.332925   0.026169   0.026135   0.040634
     7  C    0.058172  -0.001079  -0.000119   0.001427
     8  H   -0.016453   0.000338   0.000892  -0.000394
     9  C   -0.023857  -0.000168  -0.000168  -0.000610
    10  H   -0.000167   0.000128   0.000025   0.000005
    11  C    0.739861  -0.137862   0.001069   0.003239
    12  C    0.740033   0.000969  -0.138033   0.003313
    13  H   -0.000169   0.000025   0.000128   0.000005
    14  H   -0.000610   0.000005   0.000005  -0.000011
    15  C   -0.271920   0.448130   0.024133  -0.053192
    16  H    0.038811  -0.014391  -0.000189   0.000498
    17  C   -0.272653   0.024158   0.448232  -0.053303
    18  H    0.038733  -0.000188  -0.014391   0.000497
    19  C    6.628077  -0.097277  -0.097290   0.443066
    20  H   -0.097277   0.481928   0.001081  -0.009768
    21  H   -0.097290   0.001081   0.481934  -0.009772
    22  H    0.443066  -0.009768  -0.009772   0.476140
 Mulliken charges:
               1
     1  C    1.344722
     2  C   -0.630952
     3  C   -0.628874
     4  C   -0.267761
     5  H    0.150078
     6  C    1.344325
     7  C   -0.267545
     8  H    0.150070
     9  C   -0.487029
    10  H    0.219094
    11  C   -0.629338
    12  C   -0.630638
    13  H    0.219088
    14  H    0.199280
    15  C   -0.267621
    16  H    0.150085
    17  C   -0.267372
    18  H    0.150041
    19  C   -0.487122
    20  H    0.219086
    21  H    0.219103
    22  H    0.199279
 Sum of Mulliken charges =  -0.00000
 Mulliken charges with hydrogens summed into heavy atoms:
               1
     1  C    1.344722
     2  C   -0.480873
     3  C   -0.478804
     4  C   -0.048667
     6  C    1.344325
     7  C   -0.048456
     9  C   -0.287749
    11  C   -0.479253
    12  C   -0.480597
    15  C   -0.048535
    17  C   -0.048269
    19  C   -0.287843
 Electronic spatial extent (au):  <R**2>=           2311.9410
 Charge=             -0.0000 electrons
 Dipole moment (field-independent basis, Debye):
    X=              0.0000    Y=             -0.0001    Z=              0.0004  Tot=              0.0004
 Quadrupole moment (field-independent basis, Debye-Ang):
   XX=            -61.5319   YY=            -62.4541   ZZ=            -76.6656
   XY=             -0.0003   XZ=              0.0010   YZ=              0.0001
 Traceless Quadrupole moment (field-independent basis, Debye-Ang):
   XX=              5.3520   YY=              4.4297   ZZ=             -9.7817
   XY=             -0.0003   XZ=              0.0010   YZ=              0.0001
 Octapole moment (field-independent basis, Debye-Ang**2):
  XXX=              0.0001  YYY=              0.0012  ZZZ=              0.0012  XYY=             -0.0002
  XXY=             -0.0016  XXZ=              0.0018  XZZ=              0.0003  YZZ=             -0.0003
  YYZ=              0.0027  XYZ=              9.9181
 Hexadecapole moment (field-independent basis, Debye-Ang**3):
 XXXX=          -2299.2822 YYYY=           -515.9497 ZZZZ=           -131.3755 XXXY=             -0.0024
 XXXZ=              0.0229 YYYX=             -0.0061 YYYZ=              0.0004 ZZZX=              0.0009
 ZZZY=              0.0001 XXYY=           -474.7117 XXZZ=           -501.1609 YYZZ=           -118.4564
 XXYZ=              0.0020 YYXZ=              0.0006 ZZXY=              0.0033
 N-N= 5.992028625802D+02 E-N=-2.272645837986D+03  KE= 4.610164650917D+02
 No NMR shielding tensors so no spin-rotation constants.
 Leave Link  601 at Sat Nov  5 21:36:23 2022, MaxMem= 16106127360 cpu:               4.2 elap:               0.2
 (Enter /opt/ap/G16/B01/g16/l9999.exe)
 1\1\GINC-N03\SP\RwB97XD\6-311++G(d,p)\C12H10\ROOT\05-Nov-2022\0\\#P wB
 97XD/6-311++G(d,p) scf=maxcycle=512\\_conf024.gjf nmol_natom 1_22\\0,1
 \C\C,1,1.40491871\C,1,1.40495292,2,118.20503621\C,2,1.3939373,1,120.91
 08946,3,0.05365643,0\H,2,1.08593095,1,119.3452094,3,-178.3624307,0\C,1
 ,1.48449301,2,120.90144423,4,-179.96388019,0\C,3,1.39389842,1,120.9105
 0598,2,0.03587687,0\H,3,1.08593608,1,119.34159615,2,-178.38281524,0\C,
 4,1.39606958,2,120.24555868,1,-0.09283196,0\H,4,1.08627898,2,119.66792
 041,1,-179.51486187,0\C,6,1.40492034,1,120.90156908,2,30.,0\C,6,1.4049
 5329,1,120.89324856,2,-150.,0\H,7,1.08627928,3,119.67027175,1,-179.512
 58183,0\H,9,1.08597601,4,120.2602535,2,-179.95233103,0\C,11,1.39393437
 ,6,120.91099656,1,-179.95869964,0\H,11,1.08593173,6,119.34475907,1,1.6
 1891886,0\C,12,1.39390147,6,120.91022615,1,-179.94297913,0\H,12,1.0859
 3608,6,119.34175044,1,1.63241608,0\C,15,1.39607161,11,120.24535737,6,-
 0.10315482,0\H,15,1.08627786,11,119.66861247,6,-179.51844254,0\H,17,1.
 08627825,12,119.6702798,6,-179.51590091,0\H,19,1.08597601,15,120.25988
 597,11,-179.94731581,0\\Version=ES64L-G16RevB.01\State=1-A\HF=-463.249
 8317\RMSD=6.440e-09\Dipole=0.0000027,-0.0001492,0.0000132\Quadrupole=3
 .6121131,-6.5652435,2.9531304,-1.3551955,0.6135881,2.2662429\PG=C01 [X
 (C12H10)]\\@


 THE FIRST MORNING OF CREATION WROTE WHAT THE LAST DAWN OF
 RECKONING SHALL READ. -- OMAR KHAYYAM
 Job cpu time:       0 days  0 hours 13 minutes 18.4 seconds.
 Elapsed time:       0 days  0 hours  0 minutes 25.1 seconds.
 File lengths (MBytes):  RWF=     62 Int=      0 D2E=      0 Chk=      8 Scr=      1
 Normal termination of Gaussian 16 at Sat Nov  5 21:36:23 2022.
