 Entering Gaussian System, Link 0=g16
 Input=_conf014.gjf
 Output=_conf014.log
 Initial command:
 /opt/ap/G16/B01/g16/l1.exe "/tmp2/scr/Gau-2066.inp" -scrdir="/tmp2/scr/"
 Entering Link 1 = /opt/ap/G16/B01/g16/l1.exe PID=      2067.
  
 Copyright (c) 1988-2017, Gaussian, Inc.  All Rights Reserved.
  
 This is part of the Gaussian(R) 16 program.  It is based on
 the Gaussian(R) 09 system (copyright 2009, Gaussian, Inc.),
 the Gaussian(R) 03 system (copyright 2003, Gaussian, Inc.),
 the Gaussian(R) 98 system (copyright 1998, Gaussian, Inc.),
 the Gaussian(R) 94 system (copyright 1995, Gaussian, Inc.),
 the Gaussian 92(TM) system (copyright 1992, Gaussian, Inc.),
 the Gaussian 90(TM) system (copyright 1990, Gaussian, Inc.),
 the Gaussian 88(TM) system (copyright 1988, Gaussian, Inc.),
 the Gaussian 86(TM) system (copyright 1986, Carnegie Mellon
 University), and the Gaussian 82(TM) system (copyright 1983,
 Carnegie Mellon University). Gaussian is a federally registered
 trademark of Gaussian, Inc.
  
 This software contains proprietary and confidential information,
 including trade secrets, belonging to Gaussian, Inc.
  
 This software is provided under written license and may be
 used, copied, transmitted, or stored only in accord with that
 written license.
  
 The following legend is applicable only to US Government
 contracts under FAR:
  
                    RESTRICTED RIGHTS LEGEND
  
 Use, reproduction and disclosure by the US Government is
 subject to restrictions as set forth in subparagraphs (a)
 and (c) of the Commercial Computer Software - Restricted
 Rights clause in FAR 52.227-19.
  
 Gaussian, Inc.
 340 Quinnipiac St., Bldg. 40, Wallingford CT 06492
  
  
 ---------------------------------------------------------------
 Warning -- This program may not be used in any manner that
 competes with the business of Gaussian, Inc. or will provide
 assistance to any competitor of Gaussian, Inc.  The licensee
 of this program is prohibited from giving any competitor of
 Gaussian, Inc. access to this program.  By using this program,
 the user acknowledges that Gaussian, Inc. is engaged in the
 business of creating and licensing software in the field of
 computational chemistry and represents and warrants to the
 licensee that it is not a competitor of Gaussian, Inc. and that
 it will not use this program in any manner prohibited above.
 ---------------------------------------------------------------
  

 Cite this work as:
 Gaussian 16, Revision B.01,
 M. J. Frisch, G. W. Trucks, H. B. Schlegel, G. E. Scuseria, 
 M. A. Robb, J. R. Cheeseman, G. Scalmani, V. Barone, 
 G. A. Petersson, H. Nakatsuji, X. Li, M. Caricato, A. V. Marenich, 
 J. Bloino, B. G. Janesko, R. Gomperts, B. Mennucci, H. P. Hratchian, 
 J. V. Ortiz, A. F. Izmaylov, J. L. Sonnenberg, D. Williams-Young, 
 F. Ding, F. Lipparini, F. Egidi, J. Goings, B. Peng, A. Petrone, 
 T. Henderson, D. Ranasinghe, V. G. Zakrzewski, J. Gao, N. Rega, 
 G. Zheng, W. Liang, M. Hada, M. Ehara, K. Toyota, R. Fukuda, 
 J. Hasegawa, M. Ishida, T. Nakajima, Y. Honda, O. Kitao, H. Nakai, 
 T. Vreven, K. Throssell, J. A. Montgomery, Jr., J. E. Peralta, 
 F. Ogliaro, M. J. Bearpark, J. J. Heyd, E. N. Brothers, K. N. Kudin, 
 V. N. Staroverov, T. A. Keith, R. Kobayashi, J. Normand, 
 K. Raghavachari, A. P. Rendell, J. C. Burant, S. S. Iyengar, 
 J. Tomasi, M. Cossi, J. M. Millam, M. Klene, C. Adamo, R. Cammi, 
 J. W. Ochterski, R. L. Martin, K. Morokuma, O. Farkas, 
 J. B. Foresman, and D. J. Fox, Gaussian, Inc., Wallingford CT, 2016.
 
 ******************************************
 Gaussian 16:  ES64L-G16RevB.01 20-Dec-2017
                 5-Nov-2022 
 ******************************************
 %nprocshared=32
 Will use up to   32 processors via shared memory.
 %mem=120GB
 %chk=_conf014.chk
 ----------------------------------------
 #P wB97XD/6-311++G(d,p) scf=maxcycle=512
 ----------------------------------------
 1/38=1,172=1/1;
 2/12=2,17=6,18=5,40=1/2;
 3/5=4,6=6,7=1111,11=2,25=1,30=1,74=-58/1,2,3;
 4//1;
 5/5=2,7=512,38=5/2;
 6/7=2,8=2,9=2,10=2,28=1/1;
 99/5=1,9=1/99;
 Leave Link    1 at Sat Nov  5 21:34:37 2022, MaxMem= 16106127360 cpu:               1.4 elap:               0.1
 (Enter /opt/ap/G16/B01/g16/l101.exe)
 ----------------------------
 _conf014.gjf nmol_natom 1_22
 ----------------------------
 Symbolic Z-matrix:
 Charge =  0 Multiplicity = 1
 C
 C                    1     1.40492 
 C                    1     1.40495  2     118.20504 
 C                    2     1.39394  1     120.91089  3     0.05366  0
 H                    2     1.08593  1     119.34521  3    -178.36243  0
 C                    1     1.48449  2     120.90144  4    -179.96388  0
 C                    3     1.3939   1     120.91051  2     0.03588  0
 H                    3     1.08594  1     119.3416  2    -178.38282  0
 C                    4     1.39607  2     120.24556  1    -0.09283  0
 H                    4     1.08628  2     119.66792  1    -179.51486  0
 C                    6     1.40492  1     120.90157  2    -20.      0
 C                    6     1.40495  1     120.89325  2     160.     0
 H                    7     1.08628  3     119.67027  1    -179.51258  0
 H                    9     1.08598  4     120.26025  2    -179.95233  0
 C                    11    1.39393  6     120.911  1    -179.9587  0
 H                    11    1.08593  6     119.34476  1     1.61892  0
 C                    12    1.3939   6     120.91023  1    -179.94298  0
 H                    12    1.08594  6     119.34175  1     1.63242  0
 C                    15    1.39607  11    120.24536  6    -0.10315  0
 H                    15    1.08628  11    119.66861  6    -179.51844  0
 H                    17    1.08628  12    119.67028  6    -179.5159  0
 H                    19    1.08598  15    120.25989  11   -179.94732  0
 
 ITRead=  0  0  0  0  0  0  0  0  0  0  0  0  0  0  0  0  0  0  0  0
 ITRead=  0  0
 MicOpt= -1 -1 -1 -1 -1 -1 -1 -1 -1 -1 -1 -1 -1 -1 -1 -1 -1 -1 -1 -1
 MicOpt= -1 -1
 NAtoms=     22 NQM=       22 NQMF=       0 NMMI=      0 NMMIF=      0
                NMic=       0 NMicF=      0.
                    Isotopes and Nuclear Properties:
 (Nuclear quadrupole moments (NQMom) in fm**2, nuclear magnetic moments (NMagM)
  in nuclear magnetons)

  Atom         1           2           3           4           5           6           7           8           9          10
 IAtWgt=          12          12          12          12           1          12          12           1          12           1
 AtmWgt=  12.0000000  12.0000000  12.0000000  12.0000000   1.0078250  12.0000000  12.0000000   1.0078250  12.0000000   1.0078250
 NucSpn=           0           0           0           0           1           0           0           1           0           1
 AtZEff=  -0.0000000  -0.0000000  -0.0000000  -0.0000000  -0.0000000  -0.0000000  -0.0000000  -0.0000000  -0.0000000  -0.0000000
 NQMom=    0.0000000   0.0000000   0.0000000   0.0000000   0.0000000   0.0000000   0.0000000   0.0000000   0.0000000   0.0000000
 NMagM=    0.0000000   0.0000000   0.0000000   0.0000000   2.7928460   0.0000000   0.0000000   2.7928460   0.0000000   2.7928460
 AtZNuc=   6.0000000   6.0000000   6.0000000   6.0000000   1.0000000   6.0000000   6.0000000   1.0000000   6.0000000   1.0000000

  Atom        11          12          13          14          15          16          17          18          19          20
 IAtWgt=          12          12           1           1          12           1          12           1          12           1
 AtmWgt=  12.0000000  12.0000000   1.0078250   1.0078250  12.0000000   1.0078250  12.0000000   1.0078250  12.0000000   1.0078250
 NucSpn=           0           0           1           1           0           1           0           1           0           1
 AtZEff=  -0.0000000  -0.0000000  -0.0000000  -0.0000000  -0.0000000  -0.0000000  -0.0000000  -0.0000000  -0.0000000  -0.0000000
 NQMom=    0.0000000   0.0000000   0.0000000   0.0000000   0.0000000   0.0000000   0.0000000   0.0000000   0.0000000   0.0000000
 NMagM=    0.0000000   0.0000000   2.7928460   2.7928460   0.0000000   2.7928460   0.0000000   2.7928460   0.0000000   2.7928460
 AtZNuc=   6.0000000   6.0000000   1.0000000   1.0000000   6.0000000   1.0000000   6.0000000   1.0000000   6.0000000   1.0000000

  Atom        21          22
 IAtWgt=           1           1
 AtmWgt=   1.0078250   1.0078250
 NucSpn=           1           1
 AtZEff=  -0.0000000  -0.0000000
 NQMom=    0.0000000   0.0000000
 NMagM=    2.7928460   2.7928460
 AtZNuc=   1.0000000   1.0000000
 Leave Link  101 at Sat Nov  5 21:34:37 2022, MaxMem= 16106127360 cpu:               5.3 elap:               0.2
 (Enter /opt/ap/G16/B01/g16/l202.exe)
                          Input orientation:                          
 ---------------------------------------------------------------------
 Center     Atomic      Atomic             Coordinates (Angstroms)
 Number     Number       Type             X           Y           Z
 ---------------------------------------------------------------------
      1          6           0        0.000000    0.000000    0.000000
      2          6           0        0.000000    0.000000    1.404919
      3          6           0        1.238131    0.000000   -0.664020
      4          6           0        1.195952    0.001120    2.120990
      5          1           0       -0.946201   -0.027051    1.937101
      6          6           0       -1.273772   -0.000390   -0.762381
      7          6           0        2.434381   -0.000749    0.051479
      8          1           0        1.259850    0.026715   -1.749411
      9          6           0        2.418826    0.000311    1.447501
     10          1           0        1.172413   -0.006894    3.206985
     11          6           0       -2.474506   -0.413060   -0.160930
     12          6           0       -1.311038    0.411947   -2.104946
     13          1           0        3.380326    0.007295   -0.482493
     14          1           0        3.350700    0.000403    2.005133
     15          6           0       -3.670533   -0.414315   -0.876871
     16          1           0       -2.471850   -0.710309    0.883524
     17          6           0       -2.507087    0.412841   -2.820786
     18          1           0       -0.389266    0.709233   -2.596083
     19          6           0       -3.692480   -0.000662   -2.210072
     20          1           0       -4.588597   -0.729966   -0.389508
     21          1           0       -2.511378    0.728183   -3.860277
     22          1           0       -4.624292   -0.000735   -2.767810
 ---------------------------------------------------------------------
                    Distance matrix (angstroms):
                    1          2          3          4          5
     1  C    0.000000
     2  C    1.404919   0.000000
     3  C    1.404953   2.411116   0.000000
     4  C    2.434934   1.393937   2.785330   0.000000
     5  H    2.156012   1.085931   3.396745   2.150216   0.000000
     6  C    1.484493   2.513898   2.513829   3.796494   2.719415
     7  C    2.434925   2.785320   1.393898   2.411760   3.870994
     8  H    2.156008   3.396723   1.085936   3.871013   4.296501
     9  C    2.818861   2.419201   2.419207   1.396070   3.400568
    10  H    3.414579   2.149893   3.871569   1.086279   2.470128
    11  C    2.513901   2.957310   3.769270   4.341770   2.624206
    12  C    2.513826   3.769307   2.957065   4.930752   4.082153
    13  H    3.414594   3.871560   2.149884   3.398478   4.957262
    14  H    3.904837   3.404035   3.404016   2.157861   4.297527
    15  C    3.796494   4.341777   4.930715   5.730832   3.935784
    16  H    2.719411   2.624202   4.082082   3.935763   1.975974
    17  C    3.796414   4.930771   4.341513   6.188955   5.026665
    18  H    2.719225   4.081979   2.623795   5.026442   4.626235
    19  C    4.303351   5.167453   5.167321   6.531070   4.974112
    20  H    4.662595   4.980767   5.878688   6.348078   4.378841
    21  H    4.662511   5.878738   4.980475   7.074495   6.052252
    22  H    5.389327   6.228622   6.228478   7.601027   5.972038
                    6          7          8          9         10
     6  C    0.000000
     7  C    3.796415   0.000000
     8  H    2.719228   2.150228   0.000000
     9  C    4.303354   1.396108   3.400612   0.000000
    10  H    4.662588   3.398502   4.957280   2.156243   0.000000
    11  C    1.404920   4.930749   4.081922   5.167458   4.980747
    12  C    1.404953   4.341503   2.623789   5.167321   5.878739
    13  H    4.662512   1.086279   2.470197   2.156248   4.299689
    14  H    5.389330   2.157871   4.297551   1.085976   2.487858
    15  C    2.434934   6.188929   5.026381   6.531072   6.348070
    16  H    2.156010   5.026617   4.626136   4.974109   4.378803
    17  C    2.434925   5.730538   3.935321   6.530932   7.074526
    18  H    2.156010   3.935307   1.975415   4.973783   6.052047
    19  C    2.818858   6.530930   4.973784   7.122212   7.280915
    20  H    3.414583   7.074492   6.051961   7.280926   6.829848
    21  H    3.414594   6.347733   4.378353   7.280743   8.003552
    22  H    3.904834   7.600872   5.971684   8.208188   8.324662
                   11         12         13         14         15
    11  C    0.000000
    12  C    2.411119   0.000000
    13  H    5.878703   4.980460   0.000000
    14  H    6.228628   6.228477   2.487812   0.000000
    15  C    1.393934   2.785336   7.074453   7.601030   0.000000
    16  H    1.085932   3.396748   6.052183   5.972036   2.150219
    17  C    2.785320   1.393901   6.347732   7.600873   2.411763
    18  H    3.396725   1.085936   4.378333   5.971681   3.871016
    19  C    2.419198   2.419208   7.280740   8.208188   1.396072
    20  H    2.149897   3.871575   8.003495   8.324673   1.086278
    21  H    3.871558   2.149886   6.829442   8.324462   3.398478
    22  H    3.404029   3.404019   8.324460   9.294164   2.157859
                   16         17         18         19         20
    16  H    0.000000
    17  C    3.870997   0.000000
    18  H    4.296501   2.150234   0.000000
    19  C    3.400569   1.396107   3.400615   0.000000
    20  H    2.470145   3.398500   4.957282   2.156238   0.000000
    21  H    4.957264   1.086278   2.470204   2.156245   4.299683
    22  H    4.297527   2.157871   4.297556   1.085976   2.487844
                   21         22
    21  H    0.000000
    22  H    2.487812   0.000000
 Stoichiometry    C12H10
 Framework group  C1[X(C12H10)]
 Deg. of freedom    60
 Full point group                 C1      NOp   1
 Largest Abelian subgroup         C1      NOp   1
 Largest concise Abelian subgroup C1      NOp   1
                         Standard orientation:                         
 ---------------------------------------------------------------------
 Center     Atomic      Atomic             Coordinates (Angstroms)
 Number     Number       Type             X           Y           Z
 ---------------------------------------------------------------------
      1          6           0       -0.742246   -0.000069   -0.000152
      2          6           0       -1.463745   -1.187255   -0.209491
      3          6           0       -1.463626    1.187189    0.209428
      4          6           0       -2.857682   -1.187342   -0.210422
      5          1           0       -0.925149   -2.120172   -0.346701
      6          6           0        0.742247   -0.000078    0.000006
      7          6           0       -2.857524    1.187411    0.210450
      8          1           0       -0.924861    2.119992    0.346787
      9          6           0       -3.561107    0.000060    0.000003
     10          1           0       -3.395198   -2.118328   -0.366450
     11          6           0        1.463735   -1.187249    0.209484
     12          6           0        1.463636    1.187215   -0.209342
     13          1           0       -3.394978    2.118408    0.366621
     14          1           0       -4.647083    0.000130    0.000095
     15          6           0        2.857669   -1.187334    0.210521
     16          1           0        0.925121   -2.120137    0.346822
     17          6           0        2.857537    1.187407   -0.210438
     18          1           0        0.924880    2.120045   -0.346556
     19          6           0        3.561105    0.000021   -0.000149
     20          1           0        3.395185   -2.118290    0.366715
     21          1           0        3.395003    2.118418   -0.366479
     22          1           0        4.647081    0.000075   -0.000239
 ---------------------------------------------------------------------
 Rotational constants (GHZ):           2.8585222           0.5547045           0.4690904
 Leave Link  202 at Sat Nov  5 21:34:37 2022, MaxMem= 16106127360 cpu:               0.3 elap:               0.0
 (Enter /opt/ap/G16/B01/g16/l301.exe)
 Standard basis: 6-311++G(d,p) (5D, 7F)
 Ernie: Thresh=  0.10000D-02 Tol=  0.10000D-05 Strict=F.
 There are   346 symmetry adapted cartesian basis functions of A   symmetry.
 There are   334 symmetry adapted basis functions of A   symmetry.
   334 basis functions,   522 primitive gaussians,   346 cartesian basis functions
    41 alpha electrons       41 beta electrons
       nuclear repulsion energy       599.5168874936 Hartrees.
 IExCor= 4639 DFT=T Ex+Corr=wB97XD ExCW=0 ScaHFX=  1.000000
 ScaDFX=  1.000000  1.000000  1.000000  1.000000 ScalE2=  1.000000  1.000000
 IRadAn=      5 IRanWt=     -1 IRanGd=            0 ICorTp=0 IEmpDi=121
 HFx  wShort=  0.000000 wLong=  0.200000 cFull=  0.222036 cShort=  0.000000 cLong=  0.777964
 DFx  wShort=  0.000000 wLong=  0.200000 cFull=  0.000000 cShort=  0.000000 cLong=  1.000000
 NAtoms=   22 NActive=   22 NUniq=   22 SFac= 1.00D+00 NAtFMM=   60 NAOKFM=F Big=F
 Integral buffers will be    131072 words long.
 Raffenetti 2 integral format.
 Two-electron integral symmetry is turned on.
 R6Disp:  Grimme-D2 Dispersion energy=       -0.0118786507 Hartrees.
 Nuclear repulsion after empirical dispersion term =      599.5050088429 Hartrees.
 Leave Link  301 at Sat Nov  5 21:34:37 2022, MaxMem= 16106127360 cpu:               1.2 elap:               0.0
 (Enter /opt/ap/G16/B01/g16/l302.exe)
 NPDir=0 NMtPBC=     1 NCelOv=     1 NCel=       1 NClECP=     1 NCelD=      1
         NCelK=      1 NCelE2=     1 NClLst=     1 CellRange=     0.0.
 One-electron integrals computed using PRISM.
 One-electron integral symmetry used in STVInt
 NBasis=   334 RedAO= T EigKep=  1.27D-06  NBF=   334
 NBsUse=   331 1.00D-06 EigRej=  9.25D-07 NBFU=   331
 Precomputing XC quadrature grid using
 IXCGrd= 4 IRadAn=           5 IRanWt=          -1 IRanGd=           0 AccXCQ= 0.00D+00.
 Generated NRdTot=       0 NPtTot=           0 NUsed=           0 NTot=          32
 NSgBfM=   346   346   346   346   346 MxSgAt=    22 MxSgA2=    22.
 Leave Link  302 at Sat Nov  5 21:34:37 2022, MaxMem= 16106127360 cpu:               7.7 elap:               0.2
 (Enter /opt/ap/G16/B01/g16/l303.exe)
 DipDrv:  MaxL=1.
 Leave Link  303 at Sat Nov  5 21:34:37 2022, MaxMem= 16106127360 cpu:               1.6 elap:               0.1
 (Enter /opt/ap/G16/B01/g16/l401.exe)
 ExpMin= 3.60D-02 ExpMax= 4.56D+03 ExpMxC= 6.82D+02 IAcc=3 IRadAn=         5 AccDes= 0.00D+00
 Harris functional with IExCor= 4639 and IRadAn=       5 diagonalized for initial guess.
 HarFok:  IExCor= 4639 AccDes= 0.00D+00 IRadAn=         5 IDoV= 1 UseB2=F ITyADJ=14
 ICtDFT=  3500011 ScaDFX=  1.000000  1.000000  1.000000  1.000000
 FoFCou: FMM=F IPFlag=           0 FMFlag=      100000 FMFlg1=           0
         NFxFlg=           0 DoJE=T BraDBF=F KetDBF=T FulRan=T
         wScrn=  0.000000 ICntrl=       500 IOpCl=  0 I1Cent=   200000004 NGrid=           0
         NMat0=    1 NMatS0=      1 NMatT0=    0 NMatD0=    1 NMtDS0=    0 NMtDT0=    0
 Petite list used in FoFCou.
 Harris En= -441.934976740608    
 JPrj=0 DoOrth=F DoCkMO=F.
 Leave Link  401 at Sat Nov  5 21:34:38 2022, MaxMem= 16106127360 cpu:              19.9 elap:               0.6
 (Enter /opt/ap/G16/B01/g16/l502.exe)
 Integral symmetry usage will be decided dynamically.
 Closed shell SCF:
 Using DIIS extrapolation, IDIIS=  1040.
 NGot= 16106127360 LenX= 16105873520 LenY= 16105753363
 Requested convergence on RMS density matrix=1.00D-08 within 512 cycles.
 Requested convergence on MAX density matrix=1.00D-06.
 Requested convergence on             energy=1.00D-06.
 No special actions if energy rises.
 Fock matrices will be formed incrementally for  20 cycles.

 Cycle   1  Pass 1  IDiag  1:
 FoFJK:  IHMeth= 1 ICntrl=       0 DoSepK=T KAlg= 0 I1Cent=           0 FoldK=F
 IRaf=         1 NMat=       1 IRICut=       1 DoRegI=T DoRafI=F ISym2E= 0 IDoP0=0 IntGTp=1.
 FoFCou: FMM=F IPFlag=           0 FMFlag=      100000 FMFlg1=           0
         NFxFlg=           0 DoJE=T BraDBF=F KetDBF=F FulRan=T
         wScrn=  0.000000 ICntrl=       500 IOpCl=  0 I1Cent=           0 NGrid=           0
         NMat0=    1 NMatS0=      1 NMatT0=    0 NMatD0=    1 NMtDS0=    0 NMtDT0=    0
 Symmetry not used in FoFCou.
 E= -463.149456834931    
 DIIS: error= 6.80D-02 at cycle   1 NSaved=   1.
 NSaved= 1 IEnMin= 1 EnMin= -463.149456834931     IErMin= 1 ErrMin= 6.80D-02
 ErrMax= 6.80D-02  0.00D+00 EMaxC= 1.00D-01 BMatC= 9.52D-01 BMatP= 9.52D-01
 IDIUse=3 WtCom= 3.20D-01 WtEn= 6.80D-01
 Coeff-Com:  0.100D+01
 Coeff-En:   0.100D+01
 Coeff:      0.100D+01
 Gap=     0.311 Goal=   None    Shift=    0.000
 GapD=    0.311 DampG=1.000 DampE=0.500 DampFc=0.5000 IDamp=-1.
 Damping current iteration by 5.00D-01
 RMSDP=7.41D-02 MaxDP=5.36D+00              OVMax= 4.59D-02

 Cycle   2  Pass 1  IDiag  1:
 RMSU=  6.46D-03    CP:  7.83D-01
 E= -463.198853745009     Delta-E=       -0.049396910078 Rises=F Damp=T
 DIIS: error= 3.25D-02 at cycle   2 NSaved=   2.
 NSaved= 2 IEnMin= 2 EnMin= -463.198853745009     IErMin= 2 ErrMin= 3.25D-02
 ErrMax= 3.25D-02  0.00D+00 EMaxC= 1.00D-01 BMatC= 2.16D-01 BMatP= 9.52D-01
 IDIUse=3 WtCom= 6.75D-01 WtEn= 3.25D-01
 Coeff-Com: -0.883D+00 0.188D+01
 Coeff-En:   0.000D+00 0.100D+01
 Coeff:     -0.596D+00 0.160D+01
 Gap=     0.318 Goal=   None    Shift=    0.000
 RMSDP=4.60D-02 MaxDP=3.35D+00 DE=-4.94D-02 OVMax= 3.81D-02

 Cycle   3  Pass 1  IDiag  1:
 RMSU=  5.22D-03    CP:  5.11D-01  1.32D+00
 E= -463.243360742748     Delta-E=       -0.044506997739 Rises=F Damp=F
 DIIS: error= 6.28D-03 at cycle   3 NSaved=   3.
 NSaved= 3 IEnMin= 3 EnMin= -463.243360742748     IErMin= 3 ErrMin= 6.28D-03
 ErrMax= 6.28D-03  0.00D+00 EMaxC= 1.00D-01 BMatC= 4.25D-03 BMatP= 2.16D-01
 IDIUse=3 WtCom= 9.37D-01 WtEn= 6.28D-02
 Coeff-Com: -0.359D+00 0.765D+00 0.594D+00
 Coeff-En:   0.000D+00 0.000D+00 0.100D+01
 Coeff:     -0.337D+00 0.717D+00 0.619D+00
 Gap=     0.317 Goal=   None    Shift=    0.000
 RMSDP=2.40D-03 MaxDP=1.25D-01 DE=-4.45D-02 OVMax= 2.11D-02

 Cycle   4  Pass 1  IDiag  1:
 RMSU=  8.93D-04    CP:  5.02D-01  1.51D+00  7.88D-01
 E= -463.247101533627     Delta-E=       -0.003740790879 Rises=F Damp=F
 DIIS: error= 2.02D-03 at cycle   4 NSaved=   4.
 NSaved= 4 IEnMin= 4 EnMin= -463.247101533627     IErMin= 4 ErrMin= 2.02D-03
 ErrMax= 2.02D-03  0.00D+00 EMaxC= 1.00D-01 BMatC= 2.97D-04 BMatP= 4.25D-03
 IDIUse=3 WtCom= 9.80D-01 WtEn= 2.02D-02
 Coeff-Com: -0.128D+00 0.274D+00 0.296D+00 0.558D+00
 Coeff-En:   0.000D+00 0.000D+00 0.000D+00 0.100D+01
 Coeff:     -0.125D+00 0.268D+00 0.290D+00 0.567D+00
 Gap=     0.316 Goal=   None    Shift=    0.000
 RMSDP=1.79D-03 MaxDP=1.32D-01 DE=-3.74D-03 OVMax= 5.87D-03

 Cycle   5  Pass 1  IDiag  1:
 RMSU=  3.69D-04    CP:  4.92D-01  1.57D+00  8.28D-01  9.06D-01
 E= -463.247414845873     Delta-E=       -0.000313312246 Rises=F Damp=F
 DIIS: error= 4.41D-04 at cycle   5 NSaved=   5.
 NSaved= 5 IEnMin= 5 EnMin= -463.247414845873     IErMin= 5 ErrMin= 4.41D-04
 ErrMax= 4.41D-04  0.00D+00 EMaxC= 1.00D-01 BMatC= 9.61D-06 BMatP= 2.97D-04
 IDIUse=3 WtCom= 9.96D-01 WtEn= 4.41D-03
 Coeff-Com:  0.279D-01-0.597D-01-0.335D-01 0.126D+00 0.939D+00
 Coeff-En:   0.000D+00 0.000D+00 0.000D+00 0.000D+00 0.100D+01
 Coeff:      0.278D-01-0.594D-01-0.334D-01 0.126D+00 0.939D+00
 Gap=     0.316 Goal=   None    Shift=    0.000
 RMSDP=6.02D-04 MaxDP=4.49D-02 DE=-3.13D-04 OVMax= 1.78D-03

 Cycle   6  Pass 1  IDiag  1:
 RMSU=  6.85D-05    CP:  4.89D-01  1.58D+00  8.56D-01  1.03D+00  1.23D+00
 E= -463.247428168132     Delta-E=       -0.000013322259 Rises=F Damp=F
 DIIS: error= 6.11D-05 at cycle   6 NSaved=   6.
 NSaved= 6 IEnMin= 6 EnMin= -463.247428168132     IErMin= 6 ErrMin= 6.11D-05
 ErrMax= 6.11D-05  0.00D+00 EMaxC= 1.00D-01 BMatC= 4.61D-07 BMatP= 9.61D-06
 IDIUse=1 WtCom= 1.00D+00 WtEn= 0.00D+00
 Coeff-Com:  0.118D-01-0.253D-01-0.167D-01 0.315D-01 0.320D+00 0.679D+00
 Coeff:      0.118D-01-0.253D-01-0.167D-01 0.315D-01 0.320D+00 0.679D+00
 Gap=     0.316 Goal=   None    Shift=    0.000
 RMSDP=1.70D-05 MaxDP=7.48D-04 DE=-1.33D-05 OVMax= 2.80D-04

 Cycle   7  Pass 1  IDiag  1:
 RMSU=  1.18D-05    CP:  4.89D-01  1.58D+00  8.57D-01  1.03D+00  1.25D+00
                    CP:  1.03D+00
 E= -463.247428737051     Delta-E=       -0.000000568919 Rises=F Damp=F
 DIIS: error= 2.62D-05 at cycle   7 NSaved=   7.
 NSaved= 7 IEnMin= 7 EnMin= -463.247428737051     IErMin= 7 ErrMin= 2.62D-05
 ErrMax= 2.62D-05  0.00D+00 EMaxC= 1.00D-01 BMatC= 5.88D-08 BMatP= 4.61D-07
 IDIUse=1 WtCom= 1.00D+00 WtEn= 0.00D+00
 Coeff-Com: -0.246D-02 0.529D-02 0.230D-02-0.193D-01-0.114D+00 0.184D+00
 Coeff-Com:  0.944D+00
 Coeff:     -0.246D-02 0.529D-02 0.230D-02-0.193D-01-0.114D+00 0.184D+00
 Coeff:      0.944D+00
 Gap=     0.316 Goal=   None    Shift=    0.000
 RMSDP=3.92D-05 MaxDP=2.82D-03 DE=-5.69D-07 OVMax= 2.13D-04

 Cycle   8  Pass 1  IDiag  1:
 RMSU=  3.69D-06    CP:  4.88D-01  1.58D+00  8.59D-01  1.04D+00  1.28D+00
                    CP:  1.15D+00  1.22D+00
 E= -463.247428849240     Delta-E=       -0.000000112189 Rises=F Damp=F
 DIIS: error= 4.59D-06 at cycle   8 NSaved=   8.
 NSaved= 8 IEnMin= 8 EnMin= -463.247428849240     IErMin= 8 ErrMin= 4.59D-06
 ErrMax= 4.59D-06  0.00D+00 EMaxC= 1.00D-01 BMatC= 1.17D-09 BMatP= 5.88D-08
 IDIUse=1 WtCom= 1.00D+00 WtEn= 0.00D+00
 Coeff-Com: -0.334D-03 0.713D-03 0.474D-03-0.109D-02-0.684D-02-0.160D-01
 Coeff-Com: -0.369D-01 0.106D+01
 Coeff:     -0.334D-03 0.713D-03 0.474D-03-0.109D-02-0.684D-02-0.160D-01
 Coeff:     -0.369D-01 0.106D+01
 Gap=     0.316 Goal=   None    Shift=    0.000
 RMSDP=8.16D-06 MaxDP=6.04D-04 DE=-1.12D-07 OVMax= 4.13D-05

 Cycle   9  Pass 1  IDiag  1:
 RMSU=  8.97D-07    CP:  4.88D-01  1.58D+00  8.59D-01  1.04D+00  1.28D+00
                    CP:  1.15D+00  1.31D+00  1.21D+00
 E= -463.247428852979     Delta-E=       -0.000000003739 Rises=F Damp=F
 DIIS: error= 2.36D-06 at cycle   9 NSaved=   9.
 NSaved= 9 IEnMin= 9 EnMin= -463.247428852979     IErMin= 9 ErrMin= 2.36D-06
 ErrMax= 2.36D-06  0.00D+00 EMaxC= 1.00D-01 BMatC= 3.17D-10 BMatP= 1.17D-09
 IDIUse=1 WtCom= 1.00D+00 WtEn= 0.00D+00
 Coeff-Com:  0.171D-03-0.370D-03-0.910D-04 0.198D-02 0.115D-01-0.262D-01
 Coeff-Com: -0.132D+00 0.393D+00 0.752D+00
 Coeff:      0.171D-03-0.370D-03-0.910D-04 0.198D-02 0.115D-01-0.262D-01
 Coeff:     -0.132D+00 0.393D+00 0.752D+00
 Gap=     0.316 Goal=   None    Shift=    0.000
 RMSDP=2.60D-06 MaxDP=1.96D-04 DE=-3.74D-09 OVMax= 1.63D-05

 Cycle  10  Pass 1  IDiag  1:
 RMSU=  1.98D-07    CP:  4.89D-01  1.58D+00  8.59D-01  1.04D+00  1.28D+00
                    CP:  1.15D+00  1.32D+00  1.25D+00  1.30D+00
 E= -463.247428853520     Delta-E=       -0.000000000541 Rises=F Damp=F
 DIIS: error= 3.58D-07 at cycle  10 NSaved=  10.
 NSaved=10 IEnMin=10 EnMin= -463.247428853520     IErMin=10 ErrMin= 3.58D-07
 ErrMax= 3.58D-07  0.00D+00 EMaxC= 1.00D-01 BMatC= 2.13D-11 BMatP= 3.17D-10
 IDIUse=1 WtCom= 1.00D+00 WtEn= 0.00D+00
 Coeff-Com:  0.555D-04-0.119D-03-0.456D-04 0.475D-03 0.247D-02-0.294D-02
 Coeff-Com: -0.221D-01-0.320D-01 0.176D+00 0.879D+00
 Coeff:      0.555D-04-0.119D-03-0.456D-04 0.475D-03 0.247D-02-0.294D-02
 Coeff:     -0.221D-01-0.320D-01 0.176D+00 0.879D+00
 Gap=     0.316 Goal=   None    Shift=    0.000
 RMSDP=1.14D-06 MaxDP=8.83D-05 DE=-5.41D-10 OVMax= 3.54D-06

 Cycle  11  Pass 1  IDiag  1:
 RMSU=  7.64D-08    CP:  4.89D-01  1.58D+00  8.58D-01  1.04D+00  1.28D+00
                    CP:  1.15D+00  1.33D+00  1.25D+00  1.41D+00  1.20D+00
 E= -463.247428853563     Delta-E=       -0.000000000043 Rises=F Damp=F
 DIIS: error= 1.13D-07 at cycle  11 NSaved=  11.
 NSaved=11 IEnMin=11 EnMin= -463.247428853563     IErMin=11 ErrMin= 1.13D-07
 ErrMax= 1.13D-07  0.00D+00 EMaxC= 1.00D-01 BMatC= 8.29D-13 BMatP= 2.13D-11
 IDIUse=1 WtCom= 1.00D+00 WtEn= 0.00D+00
 Coeff-Com: -0.138D-04 0.301D-04 0.114D-04-0.160D-03-0.962D-03 0.233D-02
 Coeff-Com:  0.978D-02-0.265D-01-0.356D-01-0.104D+00 0.115D+01
 Coeff:     -0.138D-04 0.301D-04 0.114D-04-0.160D-03-0.962D-03 0.233D-02
 Coeff:      0.978D-02-0.265D-01-0.356D-01-0.104D+00 0.115D+01
 Gap=     0.316 Goal=   None    Shift=    0.000
 RMSDP=2.92D-07 MaxDP=2.22D-05 DE=-4.32D-11 OVMax= 9.86D-07

 Cycle  12  Pass 1  IDiag  1:
 RMSU=  1.94D-08    CP:  4.89D-01  1.58D+00  8.58D-01  1.04D+00  1.28D+00
                    CP:  1.14D+00  1.32D+00  1.24D+00  1.45D+00  1.29D+00
                    CP:  1.20D+00
 E= -463.247428853548     Delta-E=        0.000000000015 Rises=F Damp=F
 DIIS: error= 2.52D-08 at cycle  12 NSaved=  12.
 NSaved=12 IEnMin=11 EnMin= -463.247428853563     IErMin=12 ErrMin= 2.52D-08
 ErrMax= 2.52D-08  0.00D+00 EMaxC= 1.00D-01 BMatC= 8.10D-14 BMatP= 8.29D-13
 IDIUse=1 WtCom= 1.00D+00 WtEn= 0.00D+00
 Coeff-Com: -0.135D-05 0.285D-05 0.225D-05-0.652D-05-0.240D-04-0.139D-04
 Coeff-Com: -0.165D-03 0.421D-02 0.709D-03-0.596D-01-0.134D+00 0.119D+01
 Coeff:     -0.135D-05 0.285D-05 0.225D-05-0.652D-05-0.240D-04-0.139D-04
 Coeff:     -0.165D-03 0.421D-02 0.709D-03-0.596D-01-0.134D+00 0.119D+01
 Gap=     0.316 Goal=   None    Shift=    0.000
 RMSDP=1.16D-08 MaxDP=4.78D-07 DE= 1.50D-11 OVMax= 2.64D-07

 Cycle  13  Pass 1  IDiag  1:
 RMSU=  4.40D-09    CP:  4.89D-01  1.58D+00  8.58D-01  1.04D+00  1.28D+00
                    CP:  1.14D+00  1.32D+00  1.24D+00  1.44D+00  1.31D+00
                    CP:  1.26D+00  1.25D+00
 E= -463.247428853556     Delta-E=       -0.000000000008 Rises=F Damp=F
 DIIS: error= 6.04D-09 at cycle  13 NSaved=  13.
 NSaved=13 IEnMin=11 EnMin= -463.247428853563     IErMin=13 ErrMin= 6.04D-09
 ErrMax= 6.04D-09  0.00D+00 EMaxC= 1.00D-01 BMatC= 4.17D-15 BMatP= 8.10D-14
 IDIUse=1 WtCom= 1.00D+00 WtEn= 0.00D+00
 Coeff-Com:  0.557D-06-0.122D-05-0.377D-06 0.729D-05 0.473D-04-0.110D-03
 Coeff-Com: -0.557D-03 0.180D-02 0.316D-02-0.352D-02-0.795D-01 0.143D+00
 Coeff-Com:  0.935D+00
 Coeff:      0.557D-06-0.122D-05-0.377D-06 0.729D-05 0.473D-04-0.110D-03
 Coeff:     -0.557D-03 0.180D-02 0.316D-02-0.352D-02-0.795D-01 0.143D+00
 Coeff:      0.935D+00
 Gap=     0.316 Goal=   None    Shift=    0.000
 RMSDP=1.31D-08 MaxDP=9.42D-07 DE=-8.41D-12 OVMax= 6.09D-08

 Cycle  14  Pass 1  IDiag  1:
 RMSU=  2.30D-09    CP:  4.89D-01  1.58D+00  8.58D-01  1.04D+00  1.28D+00
                    CP:  1.14D+00  1.32D+00  1.24D+00  1.44D+00  1.30D+00
                    CP:  1.26D+00  1.29D+00  1.05D+00
 E= -463.247428853561     Delta-E=       -0.000000000005 Rises=F Damp=F
 DIIS: error= 4.03D-09 at cycle  14 NSaved=  14.
 NSaved=14 IEnMin=11 EnMin= -463.247428853563     IErMin=14 ErrMin= 4.03D-09
 ErrMax= 4.03D-09  0.00D+00 EMaxC= 1.00D-01 BMatC= 1.54D-15 BMatP= 4.17D-15
 IDIUse=1 WtCom= 1.00D+00 WtEn= 0.00D+00
 Coeff-Com:  0.423D-06-0.915D-06-0.426D-06 0.436D-05 0.263D-04-0.523D-04
 Coeff-Com: -0.267D-03 0.424D-03 0.168D-02 0.457D-02-0.249D-01-0.602D-01
 Coeff-Com:  0.470D+00 0.609D+00
 Coeff:      0.423D-06-0.915D-06-0.426D-06 0.436D-05 0.263D-04-0.523D-04
 Coeff:     -0.267D-03 0.424D-03 0.168D-02 0.457D-02-0.249D-01-0.602D-01
 Coeff:      0.470D+00 0.609D+00
 Gap=     0.316 Goal=   None    Shift=    0.000
 RMSDP=5.78D-09 MaxDP=4.29D-07 DE=-4.55D-12 OVMax= 1.78D-08

 SCF Done:  E(RwB97XD) =  -463.247428854     A.U. after   14 cycles
            NFock= 14  Conv=0.58D-08     -V/T= 2.0048
 KE= 4.610244983441D+02 PE=-2.273222572289D+03 EE= 7.494456362488D+02
 Leave Link  502 at Sat Nov  5 21:35:03 2022, MaxMem= 16106127360 cpu:             797.8 elap:              25.0
 (Enter /opt/ap/G16/B01/g16/l601.exe)
 Copying SCF densities to generalized density rwf, IOpCl= 0 IROHF=0.

 **********************************************************************

            Population analysis using the SCF Density.

 **********************************************************************

 Orbital symmetries:
       Occupied  (A) (A) (A) (A) (A) (A) (A) (A) (A) (A) (A) (A)
                 (A) (A) (A) (A) (A) (A) (A) (A) (A) (A) (A) (A)
                 (A) (A) (A) (A) (A) (A) (A) (A) (A) (A) (A) (A)
                 (A) (A) (A) (A) (A)
       Virtual   (A) (A) (A) (A) (A) (A) (A) (A) (A) (A) (A) (A)
                 (A) (A) (A) (A) (A) (A) (A) (A) (A) (A) (A) (A)
                 (A) (A) (A) (A) (A) (A) (A) (A) (A) (A) (A) (A)
                 (A) (A) (A) (A) (A) (A) (A) (A) (A) (A) (A) (A)
                 (A) (A) (A) (A) (A) (A) (A) (A) (A) (A) (A) (A)
                 (A) (A) (A) (A) (A) (A) (A) (A) (A) (A) (A) (A)
                 (A) (A) (A) (A) (A) (A) (A) (A) (A) (A) (A) (A)
                 (A) (A) (A) (A) (A) (A) (A) (A) (A) (A) (A) (A)
                 (A) (A) (A) (A) (A) (A) (A) (A) (A) (A) (A) (A)
                 (A) (A) (A) (A) (A) (A) (A) (A) (A) (A) (A) (A)
                 (A) (A) (A) (A) (A) (A) (A) (A) (A) (A) (A) (A)
                 (A) (A) (A) (A) (A) (A) (A) (A) (A) (A) (A) (A)
                 (A) (A) (A) (A) (A) (A) (A) (A) (A) (A) (A) (A)
                 (A) (A) (A) (A) (A) (A) (A) (A) (A) (A) (A) (A)
                 (A) (A) (A) (A) (A) (A) (A) (A) (A) (A) (A) (A)
                 (A) (A) (A) (A) (A) (A) (A) (A) (A) (A) (A) (A)
                 (A) (A) (A) (A) (A) (A) (A) (A) (A) (A) (A) (A)
                 (A) (A) (A) (A) (A) (A) (A) (A) (A) (A) (A) (A)
                 (A) (A) (A) (A) (A) (A) (A) (A) (A) (A) (A) (A)
                 (A) (A) (A) (A) (A) (A) (A) (A) (A) (A) (A) (A)
                 (A) (A) (A) (A) (A) (A) (A) (A) (A) (A) (A) (A)
                 (A) (A) (A) (A) (A) (A) (A) (A) (A) (A) (A) (A)
                 (A) (A) (A) (A) (A) (A) (A) (A) (A) (A) (A) (A)
                 (A) (A) (A) (A) (A) (A) (A) (A) (A) (A) (A) (A)
                 (A) (A)
 The electronic state is 1-A.
 Alpha  occ. eigenvalues --  -10.30602 -10.30572 -10.29433 -10.29433 -10.29426
 Alpha  occ. eigenvalues --  -10.29425 -10.29325 -10.29325 -10.29324 -10.29323
 Alpha  occ. eigenvalues --  -10.29268 -10.29268  -0.97713  -0.95363  -0.88326
 Alpha  occ. eigenvalues --   -0.85686  -0.84651  -0.82380  -0.72480  -0.72291
 Alpha  occ. eigenvalues --   -0.68557  -0.67537  -0.63201  -0.59079  -0.56937
 Alpha  occ. eigenvalues --   -0.55876  -0.52957  -0.52235  -0.52066  -0.51200
 Alpha  occ. eigenvalues --   -0.50219  -0.47938  -0.45143  -0.44993  -0.44337
 Alpha  occ. eigenvalues --   -0.42558  -0.41529  -0.36714  -0.33808  -0.33300
 Alpha  occ. eigenvalues --   -0.29905
 Alpha virt. eigenvalues --    0.01740   0.03839   0.04066   0.04543   0.04745
 Alpha virt. eigenvalues --    0.05892   0.05900   0.06070   0.07569   0.07972
 Alpha virt. eigenvalues --    0.08711   0.08828   0.09607   0.10890   0.11477
 Alpha virt. eigenvalues --    0.12694   0.13200   0.13213   0.15294   0.15351
 Alpha virt. eigenvalues --    0.15684   0.16025   0.16109   0.16616   0.17088
 Alpha virt. eigenvalues --    0.17363   0.17518   0.17953   0.18080   0.18922
 Alpha virt. eigenvalues --    0.18966   0.19104   0.19779   0.19786   0.20173
 Alpha virt. eigenvalues --    0.20365   0.20805   0.22885   0.23342   0.23593
 Alpha virt. eigenvalues --    0.23820   0.24348   0.24438   0.24794   0.24982
 Alpha virt. eigenvalues --    0.25520   0.25816   0.26908   0.27078   0.27796
 Alpha virt. eigenvalues --    0.28170   0.28397   0.29201   0.29779   0.29893
 Alpha virt. eigenvalues --    0.30409   0.31132   0.31299   0.32408   0.33085
 Alpha virt. eigenvalues --    0.33374   0.33532   0.34649   0.35294   0.36175
 Alpha virt. eigenvalues --    0.36411   0.36463   0.37000   0.37399   0.37939
 Alpha virt. eigenvalues --    0.39143   0.40931   0.41188   0.41793   0.42255
 Alpha virt. eigenvalues --    0.42581   0.44337   0.47827   0.48647   0.48807
 Alpha virt. eigenvalues --    0.56667   0.58580   0.59073   0.60888   0.61052
 Alpha virt. eigenvalues --    0.61673   0.62685   0.63079   0.63121   0.63560
 Alpha virt. eigenvalues --    0.64169   0.64363   0.65764   0.65822   0.66089
 Alpha virt. eigenvalues --    0.66496   0.68781   0.68955   0.69260   0.69522
 Alpha virt. eigenvalues --    0.72479   0.72678   0.74408   0.75006   0.75409
 Alpha virt. eigenvalues --    0.76960   0.77684   0.77956   0.78624   0.78661
 Alpha virt. eigenvalues --    0.80483   0.82157   0.82570   0.83591   0.84725
 Alpha virt. eigenvalues --    0.85869   0.89251   0.90638   0.92194   0.92770
 Alpha virt. eigenvalues --    0.92908   0.93326   0.93659   0.94312   0.95982
 Alpha virt. eigenvalues --    0.96235   0.96494   0.96929   0.99262   0.99961
 Alpha virt. eigenvalues --    1.00048   1.00301   1.01333   1.03322   1.04939
 Alpha virt. eigenvalues --    1.08184   1.08919   1.08951   1.09667   1.10825
 Alpha virt. eigenvalues --    1.12983   1.14443   1.16121   1.17263   1.18606
 Alpha virt. eigenvalues --    1.20162   1.20483   1.24210   1.24399   1.24555
 Alpha virt. eigenvalues --    1.35153   1.38681   1.39848   1.40704   1.55244
 Alpha virt. eigenvalues --    1.56737   1.57236   1.57405   1.57418   1.60134
 Alpha virt. eigenvalues --    1.61933   1.62740   1.64470   1.65159   1.65477
 Alpha virt. eigenvalues --    1.65522   1.66883   1.67808   1.70511   1.71537
 Alpha virt. eigenvalues --    1.73217   1.75675   1.76380   1.76443   1.77538
 Alpha virt. eigenvalues --    1.80531   1.82649   1.84322   1.85789   1.86230
 Alpha virt. eigenvalues --    1.89854   1.89994   1.90934   1.91104   1.95394
 Alpha virt. eigenvalues --    1.97454   1.98722   1.99422   2.00544   2.03661
 Alpha virt. eigenvalues --    2.04054   2.04183   2.05212   2.05218   2.07238
 Alpha virt. eigenvalues --    2.07829   2.08177   2.10840   2.12541   2.12546
 Alpha virt. eigenvalues --    2.14790   2.17171   2.17520   2.18992   2.20433
 Alpha virt. eigenvalues --    2.34950   2.35026   2.35377   2.40017   2.46346
 Alpha virt. eigenvalues --    2.46527   2.50897   2.51204   2.53184   2.53345
 Alpha virt. eigenvalues --    2.56261   2.56545   2.58250   2.58573   2.69403
 Alpha virt. eigenvalues --    2.72757   2.73911   2.76313   2.76861   2.77780
 Alpha virt. eigenvalues --    2.79025   2.80679   2.80706   2.80914   2.81444
 Alpha virt. eigenvalues --    2.82922   2.83107   2.83902   2.85220   2.86959
 Alpha virt. eigenvalues --    2.87625   2.90454   2.91877   2.91947   2.92095
 Alpha virt. eigenvalues --    2.94659   2.95453   2.99340   3.00464   3.03636
 Alpha virt. eigenvalues --    3.04154   3.04265   3.05537   3.08093   3.17426
 Alpha virt. eigenvalues --    3.19489   3.20354   3.29581   3.31318   3.31823
 Alpha virt. eigenvalues --    3.45141   3.47063   3.47147   3.48394   3.58841
 Alpha virt. eigenvalues --    3.62033   3.63763   3.63916   3.67649   3.72830
 Alpha virt. eigenvalues --    3.76051   3.86804   4.08713   4.11573   4.13615
 Alpha virt. eigenvalues --    4.14393   4.24009   4.24462   4.27789   4.29505
 Alpha virt. eigenvalues --    4.63360   4.92164   4.96168  23.68245  23.84831
 Alpha virt. eigenvalues --   24.07473  24.08407  24.09299  24.09852  24.18760
 Alpha virt. eigenvalues --   24.19789  24.22159  24.22660  24.31155  24.31358
          Condensed to atoms (all electrons):
               1          2          3          4          5          6
     1  C   22.521133   1.984327   1.980843  -1.990785   0.084740 -11.637777
     2  C    1.984327  12.440437  -1.404955  -1.718365   0.570934  -5.202972
     3  C    1.980843  -1.404955  12.430266  -0.736313   0.051234  -5.193132
     4  C   -1.990785  -1.718365  -0.736313   7.234810  -0.079422   2.670655
     5  H    0.084740   0.570934   0.051234  -0.079422   0.552806  -0.214153
     6  C  -11.637777  -5.202972  -5.193132   2.670655  -0.214153  22.526680
     7  C   -1.989156  -0.733996  -1.714042   0.582025  -0.019654   2.665452
     8  H    0.084480   0.051229   0.570780  -0.019695   0.004300  -0.213849
     9  C    0.852242   0.873490   0.872549  -0.469901   0.041516  -2.032006
    10  H    0.017813  -0.119385  -0.016207   0.439042  -0.017840   0.059476
    11  C   -5.199210   2.813170  -3.250751   0.226344  -0.006335   1.985016
    12  C   -5.187309  -3.251523   2.816425   0.325006  -0.086714   1.979033
    13  H    0.017790  -0.016186  -0.119196   0.025161  -0.001181   0.059436
    14  H    0.040845  -0.003053  -0.002995  -0.047746   0.001217  -0.039967
    15  C    2.667845   0.224997   0.326322  -0.104430   0.004163  -1.991456
    16  H   -0.213996  -0.006265  -0.086794   0.004184   0.001100   0.084734
    17  C    2.661181   0.325707   0.224204  -0.162019   0.026132  -1.987744
    18  H   -0.213567  -0.086784  -0.006148   0.026158  -0.005537   0.084352
    19  C   -2.029175  -0.099607  -0.099623   0.078103  -0.020185   0.852378
    20  H    0.059412  -0.000035   0.008152  -0.000360   0.001392   0.017803
    21  H    0.059321   0.008132  -0.000008  -0.000992   0.000682   0.017812
    22  H   -0.039910  -0.003310  -0.003325   0.001499  -0.000706   0.040854
               7          8          9         10         11         12
     1  C   -1.989156   0.084480   0.852242   0.017813  -5.199210  -5.187309
     2  C   -0.733996   0.051229   0.873490  -0.119385   2.813170  -3.251523
     3  C   -1.714042   0.570780   0.872549  -0.016207  -3.250751   2.816425
     4  C    0.582025  -0.019695  -0.469901   0.439042   0.226344   0.325006
     5  H   -0.019654   0.004300   0.041516  -0.017840  -0.006335  -0.086714
     6  C    2.665452  -0.213849  -2.032006   0.059476   1.985016   1.979033
     7  C    7.232098  -0.079258  -0.469169   0.025144   0.326389   0.223613
     8  H   -0.079258   0.552861   0.041467  -0.001182  -0.086833  -0.006027
     9  C   -0.469169   0.041467   6.611435  -0.093632  -0.100036  -0.099096
    10  H    0.025144  -0.001182  -0.093632   0.483769   0.000008   0.008126
    11  C    0.326389  -0.086833  -0.100036   0.000008  12.436564  -1.408393
    12  C    0.223613  -0.006027  -0.099096   0.008126  -1.408393  12.424995
    13  H    0.438882  -0.017836  -0.093636   0.001622   0.008153  -0.000039
    14  H   -0.047742   0.001218   0.450020  -0.010495  -0.003326  -0.003307
    15  C   -0.162010   0.026169   0.078055  -0.000351  -1.718319  -0.730501
    16  H    0.026161  -0.005541  -0.020203   0.001395   0.570966   0.051060
    17  C   -0.103388   0.003973   0.077931  -0.000994  -0.732693  -1.708906
    18  H    0.003994   0.001091  -0.020175   0.000683   0.051190   0.570465
    19  C    0.077821  -0.020174  -0.024549  -0.000222   0.872230   0.868202
    20  H   -0.000990   0.000683  -0.000222   0.000121  -0.119357  -0.016057
    21  H   -0.000334   0.001394  -0.000224   0.000015  -0.016155  -0.119005
    22  H    0.001493  -0.000707  -0.000634   0.000013  -0.003011  -0.003148
              13         14         15         16         17         18
     1  C    0.017790   0.040845   2.667845  -0.213996   2.661181  -0.213567
     2  C   -0.016186  -0.003053   0.224997  -0.006265   0.325707  -0.086784
     3  C   -0.119196  -0.002995   0.326322  -0.086794   0.224204  -0.006148
     4  C    0.025161  -0.047746  -0.104430   0.004184  -0.162019   0.026158
     5  H   -0.001181   0.001217   0.004163   0.001100   0.026132  -0.005537
     6  C    0.059436  -0.039967  -1.991456   0.084734  -1.987744   0.084352
     7  C    0.438882  -0.047742  -0.162010   0.026161  -0.103388   0.003994
     8  H   -0.017836   0.001218   0.026169  -0.005541   0.003973   0.001091
     9  C   -0.093636   0.450020   0.078055  -0.020203   0.077931  -0.020175
    10  H    0.001622  -0.010495  -0.000351   0.001395  -0.000994   0.000683
    11  C    0.008153  -0.003326  -1.718319   0.570966  -0.732693   0.051190
    12  C   -0.000039  -0.003307  -0.730501   0.051060  -1.708906   0.570465
    13  H    0.483765  -0.010495  -0.000994   0.000683  -0.000347   0.001392
    14  H   -0.010495   0.478509   0.001497  -0.000707   0.001494  -0.000707
    15  C   -0.000994   0.001497   7.234152  -0.079469   0.579431  -0.019568
    16  H    0.000683  -0.000707  -0.079469   0.552801  -0.019591   0.004297
    17  C   -0.000347   0.001494   0.579431  -0.019591   7.228384  -0.079030
    18  H    0.001392  -0.000707  -0.019568   0.004297  -0.079030   0.552849
    19  C   -0.000223  -0.000634  -0.468521   0.041455  -0.466023   0.041369
    20  H    0.000015   0.000013   0.439012  -0.017834   0.025066  -0.001179
    21  H    0.000122   0.000013   0.025079  -0.001180   0.438705  -0.017836
    22  H    0.000013  -0.000012  -0.047805   0.001217  -0.047646   0.001214
              19         20         21         22
     1  C   -2.029175   0.059412   0.059321  -0.039910
     2  C   -0.099607  -0.000035   0.008132  -0.003310
     3  C   -0.099623   0.008152  -0.000008  -0.003325
     4  C    0.078103  -0.000360  -0.000992   0.001499
     5  H   -0.020185   0.001392   0.000682  -0.000706
     6  C    0.852378   0.017803   0.017812   0.040854
     7  C    0.077821  -0.000990  -0.000334   0.001493
     8  H   -0.020174   0.000683   0.001394  -0.000707
     9  C   -0.024549  -0.000222  -0.000224  -0.000634
    10  H   -0.000222   0.000121   0.000015   0.000013
    11  C    0.872230  -0.119357  -0.016155  -0.003011
    12  C    0.868202  -0.016057  -0.119005  -0.003148
    13  H   -0.000223   0.000015   0.000122   0.000013
    14  H   -0.000634   0.000013   0.000013  -0.000012
    15  C   -0.468521   0.439012   0.025079  -0.047805
    16  H    0.041455  -0.017834  -0.001180   0.001217
    17  C   -0.466023   0.025066   0.438705  -0.047646
    18  H    0.041369  -0.001179  -0.017836   0.001214
    19  C    6.609370  -0.093606  -0.093518   0.450026
    20  H   -0.093606   0.483770   0.001620  -0.010498
    21  H   -0.093518   0.001620   0.483760  -0.010490
    22  H    0.450026  -0.010498  -0.010490   0.478522
 Mulliken charges:
               1
     1  C    1.468911
     2  C   -0.645987
     3  C   -0.647287
     4  C   -0.282960
     5  H    0.111510
     6  C    1.469376
     7  C   -0.283333
     8  H    0.111457
     9  C   -0.475219
    10  H    0.223080
    11  C   -0.645610
    12  C   -0.646900
    13  H    0.223099
    14  H    0.196359
    15  C   -0.283299
    16  H    0.111528
    17  C   -0.283828
    18  H    0.111476
    19  C   -0.474893
    20  H    0.223079
    21  H    0.223088
    22  H    0.196353
 Sum of Mulliken charges =  -0.00000
 Mulliken charges with hydrogens summed into heavy atoms:
               1
     1  C    1.468911
     2  C   -0.534477
     3  C   -0.535830
     4  C   -0.059880
     6  C    1.469376
     7  C   -0.060234
     9  C   -0.278860
    11  C   -0.534082
    12  C   -0.535423
    15  C   -0.060220
    17  C   -0.060740
    19  C   -0.278540
 Electronic spatial extent (au):  <R**2>=           2311.9272
 Charge=             -0.0000 electrons
 Dipole moment (field-independent basis, Debye):
    X=              0.0000    Y=             -0.0000    Z=              0.0004  Tot=              0.0004
 Quadrupole moment (field-independent basis, Debye-Ang):
   XX=            -61.4675   YY=            -61.6656   ZZ=            -77.4999
   XY=              0.0001   XZ=             -0.0006   YZ=             -0.0001
 Traceless Quadrupole moment (field-independent basis, Debye-Ang):
   XX=              5.4101   YY=              5.2121   ZZ=            -10.6222
   XY=              0.0001   XZ=             -0.0006   YZ=             -0.0001
 Octapole moment (field-independent basis, Debye-Ang**2):
  XXX=              0.0005  YYY=             -0.0012  ZZZ=              0.0008  XYY=             -0.0002
  XXY=             -0.0004  XXZ=              0.0020  XZZ=              0.0002  YZZ=             -0.0002
  YYZ=              0.0032  XYZ=             -6.2179
 Hexadecapole moment (field-independent basis, Debye-Ang**3):
 XXXX=          -2298.1251 YYYY=           -526.2223 ZZZZ=           -109.8733 XXXY=             -0.0005
 XXXZ=             -0.0194 YYYX=              0.0039 YYYZ=             -0.0003 ZZZX=             -0.0006
 ZZZY=             -0.0001 XXYY=           -472.9233 XXZZ=           -502.7966 YYZZ=           -124.0332
 XXYZ=             -0.0023 YYXZ=              0.0019 ZZXY=             -0.0023
 N-N= 5.995050088429D+02 E-N=-2.273222572251D+03  KE= 4.610244983441D+02
 No NMR shielding tensors so no spin-rotation constants.
 Leave Link  601 at Sat Nov  5 21:35:03 2022, MaxMem= 16106127360 cpu:               4.1 elap:               0.2
 (Enter /opt/ap/G16/B01/g16/l9999.exe)
 1\1\GINC-N05\SP\RwB97XD\6-311++G(d,p)\C12H10\ROOT\05-Nov-2022\0\\#P wB
 97XD/6-311++G(d,p) scf=maxcycle=512\\_conf014.gjf nmol_natom 1_22\\0,1
 \C\C,1,1.40491871\C,1,1.40495292,2,118.20503621\C,2,1.3939373,1,120.91
 08946,3,0.05365643,0\H,2,1.08593095,1,119.3452094,3,-178.3624307,0\C,1
 ,1.48449301,2,120.90144423,4,-179.96388019,0\C,3,1.39389842,1,120.9105
 0598,2,0.03587687,0\H,3,1.08593608,1,119.34159615,2,-178.38281524,0\C,
 4,1.39606958,2,120.24555868,1,-0.09283196,0\H,4,1.08627898,2,119.66792
 041,1,-179.51486187,0\C,6,1.40492034,1,120.90156908,2,-20.,0\C,6,1.404
 95329,1,120.89324856,2,160.,0\H,7,1.08627928,3,119.67027175,1,-179.512
 58183,0\H,9,1.08597601,4,120.2602535,2,-179.95233103,0\C,11,1.39393437
 ,6,120.91099656,1,-179.95869964,0\H,11,1.08593173,6,119.34475907,1,1.6
 1891886,0\C,12,1.39390147,6,120.91022615,1,-179.94297913,0\H,12,1.0859
 3608,6,119.34175044,1,1.63241608,0\C,15,1.39607161,11,120.24535737,6,-
 0.10315482,0\H,15,1.08627786,11,119.66861247,6,-179.51844254,0\H,17,1.
 08627825,12,119.6702798,6,-179.51590091,0\H,19,1.08597601,15,120.25988
 597,11,-179.94731581,0\\Version=ES64L-G16RevB.01\State=1-A\HF=-463.247
 4289\RMSD=5.779e-09\Dipole=-0.0000011,-0.0001485,-0.0000177\Quadrupole
 =3.8894572,-7.5419671,3.6525099,1.0356402,0.2216533,-1.7277074\PG=C01 
 [X(C12H10)]\\@


 THERE IS NOTHING NOBLE IN BEING SUPERIOR TO SOME OTHER MAN.
 TRUE NOBILITY IS BEING SUPERIOR TO YOUR FORMER SELF.

                                                   -- HINDU PROVERB
 Job cpu time:       0 days  0 hours 14 minutes  1.3 seconds.
 Elapsed time:       0 days  0 hours  0 minutes 26.4 seconds.
 File lengths (MBytes):  RWF=     62 Int=      0 D2E=      0 Chk=      8 Scr=      1
 Normal termination of Gaussian 16 at Sat Nov  5 21:35:03 2022.
