LAMMPS Description

44 atoms
46 bonds
72 angles
104 dihedrals
20 impropers

7 atom types
4 bond types
6 angle types
3 dihedral types
1 improper types

-50.00000  50.00000 xlo xhi
-50.00000  50.00000 ylo yhi
-50.00000  50.00000 zlo zhi

Masses

1  12.01000 # CP
2  12.01000 # CA0
3  12.01000 # CA1
4  12.01000 # CA2
5   1.00800 # HA0
6   1.00800 # HA1
7   1.00800 # HA2

Atoms

1 1 1   0.03676   3.79297   2.82099  -0.70282
2 1 2  -0.09613   2.99080   1.78506  -1.20271
3 1 2  -0.09613   4.15469   3.83239  -1.60367
4 1 3  -0.10735   2.58712   1.73710  -2.53154
5 1 5   0.08494   2.61826   0.93737  -0.64098
6 1 1   0.03676   4.28398   2.82179   0.71700
7 1 3  -0.10735   3.76696   3.80964  -2.93813
8 1 5   0.08494   4.75870   4.70184  -1.37676
9 1 4  -0.07910   2.98419   2.75445  -3.38957
10 1 6   0.09685   1.97204   0.92174  -2.89165
11 1 2  -0.09613   5.08563   3.85800   1.21720
12 1 2  -0.09613   3.92179   1.81061   1.61785
13 1 6   0.09685   4.06867   4.60102  -3.61389
14 1 7   0.08571   2.67491   2.72691  -4.42739
15 1 3  -0.10735   5.48893   3.90598   2.54615
16 1 5   0.08494   5.45733   4.70634   0.65588
17 1 3  -0.10735   4.30884   1.83348   2.95247
18 1 5   0.08494   3.31713   0.94167   1.39100
19 1 4  -0.07910   5.09146   2.88862   3.40406
20 1 6   0.09685   6.10313   4.72184   2.90666
21 1 6   0.09685   4.00609   1.04252   3.62836
22 1 7   0.08571   5.39943   2.91645   4.44226
23 2 1   0.03676   7.89646  -0.00075  -0.71710
24 2 2  -0.09613   7.11076   1.04537  -1.22183
25 2 2  -0.09613   8.24261  -1.02162  -1.61338
26 2 3  -0.10735   6.70776   1.09338  -2.55084
27 2 5   0.08494   6.75308   1.90236  -0.66450
28 2 1   0.03676   8.38800  -0.00222   0.70253
29 2 3  -0.10735   7.85548  -0.99889  -2.94801
30 2 5   0.08494   8.83328  -1.89914  -1.38260
31 2 4  -0.07910   7.08915   0.06610  -3.40428
32 2 6   0.09685   6.10655   1.91733  -2.91486
33 2 2  -0.09613   9.17401  -1.04818   1.20707
34 2 2  -0.09613   8.04182   1.01861   1.59888
35 2 6   0.09685   8.14520  -1.79781  -3.62021
36 2 7   0.08571   6.78127   0.09394  -4.44253
37 2 3  -0.10735   9.57577  -1.09706   2.53644
38 2 5   0.08494   9.53354  -1.90397   0.64908
39 2 3  -0.10735   8.42795   0.99508   2.93380
40 2 5   0.08494   7.45267   1.89712   1.36777
41 2 4  -0.07910   9.19365  -0.07039   3.39022
42 2 6   0.09685  10.17760  -1.92066   2.90020
43 2 6   0.09685   8.13874   1.79416   3.60593
44 2 7   0.08571   9.50158  -0.09858   4.42844

Bonds

1 2 1 2
2 2 1 3
3 4 1 6
4 3 2 4
5 1 2 5
6 3 3 7
7 1 3 8
8 3 4 9
9 1 4 10
10 2 6 11
11 2 6 12
12 3 7 9
13 1 7 13
14 1 9 14
15 3 11 15
16 1 11 16
17 3 12 17
18 1 12 18
19 3 15 19
20 1 15 20
21 3 17 19
22 1 17 21
23 1 19 22
1 2 23 24
2 2 23 25
3 4 23 28
4 3 24 26
5 1 24 27
6 3 25 29
7 1 25 30
8 3 26 31
9 1 26 32
10 2 28 33
11 2 28 34
12 3 29 31
13 1 29 35
14 1 31 36
15 3 33 37
16 1 33 38
17 3 34 39
18 1 34 40
19 3 37 41
20 1 37 42
21 3 39 41
22 1 39 43
23 1 41 44

Angles

1 1 2 4 9
2 1 3 7 9
3 1 4 9 7
4 1 11 15 19
5 1 12 17 19
6 1 15 19 17
7 5 1 2 4
8 5 1 3 7
9 5 6 11 15
10 5 6 12 17
11 6 2 4 10
12 6 3 7 13
13 6 4 2 5
14 6 4 9 14
15 6 7 3 8
16 6 7 9 14
17 6 9 4 10
18 6 9 7 13
19 6 11 15 20
20 6 12 17 21
21 6 15 11 16
22 6 15 19 22
23 6 17 12 18
24 6 17 19 22
25 6 19 15 20
26 6 19 17 21
27 2 1 2 5
28 2 1 3 8
29 2 6 11 16
30 2 6 12 18
31 3 2 1 3
32 3 11 6 12
33 4 2 1 6
34 4 3 1 6
35 4 1 6 11
36 4 1 6 12
1 1 24 26 31
2 1 25 29 31
3 1 26 31 29
4 1 33 37 41
5 1 34 39 41
6 1 37 41 39
7 5 23 24 26
8 5 23 25 29
9 5 28 33 37
10 5 28 34 39
11 6 24 26 32
12 6 25 29 35
13 6 26 24 27
14 6 26 31 36
15 6 29 25 30
16 6 29 31 36
17 6 31 26 32
18 6 31 29 35
19 6 33 37 42
20 6 34 39 43
21 6 37 33 38
22 6 37 41 44
23 6 39 34 40
24 6 39 41 44
25 6 41 37 42
26 6 41 39 43
27 2 23 24 27
28 2 23 25 30
29 2 28 33 38
30 2 28 34 40
31 3 24 23 25
32 3 33 28 34
33 4 24 23 28
34 4 25 23 28
35 4 23 28 33
36 4 23 28 34

Dihedrals

1 1 1 2 4 9
2 1 1 3 7 9
3 1 6 11 15 19
4 1 6 12 17 19
5 1 1 2 4 10
6 1 1 3 7 13
7 1 6 11 15 20
8 1 6 12 17 21
9 1 2 4 9 7
10 1 3 7 9 4
11 1 11 15 19 17
12 1 12 17 19 15
13 1 2 4 9 14
14 1 3 7 9 14
15 1 4 9 7 13
16 1 7 9 4 10
17 1 5 2 4 9
18 1 8 3 7 9
19 1 11 15 19 22
20 1 12 17 19 22
21 1 15 19 17 21
22 1 17 19 15 20
23 1 16 11 15 19
24 1 18 12 17 19
25 1 5 2 4 10
26 1 8 3 7 13
27 1 10 4 9 14
28 1 13 7 9 14
29 1 16 11 15 20
30 1 18 12 17 21
31 1 20 15 19 22
32 1 21 17 19 22
33 2 3 1 2 4
34 2 2 1 3 7
35 2 12 6 11 15
36 2 11 6 12 17
37 2 4 2 1 6
38 2 6 1 3 7
39 2 1 6 11 15
40 2 1 6 12 17
41 2 3 1 2 5
42 2 2 1 3 8
43 2 12 6 11 16
44 2 11 6 12 18
45 2 5 2 1 6
46 2 6 1 3 8
47 2 1 6 11 16
48 2 1 6 12 18
49 3 2 1 6 11
50 3 2 1 6 12
51 3 3 1 6 11
52 3 3 1 6 12
1 1 23 24 26 31
2 1 23 25 29 31
3 1 28 33 37 41
4 1 28 34 39 41
5 1 23 24 26 32
6 1 23 25 29 35
7 1 28 33 37 42
8 1 28 34 39 43
9 1 24 26 31 29
10 1 25 29 31 26
11 1 33 37 41 39
12 1 34 39 41 37
13 1 24 26 31 36
14 1 25 29 31 36
15 1 26 31 29 35
16 1 29 31 26 32
17 1 27 24 26 31
18 1 30 25 29 31
19 1 33 37 41 44
20 1 34 39 41 44
21 1 37 41 39 43
22 1 39 41 37 42
23 1 38 33 37 41
24 1 40 34 39 41
25 1 27 24 26 32
26 1 30 25 29 35
27 1 32 26 31 36
28 1 35 29 31 36
29 1 38 33 37 42
30 1 40 34 39 43
31 1 42 37 41 44
32 1 43 39 41 44
33 2 25 23 24 26
34 2 24 23 25 29
35 2 34 28 33 37
36 2 33 28 34 39
37 2 26 24 23 28
38 2 28 23 25 29
39 2 23 28 33 37
40 2 23 28 34 39
41 2 25 23 24 27
42 2 24 23 25 30
43 2 34 28 33 38
44 2 33 28 34 40
45 2 27 24 23 28
46 2 28 23 25 30
47 2 23 28 33 38
48 2 23 28 34 40
49 3 24 23 28 33
50 3 24 23 28 34
51 3 25 23 28 33
52 3 25 23 28 34

Impropers

1 1 1 4 2 5
2 1 1 7 3 8
3 1 6 15 11 16
4 1 6 17 12 18
5 1 2 9 4 10
6 1 3 9 7 13
7 1 4 7 9 14
8 1 11 19 15 20
9 1 12 19 17 21
10 1 15 17 19 22
1 1 23 26 24 27
2 1 23 29 25 30
3 1 28 37 33 38
4 1 28 39 34 40
5 1 24 31 26 32
6 1 25 31 29 35
7 1 26 29 31 36
8 1 33 41 37 42
9 1 34 41 39 43
10 1 37 39 41 44

