LAMMPS Description

168 atoms
180 bonds
276 angles
432 dihedrals
72 impropers

10 atom types
4 bond types
6 angle types
3 dihedral types
1 improper types

-50.00000  50.00000 xlo xhi
-50.00000  50.00000 ylo yhi
-50.00000  50.00000 zlo zhi

Masses

1  12.01000 # CP0
2  12.01000 # CA0
3   1.00800 # HA0
4  12.01000 # CP1
5  12.01000 # CA1
6  12.01000 # CA2
7  12.01000 # CA3
8   1.00800 # HA1
9   1.00800 # HA2
10   1.00800 # HA3

Atoms

1 1 1   0.04231   2.26297   2.09460  -1.44000
2 1 2  -0.16358   2.03803   2.13105  -0.04416
3 1 2  -0.16358   2.26479   3.33706  -2.11573
4 1 1   0.04231   1.81446   3.32905   0.67518
5 1 3   0.09080   2.03364   1.19531   0.50003
6 1 4   0.11652   2.48836   0.79051  -2.17904
7 1 1   0.04231   2.05679   4.57527  -1.46414
8 1 3   0.09080   2.46751   3.34274  -3.18111
9 1 2  -0.16358   1.82581   4.53191  -0.06912
10 1 4   0.11652   1.56980   3.32486   2.17048
11 1 5  -0.15998   3.01287  -0.35167  -1.51741
12 1 5  -0.15998   2.18304   0.67301  -3.56086
13 1 4   0.11652   2.09115   5.88506  -2.22425
14 1 3   0.09080   1.62263   5.46226   0.44931
15 1 5  -0.15998   1.02615   2.18718   2.82371
16 1 5  -0.15998   1.88204   4.45840   2.96578
17 1 6  -0.07151   3.22284  -1.54775  -2.21225
18 1 8   0.10679   3.27591  -0.32004  -0.46524
19 1 6  -0.07151   2.40207  -0.52778  -4.24246
20 1 8   0.10679   1.76142   1.50543  -4.11563
21 1 5  -0.15998   1.80094   5.93474  -3.61311
22 1 5  -0.15998   2.41583   7.10293  -1.57176
23 1 6  -0.07151   0.80171   2.19134   4.20463
24 1 8   0.10679   0.76147   1.29471   2.26706
25 1 6  -0.07151   1.65666   4.44605   4.34586
26 1 8   0.10679   2.31413   5.35274   2.52629
27 1 7  -0.11162   2.91970  -1.63624  -3.57144
28 1 9   0.09073   3.62673  -2.41320  -1.69290
29 1 9   0.09073   2.15860  -0.59999  -5.29806
30 1 6  -0.07151   1.83873   7.14677  -4.30988
31 1 8   0.10679   1.51788   5.04051  -4.15677
32 1 6  -0.07151   2.46367   8.30462  -2.28532
33 1 8   0.10679   2.65813   7.12554  -0.51372
34 1 7  -0.11162   1.11747   3.31717   4.96489
35 1 9   0.09073   0.37669   1.31566   4.68917
36 1 9   0.09073   1.90443   5.32105   4.93792
37 1 10   0.09350   3.08224  -2.56834  -4.10522
38 1 7  -0.11162   2.17632   8.32699  -3.64955
39 1 9   0.09073   1.60090   7.17374  -5.36928
40 1 9   0.09073   2.72875   9.22691  -1.77769
41 1 10   0.09350   0.93890   3.31394   6.03613
42 1 10   0.09350   2.20763   9.26335  -4.19515
43 2 1   0.04231   5.73302   7.68210  -1.44347
44 2 2  -0.16358   5.51173   7.65570  -0.04662
45 2 2  -0.16358   5.71967   6.43597  -2.11176
46 2 1   0.04231   5.27569   6.46453   0.68049
47 2 3   0.09080   5.51894   8.59403   0.49167
48 2 4   0.11652   5.97005   8.97850  -2.19261
49 2 1   0.04231   5.50074   5.20420  -1.45177
50 2 3   0.09080   5.91945   6.42202  -3.17769
51 2 2  -0.16358   5.27239   5.25771  -0.05689
52 2 4   0.11652   5.03051   6.47761   2.17581
53 2 5  -0.15998   6.51762  10.11677  -1.54343
54 2 5  -0.15998   5.65429   9.09146  -3.57261
55 2 4   0.11652   5.52046   3.88967  -2.20297
56 2 3   0.09080   5.05874   4.33245   0.46687
57 2 5  -0.15998   4.49661   7.62260   2.82410
58 2 5  -0.15998   5.32953   5.34340   2.97558
59 2 6  -0.07151   6.73910  11.30490  -2.24859
60 2 8   0.10679   6.79022  10.08733  -0.49353
61 2 6  -0.07151   5.88538  10.28403  -4.26484
62 2 8   0.10679   5.21458   8.26185  -4.11740
63 2 5  -0.15998   5.22471   3.83389  -3.59030
64 2 5  -0.15998   5.83571   2.67343  -1.54280
65 2 6  -0.07151   4.26735   7.62413   4.20440
66 2 8   0.10679   4.24211   8.51574   2.26369
67 2 6  -0.07151   5.09885   5.36107   4.35475
68 2 8   0.10679   5.75392   4.44350   2.54001
69 2 7  -0.11162   6.42531  11.38903  -3.60573
70 2 9   0.09073   7.16047  12.16773  -1.73898
71 2 9   0.09073   5.63293  10.35324  -5.31888
72 2 6  -0.07151   5.24965   2.61704  -4.27885
73 2 8   0.10679   4.94762   4.72718  -4.13895
74 2 6  -0.07151   5.87018   1.46657  -2.24807
75 2 8   0.10679   6.08049   2.65565  -0.48515
76 2 7  -0.11162   4.56815   6.49678   4.96869
77 2 9   0.09073   3.84915   8.50514   4.68525
78 2 9   0.09073   5.33446   4.48443   4.94977
79 2 10   0.09350   6.59648  12.31528  -4.14709
80 2 7  -0.11162   5.57925   1.43820  -3.61157
81 2 9   0.09073   5.00844   2.58590  -5.33736
82 2 9   0.09073   6.12727   0.54527  -1.73414
83 2 10   0.09350   4.38365   6.50354   6.03897
84 2 10   0.09350   5.60100   0.49812  -4.15106
85 3 1   0.04231   1.88401  12.07775   4.26993
86 3 2  -0.16358   2.09179  12.11006   5.66853
87 3 2  -0.16358   1.89939  13.32100   3.59556
88 3 1   0.04231   2.31605  13.30548   6.39195
89 3 3   0.09080   2.08222  11.17333   6.21099
90 3 4   0.11652   1.65974  10.77634   3.52639
91 3 1   0.04231   2.11186  14.55646   4.25136
92 3 3   0.09080   1.70831  13.32905   2.52796
93 3 2  -0.16358   2.32632  14.50868   5.64876
94 3 4   0.11652   2.53994  13.30005   7.89036
95 3 5  -0.15998   1.11515   9.63788   4.17825
96 3 5  -0.15998   1.98832  10.65770   2.15015
97 3 4   0.11652   2.10144  15.86871   3.49453
98 3 3   0.09080   2.53413  15.43603   6.17115
99 3 5  -0.15998   3.06264  12.15775   8.55216
100 3 5  -0.15998   2.22866  14.43789   8.68001
101 3 6  -0.07151   0.90824   8.44390   3.47888
102 3 8   0.10679   0.83454   9.67081   5.22597
103 3 6  -0.07151   1.77133   9.45940   1.46395
104 3 8   0.10679   2.42687  11.48700   1.60372
105 3 5  -0.15998   2.39949  15.91805   2.10729
106 3 5  -0.15998   1.79466  17.09016   4.14962
107 3 6  -0.07151   3.26990  12.16217   9.93580
108 3 8   0.10679   3.32436  11.26173   8.00007
109 3 6  -0.07151   2.43672  14.42584  10.06274
110 3 8   0.10679   1.81126  15.33595   8.23384
111 3 7  -0.11162   1.23317   8.35471   2.12483
112 3 9   0.09073   0.48983   7.58073   3.99050
113 3 9   0.09073   2.03229   9.38647   0.41292
114 3 6  -0.07151   2.38598  17.13308   1.41484
115 3 8   0.10679   2.66923  15.02099   1.56135
116 3 6  -0.07151   1.77239  18.29516   3.44067
117 3 8   0.10679   1.54778  17.11448   5.20655
118 3 7  -0.11162   2.95661  13.29259  10.69025
119 3 9   0.09073   3.68014  11.28334  10.42715
120 3 9   0.09073   2.19146  15.30484  10.64995
121 3 10   0.09350   1.07151   7.42497   1.58724
122 3 7  -0.11162   2.06681  18.31702   2.07793
123 3 9   0.09073   2.62853  17.15928   0.35656
124 3 9   0.09073   1.52266  19.22031   3.95131
125 3 10   0.09350   3.12271  13.28985  11.76353
126 3 10   0.09350   2.05504  19.25583   1.53572
127 4 1   0.04231   5.35538  17.67373   4.26159
128 4 2  -0.16358   5.55570  17.64474   5.66168
129 4 2  -0.16358   5.36109  16.42754   3.59229
130 4 1   0.04231   5.76636  16.44994   6.39047
131 4 3   0.09080   5.55286  18.58337   6.20082
132 4 4   0.11652   5.14954  18.97449   3.51092
133 4 1   0.04231   5.55663  15.19279   4.25472
134 4 3   0.09080   5.17521  16.41688   2.52375
135 4 2  -0.16358   5.76743  15.24414   5.65213
136 4 4   0.11652   5.98919  16.45684   7.88892
137 4 5  -0.15998   4.61210  20.12110   4.15425
138 4 5  -0.15998   5.48839  19.08445   2.13630
139 4 4   0.11652   5.53390  13.87666   3.50597
140 4 3   0.09080   5.96548  14.31689   6.17845
141 4 5  -0.15998   6.52308  17.59515   8.54849
142 4 5  -0.15998   5.66772  15.32304   8.68037
143 4 6  -0.07151   4.42099  21.31403   3.44844
144 4 8   0.10679   4.32409  20.09497   5.20007
145 4 6  -0.07151   5.28899  20.28250   1.44378
146 4 8   0.10679   5.92183  18.24833   1.59624
147 4 5  -0.15998   5.83551  13.81591   2.12018
148 4 5  -0.15998   5.21212  12.66278   4.16817
149 4 6  -0.07151   6.73002  17.59081   9.93225
150 4 8   0.10679   6.79394  18.48756   7.99460
151 4 6  -0.07151   5.87701  15.33459  10.06279
152 4 8   0.10679   5.24177  14.42830   8.23578
153 4 7  -0.11162   4.75672  21.39506   2.09644
154 4 9   0.09073   4.00662  22.18299   3.95352
155 4 9   0.09073   5.55878  20.34921   0.39417
156 4 6  -0.07151   5.81000  12.59711   1.43545
157 4 8   0.10679   6.11576  14.70655   1.56916
158 4 6  -0.07151   5.17969  11.45370   3.46729
159 4 8   0.10679   4.96184  12.64735   5.22445
160 4 7  -0.11162   6.40734  16.46400  10.68839
161 4 9   0.09073   7.14739  18.46695  10.42236
162 4 9   0.09073   5.62438  14.45826  10.65107
163 4 10   0.09350   4.60839  22.32462   1.55420
164 4 7  -0.11162   5.47634  11.42117   2.10542
165 4 9   0.09073   6.05327  12.56221   0.37775
166 4 9   0.09073   4.91984  10.53437   3.98350
167 4 10   0.09350   6.57386  16.46663  11.76157
168 4 10   0.09350   5.45433  10.48022   1.56902

Bonds

1 2 1 2
2 2 1 3
3 4 1 6
4 2 2 4
5 1 2 5
6 2 3 7
7 1 3 8
8 2 4 9
9 4 4 10
10 2 6 11
11 2 6 12
12 2 7 9
13 4 7 13
14 1 9 14
15 2 10 15
16 2 10 16
17 3 11 17
18 1 11 18
19 3 12 19
20 1 12 20
21 2 13 21
22 2 13 22
23 3 15 23
24 1 15 24
25 3 16 25
26 1 16 26
27 3 17 27
28 1 17 28
29 3 19 27
30 1 19 29
31 3 21 30
32 1 21 31
33 3 22 32
34 1 22 33
35 3 23 34
36 1 23 35
37 3 25 34
38 1 25 36
39 1 27 37
40 3 30 38
41 1 30 39
42 3 32 38
43 1 32 40
44 1 34 41
45 1 38 42
1 2 43 44
2 2 43 45
3 4 43 48
4 2 44 46
5 1 44 47
6 2 45 49
7 1 45 50
8 2 46 51
9 4 46 52
10 2 48 53
11 2 48 54
12 2 49 51
13 4 49 55
14 1 51 56
15 2 52 57
16 2 52 58
17 3 53 59
18 1 53 60
19 3 54 61
20 1 54 62
21 2 55 63
22 2 55 64
23 3 57 65
24 1 57 66
25 3 58 67
26 1 58 68
27 3 59 69
28 1 59 70
29 3 61 69
30 1 61 71
31 3 63 72
32 1 63 73
33 3 64 74
34 1 64 75
35 3 65 76
36 1 65 77
37 3 67 76
38 1 67 78
39 1 69 79
40 3 72 80
41 1 72 81
42 3 74 80
43 1 74 82
44 1 76 83
45 1 80 84
1 2 85 86
2 2 85 87
3 4 85 90
4 2 86 88
5 1 86 89
6 2 87 91
7 1 87 92
8 2 88 93
9 4 88 94
10 2 90 95
11 2 90 96
12 2 91 93
13 4 91 97
14 1 93 98
15 2 94 99
16 2 94 100
17 3 95 101
18 1 95 102
19 3 96 103
20 1 96 104
21 2 97 105
22 2 97 106
23 3 99 107
24 1 99 108
25 3 100 109
26 1 100 110
27 3 101 111
28 1 101 112
29 3 103 111
30 1 103 113
31 3 105 114
32 1 105 115
33 3 106 116
34 1 106 117
35 3 107 118
36 1 107 119
37 3 109 118
38 1 109 120
39 1 111 121
40 3 114 122
41 1 114 123
42 3 116 122
43 1 116 124
44 1 118 125
45 1 122 126
1 2 127 128
2 2 127 129
3 4 127 132
4 2 128 130
5 1 128 131
6 2 129 133
7 1 129 134
8 2 130 135
9 4 130 136
10 2 132 137
11 2 132 138
12 2 133 135
13 4 133 139
14 1 135 140
15 2 136 141
16 2 136 142
17 3 137 143
18 1 137 144
19 3 138 145
20 1 138 146
21 2 139 147
22 2 139 148
23 3 141 149
24 1 141 150
25 3 142 151
26 1 142 152
27 3 143 153
28 1 143 154
29 3 145 153
30 1 145 155
31 3 147 156
32 1 147 157
33 3 148 158
34 1 148 159
35 3 149 160
36 1 149 161
37 3 151 160
38 1 151 162
39 1 153 163
40 3 156 164
41 1 156 165
42 3 158 164
43 1 158 166
44 1 160 167
45 1 164 168

Angles

1 1 11 17 27
2 1 12 19 27
3 1 15 23 34
4 1 16 25 34
5 1 17 27 19
6 1 21 30 38
7 1 22 32 38
8 1 23 34 25
9 1 30 38 32
10 5 6 11 17
11 5 6 12 19
12 5 10 15 23
13 5 10 16 25
14 5 13 21 30
15 5 13 22 32
16 6 11 17 28
17 6 12 19 29
18 6 15 23 35
19 6 16 25 36
20 6 17 11 18
21 6 17 27 37
22 6 19 12 20
23 6 19 27 37
24 6 21 30 39
25 6 22 32 40
26 6 23 15 24
27 6 23 34 41
28 6 25 16 26
29 6 25 34 41
30 6 27 17 28
31 6 27 19 29
32 6 30 21 31
33 6 30 38 42
34 6 32 22 33
35 6 32 38 42
36 6 34 23 35
37 6 34 25 36
38 6 38 30 39
39 6 38 32 40
40 2 1 2 5
41 2 1 3 8
42 2 4 2 5
43 2 4 9 14
44 2 6 11 18
45 2 6 12 20
46 2 7 3 8
47 2 7 9 14
48 2 10 15 24
49 2 10 16 26
50 2 13 21 31
51 2 13 22 33
52 3 2 1 3
53 3 2 4 9
54 3 3 7 9
55 3 11 6 12
56 3 15 10 16
57 3 21 13 22
58 4 2 1 6
59 4 2 4 10
60 4 3 1 6
61 4 3 7 13
62 4 9 4 10
63 4 9 7 13
64 4 1 6 11
65 4 1 6 12
66 4 4 10 15
67 4 4 10 16
68 4 7 13 21
69 4 7 13 22
1 1 53 59 69
2 1 54 61 69
3 1 57 65 76
4 1 58 67 76
5 1 59 69 61
6 1 63 72 80
7 1 64 74 80
8 1 65 76 67
9 1 72 80 74
10 5 48 53 59
11 5 48 54 61
12 5 52 57 65
13 5 52 58 67
14 5 55 63 72
15 5 55 64 74
16 6 53 59 70
17 6 54 61 71
18 6 57 65 77
19 6 58 67 78
20 6 59 53 60
21 6 59 69 79
22 6 61 54 62
23 6 61 69 79
24 6 63 72 81
25 6 64 74 82
26 6 65 57 66
27 6 65 76 83
28 6 67 58 68
29 6 67 76 83
30 6 69 59 70
31 6 69 61 71
32 6 72 63 73
33 6 72 80 84
34 6 74 64 75
35 6 74 80 84
36 6 76 65 77
37 6 76 67 78
38 6 80 72 81
39 6 80 74 82
40 2 43 44 47
41 2 43 45 50
42 2 46 44 47
43 2 46 51 56
44 2 48 53 60
45 2 48 54 62
46 2 49 45 50
47 2 49 51 56
48 2 52 57 66
49 2 52 58 68
50 2 55 63 73
51 2 55 64 75
52 3 44 43 45
53 3 44 46 51
54 3 45 49 51
55 3 53 48 54
56 3 57 52 58
57 3 63 55 64
58 4 44 43 48
59 4 44 46 52
60 4 45 43 48
61 4 45 49 55
62 4 51 46 52
63 4 51 49 55
64 4 43 48 53
65 4 43 48 54
66 4 46 52 57
67 4 46 52 58
68 4 49 55 63
69 4 49 55 64
1 1 95 101 111
2 1 96 103 111
3 1 99 107 118
4 1 100 109 118
5 1 101 111 103
6 1 105 114 122
7 1 106 116 122
8 1 107 118 109
9 1 114 122 116
10 5 90 95 101
11 5 90 96 103
12 5 94 99 107
13 5 94 100 109
14 5 97 105 114
15 5 97 106 116
16 6 95 101 112
17 6 96 103 113
18 6 99 107 119
19 6 100 109 120
20 6 101 95 102
21 6 101 111 121
22 6 103 96 104
23 6 103 111 121
24 6 105 114 123
25 6 106 116 124
26 6 107 99 108
27 6 107 118 125
28 6 109 100 110
29 6 109 118 125
30 6 111 101 112
31 6 111 103 113
32 6 114 105 115
33 6 114 122 126
34 6 116 106 117
35 6 116 122 126
36 6 118 107 119
37 6 118 109 120
38 6 122 114 123
39 6 122 116 124
40 2 85 86 89
41 2 85 87 92
42 2 88 86 89
43 2 88 93 98
44 2 90 95 102
45 2 90 96 104
46 2 91 87 92
47 2 91 93 98
48 2 94 99 108
49 2 94 100 110
50 2 97 105 115
51 2 97 106 117
52 3 86 85 87
53 3 86 88 93
54 3 87 91 93
55 3 95 90 96
56 3 99 94 100
57 3 105 97 106
58 4 86 85 90
59 4 86 88 94
60 4 87 85 90
61 4 87 91 97
62 4 93 88 94
63 4 93 91 97
64 4 85 90 95
65 4 85 90 96
66 4 88 94 99
67 4 88 94 100
68 4 91 97 105
69 4 91 97 106
1 1 137 143 153
2 1 138 145 153
3 1 141 149 160
4 1 142 151 160
5 1 143 153 145
6 1 147 156 164
7 1 148 158 164
8 1 149 160 151
9 1 156 164 158
10 5 132 137 143
11 5 132 138 145
12 5 136 141 149
13 5 136 142 151
14 5 139 147 156
15 5 139 148 158
16 6 137 143 154
17 6 138 145 155
18 6 141 149 161
19 6 142 151 162
20 6 143 137 144
21 6 143 153 163
22 6 145 138 146
23 6 145 153 163
24 6 147 156 165
25 6 148 158 166
26 6 149 141 150
27 6 149 160 167
28 6 151 142 152
29 6 151 160 167
30 6 153 143 154
31 6 153 145 155
32 6 156 147 157
33 6 156 164 168
34 6 158 148 159
35 6 158 164 168
36 6 160 149 161
37 6 160 151 162
38 6 164 156 165
39 6 164 158 166
40 2 127 128 131
41 2 127 129 134
42 2 130 128 131
43 2 130 135 140
44 2 132 137 144
45 2 132 138 146
46 2 133 129 134
47 2 133 135 140
48 2 136 141 150
49 2 136 142 152
50 2 139 147 157
51 2 139 148 159
52 3 128 127 129
53 3 128 130 135
54 3 129 133 135
55 3 137 132 138
56 3 141 136 142
57 3 147 139 148
58 4 128 127 132
59 4 128 130 136
60 4 129 127 132
61 4 129 133 139
62 4 135 130 136
63 4 135 133 139
64 4 127 132 137
65 4 127 132 138
66 4 130 136 141
67 4 130 136 142
68 4 133 139 147
69 4 133 139 148

Dihedrals

1 1 6 11 17 27
2 1 6 12 19 27
3 1 10 15 23 34
4 1 10 16 25 34
5 1 13 21 30 38
6 1 13 22 32 38
7 1 6 11 17 28
8 1 6 12 19 29
9 1 10 15 23 35
10 1 10 16 25 36
11 1 13 21 30 39
12 1 13 22 32 40
13 1 11 17 27 19
14 1 12 19 27 17
15 1 15 23 34 25
16 1 16 25 34 23
17 1 21 30 38 32
18 1 22 32 38 30
19 1 11 17 27 37
20 1 12 19 27 37
21 1 15 23 34 41
22 1 16 25 34 41
23 1 17 27 19 29
24 1 19 27 17 28
25 1 21 30 38 42
26 1 22 32 38 42
27 1 23 34 25 36
28 1 25 34 23 35
29 1 18 11 17 27
30 1 20 12 19 27
31 1 30 38 32 40
32 1 32 38 30 39
33 1 24 15 23 34
34 1 26 16 25 34
35 1 31 21 30 38
36 1 33 22 32 38
37 1 18 11 17 28
38 1 20 12 19 29
39 1 24 15 23 35
40 1 26 16 25 36
41 1 28 17 27 37
42 1 29 19 27 37
43 1 31 21 30 39
44 1 33 22 32 40
45 1 35 23 34 41
46 1 36 25 34 41
47 1 39 30 38 42
48 1 40 32 38 42
49 2 1 2 4 9
50 2 1 3 7 9
51 2 3 1 2 4
52 2 3 7 9 4
53 2 2 1 3 7
54 2 2 4 9 7
55 2 1 2 4 10
56 2 1 3 7 13
57 2 4 2 1 6
58 2 4 9 7 13
59 2 6 1 3 7
60 2 7 9 4 10
61 2 3 1 2 5
62 2 5 2 4 9
63 2 2 1 3 8
64 2 8 3 7 9
65 2 2 4 9 14
66 2 3 7 9 14
67 2 12 6 11 18
68 2 11 6 12 20
69 2 16 10 15 24
70 2 15 10 16 26
71 2 22 13 21 31
72 2 21 13 22 33
73 2 5 2 1 6
74 2 5 2 4 10
75 2 6 1 3 8
76 2 8 3 7 13
77 2 10 4 9 14
78 2 13 7 9 14
79 2 1 6 11 18
80 2 1 6 12 20
81 2 4 10 15 24
82 2 4 10 16 26
83 2 7 13 21 31
84 2 7 13 22 33
85 2 1 6 11 17
86 2 1 6 12 19
87 2 4 10 15 23
88 2 4 10 16 25
89 2 7 13 21 30
90 2 7 13 22 32
91 2 12 6 11 17
92 2 11 6 12 19
93 2 16 10 15 23
94 2 15 10 16 25
95 2 22 13 21 30
96 2 21 13 22 32
97 3 2 1 6 11
98 3 2 1 6 12
99 3 2 4 10 15
100 3 2 4 10 16
101 3 3 1 6 11
102 3 3 1 6 12
103 3 3 7 13 21
104 3 3 7 13 22
105 3 9 4 10 15
106 3 9 4 10 16
107 3 9 7 13 21
108 3 9 7 13 22
1 1 48 53 59 69
2 1 48 54 61 69
3 1 52 57 65 76
4 1 52 58 67 76
5 1 55 63 72 80
6 1 55 64 74 80
7 1 48 53 59 70
8 1 48 54 61 71
9 1 52 57 65 77
10 1 52 58 67 78
11 1 55 63 72 81
12 1 55 64 74 82
13 1 53 59 69 61
14 1 54 61 69 59
15 1 57 65 76 67
16 1 58 67 76 65
17 1 63 72 80 74
18 1 64 74 80 72
19 1 53 59 69 79
20 1 54 61 69 79
21 1 57 65 76 83
22 1 58 67 76 83
23 1 59 69 61 71
24 1 61 69 59 70
25 1 63 72 80 84
26 1 64 74 80 84
27 1 65 76 67 78
28 1 67 76 65 77
29 1 60 53 59 69
30 1 62 54 61 69
31 1 72 80 74 82
32 1 74 80 72 81
33 1 66 57 65 76
34 1 68 58 67 76
35 1 73 63 72 80
36 1 75 64 74 80
37 1 60 53 59 70
38 1 62 54 61 71
39 1 66 57 65 77
40 1 68 58 67 78
41 1 70 59 69 79
42 1 71 61 69 79
43 1 73 63 72 81
44 1 75 64 74 82
45 1 77 65 76 83
46 1 78 67 76 83
47 1 81 72 80 84
48 1 82 74 80 84
49 2 43 44 46 51
50 2 43 45 49 51
51 2 45 43 44 46
52 2 45 49 51 46
53 2 44 43 45 49
54 2 44 46 51 49
55 2 43 44 46 52
56 2 43 45 49 55
57 2 46 44 43 48
58 2 46 51 49 55
59 2 48 43 45 49
60 2 49 51 46 52
61 2 45 43 44 47
62 2 47 44 46 51
63 2 44 43 45 50
64 2 50 45 49 51
65 2 44 46 51 56
66 2 45 49 51 56
67 2 54 48 53 60
68 2 53 48 54 62
69 2 58 52 57 66
70 2 57 52 58 68
71 2 64 55 63 73
72 2 63 55 64 75
73 2 47 44 43 48
74 2 47 44 46 52
75 2 48 43 45 50
76 2 50 45 49 55
77 2 52 46 51 56
78 2 55 49 51 56
79 2 43 48 53 60
80 2 43 48 54 62
81 2 46 52 57 66
82 2 46 52 58 68
83 2 49 55 63 73
84 2 49 55 64 75
85 2 43 48 53 59
86 2 43 48 54 61
87 2 46 52 57 65
88 2 46 52 58 67
89 2 49 55 63 72
90 2 49 55 64 74
91 2 54 48 53 59
92 2 53 48 54 61
93 2 58 52 57 65
94 2 57 52 58 67
95 2 64 55 63 72
96 2 63 55 64 74
97 3 44 43 48 53
98 3 44 43 48 54
99 3 44 46 52 57
100 3 44 46 52 58
101 3 45 43 48 53
102 3 45 43 48 54
103 3 45 49 55 63
104 3 45 49 55 64
105 3 51 46 52 57
106 3 51 46 52 58
107 3 51 49 55 63
108 3 51 49 55 64
1 1 90 95 101 111
2 1 90 96 103 111
3 1 94 99 107 118
4 1 94 100 109 118
5 1 97 105 114 122
6 1 97 106 116 122
7 1 90 95 101 112
8 1 90 96 103 113
9 1 94 99 107 119
10 1 94 100 109 120
11 1 97 105 114 123
12 1 97 106 116 124
13 1 95 101 111 103
14 1 96 103 111 101
15 1 99 107 118 109
16 1 100 109 118 107
17 1 105 114 122 116
18 1 106 116 122 114
19 1 95 101 111 121
20 1 96 103 111 121
21 1 99 107 118 125
22 1 100 109 118 125
23 1 101 111 103 113
24 1 103 111 101 112
25 1 105 114 122 126
26 1 106 116 122 126
27 1 107 118 109 120
28 1 109 118 107 119
29 1 102 95 101 111
30 1 104 96 103 111
31 1 114 122 116 124
32 1 116 122 114 123
33 1 108 99 107 118
34 1 110 100 109 118
35 1 115 105 114 122
36 1 117 106 116 122
37 1 102 95 101 112
38 1 104 96 103 113
39 1 108 99 107 119
40 1 110 100 109 120
41 1 112 101 111 121
42 1 113 103 111 121
43 1 115 105 114 123
44 1 117 106 116 124
45 1 119 107 118 125
46 1 120 109 118 125
47 1 123 114 122 126
48 1 124 116 122 126
49 2 85 86 88 93
50 2 85 87 91 93
51 2 87 85 86 88
52 2 87 91 93 88
53 2 86 85 87 91
54 2 86 88 93 91
55 2 85 86 88 94
56 2 85 87 91 97
57 2 88 86 85 90
58 2 88 93 91 97
59 2 90 85 87 91
60 2 91 93 88 94
61 2 87 85 86 89
62 2 89 86 88 93
63 2 86 85 87 92
64 2 92 87 91 93
65 2 86 88 93 98
66 2 87 91 93 98
67 2 96 90 95 102
68 2 95 90 96 104
69 2 100 94 99 108
70 2 99 94 100 110
71 2 106 97 105 115
72 2 105 97 106 117
73 2 89 86 85 90
74 2 89 86 88 94
75 2 90 85 87 92
76 2 92 87 91 97
77 2 94 88 93 98
78 2 97 91 93 98
79 2 85 90 95 102
80 2 85 90 96 104
81 2 88 94 99 108
82 2 88 94 100 110
83 2 91 97 105 115
84 2 91 97 106 117
85 2 85 90 95 101
86 2 85 90 96 103
87 2 88 94 99 107
88 2 88 94 100 109
89 2 91 97 105 114
90 2 91 97 106 116
91 2 96 90 95 101
92 2 95 90 96 103
93 2 100 94 99 107
94 2 99 94 100 109
95 2 106 97 105 114
96 2 105 97 106 116
97 3 86 85 90 95
98 3 86 85 90 96
99 3 86 88 94 99
100 3 86 88 94 100
101 3 87 85 90 95
102 3 87 85 90 96
103 3 87 91 97 105
104 3 87 91 97 106
105 3 93 88 94 99
106 3 93 88 94 100
107 3 93 91 97 105
108 3 93 91 97 106
1 1 132 137 143 153
2 1 132 138 145 153
3 1 136 141 149 160
4 1 136 142 151 160
5 1 139 147 156 164
6 1 139 148 158 164
7 1 132 137 143 154
8 1 132 138 145 155
9 1 136 141 149 161
10 1 136 142 151 162
11 1 139 147 156 165
12 1 139 148 158 166
13 1 137 143 153 145
14 1 138 145 153 143
15 1 141 149 160 151
16 1 142 151 160 149
17 1 147 156 164 158
18 1 148 158 164 156
19 1 137 143 153 163
20 1 138 145 153 163
21 1 141 149 160 167
22 1 142 151 160 167
23 1 143 153 145 155
24 1 145 153 143 154
25 1 147 156 164 168
26 1 148 158 164 168
27 1 149 160 151 162
28 1 151 160 149 161
29 1 144 137 143 153
30 1 146 138 145 153
31 1 156 164 158 166
32 1 158 164 156 165
33 1 150 141 149 160
34 1 152 142 151 160
35 1 157 147 156 164
36 1 159 148 158 164
37 1 144 137 143 154
38 1 146 138 145 155
39 1 150 141 149 161
40 1 152 142 151 162
41 1 154 143 153 163
42 1 155 145 153 163
43 1 157 147 156 165
44 1 159 148 158 166
45 1 161 149 160 167
46 1 162 151 160 167
47 1 165 156 164 168
48 1 166 158 164 168
49 2 127 128 130 135
50 2 127 129 133 135
51 2 129 127 128 130
52 2 129 133 135 130
53 2 128 127 129 133
54 2 128 130 135 133
55 2 127 128 130 136
56 2 127 129 133 139
57 2 130 128 127 132
58 2 130 135 133 139
59 2 132 127 129 133
60 2 133 135 130 136
61 2 129 127 128 131
62 2 131 128 130 135
63 2 128 127 129 134
64 2 134 129 133 135
65 2 128 130 135 140
66 2 129 133 135 140
67 2 138 132 137 144
68 2 137 132 138 146
69 2 142 136 141 150
70 2 141 136 142 152
71 2 148 139 147 157
72 2 147 139 148 159
73 2 131 128 127 132
74 2 131 128 130 136
75 2 132 127 129 134
76 2 134 129 133 139
77 2 136 130 135 140
78 2 139 133 135 140
79 2 127 132 137 144
80 2 127 132 138 146
81 2 130 136 141 150
82 2 130 136 142 152
83 2 133 139 147 157
84 2 133 139 148 159
85 2 127 132 137 143
86 2 127 132 138 145
87 2 130 136 141 149
88 2 130 136 142 151
89 2 133 139 147 156
90 2 133 139 148 158
91 2 138 132 137 143
92 2 137 132 138 145
93 2 142 136 141 149
94 2 141 136 142 151
95 2 148 139 147 156
96 2 147 139 148 158
97 3 128 127 132 137
98 3 128 127 132 138
99 3 128 130 136 141
100 3 128 130 136 142
101 3 129 127 132 137
102 3 129 127 132 138
103 3 129 133 139 147
104 3 129 133 139 148
105 3 135 130 136 141
106 3 135 130 136 142
107 3 135 133 139 147
108 3 135 133 139 148

Impropers

1 1 1 4 2 5
2 1 1 7 3 8
3 1 4 7 9 14
4 1 6 17 11 18
5 1 6 19 12 20
6 1 10 23 15 24
7 1 10 25 16 26
8 1 13 30 21 31
9 1 13 32 22 33
10 1 11 27 17 28
11 1 12 27 19 29
12 1 15 34 23 35
13 1 16 34 25 36
14 1 17 19 27 37
15 1 21 38 30 39
16 1 22 38 32 40
17 1 23 25 34 41
18 1 30 32 38 42
1 1 43 46 44 47
2 1 43 49 45 50
3 1 46 49 51 56
4 1 48 59 53 60
5 1 48 61 54 62
6 1 52 65 57 66
7 1 52 67 58 68
8 1 55 72 63 73
9 1 55 74 64 75
10 1 53 69 59 70
11 1 54 69 61 71
12 1 57 76 65 77
13 1 58 76 67 78
14 1 59 61 69 79
15 1 63 80 72 81
16 1 64 80 74 82
17 1 65 67 76 83
18 1 72 74 80 84
1 1 85 88 86 89
2 1 85 91 87 92
3 1 88 91 93 98
4 1 90 101 95 102
5 1 90 103 96 104
6 1 94 107 99 108
7 1 94 109 100 110
8 1 97 114 105 115
9 1 97 116 106 117
10 1 95 111 101 112
11 1 96 111 103 113
12 1 99 118 107 119
13 1 100 118 109 120
14 1 101 103 111 121
15 1 105 122 114 123
16 1 106 122 116 124
17 1 107 109 118 125
18 1 114 116 122 126
1 1 127 130 128 131
2 1 127 133 129 134
3 1 130 133 135 140
4 1 132 143 137 144
5 1 132 145 138 146
6 1 136 149 141 150
7 1 136 151 142 152
8 1 139 156 147 157
9 1 139 158 148 159
10 1 137 153 143 154
11 1 138 153 145 155
12 1 141 160 149 161
13 1 142 160 151 162
14 1 143 145 153 163
15 1 147 164 156 165
16 1 148 164 158 166
17 1 149 151 160 167
18 1 156 158 164 168

