LAMMPS Description

22  atoms
23  bonds
36  angles
52  dihedrals
10  impropers

3  atom types
4  bond types
6  angle types
3  dihedral types
1  improper types

-5.092320 5.092320 xlo xhi
-2.188480 2.188490 ylo yhi
-0.890606 0.890606 zlo zhi

Masses

1 1.008  # ha
2 12.01  # ca
3 12.01  # cp

Atoms

1 1 3 0.036750 -0.74228700 -0.00000900 -0.00000400
2 1 2 -0.096100 -1.45656200 -1.11611900 0.44230600
3 1 2 -0.096130 -1.45655000 1.11611300 -0.44230300
4 1 2 -0.107370 -2.84549600 -1.11675600 0.44221300
5 1 1 0.084910 -0.91752200 -1.98291000 0.80964200
6 1 3 0.036770 0.74228700 -0.00000900 0.00000500
7 1 2 -0.107350 -2.84548300 1.11676300 -0.44221500
8 1 1 0.084960 -0.91749900 1.98290200 -0.80962700
9 1 2 -0.079090 -3.54525300 0.00000500 -0.00000400
10 1 1 0.096840 -3.38276400 -1.98952500 0.79649700
11 1 2 -0.096130 1.45656200 -1.11611900 -0.44230600
12 1 2 -0.096150 1.45655000 1.11611300 0.44230300
13 1 1 0.096860 -3.38274200 1.98953900 -0.79649300
14 1 1 0.085710 -4.62937800 0.00001200 -0.00000400
15 1 2 -0.107340 2.84549600 -1.11675600 -0.44221300
16 1 1 0.084910 0.91752200 -1.98291000 -0.80964200
17 1 2 -0.107330 2.84548300 1.11676300 0.44221400
18 1 1 0.084970 0.91749900 1.98290200 0.80962700
19 1 2 -0.079110 3.54525300 0.00000500 0.00000400
20 1 1 0.096840 3.38276400 -1.98952500 -0.79649700
21 1 1 0.096860 3.38274300 1.98953900 0.79649300
22 1 1 0.085720 4.62937800 0.00001200 0.00000400

Bonds

1 2 1 2
2 2 1 3
3 4 1 6
4 3 2 4
5 1 2 5
6 3 3 7
7 1 3 8
8 3 4 9
9 1 4 10
10 2 6 11
11 2 6 12
12 3 7 9
13 1 7 13
14 1 9 14
15 3 11 15
16 1 11 16
17 3 12 17
18 1 12 18
19 3 15 19
20 1 15 20
21 3 17 19
22 1 17 21
23 1 19 22

Angles

1 1 2 4 9
2 1 3 7 9
3 1 4 9 7
4 1 11 15 19
5 1 12 17 19
6 1 15 19 17
7 5 1 2 4
8 5 1 3 7
9 5 6 11 15
10 5 6 12 17
11 6 2 4 10
12 6 3 7 13
13 6 4 2 5
14 6 4 9 14
15 6 7 3 8
16 6 7 9 14
17 6 9 4 10
18 6 9 7 13
19 6 11 15 20
20 6 12 17 21
21 6 15 11 16
22 6 15 19 22
23 6 17 12 18
24 6 17 19 22
25 6 19 15 20
26 6 19 17 21
27 2 1 2 5
28 2 1 3 8
29 2 6 11 16
30 2 6 12 18
31 3 2 1 3
32 3 11 6 12
33 4 2 1 6
34 4 3 1 6
35 4 1 6 11
36 4 1 6 12

Dihedrals

1 1 1 2 4 9
2 1 1 3 7 9
3 1 6 11 15 19
4 1 6 12 17 19
5 1 1 2 4 10
6 1 1 3 7 13
7 1 6 11 15 20
8 1 6 12 17 21
9 1 2 4 9 7
10 1 3 7 9 4
11 1 11 15 19 17
12 1 12 17 19 15
13 1 2 4 9 14
14 1 3 7 9 14
15 1 4 9 7 13
16 1 7 9 4 10
17 1 5 2 4 9
18 1 8 3 7 9
19 1 11 15 19 22
20 1 12 17 19 22
21 1 15 19 17 21
22 1 17 19 15 20
23 1 16 11 15 19
24 1 18 12 17 19
25 1 5 2 4 10
26 1 8 3 7 13
27 1 10 4 9 14
28 1 13 7 9 14
29 1 16 11 15 20
30 1 18 12 17 21
31 1 20 15 19 22
32 1 21 17 19 22
33 2 3 1 2 4
34 2 2 1 3 7
35 2 12 6 11 15
36 2 11 6 12 17
37 2 4 2 1 6
38 2 6 1 3 7
39 2 1 6 11 15
40 2 1 6 12 17
41 2 3 1 2 5
42 2 2 1 3 8
43 2 12 6 11 16
44 2 11 6 12 18
45 2 5 2 1 6
46 2 6 1 3 8
47 2 1 6 11 16
48 2 1 6 12 18
49 3 2 1 6 11
50 3 2 1 6 12
51 3 3 1 6 11
52 3 3 1 6 12

Impropers

1 1 1 4 2 5
2 1 1 7 3 8
3 1 6 15 11 16
4 1 6 17 12 18
5 1 2 9 4 10
6 1 3 9 7 13
7 1 4 7 9 14
8 1 11 19 15 20
9 1 12 19 17 21
10 1 15 17 19 22

