LAMMPS Description

19  atoms
19  bonds
30  angles
38  dihedrals
7  impropers

8  atom types
8  bond types
11  angle types
6  dihedral types
3  improper types

-4.517830 4.520240 xlo xhi
-2.592490 2.558280 ylo yhi
-0.886079 1.038900 zlo zhi

Masses

1 12.01  # c
2 14.01  # n
3 12.01  # ca
4 12.01  # c3
5 16.00  # o
6 1.008  # ha
7 1.008  # hc
8 1.008  # hn

Atoms

1 1 3 0.501150 -0.30393000 -0.28653500 -0.00435500
2 1 3 -0.305690 -0.74928400 1.03620300 -0.00191500
3 1 3 -0.367530 -1.23759700 -1.32712000 -0.00227900
4 1 3 -0.033320 -2.11589400 1.29333300 0.00288200
5 1 6 0.205190 -0.03220900 1.84285100 -0.00378800
6 1 2 -0.815620 1.05854900 -0.64789400 -0.00938200
7 1 3 -0.016050 -2.59609200 -1.05401000 0.00232000
8 1 6 0.173410 -0.89617700 -2.35836400 -0.00418900
9 1 3 -0.178800 -3.04526900 0.26196600 0.00501500
10 1 6 0.099990 -2.45230700 2.32415600 0.00480000
11 1 1 0.862250 2.16772700 0.16026600 -0.00494900
12 1 8 0.385240 1.23371000 -1.63912400 -0.01114400
13 1 6 0.095670 -3.30488200 -1.87437200 0.00387200
14 1 6 0.112880 -4.10700900 0.47849900 0.00866400
15 1 4 -0.482530 3.48842800 -0.58308300 0.00965100
16 1 5 -0.636920 2.12520600 1.37236000 -0.00324100
17 1 7 0.139320 3.99522500 -0.36294400 0.95139700
18 1 7 0.132690 4.10941900 -0.19499700 -0.79858000
19 1 7 0.128670 3.39419400 -1.66545700 -0.09764700

Bonds

1 8 1 2
2 8 1 3
3 6 1 6
4 8 2 4
5 4 2 5
6 8 3 7
7 4 3 8
8 8 4 9
9 4 4 10
10 3 6 11
11 2 6 12
12 8 7 9
13 4 7 13
14 4 9 14
15 5 11 15
16 7 11 16
17 1 15 17
18 1 15 18
19 1 15 19

Angles

1 5 11 15 17
2 5 11 15 18
3 5 11 15 19
4 4 17 15 18
5 4 17 15 19
6 4 18 15 19
7 2 1 2 4
8 2 1 3 7
9 2 2 1 3
10 2 2 4 9
11 2 3 7 9
12 2 4 9 7
13 7 1 2 5
14 7 1 3 8
15 7 2 4 10
16 7 3 7 13
17 7 4 2 5
18 7 4 9 14
19 7 7 3 8
20 7 7 9 14
21 7 9 4 10
22 7 9 7 13
23 8 2 1 6
24 8 3 1 6
25 9 6 11 15
26 10 15 11 16
27 3 6 11 16
28 11 1 6 12
29 6 1 6 11
30 1 11 6 12

Dihedrals

1 4 6 11 15 17
2 4 6 11 15 18
3 4 6 11 15 19
4 5 1 6 11 15
5 5 12 6 11 15
6 5 1 6 11 16
7 2 1 2 4 9
8 2 1 3 7 9
9 2 2 1 3 7
10 2 2 4 9 7
11 2 3 1 2 4
12 2 3 7 9 4
13 2 1 2 4 10
14 2 1 3 7 13
15 2 2 1 3 8
16 2 2 4 9 14
17 2 3 1 2 5
18 2 3 7 9 14
19 2 4 9 7 13
20 2 7 9 4 10
21 2 5 2 4 9
22 2 8 3 7 9
23 2 4 2 1 6
24 2 6 1 3 7
25 2 5 2 1 6
26 2 6 1 3 8
27 2 5 2 4 10
28 2 8 3 7 13
29 2 10 4 9 14
30 2 13 7 9 14
31 3 2 1 6 11
32 3 3 1 6 11
33 3 2 1 6 12
34 3 3 1 6 12
35 6 12 6 11 16
36 1 16 11 15 17
37 1 16 11 15 18
38 1 16 11 15 19

Impropers

1 1 6 15 11 16
2 2 1 4 2 5
3 2 1 7 3 8
4 2 2 9 4 10
5 2 3 9 7 13
6 2 4 7 9 14
7 3 1 11 6 12

