LAMMPS Description

96 atoms
100 bonds
156 angles
224 dihedrals
44 impropers

13 atom types
4 bond types
5 angle types
2 dihedral types
2 improper types

-50.00000  50.00000 xlo xhi
-50.00000  50.00000 ylo yhi
-50.00000  50.00000 zlo zhi

Masses

1  12.01000 # CA0
2  12.01000 # CA1
3  12.01000 # CA2
4  12.01000 # CA3
5   1.00800 # HA0
6  12.01000 # C
7  12.01000 # CA4
8   1.00800 # HA1
9  12.01000 # CA5
10   1.00800 # HA2
11  16.00000 # O
12   1.00800 # HA3
13   1.00800 # HA4

Atoms

1 1 1  -0.06997   1.97017   5.73656   9.70144
2 1 2   0.00012   1.42456   5.10060  10.81564
3 1 3  -0.08598   2.69825   5.04027   8.74354
4 1 4  -0.14426   1.65846   3.74890  11.01205
5 1 5   0.03841   0.84139   5.65712  11.53755
6 1 6   0.47772   1.66073   7.17120   9.40746
7 1 7  -0.11541   2.93533   3.69236   8.95881
8 1 8   0.11961   3.10012   5.53809   7.86977
9 1 9  -0.08108   2.41625   3.05262  10.07929
10 1 10   0.12916   1.24361   3.24377  11.87405
11 1 1  -0.06997   1.49771   8.17790  10.50559
12 1 11  -0.50334   1.54722   7.52894   8.24675
13 1 12   0.11038   3.51106   3.12815   8.23847
14 1 13   0.11184   2.61085   1.99751  10.22550
15 1 2   0.00012   2.14586   8.03004  11.73156
16 1 3  -0.08598   0.76198   9.31743  10.20098
17 1 4  -0.14426   2.00178   9.01137  12.70004
18 1 5   0.03841   2.73741   7.14813  11.94151
19 1 7  -0.11541   0.62648  10.29040  11.17736
20 1 8   0.11961   0.28080   9.43224   9.23852
21 1 9  -0.08108   1.24845  10.14038  12.41150
22 1 10   0.12916   2.48553   8.90624  13.66226
23 1 12   0.11038   0.04548  11.18038  10.97297
24 1 13   0.11184   1.13495  10.91349  13.16035
25 2 1  -0.06997   5.77280   0.62261   8.36265
26 2 2   0.00012   6.32065  -0.01083   7.24811
27 2 3  -0.08598   5.04547  -0.07637   9.31914
28 2 4  -0.14426   6.09006  -1.36286   7.04997
29 2 5   0.03841   6.90313   0.54787   6.52737
30 2 6   0.47772   6.08002   2.05726   8.65884
31 2 7  -0.11541   4.81182  -1.42457   9.10220
32 2 8   0.11961   4.64157   0.41946  10.19311
33 2 9  -0.08108   5.33350  -2.06197   7.98160
34 2 10   0.12916   6.50706  -1.86612   6.18785
35 2 1  -0.06997   6.24377   3.06534   7.56227
36 2 11  -0.50334   6.19204   2.41376   9.82001
37 2 12   0.11038   4.23727  -1.99104   9.82176
38 2 13   0.11184   5.14222  -3.11760   7.83467
39 2 2   0.00012   5.59461   2.91986   6.33667
40 2 3  -0.08598   6.98125   4.20341   7.86790
41 2 4  -0.14426   5.73911   3.90238   5.36944
42 2 5   0.03841   5.00171   2.03897   6.12627
43 2 7  -0.11541   7.11755   5.17741   6.89258
44 2 8   0.11961   7.46308   4.31628   8.83030
45 2 9  -0.08108   6.49451   5.02992   5.65861
46 2 10   0.12916   5.25439   3.79908   4.40754
47 2 12   0.11038   7.70005   6.06620   7.09772
48 2 13   0.11184   6.60847   5.80393   4.91057
49 3 1  -0.06997   1.87367   4.50409   3.67306
50 3 2   0.00012   2.42230   5.13787   4.78701
51 3 3  -0.08598   1.14551   5.20278   2.71695
52 3 4  -0.14426   2.19189   6.48998   4.98491
53 3 5   0.03841   3.00544   4.57936   5.50736
54 3 6   0.47772   2.18086   3.06936   3.37718
55 3 7  -0.11541   0.91194   6.55109   2.93355
56 3 8   0.11961   0.74099   4.70665   1.84346
57 3 9  -0.08108   1.43469   7.18883   4.05353
58 3 10   0.12916   2.60942   6.99344   5.84670
59 3 1  -0.06997   2.34606   2.06188   4.47411
60 3 11  -0.50334   2.29189   2.71243   2.21608
61 3 12   0.11038   0.33640   7.11714   2.21438
62 3 13   0.11184   1.24358   8.24450   4.20035
63 3 2   0.00012   1.69746   2.20739   5.69997
64 3 3  -0.08598   3.08504   0.92468   4.16902
65 3 4  -0.14426   1.84468   1.22623   6.66823
66 3 5   0.03841   1.10316   3.08746   5.90980
67 3 7  -0.11541   3.22390  -0.04812   5.14516
68 3 8   0.11961   3.56612   0.81168   3.20636
69 3 9  -0.08108   2.60183   0.09967   6.37959
70 3 10   0.12916   1.36067   1.32982   7.63047
71 3 12   0.11038   3.80775  -0.93615   4.94036
72 3 13   0.11184   2.71796  -0.67333   7.12834
73 4 1  -0.06997   5.86013   9.61842   2.34186
74 4 2   0.00012   5.30608  10.25305   1.23105
75 4 3  -0.08598   6.59067  10.31681   3.29635
76 4 4  -0.14426   5.53283  11.60600   1.03484
77 4 5   0.03841   4.72123   9.69475   0.51191
78 4 6   0.47772   5.55777   8.18232   2.63603
79 4 7  -0.11541   6.82101  11.66589   3.08092
80 4 8   0.11961   6.99944   9.81986   4.16746
81 4 9  -0.08108   6.29278  12.30458   1.96409
82 4 10   0.12916   5.11056  12.11029   0.17591
83 4 1  -0.06997   5.38781   7.17774   1.53735
84 4 11  -0.50334   5.45446   7.82182   3.79680
85 4 12   0.11038   7.39850  12.23184   3.79855
86 4 13   0.11184   6.48169  13.36075   1.81800
87 4 2   0.00012   6.03347   7.32528   0.31021
88 4 3  -0.08598   4.64901   6.04043   1.84223
89 4 4  -0.14426   5.88365   6.34582  -0.65934
90 4 5   0.03841   6.62738   8.20561   0.10037
91 4 7  -0.11541   4.50736   5.06955   0.86461
92 4 8   0.11961   4.17005   5.92601   2.80575
93 4 9  -0.08108   5.12683   5.21914  -0.37084
94 4 10   0.12916   6.36557   6.45058  -1.62248
95 4 12   0.11038   3.92355   4.18146   1.06900
96 4 13   0.11184   5.00877   4.44757  -1.12066

Bonds

1 4 1 2
2 4 1 3
3 1 1 6
4 4 2 4
5 3 2 5
6 4 3 7
7 3 3 8
8 4 4 9
9 3 4 10
10 1 6 11
11 2 6 12
12 4 7 9
13 3 7 13
14 3 9 14
15 4 11 15
16 4 11 16
17 4 15 17
18 3 15 18
19 4 16 19
20 3 16 20
21 4 17 21
22 3 17 22
23 4 19 21
24 3 19 23
25 3 21 24
1 4 25 26
2 4 25 27
3 1 25 30
4 4 26 28
5 3 26 29
6 4 27 31
7 3 27 32
8 4 28 33
9 3 28 34
10 1 30 35
11 2 30 36
12 4 31 33
13 3 31 37
14 3 33 38
15 4 35 39
16 4 35 40
17 4 39 41
18 3 39 42
19 4 40 43
20 3 40 44
21 4 41 45
22 3 41 46
23 4 43 45
24 3 43 47
25 3 45 48
1 4 49 50
2 4 49 51
3 1 49 54
4 4 50 52
5 3 50 53
6 4 51 55
7 3 51 56
8 4 52 57
9 3 52 58
10 1 54 59
11 2 54 60
12 4 55 57
13 3 55 61
14 3 57 62
15 4 59 63
16 4 59 64
17 4 63 65
18 3 63 66
19 4 64 67
20 3 64 68
21 4 65 69
22 3 65 70
23 4 67 69
24 3 67 71
25 3 69 72
1 4 73 74
2 4 73 75
3 1 73 78
4 4 74 76
5 3 74 77
6 4 75 79
7 3 75 80
8 4 76 81
9 3 76 82
10 1 78 83
11 2 78 84
12 4 79 81
13 3 79 85
14 3 81 86
15 4 83 87
16 4 83 88
17 4 87 89
18 3 87 90
19 4 88 91
20 3 88 92
21 4 89 93
22 3 89 94
23 4 91 93
24 3 91 95
25 3 93 96

Angles

1 1 1 2 4
2 1 1 3 7
3 1 2 1 3
4 1 2 4 9
5 1 3 7 9
6 1 4 9 7
7 1 11 15 17
8 1 11 16 19
9 1 15 11 16
10 1 15 17 21
11 1 16 19 21
12 1 17 21 19
13 3 1 2 5
14 3 1 3 8
15 3 2 4 10
16 3 3 7 13
17 3 4 2 5
18 3 4 9 14
19 3 7 3 8
20 3 7 9 14
21 3 9 4 10
22 3 9 7 13
23 3 11 15 18
24 3 11 16 20
25 3 15 17 22
26 3 16 19 23
27 3 17 15 18
28 3 17 21 24
29 3 19 16 20
30 3 19 21 24
31 3 21 17 22
32 3 21 19 23
33 5 2 1 6
34 5 3 1 6
35 5 6 11 15
36 5 6 11 16
37 2 1 6 11
38 4 1 6 12
39 4 11 6 12
1 1 25 26 28
2 1 25 27 31
3 1 26 25 27
4 1 26 28 33
5 1 27 31 33
6 1 28 33 31
7 1 35 39 41
8 1 35 40 43
9 1 39 35 40
10 1 39 41 45
11 1 40 43 45
12 1 41 45 43
13 3 25 26 29
14 3 25 27 32
15 3 26 28 34
16 3 27 31 37
17 3 28 26 29
18 3 28 33 38
19 3 31 27 32
20 3 31 33 38
21 3 33 28 34
22 3 33 31 37
23 3 35 39 42
24 3 35 40 44
25 3 39 41 46
26 3 40 43 47
27 3 41 39 42
28 3 41 45 48
29 3 43 40 44
30 3 43 45 48
31 3 45 41 46
32 3 45 43 47
33 5 26 25 30
34 5 27 25 30
35 5 30 35 39
36 5 30 35 40
37 2 25 30 35
38 4 25 30 36
39 4 35 30 36
1 1 49 50 52
2 1 49 51 55
3 1 50 49 51
4 1 50 52 57
5 1 51 55 57
6 1 52 57 55
7 1 59 63 65
8 1 59 64 67
9 1 63 59 64
10 1 63 65 69
11 1 64 67 69
12 1 65 69 67
13 3 49 50 53
14 3 49 51 56
15 3 50 52 58
16 3 51 55 61
17 3 52 50 53
18 3 52 57 62
19 3 55 51 56
20 3 55 57 62
21 3 57 52 58
22 3 57 55 61
23 3 59 63 66
24 3 59 64 68
25 3 63 65 70
26 3 64 67 71
27 3 65 63 66
28 3 65 69 72
29 3 67 64 68
30 3 67 69 72
31 3 69 65 70
32 3 69 67 71
33 5 50 49 54
34 5 51 49 54
35 5 54 59 63
36 5 54 59 64
37 2 49 54 59
38 4 49 54 60
39 4 59 54 60
1 1 73 74 76
2 1 73 75 79
3 1 74 73 75
4 1 74 76 81
5 1 75 79 81
6 1 76 81 79
7 1 83 87 89
8 1 83 88 91
9 1 87 83 88
10 1 87 89 93
11 1 88 91 93
12 1 89 93 91
13 3 73 74 77
14 3 73 75 80
15 3 74 76 82
16 3 75 79 85
17 3 76 74 77
18 3 76 81 86
19 3 79 75 80
20 3 79 81 86
21 3 81 76 82
22 3 81 79 85
23 3 83 87 90
24 3 83 88 92
25 3 87 89 94
26 3 88 91 95
27 3 89 87 90
28 3 89 93 96
29 3 91 88 92
30 3 91 93 96
31 3 93 89 94
32 3 93 91 95
33 5 74 73 78
34 5 75 73 78
35 5 78 83 87
36 5 78 83 88
37 2 73 78 83
38 4 73 78 84
39 4 83 78 84

Dihedrals

1 2 1 6 11 15
2 2 1 6 11 16
3 2 2 1 6 11
4 2 3 1 6 11
5 2 2 1 6 12
6 2 3 1 6 12
7 2 12 6 11 15
8 2 12 6 11 16
9 1 1 2 4 9
10 1 1 3 7 9
11 1 2 1 3 7
12 1 2 4 9 7
13 1 3 1 2 4
14 1 3 7 9 4
15 1 11 15 17 21
16 1 11 16 19 21
17 1 15 11 16 19
18 1 15 17 21 19
19 1 16 11 15 17
20 1 16 19 21 17
21 1 1 2 4 10
22 1 1 3 7 13
23 1 2 1 3 8
24 1 2 4 9 14
25 1 3 1 2 5
26 1 3 7 9 14
27 1 4 9 7 13
28 1 7 9 4 10
29 1 5 2 4 9
30 1 8 3 7 9
31 1 11 15 17 22
32 1 11 16 19 23
33 1 15 11 16 20
34 1 15 17 21 24
35 1 16 11 15 18
36 1 16 19 21 24
37 1 17 21 19 23
38 1 19 21 17 22
39 1 18 15 17 21
40 1 20 16 19 21
41 1 4 2 1 6
42 1 6 1 3 7
43 1 6 11 15 17
44 1 6 11 16 19
45 1 5 2 1 6
46 1 6 1 3 8
47 1 6 11 15 18
48 1 6 11 16 20
49 1 5 2 4 10
50 1 8 3 7 13
51 1 10 4 9 14
52 1 13 7 9 14
53 1 18 15 17 22
54 1 20 16 19 23
55 1 22 17 21 24
56 1 23 19 21 24
1 2 25 30 35 39
2 2 25 30 35 40
3 2 26 25 30 35
4 2 27 25 30 35
5 2 26 25 30 36
6 2 27 25 30 36
7 2 36 30 35 39
8 2 36 30 35 40
9 1 25 26 28 33
10 1 25 27 31 33
11 1 26 25 27 31
12 1 26 28 33 31
13 1 27 25 26 28
14 1 27 31 33 28
15 1 35 39 41 45
16 1 35 40 43 45
17 1 39 35 40 43
18 1 39 41 45 43
19 1 40 35 39 41
20 1 40 43 45 41
21 1 25 26 28 34
22 1 25 27 31 37
23 1 26 25 27 32
24 1 26 28 33 38
25 1 27 25 26 29
26 1 27 31 33 38
27 1 28 33 31 37
28 1 31 33 28 34
29 1 29 26 28 33
30 1 32 27 31 33
31 1 35 39 41 46
32 1 35 40 43 47
33 1 39 35 40 44
34 1 39 41 45 48
35 1 40 35 39 42
36 1 40 43 45 48
37 1 41 45 43 47
38 1 43 45 41 46
39 1 42 39 41 45
40 1 44 40 43 45
41 1 28 26 25 30
42 1 30 25 27 31
43 1 30 35 39 41
44 1 30 35 40 43
45 1 29 26 25 30
46 1 30 25 27 32
47 1 30 35 39 42
48 1 30 35 40 44
49 1 29 26 28 34
50 1 32 27 31 37
51 1 34 28 33 38
52 1 37 31 33 38
53 1 42 39 41 46
54 1 44 40 43 47
55 1 46 41 45 48
56 1 47 43 45 48
1 2 49 54 59 63
2 2 49 54 59 64
3 2 50 49 54 59
4 2 51 49 54 59
5 2 50 49 54 60
6 2 51 49 54 60
7 2 60 54 59 63
8 2 60 54 59 64
9 1 49 50 52 57
10 1 49 51 55 57
11 1 50 49 51 55
12 1 50 52 57 55
13 1 51 49 50 52
14 1 51 55 57 52
15 1 59 63 65 69
16 1 59 64 67 69
17 1 63 59 64 67
18 1 63 65 69 67
19 1 64 59 63 65
20 1 64 67 69 65
21 1 49 50 52 58
22 1 49 51 55 61
23 1 50 49 51 56
24 1 50 52 57 62
25 1 51 49 50 53
26 1 51 55 57 62
27 1 52 57 55 61
28 1 55 57 52 58
29 1 53 50 52 57
30 1 56 51 55 57
31 1 59 63 65 70
32 1 59 64 67 71
33 1 63 59 64 68
34 1 63 65 69 72
35 1 64 59 63 66
36 1 64 67 69 72
37 1 65 69 67 71
38 1 67 69 65 70
39 1 66 63 65 69
40 1 68 64 67 69
41 1 52 50 49 54
42 1 54 49 51 55
43 1 54 59 63 65
44 1 54 59 64 67
45 1 53 50 49 54
46 1 54 49 51 56
47 1 54 59 63 66
48 1 54 59 64 68
49 1 53 50 52 58
50 1 56 51 55 61
51 1 58 52 57 62
52 1 61 55 57 62
53 1 66 63 65 70
54 1 68 64 67 71
55 1 70 65 69 72
56 1 71 67 69 72
1 2 73 78 83 87
2 2 73 78 83 88
3 2 74 73 78 83
4 2 75 73 78 83
5 2 74 73 78 84
6 2 75 73 78 84
7 2 84 78 83 87
8 2 84 78 83 88
9 1 73 74 76 81
10 1 73 75 79 81
11 1 74 73 75 79
12 1 74 76 81 79
13 1 75 73 74 76
14 1 75 79 81 76
15 1 83 87 89 93
16 1 83 88 91 93
17 1 87 83 88 91
18 1 87 89 93 91
19 1 88 83 87 89
20 1 88 91 93 89
21 1 73 74 76 82
22 1 73 75 79 85
23 1 74 73 75 80
24 1 74 76 81 86
25 1 75 73 74 77
26 1 75 79 81 86
27 1 76 81 79 85
28 1 79 81 76 82
29 1 77 74 76 81
30 1 80 75 79 81
31 1 83 87 89 94
32 1 83 88 91 95
33 1 87 83 88 92
34 1 87 89 93 96
35 1 88 83 87 90
36 1 88 91 93 96
37 1 89 93 91 95
38 1 91 93 89 94
39 1 90 87 89 93
40 1 92 88 91 93
41 1 76 74 73 78
42 1 78 73 75 79
43 1 78 83 87 89
44 1 78 83 88 91
45 1 77 74 73 78
46 1 78 73 75 80
47 1 78 83 87 90
48 1 78 83 88 92
49 1 77 74 76 82
50 1 80 75 79 85
51 1 82 76 81 86
52 1 85 79 81 86
53 1 90 87 89 94
54 1 92 88 91 95
55 1 94 89 93 96
56 1 95 91 93 96

Impropers

1 1 1 11 6 12
2 2 1 4 2 5
3 2 1 7 3 8
4 2 2 9 4 10
5 2 3 9 7 13
6 2 4 7 9 14
7 2 11 17 15 18
8 2 11 19 16 20
9 2 15 21 17 22
10 2 16 21 19 23
11 2 17 19 21 24
1 1 25 35 30 36
2 2 25 28 26 29
3 2 25 31 27 32
4 2 26 33 28 34
5 2 27 33 31 37
6 2 28 31 33 38
7 2 35 41 39 42
8 2 35 43 40 44
9 2 39 45 41 46
10 2 40 45 43 47
11 2 41 43 45 48
1 1 49 59 54 60
2 2 49 52 50 53
3 2 49 55 51 56
4 2 50 57 52 58
5 2 51 57 55 61
6 2 52 55 57 62
7 2 59 65 63 66
8 2 59 67 64 68
9 2 63 69 65 70
10 2 64 69 67 71
11 2 65 67 69 72
1 1 73 83 78 84
2 2 73 76 74 77
3 2 73 79 75 80
4 2 74 81 76 82
5 2 75 81 79 85
6 2 76 79 81 86
7 2 83 89 87 90
8 2 83 91 88 92
9 2 87 93 89 94
10 2 88 93 91 95
11 2 89 91 93 96

