 Entering Gaussian System, Link 0=g16
 Input=_conf035.gjf
 Output=_conf035.log
 Initial command:
 /opt/ap/G16/B01/g16/l1.exe "/tmp2/scr/Gau-813.inp" -scrdir="/tmp2/scr/"
 Entering Link 1 = /opt/ap/G16/B01/g16/l1.exe PID=       814.
  
 Copyright (c) 1988-2017, Gaussian, Inc.  All Rights Reserved.
  
 This is part of the Gaussian(R) 16 program.  It is based on
 the Gaussian(R) 09 system (copyright 2009, Gaussian, Inc.),
 the Gaussian(R) 03 system (copyright 2003, Gaussian, Inc.),
 the Gaussian(R) 98 system (copyright 1998, Gaussian, Inc.),
 the Gaussian(R) 94 system (copyright 1995, Gaussian, Inc.),
 the Gaussian 92(TM) system (copyright 1992, Gaussian, Inc.),
 the Gaussian 90(TM) system (copyright 1990, Gaussian, Inc.),
 the Gaussian 88(TM) system (copyright 1988, Gaussian, Inc.),
 the Gaussian 86(TM) system (copyright 1986, Carnegie Mellon
 University), and the Gaussian 82(TM) system (copyright 1983,
 Carnegie Mellon University). Gaussian is a federally registered
 trademark of Gaussian, Inc.
  
 This software contains proprietary and confidential information,
 including trade secrets, belonging to Gaussian, Inc.
  
 This software is provided under written license and may be
 used, copied, transmitted, or stored only in accord with that
 written license.
  
 The following legend is applicable only to US Government
 contracts under FAR:
  
                    RESTRICTED RIGHTS LEGEND
  
 Use, reproduction and disclosure by the US Government is
 subject to restrictions as set forth in subparagraphs (a)
 and (c) of the Commercial Computer Software - Restricted
 Rights clause in FAR 52.227-19.
  
 Gaussian, Inc.
 340 Quinnipiac St., Bldg. 40, Wallingford CT 06492
  
  
 ---------------------------------------------------------------
 Warning -- This program may not be used in any manner that
 competes with the business of Gaussian, Inc. or will provide
 assistance to any competitor of Gaussian, Inc.  The licensee
 of this program is prohibited from giving any competitor of
 Gaussian, Inc. access to this program.  By using this program,
 the user acknowledges that Gaussian, Inc. is engaged in the
 business of creating and licensing software in the field of
 computational chemistry and represents and warrants to the
 licensee that it is not a competitor of Gaussian, Inc. and that
 it will not use this program in any manner prohibited above.
 ---------------------------------------------------------------
  

 Cite this work as:
 Gaussian 16, Revision B.01,
 M. J. Frisch, G. W. Trucks, H. B. Schlegel, G. E. Scuseria, 
 M. A. Robb, J. R. Cheeseman, G. Scalmani, V. Barone, 
 G. A. Petersson, H. Nakatsuji, X. Li, M. Caricato, A. V. Marenich, 
 J. Bloino, B. G. Janesko, R. Gomperts, B. Mennucci, H. P. Hratchian, 
 J. V. Ortiz, A. F. Izmaylov, J. L. Sonnenberg, D. Williams-Young, 
 F. Ding, F. Lipparini, F. Egidi, J. Goings, B. Peng, A. Petrone, 
 T. Henderson, D. Ranasinghe, V. G. Zakrzewski, J. Gao, N. Rega, 
 G. Zheng, W. Liang, M. Hada, M. Ehara, K. Toyota, R. Fukuda, 
 J. Hasegawa, M. Ishida, T. Nakajima, Y. Honda, O. Kitao, H. Nakai, 
 T. Vreven, K. Throssell, J. A. Montgomery, Jr., J. E. Peralta, 
 F. Ogliaro, M. J. Bearpark, J. J. Heyd, E. N. Brothers, K. N. Kudin, 
 V. N. Staroverov, T. A. Keith, R. Kobayashi, J. Normand, 
 K. Raghavachari, A. P. Rendell, J. C. Burant, S. S. Iyengar, 
 J. Tomasi, M. Cossi, J. M. Millam, M. Klene, C. Adamo, R. Cammi, 
 J. W. Ochterski, R. L. Martin, K. Morokuma, O. Farkas, 
 J. B. Foresman, and D. J. Fox, Gaussian, Inc., Wallingford CT, 2016.
 
 ******************************************
 Gaussian 16:  ES64L-G16RevB.01 20-Dec-2017
                22-Nov-2022 
 ******************************************
 %nprocshared=32
 Will use up to   32 processors via shared memory.
 %mem=120GB
 %chk=_conf035.chk
 ----------------------------------------
 #P wB97XD/6-311++G(d,p) scf=maxcycle=512
 ----------------------------------------
 1/38=1,172=1/1;
 2/12=2,17=6,18=5,40=1/2;
 3/5=4,6=6,7=1111,11=2,25=1,30=1,74=-58/1,2,3;
 4//1;
 5/5=2,7=512,38=5/2;
 6/7=2,8=2,9=2,10=2,28=1/1;
 99/5=1,9=1/99;
 Leave Link    1 at Tue Nov 22 19:12:53 2022, MaxMem= 16106127360 cpu:               1.5 elap:               0.1
 (Enter /opt/ap/G16/B01/g16/l101.exe)
 ----------------------------
 _conf035.gjf nmol_natom 1_19
 ----------------------------
 Symbolic Z-matrix:
 Charge =  0 Multiplicity = 1
 C
 C                    1     1.39448 
 C                    1     1.39874  2     119.56697 
 C                    2     1.39066  1     119.42697  3     2.53916  0
 H                    2     0.96213  1     119.80462  3    -177.7987  0
 N                    1     1.41693  2     123.7222  4    -177.74605  0
 C                    3     1.38667  1     120.1876  2    -2.50209  0
 H                    3     0.95673  1     118.82086  2     177.96737  0
 C                    4     1.38269  2     121.03929  1    -0.41221  0
 H                    4     0.98586  2     118.57913  1     178.77373  0
 C                    6     1.35501  1     127.62133  2     17.57863  0
 H                    6     0.89609  1     115.10512  2    -166.41127  0
 H                    7     0.98847  3     119.08118  1    -179.64585  0
 H                    9     0.98451  4     120.53756  2     177.22744  0
 C                    11    1.50275  6     115.46862  1     175.     0
 O                    11    1.23496  6     123.151  1    -5.       0
 H                    15    0.9872   11    107.47092  6    -116.36963  0
 H                    15    0.99976  11    109.69443  6     128.85346  0
 H                    15    0.97696  11    114.37009  6     6.05303  0
 
 ITRead=  0  0  0  0  0  0  0  0  0  0  0  0  0  0  0  0  0  0  0
 MicOpt= -1 -1 -1 -1 -1 -1 -1 -1 -1 -1 -1 -1 -1 -1 -1 -1 -1 -1 -1
 NAtoms=     19 NQM=       19 NQMF=       0 NMMI=      0 NMMIF=      0
                NMic=       0 NMicF=      0.
                    Isotopes and Nuclear Properties:
 (Nuclear quadrupole moments (NQMom) in fm**2, nuclear magnetic moments (NMagM)
  in nuclear magnetons)

  Atom         1           2           3           4           5           6           7           8           9          10
 IAtWgt=          12          12          12          12           1          14          12           1          12           1
 AtmWgt=  12.0000000  12.0000000  12.0000000  12.0000000   1.0078250  14.0030740  12.0000000   1.0078250  12.0000000   1.0078250
 NucSpn=           0           0           0           0           1           2           0           1           0           1
 AtZEff=  -0.0000000  -0.0000000  -0.0000000  -0.0000000  -0.0000000  -0.0000000  -0.0000000  -0.0000000  -0.0000000  -0.0000000
 NQMom=    0.0000000   0.0000000   0.0000000   0.0000000   0.0000000   2.0440000   0.0000000   0.0000000   0.0000000   0.0000000
 NMagM=    0.0000000   0.0000000   0.0000000   0.0000000   2.7928460   0.4037610   0.0000000   2.7928460   0.0000000   2.7928460
 AtZNuc=   6.0000000   6.0000000   6.0000000   6.0000000   1.0000000   7.0000000   6.0000000   1.0000000   6.0000000   1.0000000

  Atom        11          12          13          14          15          16          17          18          19
 IAtWgt=          12           1           1           1          12          16           1           1           1
 AtmWgt=  12.0000000   1.0078250   1.0078250   1.0078250  12.0000000  15.9949146   1.0078250   1.0078250   1.0078250
 NucSpn=           0           1           1           1           0           0           1           1           1
 AtZEff=  -0.0000000  -0.0000000  -0.0000000  -0.0000000  -0.0000000  -0.0000000  -0.0000000  -0.0000000  -0.0000000
 NQMom=    0.0000000   0.0000000   0.0000000   0.0000000   0.0000000   0.0000000   0.0000000   0.0000000   0.0000000
 NMagM=    0.0000000   2.7928460   2.7928460   2.7928460   0.0000000   0.0000000   2.7928460   2.7928460   2.7928460
 AtZNuc=   6.0000000   1.0000000   1.0000000   1.0000000   6.0000000   8.0000000   1.0000000   1.0000000   1.0000000
 Leave Link  101 at Tue Nov 22 19:12:53 2022, MaxMem= 16106127360 cpu:               5.2 elap:               0.2
 (Enter /opt/ap/G16/B01/g16/l202.exe)
                          Input orientation:                          
 ---------------------------------------------------------------------
 Center     Atomic      Atomic             Coordinates (Angstroms)
 Number     Number       Type             X           Y           Z
 ---------------------------------------------------------------------
      1          6           0        0.000000    0.000000    0.000000
      2          6           0        0.000000    0.000000    1.394475
      3          6           0        1.216591    0.000000   -0.690193
      4          6           0        1.210053    0.053661    2.077726
      5          1           0       -0.834249   -0.032067    1.872696
      6          7           0       -1.178505   -0.005866   -0.786634
      7          6           0        2.413939    0.052326    0.007287
      8          1           0        1.204393   -0.029731   -1.646384
      9          6           0        2.412261    0.098442    1.396177
     10          1           0        1.194755    0.071528    3.063305
     11          6           0       -2.436085    0.312014   -0.394861
     12          1           0       -1.055905   -0.195907   -1.653721
     13          1           0        3.263999    0.056828   -0.497149
     14          1           0        3.262484    0.177260    1.886251
     15          6           0       -3.469057    0.325004   -1.486211
     16          8           0       -2.732700    0.576081    0.774509
     17          1           0       -3.804258    1.250115   -1.566031
     18          1           0       -4.254709   -0.229695   -1.213117
     19          1           0       -3.144137    0.011462   -2.352567
 ---------------------------------------------------------------------
                    Distance matrix (angstroms):
                    1          2          3          4          5
     1  C    0.000000
     2  C    1.394475   0.000000
     3  C    1.398735   2.413697   0.000000
     4  C    2.405006   1.390661   2.768447   0.000000
     5  H    2.050363   0.962130   3.282586   2.056345   0.000000
     6  N    1.416934   2.479142   2.397044   3.730055   2.681648
     7  C    2.414517   2.784624   1.386671   2.395008   3.746678
     8  H    2.040105   3.270821   0.956732   3.725048   4.066939
     9  C    2.788908   2.414270   2.406711   1.382686   3.283889
    10  H    3.288829   2.053668   3.754243   0.985860   2.354812
    11  C    2.487525   3.038682   3.677855   4.413021   2.797515
    12  H    1.971829   3.231844   2.476087   4.372705   3.537173
    13  H    3.302132   3.772951   2.057273   3.293734   4.734944
    14  H    3.772687   3.304099   3.294718   2.065046   4.102100
    15  C    3.787982   4.520878   4.763882   5.888068   4.283920
    16  O    2.898169   2.860748   4.251367   4.185283   2.275956
    17  H    4.299723   4.979936   5.247743   6.312827   4.721206
    18  H    4.430233   4.995482   5.501030   6.385417   4.610949
    19  H    3.926869   4.891426   4.666858   6.211943   4.815633
                    6          7          8          9         10
     6  N    0.000000
     7  C    3.679585   0.000000
     8  H    2.533365   2.050454   0.000000
     9  C    4.203468   1.389657   3.276058   0.000000
    10  H    4.523316   3.290292   4.710788   2.064548   0.000000
    11  C    1.355007   4.873592   3.864736   5.172997   5.019935
    12  H    0.896095   3.854917   2.266411   4.627818   5.233291
    13  H    4.452366   0.988472   2.360129   2.076505   4.118108
    14  H    5.186544   2.065465   4.093666   0.984512   2.381625
    15  C    2.417750   6.075733   4.689630   6.553579   6.520237
    16  O    2.278455   5.229803   4.661377   5.204348   4.573627
    17  H    3.013226   6.525029   5.170208   6.981844   6.914474
    18  H    3.113683   6.785262   5.479918   7.166909   6.933627
    19  H    2.513196   6.038442   4.405690   6.703298   6.939832
                   11         12         13         14         15
    11  C    0.000000
    12  H    1.935874   0.000000
    13  H    5.706710   4.479186   0.000000
    14  H    6.139652   5.596351   2.386441   0.000000
    15  C    1.502746   2.474411   6.810595   7.530537   0.000000
    16  O    1.234965   3.050231   6.152002   6.110423   2.390840
    17  H    2.030657   3.106785   7.247530   7.937765   0.987198
    18  H    2.066491   3.229182   7.558152   8.141246   0.999760
    19  H    2.103397   2.211809   6.671494   7.683740   0.976962
                   16         17         18         19
    16  O    0.000000
    17  H    2.660956   0.000000
    18  H    2.629913   1.586598   0.000000
    19  H    3.204166   1.608931   1.609308   0.000000
 Stoichiometry    C8H9NO
 Framework group  C1[X(C8H9NO)]
 Deg. of freedom    51
 Full point group                 C1      NOp   1
 Largest Abelian subgroup         C1      NOp   1
 Largest concise Abelian subgroup C1      NOp   1
                         Standard orientation:                         
 ---------------------------------------------------------------------
 Center     Atomic      Atomic             Coordinates (Angstroms)
 Number     Number       Type             X           Y           Z
 ---------------------------------------------------------------------
      1          6           0       -0.295511   -0.290600   -0.111081
      2          6           0       -0.749476    1.025904   -0.183854
      3          6           0       -1.219158   -1.333030    0.018047
      4          6           0       -2.111092    1.286202   -0.073472
      5          1           0       -0.119493    1.743008   -0.304589
      6          7           0        1.072635   -0.655090   -0.166066
      7          6           0       -2.573489   -1.055317    0.125387
      8          1           0       -0.898010   -2.234043    0.037411
      9          6           0       -3.021493    0.259874    0.098694
     10          1           0       -2.416513    2.222912   -0.108286
     11          6           0        2.149761    0.142353    0.033756
     12          1           0        1.228646   -1.527175   -0.300656
     13          1           0       -3.211391   -1.804294    0.221251
     14          1           0       -3.979184    0.455258    0.216668
     15          6           0        3.480784   -0.555168    0.024587
     16          8           0        2.063704    1.361213    0.212960
     17          1           0        3.874498   -0.454222    0.924232
     18          1           0        4.102674   -0.086098   -0.602108
     19          1           0        3.438733   -1.500719   -0.217527
 ---------------------------------------------------------------------
 Rotational constants (GHZ):           3.7890101           0.7951798           0.6634976
 Leave Link  202 at Tue Nov 22 19:12:53 2022, MaxMem= 16106127360 cpu:               0.3 elap:               0.0
 (Enter /opt/ap/G16/B01/g16/l301.exe)
 Standard basis: 6-311++G(d,p) (5D, 7F)
 Ernie: Thresh=  0.10000D-02 Tol=  0.10000D-05 Strict=F.
 There are   293 symmetry adapted cartesian basis functions of A   symmetry.
 There are   283 symmetry adapted basis functions of A   symmetry.
   283 basis functions,   441 primitive gaussians,   293 cartesian basis functions
    36 alpha electrons       36 beta electrons
       nuclear repulsion energy       492.0245354981 Hartrees.
 IExCor= 4639 DFT=T Ex+Corr=wB97XD ExCW=0 ScaHFX=  1.000000
 ScaDFX=  1.000000  1.000000  1.000000  1.000000 ScalE2=  1.000000  1.000000
 IRadAn=      5 IRanWt=     -1 IRanGd=            0 ICorTp=0 IEmpDi=121
 HFx  wShort=  0.000000 wLong=  0.200000 cFull=  0.222036 cShort=  0.000000 cLong=  0.777964
 DFx  wShort=  0.000000 wLong=  0.200000 cFull=  0.000000 cShort=  0.000000 cLong=  1.000000
 NAtoms=   19 NActive=   19 NUniq=   19 SFac= 1.00D+00 NAtFMM=   60 NAOKFM=F Big=F
 Integral buffers will be    131072 words long.
 Raffenetti 2 integral format.
 Two-electron integral symmetry is turned on.
 R6Disp:  Grimme-D2 Dispersion energy=       -0.0090173485 Hartrees.
 Nuclear repulsion after empirical dispersion term =      492.0155181496 Hartrees.
 Leave Link  301 at Tue Nov 22 19:12:53 2022, MaxMem= 16106127360 cpu:               1.2 elap:               0.0
 (Enter /opt/ap/G16/B01/g16/l302.exe)
 NPDir=0 NMtPBC=     1 NCelOv=     1 NCel=       1 NClECP=     1 NCelD=      1
         NCelK=      1 NCelE2=     1 NClLst=     1 CellRange=     0.0.
 One-electron integrals computed using PRISM.
 One-electron integral symmetry used in STVInt
 NBasis=   283 RedAO= T EigKep=  2.65D-06  NBF=   283
 NBsUse=   282 1.00D-06 EigRej=  8.90D-07 NBFU=   282
 Precomputing XC quadrature grid using
 IXCGrd= 4 IRadAn=           5 IRanWt=          -1 IRanGd=           0 AccXCQ= 0.00D+00.
 Generated NRdTot=       0 NPtTot=           0 NUsed=           0 NTot=          32
 NSgBfM=   293   293   293   293   293 MxSgAt=    19 MxSgA2=    19.
 Leave Link  302 at Tue Nov 22 19:12:53 2022, MaxMem= 16106127360 cpu:               6.3 elap:               0.2
 (Enter /opt/ap/G16/B01/g16/l303.exe)
 DipDrv:  MaxL=1.
 Leave Link  303 at Tue Nov 22 19:12:53 2022, MaxMem= 16106127360 cpu:               1.3 elap:               0.0
 (Enter /opt/ap/G16/B01/g16/l401.exe)
 ExpMin= 3.60D-02 ExpMax= 8.59D+03 ExpMxC= 1.30D+03 IAcc=3 IRadAn=         5 AccDes= 0.00D+00
 Harris functional with IExCor= 4639 and IRadAn=       5 diagonalized for initial guess.
 HarFok:  IExCor= 4639 AccDes= 0.00D+00 IRadAn=         5 IDoV= 1 UseB2=F ITyADJ=14
 ICtDFT=  3500011 ScaDFX=  1.000000  1.000000  1.000000  1.000000
 FoFCou: FMM=F IPFlag=           0 FMFlag=      100000 FMFlg1=           0
         NFxFlg=           0 DoJE=T BraDBF=F KetDBF=T FulRan=T
         wScrn=  0.000000 ICntrl=       500 IOpCl=  0 I1Cent=   200000004 NGrid=           0
         NMat0=    1 NMatS0=      1 NMatT0=    0 NMatD0=    1 NMtDS0=    0 NMtDT0=    0
 Petite list used in FoFCou.
 Harris En= -420.990255253879    
 JPrj=0 DoOrth=F DoCkMO=F.
 Leave Link  401 at Tue Nov 22 19:12:54 2022, MaxMem= 16106127360 cpu:              15.2 elap:               0.5
 (Enter /opt/ap/G16/B01/g16/l502.exe)
 Integral symmetry usage will be decided dynamically.
 Closed shell SCF:
 Using DIIS extrapolation, IDIIS=  1040.
 NGot= 16106127360 LenX= 16105943385 LenY= 16105857095
 Requested convergence on RMS density matrix=1.00D-08 within 512 cycles.
 Requested convergence on MAX density matrix=1.00D-06.
 Requested convergence on             energy=1.00D-06.
 No special actions if energy rises.
 Fock matrices will be formed incrementally for  20 cycles.

 Cycle   1  Pass 1  IDiag  1:
 FoFJK:  IHMeth= 1 ICntrl=       0 DoSepK=T KAlg= 0 I1Cent=           0 FoldK=F
 IRaf=         1 NMat=       1 IRICut=       1 DoRegI=T DoRafI=F ISym2E= 0 IDoP0=0 IntGTp=1.
 FoFCou: FMM=F IPFlag=           0 FMFlag=      100000 FMFlg1=           0
         NFxFlg=           0 DoJE=T BraDBF=F KetDBF=F FulRan=T
         wScrn=  0.000000 ICntrl=       500 IOpCl=  0 I1Cent=           0 NGrid=           0
         NMat0=    1 NMatS0=      1 NMatT0=    0 NMatD0=    1 NMtDS0=    0 NMtDT0=    0
 Symmetry not used in FoFCou.
 E= -439.987884737120    
 DIIS: error= 4.99D-02 at cycle   1 NSaved=   1.
 NSaved= 1 IEnMin= 1 EnMin= -439.987884737120     IErMin= 1 ErrMin= 4.99D-02
 ErrMax= 4.99D-02  0.00D+00 EMaxC= 1.00D-01 BMatC= 9.47D-01 BMatP= 9.47D-01
 IDIUse=3 WtCom= 5.01D-01 WtEn= 4.99D-01
 Coeff-Com:  0.100D+01
 Coeff-En:   0.100D+01
 Coeff:      0.100D+01
 Gap=     0.442 Goal=   None    Shift=    0.000
 GapD=    0.442 DampG=2.000 DampE=0.500 DampFc=1.0000 IDamp=-1.
 RMSDP=1.05D-02 MaxDP=8.76D-01              OVMax= 1.63D-01

 Cycle   2  Pass 1  IDiag  1:
 RMSU=  6.71D-03    CP:  7.37D-01
 E= -440.067500129944     Delta-E=       -0.079615392824 Rises=F Damp=F
 DIIS: error= 1.06D-02 at cycle   2 NSaved=   2.
 NSaved= 2 IEnMin= 2 EnMin= -440.067500129944     IErMin= 2 ErrMin= 1.06D-02
 ErrMax= 1.06D-02  0.00D+00 EMaxC= 1.00D-01 BMatC= 8.99D-02 BMatP= 9.47D-01
 IDIUse=3 WtCom= 8.94D-01 WtEn= 1.06D-01
 Coeff-Com:  0.164D+00 0.836D+00
 Coeff-En:   0.249D+00 0.751D+00
 Coeff:      0.173D+00 0.827D+00
 Gap=     0.459 Goal=   None    Shift=    0.000
 RMSDP=6.38D-03 MaxDP=3.10D-01 DE=-7.96D-02 OVMax= 1.29D-01

 Cycle   3  Pass 1  IDiag  1:
 RMSU=  4.64D-03    CP:  6.38D-01  5.27D-01
 E= -440.107447817475     Delta-E=       -0.039947687531 Rises=F Damp=F
 DIIS: error= 9.85D-03 at cycle   3 NSaved=   3.
 NSaved= 3 IEnMin= 3 EnMin= -440.107447817475     IErMin= 3 ErrMin= 9.85D-03
 ErrMax= 9.85D-03  0.00D+00 EMaxC= 1.00D-01 BMatC= 4.28D-02 BMatP= 8.99D-02
 IDIUse=3 WtCom= 9.02D-01 WtEn= 9.85D-02
 Coeff-Com:  0.261D-01 0.412D+00 0.562D+00
 Coeff-En:   0.000D+00 0.327D+00 0.673D+00
 Coeff:      0.235D-01 0.404D+00 0.573D+00
 Gap=     0.353 Goal=   None    Shift=    0.000
 RMSDP=2.49D-03 MaxDP=1.11D-01 DE=-3.99D-02 OVMax= 7.26D-02

 Cycle   4  Pass 1  IDiag  1:
 RMSU=  1.02D-03    CP:  6.51D-01  7.31D-01  6.18D-01
 E= -440.145607417704     Delta-E=       -0.038159600229 Rises=F Damp=F
 DIIS: error= 2.06D-03 at cycle   4 NSaved=   4.
 NSaved= 4 IEnMin= 4 EnMin= -440.145607417704     IErMin= 4 ErrMin= 2.06D-03
 ErrMax= 2.06D-03  0.00D+00 EMaxC= 1.00D-01 BMatC= 1.55D-03 BMatP= 4.28D-02
 IDIUse=3 WtCom= 9.79D-01 WtEn= 2.06D-02
 Coeff-Com:  0.929D-02 0.186D+00 0.293D+00 0.512D+00
 Coeff-En:   0.000D+00 0.000D+00 0.000D+00 0.100D+01
 Coeff:      0.910D-02 0.182D+00 0.287D+00 0.522D+00
 Gap=     0.339 Goal=   None    Shift=    0.000
 RMSDP=3.39D-04 MaxDP=1.19D-02 DE=-3.82D-02 OVMax= 1.03D-02

 Cycle   5  Pass 1  IDiag  1:
 RMSU=  2.72D-04    CP:  6.48D-01  7.14D-01  6.41D-01  8.96D-01
 E= -440.146815650013     Delta-E=       -0.001208232309 Rises=F Damp=F
 DIIS: error= 4.04D-04 at cycle   5 NSaved=   5.
 NSaved= 5 IEnMin= 5 EnMin= -440.146815650013     IErMin= 5 ErrMin= 4.04D-04
 ErrMax= 4.04D-04  0.00D+00 EMaxC= 1.00D-01 BMatC= 6.80D-05 BMatP= 1.55D-03
 IDIUse=3 WtCom= 9.96D-01 WtEn= 4.04D-03
 Coeff-Com:  0.745D-03 0.178D-01 0.402D-01 0.181D+00 0.760D+00
 Coeff-En:   0.000D+00 0.000D+00 0.000D+00 0.000D+00 0.100D+01
 Coeff:      0.742D-03 0.177D-01 0.400D-01 0.181D+00 0.761D+00
 Gap=     0.339 Goal=   None    Shift=    0.000
 RMSDP=1.32D-04 MaxDP=4.10D-03 DE=-1.21D-03 OVMax= 2.78D-03

 Cycle   6  Pass 1  IDiag  1:
 RMSU=  9.69D-05    CP:  6.47D-01  7.16D-01  6.55D-01  9.08D-01  9.12D-01
 E= -440.146862607649     Delta-E=       -0.000046957636 Rises=F Damp=F
 DIIS: error= 2.38D-04 at cycle   6 NSaved=   6.
 NSaved= 6 IEnMin= 6 EnMin= -440.146862607649     IErMin= 6 ErrMin= 2.38D-04
 ErrMax= 2.38D-04  0.00D+00 EMaxC= 1.00D-01 BMatC= 2.02D-05 BMatP= 6.80D-05
 IDIUse=3 WtCom= 9.98D-01 WtEn= 2.38D-03
 Coeff-Com: -0.110D-02-0.191D-01-0.218D-01 0.175D-01 0.412D+00 0.612D+00
 Coeff-En:   0.000D+00 0.000D+00 0.000D+00 0.000D+00 0.237D-01 0.976D+00
 Coeff:     -0.110D-02-0.190D-01-0.218D-01 0.174D-01 0.411D+00 0.613D+00
 Gap=     0.339 Goal=   None    Shift=    0.000
 RMSDP=4.17D-05 MaxDP=1.60D-03 DE=-4.70D-05 OVMax= 1.45D-03

 Cycle   7  Pass 1  IDiag  1:
 RMSU=  2.99D-05    CP:  6.46D-01  7.14D-01  6.57D-01  9.21D-01  9.73D-01
                    CP:  1.11D+00
 E= -440.146879758813     Delta-E=       -0.000017151164 Rises=F Damp=F
 DIIS: error= 7.26D-05 at cycle   7 NSaved=   7.
 NSaved= 7 IEnMin= 7 EnMin= -440.146879758813     IErMin= 7 ErrMin= 7.26D-05
 ErrMax= 7.26D-05  0.00D+00 EMaxC= 1.00D-01 BMatC= 5.12D-07 BMatP= 2.02D-05
 IDIUse=1 WtCom= 1.00D+00 WtEn= 0.00D+00
 Coeff-Com: -0.283D-03-0.533D-02-0.649D-02-0.114D-01 0.179D-01 0.105D+00
 Coeff-Com:  0.901D+00
 Coeff:     -0.283D-03-0.533D-02-0.649D-02-0.114D-01 0.179D-01 0.105D+00
 Coeff:      0.901D+00
 Gap=     0.339 Goal=   None    Shift=    0.000
 RMSDP=1.79D-05 MaxDP=5.39D-04 DE=-1.72D-05 OVMax= 5.40D-04

 Cycle   8  Pass 1  IDiag  1:
 RMSU=  9.54D-06    CP:  6.46D-01  7.13D-01  6.58D-01  9.21D-01  9.99D-01
                    CP:  1.22D+00  1.12D+00
 E= -440.146880876234     Delta-E=       -0.000001117421 Rises=F Damp=F
 DIIS: error= 2.18D-05 at cycle   8 NSaved=   8.
 NSaved= 8 IEnMin= 8 EnMin= -440.146880876234     IErMin= 8 ErrMin= 2.18D-05
 ErrMax= 2.18D-05  0.00D+00 EMaxC= 1.00D-01 BMatC= 1.06D-07 BMatP= 5.12D-07
 IDIUse=1 WtCom= 1.00D+00 WtEn= 0.00D+00
 Coeff-Com:  0.596D-04 0.731D-03 0.892D-03-0.731D-02-0.583D-01-0.599D-01
 Coeff-Com:  0.301D+00 0.823D+00
 Coeff:      0.596D-04 0.731D-03 0.892D-03-0.731D-02-0.583D-01-0.599D-01
 Coeff:      0.301D+00 0.823D+00
 Gap=     0.339 Goal=   None    Shift=    0.000
 RMSDP=7.31D-06 MaxDP=2.07D-04 DE=-1.12D-06 OVMax= 3.43D-04

 Cycle   9  Pass 1  IDiag  1:
 RMSU=  3.37D-06    CP:  6.46D-01  7.13D-01  6.59D-01  9.20D-01  1.00D+00
                    CP:  1.26D+00  1.21D+00  1.20D+00
 E= -440.146881083217     Delta-E=       -0.000000206982 Rises=F Damp=F
 DIIS: error= 1.20D-05 at cycle   9 NSaved=   9.
 NSaved= 9 IEnMin= 9 EnMin= -440.146881083217     IErMin= 9 ErrMin= 1.20D-05
 ErrMax= 1.20D-05  0.00D+00 EMaxC= 1.00D-01 BMatC= 1.01D-08 BMatP= 1.06D-07
 IDIUse=1 WtCom= 1.00D+00 WtEn= 0.00D+00
 Coeff-Com:  0.501D-04 0.845D-03 0.113D-02-0.653D-03-0.189D-01-0.283D-01
 Coeff-Com: -0.504D-02 0.239D+00 0.811D+00
 Coeff:      0.501D-04 0.845D-03 0.113D-02-0.653D-03-0.189D-01-0.283D-01
 Coeff:     -0.504D-02 0.239D+00 0.811D+00
 Gap=     0.339 Goal=   None    Shift=    0.000
 RMSDP=2.54D-06 MaxDP=1.19D-04 DE=-2.07D-07 OVMax= 8.67D-05

 Cycle  10  Pass 1  IDiag  1:
 RMSU=  9.99D-07    CP:  6.46D-01  7.13D-01  6.59D-01  9.19D-01  1.00D+00
                    CP:  1.27D+00  1.22D+00  1.28D+00  1.26D+00
 E= -440.146881105257     Delta-E=       -0.000000022040 Rises=F Damp=F
 DIIS: error= 3.28D-06 at cycle  10 NSaved=  10.
 NSaved=10 IEnMin=10 EnMin= -440.146881105257     IErMin=10 ErrMin= 3.28D-06
 ErrMax= 3.28D-06  0.00D+00 EMaxC= 1.00D-01 BMatC= 1.38D-09 BMatP= 1.01D-08
 IDIUse=1 WtCom= 1.00D+00 WtEn= 0.00D+00
 Coeff-Com:  0.382D-05 0.119D-03 0.194D-03 0.904D-03 0.343D-02 0.140D-02
 Coeff-Com: -0.407D-01-0.692D-01 0.193D+00 0.910D+00
 Coeff:      0.382D-05 0.119D-03 0.194D-03 0.904D-03 0.343D-02 0.140D-02
 Coeff:     -0.407D-01-0.692D-01 0.193D+00 0.910D+00
 Gap=     0.339 Goal=   None    Shift=    0.000
 RMSDP=8.61D-07 MaxDP=5.89D-05 DE=-2.20D-08 OVMax= 4.80D-05

 Cycle  11  Pass 1  IDiag  1:
 RMSU=  4.23D-07    CP:  6.46D-01  7.13D-01  6.59D-01  9.18D-01  1.00D+00
                    CP:  1.27D+00  1.22D+00  1.31D+00  1.39D+00  1.17D+00
 E= -440.146881109179     Delta-E=       -0.000000003922 Rises=F Damp=F
 DIIS: error= 1.10D-06 at cycle  11 NSaved=  11.
 NSaved=11 IEnMin=11 EnMin= -440.146881109179     IErMin=11 ErrMin= 1.10D-06
 ErrMax= 1.10D-06  0.00D+00 EMaxC= 1.00D-01 BMatC= 1.91D-10 BMatP= 1.38D-09
 IDIUse=1 WtCom= 1.00D+00 WtEn= 0.00D+00
 Coeff-Com: -0.523D-05-0.796D-04-0.911D-04 0.394D-03 0.362D-02 0.423D-02
 Coeff-Com: -0.996D-02-0.543D-01-0.633D-01 0.231D+00 0.888D+00
 Coeff:     -0.523D-05-0.796D-04-0.911D-04 0.394D-03 0.362D-02 0.423D-02
 Coeff:     -0.996D-02-0.543D-01-0.633D-01 0.231D+00 0.888D+00
 Gap=     0.339 Goal=   None    Shift=    0.000
 RMSDP=3.00D-07 MaxDP=1.96D-05 DE=-3.92D-09 OVMax= 1.60D-05

 Cycle  12  Pass 1  IDiag  1:
 RMSU=  1.73D-07    CP:  6.46D-01  7.13D-01  6.59D-01  9.18D-01  1.00D+00
                    CP:  1.27D+00  1.22D+00  1.31D+00  1.43D+00  1.28D+00
                    CP:  1.32D+00
 E= -440.146881109738     Delta-E=       -0.000000000559 Rises=F Damp=F
 DIIS: error= 3.66D-07 at cycle  12 NSaved=  12.
 NSaved=12 IEnMin=12 EnMin= -440.146881109738     IErMin=12 ErrMin= 3.66D-07
 ErrMax= 3.66D-07  0.00D+00 EMaxC= 1.00D-01 BMatC= 1.72D-11 BMatP= 1.91D-10
 IDIUse=1 WtCom= 1.00D+00 WtEn= 0.00D+00
 Coeff-Com: -0.912D-06-0.240D-04-0.364D-04-0.618D-04-0.289D-03 0.975D-04
 Coeff-Com:  0.470D-02 0.560D-02-0.264D-01-0.928D-01 0.656D-01 0.104D+01
 Coeff:     -0.912D-06-0.240D-04-0.364D-04-0.618D-04-0.289D-03 0.975D-04
 Coeff:      0.470D-02 0.560D-02-0.264D-01-0.928D-01 0.656D-01 0.104D+01
 Gap=     0.339 Goal=   None    Shift=    0.000
 RMSDP=1.31D-07 MaxDP=3.84D-06 DE=-5.59D-10 OVMax= 5.66D-06

 Cycle  13  Pass 1  IDiag  1:
 RMSU=  4.86D-08    CP:  6.46D-01  7.13D-01  6.59D-01  9.18D-01  1.00D+00
                    CP:  1.27D+00  1.22D+00  1.31D+00  1.42D+00  1.29D+00
                    CP:  1.49D+00  1.25D+00
 E= -440.146881109800     Delta-E=       -0.000000000062 Rises=F Damp=F
 DIIS: error= 1.22D-07 at cycle  13 NSaved=  13.
 NSaved=13 IEnMin=13 EnMin= -440.146881109800     IErMin=13 ErrMin= 1.22D-07
 ErrMax= 1.22D-07  0.00D+00 EMaxC= 1.00D-01 BMatC= 2.64D-12 BMatP= 1.72D-11
 IDIUse=1 WtCom= 1.00D+00 WtEn= 0.00D+00
 Coeff-Com:  0.881D-07-0.799D-06-0.390D-05-0.483D-04-0.413D-03-0.326D-03
 Coeff-Com:  0.227D-02 0.657D-02-0.269D-02-0.502D-01-0.649D-01 0.310D+00
 Coeff-Com:  0.800D+00
 Coeff:      0.881D-07-0.799D-06-0.390D-05-0.483D-04-0.413D-03-0.326D-03
 Coeff:      0.227D-02 0.657D-02-0.269D-02-0.502D-01-0.649D-01 0.310D+00
 Coeff:      0.800D+00
 Gap=     0.339 Goal=   None    Shift=    0.000
 RMSDP=4.46D-08 MaxDP=2.09D-06 DE=-6.18D-11 OVMax= 1.78D-06

 Cycle  14  Pass 1  IDiag  1:
 RMSU=  2.47D-08    CP:  6.46D-01  7.13D-01  6.59D-01  9.19D-01  1.00D+00
                    CP:  1.27D+00  1.22D+00  1.31D+00  1.42D+00  1.29D+00
                    CP:  1.52D+00  1.32D+00  1.34D+00
 E= -440.146881109808     Delta-E=       -0.000000000008 Rises=F Damp=F
 DIIS: error= 5.89D-08 at cycle  14 NSaved=  14.
 NSaved=14 IEnMin=14 EnMin= -440.146881109808     IErMin=14 ErrMin= 5.89D-08
 ErrMax= 5.89D-08  0.00D+00 EMaxC= 1.00D-01 BMatC= 3.46D-13 BMatP= 2.64D-12
 IDIUse=1 WtCom= 1.00D+00 WtEn= 0.00D+00
 Coeff-Com:  0.111D-06 0.262D-05 0.324D-05-0.170D-05-0.385D-04-0.701D-04
 Coeff-Com: -0.235D-03 0.494D-03 0.294D-02 0.327D-02-0.225D-01-0.917D-01
 Coeff-Com:  0.196D+00 0.912D+00
 Coeff:      0.111D-06 0.262D-05 0.324D-05-0.170D-05-0.385D-04-0.701D-04
 Coeff:     -0.235D-03 0.494D-03 0.294D-02 0.327D-02-0.225D-01-0.917D-01
 Coeff:      0.196D+00 0.912D+00
 Gap=     0.339 Goal=   None    Shift=    0.000
 RMSDP=2.67D-08 MaxDP=1.21D-06 DE=-8.41D-12 OVMax= 7.28D-07

 Cycle  15  Pass 1  IDiag  1:
 RMSU=  7.46D-09    CP:  6.46D-01  7.13D-01  6.59D-01  9.19D-01  1.00D+00
                    CP:  1.27D+00  1.22D+00  1.31D+00  1.42D+00  1.28D+00
                    CP:  1.51D+00  1.35D+00  1.55D+00  1.35D+00
 E= -440.146881109809     Delta-E=       -0.000000000001 Rises=F Damp=F
 DIIS: error= 2.15D-08 at cycle  15 NSaved=  15.
 NSaved=15 IEnMin=15 EnMin= -440.146881109809     IErMin=15 ErrMin= 2.15D-08
 ErrMax= 2.15D-08  0.00D+00 EMaxC= 1.00D-01 BMatC= 3.67D-14 BMatP= 3.46D-13
 IDIUse=1 WtCom= 1.00D+00 WtEn= 0.00D+00
 Coeff-Com: -0.767D-08 0.153D-06 0.464D-06 0.631D-05 0.564D-04 0.432D-04
 Coeff-Com: -0.339D-03-0.781D-03 0.693D-03 0.702D-02 0.723D-02-0.521D-01
 Coeff-Com: -0.712D-01 0.706D-01 0.104D+01
 Coeff:     -0.767D-08 0.153D-06 0.464D-06 0.631D-05 0.564D-04 0.432D-04
 Coeff:     -0.339D-03-0.781D-03 0.693D-03 0.702D-02 0.723D-02-0.521D-01
 Coeff:     -0.712D-01 0.706D-01 0.104D+01
 Gap=     0.339 Goal=   None    Shift=    0.000
 RMSDP=9.42D-09 MaxDP=5.64D-07 DE=-5.68D-13 OVMax= 3.72D-07

 SCF Done:  E(RwB97XD) =  -440.146881110     A.U. after   15 cycles
            NFock= 15  Conv=0.94D-08     -V/T= 2.0003
 KE= 4.400192621101D+02 PE=-2.010405171353D+03 EE= 6.382235099835D+02
 Leave Link  502 at Tue Nov 22 19:13:12 2022, MaxMem= 16106127360 cpu:             588.1 elap:              18.4
 (Enter /opt/ap/G16/B01/g16/l601.exe)
 Copying SCF densities to generalized density rwf, IOpCl= 0 IROHF=0.

 **********************************************************************

            Population analysis using the SCF Density.

 **********************************************************************

 Orbital symmetries:
       Occupied  (A) (A) (A) (A) (A) (A) (A) (A) (A) (A) (A) (A)
                 (A) (A) (A) (A) (A) (A) (A) (A) (A) (A) (A) (A)
                 (A) (A) (A) (A) (A) (A) (A) (A) (A) (A) (A) (A)
       Virtual   (A) (A) (A) (A) (A) (A) (A) (A) (A) (A) (A) (A)
                 (A) (A) (A) (A) (A) (A) (A) (A) (A) (A) (A) (A)
                 (A) (A) (A) (A) (A) (A) (A) (A) (A) (A) (A) (A)
                 (A) (A) (A) (A) (A) (A) (A) (A) (A) (A) (A) (A)
                 (A) (A) (A) (A) (A) (A) (A) (A) (A) (A) (A) (A)
                 (A) (A) (A) (A) (A) (A) (A) (A) (A) (A) (A) (A)
                 (A) (A) (A) (A) (A) (A) (A) (A) (A) (A) (A) (A)
                 (A) (A) (A) (A) (A) (A) (A) (A) (A) (A) (A) (A)
                 (A) (A) (A) (A) (A) (A) (A) (A) (A) (A) (A) (A)
                 (A) (A) (A) (A) (A) (A) (A) (A) (A) (A) (A) (A)
                 (A) (A) (A) (A) (A) (A) (A) (A) (A) (A) (A) (A)
                 (A) (A) (A) (A) (A) (A) (A) (A) (A) (A) (A) (A)
                 (A) (A) (A) (A) (A) (A) (A) (A) (A) (A) (A) (A)
                 (A) (A) (A) (A) (A) (A) (A) (A) (A) (A) (A) (A)
                 (A) (A) (A) (A) (A) (A) (A) (A) (A) (A) (A) (A)
                 (A) (A) (A) (A) (A) (A) (A) (A) (A) (A) (A) (A)
                 (A) (A) (A) (A) (A) (A) (A) (A) (A) (A) (A) (A)
                 (A) (A) (A) (A) (A) (A) (A) (A) (A) (A) (A) (A)
                 (A) (A) (A) (A) (A) (A) (A) (A) (A) (A) (A) (A)
                 (A) (A) (A) (A) (A) (A) (A) (A) (A) (A) (A) (A)
                 (A) (A) (A) (A) (A) (A)
 The electronic state is 1-A.
 Alpha  occ. eigenvalues --  -19.21443 -14.47117 -10.39889 -10.33915 -10.28258
 Alpha  occ. eigenvalues --  -10.28045 -10.27789 -10.27403 -10.27142 -10.26336
 Alpha  occ. eigenvalues --   -1.14661  -1.06323  -0.96343  -0.88602  -0.86469
 Alpha  occ. eigenvalues --   -0.84659  -0.74827  -0.73133  -0.69189  -0.65775
 Alpha  occ. eigenvalues --   -0.61249  -0.59020  -0.56275  -0.55159  -0.53958
 Alpha  occ. eigenvalues --   -0.52831  -0.51474  -0.50063  -0.49635  -0.45788
 Alpha  occ. eigenvalues --   -0.45248  -0.44494  -0.39266  -0.34519  -0.33438
 Alpha  occ. eigenvalues --   -0.30622
 Alpha virt. eigenvalues --    0.03272   0.04412   0.04565   0.05117   0.05326
 Alpha virt. eigenvalues --    0.06304   0.07063   0.07564   0.08648   0.09249
 Alpha virt. eigenvalues --    0.10858   0.11209   0.11479   0.12041   0.13390
 Alpha virt. eigenvalues --    0.14346   0.14580   0.15625   0.15753   0.16235
 Alpha virt. eigenvalues --    0.16862   0.17484   0.17788   0.18065   0.18803
 Alpha virt. eigenvalues --    0.19221   0.19668   0.19785   0.20271   0.20983
 Alpha virt. eigenvalues --    0.21305   0.22005   0.22348   0.23314   0.24008
 Alpha virt. eigenvalues --    0.24634   0.25225   0.25536   0.26449   0.26710
 Alpha virt. eigenvalues --    0.26896   0.27728   0.28396   0.29595   0.30020
 Alpha virt. eigenvalues --    0.30760   0.31943   0.32520   0.33288   0.33717
 Alpha virt. eigenvalues --    0.34818   0.35038   0.36056   0.37227   0.37757
 Alpha virt. eigenvalues --    0.38284   0.38681   0.39047   0.39628   0.41198
 Alpha virt. eigenvalues --    0.42579   0.43191   0.44246   0.45107   0.45343
 Alpha virt. eigenvalues --    0.47099   0.48282   0.51602   0.52976   0.54308
 Alpha virt. eigenvalues --    0.58648   0.59103   0.60056   0.62435   0.63682
 Alpha virt. eigenvalues --    0.64516   0.65076   0.65212   0.66542   0.67259
 Alpha virt. eigenvalues --    0.68097   0.68586   0.71245   0.71761   0.72771
 Alpha virt. eigenvalues --    0.74553   0.76136   0.77012   0.77787   0.79555
 Alpha virt. eigenvalues --    0.81222   0.81886   0.82854   0.84177   0.85061
 Alpha virt. eigenvalues --    0.87098   0.89470   0.91085   0.92441   0.93099
 Alpha virt. eigenvalues --    0.94356   0.95743   0.95998   0.96882   0.97960
 Alpha virt. eigenvalues --    0.98028   1.00654   1.02321   1.05076   1.06742
 Alpha virt. eigenvalues --    1.08235   1.09169   1.10586   1.12301   1.13621
 Alpha virt. eigenvalues --    1.16810   1.17498   1.18710   1.22580   1.23251
 Alpha virt. eigenvalues --    1.24370   1.28871   1.34057   1.35397   1.37339
 Alpha virt. eigenvalues --    1.37521   1.44712   1.46596   1.52784   1.54867
 Alpha virt. eigenvalues --    1.58034   1.60801   1.61888   1.63629   1.65395
 Alpha virt. eigenvalues --    1.66660   1.67607   1.67808   1.68430   1.68745
 Alpha virt. eigenvalues --    1.69008   1.71356   1.75588   1.76341   1.79130
 Alpha virt. eigenvalues --    1.80186   1.85624   1.87869   1.88974   1.91410
 Alpha virt. eigenvalues --    1.93420   1.94158   1.95848   1.97550   1.99689
 Alpha virt. eigenvalues --    2.01118   2.01933   2.04590   2.06169   2.07419
 Alpha virt. eigenvalues --    2.09794   2.11376   2.11800   2.13649   2.15813
 Alpha virt. eigenvalues --    2.21849   2.25648   2.28644   2.34048   2.35737
 Alpha virt. eigenvalues --    2.39869   2.41931   2.45193   2.51837   2.52969
 Alpha virt. eigenvalues --    2.53323   2.55614   2.59462   2.61289   2.62359
 Alpha virt. eigenvalues --    2.65305   2.68401   2.69257   2.73225   2.76511
 Alpha virt. eigenvalues --    2.78013   2.81565   2.82174   2.83030   2.85122
 Alpha virt. eigenvalues --    2.86580   2.90566   2.91496   2.92719   2.94145
 Alpha virt. eigenvalues --    2.94983   2.96793   2.98004   2.98717   3.01859
 Alpha virt. eigenvalues --    3.03083   3.03438   3.05509   3.06178   3.14712
 Alpha virt. eigenvalues --    3.19710   3.22409   3.24093   3.27425   3.33500
 Alpha virt. eigenvalues --    3.43742   3.44807   3.45509   3.49135   3.54061
 Alpha virt. eigenvalues --    3.62607   3.68177   3.71843   3.77734   3.91879
 Alpha virt. eigenvalues --    4.00296   4.03590   4.04300   4.12343   4.18089
 Alpha virt. eigenvalues --    4.30935   4.34688   4.38331   4.41441   4.45662
 Alpha virt. eigenvalues --    4.96348   5.18601   5.19055   5.24311   5.38678
 Alpha virt. eigenvalues --    5.91656  23.88689  23.99178  24.14817  24.22932
 Alpha virt. eigenvalues --   24.30612  24.33455  24.38197  24.43027  35.87817
 Alpha virt. eigenvalues --   50.16191
          Condensed to atoms (all electrons):
               1          2          3          4          5          6
     1  C    7.744925  -0.234929   0.153745  -0.758663  -0.075416  -0.118557
     2  C   -0.234929   7.920556  -2.238087  -0.212869   0.531871   0.052452
     3  C    0.153745  -2.238087   7.926413   0.604754  -0.070744  -0.133825
     4  C   -0.758663  -0.212869   0.604754   6.094091  -0.061746   0.065322
     5  H   -0.075416   0.531871  -0.070744  -0.061746   0.446077  -0.013082
     6  N   -0.118557   0.052452  -0.133825   0.065322  -0.013082   7.299480
     7  C   -0.277646   0.131721   0.373924  -0.250476   0.007566  -0.020205
     8  H   -0.096889  -0.021848   0.496640   0.032254  -0.003201  -0.002354
     9  C   -0.098656  -0.041305  -0.549231   0.516536   0.033014   0.057542
    10  H    0.021116  -0.087975   0.035659   0.424356  -0.012323  -0.004812
    11  C   -0.241328  -0.019332  -0.075191  -0.120970  -0.009564   0.159236
    12  H   -0.048691  -0.041741   0.047554   0.006788   0.002423   0.363926
    13  H    0.033316   0.021092  -0.097656  -0.026677   0.000658  -0.004914
    14  H    0.011540  -0.012563  -0.009693  -0.055801   0.001686   0.001897
    15  C    0.143718  -0.125038  -0.020017  -0.071326  -0.003439  -0.512541
    16  O   -0.195723   0.162125  -0.058621  -0.007867   0.001726  -0.105092
    17  H   -0.019900   0.013407  -0.006310   0.000620  -0.000161   0.006505
    18  H   -0.010126  -0.001111   0.005236   0.002398  -0.000702   0.005497
    19  H    0.017807   0.022915  -0.023188  -0.001986   0.000416   0.008310
               7          8          9         10         11         12
     1  C   -0.277646  -0.096889  -0.098656   0.021116  -0.241328  -0.048691
     2  C    0.131721  -0.021848  -0.041305  -0.087975  -0.019332  -0.041741
     3  C    0.373924   0.496640  -0.549231   0.035659  -0.075191   0.047554
     4  C   -0.250476   0.032254   0.516536   0.424356  -0.120970   0.006788
     5  H    0.007566  -0.003201   0.033014  -0.012323  -0.009564   0.002423
     6  N   -0.020205  -0.002354   0.057542  -0.004812   0.159236   0.363926
     7  C    5.507034  -0.058552   0.491705  -0.001742  -0.002389  -0.018079
     8  H   -0.058552   0.549715  -0.012826   0.001645   0.000416  -0.003470
     9  C    0.491705  -0.012826   5.582263  -0.064815  -0.002865   0.001280
    10  H   -0.001742   0.001645  -0.064815   0.484436   0.005165   0.000092
    11  C   -0.002389   0.000416  -0.002865   0.005165   5.960973   0.023200
    12  H   -0.018079  -0.003470   0.001280   0.000092   0.023200   0.385310
    13  H    0.432309  -0.018928  -0.029959  -0.000758  -0.000046   0.001941
    14  H   -0.058034  -0.000604   0.476436  -0.011784  -0.002039   0.000041
    15  C    0.033961  -0.001002  -0.023773   0.001843  -0.305809  -0.026982
    16  O   -0.001256  -0.000757  -0.005426   0.000764   0.497004   0.007276
    17  H   -0.000114   0.000426   0.000142   0.000003  -0.053118  -0.003138
    18  H   -0.000520   0.000265   0.000060   0.000037  -0.018977  -0.000032
    19  H    0.000872   0.001597   0.000968  -0.000081  -0.042198  -0.006292
              13         14         15         16         17         18
     1  C    0.033316   0.011540   0.143718  -0.195723  -0.019900  -0.010126
     2  C    0.021092  -0.012563  -0.125038   0.162125   0.013407  -0.001111
     3  C   -0.097656  -0.009693  -0.020017  -0.058621  -0.006310   0.005236
     4  C   -0.026677  -0.055801  -0.071326  -0.007867   0.000620   0.002398
     5  H    0.000658   0.001686  -0.003439   0.001726  -0.000161  -0.000702
     6  N   -0.004914   0.001897  -0.512541  -0.105092   0.006505   0.005497
     7  C    0.432309  -0.058034   0.033961  -0.001256  -0.000114  -0.000520
     8  H   -0.018928  -0.000604  -0.001002  -0.000757   0.000426   0.000265
     9  C   -0.029959   0.476436  -0.023773  -0.005426   0.000142   0.000060
    10  H   -0.000758  -0.011784   0.001843   0.000764   0.000003   0.000037
    11  C   -0.000046  -0.002039  -0.305809   0.497004  -0.053118  -0.018977
    12  H    0.001941   0.000041  -0.026982   0.007276  -0.003138  -0.000032
    13  H    0.493013  -0.008756   0.000895   0.000100  -0.000053  -0.000008
    14  H   -0.008756   0.496982  -0.000770  -0.000183   0.000001  -0.000000
    15  C    0.000895  -0.000770   6.336975  -0.007815   0.429888   0.404119
    16  O    0.000100  -0.000183  -0.007815   8.083303  -0.007112  -0.008287
    17  H   -0.000053   0.000001   0.429888  -0.007112   0.499427  -0.029839
    18  H   -0.000008  -0.000000   0.404119  -0.008287  -0.029839   0.496779
    19  H   -0.000204   0.000024   0.358654   0.007594  -0.026441  -0.034279
              19
     1  C    0.017807
     2  C    0.022915
     3  C   -0.023188
     4  C   -0.001986
     5  H    0.000416
     6  N    0.008310
     7  C    0.000872
     8  H    0.001597
     9  C    0.000968
    10  H   -0.000081
    11  C   -0.042198
    12  H   -0.006292
    13  H   -0.000204
    14  H    0.000024
    15  C    0.358654
    16  O    0.007594
    17  H   -0.026441
    18  H   -0.034279
    19  H    0.596708
 Mulliken charges:
               1
     1  C    0.050356
     2  C    0.180658
     3  C   -0.361361
     4  C   -0.178739
     5  H    0.224940
     6  N   -0.104784
     7  C   -0.290079
     8  H    0.137475
     9  C   -0.331090
    10  H    0.209173
    11  C    0.247832
    12  H    0.308594
    13  H    0.204637
    14  H    0.171620
    15  C   -0.611539
    16  O   -0.361755
    17  H    0.195767
    18  H    0.189492
    19  H    0.118803
 Sum of Mulliken charges =  -0.00000
 Mulliken charges with hydrogens summed into heavy atoms:
               1
     1  C    0.050356
     2  C    0.405598
     3  C   -0.223887
     4  C    0.030434
     6  N    0.203810
     7  C   -0.085442
     9  C   -0.159470
    11  C    0.247832
    15  C   -0.107477
    16  O   -0.361755
 Electronic spatial extent (au):  <R**2>=           1670.2697
 Charge=             -0.0000 electrons
 Dipole moment (field-independent basis, Debye):
    X=              0.0358    Y=             -3.6872    Z=             -0.5007  Tot=              3.7212
 Quadrupole moment (field-independent basis, Debye-Ang):
   XX=            -50.4558   YY=            -55.9458   ZZ=            -61.7604
   XY=             -8.3869   XZ=             -1.7684   YZ=             -0.9058
 Traceless Quadrupole moment (field-independent basis, Debye-Ang):
   XX=              5.5982   YY=              0.1082   ZZ=             -5.7064
   XY=             -8.3869   XZ=             -1.7684   YZ=             -0.9058
 Octapole moment (field-independent basis, Debye-Ang**2):
  XXX=             16.8568  YYY=             -9.9324  ZZZ=              1.1185  XYY=             -9.5041
  XXY=            -16.3597  XXZ=              1.4960  XZZ=             12.9171  YZZ=              0.6991
  YYZ=             -2.7961  XYZ=             -0.6170
 Hexadecapole moment (field-independent basis, Debye-Ang**3):
 XXXX=          -1570.7564 YYYY=           -379.5079 ZZZZ=            -79.2520 XXXY=            -34.7104
 XXXZ=            -16.8238 YYYX=            -22.7752 YYYZ=             -1.4461 ZZZX=              2.8628
 ZZZY=              0.8707 XXYY=           -357.8690 XXZZ=           -315.9416 YYZZ=            -86.7030
 XXYZ=             -6.1666 YYXZ=             -5.9011 ZZXY=              0.4821
 N-N= 4.920155181496D+02 E-N=-2.010405169526D+03  KE= 4.400192621101D+02
 No NMR shielding tensors so no spin-rotation constants.
 Leave Link  601 at Tue Nov 22 19:13:13 2022, MaxMem= 16106127360 cpu:               3.7 elap:               0.1
 (Enter /opt/ap/G16/B01/g16/l9999.exe)
 1\1\GINC-N41\SP\RwB97XD\6-311++G(d,p)\C8H9N1O1\ROOT\22-Nov-2022\0\\#P 
 wB97XD/6-311++G(d,p) scf=maxcycle=512\\_conf035.gjf nmol_natom 1_19\\0
 ,1\C\C,1,1.39447505\C,1,1.39873503,2,119.56697224\C,2,1.39066123,1,119
 .42697207,3,2.53915756,0\H,2,0.96213008,1,119.8046163,3,-177.79870417,
 0\N,1,1.41693372,2,123.72220125,4,-177.74604849,0\C,3,1.38667133,1,120
 .18759987,2,-2.5020857,0\H,3,0.95673174,1,118.82085988,2,177.96737168,
 0\C,4,1.38268572,2,121.03929493,1,-0.41221113,0\H,4,0.9858595,2,118.57
 91267,1,178.77373233,0\C,6,1.35500692,1,127.62132737,2,17.57862687,0\H
 ,6,0.89609466,1,115.10511997,2,-166.41127095,0\H,7,0.98847198,3,119.08
 117704,1,-179.64585354,0\H,9,0.98451201,4,120.53755637,2,177.22743544,
 0\C,11,1.50274561,6,115.46861532,1,175.,0\O,11,1.23496495,6,123.150998
 88,1,-5.,0\H,15,0.98719837,11,107.47091875,6,-116.36962839,0\H,15,0.99
 976021,11,109.69443261,6,128.85346087,0\H,15,0.97696155,11,114.3700887
 1,6,6.05302844,0\\Version=ES64L-G16RevB.01\State=1-A\HF=-440.1468811\R
 MSD=9.425e-09\Dipole=0.4376335,-0.3029635,-1.363837\Quadrupole=0.13323
 85,-4.4890092,4.3557707,1.4461779,6.0839162,-0.22564\PG=C01 [X(C8H9N1O
 1)]\\@


 SUCCESS IS COUNTED SWEETEST
 BY THOSE WHO NE'ER SUCCEED.
 TO COMPREHEND NECTAR
 REQUIRES SOREST NEED.
           EMILY DICKINSON
 Job cpu time:       0 days  0 hours 10 minutes 24.7 seconds.
 Elapsed time:       0 days  0 hours  0 minutes 19.6 seconds.
 File lengths (MBytes):  RWF=     46 Int=      0 D2E=      0 Chk=      6 Scr=      1
 Normal termination of Gaussian 16 at Tue Nov 22 19:13:13 2022.
