 Entering Gaussian System, Link 0=g16
 Input=_conf023.gjf
 Output=_conf023.log
 Initial command:
 /opt/ap/G16/B01/g16/l1.exe "/tmp2/scr/Gau-32086.inp" -scrdir="/tmp2/scr/"
 Entering Link 1 = /opt/ap/G16/B01/g16/l1.exe PID=     32087.
  
 Copyright (c) 1988-2017, Gaussian, Inc.  All Rights Reserved.
  
 This is part of the Gaussian(R) 16 program.  It is based on
 the Gaussian(R) 09 system (copyright 2009, Gaussian, Inc.),
 the Gaussian(R) 03 system (copyright 2003, Gaussian, Inc.),
 the Gaussian(R) 98 system (copyright 1998, Gaussian, Inc.),
 the Gaussian(R) 94 system (copyright 1995, Gaussian, Inc.),
 the Gaussian 92(TM) system (copyright 1992, Gaussian, Inc.),
 the Gaussian 90(TM) system (copyright 1990, Gaussian, Inc.),
 the Gaussian 88(TM) system (copyright 1988, Gaussian, Inc.),
 the Gaussian 86(TM) system (copyright 1986, Carnegie Mellon
 University), and the Gaussian 82(TM) system (copyright 1983,
 Carnegie Mellon University). Gaussian is a federally registered
 trademark of Gaussian, Inc.
  
 This software contains proprietary and confidential information,
 including trade secrets, belonging to Gaussian, Inc.
  
 This software is provided under written license and may be
 used, copied, transmitted, or stored only in accord with that
 written license.
  
 The following legend is applicable only to US Government
 contracts under FAR:
  
                    RESTRICTED RIGHTS LEGEND
  
 Use, reproduction and disclosure by the US Government is
 subject to restrictions as set forth in subparagraphs (a)
 and (c) of the Commercial Computer Software - Restricted
 Rights clause in FAR 52.227-19.
  
 Gaussian, Inc.
 340 Quinnipiac St., Bldg. 40, Wallingford CT 06492
  
  
 ---------------------------------------------------------------
 Warning -- This program may not be used in any manner that
 competes with the business of Gaussian, Inc. or will provide
 assistance to any competitor of Gaussian, Inc.  The licensee
 of this program is prohibited from giving any competitor of
 Gaussian, Inc. access to this program.  By using this program,
 the user acknowledges that Gaussian, Inc. is engaged in the
 business of creating and licensing software in the field of
 computational chemistry and represents and warrants to the
 licensee that it is not a competitor of Gaussian, Inc. and that
 it will not use this program in any manner prohibited above.
 ---------------------------------------------------------------
  

 Cite this work as:
 Gaussian 16, Revision B.01,
 M. J. Frisch, G. W. Trucks, H. B. Schlegel, G. E. Scuseria, 
 M. A. Robb, J. R. Cheeseman, G. Scalmani, V. Barone, 
 G. A. Petersson, H. Nakatsuji, X. Li, M. Caricato, A. V. Marenich, 
 J. Bloino, B. G. Janesko, R. Gomperts, B. Mennucci, H. P. Hratchian, 
 J. V. Ortiz, A. F. Izmaylov, J. L. Sonnenberg, D. Williams-Young, 
 F. Ding, F. Lipparini, F. Egidi, J. Goings, B. Peng, A. Petrone, 
 T. Henderson, D. Ranasinghe, V. G. Zakrzewski, J. Gao, N. Rega, 
 G. Zheng, W. Liang, M. Hada, M. Ehara, K. Toyota, R. Fukuda, 
 J. Hasegawa, M. Ishida, T. Nakajima, Y. Honda, O. Kitao, H. Nakai, 
 T. Vreven, K. Throssell, J. A. Montgomery, Jr., J. E. Peralta, 
 F. Ogliaro, M. J. Bearpark, J. J. Heyd, E. N. Brothers, K. N. Kudin, 
 V. N. Staroverov, T. A. Keith, R. Kobayashi, J. Normand, 
 K. Raghavachari, A. P. Rendell, J. C. Burant, S. S. Iyengar, 
 J. Tomasi, M. Cossi, J. M. Millam, M. Klene, C. Adamo, R. Cammi, 
 J. W. Ochterski, R. L. Martin, K. Morokuma, O. Farkas, 
 J. B. Foresman, and D. J. Fox, Gaussian, Inc., Wallingford CT, 2016.
 
 ******************************************
 Gaussian 16:  ES64L-G16RevB.01 20-Dec-2017
                22-Nov-2022 
 ******************************************
 %nprocshared=32
 Will use up to   32 processors via shared memory.
 %mem=120GB
 %chk=_conf023.chk
 ----------------------------------------
 #P wB97XD/6-311++G(d,p) scf=maxcycle=512
 ----------------------------------------
 1/38=1,172=1/1;
 2/12=2,17=6,18=5,40=1/2;
 3/5=4,6=6,7=1111,11=2,25=1,30=1,74=-58/1,2,3;
 4//1;
 5/5=2,7=512,38=5/2;
 6/7=2,8=2,9=2,10=2,28=1/1;
 99/5=1,9=1/99;
 Leave Link    1 at Tue Nov 22 19:11:50 2022, MaxMem= 16106127360 cpu:               1.5 elap:               0.1
 (Enter /opt/ap/G16/B01/g16/l101.exe)
 ----------------------------
 _conf023.gjf nmol_natom 1_19
 ----------------------------
 Symbolic Z-matrix:
 Charge =  0 Multiplicity = 1
 C
 C                    1     1.39448 
 C                    1     1.39874  2     119.56697 
 C                    2     1.39066  1     119.42697  3     2.53916  0
 H                    2     0.96213  1     119.80462  3    -177.7987  0
 N                    1     1.41693  2     123.7222  4    -177.74605  0
 C                    3     1.38667  1     120.1876  2    -2.50209  0
 H                    3     0.95673  1     118.82086  2     177.96737  0
 C                    4     1.38269  2     121.03929  1    -0.41221  0
 H                    4     0.98586  2     118.57913  1     178.77373  0
 C                    6     1.35501  1     127.62133  2     17.57863  0
 H                    6     0.89609  1     115.10512  2    -166.41127  0
 H                    7     0.98847  3     119.08118  1    -179.64585  0
 H                    9     0.98451  4     120.53756  2     177.22744  0
 C                    11    1.50275  6     115.46862  1     115.     0
 O                    11    1.23496  6     123.151  1    -65.      0
 H                    15    0.9872   11    107.47092  6    -116.36963  0
 H                    15    0.99976  11    109.69443  6     128.85346  0
 H                    15    0.97696  11    114.37009  6     6.05303  0
 
 ITRead=  0  0  0  0  0  0  0  0  0  0  0  0  0  0  0  0  0  0  0
 MicOpt= -1 -1 -1 -1 -1 -1 -1 -1 -1 -1 -1 -1 -1 -1 -1 -1 -1 -1 -1
 NAtoms=     19 NQM=       19 NQMF=       0 NMMI=      0 NMMIF=      0
                NMic=       0 NMicF=      0.
                    Isotopes and Nuclear Properties:
 (Nuclear quadrupole moments (NQMom) in fm**2, nuclear magnetic moments (NMagM)
  in nuclear magnetons)

  Atom         1           2           3           4           5           6           7           8           9          10
 IAtWgt=          12          12          12          12           1          14          12           1          12           1
 AtmWgt=  12.0000000  12.0000000  12.0000000  12.0000000   1.0078250  14.0030740  12.0000000   1.0078250  12.0000000   1.0078250
 NucSpn=           0           0           0           0           1           2           0           1           0           1
 AtZEff=  -0.0000000  -0.0000000  -0.0000000  -0.0000000  -0.0000000  -0.0000000  -0.0000000  -0.0000000  -0.0000000  -0.0000000
 NQMom=    0.0000000   0.0000000   0.0000000   0.0000000   0.0000000   2.0440000   0.0000000   0.0000000   0.0000000   0.0000000
 NMagM=    0.0000000   0.0000000   0.0000000   0.0000000   2.7928460   0.4037610   0.0000000   2.7928460   0.0000000   2.7928460
 AtZNuc=   6.0000000   6.0000000   6.0000000   6.0000000   1.0000000   7.0000000   6.0000000   1.0000000   6.0000000   1.0000000

  Atom        11          12          13          14          15          16          17          18          19
 IAtWgt=          12           1           1           1          12          16           1           1           1
 AtmWgt=  12.0000000   1.0078250   1.0078250   1.0078250  12.0000000  15.9949146   1.0078250   1.0078250   1.0078250
 NucSpn=           0           1           1           1           0           0           1           1           1
 AtZEff=  -0.0000000  -0.0000000  -0.0000000  -0.0000000  -0.0000000  -0.0000000  -0.0000000  -0.0000000  -0.0000000
 NQMom=    0.0000000   0.0000000   0.0000000   0.0000000   0.0000000   0.0000000   0.0000000   0.0000000   0.0000000
 NMagM=    0.0000000   2.7928460   2.7928460   2.7928460   0.0000000   0.0000000   2.7928460   2.7928460   2.7928460
 AtZNuc=   6.0000000   1.0000000   1.0000000   1.0000000   6.0000000   8.0000000   1.0000000   1.0000000   1.0000000
 Leave Link  101 at Tue Nov 22 19:11:50 2022, MaxMem= 16106127360 cpu:               5.1 elap:               0.2
 (Enter /opt/ap/G16/B01/g16/l202.exe)
                          Input orientation:                          
 ---------------------------------------------------------------------
 Center     Atomic      Atomic             Coordinates (Angstroms)
 Number     Number       Type             X           Y           Z
 ---------------------------------------------------------------------
      1          6           0        0.000000    0.000000    0.000000
      2          6           0        0.000000    0.000000    1.394475
      3          6           0        1.216591    0.000000   -0.690193
      4          6           0        1.210053    0.053661    2.077726
      5          1           0       -0.834249   -0.032067    1.872696
      6          7           0       -1.178505   -0.005866   -0.786634
      7          6           0        2.413939    0.052326    0.007287
      8          1           0        1.204393   -0.029731   -1.646384
      9          6           0        2.412261    0.098442    1.396177
     10          1           0        1.194755    0.071528    3.063305
     11          6           0       -2.436085    0.312014   -0.394861
     12          1           0       -1.055905   -0.195907   -1.653721
     13          1           0        3.263999    0.056828   -0.497149
     14          1           0        3.262484    0.177260    1.886251
     15          6           0       -3.027464    1.530139   -1.046543
     16          8           0       -3.069240   -0.342356    0.439437
     17          1           0       -3.181574    2.200024   -0.337977
     18          1           0       -3.929288    1.309538   -1.417444
     19          1           0       -2.477186    1.914967   -1.756160
 ---------------------------------------------------------------------
                    Distance matrix (angstroms):
                    1          2          3          4          5
     1  C    0.000000
     2  C    1.394475   0.000000
     3  C    1.398735   2.413697   0.000000
     4  C    2.405006   1.390661   2.768447   0.000000
     5  H    2.050363   0.962130   3.282586   2.056345   0.000000
     6  N    1.416934   2.479142   2.397044   3.730055   2.681648
     7  C    2.414517   2.784624   1.386671   2.395008   3.746678
     8  H    2.040105   3.270821   0.956732   3.725048   4.066939
     9  C    2.788908   2.414270   2.406711   1.382686   3.283889
    10  H    3.288829   2.053668   3.754243   0.985860   2.354812
    11  C    2.487525   3.038682   3.677855   4.413021   2.797515
    12  H    1.971829   3.231844   2.476087   4.372705   3.537173
    13  H    3.302132   3.772951   2.057273   3.293734   4.734944
    14  H    3.772687   3.304099   3.294718   2.065046   4.102100
    15  C    3.549945   4.179166   4.525518   5.467869   3.971478
    16  O    3.119382   3.232575   4.445404   4.599257   2.673144
    17  H    3.882878   4.238385   4.930316   5.452419   3.921638
    18  H    4.377596   5.006105   5.359464   6.340841   4.712133
    19  H    3.589937   4.441852   4.295041   5.635501   4.433822
                    6          7          8          9         10
     6  N    0.000000
     7  C    3.679585   0.000000
     8  H    2.533365   2.050454   0.000000
     9  C    4.203468   1.389657   3.276058   0.000000
    10  H    4.523316   3.290292   4.710788   2.064548   0.000000
    11  C    1.355007   4.873592   3.864736   5.172997   5.019935
    12  H    0.896095   3.854917   2.266411   4.627818   5.233291
    13  H    4.452366   0.988472   2.360129   2.076505   4.118108
    14  H    5.186544   2.065465   4.093666   0.984512   2.381625
    15  C    2.417750   5.736144   4.549903   6.132475   6.070052
    16  O    2.278455   5.514325   4.765745   5.581802   5.023708
    17  H    3.013226   6.003463   5.091212   6.222132   5.937295
    18  H    3.113683   6.621704   5.310436   7.042618   6.918497
    19  H    2.513196   5.522887   4.165084   6.094562   6.333140
                   11         12         13         14         15
    11  C    0.000000
    12  H    1.935874   0.000000
    13  H    5.706710   4.479186   0.000000
    14  H    6.139652   5.596351   2.386441   0.000000
    15  C    1.502746   2.689785   6.484981   7.070715   0.000000
    16  O    1.234965   2.907967   6.414550   6.515674   2.390840
    17  H    2.030657   3.462677   6.794411   7.110882   0.987198
    18  H    2.066491   3.252464   7.359321   7.994876   0.999760
    19  H    2.103397   2.546826   6.164333   7.016452   0.976962
                   16         17         18         19
    16  O    0.000000
    17  H    2.660956   0.000000
    18  H    2.629913   1.586598   0.000000
    19  H    3.204166   1.608931   1.609308   0.000000
 Stoichiometry    C8H9NO
 Framework group  C1[X(C8H9NO)]
 Deg. of freedom    51
 Full point group                 C1      NOp   1
 Largest Abelian subgroup         C1      NOp   1
 Largest concise Abelian subgroup C1      NOp   1
                         Standard orientation:                         
 ---------------------------------------------------------------------
 Center     Atomic      Atomic             Coordinates (Angstroms)
 Number     Number       Type             X           Y           Z
 ---------------------------------------------------------------------
      1          6           0       -0.292766   -0.253981   -0.218378
      2          6           0       -0.694217    1.057112    0.035460
      3          6           0       -1.251008   -1.271654   -0.269111
      4          6           0       -2.035569    1.324402    0.286995
      5          1           0       -0.042172    1.764583    0.039678
      6          7           0        1.053751   -0.635460   -0.439886
      7          6           0       -2.584525   -0.986929   -0.017078
      8          1           0       -0.967494   -2.162354   -0.473095
      9          6           0       -2.977558    0.312256    0.280896
     10          1           0       -2.302736    2.252909    0.482993
     11          6           0        2.172823    0.064669   -0.134041
     12          1           0        1.165299   -1.458331   -0.776674
     13          1           0       -3.247175   -1.719556   -0.052146
     14          1           0       -3.918267    0.503076    0.499801
     15          6           0        3.060537   -0.558071    0.906344
     16          8           0        2.460765    1.142667   -0.663331
     17          1           0        3.078842    0.050750    1.683238
     18          1           0        3.999978   -0.599173    0.566815
     19          1           0        2.785039   -1.451842    1.188708
 ---------------------------------------------------------------------
 Rotational constants (GHZ):           3.4271881           0.7899838           0.6929748
 Leave Link  202 at Tue Nov 22 19:11:50 2022, MaxMem= 16106127360 cpu:               0.3 elap:               0.0
 (Enter /opt/ap/G16/B01/g16/l301.exe)
 Standard basis: 6-311++G(d,p) (5D, 7F)
 Ernie: Thresh=  0.10000D-02 Tol=  0.10000D-05 Strict=F.
 There are   293 symmetry adapted cartesian basis functions of A   symmetry.
 There are   283 symmetry adapted basis functions of A   symmetry.
   283 basis functions,   441 primitive gaussians,   293 cartesian basis functions
    36 alpha electrons       36 beta electrons
       nuclear repulsion energy       491.0426772328 Hartrees.
 IExCor= 4639 DFT=T Ex+Corr=wB97XD ExCW=0 ScaHFX=  1.000000
 ScaDFX=  1.000000  1.000000  1.000000  1.000000 ScalE2=  1.000000  1.000000
 IRadAn=      5 IRanWt=     -1 IRanGd=            0 ICorTp=0 IEmpDi=121
 HFx  wShort=  0.000000 wLong=  0.200000 cFull=  0.222036 cShort=  0.000000 cLong=  0.777964
 DFx  wShort=  0.000000 wLong=  0.200000 cFull=  0.000000 cShort=  0.000000 cLong=  1.000000
 NAtoms=   19 NActive=   19 NUniq=   19 SFac= 1.00D+00 NAtFMM=   60 NAOKFM=F Big=F
 Integral buffers will be    131072 words long.
 Raffenetti 2 integral format.
 Two-electron integral symmetry is turned on.
 R6Disp:  Grimme-D2 Dispersion energy=       -0.0093644360 Hartrees.
 Nuclear repulsion after empirical dispersion term =      491.0333127968 Hartrees.
 Leave Link  301 at Tue Nov 22 19:11:50 2022, MaxMem= 16106127360 cpu:               1.3 elap:               0.0
 (Enter /opt/ap/G16/B01/g16/l302.exe)
 NPDir=0 NMtPBC=     1 NCelOv=     1 NCel=       1 NClECP=     1 NCelD=      1
         NCelK=      1 NCelE2=     1 NClLst=     1 CellRange=     0.0.
 One-electron integrals computed using PRISM.
 One-electron integral symmetry used in STVInt
 NBasis=   283 RedAO= T EigKep=  2.51D-06  NBF=   283
 NBsUse=   282 1.00D-06 EigRej=  8.81D-07 NBFU=   282
 Precomputing XC quadrature grid using
 IXCGrd= 4 IRadAn=           5 IRanWt=          -1 IRanGd=           0 AccXCQ= 0.00D+00.
 Generated NRdTot=       0 NPtTot=           0 NUsed=           0 NTot=          32
 NSgBfM=   293   293   293   293   293 MxSgAt=    19 MxSgA2=    19.
 Leave Link  302 at Tue Nov 22 19:11:50 2022, MaxMem= 16106127360 cpu:               6.3 elap:               0.2
 (Enter /opt/ap/G16/B01/g16/l303.exe)
 DipDrv:  MaxL=1.
 Leave Link  303 at Tue Nov 22 19:11:50 2022, MaxMem= 16106127360 cpu:               1.4 elap:               0.1
 (Enter /opt/ap/G16/B01/g16/l401.exe)
 ExpMin= 3.60D-02 ExpMax= 8.59D+03 ExpMxC= 1.30D+03 IAcc=3 IRadAn=         5 AccDes= 0.00D+00
 Harris functional with IExCor= 4639 and IRadAn=       5 diagonalized for initial guess.
 HarFok:  IExCor= 4639 AccDes= 0.00D+00 IRadAn=         5 IDoV= 1 UseB2=F ITyADJ=14
 ICtDFT=  3500011 ScaDFX=  1.000000  1.000000  1.000000  1.000000
 FoFCou: FMM=F IPFlag=           0 FMFlag=      100000 FMFlg1=           0
         NFxFlg=           0 DoJE=T BraDBF=F KetDBF=T FulRan=T
         wScrn=  0.000000 ICntrl=       500 IOpCl=  0 I1Cent=   200000004 NGrid=           0
         NMat0=    1 NMatS0=      1 NMatT0=    0 NMatD0=    1 NMtDS0=    0 NMtDT0=    0
 Petite list used in FoFCou.
 Harris En= -420.967707385592    
 JPrj=0 DoOrth=F DoCkMO=F.
 Leave Link  401 at Tue Nov 22 19:11:51 2022, MaxMem= 16106127360 cpu:              15.9 elap:               0.5
 (Enter /opt/ap/G16/B01/g16/l502.exe)
 Integral symmetry usage will be decided dynamically.
 Closed shell SCF:
 Using DIIS extrapolation, IDIIS=  1040.
 NGot= 16106127360 LenX= 16105943385 LenY= 16105857095
 Requested convergence on RMS density matrix=1.00D-08 within 512 cycles.
 Requested convergence on MAX density matrix=1.00D-06.
 Requested convergence on             energy=1.00D-06.
 No special actions if energy rises.
 Fock matrices will be formed incrementally for  20 cycles.

 Cycle   1  Pass 1  IDiag  1:
 FoFJK:  IHMeth= 1 ICntrl=       0 DoSepK=T KAlg= 0 I1Cent=           0 FoldK=F
 IRaf=         1 NMat=       1 IRICut=       1 DoRegI=T DoRafI=F ISym2E= 0 IDoP0=0 IntGTp=1.
 FoFCou: FMM=F IPFlag=           0 FMFlag=      100000 FMFlg1=           0
         NFxFlg=           0 DoJE=T BraDBF=F KetDBF=F FulRan=T
         wScrn=  0.000000 ICntrl=       500 IOpCl=  0 I1Cent=           0 NGrid=           0
         NMat0=    1 NMatS0=      1 NMatT0=    0 NMatD0=    1 NMtDS0=    0 NMtDT0=    0
 Symmetry not used in FoFCou.
 E= -439.954597523405    
 DIIS: error= 5.32D-02 at cycle   1 NSaved=   1.
 NSaved= 1 IEnMin= 1 EnMin= -439.954597523405     IErMin= 1 ErrMin= 5.32D-02
 ErrMax= 5.32D-02  0.00D+00 EMaxC= 1.00D-01 BMatC= 9.53D-01 BMatP= 9.53D-01
 IDIUse=3 WtCom= 4.68D-01 WtEn= 5.32D-01
 Coeff-Com:  0.100D+01
 Coeff-En:   0.100D+01
 Coeff:      0.100D+01
 Gap=     0.432 Goal=   None    Shift=    0.000
 GapD=    0.432 DampG=2.000 DampE=0.500 DampFc=1.0000 IDamp=-1.
 RMSDP=8.66D-03 MaxDP=4.70D-01              OVMax= 1.71D-01

 Cycle   2  Pass 1  IDiag  1:
 RMSU=  6.01D-03    CP:  7.91D-01
 E= -440.038564340991     Delta-E=       -0.083966817587 Rises=F Damp=F
 DIIS: error= 1.29D-02 at cycle   2 NSaved=   2.
 NSaved= 2 IEnMin= 2 EnMin= -440.038564340991     IErMin= 2 ErrMin= 1.29D-02
 ErrMax= 1.29D-02  0.00D+00 EMaxC= 1.00D-01 BMatC= 8.99D-02 BMatP= 9.53D-01
 IDIUse=3 WtCom= 8.71D-01 WtEn= 1.29D-01
 Coeff-Com:  0.166D+00 0.834D+00
 Coeff-En:   0.240D+00 0.760D+00
 Coeff:      0.175D+00 0.825D+00
 Gap=     0.408 Goal=   None    Shift=    0.000
 RMSDP=6.22D-03 MaxDP=4.08D-01 DE=-8.40D-02 OVMax= 1.29D-01

 Cycle   3  Pass 1  IDiag  1:
 RMSU=  4.16D-03    CP:  6.67D-01  5.38D-01
 E= -440.083558025899     Delta-E=       -0.044993684908 Rises=F Damp=F
 DIIS: error= 1.02D-02 at cycle   3 NSaved=   3.
 NSaved= 3 IEnMin= 3 EnMin= -440.083558025899     IErMin= 3 ErrMin= 1.02D-02
 ErrMax= 1.02D-02  0.00D+00 EMaxC= 1.00D-01 BMatC= 3.73D-02 BMatP= 8.99D-02
 IDIUse=3 WtCom= 8.98D-01 WtEn= 1.02D-01
 Coeff-Com:  0.242D-01 0.397D+00 0.579D+00
 Coeff-En:   0.000D+00 0.290D+00 0.710D+00
 Coeff:      0.217D-01 0.386D+00 0.593D+00
 Gap=     0.357 Goal=   None    Shift=    0.000
 RMSDP=1.91D-03 MaxDP=9.15D-02 DE=-4.50D-02 OVMax= 7.42D-02

 Cycle   4  Pass 1  IDiag  1:
 RMSU=  9.98D-04    CP:  6.76D-01  7.26D-01  7.27D-01
 E= -440.117355221450     Delta-E=       -0.033797195551 Rises=F Damp=F
 DIIS: error= 2.40D-03 at cycle   4 NSaved=   4.
 NSaved= 4 IEnMin= 4 EnMin= -440.117355221450     IErMin= 4 ErrMin= 2.40D-03
 ErrMax= 2.40D-03  0.00D+00 EMaxC= 1.00D-01 BMatC= 1.03D-03 BMatP= 3.73D-02
 IDIUse=3 WtCom= 9.76D-01 WtEn= 2.40D-02
 Coeff-Com:  0.820D-02 0.164D+00 0.279D+00 0.549D+00
 Coeff-En:   0.000D+00 0.000D+00 0.000D+00 0.100D+01
 Coeff:      0.801D-02 0.160D+00 0.272D+00 0.560D+00
 Gap=     0.326 Goal=   None    Shift=    0.000
 RMSDP=3.56D-04 MaxDP=2.13D-02 DE=-3.38D-02 OVMax= 8.82D-03

 Cycle   5  Pass 1  IDiag  1:
 RMSU=  2.20D-04    CP:  6.68D-01  7.22D-01  7.62D-01  9.36D-01
 E= -440.118238713853     Delta-E=       -0.000883492403 Rises=F Damp=F
 DIIS: error= 5.63D-04 at cycle   5 NSaved=   5.
 NSaved= 5 IEnMin= 5 EnMin= -440.118238713853     IErMin= 5 ErrMin= 5.63D-04
 ErrMax= 5.63D-04  0.00D+00 EMaxC= 1.00D-01 BMatC= 4.08D-05 BMatP= 1.03D-03
 IDIUse=3 WtCom= 9.94D-01 WtEn= 5.63D-03
 Coeff-Com: -0.280D-03-0.251D-02 0.943D-02 0.147D+00 0.847D+00
 Coeff-En:   0.000D+00 0.000D+00 0.000D+00 0.000D+00 0.100D+01
 Coeff:     -0.279D-03-0.250D-02 0.937D-02 0.146D+00 0.848D+00
 Gap=     0.327 Goal=   None    Shift=    0.000
 RMSDP=1.28D-04 MaxDP=7.92D-03 DE=-8.83D-04 OVMax= 3.72D-03

 Cycle   6  Pass 1  IDiag  1:
 RMSU=  7.61D-05    CP:  6.66D-01  7.24D-01  7.74D-01  9.92D-01  1.07D+00
 E= -440.118274314601     Delta-E=       -0.000035600748 Rises=F Damp=F
 DIIS: error= 3.47D-04 at cycle   6 NSaved=   6.
 NSaved= 6 IEnMin= 6 EnMin= -440.118274314601     IErMin= 6 ErrMin= 3.47D-04
 ErrMax= 3.47D-04  0.00D+00 EMaxC= 1.00D-01 BMatC= 2.24D-05 BMatP= 4.08D-05
 IDIUse=3 WtCom= 9.97D-01 WtEn= 3.47D-03
 Coeff-Com: -0.125D-02-0.218D-01-0.275D-01 0.187D-01 0.512D+00 0.520D+00
 Coeff-En:   0.000D+00 0.000D+00 0.000D+00 0.000D+00 0.116D-01 0.988D+00
 Coeff:     -0.125D-02-0.217D-01-0.274D-01 0.187D-01 0.510D+00 0.521D+00
 Gap=     0.327 Goal=   None    Shift=    0.000
 RMSDP=7.70D-05 MaxDP=4.90D-03 DE=-3.56D-05 OVMax= 8.92D-04

 Cycle   7  Pass 1  IDiag  1:
 RMSU=  3.14D-05    CP:  6.64D-01  7.24D-01  7.79D-01  1.02D+00  1.21D+00
                    CP:  1.02D+00
 E= -440.118291857755     Delta-E=       -0.000017543154 Rises=F Damp=F
 DIIS: error= 7.18D-05 at cycle   7 NSaved=   7.
 NSaved= 7 IEnMin= 7 EnMin= -440.118291857755     IErMin= 7 ErrMin= 7.18D-05
 ErrMax= 7.18D-05  0.00D+00 EMaxC= 1.00D-01 BMatC= 5.52D-07 BMatP= 2.24D-05
 IDIUse=1 WtCom= 1.00D+00 WtEn= 0.00D+00
 Coeff-Com: -0.261D-03-0.499D-02-0.641D-02-0.132D-01 0.177D-01 0.869D-01
 Coeff-Com:  0.920D+00
 Coeff:     -0.261D-03-0.499D-02-0.641D-02-0.132D-01 0.177D-01 0.869D-01
 Coeff:      0.920D+00
 Gap=     0.327 Goal=   None    Shift=    0.000
 RMSDP=2.15D-05 MaxDP=1.06D-03 DE=-1.75D-05 OVMax= 6.34D-04

 Cycle   8  Pass 1  IDiag  1:
 RMSU=  9.18D-06    CP:  6.64D-01  7.23D-01  7.80D-01  1.03D+00  1.25D+00
                    CP:  1.13D+00  1.08D+00
 E= -440.118293146865     Delta-E=       -0.000001289110 Rises=F Damp=F
 DIIS: error= 1.75D-05 at cycle   8 NSaved=   8.
 NSaved= 8 IEnMin= 8 EnMin= -440.118293146865     IErMin= 8 ErrMin= 1.75D-05
 ErrMax= 1.75D-05  0.00D+00 EMaxC= 1.00D-01 BMatC= 1.78D-07 BMatP= 5.52D-07
 IDIUse=1 WtCom= 1.00D+00 WtEn= 0.00D+00
 Coeff-Com:  0.820D-04 0.109D-02 0.149D-02-0.102D-01-0.800D-01-0.579D-01
 Coeff-Com:  0.406D+00 0.739D+00
 Coeff:      0.820D-04 0.109D-02 0.149D-02-0.102D-01-0.800D-01-0.579D-01
 Coeff:      0.406D+00 0.739D+00
 Gap=     0.327 Goal=   None    Shift=    0.000
 RMSDP=8.03D-06 MaxDP=3.40D-04 DE=-1.29D-06 OVMax= 3.66D-04

 Cycle   9  Pass 1  IDiag  1:
 RMSU=  3.86D-06    CP:  6.64D-01  7.23D-01  7.81D-01  1.03D+00  1.27D+00
                    CP:  1.17D+00  1.18D+00  1.23D+00
 E= -440.118293430382     Delta-E=       -0.000000283517 Rises=F Damp=F
 DIIS: error= 1.21D-05 at cycle   9 NSaved=   9.
 NSaved= 9 IEnMin= 9 EnMin= -440.118293430382     IErMin= 9 ErrMin= 1.21D-05
 ErrMax= 1.21D-05  0.00D+00 EMaxC= 1.00D-01 BMatC= 1.09D-08 BMatP= 1.78D-07
 IDIUse=1 WtCom= 1.00D+00 WtEn= 0.00D+00
 Coeff-Com:  0.557D-04 0.933D-03 0.136D-02-0.745D-03-0.215D-01-0.265D-01
 Coeff-Com: -0.198D-02 0.178D+00 0.870D+00
 Coeff:      0.557D-04 0.933D-03 0.136D-02-0.745D-03-0.215D-01-0.265D-01
 Coeff:     -0.198D-02 0.178D+00 0.870D+00
 Gap=     0.327 Goal=   None    Shift=    0.000
 RMSDP=3.64D-06 MaxDP=2.05D-04 DE=-2.84D-07 OVMax= 1.02D-04

 Cycle  10  Pass 1  IDiag  1:
 RMSU=  1.57D-06    CP:  6.64D-01  7.23D-01  7.81D-01  1.03D+00  1.26D+00
                    CP:  1.17D+00  1.19D+00  1.39D+00  1.40D+00
 E= -440.118293456798     Delta-E=       -0.000000026416 Rises=F Damp=F
 DIIS: error= 2.09D-06 at cycle  10 NSaved=  10.
 NSaved=10 IEnMin=10 EnMin= -440.118293456798     IErMin=10 ErrMin= 2.09D-06
 ErrMax= 2.09D-06  0.00D+00 EMaxC= 1.00D-01 BMatC= 1.19D-09 BMatP= 1.09D-08
 IDIUse=1 WtCom= 1.00D+00 WtEn= 0.00D+00
 Coeff-Com:  0.174D-05 0.874D-04 0.176D-03 0.119D-02 0.549D-02 0.176D-02
 Coeff-Com: -0.474D-01-0.650D-01 0.151D+00 0.953D+00
 Coeff:      0.174D-05 0.874D-04 0.176D-03 0.119D-02 0.549D-02 0.176D-02
 Coeff:     -0.474D-01-0.650D-01 0.151D+00 0.953D+00
 Gap=     0.327 Goal=   None    Shift=    0.000
 RMSDP=1.67D-06 MaxDP=1.01D-04 DE=-2.64D-08 OVMax= 4.74D-05

 Cycle  11  Pass 1  IDiag  1:
 RMSU=  4.63D-07    CP:  6.64D-01  7.23D-01  7.81D-01  1.03D+00  1.26D+00
                    CP:  1.17D+00  1.19D+00  1.46D+00  1.59D+00  1.19D+00
 E= -440.118293460639     Delta-E=       -0.000000003842 Rises=F Damp=F
 DIIS: error= 1.04D-06 at cycle  11 NSaved=  11.
 NSaved=11 IEnMin=11 EnMin= -440.118293460639     IErMin=11 ErrMin= 1.04D-06
 ErrMax= 1.04D-06  0.00D+00 EMaxC= 1.00D-01 BMatC= 1.68D-10 BMatP= 1.19D-09
 IDIUse=1 WtCom= 1.00D+00 WtEn= 0.00D+00
 Coeff-Com: -0.481D-05-0.747D-04-0.863D-04 0.410D-03 0.350D-02 0.335D-02
 Coeff-Com: -0.104D-01-0.356D-01-0.675D-01 0.204D+00 0.902D+00
 Coeff:     -0.481D-05-0.747D-04-0.863D-04 0.410D-03 0.350D-02 0.335D-02
 Coeff:     -0.104D-01-0.356D-01-0.675D-01 0.204D+00 0.902D+00
 Gap=     0.327 Goal=   None    Shift=    0.000
 RMSDP=5.48D-07 MaxDP=3.17D-05 DE=-3.84D-09 OVMax= 1.19D-05

 Cycle  12  Pass 1  IDiag  1:
 RMSU=  1.45D-07    CP:  6.64D-01  7.23D-01  7.81D-01  1.02D+00  1.26D+00
                    CP:  1.17D+00  1.19D+00  1.47D+00  1.65D+00  1.32D+00
                    CP:  1.30D+00
 E= -440.118293461103     Delta-E=       -0.000000000464 Rises=F Damp=F
 DIIS: error= 2.27D-07 at cycle  12 NSaved=  12.
 NSaved=12 IEnMin=12 EnMin= -440.118293461103     IErMin=12 ErrMin= 2.27D-07
 ErrMax= 2.27D-07  0.00D+00 EMaxC= 1.00D-01 BMatC= 1.97D-11 BMatP= 1.68D-10
 IDIUse=1 WtCom= 1.00D+00 WtEn= 0.00D+00
 Coeff-Com: -0.803D-06-0.221D-04-0.325D-04-0.827D-04-0.409D-03 0.369D-03
 Coeff-Com:  0.494D-02 0.434D-02-0.288D-01-0.905D-01 0.146D+00 0.964D+00
 Coeff:     -0.803D-06-0.221D-04-0.325D-04-0.827D-04-0.409D-03 0.369D-03
 Coeff:      0.494D-02 0.434D-02-0.288D-01-0.905D-01 0.146D+00 0.964D+00
 Gap=     0.327 Goal=   None    Shift=    0.000
 RMSDP=1.20D-07 MaxDP=4.20D-06 DE=-4.64D-10 OVMax= 4.59D-06

 Cycle  13  Pass 1  IDiag  1:
 RMSU=  6.22D-08    CP:  6.64D-01  7.23D-01  7.81D-01  1.02D+00  1.26D+00
                    CP:  1.17D+00  1.19D+00  1.47D+00  1.65D+00  1.34D+00
                    CP:  1.40D+00  1.26D+00
 E= -440.118293461163     Delta-E=       -0.000000000060 Rises=F Damp=F
 DIIS: error= 9.48D-08 at cycle  13 NSaved=  13.
 NSaved=13 IEnMin=13 EnMin= -440.118293461163     IErMin=13 ErrMin= 9.48D-08
 ErrMax= 9.48D-08  0.00D+00 EMaxC= 1.00D-01 BMatC= 2.92D-12 BMatP= 1.97D-11
 IDIUse=1 WtCom= 1.00D+00 WtEn= 0.00D+00
 Coeff-Com:  0.178D-06 0.736D-06-0.110D-05-0.592D-04-0.483D-03-0.179D-03
 Coeff-Com:  0.237D-02 0.480D-02-0.196D-02-0.470D-01-0.548D-01 0.280D+00
 Coeff-Com:  0.817D+00
 Coeff:      0.178D-06 0.736D-06-0.110D-05-0.592D-04-0.483D-03-0.179D-03
 Coeff:      0.237D-02 0.480D-02-0.196D-02-0.470D-01-0.548D-01 0.280D+00
 Coeff:      0.817D+00
 Gap=     0.327 Goal=   None    Shift=    0.000
 RMSDP=4.48D-08 MaxDP=1.29D-06 DE=-5.96D-11 OVMax= 1.53D-06

 Cycle  14  Pass 1  IDiag  1:
 RMSU=  1.87D-08    CP:  6.64D-01  7.23D-01  7.81D-01  1.02D+00  1.26D+00
                    CP:  1.17D+00  1.18D+00  1.47D+00  1.65D+00  1.34D+00
                    CP:  1.42D+00  1.36D+00  1.30D+00
 E= -440.118293461169     Delta-E=       -0.000000000006 Rises=F Damp=F
 DIIS: error= 5.23D-08 at cycle  14 NSaved=  14.
 NSaved=14 IEnMin=14 EnMin= -440.118293461169     IErMin=14 ErrMin= 5.23D-08
 ErrMax= 5.23D-08  0.00D+00 EMaxC= 1.00D-01 BMatC= 3.39D-13 BMatP= 2.92D-12
 IDIUse=1 WtCom= 1.00D+00 WtEn= 0.00D+00
 Coeff-Com:  0.107D-06 0.251D-05 0.312D-05 0.102D-05-0.322D-04-0.638D-04
 Coeff-Com: -0.261D-03 0.273D-03 0.319D-02 0.371D-02-0.318D-01-0.754D-01
 Coeff-Com:  0.185D+00 0.915D+00
 Coeff:      0.107D-06 0.251D-05 0.312D-05 0.102D-05-0.322D-04-0.638D-04
 Coeff:     -0.261D-03 0.273D-03 0.319D-02 0.371D-02-0.318D-01-0.754D-01
 Coeff:      0.185D+00 0.915D+00
 Gap=     0.327 Goal=   None    Shift=    0.000
 RMSDP=2.68D-08 MaxDP=9.72D-07 DE=-6.03D-12 OVMax= 7.92D-07

 Cycle  15  Pass 1  IDiag  1:
 RMSU=  8.89D-09    CP:  6.64D-01  7.23D-01  7.81D-01  1.02D+00  1.26D+00
                    CP:  1.17D+00  1.18D+00  1.47D+00  1.65D+00  1.34D+00
                    CP:  1.42D+00  1.40D+00  1.47D+00  1.41D+00
 E= -440.118293461171     Delta-E=       -0.000000000003 Rises=F Damp=F
 DIIS: error= 1.77D-08 at cycle  15 NSaved=  15.
 NSaved=15 IEnMin=15 EnMin= -440.118293461171     IErMin=15 ErrMin= 1.77D-08
 ErrMax= 1.77D-08  0.00D+00 EMaxC= 1.00D-01 BMatC= 4.38D-14 BMatP= 3.39D-13
 IDIUse=1 WtCom= 1.00D+00 WtEn= 0.00D+00
 Coeff-Com: -0.114D-07 0.148D-06 0.433D-06 0.893D-05 0.619D-04 0.225D-04
 Coeff-Com: -0.357D-03-0.569D-03 0.580D-03 0.717D-02 0.508D-02-0.483D-01
 Coeff-Com: -0.906D-01 0.929D-01 0.103D+01
 Coeff:     -0.114D-07 0.148D-06 0.433D-06 0.893D-05 0.619D-04 0.225D-04
 Coeff:     -0.357D-03-0.569D-03 0.580D-03 0.717D-02 0.508D-02-0.483D-01
 Coeff:     -0.906D-01 0.929D-01 0.103D+01
 Gap=     0.327 Goal=   None    Shift=    0.000
 RMSDP=1.29D-08 MaxDP=7.32D-07 DE=-2.84D-12 OVMax= 3.76D-07

 Cycle  16  Pass 1  IDiag  1:
 RMSU=  3.98D-09    CP:  6.64D-01  7.23D-01  7.81D-01  1.02D+00  1.26D+00
                    CP:  1.17D+00  1.18D+00  1.47D+00  1.65D+00  1.33D+00
                    CP:  1.41D+00  1.41D+00  1.56D+00  1.60D+00  1.36D+00
 E= -440.118293461172     Delta-E=       -0.000000000001 Rises=F Damp=F
 DIIS: error= 6.31D-09 at cycle  16 NSaved=  16.
 NSaved=16 IEnMin=16 EnMin= -440.118293461172     IErMin=16 ErrMin= 6.31D-09
 ErrMax= 6.31D-09  0.00D+00 EMaxC= 1.00D-01 BMatC= 7.94D-15 BMatP= 4.38D-14
 IDIUse=1 WtCom= 1.00D+00 WtEn= 0.00D+00
 Coeff-Com: -0.147D-07-0.216D-06-0.196D-06 0.252D-05 0.200D-04 0.124D-04
 Coeff-Com: -0.684D-04-0.162D-03-0.255D-03 0.123D-02 0.509D-02-0.510D-02
 Coeff-Com: -0.476D-01-0.891D-01 0.282D+00 0.854D+00
 Coeff:     -0.147D-07-0.216D-06-0.196D-06 0.252D-05 0.200D-04 0.124D-04
 Coeff:     -0.684D-04-0.162D-03-0.255D-03 0.123D-02 0.509D-02-0.510D-02
 Coeff:     -0.476D-01-0.891D-01 0.282D+00 0.854D+00
 Gap=     0.327 Goal=   None    Shift=    0.000
 RMSDP=2.80D-09 MaxDP=9.47D-08 DE=-5.68D-13 OVMax= 1.45D-07

 SCF Done:  E(RwB97XD) =  -440.118293461     A.U. after   16 cycles
            NFock= 16  Conv=0.28D-08     -V/T= 2.0002
 KE= 4.400422260962D+02 PE=-2.008340137571D+03 EE= 6.371463052167D+02
 Leave Link  502 at Tue Nov 22 19:12:11 2022, MaxMem= 16106127360 cpu:             639.8 elap:              20.1
 (Enter /opt/ap/G16/B01/g16/l601.exe)
 Copying SCF densities to generalized density rwf, IOpCl= 0 IROHF=0.

 **********************************************************************

            Population analysis using the SCF Density.

 **********************************************************************

 Orbital symmetries:
       Occupied  (A) (A) (A) (A) (A) (A) (A) (A) (A) (A) (A) (A)
                 (A) (A) (A) (A) (A) (A) (A) (A) (A) (A) (A) (A)
                 (A) (A) (A) (A) (A) (A) (A) (A) (A) (A) (A) (A)
       Virtual   (A) (A) (A) (A) (A) (A) (A) (A) (A) (A) (A) (A)
                 (A) (A) (A) (A) (A) (A) (A) (A) (A) (A) (A) (A)
                 (A) (A) (A) (A) (A) (A) (A) (A) (A) (A) (A) (A)
                 (A) (A) (A) (A) (A) (A) (A) (A) (A) (A) (A) (A)
                 (A) (A) (A) (A) (A) (A) (A) (A) (A) (A) (A) (A)
                 (A) (A) (A) (A) (A) (A) (A) (A) (A) (A) (A) (A)
                 (A) (A) (A) (A) (A) (A) (A) (A) (A) (A) (A) (A)
                 (A) (A) (A) (A) (A) (A) (A) (A) (A) (A) (A) (A)
                 (A) (A) (A) (A) (A) (A) (A) (A) (A) (A) (A) (A)
                 (A) (A) (A) (A) (A) (A) (A) (A) (A) (A) (A) (A)
                 (A) (A) (A) (A) (A) (A) (A) (A) (A) (A) (A) (A)
                 (A) (A) (A) (A) (A) (A) (A) (A) (A) (A) (A) (A)
                 (A) (A) (A) (A) (A) (A) (A) (A) (A) (A) (A) (A)
                 (A) (A) (A) (A) (A) (A) (A) (A) (A) (A) (A) (A)
                 (A) (A) (A) (A) (A) (A) (A) (A) (A) (A) (A) (A)
                 (A) (A) (A) (A) (A) (A) (A) (A) (A) (A) (A) (A)
                 (A) (A) (A) (A) (A) (A) (A) (A) (A) (A) (A) (A)
                 (A) (A) (A) (A) (A) (A) (A) (A) (A) (A) (A) (A)
                 (A) (A) (A) (A) (A) (A) (A) (A) (A) (A) (A) (A)
                 (A) (A) (A) (A) (A) (A) (A) (A) (A) (A) (A) (A)
                 (A) (A) (A) (A) (A) (A)
 The electronic state is 1-A.
 Alpha  occ. eigenvalues --  -19.23975 -14.45080 -10.40982 -10.34235 -10.28170
 Alpha  occ. eigenvalues --  -10.27915 -10.27631 -10.27247 -10.27040 -10.26255
 Alpha  occ. eigenvalues --   -1.15713  -1.06201  -0.96165  -0.88339  -0.86439
 Alpha  occ. eigenvalues --   -0.84887  -0.74818  -0.72990  -0.69144  -0.65647
 Alpha  occ. eigenvalues --   -0.61152  -0.59424  -0.56039  -0.55545  -0.53848
 Alpha  occ. eigenvalues --   -0.53297  -0.52818  -0.51277  -0.47975  -0.45717
 Alpha  occ. eigenvalues --   -0.44904  -0.44261  -0.39873  -0.35735  -0.33610
 Alpha  occ. eigenvalues --   -0.29452
 Alpha virt. eigenvalues --    0.03255   0.03723   0.04682   0.05034   0.05121
 Alpha virt. eigenvalues --    0.06122   0.06598   0.07124   0.07631   0.08652
 Alpha virt. eigenvalues --    0.09248   0.10929   0.11472   0.11862   0.13596
 Alpha virt. eigenvalues --    0.14055   0.15241   0.15707   0.15825   0.16306
 Alpha virt. eigenvalues --    0.17012   0.17360   0.17830   0.18234   0.18431
 Alpha virt. eigenvalues --    0.18755   0.19042   0.19588   0.20167   0.20396
 Alpha virt. eigenvalues --    0.20940   0.22167   0.23023   0.23167   0.23796
 Alpha virt. eigenvalues --    0.23954   0.24446   0.25071   0.26538   0.26908
 Alpha virt. eigenvalues --    0.27287   0.28070   0.28382   0.29330   0.29808
 Alpha virt. eigenvalues --    0.30311   0.31243   0.31839   0.33107   0.33458
 Alpha virt. eigenvalues --    0.34042   0.35648   0.36338   0.36942   0.37385
 Alpha virt. eigenvalues --    0.38444   0.39421   0.39881   0.40065   0.41867
 Alpha virt. eigenvalues --    0.42354   0.42759   0.43964   0.45100   0.45590
 Alpha virt. eigenvalues --    0.46485   0.49322   0.50986   0.52993   0.54909
 Alpha virt. eigenvalues --    0.57510   0.59118   0.59611   0.62271   0.63441
 Alpha virt. eigenvalues --    0.63998   0.64494   0.65483   0.65952   0.66217
 Alpha virt. eigenvalues --    0.68306   0.68928   0.70153   0.71787   0.72325
 Alpha virt. eigenvalues --    0.74641   0.75569   0.76844   0.77786   0.78891
 Alpha virt. eigenvalues --    0.79455   0.82084   0.82733   0.84006   0.84324
 Alpha virt. eigenvalues --    0.85210   0.86014   0.89110   0.92220   0.93298
 Alpha virt. eigenvalues --    0.94217   0.94903   0.95749   0.96320   0.97803
 Alpha virt. eigenvalues --    0.99546   0.99634   1.01635   1.01930   1.05986
 Alpha virt. eigenvalues --    1.07818   1.09257   1.10252   1.13410   1.13720
 Alpha virt. eigenvalues --    1.15959   1.17172   1.19808   1.21972   1.23609
 Alpha virt. eigenvalues --    1.26762   1.28664   1.31807   1.36233   1.37807
 Alpha virt. eigenvalues --    1.40093   1.45064   1.47505   1.54339   1.54921
 Alpha virt. eigenvalues --    1.59214   1.61264   1.62147   1.63450   1.65261
 Alpha virt. eigenvalues --    1.66159   1.67724   1.67876   1.68079   1.69874
 Alpha virt. eigenvalues --    1.71574   1.73454   1.74818   1.76332   1.78106
 Alpha virt. eigenvalues --    1.81306   1.84710   1.87007   1.88626   1.90286
 Alpha virt. eigenvalues --    1.93427   1.94072   1.96166   1.97680   1.98795
 Alpha virt. eigenvalues --    2.01007   2.01766   2.03877   2.04698   2.06642
 Alpha virt. eigenvalues --    2.08154   2.10154   2.13812   2.14856   2.16075
 Alpha virt. eigenvalues --    2.23691   2.25178   2.25948   2.30527   2.37782
 Alpha virt. eigenvalues --    2.40213   2.41112   2.47432   2.50581   2.52223
 Alpha virt. eigenvalues --    2.54079   2.56612   2.58841   2.61280   2.63374
 Alpha virt. eigenvalues --    2.66308   2.69745   2.70400   2.73801   2.76244
 Alpha virt. eigenvalues --    2.78092   2.81027   2.82670   2.83410   2.85343
 Alpha virt. eigenvalues --    2.86375   2.89408   2.90981   2.92050   2.94015
 Alpha virt. eigenvalues --    2.94382   2.95366   2.96737   2.99639   3.00851
 Alpha virt. eigenvalues --    3.03108   3.03554   3.06469   3.09035   3.15872
 Alpha virt. eigenvalues --    3.19551   3.21405   3.23506   3.27317   3.31747
 Alpha virt. eigenvalues --    3.40654   3.43805   3.48081   3.50585   3.53005
 Alpha virt. eigenvalues --    3.60475   3.64547   3.69597   3.72228   3.90827
 Alpha virt. eigenvalues --    3.99520   4.07030   4.07633   4.12474   4.19279
 Alpha virt. eigenvalues --    4.30911   4.34717   4.38233   4.40140   4.44560
 Alpha virt. eigenvalues --    4.95970   5.14959   5.18867   5.24531   5.33383
 Alpha virt. eigenvalues --    5.85687  23.87296  23.98910  24.14606  24.22978
 Alpha virt. eigenvalues --   24.30769  24.33535  24.37795  24.43047  35.89255
 Alpha virt. eigenvalues --   50.11786
          Condensed to atoms (all electrons):
               1          2          3          4          5          6
     1  C    8.254638   0.291809  -0.255106  -1.127478  -0.070544  -0.133722
     2  C    0.291809   8.287266  -2.018567  -0.839766   0.537572  -0.043270
     3  C   -0.255106  -2.018567   7.774912   0.772470  -0.066827  -0.147543
     4  C   -1.127478  -0.839766   0.772470   6.636319  -0.062483  -0.022660
     5  H   -0.070544   0.537572  -0.066827  -0.062483   0.476437  -0.027695
     6  N   -0.133722  -0.043270  -0.147543  -0.022660  -0.027695   7.248152
     7  C   -0.460245   0.132064   0.428025  -0.205093  -0.001184   0.048657
     8  H   -0.118456  -0.065003   0.548207   0.040873  -0.003229  -0.004555
     9  C   -0.121085  -0.424854  -0.500119   0.663628   0.027805   0.032643
    10  H    0.030694  -0.057204   0.033849   0.399388  -0.013955  -0.002897
    11  C    0.035404  -0.182352   0.064942  -0.013019   0.014482   0.051927
    12  H    0.020927  -0.010980   0.012741  -0.013697   0.002786   0.390332
    13  H    0.023367   0.039021  -0.110479  -0.025771   0.000579  -0.004094
    14  H    0.014781  -0.017060  -0.022094  -0.056829   0.001003   0.001550
    15  C   -0.338459   0.138962  -0.042779   0.073112  -0.003001  -0.144389
    16  O   -0.222575   0.112055  -0.005171   0.086064   0.009644  -0.077628
    17  H   -0.016994  -0.011066   0.019267   0.005022  -0.003954   0.016142
    18  H   -0.024949   0.013139  -0.004662   0.002808   0.000974   0.009007
    19  H    0.034575  -0.012907  -0.006758  -0.006031  -0.000578  -0.001214
               7          8          9         10         11         12
     1  C   -0.460245  -0.118456  -0.121085   0.030694   0.035404   0.020927
     2  C    0.132064  -0.065003  -0.424854  -0.057204  -0.182352  -0.010980
     3  C    0.428025   0.548207  -0.500119   0.033849   0.064942   0.012741
     4  C   -0.205093   0.040873   0.663628   0.399388  -0.013019  -0.013697
     5  H   -0.001184  -0.003229   0.027805  -0.013955   0.014482   0.002786
     6  N    0.048657  -0.004555   0.032643  -0.002897   0.051927   0.390332
     7  C    5.549808  -0.081156   0.389457   0.002549  -0.002217  -0.002078
     8  H   -0.081156   0.553006  -0.002060   0.001638   0.009298   0.000407
     9  C    0.389457  -0.002060   5.828047  -0.077458   0.032667  -0.001969
    10  H    0.002549   0.001638  -0.077458   0.489170  -0.000078  -0.000152
    11  C   -0.002217   0.009298   0.032667  -0.000078   5.755059  -0.046737
    12  H   -0.002078   0.000407  -0.001969  -0.000152  -0.046737   0.343468
    13  H    0.455438  -0.021078  -0.045121  -0.000279  -0.001904   0.001523
    14  H   -0.057161  -0.000563   0.488626  -0.011323   0.000882  -0.000103
    15  C   -0.010356   0.001865   0.022169  -0.000720  -0.075270  -0.027445
    16  O   -0.006877   0.000676   0.009104  -0.000888   0.408432   0.002957
    17  H    0.003686   0.000454  -0.000485   0.000128  -0.081424  -0.003164
    18  H   -0.000398   0.000522   0.000818  -0.000031  -0.046516   0.000305
    19  H   -0.000756  -0.002002  -0.000399   0.000010  -0.045837   0.000306
              13         14         15         16         17         18
     1  C    0.023367   0.014781  -0.338459  -0.222575  -0.016994  -0.024949
     2  C    0.039021  -0.017060   0.138962   0.112055  -0.011066   0.013139
     3  C   -0.110479  -0.022094  -0.042779  -0.005171   0.019267  -0.004662
     4  C   -0.025771  -0.056829   0.073112   0.086064   0.005022   0.002808
     5  H    0.000579   0.001003  -0.003001   0.009644  -0.003954   0.000974
     6  N   -0.004094   0.001550  -0.144389  -0.077628   0.016142   0.009007
     7  C    0.455438  -0.057161  -0.010356  -0.006877   0.003686  -0.000398
     8  H   -0.021078  -0.000563   0.001865   0.000676   0.000454   0.000522
     9  C   -0.045121   0.488626   0.022169   0.009104  -0.000485   0.000818
    10  H   -0.000279  -0.011323  -0.000720  -0.000888   0.000128  -0.000031
    11  C   -0.001904   0.000882  -0.075270   0.408432  -0.081424  -0.046516
    12  H    0.001523  -0.000103  -0.027445   0.002957  -0.003164   0.000305
    13  H    0.498604  -0.009622  -0.001143  -0.000107   0.000011  -0.000061
    14  H   -0.009622   0.498180   0.000354   0.000082   0.000002   0.000016
    15  C   -0.001143   0.000354   5.645834  -0.029885   0.441845   0.435465
    16  O   -0.000107   0.000082  -0.029885   7.987432  -0.009836  -0.011977
    17  H    0.000011   0.000002   0.441845  -0.009836   0.489899  -0.024263
    18  H   -0.000061   0.000016   0.435465  -0.011977  -0.024263   0.494506
    19  H    0.000076   0.000029   0.392393   0.008275  -0.029179  -0.031491
              19
     1  C    0.034575
     2  C   -0.012907
     3  C   -0.006758
     4  C   -0.006031
     5  H   -0.000578
     6  N   -0.001214
     7  C   -0.000756
     8  H   -0.002002
     9  C   -0.000399
    10  H    0.000010
    11  C   -0.045837
    12  H    0.000306
    13  H    0.000076
    14  H    0.000029
    15  C    0.392393
    16  O    0.008275
    17  H   -0.029179
    18  H   -0.031491
    19  H    0.548941
 Mulliken charges:
               1
     1  C    0.183418
     2  C    0.131143
     3  C   -0.474308
     4  C   -0.306859
     5  H    0.182168
     6  N   -0.188742
     7  C   -0.182163
     8  H    0.141157
     9  C   -0.321414
    10  H    0.207560
    11  C    0.122261
    12  H    0.330572
    13  H    0.201038
    14  H    0.169249
    15  C   -0.478551
    16  O   -0.259776
    17  H    0.203909
    18  H    0.186788
    19  H    0.152549
 Sum of Mulliken charges =  -0.00000
 Mulliken charges with hydrogens summed into heavy atoms:
               1
     1  C    0.183418
     2  C    0.313311
     3  C   -0.333151
     4  C   -0.099299
     6  N    0.141830
     7  C    0.018875
     9  C   -0.152165
    11  C    0.122261
    15  C    0.064695
    16  O   -0.259776
 Electronic spatial extent (au):  <R**2>=           1646.9137
 Charge=             -0.0000 electrons
 Dipole moment (field-independent basis, Debye):
    X=             -0.2587    Y=             -3.0782    Z=              1.4156  Tot=              3.3979
 Quadrupole moment (field-independent basis, Debye-Ang):
   XX=            -55.0435   YY=            -54.8638   ZZ=            -61.5727
   XY=             -7.5697   XZ=              3.2074   YZ=              4.2597
 Traceless Quadrupole moment (field-independent basis, Debye-Ang):
   XX=              2.1166   YY=              2.2962   ZZ=             -4.4127
   XY=             -7.5697   XZ=              3.2074   YZ=              4.2597
 Octapole moment (field-independent basis, Debye-Ang**2):
  XXX=              2.2963  YYY=             -5.9414  ZZZ=              0.1116  XYY=             -6.1415
  XXY=            -20.0193  XXZ=             15.3720  XZZ=             12.2631  YZZ=             -1.9507
  YYZ=             -0.3017  XYZ=              3.3005
 Hexadecapole moment (field-independent basis, Debye-Ang**3):
 XXXX=          -1568.3668 YYYY=           -353.0288 ZZZZ=           -147.4686 XXXY=            -43.2874
 XXXZ=             10.9576 YYYX=            -13.4919 YYYZ=             12.2548 ZZZX=              5.1298
 ZZZY=              0.8671 XXYY=           -339.1854 XXZZ=           -314.0728 YYZZ=            -90.5034
 XXYZ=             18.5118 YYXZ=              0.5124 ZZXY=             -3.3717
 N-N= 4.910333127968D+02 E-N=-2.008340138082D+03  KE= 4.400422260962D+02
 No NMR shielding tensors so no spin-rotation constants.
 Leave Link  601 at Tue Nov 22 19:12:11 2022, MaxMem= 16106127360 cpu:               3.8 elap:               0.1
 (Enter /opt/ap/G16/B01/g16/l9999.exe)
 1\1\GINC-N41\SP\RwB97XD\6-311++G(d,p)\C8H9N1O1\ROOT\22-Nov-2022\0\\#P 
 wB97XD/6-311++G(d,p) scf=maxcycle=512\\_conf023.gjf nmol_natom 1_19\\0
 ,1\C\C,1,1.39447505\C,1,1.39873503,2,119.56697224\C,2,1.39066123,1,119
 .42697207,3,2.53915756,0\H,2,0.96213008,1,119.8046163,3,-177.79870417,
 0\N,1,1.41693372,2,123.72220125,4,-177.74604849,0\C,3,1.38667133,1,120
 .18759987,2,-2.5020857,0\H,3,0.95673174,1,118.82085988,2,177.96737168,
 0\C,4,1.38268572,2,121.03929493,1,-0.41221113,0\H,4,0.9858595,2,118.57
 91267,1,178.77373233,0\C,6,1.35500692,1,127.62132737,2,17.57862687,0\H
 ,6,0.89609466,1,115.10511997,2,-166.41127095,0\H,7,0.98847198,3,119.08
 117704,1,-179.64585354,0\H,9,0.98451201,4,120.53755637,2,177.22743544,
 0\C,11,1.50274561,6,115.46861532,1,115.,0\O,11,1.23496495,6,123.150998
 88,1,-65.,0\H,15,0.98719837,11,107.47091875,6,-116.36962839,0\H,15,0.9
 9976021,11,109.69443261,6,128.85346087,0\H,15,0.97696155,11,114.370088
 71,6,6.05302844,0\\Version=ES64L-G16RevB.01\State=1-A\HF=-440.1182935\
 RMSD=2.797e-09\Dipole=0.4981521,0.7232071,-1.0079446\Quadrupole=-2.074
 3294,-3.3371959,5.4115253,-4.1069357,4.0018997,0.4712341\PG=C01 [X(C8H
 9N1O1)]\\@


 I CLAIM NOT TO HAVE CONTROLLED EVENTS,
 BUT CONFESS PLAINLY THAT EVENTS HAVE CONTROLLED ME.

                                         A. LINCOLN
 Job cpu time:       0 days  0 hours 11 minutes 16.9 seconds.
 Elapsed time:       0 days  0 hours  0 minutes 21.3 seconds.
 File lengths (MBytes):  RWF=     46 Int=      0 D2E=      0 Chk=      6 Scr=      1
 Normal termination of Gaussian 16 at Tue Nov 22 19:12:11 2022.
