 Entering Gaussian System, Link 0=g16
 Input=_conf057.gjf
 Output=_conf057.log
 Initial command:
 /opt/ap/G16/B01/g16/l1.exe "/tmp2/scr/Gau-8227.inp" -scrdir="/tmp2/scr/"
 Entering Link 1 = /opt/ap/G16/B01/g16/l1.exe PID=      8228.
  
 Copyright (c) 1988-2017, Gaussian, Inc.  All Rights Reserved.
  
 This is part of the Gaussian(R) 16 program.  It is based on
 the Gaussian(R) 09 system (copyright 2009, Gaussian, Inc.),
 the Gaussian(R) 03 system (copyright 2003, Gaussian, Inc.),
 the Gaussian(R) 98 system (copyright 1998, Gaussian, Inc.),
 the Gaussian(R) 94 system (copyright 1995, Gaussian, Inc.),
 the Gaussian 92(TM) system (copyright 1992, Gaussian, Inc.),
 the Gaussian 90(TM) system (copyright 1990, Gaussian, Inc.),
 the Gaussian 88(TM) system (copyright 1988, Gaussian, Inc.),
 the Gaussian 86(TM) system (copyright 1986, Carnegie Mellon
 University), and the Gaussian 82(TM) system (copyright 1983,
 Carnegie Mellon University). Gaussian is a federally registered
 trademark of Gaussian, Inc.
  
 This software contains proprietary and confidential information,
 including trade secrets, belonging to Gaussian, Inc.
  
 This software is provided under written license and may be
 used, copied, transmitted, or stored only in accord with that
 written license.
  
 The following legend is applicable only to US Government
 contracts under FAR:
  
                    RESTRICTED RIGHTS LEGEND
  
 Use, reproduction and disclosure by the US Government is
 subject to restrictions as set forth in subparagraphs (a)
 and (c) of the Commercial Computer Software - Restricted
 Rights clause in FAR 52.227-19.
  
 Gaussian, Inc.
 340 Quinnipiac St., Bldg. 40, Wallingford CT 06492
  
  
 ---------------------------------------------------------------
 Warning -- This program may not be used in any manner that
 competes with the business of Gaussian, Inc. or will provide
 assistance to any competitor of Gaussian, Inc.  The licensee
 of this program is prohibited from giving any competitor of
 Gaussian, Inc. access to this program.  By using this program,
 the user acknowledges that Gaussian, Inc. is engaged in the
 business of creating and licensing software in the field of
 computational chemistry and represents and warrants to the
 licensee that it is not a competitor of Gaussian, Inc. and that
 it will not use this program in any manner prohibited above.
 ---------------------------------------------------------------
  

 Cite this work as:
 Gaussian 16, Revision B.01,
 M. J. Frisch, G. W. Trucks, H. B. Schlegel, G. E. Scuseria, 
 M. A. Robb, J. R. Cheeseman, G. Scalmani, V. Barone, 
 G. A. Petersson, H. Nakatsuji, X. Li, M. Caricato, A. V. Marenich, 
 J. Bloino, B. G. Janesko, R. Gomperts, B. Mennucci, H. P. Hratchian, 
 J. V. Ortiz, A. F. Izmaylov, J. L. Sonnenberg, D. Williams-Young, 
 F. Ding, F. Lipparini, F. Egidi, J. Goings, B. Peng, A. Petrone, 
 T. Henderson, D. Ranasinghe, V. G. Zakrzewski, J. Gao, N. Rega, 
 G. Zheng, W. Liang, M. Hada, M. Ehara, K. Toyota, R. Fukuda, 
 J. Hasegawa, M. Ishida, T. Nakajima, Y. Honda, O. Kitao, H. Nakai, 
 T. Vreven, K. Throssell, J. A. Montgomery, Jr., J. E. Peralta, 
 F. Ogliaro, M. J. Bearpark, J. J. Heyd, E. N. Brothers, K. N. Kudin, 
 V. N. Staroverov, T. A. Keith, R. Kobayashi, J. Normand, 
 K. Raghavachari, A. P. Rendell, J. C. Burant, S. S. Iyengar, 
 J. Tomasi, M. Cossi, J. M. Millam, M. Klene, C. Adamo, R. Cammi, 
 J. W. Ochterski, R. L. Martin, K. Morokuma, O. Farkas, 
 J. B. Foresman, and D. J. Fox, Gaussian, Inc., Wallingford CT, 2016.
 
 ******************************************
 Gaussian 16:  ES64L-G16RevB.01 20-Dec-2017
                22-Nov-2022 
 ******************************************
 %nprocshared=32
 Will use up to   32 processors via shared memory.
 %mem=120GB
 %chk=_conf057.chk
 ----------------------------------------
 #P wB97XD/6-311++G(d,p) scf=maxcycle=512
 ----------------------------------------
 1/38=1,172=1/1;
 2/12=2,17=6,18=5,40=1/2;
 3/5=4,6=6,7=1111,11=2,25=1,30=1,74=-58/1,2,3;
 4//1;
 5/5=2,7=512,38=5/2;
 6/7=2,8=2,9=2,10=2,28=1/1;
 99/5=1,9=1/99;
 Leave Link    1 at Tue Nov 22 19:14:47 2022, MaxMem= 16106127360 cpu:               1.9 elap:               0.1
 (Enter /opt/ap/G16/B01/g16/l101.exe)
 ----------------------------
 _conf057.gjf nmol_natom 1_19
 ----------------------------
 Symbolic Z-matrix:
 Charge =  0 Multiplicity = 1
 C
 C                    1     1.39448 
 C                    1     1.39874  2     119.56697 
 C                    2     1.39066  1     119.42697  3     2.53916  0
 H                    2     0.96213  1     119.80462  3    -177.7987  0
 N                    1     1.41693  2     123.7222  4    -177.74605  0
 C                    3     1.38667  1     120.1876  2    -2.50209  0
 H                    3     0.95673  1     118.82086  2     177.96737  0
 C                    4     1.38269  2     121.03929  1    -0.41221  0
 H                    4     0.98586  2     118.57913  1     178.77373  0
 C                    6     1.35501  1     127.62133  2     17.57863  0
 H                    6     0.89609  1     115.10512  2    -166.41127  0
 H                    7     0.98847  3     119.08118  1    -179.64585  0
 H                    9     0.98451  4     120.53756  2     177.22744  0
 C                    11    1.50275  6     115.46862  1    -75.      0
 O                    11    1.23496  6     123.151  1     105.     0
 H                    15    0.9872   11    107.47092  6    -116.36963  0
 H                    15    0.99976  11    109.69443  6     128.85346  0
 H                    15    0.97696  11    114.37009  6     6.05303  0
 
 ITRead=  0  0  0  0  0  0  0  0  0  0  0  0  0  0  0  0  0  0  0
 MicOpt= -1 -1 -1 -1 -1 -1 -1 -1 -1 -1 -1 -1 -1 -1 -1 -1 -1 -1 -1
 NAtoms=     19 NQM=       19 NQMF=       0 NMMI=      0 NMMIF=      0
                NMic=       0 NMicF=      0.
                    Isotopes and Nuclear Properties:
 (Nuclear quadrupole moments (NQMom) in fm**2, nuclear magnetic moments (NMagM)
  in nuclear magnetons)

  Atom         1           2           3           4           5           6           7           8           9          10
 IAtWgt=          12          12          12          12           1          14          12           1          12           1
 AtmWgt=  12.0000000  12.0000000  12.0000000  12.0000000   1.0078250  14.0030740  12.0000000   1.0078250  12.0000000   1.0078250
 NucSpn=           0           0           0           0           1           2           0           1           0           1
 AtZEff=  -0.0000000  -0.0000000  -0.0000000  -0.0000000  -0.0000000  -0.0000000  -0.0000000  -0.0000000  -0.0000000  -0.0000000
 NQMom=    0.0000000   0.0000000   0.0000000   0.0000000   0.0000000   2.0440000   0.0000000   0.0000000   0.0000000   0.0000000
 NMagM=    0.0000000   0.0000000   0.0000000   0.0000000   2.7928460   0.4037610   0.0000000   2.7928460   0.0000000   2.7928460
 AtZNuc=   6.0000000   6.0000000   6.0000000   6.0000000   1.0000000   7.0000000   6.0000000   1.0000000   6.0000000   1.0000000

  Atom        11          12          13          14          15          16          17          18          19
 IAtWgt=          12           1           1           1          12          16           1           1           1
 AtmWgt=  12.0000000   1.0078250   1.0078250   1.0078250  12.0000000  15.9949146   1.0078250   1.0078250   1.0078250
 NucSpn=           0           1           1           1           0           0           1           1           1
 AtZEff=  -0.0000000  -0.0000000  -0.0000000  -0.0000000  -0.0000000  -0.0000000  -0.0000000  -0.0000000  -0.0000000
 NQMom=    0.0000000   0.0000000   0.0000000   0.0000000   0.0000000   0.0000000   0.0000000   0.0000000   0.0000000
 NMagM=    0.0000000   2.7928460   2.7928460   2.7928460   0.0000000   0.0000000   2.7928460   2.7928460   2.7928460
 AtZNuc=   6.0000000   1.0000000   1.0000000   1.0000000   6.0000000   8.0000000   1.0000000   1.0000000   1.0000000
 Leave Link  101 at Tue Nov 22 19:14:48 2022, MaxMem= 16106127360 cpu:               5.2 elap:               0.2
 (Enter /opt/ap/G16/B01/g16/l202.exe)
                          Input orientation:                          
 ---------------------------------------------------------------------
 Center     Atomic      Atomic             Coordinates (Angstroms)
 Number     Number       Type             X           Y           Z
 ---------------------------------------------------------------------
      1          6           0        0.000000    0.000000    0.000000
      2          6           0        0.000000    0.000000    1.394475
      3          6           0        1.216591    0.000000   -0.690193
      4          6           0        1.210053    0.053661    2.077726
      5          1           0       -0.834249   -0.032067    1.872696
      6          7           0       -1.178505   -0.005866   -0.786634
      7          6           0        2.413939    0.052326    0.007287
      8          1           0        1.204393   -0.029731   -1.646384
      9          6           0        2.412261    0.098442    1.396177
     10          1           0        1.194755    0.071528    3.063305
     11          6           0       -2.436085    0.312014   -0.394861
     12          1           0       -1.055905   -0.195907   -1.653721
     13          1           0        3.263999    0.056828   -0.497149
     14          1           0        3.262484    0.177260    1.886251
     15          6           0       -3.131772   -0.721429    0.445531
     16          8           0       -2.989746    1.373570   -0.697677
     17          1           0       -3.915122   -1.039513   -0.064120
     18          1           0       -3.496608   -0.293539    1.272166
     19          1           0       -2.569494   -1.478447    0.700917
 ---------------------------------------------------------------------
                    Distance matrix (angstroms):
                    1          2          3          4          5
     1  C    0.000000
     2  C    1.394475   0.000000
     3  C    1.398735   2.413697   0.000000
     4  C    2.405006   1.390661   2.768447   0.000000
     5  H    2.050363   0.962130   3.282586   2.056345   0.000000
     6  N    1.416934   2.479142   2.397044   3.730055   2.681648
     7  C    2.414517   2.784624   1.386671   2.395008   3.746678
     8  H    2.040105   3.270821   0.956732   3.725048   4.066939
     9  C    2.788908   2.414270   2.406711   1.382686   3.283889
    10  H    3.288829   2.053668   3.754243   0.985860   2.354812
    11  C    2.487525   3.038682   3.677855   4.413021   2.797515
    12  H    1.971829   3.231844   2.476087   4.372705   3.537173
    13  H    3.302132   3.772951   2.057273   3.293734   4.734944
    14  H    3.772687   3.304099   3.294718   2.065046   4.102100
    15  C    3.244526   3.350962   4.551767   4.702793   2.791170
    16  O    3.363336   3.899023   4.424932   5.204165   3.637142
    17  H    4.051282   4.305377   5.273238   5.661268   3.775975
    18  H    3.732404   3.511039   5.113831   4.787706   2.741744
    19  H    3.046209   3.044524   4.295979   4.304408   2.544829
                    6          7          8          9         10
     6  N    0.000000
     7  C    3.679585   0.000000
     8  H    2.533365   2.050454   0.000000
     9  C    4.203468   1.389657   3.276058   0.000000
    10  H    4.523316   3.290292   4.710788   2.064548   0.000000
    11  C    1.355007   4.873592   3.864736   5.172997   5.019935
    12  H    0.896095   3.854917   2.266411   4.627818   5.233291
    13  H    4.452366   0.988472   2.360129   2.076505   4.118108
    14  H    5.186544   2.065465   4.093666   0.984512   2.381625
    15  C    2.417750   5.616552   4.863834   5.684384   5.118628
    16  O    2.278455   5.607359   4.523285   5.932273   5.774977
    17  H    3.013226   6.422946   5.452766   6.592662   6.093115
    18  H    3.113683   6.054264   5.539580   5.923155   5.034913
    19  H    2.513196   5.259182   4.674487   5.271418   4.706684
                   11         12         13         14         15
    11  C    0.000000
    12  H    1.935874   0.000000
    13  H    5.706710   4.479186   0.000000
    14  H    6.139652   5.596351   2.386441   0.000000
    15  C    1.502746   2.998709   6.511544   6.615877   0.000000
    16  O    1.234965   2.667775   6.394009   6.870097   2.390840
    17  H    2.030657   3.378406   7.275250   7.536745   0.987198
    18  H    2.066491   3.811480   6.997073   6.803241   0.999760
    19  H    2.103397   3.078990   6.149965   6.177245   0.976962
                   16         17         18         19
    16  O    0.000000
    17  H    2.660956   0.000000
    18  H    2.629913   1.586598   0.000000
    19  H    3.204166   1.608931   1.609308   0.000000
 Stoichiometry    C8H9NO
 Framework group  C1[X(C8H9NO)]
 Deg. of freedom    51
 Full point group                 C1      NOp   1
 Largest Abelian subgroup         C1      NOp   1
 Largest concise Abelian subgroup C1      NOp   1
                         Standard orientation:                         
 ---------------------------------------------------------------------
 Center     Atomic      Atomic             Coordinates (Angstroms)
 Number     Number       Type             X           Y           Z
 ---------------------------------------------------------------------
      1          6           0       -0.279731   -0.319166   -0.146237
      2          6           0       -0.600377    1.013647    0.109410
      3          6           0       -1.304188   -1.261973   -0.280635
      4          6           0       -1.932327    1.375427    0.279597
      5          1           0        0.099815    1.670639    0.170952
      6          7           0        1.047053   -0.795692   -0.288598
      7          6           0       -2.627103   -0.883398   -0.109069
      8          1           0       -1.073543   -2.167700   -0.485080
      9          6           0       -2.943150    0.436178    0.190899
     10          1           0       -2.143422    2.317773    0.477946
     11          6           0        2.191591   -0.185717    0.103842
     12          1           0        1.120267   -1.618804   -0.635169
     13          1           0       -3.337649   -1.564169   -0.202617
     14          1           0       -3.879822    0.692542    0.352727
     15          6           0        2.637213    0.965210   -0.753498
     16          8           0        2.838399   -0.537135    1.095448
     17          1           0        3.504621    0.717586   -1.154554
     18          1           0        2.817560    1.763274   -0.178965
     19          1           0        2.004042    1.214540   -1.454485
 ---------------------------------------------------------------------
 Rotational constants (GHZ):           3.3669581           0.7955683           0.7055245
 Leave Link  202 at Tue Nov 22 19:14:48 2022, MaxMem= 16106127360 cpu:               0.7 elap:               0.0
 (Enter /opt/ap/G16/B01/g16/l301.exe)
 Standard basis: 6-311++G(d,p) (5D, 7F)
 Ernie: Thresh=  0.10000D-02 Tol=  0.10000D-05 Strict=F.
 There are   293 symmetry adapted cartesian basis functions of A   symmetry.
 There are   283 symmetry adapted basis functions of A   symmetry.
   283 basis functions,   441 primitive gaussians,   293 cartesian basis functions
    36 alpha electrons       36 beta electrons
       nuclear repulsion energy       492.0332900633 Hartrees.
 IExCor= 4639 DFT=T Ex+Corr=wB97XD ExCW=0 ScaHFX=  1.000000
 ScaDFX=  1.000000  1.000000  1.000000  1.000000 ScalE2=  1.000000  1.000000
 IRadAn=      5 IRanWt=     -1 IRanGd=            0 ICorTp=0 IEmpDi=121
 HFx  wShort=  0.000000 wLong=  0.200000 cFull=  0.222036 cShort=  0.000000 cLong=  0.777964
 DFx  wShort=  0.000000 wLong=  0.200000 cFull=  0.000000 cShort=  0.000000 cLong=  1.000000
 NAtoms=   19 NActive=   19 NUniq=   19 SFac= 1.00D+00 NAtFMM=   60 NAOKFM=F Big=F
 Integral buffers will be    131072 words long.
 Raffenetti 2 integral format.
 Two-electron integral symmetry is turned on.
 R6Disp:  Grimme-D2 Dispersion energy=       -0.0099768443 Hartrees.
 Nuclear repulsion after empirical dispersion term =      492.0233132190 Hartrees.
 Leave Link  301 at Tue Nov 22 19:14:48 2022, MaxMem= 16106127360 cpu:               1.3 elap:               0.0
 (Enter /opt/ap/G16/B01/g16/l302.exe)
 NPDir=0 NMtPBC=     1 NCelOv=     1 NCel=       1 NClECP=     1 NCelD=      1
         NCelK=      1 NCelE2=     1 NClLst=     1 CellRange=     0.0.
 One-electron integrals computed using PRISM.
 One-electron integral symmetry used in STVInt
 NBasis=   283 RedAO= T EigKep=  2.35D-06  NBF=   283
 NBsUse=   282 1.00D-06 EigRej=  7.46D-07 NBFU=   282
 Precomputing XC quadrature grid using
 IXCGrd= 4 IRadAn=           5 IRanWt=          -1 IRanGd=           0 AccXCQ= 0.00D+00.
 Generated NRdTot=       0 NPtTot=           0 NUsed=           0 NTot=          32
 NSgBfM=   293   293   293   293   293 MxSgAt=    19 MxSgA2=    19.
 Leave Link  302 at Tue Nov 22 19:14:48 2022, MaxMem= 16106127360 cpu:               6.3 elap:               0.2
 (Enter /opt/ap/G16/B01/g16/l303.exe)
 DipDrv:  MaxL=1.
 Leave Link  303 at Tue Nov 22 19:14:48 2022, MaxMem= 16106127360 cpu:               1.4 elap:               0.0
 (Enter /opt/ap/G16/B01/g16/l401.exe)
 ExpMin= 3.60D-02 ExpMax= 8.59D+03 ExpMxC= 1.30D+03 IAcc=3 IRadAn=         5 AccDes= 0.00D+00
 Harris functional with IExCor= 4639 and IRadAn=       5 diagonalized for initial guess.
 HarFok:  IExCor= 4639 AccDes= 0.00D+00 IRadAn=         5 IDoV= 1 UseB2=F ITyADJ=14
 ICtDFT=  3500011 ScaDFX=  1.000000  1.000000  1.000000  1.000000
 FoFCou: FMM=F IPFlag=           0 FMFlag=      100000 FMFlg1=           0
         NFxFlg=           0 DoJE=T BraDBF=F KetDBF=T FulRan=T
         wScrn=  0.000000 ICntrl=       500 IOpCl=  0 I1Cent=   200000004 NGrid=           0
         NMat0=    1 NMatS0=      1 NMatT0=    0 NMatD0=    1 NMtDS0=    0 NMtDT0=    0
 Petite list used in FoFCou.
 Harris En= -420.963034386822    
 JPrj=0 DoOrth=F DoCkMO=F.
 Leave Link  401 at Tue Nov 22 19:14:48 2022, MaxMem= 16106127360 cpu:              15.4 elap:               0.5
 (Enter /opt/ap/G16/B01/g16/l502.exe)
 Integral symmetry usage will be decided dynamically.
 Closed shell SCF:
 Using DIIS extrapolation, IDIIS=  1040.
 NGot= 16106127360 LenX= 16105943385 LenY= 16105857095
 Requested convergence on RMS density matrix=1.00D-08 within 512 cycles.
 Requested convergence on MAX density matrix=1.00D-06.
 Requested convergence on             energy=1.00D-06.
 No special actions if energy rises.
 Fock matrices will be formed incrementally for  20 cycles.

 Cycle   1  Pass 1  IDiag  1:
 FoFJK:  IHMeth= 1 ICntrl=       0 DoSepK=T KAlg= 0 I1Cent=           0 FoldK=F
 IRaf=         1 NMat=       1 IRICut=       1 DoRegI=T DoRafI=F ISym2E= 0 IDoP0=0 IntGTp=1.
 FoFCou: FMM=F IPFlag=           0 FMFlag=      100000 FMFlg1=           0
         NFxFlg=           0 DoJE=T BraDBF=F KetDBF=F FulRan=T
         wScrn=  0.000000 ICntrl=       500 IOpCl=  0 I1Cent=           0 NGrid=           0
         NMat0=    1 NMatS0=      1 NMatT0=    0 NMatD0=    1 NMtDS0=    0 NMtDT0=    0
 Symmetry not used in FoFCou.
 E= -439.948373973984    
 DIIS: error= 5.82D-02 at cycle   1 NSaved=   1.
 NSaved= 1 IEnMin= 1 EnMin= -439.948373973984     IErMin= 1 ErrMin= 5.82D-02
 ErrMax= 5.82D-02  0.00D+00 EMaxC= 1.00D-01 BMatC= 9.55D-01 BMatP= 9.55D-01
 IDIUse=3 WtCom= 4.18D-01 WtEn= 5.82D-01
 Coeff-Com:  0.100D+01
 Coeff-En:   0.100D+01
 Coeff:      0.100D+01
 Gap=     0.429 Goal=   None    Shift=    0.000
 GapD=    0.429 DampG=2.000 DampE=0.500 DampFc=1.0000 IDamp=-1.
 RMSDP=9.56D-03 MaxDP=4.63D-01              OVMax= 1.69D-01

 Cycle   2  Pass 1  IDiag  1:
 RMSU=  6.94D-03    CP:  7.87D-01
 E= -440.032861042114     Delta-E=       -0.084487068131 Rises=F Damp=F
 DIIS: error= 1.18D-02 at cycle   2 NSaved=   2.
 NSaved= 2 IEnMin= 2 EnMin= -440.032861042114     IErMin= 2 ErrMin= 1.18D-02
 ErrMax= 1.18D-02  0.00D+00 EMaxC= 1.00D-01 BMatC= 9.03D-02 BMatP= 9.55D-01
 IDIUse=3 WtCom= 8.82D-01 WtEn= 1.18D-01
 Coeff-Com:  0.166D+00 0.834D+00
 Coeff-En:   0.240D+00 0.760D+00
 Coeff:      0.175D+00 0.825D+00
 Gap=     0.405 Goal=   None    Shift=    0.000
 RMSDP=4.99D-03 MaxDP=1.87D-01 DE=-8.45D-02 OVMax= 1.28D-01

 Cycle   3  Pass 1  IDiag  1:
 RMSU=  4.18D-03    CP:  7.55D-01  6.34D-01
 E= -440.078729086093     Delta-E=       -0.045868043979 Rises=F Damp=F
 DIIS: error= 1.04D-02 at cycle   3 NSaved=   3.
 NSaved= 3 IEnMin= 3 EnMin= -440.078729086093     IErMin= 3 ErrMin= 1.04D-02
 ErrMax= 1.04D-02  0.00D+00 EMaxC= 1.00D-01 BMatC= 3.68D-02 BMatP= 9.03D-02
 IDIUse=3 WtCom= 8.96D-01 WtEn= 1.04D-01
 Coeff-Com:  0.239D-01 0.395D+00 0.581D+00
 Coeff-En:   0.000D+00 0.284D+00 0.716D+00
 Coeff:      0.214D-01 0.383D+00 0.595D+00
 Gap=     0.355 Goal=   None    Shift=    0.000
 RMSDP=2.28D-03 MaxDP=1.22D-01 DE=-4.59D-02 OVMax= 7.39D-02

 Cycle   4  Pass 1  IDiag  1:
 RMSU=  1.15D-03    CP:  7.31D-01  7.70D-01  6.27D-01
 E= -440.111896870763     Delta-E=       -0.033167784670 Rises=F Damp=F
 DIIS: error= 2.76D-03 at cycle   4 NSaved=   4.
 NSaved= 4 IEnMin= 4 EnMin= -440.111896870763     IErMin= 4 ErrMin= 2.76D-03
 ErrMax= 2.76D-03  0.00D+00 EMaxC= 1.00D-01 BMatC= 9.42D-04 BMatP= 3.68D-02
 IDIUse=3 WtCom= 9.72D-01 WtEn= 2.76D-02
 Coeff-Com:  0.791D-02 0.158D+00 0.273D+00 0.561D+00
 Coeff-En:   0.000D+00 0.000D+00 0.000D+00 0.100D+01
 Coeff:      0.770D-02 0.154D+00 0.265D+00 0.573D+00
 Gap=     0.322 Goal=   None    Shift=    0.000
 RMSDP=3.02D-04 MaxDP=1.66D-02 DE=-3.32D-02 OVMax= 8.67D-03

 Cycle   5  Pass 1  IDiag  1:
 RMSU=  1.88D-04    CP:  7.32D-01  7.72D-01  6.71D-01  8.78D-01
 E= -440.112712403837     Delta-E=       -0.000815533074 Rises=F Damp=F
 DIIS: error= 4.68D-04 at cycle   5 NSaved=   5.
 NSaved= 5 IEnMin= 5 EnMin= -440.112712403837     IErMin= 5 ErrMin= 4.68D-04
 ErrMax= 4.68D-04  0.00D+00 EMaxC= 1.00D-01 BMatC= 3.00D-05 BMatP= 9.42D-04
 IDIUse=3 WtCom= 9.95D-01 WtEn= 4.68D-03
 Coeff-Com: -0.849D-03-0.133D-01-0.911D-02 0.115D+00 0.908D+00
 Coeff-En:   0.000D+00 0.000D+00 0.000D+00 0.000D+00 0.100D+01
 Coeff:     -0.845D-03-0.132D-01-0.907D-02 0.115D+00 0.908D+00
 Gap=     0.323 Goal=   None    Shift=    0.000
 RMSDP=1.22D-04 MaxDP=5.44D-03 DE=-8.16D-04 OVMax= 3.87D-03

 Cycle   6  Pass 1  IDiag  1:
 RMSU=  8.75D-05    CP:  7.32D-01  7.75D-01  6.82D-01  9.30D-01  1.20D+00
 E= -440.112745737093     Delta-E=       -0.000033333256 Rises=F Damp=F
 DIIS: error= 2.55D-04 at cycle   6 NSaved=   6.
 NSaved= 6 IEnMin= 6 EnMin= -440.112745737093     IErMin= 6 ErrMin= 2.55D-04
 ErrMax= 2.55D-04  0.00D+00 EMaxC= 1.00D-01 BMatC= 1.61D-05 BMatP= 3.00D-05
 IDIUse=3 WtCom= 9.97D-01 WtEn= 2.55D-03
 Coeff-Com: -0.125D-02-0.217D-01-0.281D-01 0.183D-01 0.533D+00 0.499D+00
 Coeff-En:   0.000D+00 0.000D+00 0.000D+00 0.000D+00 0.000D+00 0.100D+01
 Coeff:     -0.124D-02-0.216D-01-0.280D-01 0.182D-01 0.532D+00 0.501D+00
 Gap=     0.324 Goal=   None    Shift=    0.000
 RMSDP=4.07D-05 MaxDP=1.46D-03 DE=-3.33D-05 OVMax= 7.88D-04

 Cycle   7  Pass 1  IDiag  1:
 RMSU=  2.60D-05    CP:  7.31D-01  7.73D-01  6.84D-01  9.40D-01  1.31D+00
                    CP:  9.98D-01
 E= -440.112758770234     Delta-E=       -0.000013033141 Rises=F Damp=F
 DIIS: error= 6.75D-05 at cycle   7 NSaved=   7.
 NSaved= 7 IEnMin= 7 EnMin= -440.112758770234     IErMin= 7 ErrMin= 6.75D-05
 ErrMax= 6.75D-05  0.00D+00 EMaxC= 1.00D-01 BMatC= 5.63D-07 BMatP= 1.61D-05
 IDIUse=1 WtCom= 1.00D+00 WtEn= 0.00D+00
 Coeff-Com: -0.251D-03-0.484D-02-0.634D-02-0.125D-01 0.205D-01 0.109D+00
 Coeff-Com:  0.894D+00
 Coeff:     -0.251D-03-0.484D-02-0.634D-02-0.125D-01 0.205D-01 0.109D+00
 Coeff:      0.894D+00
 Gap=     0.324 Goal=   None    Shift=    0.000
 RMSDP=1.88D-05 MaxDP=1.00D-03 DE=-1.30D-05 OVMax= 6.20D-04

 Cycle   8  Pass 1  IDiag  1:
 RMSU=  8.65D-06    CP:  7.31D-01  7.73D-01  6.86D-01  9.42D-01  1.37D+00
                    CP:  1.09D+00  1.21D+00
 E= -440.112759959118     Delta-E=       -0.000001188884 Rises=F Damp=F
 DIIS: error= 1.89D-05 at cycle   8 NSaved=   8.
 NSaved= 8 IEnMin= 8 EnMin= -440.112759959118     IErMin= 8 ErrMin= 1.89D-05
 ErrMax= 1.89D-05  0.00D+00 EMaxC= 1.00D-01 BMatC= 2.11D-07 BMatP= 5.63D-07
 IDIUse=1 WtCom= 1.00D+00 WtEn= 0.00D+00
 Coeff-Com:  0.889D-04 0.121D-02 0.167D-02-0.106D-01-0.891D-01-0.503D-01
 Coeff-Com:  0.440D+00 0.707D+00
 Coeff:      0.889D-04 0.121D-02 0.167D-02-0.106D-01-0.891D-01-0.503D-01
 Coeff:      0.440D+00 0.707D+00
 Gap=     0.324 Goal=   None    Shift=    0.000
 RMSDP=9.13D-06 MaxDP=2.77D-04 DE=-1.19D-06 OVMax= 3.45D-04

 Cycle   9  Pass 1  IDiag  1:
 RMSU=  4.57D-06    CP:  7.31D-01  7.72D-01  6.87D-01  9.41D-01  1.39D+00
                    CP:  1.12D+00  1.37D+00  1.19D+00
 E= -440.112760252727     Delta-E=       -0.000000293609 Rises=F Damp=F
 DIIS: error= 1.35D-05 at cycle   9 NSaved=   9.
 NSaved= 9 IEnMin= 9 EnMin= -440.112760252727     IErMin= 9 ErrMin= 1.35D-05
 ErrMax= 1.35D-05  0.00D+00 EMaxC= 1.00D-01 BMatC= 9.55D-09 BMatP= 2.11D-07
 IDIUse=1 WtCom= 1.00D+00 WtEn= 0.00D+00
 Coeff-Com:  0.528D-04 0.889D-03 0.131D-02-0.810D-03-0.220D-01-0.274D-01
 Coeff-Com:  0.120D-01 0.149D+00 0.887D+00
 Coeff:      0.528D-04 0.889D-03 0.131D-02-0.810D-03-0.220D-01-0.274D-01
 Coeff:      0.120D-01 0.149D+00 0.887D+00
 Gap=     0.324 Goal=   None    Shift=    0.000
 RMSDP=3.93D-06 MaxDP=1.78D-04 DE=-2.94D-07 OVMax= 1.01D-04

 Cycle  10  Pass 1  IDiag  1:
 RMSU=  1.43D-06    CP:  7.31D-01  7.72D-01  6.87D-01  9.39D-01  1.39D+00
                    CP:  1.12D+00  1.40D+00  1.30D+00  1.35D+00
 E= -440.112760275997     Delta-E=       -0.000000023271 Rises=F Damp=F
 DIIS: error= 2.63D-06 at cycle  10 NSaved=  10.
 NSaved=10 IEnMin=10 EnMin= -440.112760275997     IErMin=10 ErrMin= 2.63D-06
 ErrMax= 2.63D-06  0.00D+00 EMaxC= 1.00D-01 BMatC= 1.18D-09 BMatP= 9.55D-09
 IDIUse=1 WtCom= 1.00D+00 WtEn= 0.00D+00
 Coeff-Com:  0.121D-05 0.762D-04 0.162D-03 0.123D-02 0.632D-02-0.135D-03
 Coeff-Com: -0.496D-01-0.658D-01 0.174D+00 0.933D+00
 Coeff:      0.121D-05 0.762D-04 0.162D-03 0.123D-02 0.632D-02-0.135D-03
 Coeff:     -0.496D-01-0.658D-01 0.174D+00 0.933D+00
 Gap=     0.324 Goal=   None    Shift=    0.000
 RMSDP=1.44D-06 MaxDP=5.57D-05 DE=-2.33D-08 OVMax= 4.65D-05

 Cycle  11  Pass 1  IDiag  1:
 RMSU=  4.58D-07    CP:  7.31D-01  7.72D-01  6.88D-01  9.38D-01  1.39D+00
                    CP:  1.12D+00  1.42D+00  1.36D+00  1.51D+00  1.15D+00
 E= -440.112760279461     Delta-E=       -0.000000003464 Rises=F Damp=F
 DIIS: error= 1.22D-06 at cycle  11 NSaved=  11.
 NSaved=11 IEnMin=11 EnMin= -440.112760279461     IErMin=11 ErrMin= 1.22D-06
 ErrMax= 1.22D-06  0.00D+00 EMaxC= 1.00D-01 BMatC= 1.36D-10 BMatP= 1.18D-09
 IDIUse=1 WtCom= 1.00D+00 WtEn= 0.00D+00
 Coeff-Com: -0.423D-05-0.684D-04-0.789D-04 0.341D-03 0.314D-02 0.287D-02
 Coeff-Com: -0.895D-02-0.270D-01-0.685D-01 0.152D+00 0.947D+00
 Coeff:     -0.423D-05-0.684D-04-0.789D-04 0.341D-03 0.314D-02 0.287D-02
 Coeff:     -0.895D-02-0.270D-01-0.685D-01 0.152D+00 0.947D+00
 Gap=     0.324 Goal=   None    Shift=    0.000
 RMSDP=4.29D-07 MaxDP=2.01D-05 DE=-3.46D-09 OVMax= 1.32D-05

 Cycle  12  Pass 1  IDiag  1:
 RMSU=  1.41D-07    CP:  7.31D-01  7.72D-01  6.88D-01  9.38D-01  1.39D+00
                    CP:  1.12D+00  1.42D+00  1.37D+00  1.55D+00  1.27D+00
                    CP:  1.30D+00
 E= -440.112760279852     Delta-E=       -0.000000000391 Rises=F Damp=F
 DIIS: error= 2.97D-07 at cycle  12 NSaved=  12.
 NSaved=12 IEnMin=12 EnMin= -440.112760279852     IErMin=12 ErrMin= 2.97D-07
 ErrMax= 2.97D-07  0.00D+00 EMaxC= 1.00D-01 BMatC= 1.89D-11 BMatP= 1.36D-10
 IDIUse=1 WtCom= 1.00D+00 WtEn= 0.00D+00
 Coeff-Com: -0.919D-06-0.229D-04-0.323D-04-0.759D-04-0.308D-03 0.761D-03
 Coeff-Com:  0.451D-02 0.322D-02-0.367D-01-0.764D-01 0.218D+00 0.887D+00
 Coeff:     -0.919D-06-0.229D-04-0.323D-04-0.759D-04-0.308D-03 0.761D-03
 Coeff:      0.451D-02 0.322D-02-0.367D-01-0.764D-01 0.218D+00 0.887D+00
 Gap=     0.324 Goal=   None    Shift=    0.000
 RMSDP=1.18D-07 MaxDP=7.80D-06 DE=-3.91D-10 OVMax= 4.87D-06

 Cycle  13  Pass 1  IDiag  1:
 RMSU=  5.40D-08    CP:  7.31D-01  7.72D-01  6.88D-01  9.38D-01  1.39D+00
                    CP:  1.12D+00  1.42D+00  1.36D+00  1.55D+00  1.30D+00
                    CP:  1.40D+00  1.13D+00
 E= -440.112760279898     Delta-E=       -0.000000000046 Rises=F Damp=F
 DIIS: error= 1.39D-07 at cycle  13 NSaved=  13.
 NSaved=13 IEnMin=13 EnMin= -440.112760279898     IErMin=13 ErrMin= 1.39D-07
 ErrMax= 1.39D-07  0.00D+00 EMaxC= 1.00D-01 BMatC= 3.00D-12 BMatP= 1.89D-11
 IDIUse=1 WtCom= 1.00D+00 WtEn= 0.00D+00
 Coeff-Com:  0.203D-06 0.139D-05 0.504D-07-0.592D-04-0.490D-03-0.739D-04
 Coeff-Com:  0.225D-02 0.419D-02-0.221D-02-0.392D-01-0.695D-01 0.257D+00
 Coeff-Com:  0.848D+00
 Coeff:      0.203D-06 0.139D-05 0.504D-07-0.592D-04-0.490D-03-0.739D-04
 Coeff:      0.225D-02 0.419D-02-0.221D-02-0.392D-01-0.695D-01 0.257D+00
 Coeff:      0.848D+00
 Gap=     0.324 Goal=   None    Shift=    0.000
 RMSDP=3.94D-08 MaxDP=2.64D-06 DE=-4.58D-11 OVMax= 2.03D-06

 Cycle  14  Pass 1  IDiag  1:
 RMSU=  1.84D-08    CP:  7.31D-01  7.72D-01  6.88D-01  9.38D-01  1.39D+00
                    CP:  1.12D+00  1.42D+00  1.36D+00  1.55D+00  1.31D+00
                    CP:  1.43D+00  1.22D+00  1.15D+00
 E= -440.112760279904     Delta-E=       -0.000000000005 Rises=F Damp=F
 DIIS: error= 5.95D-08 at cycle  14 NSaved=  14.
 NSaved=14 IEnMin=14 EnMin= -440.112760279904     IErMin=14 ErrMin= 5.95D-08
 ErrMax= 5.95D-08  0.00D+00 EMaxC= 1.00D-01 BMatC= 2.70D-13 BMatP= 3.00D-12
 IDIUse=1 WtCom= 1.00D+00 WtEn= 0.00D+00
 Coeff-Com:  0.875D-07 0.194D-05 0.234D-05 0.896D-06-0.314D-04-0.581D-04
 Coeff-Com: -0.196D-03 0.176D-03 0.287D-02 0.325D-02-0.356D-01-0.530D-01
 Coeff-Com:  0.143D+00 0.939D+00
 Coeff:      0.875D-07 0.194D-05 0.234D-05 0.896D-06-0.314D-04-0.581D-04
 Coeff:     -0.196D-03 0.176D-03 0.287D-02 0.325D-02-0.356D-01-0.530D-01
 Coeff:      0.143D+00 0.939D+00
 Gap=     0.324 Goal=   None    Shift=    0.000
 RMSDP=1.52D-08 MaxDP=5.37D-07 DE=-5.46D-12 OVMax= 8.37D-07

 Cycle  15  Pass 1  IDiag  1:
 RMSU=  7.89D-09    CP:  7.31D-01  7.72D-01  6.88D-01  9.38D-01  1.39D+00
                    CP:  1.12D+00  1.42D+00  1.37D+00  1.55D+00  1.31D+00
                    CP:  1.43D+00  1.23D+00  1.23D+00  1.32D+00
 E= -440.112760279906     Delta-E=       -0.000000000003 Rises=F Damp=F
 DIIS: error= 3.05D-08 at cycle  15 NSaved=  15.
 NSaved=15 IEnMin=15 EnMin= -440.112760279906     IErMin=15 ErrMin= 3.05D-08
 ErrMax= 3.05D-08  0.00D+00 EMaxC= 1.00D-01 BMatC= 5.63D-14 BMatP= 2.70D-13
 IDIUse=1 WtCom= 1.00D+00 WtEn= 0.00D+00
 Coeff-Com: -0.678D-08 0.338D-06 0.695D-06 0.987D-05 0.615D-04 0.369D-05
 Coeff-Com: -0.380D-03-0.523D-03 0.933D-03 0.736D-02 0.288D-02-0.526D-01
 Coeff-Com: -0.957D-01 0.224D+00 0.914D+00
 Coeff:     -0.678D-08 0.338D-06 0.695D-06 0.987D-05 0.615D-04 0.369D-05
 Coeff:     -0.380D-03-0.523D-03 0.933D-03 0.736D-02 0.288D-02-0.526D-01
 Coeff:     -0.957D-01 0.224D+00 0.914D+00
 Gap=     0.324 Goal=   None    Shift=    0.000
 RMSDP=6.25D-09 MaxDP=3.40D-07 DE=-2.73D-12 OVMax= 3.82D-07

 SCF Done:  E(RwB97XD) =  -440.112760280     A.U. after   15 cycles
            NFock= 15  Conv=0.62D-08     -V/T= 2.0002
 KE= 4.400432165544D+02 PE=-2.010138699958D+03 EE= 6.379594099051D+02
 Leave Link  502 at Tue Nov 22 19:15:07 2022, MaxMem= 16106127360 cpu:             600.0 elap:              18.8
 (Enter /opt/ap/G16/B01/g16/l601.exe)
 Copying SCF densities to generalized density rwf, IOpCl= 0 IROHF=0.

 **********************************************************************

            Population analysis using the SCF Density.

 **********************************************************************

 Orbital symmetries:
       Occupied  (A) (A) (A) (A) (A) (A) (A) (A) (A) (A) (A) (A)
                 (A) (A) (A) (A) (A) (A) (A) (A) (A) (A) (A) (A)
                 (A) (A) (A) (A) (A) (A) (A) (A) (A) (A) (A) (A)
       Virtual   (A) (A) (A) (A) (A) (A) (A) (A) (A) (A) (A) (A)
                 (A) (A) (A) (A) (A) (A) (A) (A) (A) (A) (A) (A)
                 (A) (A) (A) (A) (A) (A) (A) (A) (A) (A) (A) (A)
                 (A) (A) (A) (A) (A) (A) (A) (A) (A) (A) (A) (A)
                 (A) (A) (A) (A) (A) (A) (A) (A) (A) (A) (A) (A)
                 (A) (A) (A) (A) (A) (A) (A) (A) (A) (A) (A) (A)
                 (A) (A) (A) (A) (A) (A) (A) (A) (A) (A) (A) (A)
                 (A) (A) (A) (A) (A) (A) (A) (A) (A) (A) (A) (A)
                 (A) (A) (A) (A) (A) (A) (A) (A) (A) (A) (A) (A)
                 (A) (A) (A) (A) (A) (A) (A) (A) (A) (A) (A) (A)
                 (A) (A) (A) (A) (A) (A) (A) (A) (A) (A) (A) (A)
                 (A) (A) (A) (A) (A) (A) (A) (A) (A) (A) (A) (A)
                 (A) (A) (A) (A) (A) (A) (A) (A) (A) (A) (A) (A)
                 (A) (A) (A) (A) (A) (A) (A) (A) (A) (A) (A) (A)
                 (A) (A) (A) (A) (A) (A) (A) (A) (A) (A) (A) (A)
                 (A) (A) (A) (A) (A) (A) (A) (A) (A) (A) (A) (A)
                 (A) (A) (A) (A) (A) (A) (A) (A) (A) (A) (A) (A)
                 (A) (A) (A) (A) (A) (A) (A) (A) (A) (A) (A) (A)
                 (A) (A) (A) (A) (A) (A) (A) (A) (A) (A) (A) (A)
                 (A) (A) (A) (A) (A) (A) (A) (A) (A) (A) (A) (A)
                 (A) (A) (A) (A) (A) (A)
 The electronic state is 1-A.
 Alpha  occ. eigenvalues --  -19.24685 -14.44636 -10.41270 -10.34647 -10.28439
 Alpha  occ. eigenvalues --  -10.28390 -10.27916 -10.27787 -10.27293 -10.26073
 Alpha  occ. eigenvalues --   -1.16051  -1.06197  -0.96380  -0.88239  -0.86715
 Alpha  occ. eigenvalues --   -0.85494  -0.75055  -0.73190  -0.69474  -0.65862
 Alpha  occ. eigenvalues --   -0.61331  -0.59497  -0.56122  -0.55838  -0.54336
 Alpha  occ. eigenvalues --   -0.53678  -0.53106  -0.51505  -0.47915  -0.46286
 Alpha  occ. eigenvalues --   -0.44904  -0.44514  -0.39833  -0.36267  -0.34003
 Alpha  occ. eigenvalues --   -0.29474
 Alpha virt. eigenvalues --    0.02898   0.03717   0.04666   0.04769   0.04818
 Alpha virt. eigenvalues --    0.06183   0.06382   0.06772   0.07733   0.08534
 Alpha virt. eigenvalues --    0.09177   0.10898   0.11877   0.12261   0.12681
 Alpha virt. eigenvalues --    0.14207   0.15007   0.15395   0.15766   0.16676
 Alpha virt. eigenvalues --    0.16964   0.17102   0.17578   0.18165   0.18560
 Alpha virt. eigenvalues --    0.18685   0.19176   0.19671   0.20485   0.20610
 Alpha virt. eigenvalues --    0.20982   0.21458   0.21970   0.22904   0.23193
 Alpha virt. eigenvalues --    0.24076   0.25268   0.25602   0.26287   0.26652
 Alpha virt. eigenvalues --    0.27153   0.28144   0.29117   0.29833   0.30062
 Alpha virt. eigenvalues --    0.30686   0.31230   0.31787   0.33130   0.34466
 Alpha virt. eigenvalues --    0.34848   0.35889   0.35944   0.36897   0.38151
 Alpha virt. eigenvalues --    0.38569   0.38938   0.39812   0.40416   0.41145
 Alpha virt. eigenvalues --    0.42023   0.42567   0.43613   0.43851   0.46083
 Alpha virt. eigenvalues --    0.46751   0.49566   0.50686   0.52973   0.55518
 Alpha virt. eigenvalues --    0.57348   0.59064   0.60952   0.61970   0.62816
 Alpha virt. eigenvalues --    0.63325   0.63859   0.64738   0.65909   0.66205
 Alpha virt. eigenvalues --    0.68400   0.68799   0.70592   0.71292   0.72071
 Alpha virt. eigenvalues --    0.73517   0.75404   0.77035   0.78069   0.80007
 Alpha virt. eigenvalues --    0.80840   0.81968   0.82643   0.83389   0.85962
 Alpha virt. eigenvalues --    0.87228   0.88202   0.89476   0.92096   0.92927
 Alpha virt. eigenvalues --    0.94223   0.94624   0.96630   0.97176   0.97655
 Alpha virt. eigenvalues --    0.98516   0.99482   1.01504   1.03967   1.04816
 Alpha virt. eigenvalues --    1.07771   1.07977   1.10966   1.12683   1.15478
 Alpha virt. eigenvalues --    1.16253   1.16774   1.18127   1.22003   1.23144
 Alpha virt. eigenvalues --    1.25845   1.27876   1.32729   1.33898   1.37670
 Alpha virt. eigenvalues --    1.42660   1.45925   1.47981   1.50567   1.55938
 Alpha virt. eigenvalues --    1.59890   1.60353   1.62120   1.63482   1.64753
 Alpha virt. eigenvalues --    1.65441   1.67077   1.67903   1.69237   1.70209
 Alpha virt. eigenvalues --    1.70820   1.74351   1.75649   1.76578   1.78299
 Alpha virt. eigenvalues --    1.79189   1.83241   1.87195   1.88687   1.90751
 Alpha virt. eigenvalues --    1.92573   1.93661   1.97123   1.97904   2.00256
 Alpha virt. eigenvalues --    2.01375   2.01966   2.04454   2.06169   2.07165
 Alpha virt. eigenvalues --    2.08231   2.09917   2.14164   2.15209   2.15728
 Alpha virt. eigenvalues --    2.24490   2.24949   2.25909   2.28822   2.37934
 Alpha virt. eigenvalues --    2.40247   2.43147   2.47325   2.48310   2.51744
 Alpha virt. eigenvalues --    2.53821   2.57361   2.59551   2.62302   2.64178
 Alpha virt. eigenvalues --    2.66320   2.67907   2.72732   2.73465   2.76643
 Alpha virt. eigenvalues --    2.78216   2.81756   2.82271   2.83028   2.84442
 Alpha virt. eigenvalues --    2.88236   2.90387   2.91078   2.92090   2.93864
 Alpha virt. eigenvalues --    2.94337   2.94927   2.98646   2.99268   3.00994
 Alpha virt. eigenvalues --    3.02319   3.03751   3.05399   3.10892   3.13344
 Alpha virt. eigenvalues --    3.19409   3.21243   3.22722   3.27782   3.30517
 Alpha virt. eigenvalues --    3.41685   3.42412   3.47970   3.51187   3.55900
 Alpha virt. eigenvalues --    3.59352   3.62770   3.68852   3.71892   3.90938
 Alpha virt. eigenvalues --    3.96794   4.04514   4.11268   4.13414   4.22710
 Alpha virt. eigenvalues --    4.30771   4.34578   4.38167   4.39584   4.44621
 Alpha virt. eigenvalues --    4.95930   5.13868   5.20049   5.24251   5.31340
 Alpha virt. eigenvalues --    5.84503  23.87014  23.98723  24.14357  24.22688
 Alpha virt. eigenvalues --   24.30441  24.33219  24.38643  24.42797  35.89370
 Alpha virt. eigenvalues --   50.10635
          Condensed to atoms (all electrons):
               1          2          3          4          5          6
     1  C    7.788004  -0.320909  -0.006550  -1.117341  -0.125565  -0.138837
     2  C   -0.320909   9.565976  -2.858570  -1.053295   0.675241   0.088862
     3  C   -0.006550  -2.858570   8.350004   1.157549  -0.111076  -0.156895
     4  C   -1.117341  -1.053295   1.157549   7.004625  -0.135156  -0.010525
     5  H   -0.125565   0.675241  -0.111076  -0.135156   0.564863  -0.010942
     6  N   -0.138837   0.088862  -0.156895  -0.010525  -0.010942   7.209177
     7  C   -0.055368   0.199625   0.098937  -0.320613   0.024731  -0.014180
     8  H   -0.116373  -0.057094   0.525167   0.049688  -0.005409  -0.004982
     9  C   -0.215649   0.006204  -0.595941   0.594951   0.027102   0.052359
    10  H    0.032085  -0.070319   0.035511   0.402297  -0.018128  -0.003985
    11  C    0.250475  -0.461681   0.128596  -0.219330  -0.014747   0.044297
    12  H    0.029482   0.014993  -0.034140  -0.031424   0.004468   0.399359
    13  H    0.044908   0.049541  -0.138866  -0.032442   0.001341  -0.005516
    14  H    0.008504  -0.015610  -0.009672  -0.051308   0.000516   0.001842
    15  C    0.145808  -0.230151   0.118572  -0.006760  -0.007543  -0.239286
    16  O    0.022509  -0.047030   0.032326   0.001069  -0.004632  -0.097328
    17  H   -0.017876   0.011154  -0.002552  -0.012562   0.003237   0.000502
    18  H   -0.000243  -0.021866   0.013549   0.015941  -0.006671   0.008551
    19  H   -0.029270   0.053288  -0.029801  -0.017000  -0.003559   0.014907
               7          8          9         10         11         12
     1  C   -0.055368  -0.116373  -0.215649   0.032085   0.250475   0.029482
     2  C    0.199625  -0.057094   0.006204  -0.070319  -0.461681   0.014993
     3  C    0.098937   0.525167  -0.595941   0.035511   0.128596  -0.034140
     4  C   -0.320613   0.049688   0.594951   0.402297  -0.219330  -0.031424
     5  H    0.024731  -0.005409   0.027102  -0.018128  -0.014747   0.004468
     6  N   -0.014180  -0.004982   0.052359  -0.003985   0.044297   0.399359
     7  C    5.353700  -0.059435   0.561580  -0.005020   0.029069   0.014961
     8  H   -0.059435   0.537525  -0.010865   0.002068   0.008695  -0.002547
     9  C    0.561580  -0.010865   5.525290  -0.065825  -0.007580  -0.000682
    10  H   -0.005020   0.002068  -0.065825   0.492566  -0.000435  -0.000322
    11  C    0.029069   0.008695  -0.007580  -0.000435   5.881028  -0.045387
    12  H    0.014961  -0.002547  -0.000682  -0.000322  -0.045387   0.361657
    13  H    0.442473  -0.018750  -0.027215  -0.000923  -0.001910   0.001626
    14  H   -0.058846  -0.000159   0.476163  -0.011131   0.000475  -0.000293
    15  C    0.004578   0.000925  -0.004577   0.001470   0.036708  -0.029779
    16  O   -0.005651   0.000840  -0.000510   0.000263   0.489516  -0.008353
    17  H    0.004034  -0.000664  -0.000778  -0.000000  -0.002453  -0.000642
    18  H   -0.002210   0.000911  -0.000786   0.000650  -0.080641  -0.005256
    19  H    0.002926  -0.000658   0.001563  -0.000432  -0.080371   0.003776
              13         14         15         16         17         18
     1  C    0.044908   0.008504   0.145808   0.022509  -0.017876  -0.000243
     2  C    0.049541  -0.015610  -0.230151  -0.047030   0.011154  -0.021866
     3  C   -0.138866  -0.009672   0.118572   0.032326  -0.002552   0.013549
     4  C   -0.032442  -0.051308  -0.006760   0.001069  -0.012562   0.015941
     5  H    0.001341   0.000516  -0.007543  -0.004632   0.003237  -0.006671
     6  N   -0.005516   0.001842  -0.239286  -0.097328   0.000502   0.008551
     7  C    0.442473  -0.058846   0.004578  -0.005651   0.004034  -0.002210
     8  H   -0.018750  -0.000159   0.000925   0.000840  -0.000664   0.000911
     9  C   -0.027215   0.476163  -0.004577  -0.000510  -0.000778  -0.000786
    10  H   -0.000923  -0.011131   0.001470   0.000263  -0.000000   0.000650
    11  C   -0.001910   0.000475   0.036708   0.489516  -0.002453  -0.080641
    12  H    0.001626  -0.000293  -0.029779  -0.008353  -0.000642  -0.005256
    13  H    0.494042  -0.009684  -0.000089  -0.000016   0.000058  -0.000061
    14  H   -0.009684   0.497263  -0.000285   0.000030  -0.000063   0.000019
    15  C   -0.000089  -0.000285   5.509769  -0.076345   0.402465   0.453628
    16  O   -0.000016   0.000030  -0.076345   7.935396  -0.012211  -0.014200
    17  H    0.000058  -0.000063   0.402465  -0.012211   0.476199  -0.017913
    18  H   -0.000061   0.000019   0.453628  -0.014200  -0.017913   0.476037
    19  H    0.000002   0.000070   0.423297   0.005849  -0.026851  -0.033365
              19
     1  C   -0.029270
     2  C    0.053288
     3  C   -0.029801
     4  C   -0.017000
     5  H   -0.003559
     6  N    0.014907
     7  C    0.002926
     8  H   -0.000658
     9  C    0.001563
    10  H   -0.000432
    11  C   -0.080371
    12  H    0.003776
    13  H    0.000002
    14  H    0.000070
    15  C    0.423297
    16  O    0.005849
    17  H   -0.026851
    18  H   -0.033365
    19  H    0.544886
 Mulliken charges:
               1
     1  C   -0.177794
     2  C    0.471639
     3  C   -0.516148
     4  C   -0.218365
     5  H    0.141929
     6  N   -0.137381
     7  C   -0.215293
     8  H    0.151118
     9  C   -0.314804
    10  H    0.209611
    11  C    0.045675
    12  H    0.328502
    13  H    0.201480
    14  H    0.172167
    15  C   -0.502405
    16  O   -0.221520
    17  H    0.196917
    18  H    0.213926
    19  H    0.170744
 Sum of Mulliken charges =  -0.00000
 Mulliken charges with hydrogens summed into heavy atoms:
               1
     1  C   -0.177794
     2  C    0.613568
     3  C   -0.365030
     4  C   -0.008754
     6  N    0.191121
     7  C   -0.013812
     9  C   -0.142637
    11  C    0.045675
    15  C    0.079183
    16  O   -0.221520
 Electronic spatial extent (au):  <R**2>=           1622.6924
 Charge=             -0.0000 electrons
 Dipole moment (field-independent basis, Debye):
    X=             -1.1807    Y=              0.5588    Z=             -2.6510  Tot=              2.9554
 Quadrupole moment (field-independent basis, Debye-Ang):
   XX=            -59.5641   YY=            -51.7667   ZZ=            -63.8950
   XY=              3.3661   XZ=             -8.5745   YZ=              3.8712
 Traceless Quadrupole moment (field-independent basis, Debye-Ang):
   XX=             -1.1555   YY=              6.6419   ZZ=             -5.4864
   XY=              3.3661   XZ=             -8.5745   YZ=              3.8712
 Octapole moment (field-independent basis, Debye-Ang**2):
  XXX=            -20.2653  YYY=             -4.6105  ZZZ=             -2.0052  XYY=              2.1854
  XXY=              7.9847  XXZ=            -20.5847  XZZ=              5.2368  YZZ=              0.6428
  YYZ=             -2.9763  XYZ=              1.9192
 Hexadecapole moment (field-independent basis, Debye-Ang**3):
 XXXX=          -1594.4683 YYYY=           -348.6614 ZZZZ=           -159.5118 XXXY=             31.9838
 XXXZ=            -79.2403 YYYX=             -4.6229 YYYZ=             14.8549 ZZZX=             -4.1082
 ZZZY=             -0.4907 XXYY=           -310.1220 XXZZ=           -328.5479 YYZZ=            -92.5765
 XXYZ=             19.0240 YYXZ=             -5.5738 ZZXY=              3.8810
 N-N= 4.920233132190D+02 E-N=-2.010138700003D+03  KE= 4.400432165544D+02
 No NMR shielding tensors so no spin-rotation constants.
 Leave Link  601 at Tue Nov 22 19:15:07 2022, MaxMem= 16106127360 cpu:               3.6 elap:               0.1
 (Enter /opt/ap/G16/B01/g16/l9999.exe)
 1\1\GINC-N39\SP\RwB97XD\6-311++G(d,p)\C8H9N1O1\ROOT\22-Nov-2022\0\\#P 
 wB97XD/6-311++G(d,p) scf=maxcycle=512\\_conf057.gjf nmol_natom 1_19\\0
 ,1\C\C,1,1.39447505\C,1,1.39873503,2,119.56697224\C,2,1.39066123,1,119
 .42697207,3,2.53915756,0\H,2,0.96213008,1,119.8046163,3,-177.79870417,
 0\N,1,1.41693372,2,123.72220125,4,-177.74604849,0\C,3,1.38667133,1,120
 .18759987,2,-2.5020857,0\H,3,0.95673174,1,118.82085988,2,177.96737168,
 0\C,4,1.38268572,2,121.03929493,1,-0.41221113,0\H,4,0.9858595,2,118.57
 91267,1,178.77373233,0\C,6,1.35500692,1,127.62132737,2,17.57862687,0\H
 ,6,0.89609466,1,115.10511997,2,-166.41127095,0\H,7,0.98847198,3,119.08
 117704,1,-179.64585354,0\H,9,0.98451201,4,120.53755637,2,177.22743544,
 0\C,11,1.50274561,6,115.46861532,1,-75.,0\O,11,1.23496495,6,123.150998
 88,1,105.,0\H,15,0.98719837,11,107.47091875,6,-116.36962839,0\H,15,0.9
 9976021,11,109.69443261,6,128.85346087,0\H,15,0.97696155,11,114.370088
 71,6,6.05302844,0\\Version=ES64L-G16RevB.01\State=1-A\HF=-440.1127603\
 RMSD=6.250e-09\Dipole=0.4073276,-1.0817759,0.1257289\Quadrupole=0.5161
 017,-5.2907325,4.7746308,6.1202246,-2.4914619,2.6219747\PG=C01 [X(C8H9
 N1O1)]\\@


 THE MOST SERIOUS THREAT TO THE SURVIVAL OF MANKIND IS NOT NOW
 IGNORANCE IN THE TRADITIONAL SENSE,
 BUT A MORALLY NEUTRAL, AN INSENSITIVE OR INHIBITED HUMAN INTELLIGENCE.

                     -- MARGO JEFFERSON IN NEWSWEEK, SEPTEMBER 2, 1974
 Job cpu time:       0 days  0 hours 10 minutes 37.5 seconds.
 Elapsed time:       0 days  0 hours  0 minutes 20.0 seconds.
 File lengths (MBytes):  RWF=     46 Int=      0 D2E=      0 Chk=      6 Scr=      1
 Normal termination of Gaussian 16 at Tue Nov 22 19:15:08 2022.
