 Entering Gaussian System, Link 0=g16
 Input=_conf067.gjf
 Output=_conf067.log
 Initial command:
 /opt/ap/G16/B01/g16/l1.exe "/tmp2/scr/Gau-3554.inp" -scrdir="/tmp2/scr/"
 Entering Link 1 = /opt/ap/G16/B01/g16/l1.exe PID=      3555.
  
 Copyright (c) 1988-2017, Gaussian, Inc.  All Rights Reserved.
  
 This is part of the Gaussian(R) 16 program.  It is based on
 the Gaussian(R) 09 system (copyright 2009, Gaussian, Inc.),
 the Gaussian(R) 03 system (copyright 2003, Gaussian, Inc.),
 the Gaussian(R) 98 system (copyright 1998, Gaussian, Inc.),
 the Gaussian(R) 94 system (copyright 1995, Gaussian, Inc.),
 the Gaussian 92(TM) system (copyright 1992, Gaussian, Inc.),
 the Gaussian 90(TM) system (copyright 1990, Gaussian, Inc.),
 the Gaussian 88(TM) system (copyright 1988, Gaussian, Inc.),
 the Gaussian 86(TM) system (copyright 1986, Carnegie Mellon
 University), and the Gaussian 82(TM) system (copyright 1983,
 Carnegie Mellon University). Gaussian is a federally registered
 trademark of Gaussian, Inc.
  
 This software contains proprietary and confidential information,
 including trade secrets, belonging to Gaussian, Inc.
  
 This software is provided under written license and may be
 used, copied, transmitted, or stored only in accord with that
 written license.
  
 The following legend is applicable only to US Government
 contracts under FAR:
  
                    RESTRICTED RIGHTS LEGEND
  
 Use, reproduction and disclosure by the US Government is
 subject to restrictions as set forth in subparagraphs (a)
 and (c) of the Commercial Computer Software - Restricted
 Rights clause in FAR 52.227-19.
  
 Gaussian, Inc.
 340 Quinnipiac St., Bldg. 40, Wallingford CT 06492
  
  
 ---------------------------------------------------------------
 Warning -- This program may not be used in any manner that
 competes with the business of Gaussian, Inc. or will provide
 assistance to any competitor of Gaussian, Inc.  The licensee
 of this program is prohibited from giving any competitor of
 Gaussian, Inc. access to this program.  By using this program,
 the user acknowledges that Gaussian, Inc. is engaged in the
 business of creating and licensing software in the field of
 computational chemistry and represents and warrants to the
 licensee that it is not a competitor of Gaussian, Inc. and that
 it will not use this program in any manner prohibited above.
 ---------------------------------------------------------------
  

 Cite this work as:
 Gaussian 16, Revision B.01,
 M. J. Frisch, G. W. Trucks, H. B. Schlegel, G. E. Scuseria, 
 M. A. Robb, J. R. Cheeseman, G. Scalmani, V. Barone, 
 G. A. Petersson, H. Nakatsuji, X. Li, M. Caricato, A. V. Marenich, 
 J. Bloino, B. G. Janesko, R. Gomperts, B. Mennucci, H. P. Hratchian, 
 J. V. Ortiz, A. F. Izmaylov, J. L. Sonnenberg, D. Williams-Young, 
 F. Ding, F. Lipparini, F. Egidi, J. Goings, B. Peng, A. Petrone, 
 T. Henderson, D. Ranasinghe, V. G. Zakrzewski, J. Gao, N. Rega, 
 G. Zheng, W. Liang, M. Hada, M. Ehara, K. Toyota, R. Fukuda, 
 J. Hasegawa, M. Ishida, T. Nakajima, Y. Honda, O. Kitao, H. Nakai, 
 T. Vreven, K. Throssell, J. A. Montgomery, Jr., J. E. Peralta, 
 F. Ogliaro, M. J. Bearpark, J. J. Heyd, E. N. Brothers, K. N. Kudin, 
 V. N. Staroverov, T. A. Keith, R. Kobayashi, J. Normand, 
 K. Raghavachari, A. P. Rendell, J. C. Burant, S. S. Iyengar, 
 J. Tomasi, M. Cossi, J. M. Millam, M. Klene, C. Adamo, R. Cammi, 
 J. W. Ochterski, R. L. Martin, K. Morokuma, O. Farkas, 
 J. B. Foresman, and D. J. Fox, Gaussian, Inc., Wallingford CT, 2016.
 
 ******************************************
 Gaussian 16:  ES64L-G16RevB.01 20-Dec-2017
                22-Nov-2022 
 ******************************************
 %nprocshared=32
 Will use up to   32 processors via shared memory.
 %mem=120GB
 %chk=_conf067.chk
 ----------------------------------------
 #P wB97XD/6-311++G(d,p) scf=maxcycle=512
 ----------------------------------------
 1/38=1,172=1/1;
 2/12=2,17=6,18=5,40=1/2;
 3/5=4,6=6,7=1111,11=2,25=1,30=1,74=-58/1,2,3;
 4//1;
 5/5=2,7=512,38=5/2;
 6/7=2,8=2,9=2,10=2,28=1/1;
 99/5=1,9=1/99;
 Leave Link    1 at Tue Nov 22 19:15:49 2022, MaxMem= 16106127360 cpu:               1.8 elap:               0.1
 (Enter /opt/ap/G16/B01/g16/l101.exe)
 ----------------------------
 _conf067.gjf nmol_natom 1_19
 ----------------------------
 Symbolic Z-matrix:
 Charge =  0 Multiplicity = 1
 C
 C                    1     1.39448 
 C                    1     1.39874  2     119.56697 
 C                    2     1.39066  1     119.42697  3     2.53916  0
 H                    2     0.96213  1     119.80462  3    -177.7987  0
 N                    1     1.41693  2     123.7222  4    -177.74605  0
 C                    3     1.38667  1     120.1876  2    -2.50209  0
 H                    3     0.95673  1     118.82086  2     177.96737  0
 C                    4     1.38269  2     121.03929  1    -0.41221  0
 H                    4     0.98586  2     118.57913  1     178.77373  0
 C                    6     1.35501  1     127.62133  2     17.57863  0
 H                    6     0.89609  1     115.10512  2    -166.41127  0
 H                    7     0.98847  3     119.08118  1    -179.64585  0
 H                    9     0.98451  4     120.53756  2     177.22744  0
 C                    11    1.50275  6     115.46862  1    -25.      0
 O                    11    1.23496  6     123.151  1     155.     0
 H                    15    0.9872   11    107.47092  6    -116.36963  0
 H                    15    0.99976  11    109.69443  6     128.85346  0
 H                    15    0.97696  11    114.37009  6     6.05303  0
 
 ITRead=  0  0  0  0  0  0  0  0  0  0  0  0  0  0  0  0  0  0  0
 MicOpt= -1 -1 -1 -1 -1 -1 -1 -1 -1 -1 -1 -1 -1 -1 -1 -1 -1 -1 -1
 NAtoms=     19 NQM=       19 NQMF=       0 NMMI=      0 NMMIF=      0
                NMic=       0 NMicF=      0.
                    Isotopes and Nuclear Properties:
 (Nuclear quadrupole moments (NQMom) in fm**2, nuclear magnetic moments (NMagM)
  in nuclear magnetons)

  Atom         1           2           3           4           5           6           7           8           9          10
 IAtWgt=          12          12          12          12           1          14          12           1          12           1
 AtmWgt=  12.0000000  12.0000000  12.0000000  12.0000000   1.0078250  14.0030740  12.0000000   1.0078250  12.0000000   1.0078250
 NucSpn=           0           0           0           0           1           2           0           1           0           1
 AtZEff=  -0.0000000  -0.0000000  -0.0000000  -0.0000000  -0.0000000  -0.0000000  -0.0000000  -0.0000000  -0.0000000  -0.0000000
 NQMom=    0.0000000   0.0000000   0.0000000   0.0000000   0.0000000   2.0440000   0.0000000   0.0000000   0.0000000   0.0000000
 NMagM=    0.0000000   0.0000000   0.0000000   0.0000000   2.7928460   0.4037610   0.0000000   2.7928460   0.0000000   2.7928460
 AtZNuc=   6.0000000   6.0000000   6.0000000   6.0000000   1.0000000   7.0000000   6.0000000   1.0000000   6.0000000   1.0000000

  Atom        11          12          13          14          15          16          17          18          19
 IAtWgt=          12           1           1           1          12          16           1           1           1
 AtmWgt=  12.0000000   1.0078250   1.0078250   1.0078250  12.0000000  15.9949146   1.0078250   1.0078250   1.0078250
 NucSpn=           0           1           1           1           0           0           1           1           1
 AtZEff=  -0.0000000  -0.0000000  -0.0000000  -0.0000000  -0.0000000  -0.0000000  -0.0000000  -0.0000000  -0.0000000
 NQMom=    0.0000000   0.0000000   0.0000000   0.0000000   0.0000000   0.0000000   0.0000000   0.0000000   0.0000000
 NMagM=    0.0000000   2.7928460   2.7928460   2.7928460   0.0000000   0.0000000   2.7928460   2.7928460   2.7928460
 AtZNuc=   6.0000000   1.0000000   1.0000000   1.0000000   6.0000000   8.0000000   1.0000000   1.0000000   1.0000000
 Leave Link  101 at Tue Nov 22 19:15:49 2022, MaxMem= 16106127360 cpu:               5.1 elap:               0.2
 (Enter /opt/ap/G16/B01/g16/l202.exe)
                          Input orientation:                          
 ---------------------------------------------------------------------
 Center     Atomic      Atomic             Coordinates (Angstroms)
 Number     Number       Type             X           Y           Z
 ---------------------------------------------------------------------
      1          6           0        0.000000    0.000000    0.000000
      2          6           0        0.000000    0.000000    1.394475
      3          6           0        1.216591    0.000000   -0.690193
      4          6           0        1.210053    0.053661    2.077726
      5          1           0       -0.834249   -0.032067    1.872696
      6          7           0       -1.178505   -0.005866   -0.786634
      7          6           0        2.413939    0.052326    0.007287
      8          1           0        1.204393   -0.029731   -1.646384
      9          6           0        2.412261    0.098442    1.396177
     10          1           0        1.194755    0.071528    3.063305
     11          6           0       -2.436085    0.312014   -0.394861
     12          1           0       -1.055905   -0.195907   -1.653721
     13          1           0        3.263999    0.056828   -0.497149
     14          1           0        3.262484    0.177260    1.886251
     15          6           0       -2.717577    0.145287    1.071839
     16          8           0       -3.305405    0.713043   -1.174988
     17          1           0       -3.409683   -0.552696    1.163327
     18          1           0       -3.123079    0.984048    1.434563
     19          1           0       -1.935182   -0.087634    1.608550
 ---------------------------------------------------------------------
                    Distance matrix (angstroms):
                    1          2          3          4          5
     1  C    0.000000
     2  C    1.394475   0.000000
     3  C    1.398735   2.413697   0.000000
     4  C    2.405006   1.390661   2.768447   0.000000
     5  H    2.050363   0.962130   3.282586   2.056345   0.000000
     6  N    1.416934   2.479142   2.397044   3.730055   2.681648
     7  C    2.414517   2.784624   1.386671   2.395008   3.746678
     8  H    2.040105   3.270821   0.956732   3.725048   4.066939
     9  C    2.788908   2.414270   2.406711   1.382686   3.283889
    10  H    3.288829   2.053668   3.754243   0.985860   2.354812
    11  C    2.487525   3.038682   3.677855   4.413021   2.797515
    12  H    1.971829   3.231844   2.476087   4.372705   3.537173
    13  H    3.302132   3.772951   2.057273   3.293734   4.734944
    14  H    3.772687   3.304099   3.294718   2.065046   4.102100
    15  C    2.924922   2.740516   4.313182   4.055426   2.054204
    16  O    3.579767   4.246913   4.603467   5.603953   3.993768
    17  H    3.644824   3.461913   5.014321   4.748236   2.721602
    18  H    3.574905   3.274687   4.931092   4.478315   2.542281
    19  H    2.517944   1.948957   3.901995   3.183173   1.133540
                    6          7          8          9         10
     6  N    0.000000
     7  C    3.679585   0.000000
     8  H    2.533365   2.050454   0.000000
     9  C    4.203468   1.389657   3.276058   0.000000
    10  H    4.523316   3.290292   4.710788   2.064548   0.000000
    11  C    1.355007   4.873592   3.864736   5.172997   5.019935
    12  H    0.896095   3.854917   2.266411   4.627818   5.233291
    13  H    4.452366   0.988472   2.360129   2.076505   4.118108
    14  H    5.186544   2.065465   4.093666   0.984512   2.381625
    15  C    2.417750   5.241600   4.775062   5.140295   4.390641
    16  O    2.278455   5.877518   4.594802   6.299233   6.214991
    17  H    3.013226   5.968002   5.427492   5.862869   5.020002
    18  H    3.113683   5.793426   5.408049   5.605868   4.704167
    19  H    2.513196   4.636645   4.522707   4.356602   3.455163
                   11         12         13         14         15
    11  C    0.000000
    12  H    1.935874   0.000000
    13  H    5.706710   4.479186   0.000000
    14  H    6.139652   5.596351   2.386441   0.000000
    15  C    1.502746   3.210334   6.184561   6.035348   0.000000
    16  O    1.234965   2.472979   6.636803   7.266046   2.390840
    17  H    2.030657   3.688269   6.904109   6.750798   0.987198
    18  H    2.066491   3.899103   6.736914   6.452158   0.999760
    19  H    2.103397   3.380424   5.611266   5.211815   0.976962
                   16         17         18         19
    16  O    0.000000
    17  H    2.660956   0.000000
    18  H    2.629913   1.586598   0.000000
    19  H    3.204166   1.608931   1.609308   0.000000
 Stoichiometry    C8H9NO
 Framework group  C1[X(C8H9NO)]
 Deg. of freedom    51
 Full point group                 C1      NOp   1
 Largest Abelian subgroup         C1      NOp   1
 Largest concise Abelian subgroup C1      NOp   1
                         Standard orientation:                         
 ---------------------------------------------------------------------
 Center     Atomic      Atomic             Coordinates (Angstroms)
 Number     Number       Type             X           Y           Z
 ---------------------------------------------------------------------
      1          6           0        0.250586   -0.368492    0.129531
      2          6           0        0.597550    0.981350    0.083671
      3          6           0        1.254520   -1.341216    0.080707
      4          6           0        1.933401    1.338826   -0.063476
      5          1           0       -0.087557    1.653703    0.148984
      6          7           0       -1.083615   -0.834762    0.230538
      7          6           0        2.581720   -0.966763   -0.064830
      8          1           0        1.006756   -2.263239    0.142534
      9          6           0        2.922669    0.377302   -0.156418
     10          1           0        2.162679    2.296384   -0.112816
     11          6           0       -2.222117   -0.146094   -0.025572
     12          1           0       -1.168503   -1.701533    0.441456
     13          1           0        3.277379   -1.667977   -0.102706
     14          1           0        3.861092    0.637451   -0.301159
     15          6           0       -2.118344    1.347004    0.109090
     16          8           0       -3.282422   -0.690461   -0.348927
     17          1           0       -2.718934    1.620833    0.843167
     18          1           0       -2.474592    1.785265   -0.715856
     19          1           0       -1.213556    1.674627    0.277834
 ---------------------------------------------------------------------
 Rotational constants (GHZ):           3.5686985           0.8331187           0.6850389
 Leave Link  202 at Tue Nov 22 19:15:49 2022, MaxMem= 16106127360 cpu:               0.3 elap:               0.0
 (Enter /opt/ap/G16/B01/g16/l301.exe)
 Standard basis: 6-311++G(d,p) (5D, 7F)
 Ernie: Thresh=  0.10000D-02 Tol=  0.10000D-05 Strict=F.
 There are   293 symmetry adapted cartesian basis functions of A   symmetry.
 There are   283 symmetry adapted basis functions of A   symmetry.
   283 basis functions,   441 primitive gaussians,   293 cartesian basis functions
    36 alpha electrons       36 beta electrons
       nuclear repulsion energy       496.3094232168 Hartrees.
 IExCor= 4639 DFT=T Ex+Corr=wB97XD ExCW=0 ScaHFX=  1.000000
 ScaDFX=  1.000000  1.000000  1.000000  1.000000 ScalE2=  1.000000  1.000000
 IRadAn=      5 IRanWt=     -1 IRanGd=            0 ICorTp=0 IEmpDi=121
 HFx  wShort=  0.000000 wLong=  0.200000 cFull=  0.222036 cShort=  0.000000 cLong=  0.777964
 DFx  wShort=  0.000000 wLong=  0.200000 cFull=  0.000000 cShort=  0.000000 cLong=  1.000000
 NAtoms=   19 NActive=   19 NUniq=   19 SFac= 1.00D+00 NAtFMM=   60 NAOKFM=F Big=F
 Integral buffers will be    131072 words long.
 Raffenetti 2 integral format.
 Two-electron integral symmetry is turned on.
 R6Disp:  Grimme-D2 Dispersion energy=       -0.0098572968 Hartrees.
 Nuclear repulsion after empirical dispersion term =      496.2995659200 Hartrees.
 Leave Link  301 at Tue Nov 22 19:15:49 2022, MaxMem= 16106127360 cpu:               1.2 elap:               0.0
 (Enter /opt/ap/G16/B01/g16/l302.exe)
 NPDir=0 NMtPBC=     1 NCelOv=     1 NCel=       1 NClECP=     1 NCelD=      1
         NCelK=      1 NCelE2=     1 NClLst=     1 CellRange=     0.0.
 One-electron integrals computed using PRISM.
 One-electron integral symmetry used in STVInt
 NBasis=   283 RedAO= T EigKep=  2.15D-06  NBF=   283
 NBsUse=   282 1.00D-06 EigRej=  5.54D-07 NBFU=   282
 Precomputing XC quadrature grid using
 IXCGrd= 4 IRadAn=           5 IRanWt=          -1 IRanGd=           0 AccXCQ= 0.00D+00.
 Generated NRdTot=       0 NPtTot=           0 NUsed=           0 NTot=          32
 NSgBfM=   293   293   293   293   293 MxSgAt=    19 MxSgA2=    19.
 Leave Link  302 at Tue Nov 22 19:15:50 2022, MaxMem= 16106127360 cpu:               6.3 elap:               0.2
 (Enter /opt/ap/G16/B01/g16/l303.exe)
 DipDrv:  MaxL=1.
 Leave Link  303 at Tue Nov 22 19:15:50 2022, MaxMem= 16106127360 cpu:               2.3 elap:               0.1
 (Enter /opt/ap/G16/B01/g16/l401.exe)
 ExpMin= 3.60D-02 ExpMax= 8.59D+03 ExpMxC= 1.30D+03 IAcc=3 IRadAn=         5 AccDes= 0.00D+00
 Harris functional with IExCor= 4639 and IRadAn=       5 diagonalized for initial guess.
 HarFok:  IExCor= 4639 AccDes= 0.00D+00 IRadAn=         5 IDoV= 1 UseB2=F ITyADJ=14
 ICtDFT=  3500011 ScaDFX=  1.000000  1.000000  1.000000  1.000000
 FoFCou: FMM=F IPFlag=           0 FMFlag=      100000 FMFlg1=           0
         NFxFlg=           0 DoJE=T BraDBF=F KetDBF=T FulRan=T
         wScrn=  0.000000 ICntrl=       500 IOpCl=  0 I1Cent=   200000004 NGrid=           0
         NMat0=    1 NMatS0=      1 NMatT0=    0 NMatD0=    1 NMtDS0=    0 NMtDT0=    0
 Petite list used in FoFCou.
 Harris En= -420.940327928045    
 JPrj=0 DoOrth=F DoCkMO=F.
 Leave Link  401 at Tue Nov 22 19:15:50 2022, MaxMem= 16106127360 cpu:              16.1 elap:               0.5
 (Enter /opt/ap/G16/B01/g16/l502.exe)
 Integral symmetry usage will be decided dynamically.
 Closed shell SCF:
 Using DIIS extrapolation, IDIIS=  1040.
 NGot= 16106127360 LenX= 16105943385 LenY= 16105857095
 Requested convergence on RMS density matrix=1.00D-08 within 512 cycles.
 Requested convergence on MAX density matrix=1.00D-06.
 Requested convergence on             energy=1.00D-06.
 No special actions if energy rises.
 Fock matrices will be formed incrementally for  20 cycles.

 Cycle   1  Pass 1  IDiag  1:
 FoFJK:  IHMeth= 1 ICntrl=       0 DoSepK=T KAlg= 0 I1Cent=           0 FoldK=F
 IRaf=         1 NMat=       1 IRICut=       1 DoRegI=T DoRafI=F ISym2E= 0 IDoP0=0 IntGTp=1.
 FoFCou: FMM=F IPFlag=           0 FMFlag=      100000 FMFlg1=           0
         NFxFlg=           0 DoJE=T BraDBF=F KetDBF=F FulRan=T
         wScrn=  0.000000 ICntrl=       500 IOpCl=  0 I1Cent=           0 NGrid=           0
         NMat0=    1 NMatS0=      1 NMatT0=    0 NMatD0=    1 NMtDS0=    0 NMtDT0=    0
 Symmetry not used in FoFCou.
 E= -439.946909291997    
 DIIS: error= 5.23D-02 at cycle   1 NSaved=   1.
 NSaved= 1 IEnMin= 1 EnMin= -439.946909291997     IErMin= 1 ErrMin= 5.23D-02
 ErrMax= 5.23D-02  0.00D+00 EMaxC= 1.00D-01 BMatC= 9.49D-01 BMatP= 9.49D-01
 IDIUse=3 WtCom= 4.77D-01 WtEn= 5.23D-01
 Coeff-Com:  0.100D+01
 Coeff-En:   0.100D+01
 Coeff:      0.100D+01
 Gap=     0.425 Goal=   None    Shift=    0.000
 GapD=    0.425 DampG=2.000 DampE=0.500 DampFc=1.0000 IDamp=-1.
 RMSDP=1.17D-02 MaxDP=6.80D-01              OVMax= 1.65D-01

 Cycle   2  Pass 1  IDiag  1:
 RMSU=  1.15D-02    CP:  1.06D+00
 E= -440.026756263462     Delta-E=       -0.079846971465 Rises=F Damp=F
 DIIS: error= 1.60D-02 at cycle   2 NSaved=   2.
 NSaved= 2 IEnMin= 2 EnMin= -440.026756263462     IErMin= 2 ErrMin= 1.60D-02
 ErrMax= 1.60D-02  0.00D+00 EMaxC= 1.00D-01 BMatC= 8.78D-02 BMatP= 9.49D-01
 IDIUse=3 WtCom= 8.40D-01 WtEn= 1.60D-01
 Coeff-Com:  0.163D+00 0.837D+00
 Coeff-En:   0.245D+00 0.755D+00
 Coeff:      0.176D+00 0.824D+00
 Gap=     0.433 Goal=   None    Shift=    0.000
 RMSDP=1.40D-02 MaxDP=1.27D+00 DE=-7.98D-02 OVMax= 1.30D-01

 Cycle   3  Pass 1  IDiag  1:
 RMSU=  4.44D-03    CP:  7.96D-01  4.02D-01
 E= -440.068488518899     Delta-E=       -0.041732255437 Rises=F Damp=F
 DIIS: error= 1.53D-02 at cycle   3 NSaved=   3.
 NSaved= 3 IEnMin= 3 EnMin= -440.068488518899     IErMin= 3 ErrMin= 1.53D-02
 ErrMax= 1.53D-02  0.00D+00 EMaxC= 1.00D-01 BMatC= 3.88D-02 BMatP= 8.78D-02
 IDIUse=3 WtCom= 8.47D-01 WtEn= 1.53D-01
 Coeff-Com:  0.253D-01 0.404D+00 0.571D+00
 Coeff-En:   0.000D+00 0.308D+00 0.692D+00
 Coeff:      0.214D-01 0.389D+00 0.589D+00
 Gap=     0.357 Goal=   None    Shift=    0.000
 RMSDP=5.87D-03 MaxDP=5.28D-01 DE=-4.17D-02 OVMax= 7.40D-02

 Cycle   4  Pass 1  IDiag  1:
 RMSU=  8.99D-04    CP:  8.98D-01  7.02D-01  7.03D-01
 E= -440.103185488847     Delta-E=       -0.034696969948 Rises=F Damp=F
 DIIS: error= 2.16D-03 at cycle   4 NSaved=   4.
 NSaved= 4 IEnMin= 4 EnMin= -440.103185488847     IErMin= 4 ErrMin= 2.16D-03
 ErrMax= 2.16D-03  0.00D+00 EMaxC= 1.00D-01 BMatC= 1.76D-03 BMatP= 3.88D-02
 IDIUse=3 WtCom= 9.78D-01 WtEn= 2.16D-02
 Coeff-Com:  0.934D-02 0.187D+00 0.311D+00 0.492D+00
 Coeff-En:   0.000D+00 0.000D+00 0.000D+00 0.100D+01
 Coeff:      0.914D-02 0.183D+00 0.305D+00 0.503D+00
 Gap=     0.342 Goal=   None    Shift=    0.000
 RMSDP=1.36D-03 MaxDP=1.37D-01 DE=-3.47D-02 OVMax= 1.03D-02

 Cycle   5  Pass 1  IDiag  1:
 RMSU=  4.27D-04    CP:  8.72D-01  6.60D-01  7.56D-01  7.99D-01
 E= -440.104585766487     Delta-E=       -0.001400277640 Rises=F Damp=F
 DIIS: error= 6.37D-04 at cycle   5 NSaved=   5.
 NSaved= 5 IEnMin= 5 EnMin= -440.104585766487     IErMin= 5 ErrMin= 6.37D-04
 ErrMax= 6.37D-04  0.00D+00 EMaxC= 1.00D-01 BMatC= 7.55D-05 BMatP= 1.76D-03
 IDIUse=3 WtCom= 9.94D-01 WtEn= 6.37D-03
 Coeff-Com:  0.105D-02 0.240D-01 0.537D-01 0.186D+00 0.735D+00
 Coeff-En:   0.000D+00 0.000D+00 0.000D+00 0.000D+00 0.100D+01
 Coeff:      0.105D-02 0.239D-01 0.533D-01 0.185D+00 0.737D+00
 Gap=     0.342 Goal=   None    Shift=    0.000
 RMSDP=2.71D-04 MaxDP=2.64D-02 DE=-1.40D-03 OVMax= 2.87D-03

 Cycle   6  Pass 1  IDiag  1:
 RMSU=  9.05D-05    CP:  8.76D-01  6.72D-01  7.63D-01  9.04D-01  8.99D-01
 E= -440.104637399861     Delta-E=       -0.000051633373 Rises=F Damp=F
 DIIS: error= 4.62D-04 at cycle   6 NSaved=   6.
 NSaved= 6 IEnMin= 6 EnMin= -440.104637399861     IErMin= 6 ErrMin= 4.62D-04
 ErrMax= 4.62D-04  0.00D+00 EMaxC= 1.00D-01 BMatC= 2.11D-05 BMatP= 7.55D-05
 IDIUse=3 WtCom= 9.95D-01 WtEn= 4.62D-03
 Coeff-Com: -0.117D-02-0.207D-01-0.252D-01 0.992D-02 0.394D+00 0.643D+00
 Coeff-En:   0.000D+00 0.000D+00 0.000D+00 0.000D+00 0.259D-01 0.974D+00
 Coeff:     -0.117D-02-0.206D-01-0.251D-01 0.987D-02 0.392D+00 0.645D+00
 Gap=     0.343 Goal=   None    Shift=    0.000
 RMSDP=2.03D-04 MaxDP=2.21D-02 DE=-5.16D-05 OVMax= 1.52D-03

 Cycle   7  Pass 1  IDiag  1:
 RMSU=  4.86D-05    CP:  8.72D-01  6.68D-01  7.70D-01  9.15D-01  1.09D+00
                    CP:  9.34D-01
 E= -440.104655471579     Delta-E=       -0.000018071718 Rises=F Damp=F
 DIIS: error= 6.12D-05 at cycle   7 NSaved=   7.
 NSaved= 7 IEnMin= 7 EnMin= -440.104655471579     IErMin= 7 ErrMin= 6.12D-05
 ErrMax= 6.12D-05  0.00D+00 EMaxC= 1.00D-01 BMatC= 4.42D-07 BMatP= 2.11D-05
 IDIUse=1 WtCom= 1.00D+00 WtEn= 0.00D+00
 Coeff-Com: -0.242D-03-0.454D-02-0.578D-02-0.102D-01 0.596D-02 0.814D-01
 Coeff-Com:  0.933D+00
 Coeff:     -0.242D-03-0.454D-02-0.578D-02-0.102D-01 0.596D-02 0.814D-01
 Coeff:      0.933D+00
 Gap=     0.343 Goal=   None    Shift=    0.000
 RMSDP=3.71D-05 MaxDP=3.55D-03 DE=-1.81D-05 OVMax= 5.68D-04

 Cycle   8  Pass 1  IDiag  1:
 RMSU=  9.64D-06    CP:  8.72D-01  6.67D-01  7.71D-01  9.22D-01  1.13D+00
                    CP:  1.01D+00  1.19D+00
 E= -440.104656485395     Delta-E=       -0.000001013816 Rises=F Damp=F
 DIIS: error= 2.30D-05 at cycle   8 NSaved=   8.
 NSaved= 8 IEnMin= 8 EnMin= -440.104656485395     IErMin= 8 ErrMin= 2.30D-05
 ErrMax= 2.30D-05  0.00D+00 EMaxC= 1.00D-01 BMatC= 1.35D-07 BMatP= 4.42D-07
 IDIUse=1 WtCom= 1.00D+00 WtEn= 0.00D+00
 Coeff-Com:  0.838D-04 0.121D-02 0.153D-02-0.713D-02-0.644D-01-0.776D-01
 Coeff-Com:  0.391D+00 0.755D+00
 Coeff:      0.838D-04 0.121D-02 0.153D-02-0.713D-02-0.644D-01-0.776D-01
 Coeff:      0.391D+00 0.755D+00
 Gap=     0.343 Goal=   None    Shift=    0.000
 RMSDP=1.82D-05 MaxDP=2.05D-03 DE=-1.01D-06 OVMax= 3.14D-04

 Cycle   9  Pass 1  IDiag  1:
 RMSU=  4.44D-06    CP:  8.71D-01  6.66D-01  7.71D-01  9.21D-01  1.15D+00
                    CP:  1.03D+00  1.34D+00  1.12D+00
 E= -440.104656696756     Delta-E=       -0.000000211361 Rises=F Damp=F
 DIIS: error= 8.67D-06 at cycle   9 NSaved=   9.
 NSaved= 9 IEnMin= 9 EnMin= -440.104656696756     IErMin= 9 ErrMin= 8.67D-06
 ErrMax= 8.67D-06  0.00D+00 EMaxC= 1.00D-01 BMatC= 7.15D-09 BMatP= 1.35D-07
 IDIUse=1 WtCom= 1.00D+00 WtEn= 0.00D+00
 Coeff-Com:  0.458D-04 0.766D-03 0.109D-02-0.741D-03-0.150D-01-0.265D-01
 Coeff-Com:  0.145D-01 0.159D+00 0.867D+00
 Coeff:      0.458D-04 0.766D-03 0.109D-02-0.741D-03-0.150D-01-0.265D-01
 Coeff:      0.145D-01 0.159D+00 0.867D+00
 Gap=     0.343 Goal=   None    Shift=    0.000
 RMSDP=6.08D-06 MaxDP=6.18D-04 DE=-2.11D-07 OVMax= 6.94D-05

 Cycle  10  Pass 1  IDiag  1:
 RMSU=  1.43D-06    CP:  8.71D-01  6.66D-01  7.71D-01  9.19D-01  1.15D+00
                    CP:  1.03D+00  1.37D+00  1.19D+00  1.36D+00
 E= -440.104656711775     Delta-E=       -0.000000015018 Rises=F Damp=F
 DIIS: error= 2.74D-06 at cycle  10 NSaved=  10.
 NSaved=10 IEnMin=10 EnMin= -440.104656711775     IErMin=10 ErrMin= 2.74D-06
 ErrMax= 2.74D-06  0.00D+00 EMaxC= 1.00D-01 BMatC= 1.35D-09 BMatP= 7.15D-09
 IDIUse=1 WtCom= 1.00D+00 WtEn= 0.00D+00
 Coeff-Com:  0.368D-05 0.108D-03 0.209D-03 0.816D-03 0.413D-02 0.178D-02
 Coeff-Com: -0.497D-01-0.657D-01 0.282D+00 0.826D+00
 Coeff:      0.368D-05 0.108D-03 0.209D-03 0.816D-03 0.413D-02 0.178D-02
 Coeff:     -0.497D-01-0.657D-01 0.282D+00 0.826D+00
 Gap=     0.343 Goal=   None    Shift=    0.000
 RMSDP=2.19D-06 MaxDP=2.30D-04 DE=-1.50D-08 OVMax= 3.69D-05

 Cycle  11  Pass 1  IDiag  1:
 RMSU=  3.98D-07    CP:  8.71D-01  6.66D-01  7.71D-01  9.18D-01  1.15D+00
                    CP:  1.02D+00  1.38D+00  1.23D+00  1.49D+00  1.10D+00
 E= -440.104656714518     Delta-E=       -0.000000002743 Rises=F Damp=F
 DIIS: error= 9.22D-07 at cycle  11 NSaved=  11.
 NSaved=11 IEnMin=11 EnMin= -440.104656714518     IErMin=11 ErrMin= 9.22D-07
 ErrMax= 9.22D-07  0.00D+00 EMaxC= 1.00D-01 BMatC= 1.08D-10 BMatP= 1.35D-09
 IDIUse=1 WtCom= 1.00D+00 WtEn= 0.00D+00
 Coeff-Com: -0.384D-05-0.604D-04-0.633D-04 0.267D-03 0.221D-02 0.309D-02
 Coeff-Com: -0.713D-02-0.285D-01-0.644D-01 0.121D+00 0.974D+00
 Coeff:     -0.384D-05-0.604D-04-0.633D-04 0.267D-03 0.221D-02 0.309D-02
 Coeff:     -0.713D-02-0.285D-01-0.644D-01 0.121D+00 0.974D+00
 Gap=     0.343 Goal=   None    Shift=    0.000
 RMSDP=5.22D-07 MaxDP=2.94D-05 DE=-2.74D-09 OVMax= 9.59D-06

 Cycle  12  Pass 1  IDiag  1:
 RMSU=  1.27D-07    CP:  8.71D-01  6.66D-01  7.71D-01  9.18D-01  1.15D+00
                    CP:  1.02D+00  1.38D+00  1.22D+00  1.54D+00  1.21D+00
                    CP:  1.28D+00
 E= -440.104656714817     Delta-E=       -0.000000000299 Rises=F Damp=F
 DIIS: error= 2.35D-07 at cycle  12 NSaved=  12.
 NSaved=12 IEnMin=12 EnMin= -440.104656714817     IErMin=12 ErrMin= 2.35D-07
 ErrMax= 2.35D-07  0.00D+00 EMaxC= 1.00D-01 BMatC= 1.06D-11 BMatP= 1.08D-10
 IDIUse=1 WtCom= 1.00D+00 WtEn= 0.00D+00
 Coeff-Com: -0.905D-06-0.218D-04-0.311D-04-0.235D-04-0.141D-03 0.244D-03
 Coeff-Com:  0.391D-02 0.181D-02-0.360D-01-0.579D-01 0.140D+00 0.948D+00
 Coeff:     -0.905D-06-0.218D-04-0.311D-04-0.235D-04-0.141D-03 0.244D-03
 Coeff:      0.391D-02 0.181D-02-0.360D-01-0.579D-01 0.140D+00 0.948D+00
 Gap=     0.343 Goal=   None    Shift=    0.000
 RMSDP=1.24D-07 MaxDP=8.69D-06 DE=-2.99D-10 OVMax= 3.47D-06

 Cycle  13  Pass 1  IDiag  1:
 RMSU=  5.22D-08    CP:  8.71D-01  6.66D-01  7.71D-01  9.18D-01  1.15D+00
                    CP:  1.02D+00  1.38D+00  1.22D+00  1.54D+00  1.24D+00
                    CP:  1.41D+00  1.17D+00
 E= -440.104656714849     Delta-E=       -0.000000000032 Rises=F Damp=F
 DIIS: error= 5.69D-08 at cycle  13 NSaved=  13.
 NSaved=13 IEnMin=13 EnMin= -440.104656714849     IErMin=13 ErrMin= 5.69D-08
 ErrMax= 5.69D-08  0.00D+00 EMaxC= 1.00D-01 BMatC= 2.02D-12 BMatP= 1.06D-11
 IDIUse=1 WtCom= 1.00D+00 WtEn= 0.00D+00
 Coeff-Com:  0.127D-06 0.513D-06-0.162D-05-0.345D-04-0.326D-03-0.302D-03
 Coeff-Com:  0.207D-02 0.390D-02-0.302D-02-0.328D-01-0.866D-01 0.304D+00
 Coeff-Com:  0.813D+00
 Coeff:      0.127D-06 0.513D-06-0.162D-05-0.345D-04-0.326D-03-0.302D-03
 Coeff:      0.207D-02 0.390D-02-0.302D-02-0.328D-01-0.866D-01 0.304D+00
 Coeff:      0.813D+00
 Gap=     0.343 Goal=   None    Shift=    0.000
 RMSDP=5.73D-08 MaxDP=5.27D-06 DE=-3.24D-11 OVMax= 1.08D-06

 Cycle  14  Pass 1  IDiag  1:
 RMSU=  1.50D-08    CP:  8.71D-01  6.66D-01  7.71D-01  9.18D-01  1.15D+00
                    CP:  1.02D+00  1.38D+00  1.22D+00  1.54D+00  1.24D+00
                    CP:  1.44D+00  1.28D+00  1.15D+00
 E= -440.104656714853     Delta-E=       -0.000000000003 Rises=F Damp=F
 DIIS: error= 1.98D-08 at cycle  14 NSaved=  14.
 NSaved=14 IEnMin=14 EnMin= -440.104656714853     IErMin=14 ErrMin= 1.98D-08
 ErrMax= 1.98D-08  0.00D+00 EMaxC= 1.00D-01 BMatC= 1.20D-13 BMatP= 2.02D-12
 IDIUse=1 WtCom= 1.00D+00 WtEn= 0.00D+00
 Coeff-Com:  0.751D-07 0.157D-05 0.183D-05-0.420D-05-0.541D-04-0.713D-04
 Coeff-Com:  0.119D-03 0.551D-03 0.214D-02-0.117D-02-0.297D-01-0.169D-01
 Coeff-Com:  0.174D+00 0.871D+00
 Coeff:      0.751D-07 0.157D-05 0.183D-05-0.420D-05-0.541D-04-0.713D-04
 Coeff:      0.119D-03 0.551D-03 0.214D-02-0.117D-02-0.297D-01-0.169D-01
 Coeff:      0.174D+00 0.871D+00
 Gap=     0.343 Goal=   None    Shift=    0.000
 RMSDP=2.87D-08 MaxDP=2.89D-06 DE=-3.30D-12 OVMax= 2.71D-07

 Cycle  15  Pass 1  IDiag  1:
 RMSU=  5.15D-09    CP:  8.71D-01  6.66D-01  7.71D-01  9.18D-01  1.15D+00
                    CP:  1.02D+00  1.38D+00  1.22D+00  1.54D+00  1.23D+00
                    CP:  1.44D+00  1.31D+00  1.21D+00  1.29D+00
 E= -440.104656714851     Delta-E=        0.000000000002 Rises=F Damp=F
 DIIS: error= 6.29D-09 at cycle  15 NSaved=  15.
 NSaved=15 IEnMin=14 EnMin= -440.104656714853     IErMin=15 ErrMin= 6.29D-09
 ErrMax= 6.29D-09  0.00D+00 EMaxC= 1.00D-01 BMatC= 1.84D-14 BMatP= 1.20D-13
 IDIUse=1 WtCom= 1.00D+00 WtEn= 0.00D+00
 Coeff-Com:  0.149D-09 0.192D-06 0.460D-06 0.341D-05 0.237D-04 0.218D-04
 Coeff-Com: -0.200D-03-0.330D-03 0.781D-03 0.376D-02 0.281D-02-0.404D-01
 Coeff-Com: -0.485D-01 0.249D+00 0.833D+00
 Coeff:      0.149D-09 0.192D-06 0.460D-06 0.341D-05 0.237D-04 0.218D-04
 Coeff:     -0.200D-03-0.330D-03 0.781D-03 0.376D-02 0.281D-02-0.404D-01
 Coeff:     -0.485D-01 0.249D+00 0.833D+00
 Gap=     0.343 Goal=   None    Shift=    0.000
 RMSDP=1.20D-08 MaxDP=1.36D-06 DE= 1.71D-12 OVMax= 1.09D-07

 Cycle  16  Pass 1  IDiag  1:
 RMSU=  2.06D-09    CP:  8.71D-01  6.66D-01  7.71D-01  9.18D-01  1.15D+00
                    CP:  1.02D+00  1.38D+00  1.22D+00  1.53D+00  1.23D+00
                    CP:  1.44D+00  1.31D+00  1.25D+00  1.39D+00  1.19D+00
 E= -440.104656714845     Delta-E=        0.000000000006 Rises=F Damp=F
 DIIS: error= 3.45D-09 at cycle  16 NSaved=  16.
 NSaved=16 IEnMin=14 EnMin= -440.104656714853     IErMin=16 ErrMin= 3.45D-09
 ErrMax= 3.45D-09  0.00D+00 EMaxC= 1.00D-01 BMatC= 1.76D-15 BMatP= 1.84D-14
 IDIUse=1 WtCom= 1.00D+00 WtEn= 0.00D+00
 Large coefficients: NSaved= 16 BigCof=    0.00 CofMax=   10.00 Det=-8.89D-15
 Inversion failed.  Reducing to 15 matrices.
 Coeff-Com:  0.104D-07 0.863D-07 0.126D-05 0.679D-05 0.818D-05-0.458D-04
 Coeff-Com: -0.908D-04-0.203D-04 0.787D-03 0.267D-02-0.700D-02-0.259D-01
 Coeff-Com: -0.260D-01 0.169D+00 0.887D+00
 Coeff:      0.104D-07 0.863D-07 0.126D-05 0.679D-05 0.818D-05-0.458D-04
 Coeff:     -0.908D-04-0.203D-04 0.787D-03 0.267D-02-0.700D-02-0.259D-01
 Coeff:     -0.260D-01 0.169D+00 0.887D+00
 Gap=     0.343 Goal=   None    Shift=    0.000
 RMSDP=4.18D-09 MaxDP=4.28D-07 DE= 5.57D-12 OVMax= 3.27D-08

 SCF Done:  E(RwB97XD) =  -440.104656715     A.U. after   16 cycles
            NFock= 16  Conv=0.42D-08     -V/T= 1.9999
 KE= 4.401655801162D+02 PE=-2.018520154518D+03 EE= 6.419503517672D+02
 Leave Link  502 at Tue Nov 22 19:16:11 2022, MaxMem= 16106127360 cpu:             649.6 elap:              20.4
 (Enter /opt/ap/G16/B01/g16/l601.exe)
 Copying SCF densities to generalized density rwf, IOpCl= 0 IROHF=0.

 **********************************************************************

            Population analysis using the SCF Density.

 **********************************************************************

 Orbital symmetries:
       Occupied  (A) (A) (A) (A) (A) (A) (A) (A) (A) (A) (A) (A)
                 (A) (A) (A) (A) (A) (A) (A) (A) (A) (A) (A) (A)
                 (A) (A) (A) (A) (A) (A) (A) (A) (A) (A) (A) (A)
       Virtual   (A) (A) (A) (A) (A) (A) (A) (A) (A) (A) (A) (A)
                 (A) (A) (A) (A) (A) (A) (A) (A) (A) (A) (A) (A)
                 (A) (A) (A) (A) (A) (A) (A) (A) (A) (A) (A) (A)
                 (A) (A) (A) (A) (A) (A) (A) (A) (A) (A) (A) (A)
                 (A) (A) (A) (A) (A) (A) (A) (A) (A) (A) (A) (A)
                 (A) (A) (A) (A) (A) (A) (A) (A) (A) (A) (A) (A)
                 (A) (A) (A) (A) (A) (A) (A) (A) (A) (A) (A) (A)
                 (A) (A) (A) (A) (A) (A) (A) (A) (A) (A) (A) (A)
                 (A) (A) (A) (A) (A) (A) (A) (A) (A) (A) (A) (A)
                 (A) (A) (A) (A) (A) (A) (A) (A) (A) (A) (A) (A)
                 (A) (A) (A) (A) (A) (A) (A) (A) (A) (A) (A) (A)
                 (A) (A) (A) (A) (A) (A) (A) (A) (A) (A) (A) (A)
                 (A) (A) (A) (A) (A) (A) (A) (A) (A) (A) (A) (A)
                 (A) (A) (A) (A) (A) (A) (A) (A) (A) (A) (A) (A)
                 (A) (A) (A) (A) (A) (A) (A) (A) (A) (A) (A) (A)
                 (A) (A) (A) (A) (A) (A) (A) (A) (A) (A) (A) (A)
                 (A) (A) (A) (A) (A) (A) (A) (A) (A) (A) (A) (A)
                 (A) (A) (A) (A) (A) (A) (A) (A) (A) (A) (A) (A)
                 (A) (A) (A) (A) (A) (A) (A) (A) (A) (A) (A) (A)
                 (A) (A) (A) (A) (A) (A) (A) (A) (A) (A) (A) (A)
                 (A) (A) (A) (A) (A) (A)
 The electronic state is 1-A.
 Alpha  occ. eigenvalues --  -19.22026 -14.46889 -10.40135 -10.35306 -10.29324
 Alpha  occ. eigenvalues --  -10.29172 -10.28862 -10.28379 -10.28307 -10.25227
 Alpha  occ. eigenvalues --   -1.14850  -1.06697  -0.97191  -0.89693  -0.86810
 Alpha  occ. eigenvalues --   -0.86509  -0.75415  -0.73919  -0.71556  -0.66769
 Alpha  occ. eigenvalues --   -0.63592  -0.58937  -0.56400  -0.56079  -0.55248
 Alpha  occ. eigenvalues --   -0.54190  -0.50998  -0.50428  -0.49346  -0.46427
 Alpha  occ. eigenvalues --   -0.45700  -0.44078  -0.39973  -0.34973  -0.34828
 Alpha  occ. eigenvalues --   -0.30932
 Alpha virt. eigenvalues --    0.03356   0.03536   0.04111   0.04496   0.04907
 Alpha virt. eigenvalues --    0.06428   0.06964   0.07192   0.09160   0.09602
 Alpha virt. eigenvalues --    0.09885   0.10287   0.11351   0.12470   0.13415
 Alpha virt. eigenvalues --    0.14173   0.14962   0.15483   0.15745   0.16286
 Alpha virt. eigenvalues --    0.16579   0.16870   0.17436   0.18375   0.18670
 Alpha virt. eigenvalues --    0.18923   0.19186   0.20072   0.20475   0.20644
 Alpha virt. eigenvalues --    0.21771   0.21947   0.22478   0.22808   0.23491
 Alpha virt. eigenvalues --    0.23704   0.24673   0.25603   0.26114   0.26622
 Alpha virt. eigenvalues --    0.27645   0.28052   0.28986   0.29843   0.30210
 Alpha virt. eigenvalues --    0.31193   0.31268   0.31875   0.32483   0.33668
 Alpha virt. eigenvalues --    0.34131   0.34894   0.35148   0.37320   0.37553
 Alpha virt. eigenvalues --    0.38236   0.39354   0.39546   0.41479   0.41582
 Alpha virt. eigenvalues --    0.42434   0.43233   0.44358   0.44618   0.46098
 Alpha virt. eigenvalues --    0.46474   0.49091   0.51857   0.53084   0.55884
 Alpha virt. eigenvalues --    0.56412   0.58778   0.60818   0.61328   0.61737
 Alpha virt. eigenvalues --    0.63705   0.64409   0.65086   0.65916   0.66792
 Alpha virt. eigenvalues --    0.68131   0.68928   0.69879   0.71109   0.72662
 Alpha virt. eigenvalues --    0.75006   0.76508   0.78406   0.79251   0.80671
 Alpha virt. eigenvalues --    0.81218   0.82078   0.83471   0.85172   0.85707
 Alpha virt. eigenvalues --    0.88487   0.89743   0.91578   0.92359   0.93003
 Alpha virt. eigenvalues --    0.93890   0.94899   0.95335   0.96314   0.98324
 Alpha virt. eigenvalues --    1.01063   1.02139   1.02726   1.05518   1.07300
 Alpha virt. eigenvalues --    1.07583   1.09990   1.11423   1.13596   1.15356
 Alpha virt. eigenvalues --    1.16603   1.17652   1.18361   1.21172   1.23271
 Alpha virt. eigenvalues --    1.28140   1.29089   1.31710   1.33767   1.38769
 Alpha virt. eigenvalues --    1.40233   1.43971   1.46773   1.48557   1.56158
 Alpha virt. eigenvalues --    1.57900   1.58433   1.60842   1.63062   1.63998
 Alpha virt. eigenvalues --    1.65581   1.66461   1.67003   1.69022   1.70716
 Alpha virt. eigenvalues --    1.70918   1.73326   1.75526   1.77302   1.80117
 Alpha virt. eigenvalues --    1.82739   1.84881   1.87872   1.88624   1.92288
 Alpha virt. eigenvalues --    1.92931   1.93857   1.98486   1.99976   2.00398
 Alpha virt. eigenvalues --    2.00748   2.02212   2.04102   2.06236   2.07932
 Alpha virt. eigenvalues --    2.09943   2.12252   2.13295   2.15590   2.19004
 Alpha virt. eigenvalues --    2.23488   2.26356   2.30915   2.35643   2.37459
 Alpha virt. eigenvalues --    2.40786   2.43841   2.47601   2.49634   2.52790
 Alpha virt. eigenvalues --    2.53999   2.57554   2.57904   2.60841   2.65392
 Alpha virt. eigenvalues --    2.68531   2.70346   2.71479   2.75182   2.76495
 Alpha virt. eigenvalues --    2.77111   2.81136   2.83907   2.85099   2.87357
 Alpha virt. eigenvalues --    2.89932   2.91103   2.92068   2.93503   2.94350
 Alpha virt. eigenvalues --    2.95839   2.98350   2.99293   3.00654   3.02395
 Alpha virt. eigenvalues --    3.03256   3.05894   3.11903   3.13834   3.18911
 Alpha virt. eigenvalues --    3.20250   3.22108   3.25778   3.29349   3.42272
 Alpha virt. eigenvalues --    3.44934   3.47167   3.52300   3.57423   3.59878
 Alpha virt. eigenvalues --    3.67142   3.68164   3.72495   3.81898   3.94628
 Alpha virt. eigenvalues --    3.99925   4.01204   4.11344   4.17093   4.24796
 Alpha virt. eigenvalues --    4.30840   4.33844   4.41524   4.45187   4.51003
 Alpha virt. eigenvalues --    4.95681   5.18289   5.18954   5.24619   5.34120
 Alpha virt. eigenvalues --    5.89206  23.87124  23.99274  24.13963  24.22069
 Alpha virt. eigenvalues --   24.29398  24.32319  24.41561  24.47097  35.87749
 Alpha virt. eigenvalues --   50.14716
          Condensed to atoms (all electrons):
               1          2          3          4          5          6
     1  C   11.344768  -3.950085   1.232423  -1.121410  -0.247404  -0.725708
     2  C   -3.950085  14.506720  -5.504900  -0.736988   0.638441   0.900765
     3  C    1.232423  -5.504900  10.096267   1.066527  -0.016416  -0.578408
     4  C   -1.121410  -0.736988   1.066527   6.641440   0.022872   0.010165
     5  H   -0.247404   0.638441  -0.016416   0.022872   0.762434  -0.000793
     6  N   -0.725708   0.900765  -0.578408   0.010165  -0.000793   7.320254
     7  C   -0.018009   0.085700   0.318717  -0.469573   0.036385  -0.046719
     8  H   -0.100539  -0.069560   0.538701   0.049222   0.001963  -0.004961
     9  C   -0.684865   0.427479  -0.797905   0.508560  -0.061709   0.066336
    10  H    0.106545  -0.104957   0.055234   0.373280  -0.036975  -0.008298
    11  C   -0.431376   0.055982   0.081610   0.095062   0.018974   0.243334
    12  H   -0.072868   0.138978  -0.092848  -0.001415   0.007040   0.424785
    13  H    0.040864   0.061265  -0.140732  -0.041829   0.000595  -0.003686
    14  H    0.001511   0.007045  -0.020982  -0.058677  -0.006133   0.002292
    15  C    1.172371  -1.218063   0.415989  -0.179024  -0.008191  -0.460794
    16  O    0.035013  -0.105893   0.107434  -0.002018   0.001465  -0.103476
    17  H   -0.019137  -0.011780   0.022641   0.015751   0.014366  -0.010099
    18  H    0.034951  -0.047619   0.025409  -0.012820   0.000740   0.006838
    19  H   -0.384329   0.570568  -0.303084  -0.124940  -0.204395   0.106623
               7          8          9         10         11         12
     1  C   -0.018009  -0.100539  -0.684865   0.106545  -0.431376  -0.072868
     2  C    0.085700  -0.069560   0.427479  -0.104957   0.055982   0.138978
     3  C    0.318717   0.538701  -0.797905   0.055234   0.081610  -0.092848
     4  C   -0.469573   0.049222   0.508560   0.373280   0.095062  -0.001415
     5  H    0.036385   0.001963  -0.061709  -0.036975   0.018974   0.007040
     6  N   -0.046719  -0.004961   0.066336  -0.008298   0.243334   0.424785
     7  C    5.562582  -0.092651   0.543844  -0.007842  -0.074942  -0.005665
     8  H   -0.092651   0.530566  -0.015850   0.001817   0.013196   0.000918
     9  C    0.543844  -0.015850   5.887658  -0.092543   0.037302  -0.001603
    10  H   -0.007842   0.001817  -0.092543   0.499534  -0.000237  -0.000511
    11  C   -0.074942   0.013196   0.037302  -0.000237   5.935051  -0.043433
    12  H   -0.005665   0.000918  -0.001603  -0.000511  -0.043433   0.338222
    13  H    0.460394  -0.018186  -0.040870  -0.000279  -0.003796   0.001726
    14  H   -0.057490   0.000405   0.477616  -0.010600   0.001569  -0.000182
    15  C    0.081770   0.000045  -0.079469   0.008020  -0.301844  -0.036707
    16  O    0.005689   0.001734  -0.003589   0.000167   0.413974  -0.013338
    17  H   -0.000045   0.000053   0.001967  -0.000514  -0.026260  -0.001396
    18  H    0.002444   0.000131  -0.009463   0.000993  -0.063779  -0.001845
    19  H    0.008038  -0.008179   0.081491   0.002903  -0.106755   0.006938
              13         14         15         16         17         18
     1  C    0.040864   0.001511   1.172371   0.035013  -0.019137   0.034951
     2  C    0.061265   0.007045  -1.218063  -0.105893  -0.011780  -0.047619
     3  C   -0.140732  -0.020982   0.415989   0.107434   0.022641   0.025409
     4  C   -0.041829  -0.058677  -0.179024  -0.002018   0.015751  -0.012820
     5  H    0.000595  -0.006133  -0.008191   0.001465   0.014366   0.000740
     6  N   -0.003686   0.002292  -0.460794  -0.103476  -0.010099   0.006838
     7  C    0.460394  -0.057490   0.081770   0.005689  -0.000045   0.002444
     8  H   -0.018186   0.000405   0.000045   0.001734   0.000053   0.000131
     9  C   -0.040870   0.477616  -0.079469  -0.003589   0.001967  -0.009463
    10  H   -0.000279  -0.010600   0.008020   0.000167  -0.000514   0.000993
    11  C   -0.003796   0.001569  -0.301844   0.413974  -0.026260  -0.063779
    12  H    0.001726  -0.000182  -0.036707  -0.013338  -0.001396  -0.001845
    13  H    0.490347  -0.010495   0.000647  -0.000045  -0.000139   0.000060
    14  H   -0.010495   0.490953  -0.002703  -0.000060   0.000067  -0.000339
    15  C    0.000647  -0.002703   5.997794  -0.042588   0.443469   0.472237
    16  O   -0.000045  -0.000060  -0.042588   8.045832  -0.012157  -0.010632
    17  H   -0.000139   0.000067   0.443469  -0.012157   0.490975  -0.024766
    18  H    0.000060  -0.000339   0.472237  -0.010632  -0.024766   0.479409
    19  H    0.001266   0.003683   0.205026   0.017673  -0.074351  -0.050852
              19
     1  C   -0.384329
     2  C    0.570568
     3  C   -0.303084
     4  C   -0.124940
     5  H   -0.204395
     6  N    0.106623
     7  C    0.008038
     8  H   -0.008179
     9  C    0.081491
    10  H    0.002903
    11  C   -0.106755
    12  H    0.006938
    13  H    0.001266
    14  H    0.003683
    15  C    0.205026
    16  O    0.017673
    17  H   -0.074351
    18  H   -0.050852
    19  H    1.085799
 Mulliken charges:
               1
     1  C   -0.212716
     2  C    0.356902
     3  C   -0.505676
     4  C   -0.034184
     5  H    0.076744
     6  N   -0.138448
     7  C   -0.332628
     8  H    0.171174
     9  C   -0.244385
    10  H    0.214263
    11  C    0.156368
    12  H    0.353203
    13  H    0.202894
    14  H    0.182521
    15  C   -0.467985
    16  O   -0.335185
    17  H    0.191356
    18  H    0.198905
    19  H    0.166878
 Sum of Mulliken charges =  -0.00000
 Mulliken charges with hydrogens summed into heavy atoms:
               1
     1  C   -0.212716
     2  C    0.433646
     3  C   -0.334502
     4  C    0.180079
     6  N    0.214755
     7  C   -0.129734
     9  C   -0.061865
    11  C    0.156368
    15  C    0.089154
    16  O   -0.335185
 Electronic spatial extent (au):  <R**2>=           1599.0717
 Charge=             -0.0000 electrons
 Dipole moment (field-independent basis, Debye):
    X=              3.5820    Y=              1.1397    Z=              0.9790  Tot=              3.8844
 Quadrupole moment (field-independent basis, Debye-Ang):
   XX=            -69.5539   YY=            -50.7429   ZZ=            -61.7047
   XY=             -6.0337   XZ=             -4.0463   YZ=             -1.6619
 Traceless Quadrupole moment (field-independent basis, Debye-Ang):
   XX=             -8.8867   YY=              9.9242   ZZ=             -1.0375
   XY=             -6.0337   XZ=             -4.0463   YZ=             -1.6619
 Octapole moment (field-independent basis, Debye-Ang**2):
  XXX=             70.0063  YYY=             -4.6030  ZZZ=             -0.3600  XYY=              0.8387
  XXY=             19.1681  XXZ=              7.0101  XZZ=            -11.9059  YZZ=             -0.0227
  YYZ=              2.5001  XYZ=              2.3561
 Hexadecapole moment (field-independent basis, Debye-Ang**3):
 XXXX=          -1748.6894 YYYY=           -398.2668 ZZZZ=            -82.6976 XXXY=            -69.4925
 XXXZ=            -47.7821 YYYX=              1.6293 YYYZ=             -6.4849 ZZZX=              1.9189
 ZZZY=             -0.1739 XXYY=           -321.5628 XXZZ=           -293.2058 YYZZ=            -90.3026
 XXYZ=             -8.8015 YYXZ=             -4.8467 ZZXY=             -1.5384
 N-N= 4.962995659200D+02 E-N=-2.018520154759D+03  KE= 4.401655801162D+02
 No NMR shielding tensors so no spin-rotation constants.
 Leave Link  601 at Tue Nov 22 19:16:11 2022, MaxMem= 16106127360 cpu:               3.9 elap:               0.1
 (Enter /opt/ap/G16/B01/g16/l9999.exe)
 1\1\GINC-N41\SP\RwB97XD\6-311++G(d,p)\C8H9N1O1\ROOT\22-Nov-2022\0\\#P 
 wB97XD/6-311++G(d,p) scf=maxcycle=512\\_conf067.gjf nmol_natom 1_19\\0
 ,1\C\C,1,1.39447505\C,1,1.39873503,2,119.56697224\C,2,1.39066123,1,119
 .42697207,3,2.53915756,0\H,2,0.96213008,1,119.8046163,3,-177.79870417,
 0\N,1,1.41693372,2,123.72220125,4,-177.74604849,0\C,3,1.38667133,1,120
 .18759987,2,-2.5020857,0\H,3,0.95673174,1,118.82085988,2,177.96737168,
 0\C,4,1.38268572,2,121.03929493,1,-0.41221113,0\H,4,0.9858595,2,118.57
 91267,1,178.77373233,0\C,6,1.35500692,1,127.62132737,2,17.57862687,0\H
 ,6,0.89609466,1,115.10511997,2,-166.41127095,0\H,7,0.98847198,3,119.08
 117704,1,-179.64585354,0\H,9,0.98451201,4,120.53755637,2,177.22743544,
 0\C,11,1.50274561,6,115.46861532,1,-25.,0\O,11,1.23496495,6,123.150998
 88,1,155.,0\H,15,0.98719837,11,107.47091875,6,-116.36962839,0\H,15,0.9
 9976021,11,109.69443261,6,128.85346087,0\H,15,0.97696155,11,114.370088
 71,6,6.05302844,0\\Version=ES64L-G16RevB.01\State=1-A\HF=-440.1046567\
 RMSD=4.183e-09\Dipole=1.2269409,-0.4837919,0.7720314\Quadrupole=-3.233
 716,-1.2371034,4.4708194,2.9825979,-7.0955133,2.1942588\PG=C01 [X(C8H9
 N1O1)]\\@


 TO BEHOLD HARMS OF OUR OWN HANDS DOING,
 WHERE NONE BESIDE US WROUGHT,
 CAUSES SHARP RUING...

                                         SOPHOCLES
 Job cpu time:       0 days  0 hours 11 minutes 28.5 seconds.
 Elapsed time:       0 days  0 hours  0 minutes 21.6 seconds.
 File lengths (MBytes):  RWF=     46 Int=      0 D2E=      0 Chk=      6 Scr=      1
 Normal termination of Gaussian 16 at Tue Nov 22 19:16:11 2022.
