 Entering Gaussian System, Link 0=g16
 Input=_conf016.gjf
 Output=_conf016.log
 Initial command:
 /opt/ap/G16/B01/g16/l1.exe "/tmp2/scr/Gau-19530.inp" -scrdir="/tmp2/scr/"
 Entering Link 1 = /opt/ap/G16/B01/g16/l1.exe PID=     19531.
  
 Copyright (c) 1988-2017, Gaussian, Inc.  All Rights Reserved.
  
 This is part of the Gaussian(R) 16 program.  It is based on
 the Gaussian(R) 09 system (copyright 2009, Gaussian, Inc.),
 the Gaussian(R) 03 system (copyright 2003, Gaussian, Inc.),
 the Gaussian(R) 98 system (copyright 1998, Gaussian, Inc.),
 the Gaussian(R) 94 system (copyright 1995, Gaussian, Inc.),
 the Gaussian 92(TM) system (copyright 1992, Gaussian, Inc.),
 the Gaussian 90(TM) system (copyright 1990, Gaussian, Inc.),
 the Gaussian 88(TM) system (copyright 1988, Gaussian, Inc.),
 the Gaussian 86(TM) system (copyright 1986, Carnegie Mellon
 University), and the Gaussian 82(TM) system (copyright 1983,
 Carnegie Mellon University). Gaussian is a federally registered
 trademark of Gaussian, Inc.
  
 This software contains proprietary and confidential information,
 including trade secrets, belonging to Gaussian, Inc.
  
 This software is provided under written license and may be
 used, copied, transmitted, or stored only in accord with that
 written license.
  
 The following legend is applicable only to US Government
 contracts under FAR:
  
                    RESTRICTED RIGHTS LEGEND
  
 Use, reproduction and disclosure by the US Government is
 subject to restrictions as set forth in subparagraphs (a)
 and (c) of the Commercial Computer Software - Restricted
 Rights clause in FAR 52.227-19.
  
 Gaussian, Inc.
 340 Quinnipiac St., Bldg. 40, Wallingford CT 06492
  
  
 ---------------------------------------------------------------
 Warning -- This program may not be used in any manner that
 competes with the business of Gaussian, Inc. or will provide
 assistance to any competitor of Gaussian, Inc.  The licensee
 of this program is prohibited from giving any competitor of
 Gaussian, Inc. access to this program.  By using this program,
 the user acknowledges that Gaussian, Inc. is engaged in the
 business of creating and licensing software in the field of
 computational chemistry and represents and warrants to the
 licensee that it is not a competitor of Gaussian, Inc. and that
 it will not use this program in any manner prohibited above.
 ---------------------------------------------------------------
  

 Cite this work as:
 Gaussian 16, Revision B.01,
 M. J. Frisch, G. W. Trucks, H. B. Schlegel, G. E. Scuseria, 
 M. A. Robb, J. R. Cheeseman, G. Scalmani, V. Barone, 
 G. A. Petersson, H. Nakatsuji, X. Li, M. Caricato, A. V. Marenich, 
 J. Bloino, B. G. Janesko, R. Gomperts, B. Mennucci, H. P. Hratchian, 
 J. V. Ortiz, A. F. Izmaylov, J. L. Sonnenberg, D. Williams-Young, 
 F. Ding, F. Lipparini, F. Egidi, J. Goings, B. Peng, A. Petrone, 
 T. Henderson, D. Ranasinghe, V. G. Zakrzewski, J. Gao, N. Rega, 
 G. Zheng, W. Liang, M. Hada, M. Ehara, K. Toyota, R. Fukuda, 
 J. Hasegawa, M. Ishida, T. Nakajima, Y. Honda, O. Kitao, H. Nakai, 
 T. Vreven, K. Throssell, J. A. Montgomery, Jr., J. E. Peralta, 
 F. Ogliaro, M. J. Bearpark, J. J. Heyd, E. N. Brothers, K. N. Kudin, 
 V. N. Staroverov, T. A. Keith, R. Kobayashi, J. Normand, 
 K. Raghavachari, A. P. Rendell, J. C. Burant, S. S. Iyengar, 
 J. Tomasi, M. Cossi, J. M. Millam, M. Klene, C. Adamo, R. Cammi, 
 J. W. Ochterski, R. L. Martin, K. Morokuma, O. Farkas, 
 J. B. Foresman, and D. J. Fox, Gaussian, Inc., Wallingford CT, 2016.
 
 ******************************************
 Gaussian 16:  ES64L-G16RevB.01 20-Dec-2017
                22-Nov-2022 
 ******************************************
 %nprocshared=32
 Will use up to   32 processors via shared memory.
 %mem=120GB
 %chk=_conf016.chk
 ----------------------------------------
 #P wB97XD/6-311++G(d,p) scf=maxcycle=512
 ----------------------------------------
 1/38=1,172=1/1;
 2/12=2,17=6,18=5,40=1/2;
 3/5=4,6=6,7=1111,11=2,25=1,30=1,74=-58/1,2,3;
 4//1;
 5/5=2,7=512,38=5/2;
 6/7=2,8=2,9=2,10=2,28=1/1;
 99/5=1,9=1/99;
 Leave Link    1 at Tue Nov 22 19:11:17 2022, MaxMem= 16106127360 cpu:               1.6 elap:               0.1
 (Enter /opt/ap/G16/B01/g16/l101.exe)
 ----------------------------
 _conf016.gjf nmol_natom 1_19
 ----------------------------
 Symbolic Z-matrix:
 Charge =  0 Multiplicity = 1
 C
 C                    1     1.39448 
 C                    1     1.39874  2     119.56697 
 C                    2     1.39066  1     119.42697  3     2.53916  0
 H                    2     0.96213  1     119.80462  3    -177.7987  0
 N                    1     1.41693  2     123.7222  4    -177.74605  0
 C                    3     1.38667  1     120.1876  2    -2.50209  0
 H                    3     0.95673  1     118.82086  2     177.96737  0
 C                    4     1.38269  2     121.03929  1    -0.41221  0
 H                    4     0.98586  2     118.57913  1     178.77373  0
 C                    6     1.35501  1     127.62133  2     17.57863  0
 H                    6     0.89609  1     115.10512  2    -166.41127  0
 H                    7     0.98847  3     119.08118  1    -179.64585  0
 H                    9     0.98451  4     120.53756  2     177.22744  0
 C                    11    1.50275  6     115.46862  1     80.      0
 O                    11    1.23496  6     123.151  1    -100.     0
 H                    15    0.9872   11    107.47092  6    -116.36963  0
 H                    15    0.99976  11    109.69443  6     128.85346  0
 H                    15    0.97696  11    114.37009  6     6.05303  0
 
 ITRead=  0  0  0  0  0  0  0  0  0  0  0  0  0  0  0  0  0  0  0
 MicOpt= -1 -1 -1 -1 -1 -1 -1 -1 -1 -1 -1 -1 -1 -1 -1 -1 -1 -1 -1
 NAtoms=     19 NQM=       19 NQMF=       0 NMMI=      0 NMMIF=      0
                NMic=       0 NMicF=      0.
                    Isotopes and Nuclear Properties:
 (Nuclear quadrupole moments (NQMom) in fm**2, nuclear magnetic moments (NMagM)
  in nuclear magnetons)

  Atom         1           2           3           4           5           6           7           8           9          10
 IAtWgt=          12          12          12          12           1          14          12           1          12           1
 AtmWgt=  12.0000000  12.0000000  12.0000000  12.0000000   1.0078250  14.0030740  12.0000000   1.0078250  12.0000000   1.0078250
 NucSpn=           0           0           0           0           1           2           0           1           0           1
 AtZEff=  -0.0000000  -0.0000000  -0.0000000  -0.0000000  -0.0000000  -0.0000000  -0.0000000  -0.0000000  -0.0000000  -0.0000000
 NQMom=    0.0000000   0.0000000   0.0000000   0.0000000   0.0000000   2.0440000   0.0000000   0.0000000   0.0000000   0.0000000
 NMagM=    0.0000000   0.0000000   0.0000000   0.0000000   2.7928460   0.4037610   0.0000000   2.7928460   0.0000000   2.7928460
 AtZNuc=   6.0000000   6.0000000   6.0000000   6.0000000   1.0000000   7.0000000   6.0000000   1.0000000   6.0000000   1.0000000

  Atom        11          12          13          14          15          16          17          18          19
 IAtWgt=          12           1           1           1          12          16           1           1           1
 AtmWgt=  12.0000000   1.0078250   1.0078250   1.0078250  12.0000000  15.9949146   1.0078250   1.0078250   1.0078250
 NucSpn=           0           1           1           1           0           0           1           1           1
 AtZEff=  -0.0000000  -0.0000000  -0.0000000  -0.0000000  -0.0000000  -0.0000000  -0.0000000  -0.0000000  -0.0000000
 NQMom=    0.0000000   0.0000000   0.0000000   0.0000000   0.0000000   0.0000000   0.0000000   0.0000000   0.0000000
 NMagM=    0.0000000   2.7928460   2.7928460   2.7928460   0.0000000   0.0000000   2.7928460   2.7928460   2.7928460
 AtZNuc=   6.0000000   1.0000000   1.0000000   1.0000000   6.0000000   8.0000000   1.0000000   1.0000000   1.0000000
 Leave Link  101 at Tue Nov 22 19:11:17 2022, MaxMem= 16106127360 cpu:               5.1 elap:               0.2
 (Enter /opt/ap/G16/B01/g16/l202.exe)
                          Input orientation:                          
 ---------------------------------------------------------------------
 Center     Atomic      Atomic             Coordinates (Angstroms)
 Number     Number       Type             X           Y           Z
 ---------------------------------------------------------------------
      1          6           0        0.000000    0.000000    0.000000
      2          6           0        0.000000    0.000000    1.394475
      3          6           0        1.216591    0.000000   -0.690193
      4          6           0        1.210053    0.053661    2.077726
      5          1           0       -0.834249   -0.032067    1.872696
      6          7           0       -1.178505   -0.005866   -0.786634
      7          6           0        2.413939    0.052326    0.007287
      8          1           0        1.204393   -0.029731   -1.646384
      9          6           0        2.412261    0.098442    1.396177
     10          1           0        1.194755    0.071528    3.063305
     11          6           0       -2.436085    0.312014   -0.394861
     12          1           0       -1.055905   -0.195907   -1.653721
     13          1           0        3.263999    0.056828   -0.497149
     14          1           0        3.262484    0.177260    1.886251
     15          6           0       -2.739275    1.782246   -0.326023
     16          8           0       -3.288869   -0.534488   -0.109674
     17          1           0       -2.934536    2.000774    0.616675
     18          1           0       -3.578479    1.977306   -0.833179
     19          1           0       -2.024205    2.357434   -0.661116
 ---------------------------------------------------------------------
                    Distance matrix (angstroms):
                    1          2          3          4          5
     1  C    0.000000
     2  C    1.394475   0.000000
     3  C    1.398735   2.413697   0.000000
     4  C    2.405006   1.390661   2.768447   0.000000
     5  H    2.050363   0.962130   3.282586   2.056345   0.000000
     6  N    1.416934   2.479142   2.397044   3.730055   2.681648
     7  C    2.414517   2.784624   1.386671   2.395008   3.746678
     8  H    2.040105   3.270821   0.956732   3.725048   4.066939
     9  C    2.788908   2.414270   2.406711   1.382686   3.283889
    10  H    3.288829   2.053668   3.754243   0.985860   2.354812
    11  C    2.487525   3.038682   3.677855   4.413021   2.797515
    12  H    1.971829   3.231844   2.476087   4.372705   3.537173
    13  H    3.302132   3.772951   2.057273   3.293734   4.734944
    14  H    3.772687   3.304099   3.294718   2.065046   4.102100
    15  C    3.284253   3.693256   4.354067   4.935910   3.428589
    16  O    3.333822   3.655790   4.574041   5.036957   3.194899
    17  H    3.604842   3.635873   4.789870   4.806614   3.181390
    18  H    4.172462   4.655932   5.188727   5.924848   4.346280
    19  H    3.176787   3.725635   4.007630   4.823801   3.680478
                    6          7          8          9         10
     6  N    0.000000
     7  C    3.679585   0.000000
     8  H    2.533365   2.050454   0.000000
     9  C    4.203468   1.389657   3.276058   0.000000
    10  H    4.523316   3.290292   4.710788   2.064548   0.000000
    11  C    1.355007   4.873592   3.864736   5.172997   5.019935
    12  H    0.896095   3.854917   2.266411   4.627818   5.233291
    13  H    4.452366   0.988472   2.360129   2.076505   4.118108
    14  H    5.186544   2.065465   4.093666   0.984512   2.381625
    15  C    2.417750   5.446038   4.536423   5.686782   5.467238
    16  O    2.278455   5.734113   4.775528   5.930521   5.526114
    17  H    3.013226   5.724857   5.135671   5.728414   5.172914
    18  H    3.113683   6.349882   5.250273   6.662517   6.449678
    19  H    2.513196   5.045533   4.134387   5.386811   5.427558
                   11         12         13         14         15
    11  C    0.000000
    12  H    1.935874   0.000000
    13  H    5.706710   4.479186   0.000000
    14  H    6.139652   5.596351   2.386441   0.000000
    15  C    1.502746   2.917123   6.248651   6.594790   0.000000
    16  O    1.234965   2.735845   6.590893   6.885531   2.390840
    17  H    2.030657   3.675508   6.591006   6.583319   0.987198
    18  H    2.066491   3.429217   7.114820   7.578539   0.999760
    19  H    2.103397   2.905585   5.769296   6.260297   0.976962
                   16         17         18         19
    16  O    0.000000
    17  H    2.660956   0.000000
    18  H    2.629913   1.586598   0.000000
    19  H    3.204166   1.608931   1.609308   0.000000
 Stoichiometry    C8H9NO
 Framework group  C1[X(C8H9NO)]
 Deg. of freedom    51
 Full point group                 C1      NOp   1
 Largest Abelian subgroup         C1      NOp   1
 Largest concise Abelian subgroup C1      NOp   1
                         Standard orientation:                         
 ---------------------------------------------------------------------
 Center     Atomic      Atomic             Coordinates (Angstroms)
 Number     Number       Type             X           Y           Z
 ---------------------------------------------------------------------
      1          6           0       -0.278952   -0.308881   -0.188546
      2          6           0       -0.632269    1.040029   -0.175483
      3          6           0       -1.274787   -1.284339   -0.073428
      4          6           0       -1.964486    1.395665    0.005237
      5          1           0        0.046175    1.713180   -0.286281
      6          7           0        1.053835   -0.771725   -0.319528
      7          6           0       -2.598515   -0.911747    0.104828
      8          1           0       -1.023724   -2.206686   -0.113185
      9          6           0       -2.944236    0.432937    0.163553
     10          1           0       -2.197711    2.353201    0.030717
     11          6           0        2.196208   -0.069379   -0.125262
     12          1           0        1.136731   -1.644597   -0.504480
     13          1           0       -3.288262   -1.614706    0.189534
     14          1           0       -3.878757    0.693161    0.331533
     15          6           0        2.616136    0.097897    1.307889
     16          8           0        2.860733    0.408455   -1.050043
     17          1           0        2.586826    1.062760    1.514630
     18          1           0        3.571508   -0.177174    1.413345
     19          1           0        2.069905   -0.397793    1.948496
 ---------------------------------------------------------------------
 Rotational constants (GHZ):           3.3532908           0.7777155           0.7201328
 Leave Link  202 at Tue Nov 22 19:11:17 2022, MaxMem= 16106127360 cpu:               0.7 elap:               0.0
 (Enter /opt/ap/G16/B01/g16/l301.exe)
 Standard basis: 6-311++G(d,p) (5D, 7F)
 Ernie: Thresh=  0.10000D-02 Tol=  0.10000D-05 Strict=F.
 There are   293 symmetry adapted cartesian basis functions of A   symmetry.
 There are   283 symmetry adapted basis functions of A   symmetry.
   283 basis functions,   441 primitive gaussians,   293 cartesian basis functions
    36 alpha electrons       36 beta electrons
       nuclear repulsion energy       491.5143608869 Hartrees.
 IExCor= 4639 DFT=T Ex+Corr=wB97XD ExCW=0 ScaHFX=  1.000000
 ScaDFX=  1.000000  1.000000  1.000000  1.000000 ScalE2=  1.000000  1.000000
 IRadAn=      5 IRanWt=     -1 IRanGd=            0 ICorTp=0 IEmpDi=121
 HFx  wShort=  0.000000 wLong=  0.200000 cFull=  0.222036 cShort=  0.000000 cLong=  0.777964
 DFx  wShort=  0.000000 wLong=  0.200000 cFull=  0.000000 cShort=  0.000000 cLong=  1.000000
 NAtoms=   19 NActive=   19 NUniq=   19 SFac= 1.00D+00 NAtFMM=   60 NAOKFM=F Big=F
 Integral buffers will be    131072 words long.
 Raffenetti 2 integral format.
 Two-electron integral symmetry is turned on.
 R6Disp:  Grimme-D2 Dispersion energy=       -0.0096826401 Hartrees.
 Nuclear repulsion after empirical dispersion term =      491.5046782467 Hartrees.
 Leave Link  301 at Tue Nov 22 19:11:17 2022, MaxMem= 16106127360 cpu:               2.0 elap:               0.1
 (Enter /opt/ap/G16/B01/g16/l302.exe)
 NPDir=0 NMtPBC=     1 NCelOv=     1 NCel=       1 NClECP=     1 NCelD=      1
         NCelK=      1 NCelE2=     1 NClLst=     1 CellRange=     0.0.
 One-electron integrals computed using PRISM.
 One-electron integral symmetry used in STVInt
 NBasis=   283 RedAO= T EigKep=  2.54D-06  NBF=   283
 NBsUse=   282 1.00D-06 EigRej=  8.21D-07 NBFU=   282
 Precomputing XC quadrature grid using
 IXCGrd= 4 IRadAn=           5 IRanWt=          -1 IRanGd=           0 AccXCQ= 0.00D+00.
 Generated NRdTot=       0 NPtTot=           0 NUsed=           0 NTot=          32
 NSgBfM=   293   293   293   293   293 MxSgAt=    19 MxSgA2=    19.
 Leave Link  302 at Tue Nov 22 19:11:17 2022, MaxMem= 16106127360 cpu:               6.2 elap:               0.2
 (Enter /opt/ap/G16/B01/g16/l303.exe)
 DipDrv:  MaxL=1.
 Leave Link  303 at Tue Nov 22 19:11:17 2022, MaxMem= 16106127360 cpu:               1.4 elap:               0.0
 (Enter /opt/ap/G16/B01/g16/l401.exe)
 ExpMin= 3.60D-02 ExpMax= 8.59D+03 ExpMxC= 1.30D+03 IAcc=3 IRadAn=         5 AccDes= 0.00D+00
 Harris functional with IExCor= 4639 and IRadAn=       5 diagonalized for initial guess.
 HarFok:  IExCor= 4639 AccDes= 0.00D+00 IRadAn=         5 IDoV= 1 UseB2=F ITyADJ=14
 ICtDFT=  3500011 ScaDFX=  1.000000  1.000000  1.000000  1.000000
 FoFCou: FMM=F IPFlag=           0 FMFlag=      100000 FMFlg1=           0
         NFxFlg=           0 DoJE=T BraDBF=F KetDBF=T FulRan=T
         wScrn=  0.000000 ICntrl=       500 IOpCl=  0 I1Cent=   200000004 NGrid=           0
         NMat0=    1 NMatS0=      1 NMatT0=    0 NMatD0=    1 NMtDS0=    0 NMtDT0=    0
 Petite list used in FoFCou.
 Harris En= -420.961096759642    
 JPrj=0 DoOrth=F DoCkMO=F.
 Leave Link  401 at Tue Nov 22 19:11:18 2022, MaxMem= 16106127360 cpu:              15.4 elap:               0.5
 (Enter /opt/ap/G16/B01/g16/l502.exe)
 Integral symmetry usage will be decided dynamically.
 Closed shell SCF:
 Using DIIS extrapolation, IDIIS=  1040.
 NGot= 16106127360 LenX= 16105943385 LenY= 16105857095
 Requested convergence on RMS density matrix=1.00D-08 within 512 cycles.
 Requested convergence on MAX density matrix=1.00D-06.
 Requested convergence on             energy=1.00D-06.
 No special actions if energy rises.
 Fock matrices will be formed incrementally for  20 cycles.

 Cycle   1  Pass 1  IDiag  1:
 FoFJK:  IHMeth= 1 ICntrl=       0 DoSepK=T KAlg= 0 I1Cent=           0 FoldK=F
 IRaf=         1 NMat=       1 IRICut=       1 DoRegI=T DoRafI=F ISym2E= 0 IDoP0=0 IntGTp=1.
 FoFCou: FMM=F IPFlag=           0 FMFlag=      100000 FMFlg1=           0
         NFxFlg=           0 DoJE=T BraDBF=F KetDBF=F FulRan=T
         wScrn=  0.000000 ICntrl=       500 IOpCl=  0 I1Cent=           0 NGrid=           0
         NMat0=    1 NMatS0=      1 NMatT0=    0 NMatD0=    1 NMtDS0=    0 NMtDT0=    0
 Symmetry not used in FoFCou.
 E= -439.945262722748    
 DIIS: error= 5.10D-02 at cycle   1 NSaved=   1.
 NSaved= 1 IEnMin= 1 EnMin= -439.945262722748     IErMin= 1 ErrMin= 5.10D-02
 ErrMax= 5.10D-02  0.00D+00 EMaxC= 1.00D-01 BMatC= 9.55D-01 BMatP= 9.55D-01
 IDIUse=3 WtCom= 4.90D-01 WtEn= 5.10D-01
 Coeff-Com:  0.100D+01
 Coeff-En:   0.100D+01
 Coeff:      0.100D+01
 Gap=     0.429 Goal=   None    Shift=    0.000
 GapD=    0.429 DampG=2.000 DampE=0.500 DampFc=1.0000 IDamp=-1.
 RMSDP=9.26D-03 MaxDP=8.55D-01              OVMax= 1.67D-01

 Cycle   2  Pass 1  IDiag  1:
 RMSU=  6.45D-03    CP:  7.99D-01
 E= -440.030644705288     Delta-E=       -0.085381982541 Rises=F Damp=F
 DIIS: error= 1.24D-02 at cycle   2 NSaved=   2.
 NSaved= 2 IEnMin= 2 EnMin= -440.030644705288     IErMin= 2 ErrMin= 1.24D-02
 ErrMax= 1.24D-02  0.00D+00 EMaxC= 1.00D-01 BMatC= 8.94D-02 BMatP= 9.55D-01
 IDIUse=3 WtCom= 8.76D-01 WtEn= 1.24D-01
 Coeff-Com:  0.165D+00 0.835D+00
 Coeff-En:   0.235D+00 0.765D+00
 Coeff:      0.174D+00 0.826D+00
 Gap=     0.397 Goal=   None    Shift=    0.000
 RMSDP=6.20D-03 MaxDP=4.22D-01 DE=-8.54D-02 OVMax= 1.26D-01

 Cycle   3  Pass 1  IDiag  1:
 RMSU=  3.98D-03    CP:  6.81D-01  5.73D-01
 E= -440.076118176192     Delta-E=       -0.045473470904 Rises=F Damp=F
 DIIS: error= 8.60D-03 at cycle   3 NSaved=   3.
 NSaved= 3 IEnMin= 3 EnMin= -440.076118176192     IErMin= 3 ErrMin= 8.60D-03
 ErrMax= 8.60D-03  0.00D+00 EMaxC= 1.00D-01 BMatC= 3.64D-02 BMatP= 8.94D-02
 IDIUse=3 WtCom= 9.14D-01 WtEn= 8.60D-02
 Coeff-Com:  0.239D-01 0.395D+00 0.582D+00
 Coeff-En:   0.000D+00 0.282D+00 0.718D+00
 Coeff:      0.218D-01 0.385D+00 0.593D+00
 Gap=     0.353 Goal=   None    Shift=    0.000
 RMSDP=1.59D-03 MaxDP=4.87D-02 DE=-4.55D-02 OVMax= 7.27D-02

 Cycle   4  Pass 1  IDiag  1:
 RMSU=  7.69D-04    CP:  6.82D-01  7.20D-01  7.44D-01
 E= -440.108836313075     Delta-E=       -0.032718136882 Rises=F Damp=F
 DIIS: error= 2.29D-03 at cycle   4 NSaved=   4.
 NSaved= 4 IEnMin= 4 EnMin= -440.108836313075     IErMin= 4 ErrMin= 2.29D-03
 ErrMax= 2.29D-03  0.00D+00 EMaxC= 1.00D-01 BMatC= 8.88D-04 BMatP= 3.64D-02
 IDIUse=3 WtCom= 9.77D-01 WtEn= 2.29D-02
 Coeff-Com:  0.787D-02 0.157D+00 0.269D+00 0.566D+00
 Coeff-En:   0.000D+00 0.000D+00 0.000D+00 0.100D+01
 Coeff:      0.769D-02 0.154D+00 0.263D+00 0.576D+00
 Gap=     0.316 Goal=   None    Shift=    0.000
 RMSDP=2.52D-04 MaxDP=1.25D-02 DE=-3.27D-02 OVMax= 8.41D-03

 Cycle   5  Pass 1  IDiag  1:
 RMSU=  1.80D-04    CP:  6.79D-01  7.20D-01  7.73D-01  8.89D-01
 E= -440.109603333599     Delta-E=       -0.000767020525 Rises=F Damp=F
 DIIS: error= 3.26D-04 at cycle   5 NSaved=   5.
 NSaved= 5 IEnMin= 5 EnMin= -440.109603333599     IErMin= 5 ErrMin= 3.26D-04
 ErrMax= 3.26D-04  0.00D+00 EMaxC= 1.00D-01 BMatC= 2.43D-05 BMatP= 8.88D-04
 IDIUse=3 WtCom= 9.97D-01 WtEn= 3.26D-03
 Coeff-Com: -0.106D-02-0.172D-01-0.163D-01 0.947D-01 0.940D+00
 Coeff-En:   0.000D+00 0.000D+00 0.000D+00 0.000D+00 0.100D+01
 Coeff:     -0.106D-02-0.171D-01-0.162D-01 0.944D-01 0.940D+00
 Gap=     0.317 Goal=   None    Shift=    0.000
 RMSDP=1.15D-04 MaxDP=6.67D-03 DE=-7.67D-04 OVMax= 3.84D-03

 Cycle   6  Pass 1  IDiag  1:
 RMSU=  7.41D-05    CP:  6.77D-01  7.19D-01  7.84D-01  9.34D-01  1.14D+00
 E= -440.109634229133     Delta-E=       -0.000030895534 Rises=F Damp=F
 DIIS: error= 2.14D-04 at cycle   6 NSaved=   6.
 NSaved= 6 IEnMin= 6 EnMin= -440.109634229133     IErMin= 6 ErrMin= 2.14D-04
 ErrMax= 2.14D-04  0.00D+00 EMaxC= 1.00D-01 BMatC= 1.21D-05 BMatP= 2.43D-05
 IDIUse=3 WtCom= 9.98D-01 WtEn= 2.14D-03
 Coeff-Com: -0.121D-02-0.210D-01-0.274D-01 0.125D-01 0.531D+00 0.506D+00
 Coeff-En:   0.000D+00 0.000D+00 0.000D+00 0.000D+00 0.000D+00 0.100D+01
 Coeff:     -0.121D-02-0.209D-01-0.273D-01 0.124D-01 0.530D+00 0.507D+00
 Gap=     0.318 Goal=   None    Shift=    0.000
 RMSDP=5.19D-05 MaxDP=4.18D-03 DE=-3.09D-05 OVMax= 6.91D-04

 Cycle   7  Pass 1  IDiag  1:
 RMSU=  2.02D-05    CP:  6.76D-01  7.18D-01  7.88D-01  9.49D-01  1.24D+00
                    CP:  1.03D+00
 E= -440.109644509047     Delta-E=       -0.000010279914 Rises=F Damp=F
 DIIS: error= 5.23D-05 at cycle   7 NSaved=   7.
 NSaved= 7 IEnMin= 7 EnMin= -440.109644509047     IErMin= 7 ErrMin= 5.23D-05
 ErrMax= 5.23D-05  0.00D+00 EMaxC= 1.00D-01 BMatC= 5.66D-07 BMatP= 1.21D-05
 IDIUse=1 WtCom= 1.00D+00 WtEn= 0.00D+00
 Coeff-Com: -0.228D-03-0.448D-02-0.582D-02-0.131D-01 0.139D-01 0.128D+00
 Coeff-Com:  0.882D+00
 Coeff:     -0.228D-03-0.448D-02-0.582D-02-0.131D-01 0.139D-01 0.128D+00
 Coeff:      0.882D+00
 Gap=     0.318 Goal=   None    Shift=    0.000
 RMSDP=1.78D-05 MaxDP=7.87D-04 DE=-1.03D-05 OVMax= 6.25D-04

 Cycle   8  Pass 1  IDiag  1:
 RMSU=  9.52D-06    CP:  6.76D-01  7.17D-01  7.89D-01  9.55D-01  1.29D+00
                    CP:  1.14D+00  9.97D-01
 E= -440.109645623710     Delta-E=       -0.000001114663 Rises=F Damp=F
 DIIS: error= 2.13D-05 at cycle   8 NSaved=   8.
 NSaved= 8 IEnMin= 8 EnMin= -440.109645623710     IErMin= 8 ErrMin= 2.13D-05
 ErrMax= 2.13D-05  0.00D+00 EMaxC= 1.00D-01 BMatC= 2.25D-07 BMatP= 5.66D-07
 IDIUse=1 WtCom= 1.00D+00 WtEn= 0.00D+00
 Coeff-Com:  0.887D-04 0.121D-02 0.170D-02-0.103D-01-0.932D-01-0.392D-01
 Coeff-Com:  0.464D+00 0.676D+00
 Coeff:      0.887D-04 0.121D-02 0.170D-02-0.103D-01-0.932D-01-0.392D-01
 Coeff:      0.464D+00 0.676D+00
 Gap=     0.318 Goal=   None    Shift=    0.000
 RMSDP=8.37D-06 MaxDP=4.72D-04 DE=-1.11D-06 OVMax= 3.25D-04

 Cycle   9  Pass 1  IDiag  1:
 RMSU=  4.23D-06    CP:  6.76D-01  7.17D-01  7.90D-01  9.57D-01  1.31D+00
                    CP:  1.18D+00  1.10D+00  1.24D+00
 E= -440.109645914844     Delta-E=       -0.000000291133 Rises=F Damp=F
 DIIS: error= 1.10D-05 at cycle   9 NSaved=   9.
 NSaved= 9 IEnMin= 9 EnMin= -440.109645914844     IErMin= 9 ErrMin= 1.10D-05
 ErrMax= 1.10D-05  0.00D+00 EMaxC= 1.00D-01 BMatC= 8.43D-09 BMatP= 2.25D-07
 IDIUse=1 WtCom= 1.00D+00 WtEn= 0.00D+00
 Coeff-Com:  0.497D-04 0.849D-03 0.126D-02-0.342D-03-0.198D-01-0.269D-01
 Coeff-Com:  0.446D-03 0.117D+00 0.928D+00
 Coeff:      0.497D-04 0.849D-03 0.126D-02-0.342D-03-0.198D-01-0.269D-01
 Coeff:      0.446D-03 0.117D+00 0.928D+00
 Gap=     0.318 Goal=   None    Shift=    0.000
 RMSDP=3.36D-06 MaxDP=1.79D-04 DE=-2.91D-07 OVMax= 1.11D-04

 Cycle  10  Pass 1  IDiag  1:
 RMSU=  1.73D-06    CP:  6.76D-01  7.17D-01  7.90D-01  9.55D-01  1.31D+00
                    CP:  1.18D+00  1.12D+00  1.40D+00  1.49D+00
 E= -440.109645938579     Delta-E=       -0.000000023735 Rises=F Damp=F
 DIIS: error= 2.62D-06 at cycle  10 NSaved=  10.
 NSaved=10 IEnMin=10 EnMin= -440.109645938579     IErMin=10 ErrMin= 2.62D-06
 ErrMax= 2.62D-06  0.00D+00 EMaxC= 1.00D-01 BMatC= 9.82D-10 BMatP= 8.43D-09
 IDIUse=1 WtCom= 1.00D+00 WtEn= 0.00D+00
 Coeff-Com:  0.296D-06 0.586D-04 0.131D-03 0.115D-02 0.657D-02-0.728D-03
 Coeff-Com: -0.478D-01-0.634D-01 0.147D+00 0.957D+00
 Coeff:      0.296D-06 0.586D-04 0.131D-03 0.115D-02 0.657D-02-0.728D-03
 Coeff:     -0.478D-01-0.634D-01 0.147D+00 0.957D+00
 Gap=     0.318 Goal=   None    Shift=    0.000
 RMSDP=1.55D-06 MaxDP=7.43D-05 DE=-2.37D-08 OVMax= 4.64D-05

 Cycle  11  Pass 1  IDiag  1:
 RMSU=  5.67D-07    CP:  6.76D-01  7.17D-01  7.90D-01  9.55D-01  1.31D+00
                    CP:  1.17D+00  1.12D+00  1.47D+00  1.72D+00  1.32D+00
 E= -440.109645941876     Delta-E=       -0.000000003297 Rises=F Damp=F
 DIIS: error= 9.00D-07 at cycle  11 NSaved=  11.
 NSaved=11 IEnMin=11 EnMin= -440.109645941876     IErMin=11 ErrMin= 9.00D-07
 ErrMax= 9.00D-07  0.00D+00 EMaxC= 1.00D-01 BMatC= 1.50D-10 BMatP= 9.82D-10
 IDIUse=1 WtCom= 1.00D+00 WtEn= 0.00D+00
 Coeff-Com: -0.439D-05-0.697D-04-0.819D-04 0.336D-03 0.343D-02 0.290D-02
 Coeff-Com: -0.104D-01-0.275D-01-0.724D-01 0.202D+00 0.902D+00
 Coeff:     -0.439D-05-0.697D-04-0.819D-04 0.336D-03 0.343D-02 0.290D-02
 Coeff:     -0.104D-01-0.275D-01-0.724D-01 0.202D+00 0.902D+00
 Gap=     0.318 Goal=   None    Shift=    0.000
 RMSDP=6.25D-07 MaxDP=3.28D-05 DE=-3.30D-09 OVMax= 1.44D-05

 Cycle  12  Pass 1  IDiag  1:
 RMSU=  1.32D-07    CP:  6.76D-01  7.17D-01  7.90D-01  9.55D-01  1.31D+00
                    CP:  1.17D+00  1.12D+00  1.49D+00  1.79D+00  1.52D+00
                    CP:  1.35D+00
 E= -440.109645942305     Delta-E=       -0.000000000429 Rises=F Damp=F
 DIIS: error= 3.69D-07 at cycle  12 NSaved=  12.
 NSaved=12 IEnMin=12 EnMin= -440.109645942305     IErMin=12 ErrMin= 3.69D-07
 ErrMax= 3.69D-07  0.00D+00 EMaxC= 1.00D-01 BMatC= 2.03D-11 BMatP= 1.50D-10
 IDIUse=1 WtCom= 1.00D+00 WtEn= 0.00D+00
 Coeff-Com: -0.793D-06-0.219D-04-0.318D-04-0.101D-03-0.472D-03 0.897D-03
 Coeff-Com:  0.518D-02 0.467D-02-0.373D-01-0.910D-01 0.200D+00 0.918D+00
 Coeff:     -0.793D-06-0.219D-04-0.318D-04-0.101D-03-0.472D-03 0.897D-03
 Coeff:      0.518D-02 0.467D-02-0.373D-01-0.910D-01 0.200D+00 0.918D+00
 Gap=     0.318 Goal=   None    Shift=    0.000
 RMSDP=1.84D-07 MaxDP=1.23D-05 DE=-4.29D-10 OVMax= 6.32D-06

 Cycle  13  Pass 1  IDiag  1:
 RMSU=  6.45D-08    CP:  6.76D-01  7.17D-01  7.90D-01  9.55D-01  1.31D+00
                    CP:  1.17D+00  1.12D+00  1.49D+00  1.80D+00  1.57D+00
                    CP:  1.48D+00  1.21D+00
 E= -440.109645942368     Delta-E=       -0.000000000062 Rises=F Damp=F
 DIIS: error= 1.74D-07 at cycle  13 NSaved=  13.
 NSaved=13 IEnMin=13 EnMin= -440.109645942368     IErMin=13 ErrMin= 1.74D-07
 ErrMax= 1.74D-07  0.00D+00 EMaxC= 1.00D-01 BMatC= 2.87D-12 BMatP= 2.03D-11
 IDIUse=1 WtCom= 1.00D+00 WtEn= 0.00D+00
 Coeff-Com:  0.244D-06 0.236D-05 0.138D-05-0.586D-04-0.509D-03-0.477D-04
 Coeff-Com:  0.222D-02 0.419D-02-0.896D-03-0.427D-01-0.692D-01 0.217D+00
 Coeff-Com:  0.890D+00
 Coeff:      0.244D-06 0.236D-05 0.138D-05-0.586D-04-0.509D-03-0.477D-04
 Coeff:      0.222D-02 0.419D-02-0.896D-03-0.427D-01-0.692D-01 0.217D+00
 Coeff:      0.890D+00
 Gap=     0.318 Goal=   None    Shift=    0.000
 RMSDP=6.26D-08 MaxDP=5.08D-06 DE=-6.24D-11 OVMax= 2.68D-06

 Cycle  14  Pass 1  IDiag  1:
 RMSU=  1.90D-08    CP:  6.76D-01  7.17D-01  7.90D-01  9.55D-01  1.31D+00
                    CP:  1.17D+00  1.12D+00  1.48D+00  1.80D+00  1.58D+00
                    CP:  1.52D+00  1.34D+00  1.39D+00
 E= -440.109645942382     Delta-E=       -0.000000000015 Rises=F Damp=F
 DIIS: error= 7.84D-08 at cycle  14 NSaved=  14.
 NSaved=14 IEnMin=14 EnMin= -440.109645942382     IErMin=14 ErrMin= 7.84D-08
 ErrMax= 7.84D-08  0.00D+00 EMaxC= 1.00D-01 BMatC= 3.77D-13 BMatP= 2.87D-12
 IDIUse=1 WtCom= 1.00D+00 WtEn= 0.00D+00
 Coeff-Com:  0.917D-07 0.242D-05 0.304D-05 0.673D-05 0.125D-04-0.952D-04
 Coeff-Com: -0.471D-03-0.194D-03 0.413D-02 0.758D-02-0.377D-01-0.962D-01
 Coeff-Com:  0.147D+00 0.975D+00
 Coeff:      0.917D-07 0.242D-05 0.304D-05 0.673D-05 0.125D-04-0.952D-04
 Coeff:     -0.471D-03-0.194D-03 0.413D-02 0.758D-02-0.377D-01-0.962D-01
 Coeff:      0.147D+00 0.975D+00
 Gap=     0.318 Goal=   None    Shift=    0.000
 RMSDP=1.98D-08 MaxDP=1.20D-06 DE=-1.47D-11 OVMax= 1.26D-06

 Cycle  15  Pass 1  IDiag  1:
 RMSU=  7.66D-09    CP:  6.76D-01  7.17D-01  7.90D-01  9.55D-01  1.31D+00
                    CP:  1.17D+00  1.12D+00  1.48D+00  1.80D+00  1.58D+00
                    CP:  1.53D+00  1.38D+00  1.57D+00  1.33D+00
 E= -440.109645942383     Delta-E=       -0.000000000000 Rises=F Damp=F
 DIIS: error= 3.47D-08 at cycle  15 NSaved=  15.
 NSaved=15 IEnMin=15 EnMin= -440.109645942383     IErMin=15 ErrMin= 3.47D-08
 ErrMax= 3.47D-08  0.00D+00 EMaxC= 1.00D-01 BMatC= 6.93D-14 BMatP= 3.77D-13
 IDIUse=1 WtCom= 1.00D+00 WtEn= 0.00D+00
 Coeff-Com: -0.219D-07 0.906D-07 0.416D-06 0.119D-04 0.872D-04-0.334D-05
 Coeff-Com: -0.453D-03-0.679D-03 0.781D-03 0.948D-02 0.771D-02-0.565D-01
 Coeff-Com: -0.131D+00 0.158D+00 0.101D+01
 Coeff:     -0.219D-07 0.906D-07 0.416D-06 0.119D-04 0.872D-04-0.334D-05
 Coeff:     -0.453D-03-0.679D-03 0.781D-03 0.948D-02 0.771D-02-0.565D-01
 Coeff:     -0.131D+00 0.158D+00 0.101D+01
 Gap=     0.318 Goal=   None    Shift=    0.000
 RMSDP=1.00D-08 MaxDP=4.97D-07 DE=-3.41D-13 OVMax= 5.82D-07

 Cycle  16  Pass 1  IDiag  1:
 RMSU=  3.22D-09    CP:  6.76D-01  7.17D-01  7.90D-01  9.55D-01  1.31D+00
                    CP:  1.17D+00  1.12D+00  1.48D+00  1.80D+00  1.58D+00
                    CP:  1.52D+00  1.40D+00  1.65D+00  1.51D+00  1.39D+00
 E= -440.109645942381     Delta-E=        0.000000000002 Rises=F Damp=F
 DIIS: error= 1.18D-08 at cycle  16 NSaved=  16.
 NSaved=16 IEnMin=15 EnMin= -440.109645942383     IErMin=16 ErrMin= 1.18D-08
 ErrMax= 1.18D-08  0.00D+00 EMaxC= 1.00D-01 BMatC= 9.92D-15 BMatP= 6.93D-14
 IDIUse=1 WtCom= 1.00D+00 WtEn= 0.00D+00
 Coeff-Com: -0.155D-07-0.282D-06-0.304D-06 0.205D-05 0.176D-04 0.844D-05
 Coeff-Com: -0.367D-04-0.110D-03-0.468D-03 0.801D-03 0.662D-02-0.150D-02
 Coeff-Com: -0.507D-01-0.974D-01 0.208D+00 0.935D+00
 Coeff:     -0.155D-07-0.282D-06-0.304D-06 0.205D-05 0.176D-04 0.844D-05
 Coeff:     -0.367D-04-0.110D-03-0.468D-03 0.801D-03 0.662D-02-0.150D-02
 Coeff:     -0.507D-01-0.974D-01 0.208D+00 0.935D+00
 Gap=     0.318 Goal=   None    Shift=    0.000
 RMSDP=3.86D-09 MaxDP=2.35D-07 DE= 1.71D-12 OVMax= 2.15D-07

 SCF Done:  E(RwB97XD) =  -440.109645942     A.U. after   16 cycles
            NFock= 16  Conv=0.39D-08     -V/T= 2.0001
 KE= 4.400483099575D+02 PE=-2.009167069605D+03 EE= 6.375044354580D+02
 Leave Link  502 at Tue Nov 22 19:11:38 2022, MaxMem= 16106127360 cpu:             634.4 elap:              19.9
 (Enter /opt/ap/G16/B01/g16/l601.exe)
 Copying SCF densities to generalized density rwf, IOpCl= 0 IROHF=0.

 **********************************************************************

            Population analysis using the SCF Density.

 **********************************************************************

 Orbital symmetries:
       Occupied  (A) (A) (A) (A) (A) (A) (A) (A) (A) (A) (A) (A)
                 (A) (A) (A) (A) (A) (A) (A) (A) (A) (A) (A) (A)
                 (A) (A) (A) (A) (A) (A) (A) (A) (A) (A) (A) (A)
       Virtual   (A) (A) (A) (A) (A) (A) (A) (A) (A) (A) (A) (A)
                 (A) (A) (A) (A) (A) (A) (A) (A) (A) (A) (A) (A)
                 (A) (A) (A) (A) (A) (A) (A) (A) (A) (A) (A) (A)
                 (A) (A) (A) (A) (A) (A) (A) (A) (A) (A) (A) (A)
                 (A) (A) (A) (A) (A) (A) (A) (A) (A) (A) (A) (A)
                 (A) (A) (A) (A) (A) (A) (A) (A) (A) (A) (A) (A)
                 (A) (A) (A) (A) (A) (A) (A) (A) (A) (A) (A) (A)
                 (A) (A) (A) (A) (A) (A) (A) (A) (A) (A) (A) (A)
                 (A) (A) (A) (A) (A) (A) (A) (A) (A) (A) (A) (A)
                 (A) (A) (A) (A) (A) (A) (A) (A) (A) (A) (A) (A)
                 (A) (A) (A) (A) (A) (A) (A) (A) (A) (A) (A) (A)
                 (A) (A) (A) (A) (A) (A) (A) (A) (A) (A) (A) (A)
                 (A) (A) (A) (A) (A) (A) (A) (A) (A) (A) (A) (A)
                 (A) (A) (A) (A) (A) (A) (A) (A) (A) (A) (A) (A)
                 (A) (A) (A) (A) (A) (A) (A) (A) (A) (A) (A) (A)
                 (A) (A) (A) (A) (A) (A) (A) (A) (A) (A) (A) (A)
                 (A) (A) (A) (A) (A) (A) (A) (A) (A) (A) (A) (A)
                 (A) (A) (A) (A) (A) (A) (A) (A) (A) (A) (A) (A)
                 (A) (A) (A) (A) (A) (A) (A) (A) (A) (A) (A) (A)
                 (A) (A) (A) (A) (A) (A) (A) (A) (A) (A) (A) (A)
                 (A) (A) (A) (A) (A) (A)
 The electronic state is 1-A.
 Alpha  occ. eigenvalues --  -19.25029 -14.44220 -10.41457 -10.34473 -10.28318
 Alpha  occ. eigenvalues --  -10.28200 -10.27652 -10.27643 -10.27137 -10.26036
 Alpha  occ. eigenvalues --   -1.16226  -1.06112  -0.96252  -0.88105  -0.86630
 Alpha  occ. eigenvalues --   -0.85250  -0.74940  -0.73058  -0.69276  -0.65697
 Alpha  occ. eigenvalues --   -0.61238  -0.59507  -0.56180  -0.55777  -0.54136
 Alpha  occ. eigenvalues --   -0.53567  -0.53069  -0.51367  -0.47853  -0.46131
 Alpha  occ. eigenvalues --   -0.44802  -0.44489  -0.39878  -0.36288  -0.33853
 Alpha  occ. eigenvalues --   -0.29214
 Alpha virt. eigenvalues --    0.02554   0.03704   0.04731   0.04788   0.05019
 Alpha virt. eigenvalues --    0.05955   0.06514   0.06804   0.07580   0.08745
 Alpha virt. eigenvalues --    0.09080   0.10780   0.11669   0.11883   0.13735
 Alpha virt. eigenvalues --    0.13867   0.14846   0.15547   0.15983   0.16773
 Alpha virt. eigenvalues --    0.17028   0.17197   0.17598   0.17695   0.18419
 Alpha virt. eigenvalues --    0.19301   0.19333   0.19561   0.19808   0.20201
 Alpha virt. eigenvalues --    0.20416   0.21869   0.22155   0.22840   0.23825
 Alpha virt. eigenvalues --    0.24043   0.24981   0.25411   0.26388   0.27099
 Alpha virt. eigenvalues --    0.27397   0.28339   0.28727   0.29898   0.30363
 Alpha virt. eigenvalues --    0.30806   0.31401   0.32143   0.32453   0.33617
 Alpha virt. eigenvalues --    0.34268   0.35304   0.36617   0.37068   0.37475
 Alpha virt. eigenvalues --    0.38190   0.38919   0.40208   0.40974   0.41382
 Alpha virt. eigenvalues --    0.41737   0.42837   0.44140   0.44294   0.46111
 Alpha virt. eigenvalues --    0.47081   0.48181   0.50641   0.52335   0.54953
 Alpha virt. eigenvalues --    0.57742   0.59227   0.61622   0.62485   0.63224
 Alpha virt. eigenvalues --    0.63579   0.64889   0.65631   0.65980   0.67233
 Alpha virt. eigenvalues --    0.68468   0.68626   0.70380   0.71455   0.72117
 Alpha virt. eigenvalues --    0.74682   0.75479   0.77820   0.78368   0.79313
 Alpha virt. eigenvalues --    0.79984   0.81089   0.82384   0.82944   0.84119
 Alpha virt. eigenvalues --    0.85341   0.87044   0.89359   0.92224   0.93036
 Alpha virt. eigenvalues --    0.93823   0.94716   0.96309   0.96744   0.97504
 Alpha virt. eigenvalues --    0.98748   0.99860   1.00611   1.01810   1.05789
 Alpha virt. eigenvalues --    1.08154   1.09384   1.10617   1.12882   1.14187
 Alpha virt. eigenvalues --    1.17232   1.17733   1.19395   1.22164   1.23224
 Alpha virt. eigenvalues --    1.26442   1.30261   1.31709   1.33578   1.38590
 Alpha virt. eigenvalues --    1.40946   1.46031   1.48196   1.51097   1.57059
 Alpha virt. eigenvalues --    1.60772   1.61178   1.62434   1.63091   1.64689
 Alpha virt. eigenvalues --    1.65914   1.67189   1.67785   1.68248   1.68749
 Alpha virt. eigenvalues --    1.71578   1.72707   1.74802   1.75929   1.78175
 Alpha virt. eigenvalues --    1.79236   1.83291   1.86591   1.88725   1.90883
 Alpha virt. eigenvalues --    1.92966   1.94762   1.97014   1.97633   1.98995
 Alpha virt. eigenvalues --    2.01383   2.01830   2.04274   2.05480   2.07269
 Alpha virt. eigenvalues --    2.08469   2.09199   2.13434   2.14350   2.16627
 Alpha virt. eigenvalues --    2.24959   2.25650   2.26146   2.29359   2.37348
 Alpha virt. eigenvalues --    2.40527   2.40866   2.48691   2.48881   2.51872
 Alpha virt. eigenvalues --    2.53936   2.56393   2.60023   2.61232   2.62572
 Alpha virt. eigenvalues --    2.65578   2.67546   2.71557   2.73786   2.78385
 Alpha virt. eigenvalues --    2.79423   2.80326   2.82859   2.82893   2.84559
 Alpha virt. eigenvalues --    2.86002   2.90009   2.90694   2.92209   2.93266
 Alpha virt. eigenvalues --    2.94333   2.95370   2.95842   2.99166   3.01233
 Alpha virt. eigenvalues --    3.02646   3.03749   3.07287   3.10122   3.14826
 Alpha virt. eigenvalues --    3.19620   3.21595   3.22975   3.24780   3.30902
 Alpha virt. eigenvalues --    3.41955   3.42343   3.48340   3.50888   3.55348
 Alpha virt. eigenvalues --    3.59974   3.61724   3.68856   3.71882   3.90739
 Alpha virt. eigenvalues --    3.98167   4.07896   4.08579   4.13016   4.20410
 Alpha virt. eigenvalues --    4.30828   4.34630   4.38312   4.39469   4.44722
 Alpha virt. eigenvalues --    4.95965   5.13825   5.19242   5.25052   5.31625
 Alpha virt. eigenvalues --    5.84253  23.86945  23.98209  24.14598  24.22812
 Alpha virt. eigenvalues --   24.30547  24.33373  24.37922  24.42824  35.89511
 Alpha virt. eigenvalues --   50.10447
          Condensed to atoms (all electrons):
               1          2          3          4          5          6
     1  C    7.552067   0.164697  -0.377185  -0.418949  -0.006998  -0.087576
     2  C    0.164697   9.492286  -2.904610  -0.997310   0.567884  -0.100786
     3  C   -0.377185  -2.904610   8.684047   0.910377  -0.061727  -0.084291
     4  C   -0.418949  -0.997310   0.910377   6.088814  -0.155195  -0.014383
     5  H   -0.006998   0.567884  -0.061727  -0.155195   0.495437  -0.027399
     6  N   -0.087576  -0.100786  -0.084291  -0.014383  -0.027399   7.154917
     7  C   -0.353602   0.500037  -0.158678  -0.251846   0.027075   0.024400
     8  H   -0.155959  -0.099269   0.605220   0.034481  -0.005333   0.002083
     9  C   -0.050046  -0.480095  -0.303282   0.648535  -0.016404   0.055476
    10  H    0.034733  -0.073402   0.034100   0.409013  -0.011374  -0.004794
    11  C   -0.047571  -0.246031   0.120544  -0.041464   0.024180   0.084389
    12  H    0.048610  -0.050223   0.062123   0.000227   0.003047   0.395776
    13  H    0.029922   0.046956  -0.114341  -0.021320   0.001964  -0.006314
    14  H    0.009215  -0.025460  -0.016736  -0.048918   0.000188   0.002296
    15  C   -0.367433   0.183982  -0.044384   0.073082  -0.025911  -0.130681
    16  O   -0.003552  -0.059184   0.033600   0.011814  -0.005784  -0.070032
    17  H   -0.024859  -0.000871   0.011263   0.002283  -0.006640   0.012153
    18  H   -0.003731  -0.008341   0.005971  -0.002612   0.000401  -0.001661
    19  H    0.028144  -0.017982  -0.003051  -0.011804   0.002633  -0.015160
               7          8          9         10         11         12
     1  C   -0.353602  -0.155959  -0.050046   0.034733  -0.047571   0.048610
     2  C    0.500037  -0.099269  -0.480095  -0.073402  -0.246031  -0.050223
     3  C   -0.158678   0.605220  -0.303282   0.034100   0.120544   0.062123
     4  C   -0.251846   0.034481   0.648535   0.409013  -0.041464   0.000227
     5  H    0.027075  -0.005333  -0.016404  -0.011374   0.024180   0.003047
     6  N    0.024400   0.002083   0.055476  -0.004794   0.084389   0.395776
     7  C    5.478571  -0.059322   0.533803  -0.009910   0.081199  -0.023339
     8  H   -0.059322   0.545016  -0.002342   0.001908   0.001010  -0.001693
     9  C    0.533803  -0.002342   5.535300  -0.062633   0.009491  -0.006208
    10  H   -0.009910   0.001908  -0.062633   0.492115   0.000245   0.000226
    11  C    0.081199   0.001010   0.009491   0.000245   5.666217  -0.068915
    12  H   -0.023339  -0.001693  -0.006208   0.000226  -0.068915   0.349719
    13  H    0.434018  -0.017760  -0.038959  -0.000563  -0.000902   0.001793
    14  H   -0.053799  -0.000352   0.484678  -0.010725  -0.000060  -0.000248
    15  C   -0.010275   0.008879   0.029932  -0.001823  -0.008026  -0.035184
    16  O    0.001440   0.001167   0.000848   0.000123   0.521394  -0.003691
    17  H    0.000712   0.000935   0.000599   0.000353  -0.057397  -0.004019
    18  H    0.002731   0.000338  -0.000706   0.000094   0.006979  -0.002210
    19  H    0.002878  -0.002807   0.000595  -0.000513  -0.035370   0.002866
              13         14         15         16         17         18
     1  C    0.029922   0.009215  -0.367433  -0.003552  -0.024859  -0.003731
     2  C    0.046956  -0.025460   0.183982  -0.059184  -0.000871  -0.008341
     3  C   -0.114341  -0.016736  -0.044384   0.033600   0.011263   0.005971
     4  C   -0.021320  -0.048918   0.073082   0.011814   0.002283  -0.002612
     5  H    0.001964   0.000188  -0.025911  -0.005784  -0.006640   0.000401
     6  N   -0.006314   0.002296  -0.130681  -0.070032   0.012153  -0.001661
     7  C    0.434018  -0.053799  -0.010275   0.001440   0.000712   0.002731
     8  H   -0.017760  -0.000352   0.008879   0.001167   0.000935   0.000338
     9  C   -0.038959   0.484678   0.029932   0.000848   0.000599  -0.000706
    10  H   -0.000563  -0.010725  -0.001823   0.000123   0.000353   0.000094
    11  C   -0.000902  -0.000060  -0.008026   0.521394  -0.057397   0.006979
    12  H    0.001793  -0.000248  -0.035184  -0.003691  -0.004019  -0.002210
    13  H    0.495932  -0.009725  -0.002613  -0.000082  -0.000062  -0.000029
    14  H   -0.009725   0.499084   0.000952   0.000047  -0.000031  -0.000014
    15  C   -0.002613   0.000952   5.594237  -0.104647   0.443130   0.400086
    16  O   -0.000082   0.000047  -0.104647   7.896565  -0.007001  -0.017088
    17  H   -0.000062  -0.000031   0.443130  -0.007001   0.487930  -0.027800
    18  H   -0.000029  -0.000014   0.400086  -0.017088  -0.027800   0.492254
    19  H    0.000009   0.000085   0.413429   0.006288  -0.029239  -0.030837
              19
     1  C    0.028144
     2  C   -0.017982
     3  C   -0.003051
     4  C   -0.011804
     5  H    0.002633
     6  N   -0.015160
     7  C    0.002878
     8  H   -0.002807
     9  C    0.000595
    10  H   -0.000513
    11  C   -0.035370
    12  H    0.002866
    13  H    0.000009
    14  H    0.000085
    15  C    0.413429
    16  O    0.006288
    17  H   -0.029239
    18  H   -0.030837
    19  H    0.526153
 Mulliken charges:
               1
     1  C    0.030073
     2  C    0.107722
     3  C   -0.398959
     4  C   -0.214825
     5  H    0.199956
     6  N   -0.188416
     7  C   -0.166092
     8  H    0.143799
     9  C   -0.338580
    10  H    0.202827
    11  C   -0.009912
    12  H    0.331343
    13  H    0.202076
    14  H    0.169524
    15  C   -0.416733
    16  O   -0.202224
    17  H    0.198563
    18  H    0.186174
    19  H    0.163684
 Sum of Mulliken charges =  -0.00000
 Mulliken charges with hydrogens summed into heavy atoms:
               1
     1  C    0.030073
     2  C    0.307677
     3  C   -0.255159
     4  C   -0.011999
     6  N    0.142928
     7  C    0.035984
     9  C   -0.169056
    11  C   -0.009912
    15  C    0.131687
    16  O   -0.202224
 Electronic spatial extent (au):  <R**2>=           1623.6428
 Charge=             -0.0000 electrons
 Dipole moment (field-independent basis, Debye):
    X=             -1.0421    Y=             -1.4975    Z=              2.4759  Tot=              3.0755
 Quadrupole moment (field-independent basis, Debye-Ang):
   XX=            -59.9768   YY=            -51.2145   ZZ=            -63.7531
   XY=             -3.5017   XZ=              6.8058   YZ=              1.7946
 Traceless Quadrupole moment (field-independent basis, Debye-Ang):
   XX=             -1.6620   YY=              7.1003   ZZ=             -5.4383
   XY=             -3.5017   XZ=              6.8058   YZ=              1.7946
 Octapole moment (field-independent basis, Debye-Ang**2):
  XXX=            -19.3567  YYY=             -4.3393  ZZZ=              3.7769  XYY=              1.8550
  XXY=            -10.8465  XXZ=             26.2994  XZZ=              7.3873  YZZ=             -1.5039
  YYZ=             -2.1691  XYZ=              4.0826
 Hexadecapole moment (field-independent basis, Debye-Ang**3):
 XXXX=          -1600.1715 YYYY=           -302.8603 ZZZZ=           -204.6740 XXXY=            -28.1881
 XXXZ=             49.0863 YYYX=             -6.2704 YYYZ=              4.5435 ZZZX=              9.3081
 ZZZY=             -0.0540 XXYY=           -303.1601 XXZZ=           -331.2441 YYZZ=            -94.4309
 XXYZ=             11.1244 YYXZ=             -3.2620 ZZXY=             -1.4436
 N-N= 4.915046782467D+02 E-N=-2.009167069943D+03  KE= 4.400483099575D+02
 No NMR shielding tensors so no spin-rotation constants.
 Leave Link  601 at Tue Nov 22 19:11:38 2022, MaxMem= 16106127360 cpu:               4.8 elap:               0.2
 (Enter /opt/ap/G16/B01/g16/l9999.exe)
 1\1\GINC-N38\SP\RwB97XD\6-311++G(d,p)\C8H9N1O1\ROOT\22-Nov-2022\0\\#P 
 wB97XD/6-311++G(d,p) scf=maxcycle=512\\_conf016.gjf nmol_natom 1_19\\0
 ,1\C\C,1,1.39447505\C,1,1.39873503,2,119.56697224\C,2,1.39066123,1,119
 .42697207,3,2.53915756,0\H,2,0.96213008,1,119.8046163,3,-177.79870417,
 0\N,1,1.41693372,2,123.72220125,4,-177.74604849,0\C,3,1.38667133,1,120
 .18759987,2,-2.5020857,0\H,3,0.95673174,1,118.82085988,2,177.96737168,
 0\C,4,1.38268572,2,121.03929493,1,-0.41221113,0\H,4,0.9858595,2,118.57
 91267,1,178.77373233,0\C,6,1.35500692,1,127.62132737,2,17.57862687,0\H
 ,6,0.89609466,1,115.10511997,2,-166.41127095,0\H,7,0.98847198,3,119.08
 117704,1,-179.64585354,0\H,9,0.98451201,4,120.53755637,2,177.22743544,
 0\C,11,1.50274561,6,115.46861532,1,80.,0\O,11,1.23496495,6,123.1509988
 8,1,-100.,0\H,15,0.98719837,11,107.47091875,6,-116.36962839,0\H,15,0.9
 9976021,11,109.69443261,6,128.85346087,0\H,15,0.97696155,11,114.370088
 71,6,6.05302844,0\\Version=ES64L-G16RevB.01\State=1-A\HF=-440.1096459\
 RMSD=3.865e-09\Dipole=0.6409692,0.9189564,-0.4569172\Quadrupole=-3.155
 0923,-2.9810998,6.1361921,-5.3281368,0.6115266,-0.148604\PG=C01 [X(C8H
 9N1O1)]\\@


 ... SUBJECTS WHICH DISCLOSE THEIR FULL POWER, MEANING AND BEAUTY AS SOON
 AS THEY ARE PRESENTED TO THE MIND HAVE VERY LITTLE OF THOSE QUALITIES
 TO DISCLOSE.
                           -- CHARLES DUTTON (1882)
 Job cpu time:       0 days  0 hours 11 minutes 13.2 seconds.
 Elapsed time:       0 days  0 hours  0 minutes 21.2 seconds.
 File lengths (MBytes):  RWF=     46 Int=      0 D2E=      0 Chk=      6 Scr=      1
 Normal termination of Gaussian 16 at Tue Nov 22 19:11:38 2022.
