 Entering Gaussian System, Link 0=g16
 Input=_conf056.gjf
 Output=_conf056.log
 Initial command:
 /opt/ap/G16/B01/g16/l1.exe "/tmp2/scr/Gau-22714.inp" -scrdir="/tmp2/scr/"
 Entering Link 1 = /opt/ap/G16/B01/g16/l1.exe PID=     22715.
  
 Copyright (c) 1988-2017, Gaussian, Inc.  All Rights Reserved.
  
 This is part of the Gaussian(R) 16 program.  It is based on
 the Gaussian(R) 09 system (copyright 2009, Gaussian, Inc.),
 the Gaussian(R) 03 system (copyright 2003, Gaussian, Inc.),
 the Gaussian(R) 98 system (copyright 1998, Gaussian, Inc.),
 the Gaussian(R) 94 system (copyright 1995, Gaussian, Inc.),
 the Gaussian 92(TM) system (copyright 1992, Gaussian, Inc.),
 the Gaussian 90(TM) system (copyright 1990, Gaussian, Inc.),
 the Gaussian 88(TM) system (copyright 1988, Gaussian, Inc.),
 the Gaussian 86(TM) system (copyright 1986, Carnegie Mellon
 University), and the Gaussian 82(TM) system (copyright 1983,
 Carnegie Mellon University). Gaussian is a federally registered
 trademark of Gaussian, Inc.
  
 This software contains proprietary and confidential information,
 including trade secrets, belonging to Gaussian, Inc.
  
 This software is provided under written license and may be
 used, copied, transmitted, or stored only in accord with that
 written license.
  
 The following legend is applicable only to US Government
 contracts under FAR:
  
                    RESTRICTED RIGHTS LEGEND
  
 Use, reproduction and disclosure by the US Government is
 subject to restrictions as set forth in subparagraphs (a)
 and (c) of the Commercial Computer Software - Restricted
 Rights clause in FAR 52.227-19.
  
 Gaussian, Inc.
 340 Quinnipiac St., Bldg. 40, Wallingford CT 06492
  
  
 ---------------------------------------------------------------
 Warning -- This program may not be used in any manner that
 competes with the business of Gaussian, Inc. or will provide
 assistance to any competitor of Gaussian, Inc.  The licensee
 of this program is prohibited from giving any competitor of
 Gaussian, Inc. access to this program.  By using this program,
 the user acknowledges that Gaussian, Inc. is engaged in the
 business of creating and licensing software in the field of
 computational chemistry and represents and warrants to the
 licensee that it is not a competitor of Gaussian, Inc. and that
 it will not use this program in any manner prohibited above.
 ---------------------------------------------------------------
  

 Cite this work as:
 Gaussian 16, Revision B.01,
 M. J. Frisch, G. W. Trucks, H. B. Schlegel, G. E. Scuseria, 
 M. A. Robb, J. R. Cheeseman, G. Scalmani, V. Barone, 
 G. A. Petersson, H. Nakatsuji, X. Li, M. Caricato, A. V. Marenich, 
 J. Bloino, B. G. Janesko, R. Gomperts, B. Mennucci, H. P. Hratchian, 
 J. V. Ortiz, A. F. Izmaylov, J. L. Sonnenberg, D. Williams-Young, 
 F. Ding, F. Lipparini, F. Egidi, J. Goings, B. Peng, A. Petrone, 
 T. Henderson, D. Ranasinghe, V. G. Zakrzewski, J. Gao, N. Rega, 
 G. Zheng, W. Liang, M. Hada, M. Ehara, K. Toyota, R. Fukuda, 
 J. Hasegawa, M. Ishida, T. Nakajima, Y. Honda, O. Kitao, H. Nakai, 
 T. Vreven, K. Throssell, J. A. Montgomery, Jr., J. E. Peralta, 
 F. Ogliaro, M. J. Bearpark, J. J. Heyd, E. N. Brothers, K. N. Kudin, 
 V. N. Staroverov, T. A. Keith, R. Kobayashi, J. Normand, 
 K. Raghavachari, A. P. Rendell, J. C. Burant, S. S. Iyengar, 
 J. Tomasi, M. Cossi, J. M. Millam, M. Klene, C. Adamo, R. Cammi, 
 J. W. Ochterski, R. L. Martin, K. Morokuma, O. Farkas, 
 J. B. Foresman, and D. J. Fox, Gaussian, Inc., Wallingford CT, 2016.
 
 ******************************************
 Gaussian 16:  ES64L-G16RevB.01 20-Dec-2017
                22-Nov-2022 
 ******************************************
 %nprocshared=32
 Will use up to   32 processors via shared memory.
 %mem=120GB
 %chk=_conf056.chk
 ----------------------------------------
 #P wB97XD/6-311++G(d,p) scf=maxcycle=512
 ----------------------------------------
 1/38=1,172=1/1;
 2/12=2,17=6,18=5,40=1/2;
 3/5=4,6=6,7=1111,11=2,25=1,30=1,74=-58/1,2,3;
 4//1;
 5/5=2,7=512,38=5/2;
 6/7=2,8=2,9=2,10=2,28=1/1;
 99/5=1,9=1/99;
 Leave Link    1 at Tue Nov 22 19:14:41 2022, MaxMem= 16106127360 cpu:               1.8 elap:               0.1
 (Enter /opt/ap/G16/B01/g16/l101.exe)
 ----------------------------
 _conf056.gjf nmol_natom 1_19
 ----------------------------
 Symbolic Z-matrix:
 Charge =  0 Multiplicity = 1
 C
 C                    1     1.39448 
 C                    1     1.39874  2     119.56697 
 C                    2     1.39066  1     119.42697  3     2.53916  0
 H                    2     0.96213  1     119.80462  3    -177.7987  0
 N                    1     1.41693  2     123.7222  4    -177.74605  0
 C                    3     1.38667  1     120.1876  2    -2.50209  0
 H                    3     0.95673  1     118.82086  2     177.96737  0
 C                    4     1.38269  2     121.03929  1    -0.41221  0
 H                    4     0.98586  2     118.57913  1     178.77373  0
 C                    6     1.35501  1     127.62133  2     17.57863  0
 H                    6     0.89609  1     115.10512  2    -166.41127  0
 H                    7     0.98847  3     119.08118  1    -179.64585  0
 H                    9     0.98451  4     120.53756  2     177.22744  0
 C                    11    1.50275  6     115.46862  1    -80.      0
 O                    11    1.23496  6     123.151  1     100.     0
 H                    15    0.9872   11    107.47092  6    -116.36963  0
 H                    15    0.99976  11    109.69443  6     128.85346  0
 H                    15    0.97696  11    114.37009  6     6.05303  0
 
 ITRead=  0  0  0  0  0  0  0  0  0  0  0  0  0  0  0  0  0  0  0
 MicOpt= -1 -1 -1 -1 -1 -1 -1 -1 -1 -1 -1 -1 -1 -1 -1 -1 -1 -1 -1
 NAtoms=     19 NQM=       19 NQMF=       0 NMMI=      0 NMMIF=      0
                NMic=       0 NMicF=      0.
                    Isotopes and Nuclear Properties:
 (Nuclear quadrupole moments (NQMom) in fm**2, nuclear magnetic moments (NMagM)
  in nuclear magnetons)

  Atom         1           2           3           4           5           6           7           8           9          10
 IAtWgt=          12          12          12          12           1          14          12           1          12           1
 AtmWgt=  12.0000000  12.0000000  12.0000000  12.0000000   1.0078250  14.0030740  12.0000000   1.0078250  12.0000000   1.0078250
 NucSpn=           0           0           0           0           1           2           0           1           0           1
 AtZEff=  -0.0000000  -0.0000000  -0.0000000  -0.0000000  -0.0000000  -0.0000000  -0.0000000  -0.0000000  -0.0000000  -0.0000000
 NQMom=    0.0000000   0.0000000   0.0000000   0.0000000   0.0000000   2.0440000   0.0000000   0.0000000   0.0000000   0.0000000
 NMagM=    0.0000000   0.0000000   0.0000000   0.0000000   2.7928460   0.4037610   0.0000000   2.7928460   0.0000000   2.7928460
 AtZNuc=   6.0000000   6.0000000   6.0000000   6.0000000   1.0000000   7.0000000   6.0000000   1.0000000   6.0000000   1.0000000

  Atom        11          12          13          14          15          16          17          18          19
 IAtWgt=          12           1           1           1          12          16           1           1           1
 AtmWgt=  12.0000000   1.0078250   1.0078250   1.0078250  12.0000000  15.9949146   1.0078250   1.0078250   1.0078250
 NucSpn=           0           1           1           1           0           0           1           1           1
 AtZEff=  -0.0000000  -0.0000000  -0.0000000  -0.0000000  -0.0000000  -0.0000000  -0.0000000  -0.0000000  -0.0000000
 NQMom=    0.0000000   0.0000000   0.0000000   0.0000000   0.0000000   0.0000000   0.0000000   0.0000000   0.0000000
 NMagM=    0.0000000   2.7928460   2.7928460   2.7928460   0.0000000   0.0000000   2.7928460   2.7928460   2.7928460
 AtZNuc=   6.0000000   1.0000000   1.0000000   1.0000000   6.0000000   8.0000000   1.0000000   1.0000000   1.0000000
 Leave Link  101 at Tue Nov 22 19:14:41 2022, MaxMem= 16106127360 cpu:               5.4 elap:               0.2
 (Enter /opt/ap/G16/B01/g16/l202.exe)
                          Input orientation:                          
 ---------------------------------------------------------------------
 Center     Atomic      Atomic             Coordinates (Angstroms)
 Number     Number       Type             X           Y           Z
 ---------------------------------------------------------------------
      1          6           0        0.000000    0.000000    0.000000
      2          6           0        0.000000    0.000000    1.394475
      3          6           0        1.216591    0.000000   -0.690193
      4          6           0        1.210053    0.053661    2.077726
      5          1           0       -0.834249   -0.032067    1.872696
      6          7           0       -1.178505   -0.005866   -0.786634
      7          6           0        2.413939    0.052326    0.007287
      8          1           0        1.204393   -0.029731   -1.646384
      9          6           0        2.412261    0.098442    1.396177
     10          1           0        1.194755    0.071528    3.063305
     11          6           0       -2.436085    0.312014   -0.394861
     12          1           0       -1.055905   -0.195907   -1.653721
     13          1           0        3.263999    0.056828   -0.497149
     14          1           0        3.262484    0.177260    1.886251
     15          6           0       -3.174632   -0.767367    0.345226
     16          8           0       -2.957083    1.408580   -0.621234
     17          1           0       -3.954380   -1.022825   -0.203677
     18          1           0       -3.546594   -0.398173    1.196613
     19          1           0       -2.636583   -1.556890    0.549213
 ---------------------------------------------------------------------
                    Distance matrix (angstroms):
                    1          2          3          4          5
     1  C    0.000000
     2  C    1.394475   0.000000
     3  C    1.398735   2.413697   0.000000
     4  C    2.405006   1.390661   2.768447   0.000000
     5  H    2.050363   0.962130   3.282586   2.056345   0.000000
     6  N    1.416934   2.479142   2.397044   3.730055   2.681648
     7  C    2.414517   2.784624   1.386671   2.395008   3.746678
     8  H    2.040105   3.270821   0.956732   3.725048   4.066939
     9  C    2.788908   2.414270   2.406711   1.382686   3.283889
    10  H    3.288829   2.053668   3.754243   0.985860   2.354812
    11  C    2.487525   3.038682   3.677855   4.413021   2.797515
    12  H    1.971829   3.231844   2.476087   4.372705   3.537173
    13  H    3.302132   3.772951   2.057273   3.293734   4.734944
    14  H    3.772687   3.304099   3.294718   2.065046   4.102100
    15  C    3.284253   3.430461   4.576438   4.785509   2.889848
    16  O    3.333822   3.845974   4.405497   5.146378   3.577929
    17  H    4.089594   4.386044   5.293563   5.747607   3.876615
    18  H    3.764140   3.574356   5.138726   4.858621   2.819209
    19  H    3.110805   3.176467   4.336701   4.441489   2.706492
                    6          7          8          9         10
     6  N    0.000000
     7  C    3.679585   0.000000
     8  H    2.533365   2.050454   0.000000
     9  C    4.203468   1.389657   3.276058   0.000000
    10  H    4.523316   3.290292   4.710788   2.064548   0.000000
    11  C    1.355007   4.873592   3.864736   5.172997   5.019935
    12  H    0.896095   3.854917   2.266411   4.627818   5.233291
    13  H    4.452366   0.988472   2.360129   2.076505   4.118108
    14  H    5.186544   2.065465   4.093666   0.984512   2.381625
    15  C    2.417750   5.658465   4.866875   5.750435   5.213755
    16  O    2.278455   5.575153   4.520791   5.883559   5.709754
    17  H    3.013226   6.461884   5.447989   6.659647   6.195513
    18  H    3.113683   6.094702   5.548897   5.982842   5.117182
    19  H    2.513196   5.328323   4.680380   5.380362   4.863286
                   11         12         13         14         15
    11  C    0.000000
    12  H    1.935874   0.000000
    13  H    5.706710   4.479186   0.000000
    14  H    6.139652   5.596351   2.386441   0.000000
    15  C    1.502746   2.968393   6.545598   6.686071   0.000000
    16  O    1.234965   2.693489   6.367455   6.818111   2.390840
    17  H    2.030657   3.344784   7.304572   7.608623   0.987198
    18  H    2.066491   3.790626   7.032782   6.868061   0.999760
    19  H    2.103397   3.033766   6.206111   6.292371   0.976962
                   16         17         18         19
    16  O    0.000000
    17  H    2.660956   0.000000
    18  H    2.629913   1.586598   0.000000
    19  H    3.204166   1.608931   1.609308   0.000000
 Stoichiometry    C8H9NO
 Framework group  C1[X(C8H9NO)]
 Deg. of freedom    51
 Full point group                 C1      NOp   1
 Largest Abelian subgroup         C1      NOp   1
 Largest concise Abelian subgroup C1      NOp   1
                         Standard orientation:                         
 ---------------------------------------------------------------------
 Center     Atomic      Atomic             Coordinates (Angstroms)
 Number     Number       Type             X           Y           Z
 ---------------------------------------------------------------------
      1          6           0       -0.282271   -0.316304   -0.142092
      2          6           0       -0.603654    1.018511    0.101923
      3          6           0       -1.306415   -1.259767   -0.274253
      4          6           0       -1.936271    1.382003    0.262989
      5          1           0        0.096474    1.675721    0.161841
      6          7           0        1.045006   -0.794327   -0.274490
      7          6           0       -2.629998   -0.879473   -0.111891
      8          1           0       -1.075123   -2.167091   -0.470730
      9          6           0       -2.946999    0.442439    0.176564
     10          1           0       -2.147972    2.325892    0.453187
     11          6           0        2.187874   -0.181772    0.118797
     12          1           0        1.119579   -1.620063   -0.614467
     13          1           0       -3.340336   -1.560701   -0.203685
     14          1           0       -3.884341    0.700326    0.331963
     15          6           0        2.701354    0.884352   -0.807466
     16          8           0        2.781529   -0.466338    1.163657
     17          1           0        3.578111    0.584214   -1.147724
     18          1           0        2.878603    1.722149   -0.291521
     19          1           0        2.106013    1.090610   -1.554112
 ---------------------------------------------------------------------
 Rotational constants (GHZ):           3.3641321           0.7902421           0.7078759
 Leave Link  202 at Tue Nov 22 19:14:41 2022, MaxMem= 16106127360 cpu:               0.3 elap:               0.0
 (Enter /opt/ap/G16/B01/g16/l301.exe)
 Standard basis: 6-311++G(d,p) (5D, 7F)
 Ernie: Thresh=  0.10000D-02 Tol=  0.10000D-05 Strict=F.
 There are   293 symmetry adapted cartesian basis functions of A   symmetry.
 There are   283 symmetry adapted basis functions of A   symmetry.
   283 basis functions,   441 primitive gaussians,   293 cartesian basis functions
    36 alpha electrons       36 beta electrons
       nuclear repulsion energy       491.7192064937 Hartrees.
 IExCor= 4639 DFT=T Ex+Corr=wB97XD ExCW=0 ScaHFX=  1.000000
 ScaDFX=  1.000000  1.000000  1.000000  1.000000 ScalE2=  1.000000  1.000000
 IRadAn=      5 IRanWt=     -1 IRanGd=            0 ICorTp=0 IEmpDi=121
 HFx  wShort=  0.000000 wLong=  0.200000 cFull=  0.222036 cShort=  0.000000 cLong=  0.777964
 DFx  wShort=  0.000000 wLong=  0.200000 cFull=  0.000000 cShort=  0.000000 cLong=  1.000000
 NAtoms=   19 NActive=   19 NUniq=   19 SFac= 1.00D+00 NAtFMM=   60 NAOKFM=F Big=F
 Integral buffers will be    131072 words long.
 Raffenetti 2 integral format.
 Two-electron integral symmetry is turned on.
 R6Disp:  Grimme-D2 Dispersion energy=       -0.0098940801 Hartrees.
 Nuclear repulsion after empirical dispersion term =      491.7093124136 Hartrees.
 Leave Link  301 at Tue Nov 22 19:14:41 2022, MaxMem= 16106127360 cpu:               1.2 elap:               0.0
 (Enter /opt/ap/G16/B01/g16/l302.exe)
 NPDir=0 NMtPBC=     1 NCelOv=     1 NCel=       1 NClECP=     1 NCelD=      1
         NCelK=      1 NCelE2=     1 NClLst=     1 CellRange=     0.0.
 One-electron integrals computed using PRISM.
 One-electron integral symmetry used in STVInt
 NBasis=   283 RedAO= T EigKep=  2.24D-06  NBF=   283
 NBsUse=   282 1.00D-06 EigRej=  7.72D-07 NBFU=   282
 Precomputing XC quadrature grid using
 IXCGrd= 4 IRadAn=           5 IRanWt=          -1 IRanGd=           0 AccXCQ= 0.00D+00.
 Generated NRdTot=       0 NPtTot=           0 NUsed=           0 NTot=          32
 NSgBfM=   293   293   293   293   293 MxSgAt=    19 MxSgA2=    19.
 Leave Link  302 at Tue Nov 22 19:14:41 2022, MaxMem= 16106127360 cpu:               6.2 elap:               0.2
 (Enter /opt/ap/G16/B01/g16/l303.exe)
 DipDrv:  MaxL=1.
 Leave Link  303 at Tue Nov 22 19:14:42 2022, MaxMem= 16106127360 cpu:               1.4 elap:               0.0
 (Enter /opt/ap/G16/B01/g16/l401.exe)
 ExpMin= 3.60D-02 ExpMax= 8.59D+03 ExpMxC= 1.30D+03 IAcc=3 IRadAn=         5 AccDes= 0.00D+00
 Harris functional with IExCor= 4639 and IRadAn=       5 diagonalized for initial guess.
 HarFok:  IExCor= 4639 AccDes= 0.00D+00 IRadAn=         5 IDoV= 1 UseB2=F ITyADJ=14
 ICtDFT=  3500011 ScaDFX=  1.000000  1.000000  1.000000  1.000000
 FoFCou: FMM=F IPFlag=           0 FMFlag=      100000 FMFlg1=           0
         NFxFlg=           0 DoJE=T BraDBF=F KetDBF=T FulRan=T
         wScrn=  0.000000 ICntrl=       500 IOpCl=  0 I1Cent=   200000004 NGrid=           0
         NMat0=    1 NMatS0=      1 NMatT0=    0 NMatD0=    1 NMtDS0=    0 NMtDT0=    0
 Petite list used in FoFCou.
 Harris En= -420.961782427198    
 JPrj=0 DoOrth=F DoCkMO=F.
 Leave Link  401 at Tue Nov 22 19:14:42 2022, MaxMem= 16106127360 cpu:              15.5 elap:               0.5
 (Enter /opt/ap/G16/B01/g16/l502.exe)
 Integral symmetry usage will be decided dynamically.
 Closed shell SCF:
 Using DIIS extrapolation, IDIIS=  1040.
 NGot= 16106127360 LenX= 16105943385 LenY= 16105857095
 Requested convergence on RMS density matrix=1.00D-08 within 512 cycles.
 Requested convergence on MAX density matrix=1.00D-06.
 Requested convergence on             energy=1.00D-06.
 No special actions if energy rises.
 Fock matrices will be formed incrementally for  20 cycles.

 Cycle   1  Pass 1  IDiag  1:
 FoFJK:  IHMeth= 1 ICntrl=       0 DoSepK=T KAlg= 0 I1Cent=           0 FoldK=F
 IRaf=         1 NMat=       1 IRICut=       1 DoRegI=T DoRafI=F ISym2E= 0 IDoP0=0 IntGTp=1.
 FoFCou: FMM=F IPFlag=           0 FMFlag=      100000 FMFlg1=           0
         NFxFlg=           0 DoJE=T BraDBF=F KetDBF=F FulRan=T
         wScrn=  0.000000 ICntrl=       500 IOpCl=  0 I1Cent=           0 NGrid=           0
         NMat0=    1 NMatS0=      1 NMatT0=    0 NMatD0=    1 NMtDS0=    0 NMtDT0=    0
 Symmetry not used in FoFCou.
 E= -439.945406208051    
 DIIS: error= 5.77D-02 at cycle   1 NSaved=   1.
 NSaved= 1 IEnMin= 1 EnMin= -439.945406208051     IErMin= 1 ErrMin= 5.77D-02
 ErrMax= 5.77D-02  0.00D+00 EMaxC= 1.00D-01 BMatC= 9.56D-01 BMatP= 9.56D-01
 IDIUse=3 WtCom= 4.23D-01 WtEn= 5.77D-01
 Coeff-Com:  0.100D+01
 Coeff-En:   0.100D+01
 Coeff:      0.100D+01
 Gap=     0.430 Goal=   None    Shift=    0.000
 GapD=    0.430 DampG=2.000 DampE=0.500 DampFc=1.0000 IDamp=-1.
 RMSDP=1.06D-02 MaxDP=6.32D-01              OVMax= 1.69D-01

 Cycle   2  Pass 1  IDiag  1:
 RMSU=  6.85D-03    CP:  7.52D-01
 E= -440.030368066677     Delta-E=       -0.084961858626 Rises=F Damp=F
 DIIS: error= 1.17D-02 at cycle   2 NSaved=   2.
 NSaved= 2 IEnMin= 2 EnMin= -440.030368066677     IErMin= 2 ErrMin= 1.17D-02
 ErrMax= 1.17D-02  0.00D+00 EMaxC= 1.00D-01 BMatC= 9.07D-02 BMatP= 9.56D-01
 IDIUse=3 WtCom= 8.83D-01 WtEn= 1.17D-01
 Coeff-Com:  0.167D+00 0.833D+00
 Coeff-En:   0.240D+00 0.760D+00
 Coeff:      0.175D+00 0.825D+00
 Gap=     0.401 Goal=   None    Shift=    0.000
 RMSDP=5.01D-03 MaxDP=2.07D-01 DE=-8.50D-02 OVMax= 1.28D-01

 Cycle   3  Pass 1  IDiag  1:
 RMSU=  4.16D-03    CP:  7.38D-01  5.96D-01
 E= -440.076534134218     Delta-E=       -0.046166067541 Rises=F Damp=F
 DIIS: error= 1.04D-02 at cycle   3 NSaved=   3.
 NSaved= 3 IEnMin= 3 EnMin= -440.076534134218     IErMin= 3 ErrMin= 1.04D-02
 ErrMax= 1.04D-02  0.00D+00 EMaxC= 1.00D-01 BMatC= 3.69D-02 BMatP= 9.07D-02
 IDIUse=3 WtCom= 8.96D-01 WtEn= 1.04D-01
 Coeff-Com:  0.239D-01 0.395D+00 0.582D+00
 Coeff-En:   0.000D+00 0.283D+00 0.717D+00
 Coeff:      0.214D-01 0.383D+00 0.596D+00
 Gap=     0.355 Goal=   None    Shift=    0.000
 RMSDP=2.56D-03 MaxDP=1.68D-01 DE=-4.62D-02 OVMax= 7.38D-02

 Cycle   4  Pass 1  IDiag  1:
 RMSU=  1.17D-03    CP:  7.01D-01  7.59D-01  6.22D-01
 E= -440.109711474701     Delta-E=       -0.033177340483 Rises=F Damp=F
 DIIS: error= 2.73D-03 at cycle   4 NSaved=   4.
 NSaved= 4 IEnMin= 4 EnMin= -440.109711474701     IErMin= 4 ErrMin= 2.73D-03
 ErrMax= 2.73D-03  0.00D+00 EMaxC= 1.00D-01 BMatC= 9.33D-04 BMatP= 3.69D-02
 IDIUse=3 WtCom= 9.73D-01 WtEn= 2.73D-02
 Coeff-Com:  0.785D-02 0.157D+00 0.271D+00 0.564D+00
 Coeff-En:   0.000D+00 0.000D+00 0.000D+00 0.100D+01
 Coeff:      0.764D-02 0.152D+00 0.264D+00 0.576D+00
 Gap=     0.319 Goal=   None    Shift=    0.000
 RMSDP=3.27D-04 MaxDP=2.11D-02 DE=-3.32D-02 OVMax= 8.65D-03

 Cycle   5  Pass 1  IDiag  1:
 RMSU=  1.89D-04    CP:  7.04D-01  7.58D-01  6.70D-01  8.66D-01
 E= -440.110519189433     Delta-E=       -0.000807714732 Rises=F Damp=F
 DIIS: error= 3.98D-04 at cycle   5 NSaved=   5.
 NSaved= 5 IEnMin= 5 EnMin= -440.110519189433     IErMin= 5 ErrMin= 3.98D-04
 ErrMax= 3.98D-04  0.00D+00 EMaxC= 1.00D-01 BMatC= 2.65D-05 BMatP= 9.33D-04
 IDIUse=3 WtCom= 9.96D-01 WtEn= 3.98D-03
 Coeff-Com: -0.107D-02-0.173D-01-0.161D-01 0.101D+00 0.933D+00
 Coeff-En:   0.000D+00 0.000D+00 0.000D+00 0.000D+00 0.100D+01
 Coeff:     -0.106D-02-0.172D-01-0.160D-01 0.101D+00 0.934D+00
 Gap=     0.321 Goal=   None    Shift=    0.000
 RMSDP=1.22D-04 MaxDP=4.04D-03 DE=-8.08D-04 OVMax= 3.92D-03

 Cycle   6  Pass 1  IDiag  1:
 RMSU=  8.45D-05    CP:  7.03D-01  7.59D-01  6.80D-01  9.18D-01  1.22D+00
 E= -440.110552553749     Delta-E=       -0.000033364316 Rises=F Damp=F
 DIIS: error= 2.49D-04 at cycle   6 NSaved=   6.
 NSaved= 6 IEnMin= 6 EnMin= -440.110552553749     IErMin= 6 ErrMin= 2.49D-04
 ErrMax= 2.49D-04  0.00D+00 EMaxC= 1.00D-01 BMatC= 1.25D-05 BMatP= 2.65D-05
 IDIUse=3 WtCom= 9.98D-01 WtEn= 2.49D-03
 Coeff-Com: -0.122D-02-0.212D-01-0.276D-01 0.159D-01 0.527D+00 0.507D+00
 Coeff-En:   0.000D+00 0.000D+00 0.000D+00 0.000D+00 0.000D+00 0.100D+01
 Coeff:     -0.122D-02-0.211D-01-0.275D-01 0.159D-01 0.526D+00 0.508D+00
 Gap=     0.321 Goal=   None    Shift=    0.000
 RMSDP=3.48D-05 MaxDP=8.93D-04 DE=-3.34D-05 OVMax= 7.22D-04

 Cycle   7  Pass 1  IDiag  1:
 RMSU=  2.26D-05    CP:  7.03D-01  7.58D-01  6.82D-01  9.24D-01  1.33D+00
                    CP:  1.02D+00
 E= -440.110563160224     Delta-E=       -0.000010606475 Rises=F Damp=F
 DIIS: error= 5.69D-05 at cycle   7 NSaved=   7.
 NSaved= 7 IEnMin= 7 EnMin= -440.110563160224     IErMin= 7 ErrMin= 5.69D-05
 ErrMax= 5.69D-05  0.00D+00 EMaxC= 1.00D-01 BMatC= 5.96D-07 BMatP= 1.25D-05
 IDIUse=1 WtCom= 1.00D+00 WtEn= 0.00D+00
 Coeff-Com: -0.242D-03-0.471D-02-0.619D-02-0.126D-01 0.182D-01 0.131D+00
 Coeff-Com:  0.874D+00
 Coeff:     -0.242D-03-0.471D-02-0.619D-02-0.126D-01 0.182D-01 0.131D+00
 Coeff:      0.874D+00
 Gap=     0.321 Goal=   None    Shift=    0.000
 RMSDP=2.01D-05 MaxDP=1.45D-03 DE=-1.06D-05 OVMax= 6.25D-04

 Cycle   8  Pass 1  IDiag  1:
 RMSU=  8.61D-06    CP:  7.03D-01  7.57D-01  6.84D-01  9.24D-01  1.39D+00
                    CP:  1.12D+00  1.21D+00
 E= -440.110564320192     Delta-E=       -0.000001159968 Rises=F Damp=F
 DIIS: error= 2.27D-05 at cycle   8 NSaved=   8.
 NSaved= 8 IEnMin= 8 EnMin= -440.110564320192     IErMin= 8 ErrMin= 2.27D-05
 ErrMax= 2.27D-05  0.00D+00 EMaxC= 1.00D-01 BMatC= 2.29D-07 BMatP= 5.96D-07
 IDIUse=1 WtCom= 1.00D+00 WtEn= 0.00D+00
 Coeff-Com:  0.895D-04 0.122D-02 0.169D-02-0.106D-01-0.921D-01-0.413D-01
 Coeff-Com:  0.452D+00 0.689D+00
 Coeff:      0.895D-04 0.122D-02 0.169D-02-0.106D-01-0.921D-01-0.413D-01
 Coeff:      0.452D+00 0.689D+00
 Gap=     0.321 Goal=   None    Shift=    0.000
 RMSDP=9.80D-06 MaxDP=4.45D-04 DE=-1.16D-06 OVMax= 3.36D-04

 Cycle   9  Pass 1  IDiag  1:
 RMSU=  4.47D-06    CP:  7.03D-01  7.57D-01  6.85D-01  9.23D-01  1.41D+00
                    CP:  1.16D+00  1.38D+00  1.18D+00
 E= -440.110564619758     Delta-E=       -0.000000299566 Rises=F Damp=F
 DIIS: error= 1.31D-05 at cycle   9 NSaved=   9.
 NSaved= 9 IEnMin= 9 EnMin= -440.110564619758     IErMin= 9 ErrMin= 1.31D-05
 ErrMax= 1.31D-05  0.00D+00 EMaxC= 1.00D-01 BMatC= 9.30D-09 BMatP= 2.29D-07
 IDIUse=1 WtCom= 1.00D+00 WtEn= 0.00D+00
 Coeff-Com:  0.523D-04 0.882D-03 0.131D-02-0.702D-03-0.221D-01-0.282D-01
 Coeff-Com:  0.138D-01 0.139D+00 0.896D+00
 Coeff:      0.523D-04 0.882D-03 0.131D-02-0.702D-03-0.221D-01-0.282D-01
 Coeff:      0.138D-01 0.139D+00 0.896D+00
 Gap=     0.321 Goal=   None    Shift=    0.000
 RMSDP=4.47D-06 MaxDP=2.67D-04 DE=-3.00D-07 OVMax= 1.04D-04

 Cycle  10  Pass 1  IDiag  1:
 RMSU=  1.44D-06    CP:  7.03D-01  7.57D-01  6.86D-01  9.20D-01  1.41D+00
                    CP:  1.17D+00  1.42D+00  1.28D+00  1.36D+00
 E= -440.110564643204     Delta-E=       -0.000000023446 Rises=F Damp=F
 DIIS: error= 2.76D-06 at cycle  10 NSaved=  10.
 NSaved=10 IEnMin=10 EnMin= -440.110564643204     IErMin=10 ErrMin= 2.76D-06
 ErrMax= 2.76D-06  0.00D+00 EMaxC= 1.00D-01 BMatC= 1.15D-09 BMatP= 9.30D-09
 IDIUse=1 WtCom= 1.00D+00 WtEn= 0.00D+00
 Coeff-Com:  0.854D-06 0.701D-04 0.153D-03 0.122D-02 0.658D-02-0.122D-02
 Coeff-Com: -0.492D-01-0.654D-01 0.167D+00 0.941D+00
 Coeff:      0.854D-06 0.701D-04 0.153D-03 0.122D-02 0.658D-02-0.122D-02
 Coeff:     -0.492D-01-0.654D-01 0.167D+00 0.941D+00
 Gap=     0.321 Goal=   None    Shift=    0.000
 RMSDP=1.47D-06 MaxDP=5.01D-05 DE=-2.34D-08 OVMax= 4.62D-05

 Cycle  11  Pass 1  IDiag  1:
 RMSU=  4.79D-07    CP:  7.03D-01  7.57D-01  6.86D-01  9.20D-01  1.41D+00
                    CP:  1.16D+00  1.43D+00  1.34D+00  1.52D+00  1.14D+00
 E= -440.110564646642     Delta-E=       -0.000000003438 Rises=F Damp=F
 DIIS: error= 1.15D-06 at cycle  11 NSaved=  11.
 NSaved=11 IEnMin=11 EnMin= -440.110564646642     IErMin=11 ErrMin= 1.15D-06
 ErrMax= 1.15D-06  0.00D+00 EMaxC= 1.00D-01 BMatC= 1.36D-10 BMatP= 1.15D-09
 IDIUse=1 WtCom= 1.00D+00 WtEn= 0.00D+00
 Coeff-Com: -0.420D-05-0.680D-04-0.792D-04 0.326D-03 0.320D-02 0.280D-02
 Coeff-Com: -0.932D-02-0.261D-01-0.694D-01 0.155D+00 0.944D+00
 Coeff:     -0.420D-05-0.680D-04-0.792D-04 0.326D-03 0.320D-02 0.280D-02
 Coeff:     -0.932D-02-0.261D-01-0.694D-01 0.155D+00 0.944D+00
 Gap=     0.321 Goal=   None    Shift=    0.000
 RMSDP=4.34D-07 MaxDP=2.08D-05 DE=-3.44D-09 OVMax= 1.33D-05

 Cycle  12  Pass 1  IDiag  1:
 RMSU=  1.40D-07    CP:  7.03D-01  7.57D-01  6.86D-01  9.19D-01  1.41D+00
                    CP:  1.16D+00  1.43D+00  1.34D+00  1.56D+00  1.26D+00
                    CP:  1.30D+00
 E= -440.110564647038     Delta-E=       -0.000000000396 Rises=F Damp=F
 DIIS: error= 3.24D-07 at cycle  12 NSaved=  12.
 NSaved=12 IEnMin=12 EnMin= -440.110564647038     IErMin=12 ErrMin= 3.24D-07
 ErrMax= 3.24D-07  0.00D+00 EMaxC= 1.00D-01 BMatC= 1.94D-11 BMatP= 1.36D-10
 IDIUse=1 WtCom= 1.00D+00 WtEn= 0.00D+00
 Coeff-Com: -0.896D-06-0.226D-04-0.322D-04-0.834D-04-0.330D-03 0.943D-03
 Coeff-Com:  0.447D-02 0.353D-02-0.371D-01-0.786D-01 0.227D+00 0.880D+00
 Coeff:     -0.896D-06-0.226D-04-0.322D-04-0.834D-04-0.330D-03 0.943D-03
 Coeff:      0.447D-02 0.353D-02-0.371D-01-0.786D-01 0.227D+00 0.880D+00
 Gap=     0.321 Goal=   None    Shift=    0.000
 RMSDP=1.09D-07 MaxDP=3.67D-06 DE=-3.96D-10 OVMax= 4.93D-06

 Cycle  13  Pass 1  IDiag  1:
 RMSU=  5.27D-08    CP:  7.03D-01  7.57D-01  6.86D-01  9.19D-01  1.41D+00
                    CP:  1.16D+00  1.43D+00  1.34D+00  1.56D+00  1.29D+00
                    CP:  1.40D+00  1.14D+00
 E= -440.110564647085     Delta-E=       -0.000000000047 Rises=F Damp=F
 DIIS: error= 1.60D-07 at cycle  13 NSaved=  13.
 NSaved=13 IEnMin=13 EnMin= -440.110564647085     IErMin=13 ErrMin= 1.60D-07
 ErrMax= 1.60D-07  0.00D+00 EMaxC= 1.00D-01 BMatC= 3.00D-12 BMatP= 1.94D-11
 IDIUse=1 WtCom= 1.00D+00 WtEn= 0.00D+00
 Coeff-Com:  0.215D-06 0.170D-05 0.397D-06-0.595D-04-0.498D-03-0.154D-04
 Coeff-Com:  0.220D-02 0.418D-02-0.183D-02-0.395D-01-0.701D-01 0.245D+00
 Coeff-Com:  0.861D+00
 Coeff:      0.215D-06 0.170D-05 0.397D-06-0.595D-04-0.498D-03-0.154D-04
 Coeff:      0.220D-02 0.418D-02-0.183D-02-0.395D-01-0.701D-01 0.245D+00
 Coeff:      0.861D+00
 Gap=     0.321 Goal=   None    Shift=    0.000
 RMSDP=3.67D-08 MaxDP=1.59D-06 DE=-4.73D-11 OVMax= 2.17D-06

 Cycle  14  Pass 1  IDiag  1:
 RMSU=  1.88D-08    CP:  7.03D-01  7.57D-01  6.86D-01  9.19D-01  1.41D+00
                    CP:  1.16D+00  1.43D+00  1.34D+00  1.56D+00  1.30D+00
                    CP:  1.43D+00  1.24D+00  1.15D+00
 E= -440.110564647098     Delta-E=       -0.000000000013 Rises=F Damp=F
 DIIS: error= 7.02D-08 at cycle  14 NSaved=  14.
 NSaved=14 IEnMin=14 EnMin= -440.110564647098     IErMin=14 ErrMin= 7.02D-08
 ErrMax= 7.02D-08  0.00D+00 EMaxC= 1.00D-01 BMatC= 2.82D-13 BMatP= 3.00D-12
 IDIUse=1 WtCom= 1.00D+00 WtEn= 0.00D+00
 Coeff-Com:  0.813D-07 0.193D-05 0.234D-05 0.324D-05-0.117D-04-0.685D-04
 Coeff-Com: -0.292D-03 0.985D-05 0.311D-02 0.476D-02-0.351D-01-0.654D-01
 Coeff-Com:  0.121D+00 0.972D+00
 Coeff:      0.813D-07 0.193D-05 0.234D-05 0.324D-05-0.117D-04-0.685D-04
 Coeff:     -0.292D-03 0.985D-05 0.311D-02 0.476D-02-0.351D-01-0.654D-01
 Coeff:      0.121D+00 0.972D+00
 Gap=     0.321 Goal=   None    Shift=    0.000
 RMSDP=1.47D-08 MaxDP=4.37D-07 DE=-1.25D-11 OVMax= 9.63D-07

 Cycle  15  Pass 1  IDiag  1:
 RMSU=  8.16D-09    CP:  7.03D-01  7.57D-01  6.86D-01  9.19D-01  1.41D+00
                    CP:  1.16D+00  1.43D+00  1.34D+00  1.56D+00  1.30D+00
                    CP:  1.43D+00  1.26D+00  1.25D+00  1.33D+00
 E= -440.110564647098     Delta-E=        0.000000000000 Rises=F Damp=F
 DIIS: error= 3.48D-08 at cycle  15 NSaved=  15.
 NSaved=15 IEnMin=14 EnMin= -440.110564647098     IErMin=15 ErrMin= 3.48D-08
 ErrMax= 3.48D-08  0.00D+00 EMaxC= 1.00D-01 BMatC= 6.36D-14 BMatP= 2.82D-13
 IDIUse=1 WtCom= 1.00D+00 WtEn= 0.00D+00
 Coeff-Com: -0.971D-08 0.327D-06 0.706D-06 0.108D-04 0.703D-04-0.859D-05
 Coeff-Com: -0.410D-03-0.575D-03 0.982D-03 0.805D-02 0.389D-02-0.559D-01
 Coeff-Com: -0.108D+00 0.234D+00 0.918D+00
 Coeff:     -0.971D-08 0.327D-06 0.706D-06 0.108D-04 0.703D-04-0.859D-05
 Coeff:     -0.410D-03-0.575D-03 0.982D-03 0.805D-02 0.389D-02-0.559D-01
 Coeff:     -0.108D+00 0.234D+00 0.918D+00
 Gap=     0.321 Goal=   None    Shift=    0.000
 RMSDP=6.04D-09 MaxDP=1.68D-07 DE= 0.00D+00 OVMax= 4.36D-07

 SCF Done:  E(RwB97XD) =  -440.110564647     A.U. after   15 cycles
            NFock= 15  Conv=0.60D-08     -V/T= 2.0001
 KE= 4.400447168298D+02 PE=-2.009539285228D+03 EE= 6.376746913377D+02
 Leave Link  502 at Tue Nov 22 19:15:01 2022, MaxMem= 16106127360 cpu:             596.9 elap:              18.7
 (Enter /opt/ap/G16/B01/g16/l601.exe)
 Copying SCF densities to generalized density rwf, IOpCl= 0 IROHF=0.

 **********************************************************************

            Population analysis using the SCF Density.

 **********************************************************************

 Orbital symmetries:
       Occupied  (A) (A) (A) (A) (A) (A) (A) (A) (A) (A) (A) (A)
                 (A) (A) (A) (A) (A) (A) (A) (A) (A) (A) (A) (A)
                 (A) (A) (A) (A) (A) (A) (A) (A) (A) (A) (A) (A)
       Virtual   (A) (A) (A) (A) (A) (A) (A) (A) (A) (A) (A) (A)
                 (A) (A) (A) (A) (A) (A) (A) (A) (A) (A) (A) (A)
                 (A) (A) (A) (A) (A) (A) (A) (A) (A) (A) (A) (A)
                 (A) (A) (A) (A) (A) (A) (A) (A) (A) (A) (A) (A)
                 (A) (A) (A) (A) (A) (A) (A) (A) (A) (A) (A) (A)
                 (A) (A) (A) (A) (A) (A) (A) (A) (A) (A) (A) (A)
                 (A) (A) (A) (A) (A) (A) (A) (A) (A) (A) (A) (A)
                 (A) (A) (A) (A) (A) (A) (A) (A) (A) (A) (A) (A)
                 (A) (A) (A) (A) (A) (A) (A) (A) (A) (A) (A) (A)
                 (A) (A) (A) (A) (A) (A) (A) (A) (A) (A) (A) (A)
                 (A) (A) (A) (A) (A) (A) (A) (A) (A) (A) (A) (A)
                 (A) (A) (A) (A) (A) (A) (A) (A) (A) (A) (A) (A)
                 (A) (A) (A) (A) (A) (A) (A) (A) (A) (A) (A) (A)
                 (A) (A) (A) (A) (A) (A) (A) (A) (A) (A) (A) (A)
                 (A) (A) (A) (A) (A) (A) (A) (A) (A) (A) (A) (A)
                 (A) (A) (A) (A) (A) (A) (A) (A) (A) (A) (A) (A)
                 (A) (A) (A) (A) (A) (A) (A) (A) (A) (A) (A) (A)
                 (A) (A) (A) (A) (A) (A) (A) (A) (A) (A) (A) (A)
                 (A) (A) (A) (A) (A) (A) (A) (A) (A) (A) (A) (A)
                 (A) (A) (A) (A) (A) (A) (A) (A) (A) (A) (A) (A)
                 (A) (A) (A) (A) (A) (A)
 The electronic state is 1-A.
 Alpha  occ. eigenvalues --  -19.24917 -14.44413 -10.41399 -10.34571 -10.28339
 Alpha  occ. eigenvalues --  -10.28289 -10.27805 -10.27666 -10.27174 -10.26102
 Alpha  occ. eigenvalues --   -1.16174  -1.06139  -0.96292  -0.88240  -0.86647
 Alpha  occ. eigenvalues --   -0.85373  -0.74999  -0.73104  -0.69373  -0.65773
 Alpha  occ. eigenvalues --   -0.61292  -0.59520  -0.56089  -0.55869  -0.54294
 Alpha  occ. eigenvalues --   -0.53646  -0.53080  -0.51533  -0.47806  -0.46212
 Alpha  occ. eigenvalues --   -0.44830  -0.44524  -0.39755  -0.36386  -0.33900
 Alpha  occ. eigenvalues --   -0.29310
 Alpha virt. eigenvalues --    0.02771   0.03721   0.04690   0.04809   0.04848
 Alpha virt. eigenvalues --    0.06195   0.06353   0.06721   0.07670   0.08540
 Alpha virt. eigenvalues --    0.09130   0.10939   0.11965   0.12227   0.12711
 Alpha virt. eigenvalues --    0.14145   0.14961   0.15426   0.15757   0.16710
 Alpha virt. eigenvalues --    0.16999   0.17101   0.17595   0.18234   0.18530
 Alpha virt. eigenvalues --    0.18671   0.19165   0.19601   0.20484   0.20661
 Alpha virt. eigenvalues --    0.20948   0.21400   0.22053   0.22928   0.23301
 Alpha virt. eigenvalues --    0.24139   0.25437   0.25647   0.26134   0.26729
 Alpha virt. eigenvalues --    0.27294   0.28245   0.29113   0.29852   0.30139
 Alpha virt. eigenvalues --    0.30675   0.31225   0.31901   0.33241   0.34561
 Alpha virt. eigenvalues --    0.34998   0.35716   0.36170   0.36657   0.38470
 Alpha virt. eigenvalues --    0.38598   0.38709   0.40056   0.40484   0.41156
 Alpha virt. eigenvalues --    0.42163   0.42499   0.43610   0.43857   0.46136
 Alpha virt. eigenvalues --    0.46693   0.49819   0.50607   0.53330   0.55265
 Alpha virt. eigenvalues --    0.57269   0.59083   0.60646   0.61976   0.62811
 Alpha virt. eigenvalues --    0.63369   0.63913   0.64832   0.65931   0.66254
 Alpha virt. eigenvalues --    0.68537   0.68783   0.70564   0.71312   0.72051
 Alpha virt. eigenvalues --    0.73758   0.75535   0.76999   0.77883   0.79680
 Alpha virt. eigenvalues --    0.80934   0.82058   0.82640   0.83660   0.85699
 Alpha virt. eigenvalues --    0.87214   0.88094   0.89548   0.92196   0.93016
 Alpha virt. eigenvalues --    0.94215   0.94675   0.96632   0.97207   0.97654
 Alpha virt. eigenvalues --    0.98569   0.99881   1.01404   1.03666   1.04687
 Alpha virt. eigenvalues --    1.07336   1.07957   1.11154   1.12927   1.15269
 Alpha virt. eigenvalues --    1.16091   1.16822   1.18065   1.21977   1.23294
 Alpha virt. eigenvalues --    1.26103   1.27842   1.32396   1.33665   1.37530
 Alpha virt. eigenvalues --    1.42855   1.46168   1.47906   1.51406   1.56361
 Alpha virt. eigenvalues --    1.59901   1.61047   1.61993   1.63040   1.64531
 Alpha virt. eigenvalues --    1.65437   1.67250   1.67997   1.69526   1.70033
 Alpha virt. eigenvalues --    1.71211   1.73972   1.75472   1.76773   1.78270
 Alpha virt. eigenvalues --    1.79237   1.83216   1.86438   1.88722   1.90601
 Alpha virt. eigenvalues --    1.92659   1.93878   1.97120   1.97750   2.00411
 Alpha virt. eigenvalues --    2.00840   2.01962   2.04432   2.06113   2.07237
 Alpha virt. eigenvalues --    2.08573   2.09865   2.13832   2.15123   2.16037
 Alpha virt. eigenvalues --    2.24856   2.25103   2.26064   2.28748   2.38074
 Alpha virt. eigenvalues --    2.39761   2.43256   2.47531   2.48374   2.51849
 Alpha virt. eigenvalues --    2.53931   2.57412   2.59243   2.62624   2.64105
 Alpha virt. eigenvalues --    2.65696   2.67972   2.72671   2.73220   2.77560
 Alpha virt. eigenvalues --    2.78251   2.81157   2.82174   2.82744   2.84602
 Alpha virt. eigenvalues --    2.87318   2.90217   2.90935   2.92125   2.93877
 Alpha virt. eigenvalues --    2.94323   2.94985   2.97911   2.99146   3.00834
 Alpha virt. eigenvalues --    3.02505   3.03860   3.06004   3.10896   3.13466
 Alpha virt. eigenvalues --    3.19509   3.21399   3.22972   3.27066   3.30639
 Alpha virt. eigenvalues --    3.41608   3.42461   3.48037   3.51065   3.55405
 Alpha virt. eigenvalues --    3.59423   3.62340   3.68929   3.72017   3.90938
 Alpha virt. eigenvalues --    3.96822   4.04775   4.11217   4.13173   4.22885
 Alpha virt. eigenvalues --    4.30858   4.34669   4.38233   4.39547   4.44719
 Alpha virt. eigenvalues --    4.96029   5.13666   5.19731   5.24645   5.30970
 Alpha virt. eigenvalues --    5.84391  23.87115  23.98614  24.14439  24.22774
 Alpha virt. eigenvalues --   24.30538  24.33319  24.38517  24.42884  35.89514
 Alpha virt. eigenvalues --   50.10425
          Condensed to atoms (all electrons):
               1          2          3          4          5          6
     1  C    7.840086  -0.473475   0.057520  -1.028209  -0.134713  -0.144685
     2  C   -0.473475   9.755277  -2.985384  -0.873009   0.681168   0.102874
     3  C    0.057520  -2.985384   8.408635   1.062246  -0.112301  -0.168352
     4  C   -1.028209  -0.873009   1.062246   6.816277  -0.122378  -0.000786
     5  H   -0.134713   0.681168  -0.112301  -0.122378   0.559156  -0.014325
     6  N   -0.144685   0.102874  -0.168352  -0.000786  -0.014325   7.231203
     7  C   -0.086844   0.138629   0.160994  -0.303570   0.019793  -0.017059
     8  H   -0.111179  -0.047231   0.514792   0.046352  -0.004784  -0.004467
     9  C   -0.211787   0.044639  -0.611387   0.560248   0.027910   0.053905
    10  H    0.031017  -0.070723   0.033198   0.403001  -0.017345  -0.003767
    11  C    0.282937  -0.564959   0.191536  -0.216329  -0.020425   0.004287
    12  H    0.025012   0.003215  -0.017595  -0.026235   0.002831   0.394145
    13  H    0.045758   0.047738  -0.135878  -0.031647   0.001248  -0.005580
    14  H    0.008319  -0.015040  -0.010279  -0.051470   0.000670   0.001880
    15  C    0.126344  -0.207285   0.104400  -0.003633  -0.004513  -0.220087
    16  O    0.043335  -0.070628   0.039837   0.000137  -0.005778  -0.101770
    17  H   -0.011276   0.002441   0.000851  -0.012136   0.001897  -0.001139
    18  H   -0.005675  -0.012376   0.010000   0.013432  -0.003961   0.009867
    19  H   -0.027553   0.044161  -0.027275  -0.012293  -0.001845   0.012658
               7          8          9         10         11         12
     1  C   -0.086844  -0.111179  -0.211787   0.031017   0.282937   0.025012
     2  C    0.138629  -0.047231   0.044639  -0.070723  -0.564959   0.003215
     3  C    0.160994   0.514792  -0.611387   0.033198   0.191536  -0.017595
     4  C   -0.303570   0.046352   0.560248   0.403001  -0.216329  -0.026235
     5  H    0.019793  -0.004784   0.027910  -0.017345  -0.020425   0.002831
     6  N   -0.017059  -0.004467   0.053905  -0.003767   0.004287   0.394145
     7  C    5.347901  -0.059574   0.561136  -0.005402   0.051685   0.015012
     8  H   -0.059574   0.539824  -0.010994   0.001991   0.007220  -0.003035
     9  C    0.561136  -0.010994   5.533033  -0.062403  -0.013871  -0.000723
    10  H   -0.005402   0.001991  -0.062403   0.492400   0.000462  -0.000185
    11  C    0.051685   0.007220  -0.013871   0.000462   5.940402  -0.043386
    12  H    0.015012  -0.003035  -0.000723  -0.000185  -0.043386   0.362476
    13  H    0.438279  -0.018820  -0.026384  -0.001001  -0.001518   0.001710
    14  H   -0.057329  -0.000260   0.475432  -0.011013   0.000208  -0.000334
    15  C   -0.001779   0.001120  -0.001566   0.000879   0.027674  -0.027865
    16  O   -0.005100   0.000614  -0.000696   0.000313   0.486959  -0.007050
    17  H    0.004254  -0.000649  -0.000956   0.000070   0.003060  -0.000141
    18  H   -0.002268   0.000891  -0.000696   0.000442  -0.077600  -0.005359
    19  H    0.002333  -0.000495   0.002170  -0.000410  -0.086400   0.003115
              13         14         15         16         17         18
     1  C    0.045758   0.008319   0.126344   0.043335  -0.011276  -0.005675
     2  C    0.047738  -0.015040  -0.207285  -0.070628   0.002441  -0.012376
     3  C   -0.135878  -0.010279   0.104400   0.039837   0.000851   0.010000
     4  C   -0.031647  -0.051470  -0.003633   0.000137  -0.012136   0.013432
     5  H    0.001248   0.000670  -0.004513  -0.005778   0.001897  -0.003961
     6  N   -0.005580   0.001880  -0.220087  -0.101770  -0.001139   0.009867
     7  C    0.438279  -0.057329  -0.001779  -0.005100   0.004254  -0.002268
     8  H   -0.018820  -0.000260   0.001120   0.000614  -0.000649   0.000891
     9  C   -0.026384   0.475432  -0.001566  -0.000696  -0.000956  -0.000696
    10  H   -0.001001  -0.011013   0.000879   0.000313   0.000070   0.000442
    11  C   -0.001518   0.000208   0.027674   0.486959   0.003060  -0.077600
    12  H    0.001710  -0.000334  -0.027865  -0.007050  -0.000141  -0.005359
    13  H    0.494142  -0.009400  -0.000255  -0.000009   0.000062  -0.000062
    14  H   -0.009400   0.497561  -0.000096   0.000035  -0.000067   0.000030
    15  C   -0.000255  -0.000096   5.495176  -0.073637   0.397766   0.449387
    16  O   -0.000009   0.000035  -0.073637   7.924459  -0.012105  -0.014331
    17  H    0.000062  -0.000067   0.397766  -0.012105   0.481411  -0.021008
    18  H   -0.000062   0.000030   0.449387  -0.014331  -0.021008   0.479240
    19  H   -0.000039   0.000081   0.433570   0.005404  -0.026489  -0.032947
              19
     1  C   -0.027553
     2  C    0.044161
     3  C   -0.027275
     4  C   -0.012293
     5  H   -0.001845
     6  N    0.012658
     7  C    0.002333
     8  H   -0.000495
     9  C    0.002170
    10  H   -0.000410
    11  C   -0.086400
    12  H    0.003115
    13  H   -0.000039
    14  H    0.000081
    15  C    0.433570
    16  O    0.005404
    17  H   -0.026489
    18  H   -0.032947
    19  H    0.536418
 Mulliken charges:
               1
     1  C   -0.224931
     2  C    0.499968
     3  C   -0.515559
     4  C   -0.219998
     5  H    0.147695
     6  N   -0.128805
     7  C   -0.201090
     8  H    0.148686
     9  C   -0.317011
    10  H    0.208475
    11  C    0.028059
    12  H    0.324391
    13  H    0.201654
    14  H    0.171071
    15  C   -0.495599
    16  O   -0.209988
    17  H    0.194150
    18  H    0.212995
    19  H    0.175837
 Sum of Mulliken charges =  -0.00000
 Mulliken charges with hydrogens summed into heavy atoms:
               1
     1  C   -0.224931
     2  C    0.647662
     3  C   -0.366873
     4  C   -0.011523
     6  N    0.195586
     7  C    0.000564
     9  C   -0.145940
    11  C    0.028059
    15  C    0.087383
    16  O   -0.209988
 Electronic spatial extent (au):  <R**2>=           1625.8560
 Charge=             -0.0000 electrons
 Dipole moment (field-independent basis, Debye):
    X=             -0.9195    Y=              0.3874    Z=             -2.7489  Tot=              2.9243
 Quadrupole moment (field-independent basis, Debye-Ang):
   XX=            -58.5792   YY=            -51.6230   ZZ=            -64.2998
   XY=              2.7180   XZ=             -8.7326   YZ=              3.6513
 Traceless Quadrupole moment (field-independent basis, Debye-Ang):
   XX=             -0.4119   YY=              6.5443   ZZ=             -6.1324
   XY=              2.7180   XZ=             -8.7326   YZ=              3.6513
 Octapole moment (field-independent basis, Debye-Ang**2):
  XXX=            -15.4350  YYY=             -4.7108  ZZZ=             -2.4831  XYY=              2.8050
  XXY=              5.9475  XXZ=            -20.7877  XZZ=              4.5400  YZZ=              0.6720
  YYZ=             -2.6350  XYZ=              1.4758
 Hexadecapole moment (field-independent basis, Debye-Ang**3):
 XXXX=          -1584.1864 YYYY=           -339.2584 ZZZZ=           -168.3377 XXXY=             25.1392
 XXXZ=            -77.8189 YYYX=             -5.0853 YYYZ=             14.1214 ZZZX=             -5.6470
 ZZZY=             -0.4266 XXYY=           -307.9006 XXZZ=           -333.3059 YYZZ=            -92.8532
 XXYZ=             17.2137 YYXZ=             -4.8303 ZZXY=              3.9017
 N-N= 4.917093124136D+02 E-N=-2.009539285509D+03  KE= 4.400447168298D+02
 No NMR shielding tensors so no spin-rotation constants.
 Leave Link  601 at Tue Nov 22 19:15:01 2022, MaxMem= 16106127360 cpu:               3.9 elap:               0.1
 (Enter /opt/ap/G16/B01/g16/l9999.exe)
 1\1\GINC-N38\SP\RwB97XD\6-311++G(d,p)\C8H9N1O1\ROOT\22-Nov-2022\0\\#P 
 wB97XD/6-311++G(d,p) scf=maxcycle=512\\_conf056.gjf nmol_natom 1_19\\0
 ,1\C\C,1,1.39447505\C,1,1.39873503,2,119.56697224\C,2,1.39066123,1,119
 .42697207,3,2.53915756,0\H,2,0.96213008,1,119.8046163,3,-177.79870417,
 0\N,1,1.41693372,2,123.72220125,4,-177.74604849,0\C,3,1.38667133,1,120
 .18759987,2,-2.5020857,0\H,3,0.95673174,1,118.82085988,2,177.96737168,
 0\C,4,1.38268572,2,121.03929493,1,-0.41221113,0\H,4,0.9858595,2,118.57
 91267,1,178.77373233,0\C,6,1.35500692,1,127.62132737,2,17.57862687,0\H
 ,6,0.89609466,1,115.10511997,2,-166.41127095,0\H,7,0.98847198,3,119.08
 117704,1,-179.64585354,0\H,9,0.98451201,4,120.53755637,2,177.22743544,
 0\C,11,1.50274561,6,115.46861532,1,-80.,0\O,11,1.23496495,6,123.150998
 88,1,100.,0\H,15,0.98719837,11,107.47091875,6,-116.36962839,0\H,15,0.9
 9976021,11,109.69443261,6,128.85346087,0\H,15,0.97696155,11,114.370088
 71,6,6.05302844,0\\Version=ES64L-G16RevB.01\State=1-A\HF=-440.1105646\
 RMSD=6.037e-09\Dipole=0.3265146,-1.1024911,0.0400027\Quadrupole=0.7801
 649,-5.623915,4.8437501,6.1718409,-1.9606128,2.4692864\PG=C01 [X(C8H9N
 1O1)]\\@


      LET US REMEMBER, PLEASE, THAT THE SEARCH FOR THE CONSTITUTION
      OF THE WORLD IS ONE OF THE GREATEST AND NOBLEST PROBLEMS PRESENTED 
      BY NATURE.

                                                  -- GALILEO
 Job cpu time:       0 days  0 hours 10 minutes 35.0 seconds.
 Elapsed time:       0 days  0 hours  0 minutes 20.0 seconds.
 File lengths (MBytes):  RWF=     46 Int=      0 D2E=      0 Chk=      6 Scr=      1
 Normal termination of Gaussian 16 at Tue Nov 22 19:15:01 2022.
