 Entering Gaussian System, Link 0=g16
 Input=_conf015.gjf
 Output=_conf015.log
 Initial command:
 /opt/ap/G16/B01/g16/l1.exe "/tmp2/scr/Gau-31441.inp" -scrdir="/tmp2/scr/"
 Entering Link 1 = /opt/ap/G16/B01/g16/l1.exe PID=     31442.
  
 Copyright (c) 1988-2017, Gaussian, Inc.  All Rights Reserved.
  
 This is part of the Gaussian(R) 16 program.  It is based on
 the Gaussian(R) 09 system (copyright 2009, Gaussian, Inc.),
 the Gaussian(R) 03 system (copyright 2003, Gaussian, Inc.),
 the Gaussian(R) 98 system (copyright 1998, Gaussian, Inc.),
 the Gaussian(R) 94 system (copyright 1995, Gaussian, Inc.),
 the Gaussian 92(TM) system (copyright 1992, Gaussian, Inc.),
 the Gaussian 90(TM) system (copyright 1990, Gaussian, Inc.),
 the Gaussian 88(TM) system (copyright 1988, Gaussian, Inc.),
 the Gaussian 86(TM) system (copyright 1986, Carnegie Mellon
 University), and the Gaussian 82(TM) system (copyright 1983,
 Carnegie Mellon University). Gaussian is a federally registered
 trademark of Gaussian, Inc.
  
 This software contains proprietary and confidential information,
 including trade secrets, belonging to Gaussian, Inc.
  
 This software is provided under written license and may be
 used, copied, transmitted, or stored only in accord with that
 written license.
  
 The following legend is applicable only to US Government
 contracts under FAR:
  
                    RESTRICTED RIGHTS LEGEND
  
 Use, reproduction and disclosure by the US Government is
 subject to restrictions as set forth in subparagraphs (a)
 and (c) of the Commercial Computer Software - Restricted
 Rights clause in FAR 52.227-19.
  
 Gaussian, Inc.
 340 Quinnipiac St., Bldg. 40, Wallingford CT 06492
  
  
 ---------------------------------------------------------------
 Warning -- This program may not be used in any manner that
 competes with the business of Gaussian, Inc. or will provide
 assistance to any competitor of Gaussian, Inc.  The licensee
 of this program is prohibited from giving any competitor of
 Gaussian, Inc. access to this program.  By using this program,
 the user acknowledges that Gaussian, Inc. is engaged in the
 business of creating and licensing software in the field of
 computational chemistry and represents and warrants to the
 licensee that it is not a competitor of Gaussian, Inc. and that
 it will not use this program in any manner prohibited above.
 ---------------------------------------------------------------
  

 Cite this work as:
 Gaussian 16, Revision B.01,
 M. J. Frisch, G. W. Trucks, H. B. Schlegel, G. E. Scuseria, 
 M. A. Robb, J. R. Cheeseman, G. Scalmani, V. Barone, 
 G. A. Petersson, H. Nakatsuji, X. Li, M. Caricato, A. V. Marenich, 
 J. Bloino, B. G. Janesko, R. Gomperts, B. Mennucci, H. P. Hratchian, 
 J. V. Ortiz, A. F. Izmaylov, J. L. Sonnenberg, D. Williams-Young, 
 F. Ding, F. Lipparini, F. Egidi, J. Goings, B. Peng, A. Petrone, 
 T. Henderson, D. Ranasinghe, V. G. Zakrzewski, J. Gao, N. Rega, 
 G. Zheng, W. Liang, M. Hada, M. Ehara, K. Toyota, R. Fukuda, 
 J. Hasegawa, M. Ishida, T. Nakajima, Y. Honda, O. Kitao, H. Nakai, 
 T. Vreven, K. Throssell, J. A. Montgomery, Jr., J. E. Peralta, 
 F. Ogliaro, M. J. Bearpark, J. J. Heyd, E. N. Brothers, K. N. Kudin, 
 V. N. Staroverov, T. A. Keith, R. Kobayashi, J. Normand, 
 K. Raghavachari, A. P. Rendell, J. C. Burant, S. S. Iyengar, 
 J. Tomasi, M. Cossi, J. M. Millam, M. Klene, C. Adamo, R. Cammi, 
 J. W. Ochterski, R. L. Martin, K. Morokuma, O. Farkas, 
 J. B. Foresman, and D. J. Fox, Gaussian, Inc., Wallingford CT, 2016.
 
 ******************************************
 Gaussian 16:  ES64L-G16RevB.01 20-Dec-2017
                22-Nov-2022 
 ******************************************
 %nprocshared=32
 Will use up to   32 processors via shared memory.
 %mem=120GB
 %chk=_conf015.chk
 ----------------------------------------
 #P wB97XD/6-311++G(d,p) scf=maxcycle=512
 ----------------------------------------
 1/38=1,172=1/1;
 2/12=2,17=6,18=5,40=1/2;
 3/5=4,6=6,7=1111,11=2,25=1,30=1,74=-58/1,2,3;
 4//1;
 5/5=2,7=512,38=5/2;
 6/7=2,8=2,9=2,10=2,28=1/1;
 99/5=1,9=1/99;
 Leave Link    1 at Tue Nov 22 19:11:01 2022, MaxMem= 16106127360 cpu:               1.8 elap:               0.1
 (Enter /opt/ap/G16/B01/g16/l101.exe)
 ----------------------------
 _conf015.gjf nmol_natom 1_19
 ----------------------------
 Symbolic Z-matrix:
 Charge =  0 Multiplicity = 1
 C
 C                    1     1.39448 
 C                    1     1.39874  2     119.56697 
 C                    2     1.39066  1     119.42697  3     2.53916  0
 H                    2     0.96213  1     119.80462  3    -177.7987  0
 N                    1     1.41693  2     123.7222  4    -177.74605  0
 C                    3     1.38667  1     120.1876  2    -2.50209  0
 H                    3     0.95673  1     118.82086  2     177.96737  0
 C                    4     1.38269  2     121.03929  1    -0.41221  0
 H                    4     0.98586  2     118.57913  1     178.77373  0
 C                    6     1.35501  1     127.62133  2     17.57863  0
 H                    6     0.89609  1     115.10512  2    -166.41127  0
 H                    7     0.98847  3     119.08118  1    -179.64585  0
 H                    9     0.98451  4     120.53756  2     177.22744  0
 C                    11    1.50275  6     115.46862  1     75.      0
 O                    11    1.23496  6     123.151  1    -105.     0
 H                    15    0.9872   11    107.47092  6    -116.36963  0
 H                    15    0.99976  11    109.69443  6     128.85346  0
 H                    15    0.97696  11    114.37009  6     6.05303  0
 
 ITRead=  0  0  0  0  0  0  0  0  0  0  0  0  0  0  0  0  0  0  0
 MicOpt= -1 -1 -1 -1 -1 -1 -1 -1 -1 -1 -1 -1 -1 -1 -1 -1 -1 -1 -1
 NAtoms=     19 NQM=       19 NQMF=       0 NMMI=      0 NMMIF=      0
                NMic=       0 NMicF=      0.
                    Isotopes and Nuclear Properties:
 (Nuclear quadrupole moments (NQMom) in fm**2, nuclear magnetic moments (NMagM)
  in nuclear magnetons)

  Atom         1           2           3           4           5           6           7           8           9          10
 IAtWgt=          12          12          12          12           1          14          12           1          12           1
 AtmWgt=  12.0000000  12.0000000  12.0000000  12.0000000   1.0078250  14.0030740  12.0000000   1.0078250  12.0000000   1.0078250
 NucSpn=           0           0           0           0           1           2           0           1           0           1
 AtZEff=  -0.0000000  -0.0000000  -0.0000000  -0.0000000  -0.0000000  -0.0000000  -0.0000000  -0.0000000  -0.0000000  -0.0000000
 NQMom=    0.0000000   0.0000000   0.0000000   0.0000000   0.0000000   2.0440000   0.0000000   0.0000000   0.0000000   0.0000000
 NMagM=    0.0000000   0.0000000   0.0000000   0.0000000   2.7928460   0.4037610   0.0000000   2.7928460   0.0000000   2.7928460
 AtZNuc=   6.0000000   6.0000000   6.0000000   6.0000000   1.0000000   7.0000000   6.0000000   1.0000000   6.0000000   1.0000000

  Atom        11          12          13          14          15          16          17          18          19
 IAtWgt=          12           1           1           1          12          16           1           1           1
 AtmWgt=  12.0000000   1.0078250   1.0078250   1.0078250  12.0000000  15.9949146   1.0078250   1.0078250   1.0078250
 NucSpn=           0           1           1           1           0           0           1           1           1
 AtZEff=  -0.0000000  -0.0000000  -0.0000000  -0.0000000  -0.0000000  -0.0000000  -0.0000000  -0.0000000  -0.0000000
 NQMom=    0.0000000   0.0000000   0.0000000   0.0000000   0.0000000   0.0000000   0.0000000   0.0000000   0.0000000
 NMagM=    0.0000000   2.7928460   2.7928460   2.7928460   0.0000000   0.0000000   2.7928460   2.7928460   2.7928460
 AtZNuc=   6.0000000   1.0000000   1.0000000   1.0000000   6.0000000   8.0000000   1.0000000   1.0000000   1.0000000
 Leave Link  101 at Tue Nov 22 19:11:02 2022, MaxMem= 16106127360 cpu:               5.2 elap:               0.2
 (Enter /opt/ap/G16/B01/g16/l202.exe)
                          Input orientation:                          
 ---------------------------------------------------------------------
 Center     Atomic      Atomic             Coordinates (Angstroms)
 Number     Number       Type             X           Y           Z
 ---------------------------------------------------------------------
      1          6           0        0.000000    0.000000    0.000000
      2          6           0        0.000000    0.000000    1.394475
      3          6           0        1.216591    0.000000   -0.690193
      4          6           0        1.210053    0.053661    2.077726
      5          1           0       -0.834249   -0.032067    1.872696
      6          7           0       -1.178505   -0.005866   -0.786634
      7          6           0        2.413939    0.052326    0.007287
      8          1           0        1.204393   -0.029731   -1.646384
      9          6           0        2.412261    0.098442    1.396177
     10          1           0        1.194755    0.071528    3.063305
     11          6           0       -2.436085    0.312014   -0.394861
     12          1           0       -1.055905   -0.195907   -1.653721
     13          1           0        3.263999    0.056828   -0.497149
     14          1           0        3.262484    0.177260    1.886251
     15          6           0       -2.704762    1.779300   -0.212847
     16          8           0       -3.315172   -0.532243   -0.195925
     17          1           0       -2.914832    1.926114    0.740503
     18          1           0       -3.527883    2.036394   -0.718708
     19          1           0       -1.968858    2.360827   -0.486206
 ---------------------------------------------------------------------
                    Distance matrix (angstroms):
                    1          2          3          4          5
     1  C    0.000000
     2  C    1.394475   0.000000
     3  C    1.398735   2.413697   0.000000
     4  C    2.405006   1.390661   2.768447   0.000000
     5  H    2.050363   0.962130   3.282586   2.056345   0.000000
     6  N    1.416934   2.479142   2.397044   3.730055   2.681648
     7  C    2.414517   2.784624   1.386671   2.395008   3.746678
     8  H    2.040105   3.270821   0.956732   3.725048   4.066939
     9  C    2.788908   2.414270   2.406711   1.382686   3.283889
    10  H    3.288829   2.053668   3.754243   0.985860   2.354812
    11  C    2.487525   3.038682   3.677855   4.413021   2.797515
    12  H    1.971829   3.231844   2.476087   4.372705   3.537173
    13  H    3.302132   3.772951   2.057273   3.293734   4.734944
    14  H    3.772687   3.304099   3.294718   2.065046   4.102100
    15  C    3.244526   3.614572   4.332526   4.852868   3.336070
    16  O    3.363336   3.715241   4.589603   5.098081   3.268692
    17  H    3.571345   3.554411   4.777600   4.723232   3.073298
    18  H    4.136351   4.588943   5.163114   5.848017   4.271952
    19  H    3.112283   3.603730   3.970164   4.690654   3.546506
                    6          7          8          9         10
     6  N    0.000000
     7  C    3.679585   0.000000
     8  H    2.533365   2.050454   0.000000
     9  C    4.203468   1.389657   3.276058   0.000000
    10  H    4.523316   3.290292   4.710788   2.064548   0.000000
    11  C    1.355007   4.873592   3.864736   5.172997   5.019935
    12  H    0.896095   3.854917   2.266411   4.627818   5.233291
    13  H    4.452366   0.988472   2.360129   2.076505   4.118108
    14  H    5.186544   2.065465   4.093666   0.984512   2.381625
    15  C    2.417750   5.406662   4.539726   5.621225   5.371768
    16  O    2.278455   5.762441   4.773135   5.977963   5.597014
    17  H    3.013226   5.696006   5.146900   5.669940   5.071844
    18  H    3.113683   6.306254   5.246321   6.596492   6.361418
    19  H    2.513196   4.978114   4.138877   5.277875   5.277156
                   11         12         13         14         15
    11  C    0.000000
    12  H    1.935874   0.000000
    13  H    5.706710   4.479186   0.000000
    14  H    6.139652   5.596351   2.386441   0.000000
    15  C    1.502746   2.948948   6.218830   6.525395   0.000000
    16  O    1.234965   2.709719   6.612354   6.935734   2.390840
    17  H    2.030657   3.700121   6.572972   6.521538   0.987198
    18  H    2.066491   3.459493   7.077953   7.506749   0.999760
    19  H    2.103397   2.955244   5.717632   6.145198   0.976962
                   16         17         18         19
    16  O    0.000000
    17  H    2.660956   0.000000
    18  H    2.629913   1.586598   0.000000
    19  H    3.204166   1.608931   1.609308   0.000000
 Stoichiometry    C8H9NO
 Framework group  C1[X(C8H9NO)]
 Deg. of freedom    51
 Full point group                 C1      NOp   1
 Largest Abelian subgroup         C1      NOp   1
 Largest concise Abelian subgroup C1      NOp   1
                         Standard orientation:                         
 ---------------------------------------------------------------------
 Center     Atomic      Atomic             Coordinates (Angstroms)
 Number     Number       Type             X           Y           Z
 ---------------------------------------------------------------------
      1          6           0       -0.276066   -0.324175   -0.169956
      2          6           0       -0.625391    1.023917   -0.241938
      3          6           0       -1.275272   -1.287896    0.001187
      4          6           0       -1.957250    1.393715   -0.089166
      5          1           0        0.055504    1.687049   -0.391375
      6          7           0        1.055842   -0.797896   -0.266445
      7          6           0       -2.598582   -0.901350    0.150486
      8          1           0       -1.026815   -2.211618    0.019681
      9          6           0       -2.940506    0.445332    0.124371
     10          1           0       -2.187707    2.351626   -0.124013
     11          6           0        2.199526   -0.088000   -0.111273
     12          1           0        1.136863   -1.680773   -0.396634
     13          1           0       -3.290764   -1.595819    0.275680
     14          1           0       -3.874908    0.718023    0.272002
     15          6           0        2.552328    0.267351    1.305590
     16          8           0        2.916339    0.253010   -1.057334
     17          1           0        2.529858    1.251583    1.378681
     18          1           0        3.496521   -0.001128    1.495164
     19          1           0        1.967118   -0.131110    1.978800
 ---------------------------------------------------------------------
 Rotational constants (GHZ):           3.3622884           0.7784982           0.7211042
 Leave Link  202 at Tue Nov 22 19:11:02 2022, MaxMem= 16106127360 cpu:               0.3 elap:               0.0
 (Enter /opt/ap/G16/B01/g16/l301.exe)
 Standard basis: 6-311++G(d,p) (5D, 7F)
 Ernie: Thresh=  0.10000D-02 Tol=  0.10000D-05 Strict=F.
 There are   293 symmetry adapted cartesian basis functions of A   symmetry.
 There are   283 symmetry adapted basis functions of A   symmetry.
   283 basis functions,   441 primitive gaussians,   293 cartesian basis functions
    36 alpha electrons       36 beta electrons
       nuclear repulsion energy       491.7370338920 Hartrees.
 IExCor= 4639 DFT=T Ex+Corr=wB97XD ExCW=0 ScaHFX=  1.000000
 ScaDFX=  1.000000  1.000000  1.000000  1.000000 ScalE2=  1.000000  1.000000
 IRadAn=      5 IRanWt=     -1 IRanGd=            0 ICorTp=0 IEmpDi=121
 HFx  wShort=  0.000000 wLong=  0.200000 cFull=  0.222036 cShort=  0.000000 cLong=  0.777964
 DFx  wShort=  0.000000 wLong=  0.200000 cFull=  0.000000 cShort=  0.000000 cLong=  1.000000
 NAtoms=   19 NActive=   19 NUniq=   19 SFac= 1.00D+00 NAtFMM=   60 NAOKFM=F Big=F
 Integral buffers will be    131072 words long.
 Raffenetti 2 integral format.
 Two-electron integral symmetry is turned on.
 R6Disp:  Grimme-D2 Dispersion energy=       -0.0097498702 Hartrees.
 Nuclear repulsion after empirical dispersion term =      491.7272840219 Hartrees.
 Leave Link  301 at Tue Nov 22 19:11:02 2022, MaxMem= 16106127360 cpu:               1.2 elap:               0.0
 (Enter /opt/ap/G16/B01/g16/l302.exe)
 NPDir=0 NMtPBC=     1 NCelOv=     1 NCel=       1 NClECP=     1 NCelD=      1
         NCelK=      1 NCelE2=     1 NClLst=     1 CellRange=     0.0.
 One-electron integrals computed using PRISM.
 One-electron integral symmetry used in STVInt
 NBasis=   283 RedAO= T EigKep=  2.52D-06  NBF=   283
 NBsUse=   282 1.00D-06 EigRej=  8.24D-07 NBFU=   282
 Precomputing XC quadrature grid using
 IXCGrd= 4 IRadAn=           5 IRanWt=          -1 IRanGd=           0 AccXCQ= 0.00D+00.
 Generated NRdTot=       0 NPtTot=           0 NUsed=           0 NTot=          32
 NSgBfM=   293   293   293   293   293 MxSgAt=    19 MxSgA2=    19.
 Leave Link  302 at Tue Nov 22 19:11:02 2022, MaxMem= 16106127360 cpu:               6.4 elap:               0.2
 (Enter /opt/ap/G16/B01/g16/l303.exe)
 DipDrv:  MaxL=1.
 Leave Link  303 at Tue Nov 22 19:11:02 2022, MaxMem= 16106127360 cpu:               1.4 elap:               0.0
 (Enter /opt/ap/G16/B01/g16/l401.exe)
 ExpMin= 3.60D-02 ExpMax= 8.59D+03 ExpMxC= 1.30D+03 IAcc=3 IRadAn=         5 AccDes= 0.00D+00
 Harris functional with IExCor= 4639 and IRadAn=       5 diagonalized for initial guess.
 HarFok:  IExCor= 4639 AccDes= 0.00D+00 IRadAn=         5 IDoV= 1 UseB2=F ITyADJ=14
 ICtDFT=  3500011 ScaDFX=  1.000000  1.000000  1.000000  1.000000
 FoFCou: FMM=F IPFlag=           0 FMFlag=      100000 FMFlg1=           0
         NFxFlg=           0 DoJE=T BraDBF=F KetDBF=T FulRan=T
         wScrn=  0.000000 ICntrl=       500 IOpCl=  0 I1Cent=   200000004 NGrid=           0
         NMat0=    1 NMatS0=      1 NMatT0=    0 NMatD0=    1 NMtDS0=    0 NMtDT0=    0
 Petite list used in FoFCou.
 Harris En= -420.962126820946    
 JPrj=0 DoOrth=F DoCkMO=F.
 Leave Link  401 at Tue Nov 22 19:11:03 2022, MaxMem= 16106127360 cpu:              15.6 elap:               0.5
 (Enter /opt/ap/G16/B01/g16/l502.exe)
 Integral symmetry usage will be decided dynamically.
 Closed shell SCF:
 Using DIIS extrapolation, IDIIS=  1040.
 NGot= 16106127360 LenX= 16105943385 LenY= 16105857095
 Requested convergence on RMS density matrix=1.00D-08 within 512 cycles.
 Requested convergence on MAX density matrix=1.00D-06.
 Requested convergence on             energy=1.00D-06.
 No special actions if energy rises.
 Fock matrices will be formed incrementally for  20 cycles.

 Cycle   1  Pass 1  IDiag  1:
 FoFJK:  IHMeth= 1 ICntrl=       0 DoSepK=T KAlg= 0 I1Cent=           0 FoldK=F
 IRaf=         1 NMat=       1 IRICut=       1 DoRegI=T DoRafI=F ISym2E= 0 IDoP0=0 IntGTp=1.
 FoFCou: FMM=F IPFlag=           0 FMFlag=      100000 FMFlg1=           0
         NFxFlg=           0 DoJE=T BraDBF=F KetDBF=F FulRan=T
         wScrn=  0.000000 ICntrl=       500 IOpCl=  0 I1Cent=           0 NGrid=           0
         NMat0=    1 NMatS0=      1 NMatT0=    0 NMatD0=    1 NMtDS0=    0 NMtDT0=    0
 Symmetry not used in FoFCou.
 E= -439.947672948612    
 DIIS: error= 4.82D-02 at cycle   1 NSaved=   1.
 NSaved= 1 IEnMin= 1 EnMin= -439.947672948612     IErMin= 1 ErrMin= 4.82D-02
 ErrMax= 4.82D-02  0.00D+00 EMaxC= 1.00D-01 BMatC= 9.54D-01 BMatP= 9.54D-01
 IDIUse=3 WtCom= 5.18D-01 WtEn= 4.82D-01
 Coeff-Com:  0.100D+01
 Coeff-En:   0.100D+01
 Coeff:      0.100D+01
 Gap=     0.430 Goal=   None    Shift=    0.000
 GapD=    0.430 DampG=2.000 DampE=0.500 DampFc=1.0000 IDamp=-1.
 RMSDP=1.01D-02 MaxDP=9.08D-01              OVMax= 1.66D-01

 Cycle   2  Pass 1  IDiag  1:
 RMSU=  6.63D-03    CP:  7.82D-01
 E= -440.032723842404     Delta-E=       -0.085050893792 Rises=F Damp=F
 DIIS: error= 1.20D-02 at cycle   2 NSaved=   2.
 NSaved= 2 IEnMin= 2 EnMin= -440.032723842404     IErMin= 2 ErrMin= 1.20D-02
 ErrMax= 1.20D-02  0.00D+00 EMaxC= 1.00D-01 BMatC= 8.88D-02 BMatP= 9.54D-01
 IDIUse=3 WtCom= 8.80D-01 WtEn= 1.20D-01
 Coeff-Com:  0.165D+00 0.835D+00
 Coeff-En:   0.235D+00 0.765D+00
 Coeff:      0.173D+00 0.827D+00
 Gap=     0.400 Goal=   None    Shift=    0.000
 RMSDP=5.99D-03 MaxDP=3.83D-01 DE=-8.51D-02 OVMax= 1.26D-01

 Cycle   3  Pass 1  IDiag  1:
 RMSU=  3.89D-03    CP:  6.78D-01  5.82D-01
 E= -440.077835033103     Delta-E=       -0.045111190699 Rises=F Damp=F
 DIIS: error= 8.18D-03 at cycle   3 NSaved=   3.
 NSaved= 3 IEnMin= 3 EnMin= -440.077835033103     IErMin= 3 ErrMin= 8.18D-03
 ErrMax= 8.18D-03  0.00D+00 EMaxC= 1.00D-01 BMatC= 3.62D-02 BMatP= 8.88D-02
 IDIUse=3 WtCom= 9.18D-01 WtEn= 8.18D-02
 Coeff-Com:  0.238D-01 0.395D+00 0.581D+00
 Coeff-En:   0.000D+00 0.283D+00 0.717D+00
 Coeff:      0.219D-01 0.386D+00 0.592D+00
 Gap=     0.354 Goal=   None    Shift=    0.000
 RMSDP=1.58D-03 MaxDP=4.81D-02 DE=-4.51D-02 OVMax= 7.25D-02

 Cycle   4  Pass 1  IDiag  1:
 RMSU=  7.41D-04    CP:  6.76D-01  7.25D-01  7.36D-01
 E= -440.110497814631     Delta-E=       -0.032662781528 Rises=F Damp=F
 DIIS: error= 2.15D-03 at cycle   4 NSaved=   4.
 NSaved= 4 IEnMin= 4 EnMin= -440.110497814631     IErMin= 4 ErrMin= 2.15D-03
 ErrMax= 2.15D-03  0.00D+00 EMaxC= 1.00D-01 BMatC= 8.78D-04 BMatP= 3.62D-02
 IDIUse=3 WtCom= 9.79D-01 WtEn= 2.15D-02
 Coeff-Com:  0.790D-02 0.158D+00 0.269D+00 0.564D+00
 Coeff-En:   0.000D+00 0.000D+00 0.000D+00 0.100D+01
 Coeff:      0.773D-02 0.155D+00 0.264D+00 0.574D+00
 Gap=     0.318 Goal=   None    Shift=    0.000
 RMSDP=2.49D-04 MaxDP=1.40D-02 DE=-3.27D-02 OVMax= 8.33D-03

 Cycle   5  Pass 1  IDiag  1:
 RMSU=  1.81D-04    CP:  6.73D-01  7.26D-01  7.63D-01  9.10D-01
 E= -440.111256360809     Delta-E=       -0.000758546178 Rises=F Damp=F
 DIIS: error= 3.38D-04 at cycle   5 NSaved=   5.
 NSaved= 5 IEnMin= 5 EnMin= -440.111256360809     IErMin= 5 ErrMin= 3.38D-04
 ErrMax= 3.38D-04  0.00D+00 EMaxC= 1.00D-01 BMatC= 2.58D-05 BMatP= 8.78D-04
 IDIUse=3 WtCom= 9.97D-01 WtEn= 3.38D-03
 Coeff-Com: -0.943D-03-0.150D-01-0.127D-01 0.102D+00 0.926D+00
 Coeff-En:   0.000D+00 0.000D+00 0.000D+00 0.000D+00 0.100D+01
 Coeff:     -0.940D-03-0.150D-01-0.126D-01 0.102D+00 0.927D+00
 Gap=     0.320 Goal=   None    Shift=    0.000
 RMSDP=1.06D-04 MaxDP=5.14D-03 DE=-7.59D-04 OVMax= 3.80D-03

 Cycle   6  Pass 1  IDiag  1:
 RMSU=  7.65D-05    CP:  6.71D-01  7.26D-01  7.72D-01  9.56D-01  1.11D+00
 E= -440.111286944370     Delta-E=       -0.000030583560 Rises=F Damp=F
 DIIS: error= 1.99D-04 at cycle   6 NSaved=   6.
 NSaved= 6 IEnMin= 6 EnMin= -440.111286944370     IErMin= 6 ErrMin= 1.99D-04
 ErrMax= 1.99D-04  0.00D+00 EMaxC= 1.00D-01 BMatC= 1.39D-05 BMatP= 2.58D-05
 IDIUse=3 WtCom= 9.98D-01 WtEn= 1.99D-03
 Coeff-Com: -0.123D-02-0.213D-01-0.276D-01 0.137D-01 0.536D+00 0.501D+00
 Coeff-En:   0.000D+00 0.000D+00 0.000D+00 0.000D+00 0.000D+00 0.100D+01
 Coeff:     -0.122D-02-0.212D-01-0.276D-01 0.137D-01 0.535D+00 0.502D+00
 Gap=     0.320 Goal=   None    Shift=    0.000
 RMSDP=5.53D-05 MaxDP=4.49D-03 DE=-3.06D-05 OVMax= 7.32D-04

 Cycle   7  Pass 1  IDiag  1:
 RMSU=  2.12D-05    CP:  6.70D-01  7.25D-01  7.76D-01  9.74D-01  1.22D+00
                    CP:  9.94D-01
 E= -440.111298441058     Delta-E=       -0.000011496688 Rises=F Damp=F
 DIIS: error= 5.10D-05 at cycle   7 NSaved=   7.
 NSaved= 7 IEnMin= 7 EnMin= -440.111298441058     IErMin= 7 ErrMin= 5.10D-05
 ErrMax= 5.10D-05  0.00D+00 EMaxC= 1.00D-01 BMatC= 5.47D-07 BMatP= 1.39D-05
 IDIUse=1 WtCom= 1.00D+00 WtEn= 0.00D+00
 Coeff-Com: -0.232D-03-0.454D-02-0.587D-02-0.130D-01 0.143D-01 0.114D+00
 Coeff-Com:  0.895D+00
 Coeff:     -0.232D-03-0.454D-02-0.587D-02-0.130D-01 0.143D-01 0.114D+00
 Coeff:      0.895D+00
 Gap=     0.320 Goal=   None    Shift=    0.000
 RMSDP=1.74D-05 MaxDP=6.58D-04 DE=-1.15D-05 OVMax= 6.23D-04

 Cycle   8  Pass 1  IDiag  1:
 RMSU=  9.28D-06    CP:  6.70D-01  7.24D-01  7.77D-01  9.80D-01  1.27D+00
                    CP:  1.11D+00  9.98D-01
 E= -440.111299579297     Delta-E=       -0.000001138239 Rises=F Damp=F
 DIIS: error= 1.90D-05 at cycle   8 NSaved=   8.
 NSaved= 8 IEnMin= 8 EnMin= -440.111299579297     IErMin= 8 ErrMin= 1.90D-05
 ErrMax= 1.90D-05  0.00D+00 EMaxC= 1.00D-01 BMatC= 2.13D-07 BMatP= 5.47D-07
 IDIUse=1 WtCom= 1.00D+00 WtEn= 0.00D+00
 Coeff-Com:  0.887D-04 0.122D-02 0.171D-02-0.102D-01-0.919D-01-0.448D-01
 Coeff-Com:  0.456D+00 0.688D+00
 Coeff:      0.887D-04 0.122D-02 0.171D-02-0.102D-01-0.919D-01-0.448D-01
 Coeff:      0.456D+00 0.688D+00
 Gap=     0.320 Goal=   None    Shift=    0.000
 RMSDP=7.77D-06 MaxDP=4.09D-04 DE=-1.14D-06 OVMax= 3.32D-04

 Cycle   9  Pass 1  IDiag  1:
 RMSU=  4.14D-06    CP:  6.70D-01  7.24D-01  7.78D-01  9.82D-01  1.28D+00
                    CP:  1.15D+00  1.10D+00  1.24D+00
 E= -440.111299867339     Delta-E=       -0.000000288042 Rises=F Damp=F
 DIIS: error= 1.04D-05 at cycle   9 NSaved=   9.
 NSaved= 9 IEnMin= 9 EnMin= -440.111299867339     IErMin= 9 ErrMin= 1.04D-05
 ErrMax= 1.04D-05  0.00D+00 EMaxC= 1.00D-01 BMatC= 8.74D-09 BMatP= 2.13D-07
 IDIUse=1 WtCom= 1.00D+00 WtEn= 0.00D+00
 Coeff-Com:  0.505D-04 0.862D-03 0.127D-02-0.391D-03-0.203D-01-0.265D-01
 Coeff-Com:  0.630D-03 0.126D+00 0.918D+00
 Coeff:      0.505D-04 0.862D-03 0.127D-02-0.391D-03-0.203D-01-0.265D-01
 Coeff:      0.630D-03 0.126D+00 0.918D+00
 Gap=     0.320 Goal=   None    Shift=    0.000
 RMSDP=3.19D-06 MaxDP=1.58D-04 DE=-2.88D-07 OVMax= 1.11D-04

 Cycle  10  Pass 1  IDiag  1:
 RMSU=  1.65D-06    CP:  6.70D-01  7.24D-01  7.78D-01  9.80D-01  1.28D+00
                    CP:  1.15D+00  1.12D+00  1.38D+00  1.48D+00
 E= -440.111299891537     Delta-E=       -0.000000024198 Rises=F Damp=F
 DIIS: error= 2.37D-06 at cycle  10 NSaved=  10.
 NSaved=10 IEnMin=10 EnMin= -440.111299891537     IErMin=10 ErrMin= 2.37D-06
 ErrMax= 2.37D-06  0.00D+00 EMaxC= 1.00D-01 BMatC= 1.02D-09 BMatP= 8.74D-09
 IDIUse=1 WtCom= 1.00D+00 WtEn= 0.00D+00
 Coeff-Com:  0.570D-06 0.637D-04 0.138D-03 0.119D-02 0.649D-02-0.163D-03
 Coeff-Com: -0.491D-01-0.637D-01 0.154D+00 0.951D+00
 Coeff:      0.570D-06 0.637D-04 0.138D-03 0.119D-02 0.649D-02-0.163D-03
 Coeff:     -0.491D-01-0.637D-01 0.154D+00 0.951D+00
 Gap=     0.320 Goal=   None    Shift=    0.000
 RMSDP=1.53D-06 MaxDP=7.64D-05 DE=-2.42D-08 OVMax= 4.94D-05

 Cycle  11  Pass 1  IDiag  1:
 RMSU=  5.50D-07    CP:  6.70D-01  7.24D-01  7.78D-01  9.80D-01  1.28D+00
                    CP:  1.14D+00  1.12D+00  1.45D+00  1.70D+00  1.32D+00
 E= -440.111299895045     Delta-E=       -0.000000003508 Rises=F Damp=F
 DIIS: error= 8.90D-07 at cycle  11 NSaved=  11.
 NSaved=11 IEnMin=11 EnMin= -440.111299895045     IErMin=11 ErrMin= 8.90D-07
 ErrMax= 8.90D-07  0.00D+00 EMaxC= 1.00D-01 BMatC= 1.57D-10 BMatP= 1.02D-09
 IDIUse=1 WtCom= 1.00D+00 WtEn= 0.00D+00
 Coeff-Com: -0.453D-05-0.725D-04-0.850D-04 0.351D-03 0.343D-02 0.303D-02
 Coeff-Com: -0.102D-01-0.279D-01-0.751D-01 0.194D+00 0.912D+00
 Coeff:     -0.453D-05-0.725D-04-0.850D-04 0.351D-03 0.343D-02 0.303D-02
 Coeff:     -0.102D-01-0.279D-01-0.751D-01 0.194D+00 0.912D+00
 Gap=     0.320 Goal=   None    Shift=    0.000
 RMSDP=6.31D-07 MaxDP=3.45D-05 DE=-3.51D-09 OVMax= 1.59D-05

 Cycle  12  Pass 1  IDiag  1:
 RMSU=  1.30D-07    CP:  6.70D-01  7.24D-01  7.78D-01  9.80D-01  1.28D+00
                    CP:  1.14D+00  1.12D+00  1.46D+00  1.78D+00  1.52D+00
                    CP:  1.36D+00
 E= -440.111299895514     Delta-E=       -0.000000000469 Rises=F Damp=F
 DIIS: error= 3.78D-07 at cycle  12 NSaved=  12.
 NSaved=12 IEnMin=12 EnMin= -440.111299895514     IErMin=12 ErrMin= 3.78D-07
 ErrMax= 3.78D-07  0.00D+00 EMaxC= 1.00D-01 BMatC= 2.12D-11 BMatP= 1.57D-10
 IDIUse=1 WtCom= 1.00D+00 WtEn= 0.00D+00
 Coeff-Com: -0.823D-06-0.226D-04-0.326D-04-0.983D-04-0.487D-03 0.793D-03
 Coeff-Com:  0.536D-02 0.481D-02-0.382D-01-0.906D-01 0.190D+00 0.929D+00
 Coeff:     -0.823D-06-0.226D-04-0.326D-04-0.983D-04-0.487D-03 0.793D-03
 Coeff:      0.536D-02 0.481D-02-0.382D-01-0.906D-01 0.190D+00 0.929D+00
 Gap=     0.320 Goal=   None    Shift=    0.000
 RMSDP=1.77D-07 MaxDP=1.12D-05 DE=-4.69D-10 OVMax= 7.02D-06

 Cycle  13  Pass 1  IDiag  1:
 RMSU=  6.53D-08    CP:  6.70D-01  7.24D-01  7.78D-01  9.80D-01  1.28D+00
                    CP:  1.14D+00  1.12D+00  1.46D+00  1.79D+00  1.57D+00
                    CP:  1.51D+00  1.19D+00
 E= -440.111299895587     Delta-E=       -0.000000000073 Rises=F Damp=F
 DIIS: error= 1.69D-07 at cycle  13 NSaved=  13.
 NSaved=13 IEnMin=13 EnMin= -440.111299895587     IErMin=13 ErrMin= 1.69D-07
 ErrMax= 1.69D-07  0.00D+00 EMaxC= 1.00D-01 BMatC= 3.14D-12 BMatP= 2.12D-11
 IDIUse=1 WtCom= 1.00D+00 WtEn= 0.00D+00
 Coeff-Com:  0.248D-06 0.225D-05 0.120D-05-0.596D-04-0.528D-03-0.858D-04
 Coeff-Com:  0.233D-02 0.441D-02-0.135D-02-0.429D-01-0.725D-01 0.232D+00
 Coeff-Com:  0.879D+00
 Coeff:      0.248D-06 0.225D-05 0.120D-05-0.596D-04-0.528D-03-0.858D-04
 Coeff:      0.233D-02 0.441D-02-0.135D-02-0.429D-01-0.725D-01 0.232D+00
 Coeff:      0.879D+00
 Gap=     0.320 Goal=   None    Shift=    0.000
 RMSDP=5.74D-08 MaxDP=4.33D-06 DE=-7.34D-11 OVMax= 2.85D-06

 Cycle  14  Pass 1  IDiag  1:
 RMSU=  1.91D-08    CP:  6.70D-01  7.24D-01  7.78D-01  9.80D-01  1.28D+00
                    CP:  1.14D+00  1.12D+00  1.46D+00  1.79D+00  1.58D+00
                    CP:  1.55D+00  1.32D+00  1.38D+00
 E= -440.111299895594     Delta-E=       -0.000000000007 Rises=F Damp=F
 DIIS: error= 7.30D-08 at cycle  14 NSaved=  14.
 NSaved=14 IEnMin=14 EnMin= -440.111299895594     IErMin=14 ErrMin= 7.30D-08
 ErrMax= 7.30D-08  0.00D+00 EMaxC= 1.00D-01 BMatC= 3.93D-13 BMatP= 3.14D-12
 IDIUse=1 WtCom= 1.00D+00 WtEn= 0.00D+00
 Coeff-Com:  0.100D-06 0.255D-05 0.319D-05 0.592D-05-0.825D-06-0.876D-04
 Coeff-Com: -0.431D-03-0.715D-04 0.407D-02 0.699D-02-0.382D-01-0.897D-01
 Coeff-Com:  0.162D+00 0.955D+00
 Coeff:      0.100D-06 0.255D-05 0.319D-05 0.592D-05-0.825D-06-0.876D-04
 Coeff:     -0.431D-03-0.715D-04 0.407D-02 0.699D-02-0.382D-01-0.897D-01
 Coeff:      0.162D+00 0.955D+00
 Gap=     0.320 Goal=   None    Shift=    0.000
 RMSDP=1.84D-08 MaxDP=9.19D-07 DE=-7.16D-12 OVMax= 1.25D-06

 Cycle  15  Pass 1  IDiag  1:
 RMSU=  7.88D-09    CP:  6.70D-01  7.24D-01  7.78D-01  9.80D-01  1.28D+00
                    CP:  1.14D+00  1.12D+00  1.46D+00  1.79D+00  1.58D+00
                    CP:  1.55D+00  1.35D+00  1.55D+00  1.31D+00
 E= -440.111299895600     Delta-E=       -0.000000000006 Rises=F Damp=F
 DIIS: error= 3.16D-08 at cycle  15 NSaved=  15.
 NSaved=15 IEnMin=15 EnMin= -440.111299895600     IErMin=15 ErrMin= 3.16D-08
 ErrMax= 3.16D-08  0.00D+00 EMaxC= 1.00D-01 BMatC= 6.47D-14 BMatP= 3.93D-13
 IDIUse=1 WtCom= 1.00D+00 WtEn= 0.00D+00
 Coeff-Com: -0.199D-07 0.110D-06 0.420D-06 0.116D-04 0.828D-04 0.487D-05
 Coeff-Com: -0.443D-03-0.649D-03 0.763D-03 0.898D-02 0.700D-02-0.552D-01
 Coeff-Com: -0.117D+00 0.148D+00 0.101D+01
 Coeff:     -0.199D-07 0.110D-06 0.420D-06 0.116D-04 0.828D-04 0.487D-05
 Coeff:     -0.443D-03-0.649D-03 0.763D-03 0.898D-02 0.700D-02-0.552D-01
 Coeff:     -0.117D+00 0.148D+00 0.101D+01
 Gap=     0.320 Goal=   None    Shift=    0.000
 RMSDP=1.04D-08 MaxDP=6.39D-07 DE=-5.80D-12 OVMax= 5.47D-07

 Cycle  16  Pass 1  IDiag  1:
 RMSU=  3.17D-09    CP:  6.70D-01  7.24D-01  7.78D-01  9.80D-01  1.28D+00
                    CP:  1.14D+00  1.12D+00  1.46D+00  1.79D+00  1.57D+00
                    CP:  1.55D+00  1.36D+00  1.62D+00  1.48D+00  1.33D+00
 E= -440.111299895598     Delta-E=        0.000000000002 Rises=F Damp=F
 DIIS: error= 1.07D-08 at cycle  16 NSaved=  16.
 NSaved=16 IEnMin=15 EnMin= -440.111299895600     IErMin=16 ErrMin= 1.07D-08
 ErrMax= 1.07D-08  0.00D+00 EMaxC= 1.00D-01 BMatC= 8.71D-15 BMatP= 6.47D-14
 IDIUse=1 WtCom= 1.00D+00 WtEn= 0.00D+00
 Coeff-Com: -0.148D-07-0.261D-06-0.276D-06 0.210D-05 0.171D-04 0.900D-05
 Coeff-Com: -0.415D-04-0.109D-03-0.423D-03 0.816D-03 0.595D-02-0.214D-02
 Coeff-Com: -0.458D-01-0.888D-01 0.199D+00 0.931D+00
 Coeff:     -0.148D-07-0.261D-06-0.276D-06 0.210D-05 0.171D-04 0.900D-05
 Coeff:     -0.415D-04-0.109D-03-0.423D-03 0.816D-03 0.595D-02-0.214D-02
 Coeff:     -0.458D-01-0.888D-01 0.199D+00 0.931D+00
 Gap=     0.320 Goal=   None    Shift=    0.000
 RMSDP=3.15D-09 MaxDP=1.90D-07 DE= 1.59D-12 OVMax= 1.91D-07

 SCF Done:  E(RwB97XD) =  -440.111299896     A.U. after   16 cycles
            NFock= 16  Conv=0.32D-08     -V/T= 2.0001
 KE= 4.400464558520D+02 PE=-2.009589210960D+03 EE= 6.377041711902D+02
 Leave Link  502 at Tue Nov 22 19:11:28 2022, MaxMem= 16106127360 cpu:             793.6 elap:              25.3
 (Enter /opt/ap/G16/B01/g16/l601.exe)
 Copying SCF densities to generalized density rwf, IOpCl= 0 IROHF=0.

 **********************************************************************

            Population analysis using the SCF Density.

 **********************************************************************

 Orbital symmetries:
       Occupied  (A) (A) (A) (A) (A) (A) (A) (A) (A) (A) (A) (A)
                 (A) (A) (A) (A) (A) (A) (A) (A) (A) (A) (A) (A)
                 (A) (A) (A) (A) (A) (A) (A) (A) (A) (A) (A) (A)
       Virtual   (A) (A) (A) (A) (A) (A) (A) (A) (A) (A) (A) (A)
                 (A) (A) (A) (A) (A) (A) (A) (A) (A) (A) (A) (A)
                 (A) (A) (A) (A) (A) (A) (A) (A) (A) (A) (A) (A)
                 (A) (A) (A) (A) (A) (A) (A) (A) (A) (A) (A) (A)
                 (A) (A) (A) (A) (A) (A) (A) (A) (A) (A) (A) (A)
                 (A) (A) (A) (A) (A) (A) (A) (A) (A) (A) (A) (A)
                 (A) (A) (A) (A) (A) (A) (A) (A) (A) (A) (A) (A)
                 (A) (A) (A) (A) (A) (A) (A) (A) (A) (A) (A) (A)
                 (A) (A) (A) (A) (A) (A) (A) (A) (A) (A) (A) (A)
                 (A) (A) (A) (A) (A) (A) (A) (A) (A) (A) (A) (A)
                 (A) (A) (A) (A) (A) (A) (A) (A) (A) (A) (A) (A)
                 (A) (A) (A) (A) (A) (A) (A) (A) (A) (A) (A) (A)
                 (A) (A) (A) (A) (A) (A) (A) (A) (A) (A) (A) (A)
                 (A) (A) (A) (A) (A) (A) (A) (A) (A) (A) (A) (A)
                 (A) (A) (A) (A) (A) (A) (A) (A) (A) (A) (A) (A)
                 (A) (A) (A) (A) (A) (A) (A) (A) (A) (A) (A) (A)
                 (A) (A) (A) (A) (A) (A) (A) (A) (A) (A) (A) (A)
                 (A) (A) (A) (A) (A) (A) (A) (A) (A) (A) (A) (A)
                 (A) (A) (A) (A) (A) (A) (A) (A) (A) (A) (A) (A)
                 (A) (A) (A) (A) (A) (A) (A) (A) (A) (A) (A) (A)
                 (A) (A) (A) (A) (A) (A)
 The electronic state is 1-A.
 Alpha  occ. eigenvalues --  -19.24840 -14.44372 -10.41325 -10.34533 -10.28410
 Alpha  occ. eigenvalues --  -10.28304 -10.27789 -10.27750 -10.27256 -10.25965
 Alpha  occ. eigenvalues --   -1.16111  -1.06145  -0.96337  -0.88055  -0.86716
 Alpha  occ. eigenvalues --   -0.85351  -0.74999  -0.73137  -0.69346  -0.65774
 Alpha  occ. eigenvalues --   -0.61292  -0.59438  -0.56200  -0.55739  -0.54202
 Alpha  occ. eigenvalues --   -0.53520  -0.53166  -0.51302  -0.47941  -0.46239
 Alpha  occ. eigenvalues --   -0.44832  -0.44481  -0.39929  -0.36182  -0.33954
 Alpha  occ. eigenvalues --   -0.29357
 Alpha virt. eigenvalues --    0.02638   0.03713   0.04708   0.04744   0.04947
 Alpha virt. eigenvalues --    0.05961   0.06549   0.06816   0.07598   0.08736
 Alpha virt. eigenvalues --    0.09114   0.10738   0.11656   0.12002   0.13736
 Alpha virt. eigenvalues --    0.13846   0.14775   0.15529   0.16007   0.16751
 Alpha virt. eigenvalues --    0.16991   0.17213   0.17542   0.17661   0.18394
 Alpha virt. eigenvalues --    0.19238   0.19392   0.19628   0.19776   0.20271
 Alpha virt. eigenvalues --    0.20442   0.21837   0.22026   0.22825   0.23810
 Alpha virt. eigenvalues --    0.24015   0.25104   0.25558   0.26358   0.27062
 Alpha virt. eigenvalues --    0.27418   0.28269   0.28632   0.29808   0.30460
 Alpha virt. eigenvalues --    0.30900   0.31533   0.32296   0.32534   0.33676
 Alpha virt. eigenvalues --    0.34294   0.35141   0.36631   0.36824   0.37288
 Alpha virt. eigenvalues --    0.38196   0.38827   0.40191   0.40824   0.41380
 Alpha virt. eigenvalues --    0.41836   0.43126   0.44166   0.44341   0.46219
 Alpha virt. eigenvalues --    0.47005   0.48119   0.50653   0.52386   0.55067
 Alpha virt. eigenvalues --    0.57711   0.59326   0.61672   0.62530   0.63042
 Alpha virt. eigenvalues --    0.63602   0.64900   0.65675   0.65913   0.66972
 Alpha virt. eigenvalues --    0.68540   0.68690   0.70465   0.71636   0.72061
 Alpha virt. eigenvalues --    0.74197   0.75084   0.77604   0.78827   0.79516
 Alpha virt. eigenvalues --    0.80172   0.81030   0.82365   0.83052   0.84036
 Alpha virt. eigenvalues --    0.85474   0.87260   0.89437   0.91800   0.92931
 Alpha virt. eigenvalues --    0.93685   0.94681   0.96271   0.96806   0.97596
 Alpha virt. eigenvalues --    0.98487   0.99644   1.00555   1.01788   1.05274
 Alpha virt. eigenvalues --    1.07584   1.09258   1.10548   1.13138   1.14213
 Alpha virt. eigenvalues --    1.17087   1.17887   1.19185   1.21886   1.23159
 Alpha virt. eigenvalues --    1.26665   1.30106   1.31774   1.33632   1.38562
 Alpha virt. eigenvalues --    1.40862   1.46252   1.48058   1.51085   1.57015
 Alpha virt. eigenvalues --    1.60535   1.61246   1.62368   1.63075   1.64575
 Alpha virt. eigenvalues --    1.65741   1.67186   1.67665   1.68282   1.68693
 Alpha virt. eigenvalues --    1.72294   1.72466   1.74858   1.75845   1.78094
 Alpha virt. eigenvalues --    1.79455   1.83546   1.86555   1.88645   1.90905
 Alpha virt. eigenvalues --    1.92814   1.94612   1.96919   1.97591   1.99102
 Alpha virt. eigenvalues --    2.01337   2.01822   2.04111   2.05493   2.07360
 Alpha virt. eigenvalues --    2.08776   2.09137   2.13489   2.14145   2.16409
 Alpha virt. eigenvalues --    2.24882   2.25845   2.25931   2.29635   2.37202
 Alpha virt. eigenvalues --    2.40550   2.41123   2.48428   2.48813   2.51904
 Alpha virt. eigenvalues --    2.53711   2.56424   2.60349   2.61361   2.62377
 Alpha virt. eigenvalues --    2.65747   2.66948   2.71444   2.73687   2.78459
 Alpha virt. eigenvalues --    2.79321   2.80703   2.82912   2.83274   2.84582
 Alpha virt. eigenvalues --    2.85938   2.90142   2.90616   2.92144   2.93194
 Alpha virt. eigenvalues --    2.94299   2.95358   2.96106   2.99348   3.01428
 Alpha virt. eigenvalues --    3.02419   3.03795   3.06627   3.10470   3.14336
 Alpha virt. eigenvalues --    3.19504   3.21397   3.23419   3.24533   3.31077
 Alpha virt. eigenvalues --    3.42098   3.42286   3.48348   3.51031   3.55762
 Alpha virt. eigenvalues --    3.59851   3.62144   3.68775   3.71715   3.90721
 Alpha virt. eigenvalues --    3.98038   4.07673   4.08581   4.13181   4.20500
 Alpha virt. eigenvalues --    4.30724   4.34537   4.38294   4.39376   4.44555
 Alpha virt. eigenvalues --    4.95890   5.13957   5.19609   5.24774   5.31923
 Alpha virt. eigenvalues --    5.84672  23.86741  23.98230  24.14537  24.22711
 Alpha virt. eigenvalues --   24.30437  24.33268  24.38119  24.42730  35.89370
 Alpha virt. eigenvalues --   50.10749
          Condensed to atoms (all electrons):
               1          2          3          4          5          6
     1  C    7.654938   0.120437  -0.444821  -0.391566  -0.030131  -0.072859
     2  C    0.120437   9.636217  -3.206195  -0.831001   0.624693  -0.111820
     3  C   -0.444821  -3.206195   9.079466   0.868185  -0.091618  -0.068082
     4  C   -0.391566  -0.831001   0.868185   5.975537  -0.164016  -0.015574
     5  H   -0.030131   0.624693  -0.091618  -0.164016   0.498138  -0.024988
     6  N   -0.072859  -0.111820  -0.068082  -0.015574  -0.024988   7.119418
     7  C   -0.350621   0.436492  -0.129676  -0.249981   0.030138   0.024979
     8  H   -0.150976  -0.090763   0.592227   0.031837  -0.005377   0.001015
     9  C   -0.062289  -0.337525  -0.377537   0.619178  -0.015241   0.053746
    10  H    0.038284  -0.088086   0.042736   0.412659  -0.012020  -0.004860
    11  C   -0.020297  -0.373711   0.202730  -0.054454   0.016859   0.123455
    12  H    0.041377  -0.059882   0.077201   0.000753   0.001820   0.398804
    13  H    0.025817   0.039757  -0.105541  -0.018275   0.001896  -0.006001
    14  H    0.009007  -0.017470  -0.022609  -0.050065   0.000201   0.002165
    15  C   -0.356594   0.209632  -0.066397   0.070410  -0.022028  -0.155914
    16  O    0.002962  -0.054305   0.025423   0.003082  -0.007935  -0.070336
    17  H   -0.025922   0.005272   0.007387   0.000487  -0.006223   0.010323
    18  H   -0.004172  -0.011532   0.008121  -0.003212   0.000256  -0.001719
    19  H    0.027007  -0.011836  -0.007259  -0.012334   0.003343  -0.012716
               7          8          9         10         11         12
     1  C   -0.350621  -0.150976  -0.062289   0.038284  -0.020297   0.041377
     2  C    0.436492  -0.090763  -0.337525  -0.088086  -0.373711  -0.059882
     3  C   -0.129676   0.592227  -0.377537   0.042736   0.202730   0.077201
     4  C   -0.249981   0.031837   0.619178   0.412659  -0.054454   0.000753
     5  H    0.030138  -0.005377  -0.015241  -0.012020   0.016859   0.001820
     6  N    0.024979   0.001015   0.053746  -0.004860   0.123455   0.398804
     7  C    5.469382  -0.058249   0.561829  -0.011465   0.085043  -0.021168
     8  H   -0.058249   0.543789  -0.000925   0.001851   0.001084  -0.002724
     9  C    0.561829  -0.000925   5.494752  -0.063025   0.004860  -0.008588
    10  H   -0.011465   0.001851  -0.063025   0.492770   0.001038   0.000495
    11  C    0.085043   0.001084   0.004860   0.001038   5.634350  -0.065939
    12  H   -0.021168  -0.002724  -0.008588   0.000495  -0.065939   0.351873
    13  H    0.433092  -0.017516  -0.039604  -0.000417  -0.000928   0.002152
    14  H   -0.051840  -0.000250   0.482676  -0.010692  -0.000248  -0.000366
    15  C   -0.012221   0.010520   0.032259  -0.002488   0.004380  -0.039745
    16  O    0.002212   0.001320   0.000209   0.000230   0.551066  -0.005407
    17  H    0.000309   0.001014   0.000393   0.000416  -0.054273  -0.004193
    18  H    0.003076   0.000307  -0.000759   0.000094   0.001595  -0.002543
    19  H    0.003347  -0.002974   0.000762  -0.000696  -0.035902   0.003235
              13         14         15         16         17         18
     1  C    0.025817   0.009007  -0.356594   0.002962  -0.025922  -0.004172
     2  C    0.039757  -0.017470   0.209632  -0.054305   0.005272  -0.011532
     3  C   -0.105541  -0.022609  -0.066397   0.025423   0.007387   0.008121
     4  C   -0.018275  -0.050065   0.070410   0.003082   0.000487  -0.003212
     5  H    0.001896   0.000201  -0.022028  -0.007935  -0.006223   0.000256
     6  N   -0.006001   0.002165  -0.155914  -0.070336   0.010323  -0.001719
     7  C    0.433092  -0.051840  -0.012221   0.002212   0.000309   0.003076
     8  H   -0.017516  -0.000250   0.010520   0.001320   0.001014   0.000307
     9  C   -0.039604   0.482676   0.032259   0.000209   0.000393  -0.000759
    10  H   -0.000417  -0.010692  -0.002488   0.000230   0.000416   0.000094
    11  C   -0.000928  -0.000248   0.004380   0.551066  -0.054273   0.001595
    12  H    0.002152  -0.000366  -0.039745  -0.005407  -0.004193  -0.002543
    13  H    0.495536  -0.009719  -0.002970  -0.000090  -0.000072  -0.000039
    14  H   -0.009719   0.498128   0.001100   0.000035  -0.000038  -0.000017
    15  C   -0.002970   0.001100   5.597313  -0.110312   0.444008   0.406293
    16  O   -0.000090   0.000035  -0.110312   7.882614  -0.008503  -0.016874
    17  H   -0.000072  -0.000038   0.444008  -0.008503   0.490331  -0.027994
    18  H   -0.000039  -0.000017   0.406293  -0.016874  -0.027994   0.493495
    19  H    0.000024   0.000093   0.410866   0.006405  -0.030183  -0.030719
              19
     1  C    0.027007
     2  C   -0.011836
     3  C   -0.007259
     4  C   -0.012334
     5  H    0.003343
     6  N   -0.012716
     7  C    0.003347
     8  H   -0.002974
     9  C    0.000762
    10  H   -0.000696
    11  C   -0.035902
    12  H    0.003235
    13  H    0.000024
    14  H    0.000093
    15  C    0.410866
    16  O    0.006405
    17  H   -0.030183
    18  H   -0.030719
    19  H    0.526334
 Mulliken charges:
               1
     1  C   -0.009581
     2  C    0.121624
     3  C   -0.383742
     4  C   -0.191649
     5  H    0.202234
     6  N   -0.189035
     7  C   -0.164680
     8  H    0.144791
     9  C   -0.345173
    10  H    0.203176
    11  C   -0.020709
    12  H    0.332844
    13  H    0.202896
    14  H    0.169910
    15  C   -0.418112
    16  O   -0.201798
    17  H    0.197459
    18  H    0.186341
    19  H    0.163203
 Sum of Mulliken charges =  -0.00000
 Mulliken charges with hydrogens summed into heavy atoms:
               1
     1  C   -0.009581
     2  C    0.323858
     3  C   -0.238951
     4  C    0.011527
     6  N    0.143809
     7  C    0.038216
     9  C   -0.175263
    11  C   -0.020709
    15  C    0.128892
    16  O   -0.201798
 Electronic spatial extent (au):  <R**2>=           1620.4900
 Charge=             -0.0000 electrons
 Dipole moment (field-independent basis, Debye):
    X=             -1.2943    Y=             -1.1591    Z=              2.5631  Tot=              3.0965
 Quadrupole moment (field-independent basis, Debye-Ang):
   XX=            -60.9197   YY=            -50.8350   ZZ=            -63.8626
   XY=             -2.4880   XZ=              7.1534   YZ=              0.7743
 Traceless Quadrupole moment (field-independent basis, Debye-Ang):
   XX=             -2.3805   YY=              7.7041   ZZ=             -5.3235
   XY=             -2.4880   XZ=              7.1534   YZ=              0.7743
 Octapole moment (field-independent basis, Debye-Ang**2):
  XXX=            -24.2835  YYY=             -4.9158  ZZZ=              4.0992  XYY=              2.7595
  XXY=             -7.6054  XXZ=             27.6266  XZZ=              6.7628  YZZ=             -0.6704
  YYZ=             -2.2167  XYZ=              3.7077
 Hexadecapole moment (field-independent basis, Debye-Ang**3):
 XXXX=          -1611.2764 YYYY=           -301.2937 ZZZZ=           -204.1791 XXXY=            -20.7120
 XXXZ=             54.7679 YYYX=             -6.9747 YYYZ=              1.1628 ZZZX=              9.2585
 ZZZY=              0.0063 XXYY=           -299.7571 XXZZ=           -331.9646 YYZZ=            -94.9693
 XXYZ=              5.9726 YYXZ=             -3.3907 ZZXY=              0.3287
 N-N= 4.917272840219D+02 E-N=-2.009589211320D+03  KE= 4.400464558520D+02
 No NMR shielding tensors so no spin-rotation constants.
 Leave Link  601 at Tue Nov 22 19:11:28 2022, MaxMem= 16106127360 cpu:               4.5 elap:               0.2
 (Enter /opt/ap/G16/B01/g16/l9999.exe)
 1\1\GINC-N41\SP\RwB97XD\6-311++G(d,p)\C8H9N1O1\ROOT\22-Nov-2022\0\\#P 
 wB97XD/6-311++G(d,p) scf=maxcycle=512\\_conf015.gjf nmol_natom 1_19\\0
 ,1\C\C,1,1.39447505\C,1,1.39873503,2,119.56697224\C,2,1.39066123,1,119
 .42697207,3,2.53915756,0\H,2,0.96213008,1,119.8046163,3,-177.79870417,
 0\N,1,1.41693372,2,123.72220125,4,-177.74604849,0\C,3,1.38667133,1,120
 .18759987,2,-2.5020857,0\H,3,0.95673174,1,118.82085988,2,177.96737168,
 0\C,4,1.38268572,2,121.03929493,1,-0.41221113,0\H,4,0.9858595,2,118.57
 91267,1,178.77373233,0\C,6,1.35500692,1,127.62132737,2,17.57862687,0\H
 ,6,0.89609466,1,115.10511997,2,-166.41127095,0\H,7,0.98847198,3,119.08
 117704,1,-179.64585354,0\H,9,0.98451201,4,120.53755637,2,177.22743544,
 0\C,11,1.50274561,6,115.46861532,1,75.,0\O,11,1.23496495,6,123.1509988
 8,1,-105.,0\H,15,0.98719837,11,107.47091875,6,-116.36962839,0\H,15,0.9
 9976021,11,109.69443261,6,128.85346087,0\H,15,0.97696155,11,114.370088
 71,6,6.05302844,0\\Version=ES64L-G16RevB.01\State=1-A\HF=-440.1112999\
 RMSD=3.154e-09\Dipole=0.714057,0.9169422,-0.3653439\Quadrupole=-3.3930
 905,-2.8143983,6.2074888,-5.3655606,0.0414022,-0.2575879\PG=C01 [X(C8H
 9N1O1)]\\@


 IF GOD HAD MEANT MAN TO SEE THE SUN RISE, HE
 WOULD HAVE SCHEDULED IT FOR A LATER HOUR.
 Job cpu time:       0 days  0 hours 13 minutes 51.6 seconds.
 Elapsed time:       0 days  0 hours  0 minutes 26.5 seconds.
 File lengths (MBytes):  RWF=     46 Int=      0 D2E=      0 Chk=      6 Scr=      1
 Normal termination of Gaussian 16 at Tue Nov 22 19:11:28 2022.
