 Entering Gaussian System, Link 0=g16
 Input=_conf048.gjf
 Output=_conf048.log
 Initial command:
 /opt/ap/G16/B01/g16/l1.exe "/tmp2/scr/Gau-22077.inp" -scrdir="/tmp2/scr/"
 Entering Link 1 = /opt/ap/G16/B01/g16/l1.exe PID=     22078.
  
 Copyright (c) 1988-2017, Gaussian, Inc.  All Rights Reserved.
  
 This is part of the Gaussian(R) 16 program.  It is based on
 the Gaussian(R) 09 system (copyright 2009, Gaussian, Inc.),
 the Gaussian(R) 03 system (copyright 2003, Gaussian, Inc.),
 the Gaussian(R) 98 system (copyright 1998, Gaussian, Inc.),
 the Gaussian(R) 94 system (copyright 1995, Gaussian, Inc.),
 the Gaussian 92(TM) system (copyright 1992, Gaussian, Inc.),
 the Gaussian 90(TM) system (copyright 1990, Gaussian, Inc.),
 the Gaussian 88(TM) system (copyright 1988, Gaussian, Inc.),
 the Gaussian 86(TM) system (copyright 1986, Carnegie Mellon
 University), and the Gaussian 82(TM) system (copyright 1983,
 Carnegie Mellon University). Gaussian is a federally registered
 trademark of Gaussian, Inc.
  
 This software contains proprietary and confidential information,
 including trade secrets, belonging to Gaussian, Inc.
  
 This software is provided under written license and may be
 used, copied, transmitted, or stored only in accord with that
 written license.
  
 The following legend is applicable only to US Government
 contracts under FAR:
  
                    RESTRICTED RIGHTS LEGEND
  
 Use, reproduction and disclosure by the US Government is
 subject to restrictions as set forth in subparagraphs (a)
 and (c) of the Commercial Computer Software - Restricted
 Rights clause in FAR 52.227-19.
  
 Gaussian, Inc.
 340 Quinnipiac St., Bldg. 40, Wallingford CT 06492
  
  
 ---------------------------------------------------------------
 Warning -- This program may not be used in any manner that
 competes with the business of Gaussian, Inc. or will provide
 assistance to any competitor of Gaussian, Inc.  The licensee
 of this program is prohibited from giving any competitor of
 Gaussian, Inc. access to this program.  By using this program,
 the user acknowledges that Gaussian, Inc. is engaged in the
 business of creating and licensing software in the field of
 computational chemistry and represents and warrants to the
 licensee that it is not a competitor of Gaussian, Inc. and that
 it will not use this program in any manner prohibited above.
 ---------------------------------------------------------------
  

 Cite this work as:
 Gaussian 16, Revision B.01,
 M. J. Frisch, G. W. Trucks, H. B. Schlegel, G. E. Scuseria, 
 M. A. Robb, J. R. Cheeseman, G. Scalmani, V. Barone, 
 G. A. Petersson, H. Nakatsuji, X. Li, M. Caricato, A. V. Marenich, 
 J. Bloino, B. G. Janesko, R. Gomperts, B. Mennucci, H. P. Hratchian, 
 J. V. Ortiz, A. F. Izmaylov, J. L. Sonnenberg, D. Williams-Young, 
 F. Ding, F. Lipparini, F. Egidi, J. Goings, B. Peng, A. Petrone, 
 T. Henderson, D. Ranasinghe, V. G. Zakrzewski, J. Gao, N. Rega, 
 G. Zheng, W. Liang, M. Hada, M. Ehara, K. Toyota, R. Fukuda, 
 J. Hasegawa, M. Ishida, T. Nakajima, Y. Honda, O. Kitao, H. Nakai, 
 T. Vreven, K. Throssell, J. A. Montgomery, Jr., J. E. Peralta, 
 F. Ogliaro, M. J. Bearpark, J. J. Heyd, E. N. Brothers, K. N. Kudin, 
 V. N. Staroverov, T. A. Keith, R. Kobayashi, J. Normand, 
 K. Raghavachari, A. P. Rendell, J. C. Burant, S. S. Iyengar, 
 J. Tomasi, M. Cossi, J. M. Millam, M. Klene, C. Adamo, R. Cammi, 
 J. W. Ochterski, R. L. Martin, K. Morokuma, O. Farkas, 
 J. B. Foresman, and D. J. Fox, Gaussian, Inc., Wallingford CT, 2016.
 
 ******************************************
 Gaussian 16:  ES64L-G16RevB.01 20-Dec-2017
                22-Nov-2022 
 ******************************************
 %nprocshared=32
 Will use up to   32 processors via shared memory.
 %mem=120GB
 %chk=_conf048.chk
 ----------------------------------------
 #P wB97XD/6-311++G(d,p) scf=maxcycle=512
 ----------------------------------------
 1/38=1,172=1/1;
 2/12=2,17=6,18=5,40=1/2;
 3/5=4,6=6,7=1111,11=2,25=1,30=1,74=-58/1,2,3;
 4//1;
 5/5=2,7=512,38=5/2;
 6/7=2,8=2,9=2,10=2,28=1/1;
 99/5=1,9=1/99;
 Leave Link    1 at Tue Nov 22 19:14:01 2022, MaxMem= 16106127360 cpu:               1.4 elap:               0.1
 (Enter /opt/ap/G16/B01/g16/l101.exe)
 ----------------------------
 _conf048.gjf nmol_natom 1_19
 ----------------------------
 Symbolic Z-matrix:
 Charge =  0 Multiplicity = 1
 C
 C                    1     1.39448 
 C                    1     1.39874  2     119.56697 
 C                    2     1.39066  1     119.42697  3     2.53916  0
 H                    2     0.96213  1     119.80462  3    -177.7987  0
 N                    1     1.41693  2     123.7222  4    -177.74605  0
 C                    3     1.38667  1     120.1876  2    -2.50209  0
 H                    3     0.95673  1     118.82086  2     177.96737  0
 C                    4     1.38269  2     121.03929  1    -0.41221  0
 H                    4     0.98586  2     118.57913  1     178.77373  0
 C                    6     1.35501  1     127.62133  2     17.57863  0
 H                    6     0.89609  1     115.10512  2    -166.41127  0
 H                    7     0.98847  3     119.08118  1    -179.64585  0
 H                    9     0.98451  4     120.53756  2     177.22744  0
 C                    11    1.50275  6     115.46862  1    -120.     0
 O                    11    1.23496  6     123.151  1     60.      0
 H                    15    0.9872   11    107.47092  6    -116.36963  0
 H                    15    0.99976  11    109.69443  6     128.85346  0
 H                    15    0.97696  11    114.37009  6     6.05303  0
 
 ITRead=  0  0  0  0  0  0  0  0  0  0  0  0  0  0  0  0  0  0  0
 MicOpt= -1 -1 -1 -1 -1 -1 -1 -1 -1 -1 -1 -1 -1 -1 -1 -1 -1 -1 -1
 NAtoms=     19 NQM=       19 NQMF=       0 NMMI=      0 NMMIF=      0
                NMic=       0 NMicF=      0.
                    Isotopes and Nuclear Properties:
 (Nuclear quadrupole moments (NQMom) in fm**2, nuclear magnetic moments (NMagM)
  in nuclear magnetons)

  Atom         1           2           3           4           5           6           7           8           9          10
 IAtWgt=          12          12          12          12           1          14          12           1          12           1
 AtmWgt=  12.0000000  12.0000000  12.0000000  12.0000000   1.0078250  14.0030740  12.0000000   1.0078250  12.0000000   1.0078250
 NucSpn=           0           0           0           0           1           2           0           1           0           1
 AtZEff=  -0.0000000  -0.0000000  -0.0000000  -0.0000000  -0.0000000  -0.0000000  -0.0000000  -0.0000000  -0.0000000  -0.0000000
 NQMom=    0.0000000   0.0000000   0.0000000   0.0000000   0.0000000   2.0440000   0.0000000   0.0000000   0.0000000   0.0000000
 NMagM=    0.0000000   0.0000000   0.0000000   0.0000000   2.7928460   0.4037610   0.0000000   2.7928460   0.0000000   2.7928460
 AtZNuc=   6.0000000   6.0000000   6.0000000   6.0000000   1.0000000   7.0000000   6.0000000   1.0000000   6.0000000   1.0000000

  Atom        11          12          13          14          15          16          17          18          19
 IAtWgt=          12           1           1           1          12          16           1           1           1
 AtmWgt=  12.0000000   1.0078250   1.0078250   1.0078250  12.0000000  15.9949146   1.0078250   1.0078250   1.0078250
 NucSpn=           0           1           1           1           0           0           1           1           1
 AtZEff=  -0.0000000  -0.0000000  -0.0000000  -0.0000000  -0.0000000  -0.0000000  -0.0000000  -0.0000000  -0.0000000
 NQMom=    0.0000000   0.0000000   0.0000000   0.0000000   0.0000000   0.0000000   0.0000000   0.0000000   0.0000000
 NMagM=    0.0000000   2.7928460   2.7928460   2.7928460   0.0000000   0.0000000   2.7928460   2.7928460   2.7928460
 AtZNuc=   6.0000000   1.0000000   1.0000000   1.0000000   6.0000000   8.0000000   1.0000000   1.0000000   1.0000000
 Leave Link  101 at Tue Nov 22 19:14:01 2022, MaxMem= 16106127360 cpu:               5.1 elap:               0.2
 (Enter /opt/ap/G16/B01/g16/l202.exe)
                          Input orientation:                          
 ---------------------------------------------------------------------
 Center     Atomic      Atomic             Coordinates (Angstroms)
 Number     Number       Type             X           Y           Z
 ---------------------------------------------------------------------
      1          6           0        0.000000    0.000000    0.000000
      2          6           0        0.000000    0.000000    1.394475
      3          6           0        1.216591    0.000000   -0.690193
      4          6           0        1.210053    0.053661    2.077726
      5          1           0       -0.834249   -0.032067    1.872696
      6          7           0       -1.178505   -0.005866   -0.786634
      7          6           0        2.413939    0.052326    0.007287
      8          1           0        1.204393   -0.029731   -1.646384
      9          6           0        2.412261    0.098442    1.396177
     10          1           0        1.194755    0.071528    3.063305
     11          6           0       -2.436085    0.312014   -0.394861
     12          1           0       -1.055905   -0.195907   -1.653721
     13          1           0        3.263999    0.056828   -0.497149
     14          1           0        3.262484    0.177260    1.886251
     15          6           0       -3.454362   -0.783628   -0.539508
     16          8           0       -2.743899    1.420973    0.053024
     17          1           0       -4.126052   -0.479226   -1.195810
     18          1           0       -3.946288   -0.902381    0.322715
     19          1           0       -3.083846   -1.644463   -0.815432
 ---------------------------------------------------------------------
                    Distance matrix (angstroms):
                    1          2          3          4          5
     1  C    0.000000
     2  C    1.394475   0.000000
     3  C    1.398735   2.413697   0.000000
     4  C    2.405006   1.390661   2.768447   0.000000
     5  H    2.050363   0.962130   3.282586   2.056345   0.000000
     6  N    1.416934   2.479142   2.397044   3.730055   2.681648
     7  C    2.414517   2.784624   1.386671   2.395008   3.746678
     8  H    2.040105   3.270821   0.956732   3.725048   4.066939
     9  C    2.788908   2.414270   2.406711   1.382686   3.283889
    10  H    3.288829   2.053668   3.754243   0.985860   2.354812
    11  C    2.487525   3.038682   3.677855   4.413021   2.797515
    12  H    1.971829   3.231844   2.476087   4.372705   3.537173
    13  H    3.302132   3.772951   2.057273   3.293734   4.734944
    14  H    3.772687   3.304099   3.294718   2.065046   4.102100
    15  C    3.582982   4.035713   4.738627   5.413662   3.639858
    16  O    3.090462   3.368625   4.272823   4.647870   3.011527
    17  H    4.322490   4.895257   5.387870   6.282835   4.522350
    18  H    4.060988   4.187619   5.338126   5.530093   3.583947
    19  H    3.588773   4.134979   4.605833   5.448996   3.858308
                    6          7          8          9         10
     6  N    0.000000
     7  C    3.679585   0.000000
     8  H    2.533365   2.050454   0.000000
     9  C    4.203468   1.389657   3.276058   0.000000
    10  H    4.523316   3.290292   4.710788   2.064548   0.000000
    11  C    1.355007   4.873592   3.864736   5.172997   5.019935
    12  H    0.896095   3.854917   2.266411   4.627818   5.233291
    13  H    4.452366   0.988472   2.360129   2.076505   4.118108
    14  H    5.186544   2.065465   4.093666   0.984512   2.381625
    15  C    2.417750   5.952711   4.847426   6.240368   5.943555
    16  O    2.278455   5.336532   4.536688   5.489912   5.137684
    17  H    3.013226   6.670942   5.368306   7.057028   6.837718
    18  H    3.113683   6.439212   5.582865   6.525727   5.906747
    19  H    2.513196   5.812194   4.656913   6.175446   6.024588
                   11         12         13         14         15
    11  C    0.000000
    12  H    1.935874   0.000000
    13  H    5.706710   4.479186   0.000000
    14  H    6.139652   5.596351   2.386441   0.000000
    15  C    1.502746   2.709148   6.770859   7.205806   0.000000
    16  O    1.234965   2.894236   6.185339   6.401889   2.390840
    17  H    2.030657   3.117010   7.442334   8.032468   0.987198
    18  H    2.066491   3.572074   7.319870   7.454976   0.999760
    19  H    2.103397   2.629370   6.579576   7.133980   0.976962
                   16         17         18         19
    16  O    0.000000
    17  H    2.660956   0.000000
    18  H    2.629913   1.586598   0.000000
    19  H    3.204166   1.608931   1.609308   0.000000
 Stoichiometry    C8H9NO
 Framework group  C1[X(C8H9NO)]
 Deg. of freedom    51
 Full point group                 C1      NOp   1
 Largest Abelian subgroup         C1      NOp   1
 Largest concise Abelian subgroup C1      NOp   1
                         Standard orientation:                         
 ---------------------------------------------------------------------
 Center     Atomic      Atomic             Coordinates (Angstroms)
 Number     Number       Type             X           Y           Z
 ---------------------------------------------------------------------
      1          6           0       -0.293893   -0.316096   -0.047808
      2          6           0       -0.657631    1.016576   -0.238174
      3          6           0       -1.288324   -1.289060    0.096792
      4          6           0       -2.003765    1.365522   -0.228229
      5          1           0        0.022847    1.683910   -0.369743
      6          7           0        1.048963   -0.765154    0.004973
      7          6           0       -2.625910   -0.923435    0.102948
      8          1           0       -1.027264   -2.203971    0.197395
      9          6           0       -2.986369    0.410909   -0.041083
     10          1           0       -2.245999    2.313908   -0.345724
     11          6           0        2.162207   -0.021499    0.214045
     12          1           0        1.155944   -1.652487   -0.059677
     13          1           0       -3.314936   -1.623823    0.211466
     14          1           0       -3.934634    0.671507    0.005234
     15          6           0        3.178119   -0.053682   -0.892812
     16          8           0        2.347426    0.643945    1.237771
     17          1           0        3.999083   -0.464484   -0.529741
     18          1           0        3.427582    0.880101   -1.148426
     19          1           0        2.888609   -0.535558   -1.691832
 ---------------------------------------------------------------------
 Rotational constants (GHZ):           3.5078739           0.7699395           0.7028079
 Leave Link  202 at Tue Nov 22 19:14:01 2022, MaxMem= 16106127360 cpu:               0.1 elap:               0.0
 (Enter /opt/ap/G16/B01/g16/l301.exe)
 Standard basis: 6-311++G(d,p) (5D, 7F)
 Ernie: Thresh=  0.10000D-02 Tol=  0.10000D-05 Strict=F.
 There are   293 symmetry adapted cartesian basis functions of A   symmetry.
 There are   283 symmetry adapted basis functions of A   symmetry.
   283 basis functions,   441 primitive gaussians,   293 cartesian basis functions
    36 alpha electrons       36 beta electrons
       nuclear repulsion energy       490.7430491125 Hartrees.
 IExCor= 4639 DFT=T Ex+Corr=wB97XD ExCW=0 ScaHFX=  1.000000
 ScaDFX=  1.000000  1.000000  1.000000  1.000000 ScalE2=  1.000000  1.000000
 IRadAn=      5 IRanWt=     -1 IRanGd=            0 ICorTp=0 IEmpDi=121
 HFx  wShort=  0.000000 wLong=  0.200000 cFull=  0.222036 cShort=  0.000000 cLong=  0.777964
 DFx  wShort=  0.000000 wLong=  0.200000 cFull=  0.000000 cShort=  0.000000 cLong=  1.000000
 NAtoms=   19 NActive=   19 NUniq=   19 SFac= 1.00D+00 NAtFMM=   60 NAOKFM=F Big=F
 Integral buffers will be    131072 words long.
 Raffenetti 2 integral format.
 Two-electron integral symmetry is turned on.
 R6Disp:  Grimme-D2 Dispersion energy=       -0.0093712680 Hartrees.
 Nuclear repulsion after empirical dispersion term =      490.7336778445 Hartrees.
 Leave Link  301 at Tue Nov 22 19:14:01 2022, MaxMem= 16106127360 cpu:               1.2 elap:               0.0
 (Enter /opt/ap/G16/B01/g16/l302.exe)
 NPDir=0 NMtPBC=     1 NCelOv=     1 NCel=       1 NClECP=     1 NCelD=      1
         NCelK=      1 NCelE2=     1 NClLst=     1 CellRange=     0.0.
 One-electron integrals computed using PRISM.
 One-electron integral symmetry used in STVInt
 NBasis=   283 RedAO= T EigKep=  2.30D-06  NBF=   283
 NBsUse=   282 1.00D-06 EigRej=  8.16D-07 NBFU=   282
 Precomputing XC quadrature grid using
 IXCGrd= 4 IRadAn=           5 IRanWt=          -1 IRanGd=           0 AccXCQ= 0.00D+00.
 Generated NRdTot=       0 NPtTot=           0 NUsed=           0 NTot=          32
 NSgBfM=   293   293   293   293   293 MxSgAt=    19 MxSgA2=    19.
 Leave Link  302 at Tue Nov 22 19:14:01 2022, MaxMem= 16106127360 cpu:               6.3 elap:               0.2
 (Enter /opt/ap/G16/B01/g16/l303.exe)
 DipDrv:  MaxL=1.
 Leave Link  303 at Tue Nov 22 19:14:01 2022, MaxMem= 16106127360 cpu:               1.4 elap:               0.0
 (Enter /opt/ap/G16/B01/g16/l401.exe)
 ExpMin= 3.60D-02 ExpMax= 8.59D+03 ExpMxC= 1.30D+03 IAcc=3 IRadAn=         5 AccDes= 0.00D+00
 Harris functional with IExCor= 4639 and IRadAn=       5 diagonalized for initial guess.
 HarFok:  IExCor= 4639 AccDes= 0.00D+00 IRadAn=         5 IDoV= 1 UseB2=F ITyADJ=14
 ICtDFT=  3500011 ScaDFX=  1.000000  1.000000  1.000000  1.000000
 FoFCou: FMM=F IPFlag=           0 FMFlag=      100000 FMFlg1=           0
         NFxFlg=           0 DoJE=T BraDBF=F KetDBF=T FulRan=T
         wScrn=  0.000000 ICntrl=       500 IOpCl=  0 I1Cent=   200000004 NGrid=           0
         NMat0=    1 NMatS0=      1 NMatT0=    0 NMatD0=    1 NMtDS0=    0 NMtDT0=    0
 Petite list used in FoFCou.
 Harris En= -420.966703495885    
 JPrj=0 DoOrth=F DoCkMO=F.
 Leave Link  401 at Tue Nov 22 19:14:02 2022, MaxMem= 16106127360 cpu:              16.0 elap:               0.5
 (Enter /opt/ap/G16/B01/g16/l502.exe)
 Integral symmetry usage will be decided dynamically.
 Closed shell SCF:
 Using DIIS extrapolation, IDIIS=  1040.
 NGot= 16106127360 LenX= 16105943385 LenY= 16105857095
 Requested convergence on RMS density matrix=1.00D-08 within 512 cycles.
 Requested convergence on MAX density matrix=1.00D-06.
 Requested convergence on             energy=1.00D-06.
 No special actions if energy rises.
 Fock matrices will be formed incrementally for  20 cycles.

 Cycle   1  Pass 1  IDiag  1:
 FoFJK:  IHMeth= 1 ICntrl=       0 DoSepK=T KAlg= 0 I1Cent=           0 FoldK=F
 IRaf=         1 NMat=       1 IRICut=       1 DoRegI=T DoRafI=F ISym2E= 0 IDoP0=0 IntGTp=1.
 FoFCou: FMM=F IPFlag=           0 FMFlag=      100000 FMFlg1=           0
         NFxFlg=           0 DoJE=T BraDBF=F KetDBF=F FulRan=T
         wScrn=  0.000000 ICntrl=       500 IOpCl=  0 I1Cent=           0 NGrid=           0
         NMat0=    1 NMatS0=      1 NMatT0=    0 NMatD0=    1 NMtDS0=    0 NMtDT0=    0
 Symmetry not used in FoFCou.
 E= -439.952755470348    
 DIIS: error= 4.98D-02 at cycle   1 NSaved=   1.
 NSaved= 1 IEnMin= 1 EnMin= -439.952755470348     IErMin= 1 ErrMin= 4.98D-02
 ErrMax= 4.98D-02  0.00D+00 EMaxC= 1.00D-01 BMatC= 9.53D-01 BMatP= 9.53D-01
 IDIUse=3 WtCom= 5.02D-01 WtEn= 4.98D-01
 Coeff-Com:  0.100D+01
 Coeff-En:   0.100D+01
 Coeff:      0.100D+01
 Gap=     0.433 Goal=   None    Shift=    0.000
 GapD=    0.433 DampG=2.000 DampE=0.500 DampFc=1.0000 IDamp=-1.
 RMSDP=1.51D-02 MaxDP=1.50D+00              OVMax= 1.71D-01

 Cycle   2  Pass 1  IDiag  1:
 RMSU=  6.96D-03    CP:  6.64D-01
 E= -440.036677471579     Delta-E=       -0.083922001231 Rises=F Damp=F
 DIIS: error= 1.13D-02 at cycle   2 NSaved=   2.
 NSaved= 2 IEnMin= 2 EnMin= -440.036677471579     IErMin= 2 ErrMin= 1.13D-02
 ErrMax= 1.13D-02  0.00D+00 EMaxC= 1.00D-01 BMatC= 8.99D-02 BMatP= 9.53D-01
 IDIUse=3 WtCom= 8.87D-01 WtEn= 1.13D-01
 Coeff-Com:  0.166D+00 0.834D+00
 Coeff-En:   0.241D+00 0.759D+00
 Coeff:      0.174D+00 0.826D+00
 Gap=     0.406 Goal=   None    Shift=    0.000
 RMSDP=4.66D-03 MaxDP=1.68D-01 DE=-8.39D-02 OVMax= 1.29D-01

 Cycle   3  Pass 1  IDiag  1:
 RMSU=  4.01D-03    CP:  6.49D-01  6.70D-01
 E= -440.081559875461     Delta-E=       -0.044882403882 Rises=F Damp=F
 DIIS: error= 1.01D-02 at cycle   3 NSaved=   3.
 NSaved= 3 IEnMin= 3 EnMin= -440.081559875461     IErMin= 3 ErrMin= 1.01D-02
 ErrMax= 1.01D-02  0.00D+00 EMaxC= 1.00D-01 BMatC= 3.75D-02 BMatP= 8.99D-02
 IDIUse=3 WtCom= 8.99D-01 WtEn= 1.01D-01
 Coeff-Com:  0.241D-01 0.397D+00 0.579D+00
 Coeff-En:   0.000D+00 0.291D+00 0.709D+00
 Coeff:      0.217D-01 0.387D+00 0.592D+00
 Gap=     0.358 Goal=   None    Shift=    0.000
 RMSDP=2.97D-03 MaxDP=2.05D-01 DE=-4.49D-02 OVMax= 7.45D-02

 Cycle   4  Pass 1  IDiag  1:
 RMSU=  1.32D-03    CP:  6.08D-01  8.30D-01  5.54D-01
 E= -440.115575637161     Delta-E=       -0.034015761700 Rises=F Damp=F
 DIIS: error= 2.72D-03 at cycle   4 NSaved=   4.
 NSaved= 4 IEnMin= 4 EnMin= -440.115575637161     IErMin= 4 ErrMin= 2.72D-03
 ErrMax= 2.72D-03  0.00D+00 EMaxC= 1.00D-01 BMatC= 9.93D-04 BMatP= 3.75D-02
 IDIUse=3 WtCom= 9.73D-01 WtEn= 2.72D-02
 Coeff-Com:  0.812D-02 0.162D+00 0.275D+00 0.554D+00
 Coeff-En:   0.000D+00 0.000D+00 0.000D+00 0.100D+01
 Coeff:      0.790D-02 0.158D+00 0.268D+00 0.566D+00
 Gap=     0.323 Goal=   None    Shift=    0.000
 RMSDP=3.08D-04 MaxDP=9.73D-03 DE=-3.40D-02 OVMax= 8.83D-03

 Cycle   5  Pass 1  IDiag  1:
 RMSU=  1.92D-04    CP:  6.09D-01  8.25D-01  6.01D-01  8.94D-01
 E= -440.116436329228     Delta-E=       -0.000860692066 Rises=F Damp=F
 DIIS: error= 4.00D-04 at cycle   5 NSaved=   5.
 NSaved= 5 IEnMin= 5 EnMin= -440.116436329228     IErMin= 5 ErrMin= 4.00D-04
 ErrMax= 4.00D-04  0.00D+00 EMaxC= 1.00D-01 BMatC= 3.90D-05 BMatP= 9.93D-04
 IDIUse=3 WtCom= 9.96D-01 WtEn= 4.00D-03
 Coeff-Com: -0.445D-03-0.571D-02 0.389D-02 0.142D+00 0.860D+00
 Coeff-En:   0.000D+00 0.000D+00 0.000D+00 0.000D+00 0.100D+01
 Coeff:     -0.443D-03-0.569D-02 0.387D-02 0.142D+00 0.861D+00
 Gap=     0.324 Goal=   None    Shift=    0.000
 RMSDP=1.20D-04 MaxDP=4.71D-03 DE=-8.61D-04 OVMax= 3.91D-03

 Cycle   6  Pass 1  IDiag  1:
 RMSU=  8.10D-05    CP:  6.08D-01  8.25D-01  6.07D-01  9.48D-01  1.09D+00
 E= -440.116473061633     Delta-E=       -0.000036732405 Rises=F Damp=F
 DIIS: error= 2.55D-04 at cycle   6 NSaved=   6.
 NSaved= 6 IEnMin= 6 EnMin= -440.116473061633     IErMin= 6 ErrMin= 2.55D-04
 ErrMax= 2.55D-04  0.00D+00 EMaxC= 1.00D-01 BMatC= 2.09D-05 BMatP= 3.90D-05
 IDIUse=3 WtCom= 9.97D-01 WtEn= 2.55D-03
 Coeff-Com: -0.126D-02-0.220D-01-0.278D-01 0.209D-01 0.516D+00 0.514D+00
 Coeff-En:   0.000D+00 0.000D+00 0.000D+00 0.000D+00 0.000D+00 0.100D+01
 Coeff:     -0.126D-02-0.219D-01-0.277D-01 0.208D-01 0.515D+00 0.515D+00
 Gap=     0.325 Goal=   None    Shift=    0.000
 RMSDP=5.09D-05 MaxDP=3.31D-03 DE=-3.67D-05 OVMax= 8.81D-04

 Cycle   7  Pass 1  IDiag  1:
 RMSU=  2.57D-05    CP:  6.07D-01  8.23D-01  6.08D-01  9.64D-01  1.19D+00
                    CP:  1.01D+00
 E= -440.116489504487     Delta-E=       -0.000016442854 Rises=F Damp=F
 DIIS: error= 7.84D-05 at cycle   7 NSaved=   7.
 NSaved= 7 IEnMin= 7 EnMin= -440.116489504487     IErMin= 7 ErrMin= 7.84D-05
 ErrMax= 7.84D-05  0.00D+00 EMaxC= 1.00D-01 BMatC= 5.93D-07 BMatP= 2.09D-05
 IDIUse=1 WtCom= 1.00D+00 WtEn= 0.00D+00
 Coeff-Com: -0.280D-03-0.534D-02-0.687D-02-0.129D-01 0.251D-01 0.100D+00
 Coeff-Com:  0.900D+00
 Coeff:     -0.280D-03-0.534D-02-0.687D-02-0.129D-01 0.251D-01 0.100D+00
 Coeff:      0.900D+00
 Gap=     0.325 Goal=   None    Shift=    0.000
 RMSDP=1.86D-05 MaxDP=1.05D-03 DE=-1.64D-05 OVMax= 6.35D-04

 Cycle   8  Pass 1  IDiag  1:
 RMSU=  8.89D-06    CP:  6.07D-01  8.23D-01  6.09D-01  9.67D-01  1.24D+00
                    CP:  1.13D+00  1.11D+00
 E= -440.116490826981     Delta-E=       -0.000001322494 Rises=F Damp=F
 DIIS: error= 1.90D-05 at cycle   8 NSaved=   8.
 NSaved= 8 IEnMin= 8 EnMin= -440.116490826981     IErMin= 8 ErrMin= 1.90D-05
 ErrMax= 1.90D-05  0.00D+00 EMaxC= 1.00D-01 BMatC= 1.85D-07 BMatP= 5.93D-07
 IDIUse=1 WtCom= 1.00D+00 WtEn= 0.00D+00
 Coeff-Com:  0.843D-04 0.113D-02 0.155D-02-0.106D-01-0.818D-01-0.564D-01
 Coeff-Com:  0.396D+00 0.750D+00
 Coeff:      0.843D-04 0.113D-02 0.155D-02-0.106D-01-0.818D-01-0.564D-01
 Coeff:      0.396D+00 0.750D+00
 Gap=     0.325 Goal=   None    Shift=    0.000
 RMSDP=9.67D-06 MaxDP=6.73D-04 DE=-1.32D-06 OVMax= 3.79D-04

 Cycle   9  Pass 1  IDiag  1:
 RMSU=  3.66D-06    CP:  6.07D-01  8.23D-01  6.10D-01  9.67D-01  1.26D+00
                    CP:  1.19D+00  1.25D+00  1.22D+00
 E= -440.116491122775     Delta-E=       -0.000000295794 Rises=F Damp=F
 DIIS: error= 1.41D-05 at cycle   9 NSaved=   9.
 NSaved= 9 IEnMin= 9 EnMin= -440.116491122775     IErMin= 9 ErrMin= 1.41D-05
 ErrMax= 1.41D-05  0.00D+00 EMaxC= 1.00D-01 BMatC= 1.14D-08 BMatP= 1.85D-07
 IDIUse=1 WtCom= 1.00D+00 WtEn= 0.00D+00
 Coeff-Com:  0.579D-04 0.965D-03 0.140D-02-0.107D-02-0.239D-01-0.279D-01
 Coeff-Com:  0.107D-01 0.194D+00 0.846D+00
 Coeff:      0.579D-04 0.965D-03 0.140D-02-0.107D-02-0.239D-01-0.279D-01
 Coeff:      0.107D-01 0.194D+00 0.846D+00
 Gap=     0.325 Goal=   None    Shift=    0.000
 RMSDP=4.61D-06 MaxDP=3.39D-04 DE=-2.96D-07 OVMax= 9.96D-05

 Cycle  10  Pass 1  IDiag  1:
 RMSU=  1.31D-06    CP:  6.07D-01  8.23D-01  6.10D-01  9.65D-01  1.26D+00
                    CP:  1.20D+00  1.27D+00  1.35D+00  1.35D+00
 E= -440.116491148421     Delta-E=       -0.000000025646 Rises=F Damp=F
 DIIS: error= 2.31D-06 at cycle  10 NSaved=  10.
 NSaved=10 IEnMin=10 EnMin= -440.116491148421     IErMin=10 ErrMin= 2.31D-06
 ErrMax= 2.31D-06  0.00D+00 EMaxC= 1.00D-01 BMatC= 1.25D-09 BMatP= 1.14D-08
 IDIUse=1 WtCom= 1.00D+00 WtEn= 0.00D+00
 Coeff-Com:  0.149D-05 0.837D-04 0.170D-03 0.126D-02 0.578D-02 0.155D-02
 Coeff-Com: -0.472D-01-0.678D-01 0.151D+00 0.955D+00
 Coeff:      0.149D-05 0.837D-04 0.170D-03 0.126D-02 0.578D-02 0.155D-02
 Coeff:     -0.472D-01-0.678D-01 0.151D+00 0.955D+00
 Gap=     0.325 Goal=   None    Shift=    0.000
 RMSDP=1.40D-06 MaxDP=5.05D-05 DE=-2.56D-08 OVMax= 5.08D-05

 Cycle  11  Pass 1  IDiag  1:
 RMSU=  4.61D-07    CP:  6.07D-01  8.23D-01  6.10D-01  9.64D-01  1.26D+00
                    CP:  1.20D+00  1.27D+00  1.41D+00  1.50D+00  1.15D+00
 E= -440.116491152403     Delta-E=       -0.000000003982 Rises=F Damp=F
 DIIS: error= 1.26D-06 at cycle  11 NSaved=  11.
 NSaved=11 IEnMin=11 EnMin= -440.116491152403     IErMin=11 ErrMin= 1.26D-06
 ErrMax= 1.26D-06  0.00D+00 EMaxC= 1.00D-01 BMatC= 1.56D-10 BMatP= 1.25D-09
 IDIUse=1 WtCom= 1.00D+00 WtEn= 0.00D+00
 Coeff-Com: -0.466D-05-0.742D-04-0.856D-04 0.397D-03 0.333D-02 0.321D-02
 Coeff-Com: -0.952D-02-0.331D-01-0.673D-01 0.167D+00 0.936D+00
 Coeff:     -0.466D-05-0.742D-04-0.856D-04 0.397D-03 0.333D-02 0.321D-02
 Coeff:     -0.952D-02-0.331D-01-0.673D-01 0.167D+00 0.936D+00
 Gap=     0.325 Goal=   None    Shift=    0.000
 RMSDP=3.49D-07 MaxDP=1.18D-05 DE=-3.98D-09 OVMax= 1.38D-05

 Cycle  12  Pass 1  IDiag  1:
 RMSU=  1.31D-07    CP:  6.07D-01  8.23D-01  6.10D-01  9.64D-01  1.26D+00
                    CP:  1.20D+00  1.28D+00  1.41D+00  1.54D+00  1.24D+00
                    CP:  1.34D+00
 E= -440.116491152850     Delta-E=       -0.000000000447 Rises=F Damp=F
 DIIS: error= 2.69D-07 at cycle  12 NSaved=  12.
 NSaved=12 IEnMin=12 EnMin= -440.116491152850     IErMin=12 ErrMin= 2.69D-07
 ErrMax= 2.69D-07  0.00D+00 EMaxC= 1.00D-01 BMatC= 2.02D-11 BMatP= 1.56D-10
 IDIUse=1 WtCom= 1.00D+00 WtEn= 0.00D+00
 Coeff-Com: -0.877D-06-0.227D-04-0.319D-04-0.758D-04-0.357D-03 0.494D-03
 Coeff-Com:  0.451D-02 0.395D-02-0.305D-01-0.850D-01 0.175D+00 0.933D+00
 Coeff:     -0.877D-06-0.227D-04-0.319D-04-0.758D-04-0.357D-03 0.494D-03
 Coeff:      0.451D-02 0.395D-02-0.305D-01-0.850D-01 0.175D+00 0.933D+00
 Gap=     0.325 Goal=   None    Shift=    0.000
 RMSDP=1.51D-07 MaxDP=1.12D-05 DE=-4.47D-10 OVMax= 5.32D-06

 Cycle  13  Pass 1  IDiag  1:
 RMSU=  7.22D-08    CP:  6.07D-01  8.23D-01  6.10D-01  9.64D-01  1.26D+00
                    CP:  1.20D+00  1.28D+00  1.41D+00  1.54D+00  1.27D+00
                    CP:  1.47D+00  1.22D+00
 E= -440.116491152910     Delta-E=       -0.000000000060 Rises=F Damp=F
 DIIS: error= 1.02D-07 at cycle  13 NSaved=  13.
 NSaved=13 IEnMin=13 EnMin= -440.116491152910     IErMin=13 ErrMin= 1.02D-07
 ErrMax= 1.02D-07  0.00D+00 EMaxC= 1.00D-01 BMatC= 3.12D-12 BMatP= 2.02D-11
 IDIUse=1 WtCom= 1.00D+00 WtEn= 0.00D+00
 Coeff-Com:  0.186D-06 0.846D-06-0.574D-06-0.596D-04-0.489D-03-0.150D-03
 Coeff-Com:  0.226D-02 0.481D-02-0.199D-02-0.434D-01-0.623D-01 0.283D+00
 Coeff-Com:  0.819D+00
 Coeff:      0.186D-06 0.846D-06-0.574D-06-0.596D-04-0.489D-03-0.150D-03
 Coeff:      0.226D-02 0.481D-02-0.199D-02-0.434D-01-0.623D-01 0.283D+00
 Coeff:      0.819D+00
 Gap=     0.325 Goal=   None    Shift=    0.000
 RMSDP=6.37D-08 MaxDP=4.78D-06 DE=-5.98D-11 OVMax= 1.81D-06

 Cycle  14  Pass 1  IDiag  1:
 RMSU=  2.26D-08    CP:  6.07D-01  8.23D-01  6.10D-01  9.64D-01  1.26D+00
                    CP:  1.20D+00  1.28D+00  1.41D+00  1.54D+00  1.27D+00
                    CP:  1.51D+00  1.34D+00  1.29D+00
 E= -440.116491152914     Delta-E=       -0.000000000004 Rises=F Damp=F
 DIIS: error= 3.83D-08 at cycle  14 NSaved=  14.
 NSaved=14 IEnMin=14 EnMin= -440.116491152914     IErMin=14 ErrMin= 3.83D-08
 ErrMax= 3.83D-08  0.00D+00 EMaxC= 1.00D-01 BMatC= 2.66D-13 BMatP= 3.12D-12
 IDIUse=1 WtCom= 1.00D+00 WtEn= 0.00D+00
 Coeff-Com:  0.980D-07 0.208D-05 0.251D-05-0.838D-06-0.487D-04-0.576D-04
 Coeff-Com: -0.125D-03 0.389D-03 0.255D-02 0.197D-02-0.329D-01-0.457D-01
 Coeff-Com:  0.169D+00 0.905D+00
 Coeff:      0.980D-07 0.208D-05 0.251D-05-0.838D-06-0.487D-04-0.576D-04
 Coeff:     -0.125D-03 0.389D-03 0.255D-02 0.197D-02-0.329D-01-0.457D-01
 Coeff:      0.169D+00 0.905D+00
 Gap=     0.325 Goal=   None    Shift=    0.000
 RMSDP=2.87D-08 MaxDP=1.26D-06 DE=-4.43D-12 OVMax= 6.96D-07

 Cycle  15  Pass 1  IDiag  1:
 RMSU=  6.83D-09    CP:  6.07D-01  8.23D-01  6.10D-01  9.64D-01  1.26D+00
                    CP:  1.20D+00  1.28D+00  1.41D+00  1.54D+00  1.26D+00
                    CP:  1.52D+00  1.37D+00  1.46D+00  1.33D+00
 E= -440.116491152916     Delta-E=       -0.000000000001 Rises=F Damp=F
 DIIS: error= 1.77D-08 at cycle  15 NSaved=  15.
 NSaved=15 IEnMin=15 EnMin= -440.116491152916     IErMin=15 ErrMin= 1.77D-08
 ErrMax= 1.77D-08  0.00D+00 EMaxC= 1.00D-01 BMatC= 3.76D-14 BMatP= 2.66D-13
 IDIUse=1 WtCom= 1.00D+00 WtEn= 0.00D+00
 Coeff-Com: -0.407D-08 0.309D-06 0.617D-06 0.830D-05 0.490D-04 0.145D-04
 Coeff-Com: -0.309D-03-0.468D-03 0.663D-03 0.623D-02 0.207D-02-0.443D-01
 Coeff-Com: -0.729D-01 0.159D+00 0.950D+00
 Coeff:     -0.407D-08 0.309D-06 0.617D-06 0.830D-05 0.490D-04 0.145D-04
 Coeff:     -0.309D-03-0.468D-03 0.663D-03 0.623D-02 0.207D-02-0.443D-01
 Coeff:     -0.729D-01 0.159D+00 0.950D+00
 Gap=     0.325 Goal=   None    Shift=    0.000
 RMSDP=9.71D-09 MaxDP=5.03D-07 DE=-1.48D-12 OVMax= 2.88D-07

 SCF Done:  E(RwB97XD) =  -440.116491153     A.U. after   15 cycles
            NFock= 15  Conv=0.97D-08     -V/T= 2.0002
 KE= 4.400421026912D+02 PE=-2.007752118068D+03 EE= 6.368598463793D+02
 Leave Link  502 at Tue Nov 22 19:14:20 2022, MaxMem= 16106127360 cpu:             587.7 elap:              18.4
 (Enter /opt/ap/G16/B01/g16/l601.exe)
 Copying SCF densities to generalized density rwf, IOpCl= 0 IROHF=0.

 **********************************************************************

            Population analysis using the SCF Density.

 **********************************************************************

 Orbital symmetries:
       Occupied  (A) (A) (A) (A) (A) (A) (A) (A) (A) (A) (A) (A)
                 (A) (A) (A) (A) (A) (A) (A) (A) (A) (A) (A) (A)
                 (A) (A) (A) (A) (A) (A) (A) (A) (A) (A) (A) (A)
       Virtual   (A) (A) (A) (A) (A) (A) (A) (A) (A) (A) (A) (A)
                 (A) (A) (A) (A) (A) (A) (A) (A) (A) (A) (A) (A)
                 (A) (A) (A) (A) (A) (A) (A) (A) (A) (A) (A) (A)
                 (A) (A) (A) (A) (A) (A) (A) (A) (A) (A) (A) (A)
                 (A) (A) (A) (A) (A) (A) (A) (A) (A) (A) (A) (A)
                 (A) (A) (A) (A) (A) (A) (A) (A) (A) (A) (A) (A)
                 (A) (A) (A) (A) (A) (A) (A) (A) (A) (A) (A) (A)
                 (A) (A) (A) (A) (A) (A) (A) (A) (A) (A) (A) (A)
                 (A) (A) (A) (A) (A) (A) (A) (A) (A) (A) (A) (A)
                 (A) (A) (A) (A) (A) (A) (A) (A) (A) (A) (A) (A)
                 (A) (A) (A) (A) (A) (A) (A) (A) (A) (A) (A) (A)
                 (A) (A) (A) (A) (A) (A) (A) (A) (A) (A) (A) (A)
                 (A) (A) (A) (A) (A) (A) (A) (A) (A) (A) (A) (A)
                 (A) (A) (A) (A) (A) (A) (A) (A) (A) (A) (A) (A)
                 (A) (A) (A) (A) (A) (A) (A) (A) (A) (A) (A) (A)
                 (A) (A) (A) (A) (A) (A) (A) (A) (A) (A) (A) (A)
                 (A) (A) (A) (A) (A) (A) (A) (A) (A) (A) (A) (A)
                 (A) (A) (A) (A) (A) (A) (A) (A) (A) (A) (A) (A)
                 (A) (A) (A) (A) (A) (A) (A) (A) (A) (A) (A) (A)
                 (A) (A) (A) (A) (A) (A) (A) (A) (A) (A) (A) (A)
                 (A) (A) (A) (A) (A) (A)
 The electronic state is 1-A.
 Alpha  occ. eigenvalues --  -19.23903 -14.44957 -10.40885 -10.34199 -10.28127
 Alpha  occ. eigenvalues --  -10.27996 -10.27538 -10.27520 -10.27043 -10.26145
 Alpha  occ. eigenvalues --   -1.15621  -1.06092  -0.96164  -0.88319  -0.86488
 Alpha  occ. eigenvalues --   -0.84880  -0.74867  -0.72988  -0.69091  -0.65639
 Alpha  occ. eigenvalues --   -0.61333  -0.59153  -0.56113  -0.55417  -0.54199
 Alpha  occ. eigenvalues --   -0.53149  -0.52899  -0.51171  -0.47683  -0.45959
 Alpha  occ. eigenvalues --   -0.44578  -0.44504  -0.39698  -0.35774  -0.33607
 Alpha  occ. eigenvalues --   -0.29367
 Alpha virt. eigenvalues --    0.03104   0.03726   0.04665   0.04880   0.05109
 Alpha virt. eigenvalues --    0.06268   0.06459   0.07082   0.07632   0.08680
 Alpha virt. eigenvalues --    0.09011   0.11071   0.11823   0.12303   0.13318
 Alpha virt. eigenvalues --    0.13848   0.14459   0.15434   0.16030   0.16663
 Alpha virt. eigenvalues --    0.17001   0.17193   0.17732   0.18395   0.18500
 Alpha virt. eigenvalues --    0.18700   0.19524   0.19754   0.20288   0.20455
 Alpha virt. eigenvalues --    0.20861   0.21364   0.22360   0.22619   0.23851
 Alpha virt. eigenvalues --    0.24580   0.24924   0.25260   0.26271   0.26815
 Alpha virt. eigenvalues --    0.27601   0.27860   0.28968   0.29331   0.29865
 Alpha virt. eigenvalues --    0.30808   0.31490   0.31887   0.34114   0.34238
 Alpha virt. eigenvalues --    0.34763   0.36050   0.36678   0.37600   0.37900
 Alpha virt. eigenvalues --    0.38757   0.39292   0.39719   0.40580   0.41786
 Alpha virt. eigenvalues --    0.42004   0.42350   0.43292   0.44709   0.45357
 Alpha virt. eigenvalues --    0.46365   0.46853   0.50461   0.53214   0.55818
 Alpha virt. eigenvalues --    0.58141   0.59605   0.60058   0.62063   0.63344
 Alpha virt. eigenvalues --    0.63938   0.64911   0.65388   0.65928   0.66385
 Alpha virt. eigenvalues --    0.67939   0.69565   0.70498   0.71061   0.72126
 Alpha virt. eigenvalues --    0.73963   0.76363   0.76729   0.77789   0.78067
 Alpha virt. eigenvalues --    0.81031   0.82396   0.83027   0.83271   0.84717
 Alpha virt. eigenvalues --    0.86535   0.89529   0.89690   0.92378   0.92457
 Alpha virt. eigenvalues --    0.94559   0.94819   0.95849   0.96623   0.97967
 Alpha virt. eigenvalues --    0.98654   0.99535   1.01644   1.03028   1.05424
 Alpha virt. eigenvalues --    1.07100   1.08103   1.11516   1.13416   1.13681
 Alpha virt. eigenvalues --    1.16637   1.17432   1.19263   1.22455   1.23322
 Alpha virt. eigenvalues --    1.26504   1.28948   1.32153   1.33807   1.37747
 Alpha virt. eigenvalues --    1.39452   1.44753   1.47664   1.53920   1.56858
 Alpha virt. eigenvalues --    1.59765   1.61380   1.62334   1.62868   1.64437
 Alpha virt. eigenvalues --    1.65790   1.67217   1.67944   1.68710   1.70835
 Alpha virt. eigenvalues --    1.72362   1.73991   1.75272   1.76416   1.78071
 Alpha virt. eigenvalues --    1.79761   1.83765   1.85497   1.89028   1.89852
 Alpha virt. eigenvalues --    1.93042   1.95278   1.96472   1.97527   1.98359
 Alpha virt. eigenvalues --    2.01385   2.01885   2.04670   2.05344   2.06862
 Alpha virt. eigenvalues --    2.08261   2.10580   2.14162   2.14888   2.16302
 Alpha virt. eigenvalues --    2.23425   2.25363   2.26814   2.30391   2.36402
 Alpha virt. eigenvalues --    2.39991   2.42863   2.47939   2.49851   2.52096
 Alpha virt. eigenvalues --    2.54325   2.56567   2.59169   2.61402   2.64230
 Alpha virt. eigenvalues --    2.64780   2.69406   2.71186   2.73857   2.75391
 Alpha virt. eigenvalues --    2.78888   2.81923   2.82288   2.83257   2.84990
 Alpha virt. eigenvalues --    2.86236   2.90273   2.91082   2.91647   2.93182
 Alpha virt. eigenvalues --    2.94654   2.94951   2.95871   2.99973   3.01685
 Alpha virt. eigenvalues --    3.02561   3.04928   3.07069   3.09732   3.15841
 Alpha virt. eigenvalues --    3.19637   3.21294   3.24113   3.27374   3.31502
 Alpha virt. eigenvalues --    3.40917   3.44291   3.48093   3.50247   3.53017
 Alpha virt. eigenvalues --    3.60106   3.65151   3.69663   3.72165   3.90777
 Alpha virt. eigenvalues --    3.97549   4.04726   4.10556   4.12691   4.21345
 Alpha virt. eigenvalues --    4.31002   4.34802   4.38058   4.40058   4.44705
 Alpha virt. eigenvalues --    4.96239   5.14739   5.18211   5.24605   5.32607
 Alpha virt. eigenvalues --    5.85040  23.87467  23.99167  24.14708  24.22986
 Alpha virt. eigenvalues --   24.30660  24.33539  24.37837  24.42970  35.89012
 Alpha virt. eigenvalues --   50.11531
          Condensed to atoms (all electrons):
               1          2          3          4          5          6
     1  C    7.508321  -0.232370  -0.281201  -0.481309  -0.074100  -0.213958
     2  C   -0.232370   9.435695  -3.284069  -0.846347   0.638597   0.089887
     3  C   -0.281201  -3.284069   9.363261   1.077583  -0.109064  -0.161845
     4  C   -0.481309  -0.846347   1.077583   6.230023  -0.142322  -0.008834
     5  H   -0.074100   0.638597  -0.109064  -0.142322   0.507981  -0.030892
     6  N   -0.213958   0.089887  -0.161845  -0.008834  -0.030892   7.437231
     7  C   -0.179783   0.571648  -0.277113  -0.353465   0.030132  -0.020797
     8  H   -0.123749  -0.068664   0.558953   0.037010  -0.005398   0.003647
     9  C    0.001524  -0.400794  -0.326216   0.589450  -0.000919   0.041906
    10  H    0.021721  -0.055995   0.028334   0.405959  -0.013620  -0.002260
    11  C    0.164800  -0.058971  -0.111768  -0.217171   0.038016  -0.169015
    12  H    0.014919  -0.013388   0.016033  -0.005355   0.003134   0.359424
    13  H    0.045217   0.061544  -0.155182  -0.027632   0.002109  -0.005874
    14  H    0.011731  -0.025730  -0.009365  -0.051703   0.000220   0.002011
    15  C   -0.158972  -0.027059   0.065620   0.078144  -0.015906  -0.149384
    16  O    0.150214  -0.242127   0.119312   0.023403  -0.011656  -0.147864
    17  H   -0.005118  -0.001425  -0.001690  -0.004820   0.000511   0.000066
    18  H   -0.007328  -0.012137   0.018642   0.011166  -0.005869   0.009514
    19  H   -0.017790   0.001162  -0.008137  -0.007106   0.000989   0.015987
               7          8          9         10         11         12
     1  C   -0.179783  -0.123749   0.001524   0.021721   0.164800   0.014919
     2  C    0.571648  -0.068664  -0.400794  -0.055995  -0.058971  -0.013388
     3  C   -0.277113   0.558953  -0.326216   0.028334  -0.111768   0.016033
     4  C   -0.353465   0.037010   0.589450   0.405959  -0.217171  -0.005355
     5  H    0.030132  -0.005398  -0.000919  -0.013620   0.038016   0.003134
     6  N   -0.020797   0.003647   0.041906  -0.002260  -0.169015   0.359424
     7  C    5.539679  -0.073616   0.486612  -0.004145   0.069330   0.009369
     8  H   -0.073616   0.549428  -0.003747   0.001793  -0.002969  -0.001297
     9  C    0.486612  -0.003747   5.577510  -0.066382   0.009636  -0.005878
    10  H   -0.004145   0.001793  -0.066382   0.492500  -0.000253   0.000119
    11  C    0.069330  -0.002969   0.009636  -0.000253   6.230495  -0.014046
    12  H    0.009369  -0.001297  -0.005878   0.000119  -0.014046   0.357047
    13  H    0.453796  -0.020743  -0.044375  -0.000688  -0.000112   0.001865
    14  H   -0.055384  -0.000565   0.481984  -0.011785   0.000047  -0.000307
    15  C   -0.030229   0.006089   0.019281  -0.000884  -0.179573  -0.030205
    16  O   -0.014288   0.000224   0.004932  -0.000047   0.415600   0.003751
    17  H    0.001700  -0.000148  -0.000399   0.000066   0.004411   0.001420
    18  H   -0.001737   0.000485   0.000943  -0.000025  -0.103693  -0.003045
    19  H    0.003184  -0.000090   0.001755  -0.000213  -0.067420  -0.003005
              13         14         15         16         17         18
     1  C    0.045217   0.011731  -0.158972   0.150214  -0.005118  -0.007328
     2  C    0.061544  -0.025730  -0.027059  -0.242127  -0.001425  -0.012137
     3  C   -0.155182  -0.009365   0.065620   0.119312  -0.001690   0.018642
     4  C   -0.027632  -0.051703   0.078144   0.023403  -0.004820   0.011166
     5  H    0.002109   0.000220  -0.015906  -0.011656   0.000511  -0.005869
     6  N   -0.005874   0.002011  -0.149384  -0.147864   0.000066   0.009514
     7  C    0.453796  -0.055384  -0.030229  -0.014288   0.001700  -0.001737
     8  H   -0.020743  -0.000565   0.006089   0.000224  -0.000148   0.000485
     9  C   -0.044375   0.481984   0.019281   0.004932  -0.000399   0.000943
    10  H   -0.000688  -0.011785  -0.000884  -0.000047   0.000066  -0.000025
    11  C   -0.000112   0.000047  -0.179573   0.415600   0.004411  -0.103693
    12  H    0.001865  -0.000307  -0.030205   0.003751   0.001420  -0.003045
    13  H    0.500429  -0.010029  -0.001282  -0.000183   0.000029  -0.000081
    14  H   -0.010029   0.498361   0.000634   0.000137  -0.000040   0.000043
    15  C   -0.001282   0.000634   5.593732  -0.028712   0.384099   0.474775
    16  O   -0.000183   0.000137  -0.028712   8.004822  -0.011886  -0.008400
    17  H    0.000029  -0.000040   0.384099  -0.011886   0.493609  -0.025217
    18  H   -0.000081   0.000043   0.474775  -0.008400  -0.025217   0.485300
    19  H   -0.000145   0.000060   0.433687   0.005347  -0.026756  -0.034390
              19
     1  C   -0.017790
     2  C    0.001162
     3  C   -0.008137
     4  C   -0.007106
     5  H    0.000989
     6  N    0.015987
     7  C    0.003184
     8  H   -0.000090
     9  C    0.001755
    10  H   -0.000213
    11  C   -0.067420
    12  H   -0.003005
    13  H   -0.000145
    14  H    0.000060
    15  C    0.433687
    16  O    0.005347
    17  H   -0.026756
    18  H   -0.034390
    19  H    0.537778
 Mulliken charges:
               1
     1  C   -0.142771
     2  C    0.470543
     3  C   -0.522089
     4  C   -0.306674
     5  H    0.188057
     6  N   -0.048949
     7  C   -0.154892
     8  H    0.143358
     9  C   -0.366824
    10  H    0.205806
    11  C   -0.007344
    12  H    0.309445
    13  H    0.201337
    14  H    0.169680
    15  C   -0.433856
    16  O   -0.262578
    17  H    0.191589
    18  H    0.201056
    19  H    0.165104
 Sum of Mulliken charges =  -0.00000
 Mulliken charges with hydrogens summed into heavy atoms:
               1
     1  C   -0.142771
     2  C    0.658601
     3  C   -0.378730
     4  C   -0.100869
     6  N    0.260496
     7  C    0.046445
     9  C   -0.197144
    11  C   -0.007344
    15  C    0.123893
    16  O   -0.262578
 Electronic spatial extent (au):  <R**2>=           1651.7774
 Charge=             -0.0000 electrons
 Dipole moment (field-independent basis, Debye):
    X=             -0.0206    Y=             -2.0133    Z=             -2.6167  Tot=              3.3017
 Quadrupole moment (field-independent basis, Debye-Ang):
   XX=            -53.2700   YY=            -51.9099   ZZ=            -65.2712
   XY=             -4.4338   XZ=             -7.4710   YZ=             -3.1086
 Traceless Quadrupole moment (field-independent basis, Debye-Ang):
   XX=              3.5470   YY=              4.9071   ZZ=             -8.4541
   XY=             -4.4338   XZ=             -7.4710   YZ=             -3.1086
 Octapole moment (field-independent basis, Debye-Ang**2):
  XXX=              6.5413  YYY=             -4.9886  ZZZ=             -2.3164  XYY=              0.3913
  XXY=            -10.0883  XXZ=            -14.9358  XZZ=              5.4594  YZZ=             -2.2679
  YYZ=             -1.6595  XYZ=             -4.0257
 Hexadecapole moment (field-independent basis, Debye-Ang**3):
 XXXX=          -1563.5404 YYYY=           -308.1423 ZZZZ=           -176.2994 XXXY=            -23.1459
 XXXZ=            -49.5984 YYYX=             -7.9317 YYYZ=             -5.9021 ZZZX=            -10.1783
 ZZZY=              0.5085 XXYY=           -317.4252 XXZZ=           -342.0675 YYZZ=            -91.8223
 XXYZ=            -19.3305 YYXZ=             -3.9044 ZZXY=             -4.3317
 N-N= 4.907336778445D+02 E-N=-2.007752117688D+03  KE= 4.400421026912D+02
 No NMR shielding tensors so no spin-rotation constants.
 Leave Link  601 at Tue Nov 22 19:14:20 2022, MaxMem= 16106127360 cpu:               3.6 elap:               0.1
 (Enter /opt/ap/G16/B01/g16/l9999.exe)
 1\1\GINC-N38\SP\RwB97XD\6-311++G(d,p)\C8H9N1O1\ROOT\22-Nov-2022\0\\#P 
 wB97XD/6-311++G(d,p) scf=maxcycle=512\\_conf048.gjf nmol_natom 1_19\\0
 ,1\C\C,1,1.39447505\C,1,1.39873503,2,119.56697224\C,2,1.39066123,1,119
 .42697207,3,2.53915756,0\H,2,0.96213008,1,119.8046163,3,-177.79870417,
 0\N,1,1.41693372,2,123.72220125,4,-177.74604849,0\C,3,1.38667133,1,120
 .18759987,2,-2.5020857,0\H,3,0.95673174,1,118.82085988,2,177.96737168,
 0\C,4,1.38268572,2,121.03929493,1,-0.41221113,0\H,4,0.9858595,2,118.57
 91267,1,178.77373233,0\C,6,1.35500692,1,127.62132737,2,17.57862687,0\H
 ,6,0.89609466,1,115.10511997,2,-166.41127095,0\H,7,0.98847198,3,119.08
 117704,1,-179.64585354,0\H,9,0.98451201,4,120.53755637,2,177.22743544,
 0\C,11,1.50274561,6,115.46861532,1,-120.,0\O,11,1.23496495,6,123.15099
 888,1,60.,0\H,15,0.98719837,11,107.47091875,6,-116.36962839,0\H,15,0.9
 9976021,11,109.69443261,6,128.85346087,0\H,15,0.97696155,11,114.370088
 71,6,6.05302844,0\\Version=ES64L-G16RevB.01\State=1-A\HF=-440.1164912\
 RMSD=9.713e-09\Dipole=0.1691999,-1.1319489,-0.6143379\Quadrupole=1.542
 9504,-6.7882926,5.2453422,5.9364947,1.776532,0.7483325\PG=C01 [X(C8H9N
 1O1)]\\@


 THE REAL VOYAGE OF DISCOVERY CONSISTS NOT IN SEEKING NEW LANDSCAPES 
 BUT IN HAVING NEW EYES.
                                                    -- MARCEL PROUST
 Job cpu time:       0 days  0 hours 10 minutes 24.4 seconds.
 Elapsed time:       0 days  0 hours  0 minutes 19.6 seconds.
 File lengths (MBytes):  RWF=     46 Int=      0 D2E=      0 Chk=      6 Scr=      1
 Normal termination of Gaussian 16 at Tue Nov 22 19:14:20 2022.
