 Entering Gaussian System, Link 0=g16
 Input=_conf050.gjf
 Output=_conf050.log
 Initial command:
 /opt/ap/G16/B01/g16/l1.exe "/tmp2/scr/Gau-14056.inp" -scrdir="/tmp2/scr/"
 Entering Link 1 = /opt/ap/G16/B01/g16/l1.exe PID=     14057.
  
 Copyright (c) 1988-2017, Gaussian, Inc.  All Rights Reserved.
  
 This is part of the Gaussian(R) 16 program.  It is based on
 the Gaussian(R) 09 system (copyright 2009, Gaussian, Inc.),
 the Gaussian(R) 03 system (copyright 2003, Gaussian, Inc.),
 the Gaussian(R) 98 system (copyright 1998, Gaussian, Inc.),
 the Gaussian(R) 94 system (copyright 1995, Gaussian, Inc.),
 the Gaussian 92(TM) system (copyright 1992, Gaussian, Inc.),
 the Gaussian 90(TM) system (copyright 1990, Gaussian, Inc.),
 the Gaussian 88(TM) system (copyright 1988, Gaussian, Inc.),
 the Gaussian 86(TM) system (copyright 1986, Carnegie Mellon
 University), and the Gaussian 82(TM) system (copyright 1983,
 Carnegie Mellon University). Gaussian is a federally registered
 trademark of Gaussian, Inc.
  
 This software contains proprietary and confidential information,
 including trade secrets, belonging to Gaussian, Inc.
  
 This software is provided under written license and may be
 used, copied, transmitted, or stored only in accord with that
 written license.
  
 The following legend is applicable only to US Government
 contracts under FAR:
  
                    RESTRICTED RIGHTS LEGEND
  
 Use, reproduction and disclosure by the US Government is
 subject to restrictions as set forth in subparagraphs (a)
 and (c) of the Commercial Computer Software - Restricted
 Rights clause in FAR 52.227-19.
  
 Gaussian, Inc.
 340 Quinnipiac St., Bldg. 40, Wallingford CT 06492
  
  
 ---------------------------------------------------------------
 Warning -- This program may not be used in any manner that
 competes with the business of Gaussian, Inc. or will provide
 assistance to any competitor of Gaussian, Inc.  The licensee
 of this program is prohibited from giving any competitor of
 Gaussian, Inc. access to this program.  By using this program,
 the user acknowledges that Gaussian, Inc. is engaged in the
 business of creating and licensing software in the field of
 computational chemistry and represents and warrants to the
 licensee that it is not a competitor of Gaussian, Inc. and that
 it will not use this program in any manner prohibited above.
 ---------------------------------------------------------------
  

 Cite this work as:
 Gaussian 16, Revision B.01,
 M. J. Frisch, G. W. Trucks, H. B. Schlegel, G. E. Scuseria, 
 M. A. Robb, J. R. Cheeseman, G. Scalmani, V. Barone, 
 G. A. Petersson, H. Nakatsuji, X. Li, M. Caricato, A. V. Marenich, 
 J. Bloino, B. G. Janesko, R. Gomperts, B. Mennucci, H. P. Hratchian, 
 J. V. Ortiz, A. F. Izmaylov, J. L. Sonnenberg, D. Williams-Young, 
 F. Ding, F. Lipparini, F. Egidi, J. Goings, B. Peng, A. Petrone, 
 T. Henderson, D. Ranasinghe, V. G. Zakrzewski, J. Gao, N. Rega, 
 G. Zheng, W. Liang, M. Hada, M. Ehara, K. Toyota, R. Fukuda, 
 J. Hasegawa, M. Ishida, T. Nakajima, Y. Honda, O. Kitao, H. Nakai, 
 T. Vreven, K. Throssell, J. A. Montgomery, Jr., J. E. Peralta, 
 F. Ogliaro, M. J. Bearpark, J. J. Heyd, E. N. Brothers, K. N. Kudin, 
 V. N. Staroverov, T. A. Keith, R. Kobayashi, J. Normand, 
 K. Raghavachari, A. P. Rendell, J. C. Burant, S. S. Iyengar, 
 J. Tomasi, M. Cossi, J. M. Millam, M. Klene, C. Adamo, R. Cammi, 
 J. W. Ochterski, R. L. Martin, K. Morokuma, O. Farkas, 
 J. B. Foresman, and D. J. Fox, Gaussian, Inc., Wallingford CT, 2016.
 
 ******************************************
 Gaussian 16:  ES64L-G16RevB.01 20-Dec-2017
                22-Nov-2022 
 ******************************************
 %nprocshared=32
 Will use up to   32 processors via shared memory.
 %mem=120GB
 %chk=_conf050.chk
 ----------------------------------------
 #P wB97XD/6-311++G(d,p) scf=maxcycle=512
 ----------------------------------------
 1/38=1,172=1/1;
 2/12=2,17=6,18=5,40=1/2;
 3/5=4,6=6,7=1111,11=2,25=1,30=1,74=-58/1,2,3;
 4//1;
 5/5=2,7=512,38=5/2;
 6/7=2,8=2,9=2,10=2,28=1/1;
 99/5=1,9=1/99;
 Leave Link    1 at Tue Nov 22 19:14:02 2022, MaxMem= 16106127360 cpu:               1.8 elap:               0.1
 (Enter /opt/ap/G16/B01/g16/l101.exe)
 ----------------------------
 _conf050.gjf nmol_natom 1_19
 ----------------------------
 Symbolic Z-matrix:
 Charge =  0 Multiplicity = 1
 C
 C                    1     1.39448 
 C                    1     1.39874  2     119.56697 
 C                    2     1.39066  1     119.42697  3     2.53916  0
 H                    2     0.96213  1     119.80462  3    -177.7987  0
 N                    1     1.41693  2     123.7222  4    -177.74605  0
 C                    3     1.38667  1     120.1876  2    -2.50209  0
 H                    3     0.95673  1     118.82086  2     177.96737  0
 C                    4     1.38269  2     121.03929  1    -0.41221  0
 H                    4     0.98586  2     118.57913  1     178.77373  0
 C                    6     1.35501  1     127.62133  2     17.57863  0
 H                    6     0.89609  1     115.10512  2    -166.41127  0
 H                    7     0.98847  3     119.08118  1    -179.64585  0
 H                    9     0.98451  4     120.53756  2     177.22744  0
 C                    11    1.50275  6     115.46862  1    -110.     0
 O                    11    1.23496  6     123.151  1     70.      0
 H                    15    0.9872   11    107.47092  6    -116.36963  0
 H                    15    0.99976  11    109.69443  6     128.85346  0
 H                    15    0.97696  11    114.37009  6     6.05303  0
 
 ITRead=  0  0  0  0  0  0  0  0  0  0  0  0  0  0  0  0  0  0  0
 MicOpt= -1 -1 -1 -1 -1 -1 -1 -1 -1 -1 -1 -1 -1 -1 -1 -1 -1 -1 -1
 NAtoms=     19 NQM=       19 NQMF=       0 NMMI=      0 NMMIF=      0
                NMic=       0 NMicF=      0.
                    Isotopes and Nuclear Properties:
 (Nuclear quadrupole moments (NQMom) in fm**2, nuclear magnetic moments (NMagM)
  in nuclear magnetons)

  Atom         1           2           3           4           5           6           7           8           9          10
 IAtWgt=          12          12          12          12           1          14          12           1          12           1
 AtmWgt=  12.0000000  12.0000000  12.0000000  12.0000000   1.0078250  14.0030740  12.0000000   1.0078250  12.0000000   1.0078250
 NucSpn=           0           0           0           0           1           2           0           1           0           1
 AtZEff=  -0.0000000  -0.0000000  -0.0000000  -0.0000000  -0.0000000  -0.0000000  -0.0000000  -0.0000000  -0.0000000  -0.0000000
 NQMom=    0.0000000   0.0000000   0.0000000   0.0000000   0.0000000   2.0440000   0.0000000   0.0000000   0.0000000   0.0000000
 NMagM=    0.0000000   0.0000000   0.0000000   0.0000000   2.7928460   0.4037610   0.0000000   2.7928460   0.0000000   2.7928460
 AtZNuc=   6.0000000   6.0000000   6.0000000   6.0000000   1.0000000   7.0000000   6.0000000   1.0000000   6.0000000   1.0000000

  Atom        11          12          13          14          15          16          17          18          19
 IAtWgt=          12           1           1           1          12          16           1           1           1
 AtmWgt=  12.0000000   1.0078250   1.0078250   1.0078250  12.0000000  15.9949146   1.0078250   1.0078250   1.0078250
 NucSpn=           0           1           1           1           0           0           1           1           1
 AtZEff=  -0.0000000  -0.0000000  -0.0000000  -0.0000000  -0.0000000  -0.0000000  -0.0000000  -0.0000000  -0.0000000
 NQMom=    0.0000000   0.0000000   0.0000000   0.0000000   0.0000000   0.0000000   0.0000000   0.0000000   0.0000000
 NMagM=    0.0000000   2.7928460   2.7928460   2.7928460   0.0000000   0.0000000   2.7928460   2.7928460   2.7928460
 AtZNuc=   6.0000000   1.0000000   1.0000000   1.0000000   6.0000000   8.0000000   1.0000000   1.0000000   1.0000000
 Leave Link  101 at Tue Nov 22 19:14:02 2022, MaxMem= 16106127360 cpu:               5.1 elap:               0.2
 (Enter /opt/ap/G16/B01/g16/l202.exe)
                          Input orientation:                          
 ---------------------------------------------------------------------
 Center     Atomic      Atomic             Coordinates (Angstroms)
 Number     Number       Type             X           Y           Z
 ---------------------------------------------------------------------
      1          6           0        0.000000    0.000000    0.000000
      2          6           0        0.000000    0.000000    1.394475
      3          6           0        1.216591    0.000000   -0.690193
      4          6           0        1.210053    0.053661    2.077726
      5          1           0       -0.834249   -0.032067    1.872696
      6          7           0       -1.178505   -0.005866   -0.786634
      7          6           0        2.413939    0.052326    0.007287
      8          1           0        1.204393   -0.029731   -1.646384
      9          6           0        2.412261    0.098442    1.396177
     10          1           0        1.194755    0.071528    3.063305
     11          6           0       -2.436085    0.312014   -0.394861
     12          1           0       -1.055905   -0.195907   -1.653721
     13          1           0        3.263999    0.056828   -0.497149
     14          1           0        3.262484    0.177260    1.886251
     15          6           0       -3.398888   -0.839116   -0.316413
     16          8           0       -2.786177    1.463260   -0.116997
     17          1           0       -4.109513   -0.677033   -0.982221
     18          1           0       -3.851813   -0.839388    0.574867
     19          1           0       -2.993199   -1.714969   -0.467253
 ---------------------------------------------------------------------
                    Distance matrix (angstroms):
                    1          2          3          4          5
     1  C    0.000000
     2  C    1.394475   0.000000
     3  C    1.398735   2.413697   0.000000
     4  C    2.405006   1.390661   2.768447   0.000000
     5  H    2.050363   0.962130   3.282586   2.056345   0.000000
     6  N    1.416934   2.479142   2.397044   3.730055   2.681648
     7  C    2.414517   2.784624   1.386671   2.395008   3.746678
     8  H    2.040105   3.270821   0.956732   3.725048   4.066939
     9  C    2.788908   2.414270   2.406711   1.382686   3.283889
    10  H    3.288829   2.053668   3.754243   0.985860   2.354812
    11  C    2.487525   3.038682   3.677855   4.413021   2.797515
    12  H    1.971829   3.231844   2.476087   4.372705   3.537173
    13  H    3.302132   3.772951   2.057273   3.293734   4.734944
    14  H    3.772687   3.304099   3.294718   2.065046   4.102100
    15  C    3.515205   3.896625   4.706004   5.269846   3.467117
    16  O    3.149222   3.491197   4.300213   4.772172   3.163053
    17  H    4.279162   4.795327   5.376899   6.180208   4.392481
    18  H    3.983906   4.026511   5.290904   5.355241   3.382576
    19  H    3.481191   3.919999   4.551171   5.222289   3.601193
                    6          7          8          9         10
     6  N    0.000000
     7  C    3.679585   0.000000
     8  H    2.533365   2.050454   0.000000
     9  C    4.203468   1.389657   3.276058   0.000000
    10  H    4.523316   3.290292   4.710788   2.064548   0.000000
    11  C    1.355007   4.873592   3.864736   5.172997   5.019935
    12  H    0.896095   3.854917   2.266411   4.627818   5.233291
    13  H    4.452366   0.988472   2.360129   2.076505   4.118108
    14  H    5.186544   2.065465   4.093666   0.984512   2.381625
    15  C    2.417750   5.889686   4.859436   6.130370   5.775234
    16  O    2.278455   5.389562   4.526885   5.583564   5.281956
    17  H    3.013226   6.638262   5.394229   6.985104   6.712816
    18  H    3.113683   6.354285   5.581641   6.386916   5.699995
    19  H    2.513196   5.708386   4.674416   5.998320   5.761543
                   11         12         13         14         15
    11  C    0.000000
    12  H    1.935874   0.000000
    13  H    5.706710   4.479186   0.000000
    14  H    6.139652   5.596351   2.386441   0.000000
    15  C    1.502746   2.773387   6.725283   7.089332   0.000000
    16  O    1.234965   2.847489   6.223117   6.500238   2.390840
    17  H    2.030657   3.163371   7.425801   7.956400   0.987198
    18  H    2.066491   3.632873   7.251702   7.305239   0.999760
    19  H    2.103397   2.732831   6.503283   6.946445   0.976962
                   16         17         18         19
    16  O    0.000000
    17  H    2.660956   0.000000
    18  H    2.629913   1.586598   0.000000
    19  H    3.204166   1.608931   1.609308   0.000000
 Stoichiometry    C8H9NO
 Framework group  C1[X(C8H9NO)]
 Deg. of freedom    51
 Full point group                 C1      NOp   1
 Largest Abelian subgroup         C1      NOp   1
 Largest concise Abelian subgroup C1      NOp   1
                         Standard orientation:                         
 ---------------------------------------------------------------------
 Center     Atomic      Atomic             Coordinates (Angstroms)
 Number     Number       Type             X           Y           Z
 ---------------------------------------------------------------------
      1          6           0       -0.292372   -0.317109   -0.070632
      2          6           0       -0.640289    1.031219   -0.144958
      3          6           0       -1.298250   -1.286983   -0.007271
      4          6           0       -1.982082    1.394027   -0.101374
      5          1           0        0.047984    1.699232   -0.220684
      6          7           0        1.045042   -0.784997   -0.060302
      7          6           0       -2.631301   -0.907335    0.033946
      8          1           0       -1.048105   -2.210196    0.013747
      9          6           0       -2.975837    0.438643    0.005919
     10          1           0       -2.213027    2.351814   -0.136402
     11          6           0        2.167567   -0.075335    0.208700
     12          1           0        1.141164   -1.664720   -0.201134
     13          1           0       -3.328561   -1.606199    0.083894
     14          1           0       -3.920797    0.705578    0.077057
     15          6           0        3.071263    0.174244   -0.965730
     16          8           0        2.446305    0.346082    1.335577
     17          1           0        3.926785   -0.283577   -0.783950
     18          1           0        3.287477    1.148639   -1.023400
     19          1           0        2.709162   -0.122463   -1.823228
 ---------------------------------------------------------------------
 Rotational constants (GHZ):           3.4476659           0.7694024           0.7093789
 Leave Link  202 at Tue Nov 22 19:14:02 2022, MaxMem= 16106127360 cpu:               0.3 elap:               0.0
 (Enter /opt/ap/G16/B01/g16/l301.exe)
 Standard basis: 6-311++G(d,p) (5D, 7F)
 Ernie: Thresh=  0.10000D-02 Tol=  0.10000D-05 Strict=F.
 There are   293 symmetry adapted cartesian basis functions of A   symmetry.
 There are   283 symmetry adapted basis functions of A   symmetry.
   283 basis functions,   441 primitive gaussians,   293 cartesian basis functions
    36 alpha electrons       36 beta electrons
       nuclear repulsion energy       490.7424526628 Hartrees.
 IExCor= 4639 DFT=T Ex+Corr=wB97XD ExCW=0 ScaHFX=  1.000000
 ScaDFX=  1.000000  1.000000  1.000000  1.000000 ScalE2=  1.000000  1.000000
 IRadAn=      5 IRanWt=     -1 IRanGd=            0 ICorTp=0 IEmpDi=121
 HFx  wShort=  0.000000 wLong=  0.200000 cFull=  0.222036 cShort=  0.000000 cLong=  0.777964
 DFx  wShort=  0.000000 wLong=  0.200000 cFull=  0.000000 cShort=  0.000000 cLong=  1.000000
 NAtoms=   19 NActive=   19 NUniq=   19 SFac= 1.00D+00 NAtFMM=   60 NAOKFM=F Big=F
 Integral buffers will be    131072 words long.
 Raffenetti 2 integral format.
 Two-electron integral symmetry is turned on.
 R6Disp:  Grimme-D2 Dispersion energy=       -0.0094506663 Hartrees.
 Nuclear repulsion after empirical dispersion term =      490.7330019965 Hartrees.
 Leave Link  301 at Tue Nov 22 19:14:02 2022, MaxMem= 16106127360 cpu:               2.7 elap:               0.1
 (Enter /opt/ap/G16/B01/g16/l302.exe)
 NPDir=0 NMtPBC=     1 NCelOv=     1 NCel=       1 NClECP=     1 NCelD=      1
         NCelK=      1 NCelE2=     1 NClLst=     1 CellRange=     0.0.
 One-electron integrals computed using PRISM.
 One-electron integral symmetry used in STVInt
 NBasis=   283 RedAO= T EigKep=  2.22D-06  NBF=   283
 NBsUse=   282 1.00D-06 EigRej=  8.14D-07 NBFU=   282
 Precomputing XC quadrature grid using
 IXCGrd= 4 IRadAn=           5 IRanWt=          -1 IRanGd=           0 AccXCQ= 0.00D+00.
 Generated NRdTot=       0 NPtTot=           0 NUsed=           0 NTot=          32
 NSgBfM=   293   293   293   293   293 MxSgAt=    19 MxSgA2=    19.
 Leave Link  302 at Tue Nov 22 19:14:02 2022, MaxMem= 16106127360 cpu:               8.7 elap:               0.3
 (Enter /opt/ap/G16/B01/g16/l303.exe)
 DipDrv:  MaxL=1.
 Leave Link  303 at Tue Nov 22 19:14:02 2022, MaxMem= 16106127360 cpu:               1.9 elap:               0.1
 (Enter /opt/ap/G16/B01/g16/l401.exe)
 ExpMin= 3.60D-02 ExpMax= 8.59D+03 ExpMxC= 1.30D+03 IAcc=3 IRadAn=         5 AccDes= 0.00D+00
 Harris functional with IExCor= 4639 and IRadAn=       5 diagonalized for initial guess.
 HarFok:  IExCor= 4639 AccDes= 0.00D+00 IRadAn=         5 IDoV= 1 UseB2=F ITyADJ=14
 ICtDFT=  3500011 ScaDFX=  1.000000  1.000000  1.000000  1.000000
 FoFCou: FMM=F IPFlag=           0 FMFlag=      100000 FMFlg1=           0
         NFxFlg=           0 DoJE=T BraDBF=F KetDBF=T FulRan=T
         wScrn=  0.000000 ICntrl=       500 IOpCl=  0 I1Cent=   200000004 NGrid=           0
         NMat0=    1 NMatS0=      1 NMatT0=    0 NMatD0=    1 NMtDS0=    0 NMtDT0=    0
 Petite list used in FoFCou.
 Harris En= -420.962799494463    
 JPrj=0 DoOrth=F DoCkMO=F.
 Leave Link  401 at Tue Nov 22 19:14:03 2022, MaxMem= 16106127360 cpu:              15.5 elap:               0.5
 (Enter /opt/ap/G16/B01/g16/l502.exe)
 Integral symmetry usage will be decided dynamically.
 Closed shell SCF:
 Using DIIS extrapolation, IDIIS=  1040.
 NGot= 16106127360 LenX= 16105943385 LenY= 16105857095
 Requested convergence on RMS density matrix=1.00D-08 within 512 cycles.
 Requested convergence on MAX density matrix=1.00D-06.
 Requested convergence on             energy=1.00D-06.
 No special actions if energy rises.
 Fock matrices will be formed incrementally for  20 cycles.

 Cycle   1  Pass 1  IDiag  1:
 FoFJK:  IHMeth= 1 ICntrl=       0 DoSepK=T KAlg= 0 I1Cent=           0 FoldK=F
 IRaf=         1 NMat=       1 IRICut=       1 DoRegI=T DoRafI=F ISym2E= 0 IDoP0=0 IntGTp=1.
 FoFCou: FMM=F IPFlag=           0 FMFlag=      100000 FMFlg1=           0
         NFxFlg=           0 DoJE=T BraDBF=F KetDBF=F FulRan=T
         wScrn=  0.000000 ICntrl=       500 IOpCl=  0 I1Cent=           0 NGrid=           0
         NMat0=    1 NMatS0=      1 NMatT0=    0 NMatD0=    1 NMtDS0=    0 NMtDT0=    0
 Symmetry not used in FoFCou.
 E= -439.945856997849    
 DIIS: error= 4.86D-02 at cycle   1 NSaved=   1.
 NSaved= 1 IEnMin= 1 EnMin= -439.945856997849     IErMin= 1 ErrMin= 4.86D-02
 ErrMax= 4.86D-02  0.00D+00 EMaxC= 1.00D-01 BMatC= 9.55D-01 BMatP= 9.55D-01
 IDIUse=3 WtCom= 5.14D-01 WtEn= 4.86D-01
 Coeff-Com:  0.100D+01
 Coeff-En:   0.100D+01
 Coeff:      0.100D+01
 Gap=     0.432 Goal=   None    Shift=    0.000
 GapD=    0.432 DampG=2.000 DampE=0.500 DampFc=1.0000 IDamp=-1.
 RMSDP=1.54D-02 MaxDP=1.50D+00              OVMax= 1.71D-01

 Cycle   2  Pass 1  IDiag  1:
 RMSU=  6.81D-03    CP:  6.65D-01
 E= -440.030743522294     Delta-E=       -0.084886524445 Rises=F Damp=F
 DIIS: error= 1.17D-02 at cycle   2 NSaved=   2.
 NSaved= 2 IEnMin= 2 EnMin= -440.030743522294     IErMin= 2 ErrMin= 1.17D-02
 ErrMax= 1.17D-02  0.00D+00 EMaxC= 1.00D-01 BMatC= 9.08D-02 BMatP= 9.55D-01
 IDIUse=3 WtCom= 8.83D-01 WtEn= 1.17D-01
 Coeff-Com:  0.167D+00 0.833D+00
 Coeff-En:   0.240D+00 0.760D+00
 Coeff:      0.175D+00 0.825D+00
 Gap=     0.399 Goal=   None    Shift=    0.000
 RMSDP=4.61D-03 MaxDP=1.75D-01 DE=-8.49D-02 OVMax= 1.29D-01

 Cycle   3  Pass 1  IDiag  1:
 RMSU=  3.90D-03    CP:  6.57D-01  6.43D-01
 E= -440.076660027117     Delta-E=       -0.045916504823 Rises=F Damp=F
 DIIS: error= 1.01D-02 at cycle   3 NSaved=   3.
 NSaved= 3 IEnMin= 3 EnMin= -440.076660027117     IErMin= 3 ErrMin= 1.01D-02
 ErrMax= 1.01D-02  0.00D+00 EMaxC= 1.00D-01 BMatC= 3.73D-02 BMatP= 9.08D-02
 IDIUse=3 WtCom= 8.99D-01 WtEn= 1.01D-01
 Coeff-Com:  0.240D-01 0.395D+00 0.581D+00
 Coeff-En:   0.000D+00 0.286D+00 0.714D+00
 Coeff:      0.216D-01 0.384D+00 0.594D+00
 Gap=     0.356 Goal=   None    Shift=    0.000
 RMSDP=3.07D-03 MaxDP=2.43D-01 DE=-4.59D-02 OVMax= 7.42D-02

 Cycle   4  Pass 1  IDiag  1:
 RMSU=  1.26D-03    CP:  6.10D-01  8.34D-01  6.00D-01
 E= -440.110258397505     Delta-E=       -0.033598370388 Rises=F Damp=F
 DIIS: error= 2.70D-03 at cycle   4 NSaved=   4.
 NSaved= 4 IEnMin= 4 EnMin= -440.110258397505     IErMin= 4 ErrMin= 2.70D-03
 ErrMax= 2.70D-03  0.00D+00 EMaxC= 1.00D-01 BMatC= 9.45D-04 BMatP= 3.73D-02
 IDIUse=3 WtCom= 9.73D-01 WtEn= 2.70D-02
 Coeff-Com:  0.790D-02 0.158D+00 0.271D+00 0.563D+00
 Coeff-En:   0.000D+00 0.000D+00 0.000D+00 0.100D+01
 Coeff:      0.769D-02 0.154D+00 0.264D+00 0.575D+00
 Gap=     0.318 Goal=   None    Shift=    0.000
 RMSDP=3.01D-04 MaxDP=1.21D-02 DE=-3.36D-02 OVMax= 8.82D-03

 Cycle   5  Pass 1  IDiag  1:
 RMSU=  1.82D-04    CP:  6.11D-01  8.27D-01  6.45D-01  8.85D-01
 E= -440.111082077697     Delta-E=       -0.000823680192 Rises=F Damp=F
 DIIS: error= 3.74D-04 at cycle   5 NSaved=   5.
 NSaved= 5 IEnMin= 5 EnMin= -440.111082077697     IErMin= 5 ErrMin= 3.74D-04
 ErrMax= 3.74D-04  0.00D+00 EMaxC= 1.00D-01 BMatC= 2.91D-05 BMatP= 9.45D-04
 IDIUse=3 WtCom= 9.96D-01 WtEn= 3.74D-03
 Coeff-Com: -0.966D-03-0.155D-01-0.127D-01 0.110D+00 0.920D+00
 Coeff-En:   0.000D+00 0.000D+00 0.000D+00 0.000D+00 0.100D+01
 Coeff:     -0.962D-03-0.155D-01-0.127D-01 0.109D+00 0.920D+00
 Gap=     0.320 Goal=   None    Shift=    0.000
 RMSDP=1.44D-04 MaxDP=6.41D-03 DE=-8.24D-04 OVMax= 4.04D-03

 Cycle   6  Pass 1  IDiag  1:
 RMSU=  8.20D-05    CP:  6.09D-01  8.28D-01  6.51D-01  9.55D-01  1.12D+00
 E= -440.111116979451     Delta-E=       -0.000034901754 Rises=F Damp=F
 DIIS: error= 2.30D-04 at cycle   6 NSaved=   6.
 NSaved= 6 IEnMin= 6 EnMin= -440.111116979451     IErMin= 6 ErrMin= 2.30D-04
 ErrMax= 2.30D-04  0.00D+00 EMaxC= 1.00D-01 BMatC= 1.42D-05 BMatP= 2.91D-05
 IDIUse=3 WtCom= 9.98D-01 WtEn= 2.30D-03
 Coeff-Com: -0.124D-02-0.215D-01-0.277D-01 0.173D-01 0.527D+00 0.506D+00
 Coeff-En:   0.000D+00 0.000D+00 0.000D+00 0.000D+00 0.000D+00 0.100D+01
 Coeff:     -0.124D-02-0.214D-01-0.276D-01 0.173D-01 0.525D+00 0.508D+00
 Gap=     0.320 Goal=   None    Shift=    0.000
 RMSDP=3.72D-05 MaxDP=1.82D-03 DE=-3.49D-05 OVMax= 7.56D-04

 Cycle   7  Pass 1  IDiag  1:
 RMSU=  2.09D-05    CP:  6.09D-01  8.27D-01  6.52D-01  9.66D-01  1.21D+00
                    CP:  1.04D+00
 E= -440.111128771247     Delta-E=       -0.000011791796 Rises=F Damp=F
 DIIS: error= 6.40D-05 at cycle   7 NSaved=   7.
 NSaved= 7 IEnMin= 7 EnMin= -440.111128771247     IErMin= 7 ErrMin= 6.40D-05
 ErrMax= 6.40D-05  0.00D+00 EMaxC= 1.00D-01 BMatC= 6.33D-07 BMatP= 1.42D-05
 IDIUse=1 WtCom= 1.00D+00 WtEn= 0.00D+00
 Coeff-Com: -0.262D-03-0.506D-02-0.658D-02-0.129D-01 0.231D-01 0.128D+00
 Coeff-Com:  0.873D+00
 Coeff:     -0.262D-03-0.506D-02-0.658D-02-0.129D-01 0.231D-01 0.128D+00
 Coeff:      0.873D+00
 Gap=     0.320 Goal=   None    Shift=    0.000
 RMSDP=1.89D-05 MaxDP=1.38D-03 DE=-1.18D-05 OVMax= 6.39D-04

 Cycle   8  Pass 1  IDiag  1:
 RMSU=  8.59D-06    CP:  6.09D-01  8.27D-01  6.54D-01  9.69D-01  1.26D+00
                    CP:  1.16D+00  1.14D+00
 E= -440.111130032162     Delta-E=       -0.000001260916 Rises=F Damp=F
 DIIS: error= 2.17D-05 at cycle   8 NSaved=   8.
 NSaved= 8 IEnMin= 8 EnMin= -440.111130032162     IErMin= 8 ErrMin= 2.17D-05
 ErrMax= 2.17D-05  0.00D+00 EMaxC= 1.00D-01 BMatC= 2.21D-07 BMatP= 6.33D-07
 IDIUse=1 WtCom= 1.00D+00 WtEn= 0.00D+00
 Coeff-Com:  0.885D-04 0.120D-02 0.166D-02-0.107D-01-0.901D-01-0.448D-01
 Coeff-Com:  0.430D+00 0.713D+00
 Coeff:      0.885D-04 0.120D-02 0.166D-02-0.107D-01-0.901D-01-0.448D-01
 Coeff:      0.430D+00 0.713D+00
 Gap=     0.320 Goal=   None    Shift=    0.000
 RMSDP=1.01D-05 MaxDP=7.62D-04 DE=-1.26D-06 OVMax= 3.63D-04

 Cycle   9  Pass 1  IDiag  1:
 RMSU=  3.56D-06    CP:  6.09D-01  8.26D-01  6.55D-01  9.69D-01  1.28D+00
                    CP:  1.23D+00  1.30D+00  1.19D+00
 E= -440.111130345102     Delta-E=       -0.000000312940 Rises=F Damp=F
 DIIS: error= 1.34D-05 at cycle   9 NSaved=   9.
 NSaved= 9 IEnMin= 9 EnMin= -440.111130345102     IErMin= 9 ErrMin= 1.34D-05
 ErrMax= 1.34D-05  0.00D+00 EMaxC= 1.00D-01 BMatC= 1.06D-08 BMatP= 2.21D-07
 IDIUse=1 WtCom= 1.00D+00 WtEn= 0.00D+00
 Coeff-Com:  0.559D-04 0.935D-03 0.138D-02-0.813D-03-0.237D-01-0.283D-01
 Coeff-Com:  0.123D-01 0.164D+00 0.875D+00
 Coeff:      0.559D-04 0.935D-03 0.138D-02-0.813D-03-0.237D-01-0.283D-01
 Coeff:      0.123D-01 0.164D+00 0.875D+00
 Gap=     0.320 Goal=   None    Shift=    0.000
 RMSDP=5.07D-06 MaxDP=4.21D-04 DE=-3.13D-07 OVMax= 1.07D-04

 Cycle  10  Pass 1  IDiag  1:
 RMSU=  1.36D-06    CP:  6.09D-01  8.26D-01  6.55D-01  9.67D-01  1.28D+00
                    CP:  1.24D+00  1.33D+00  1.31D+00  1.35D+00
 E= -440.111130371015     Delta-E=       -0.000000025913 Rises=F Damp=F
 DIIS: error= 2.60D-06 at cycle  10 NSaved=  10.
 NSaved=10 IEnMin=10 EnMin= -440.111130371015     IErMin=10 ErrMin= 2.60D-06
 ErrMax= 2.60D-06  0.00D+00 EMaxC= 1.00D-01 BMatC= 1.18D-09 BMatP= 1.06D-08
 IDIUse=1 WtCom= 1.00D+00 WtEn= 0.00D+00
 Coeff-Com:  0.609D-06 0.684D-04 0.151D-03 0.128D-02 0.659D-02-0.418D-04
 Coeff-Com: -0.487D-01-0.665D-01 0.146D+00 0.961D+00
 Coeff:      0.609D-06 0.684D-04 0.151D-03 0.128D-02 0.659D-02-0.418D-04
 Coeff:     -0.487D-01-0.665D-01 0.146D+00 0.961D+00
 Gap=     0.320 Goal=   None    Shift=    0.000
 RMSDP=1.37D-06 MaxDP=5.08D-05 DE=-2.59D-08 OVMax= 5.06D-05

 Cycle  11  Pass 1  IDiag  1:
 RMSU=  4.83D-07    CP:  6.09D-01  8.26D-01  6.55D-01  9.66D-01  1.28D+00
                    CP:  1.24D+00  1.34D+00  1.36D+00  1.50D+00  1.14D+00
 E= -440.111130374960     Delta-E=       -0.000000003945 Rises=F Damp=F
 DIIS: error= 1.14D-06 at cycle  11 NSaved=  11.
 NSaved=11 IEnMin=11 EnMin= -440.111130374960     IErMin=11 ErrMin= 1.14D-06
 ErrMax= 1.14D-06  0.00D+00 EMaxC= 1.00D-01 BMatC= 1.50D-10 BMatP= 1.18D-09
 IDIUse=1 WtCom= 1.00D+00 WtEn= 0.00D+00
 Coeff-Com: -0.456D-05-0.739D-04-0.871D-04 0.354D-03 0.335D-02 0.302D-02
 Coeff-Com: -0.964D-02-0.285D-01-0.714D-01 0.156D+00 0.947D+00
 Coeff:     -0.456D-05-0.739D-04-0.871D-04 0.354D-03 0.335D-02 0.302D-02
 Coeff:     -0.964D-02-0.285D-01-0.714D-01 0.156D+00 0.947D+00
 Gap=     0.320 Goal=   None    Shift=    0.000
 RMSDP=3.63D-07 MaxDP=1.44D-05 DE=-3.95D-09 OVMax= 1.51D-05

 Cycle  12  Pass 1  IDiag  1:
 RMSU=  1.36D-07    CP:  6.09D-01  8.26D-01  6.55D-01  9.66D-01  1.28D+00
                    CP:  1.24D+00  1.34D+00  1.37D+00  1.54D+00  1.23D+00
                    CP:  1.33D+00
 E= -440.111130375415     Delta-E=       -0.000000000455 Rises=F Damp=F
 DIIS: error= 3.20D-07 at cycle  12 NSaved=  12.
 NSaved=12 IEnMin=12 EnMin= -440.111130375415     IErMin=12 ErrMin= 3.20D-07
 ErrMax= 3.20D-07  0.00D+00 EMaxC= 1.00D-01 BMatC= 2.15D-11 BMatP= 1.50D-10
 IDIUse=1 WtCom= 1.00D+00 WtEn= 0.00D+00
 Coeff-Com: -0.853D-06-0.224D-04-0.321D-04-0.894D-04-0.405D-03 0.800D-03
 Coeff-Com:  0.455D-02 0.447D-02-0.331D-01-0.878D-01 0.205D+00 0.906D+00
 Coeff:     -0.853D-06-0.224D-04-0.321D-04-0.894D-04-0.405D-03 0.800D-03
 Coeff:      0.455D-02 0.447D-02-0.331D-01-0.878D-01 0.205D+00 0.906D+00
 Gap=     0.320 Goal=   None    Shift=    0.000
 RMSDP=1.78D-07 MaxDP=1.42D-05 DE=-4.55D-10 OVMax= 5.82D-06

 Cycle  13  Pass 1  IDiag  1:
 RMSU=  7.08D-08    CP:  6.09D-01  8.26D-01  6.55D-01  9.66D-01  1.28D+00
                    CP:  1.24D+00  1.34D+00  1.37D+00  1.54D+00  1.26D+00
                    CP:  1.45D+00  1.25D+00
 E= -440.111130375475     Delta-E=       -0.000000000060 Rises=F Damp=F
 DIIS: error= 1.40D-07 at cycle  13 NSaved=  13.
 NSaved=13 IEnMin=13 EnMin= -440.111130375475     IErMin=13 ErrMin= 1.40D-07
 ErrMax= 1.40D-07  0.00D+00 EMaxC= 1.00D-01 BMatC= 3.34D-12 BMatP= 2.15D-11
 IDIUse=1 WtCom= 1.00D+00 WtEn= 0.00D+00
 Coeff-Com:  0.226D-06 0.170D-05 0.444D-06-0.613D-04-0.519D-03-0.541D-04
 Coeff-Com:  0.221D-02 0.468D-02-0.128D-02-0.432D-01-0.671D-01 0.262D+00
 Coeff-Com:  0.843D+00
 Coeff:      0.226D-06 0.170D-05 0.444D-06-0.613D-04-0.519D-03-0.541D-04
 Coeff:      0.221D-02 0.468D-02-0.128D-02-0.432D-01-0.671D-01 0.262D+00
 Coeff:      0.843D+00
 Gap=     0.320 Goal=   None    Shift=    0.000
 RMSDP=7.12D-08 MaxDP=5.37D-06 DE=-5.96D-11 OVMax= 2.35D-06

 Cycle  14  Pass 1  IDiag  1:
 RMSU=  2.23D-08    CP:  6.09D-01  8.26D-01  6.55D-01  9.66D-01  1.28D+00
                    CP:  1.24D+00  1.34D+00  1.37D+00  1.54D+00  1.26D+00
                    CP:  1.50D+00  1.40D+00  1.29D+00
 E= -440.111130375487     Delta-E=       -0.000000000013 Rises=F Damp=F
 DIIS: error= 5.57D-08 at cycle  14 NSaved=  14.
 NSaved=14 IEnMin=14 EnMin= -440.111130375487     IErMin=14 ErrMin= 5.57D-08
 ErrMax= 5.57D-08  0.00D+00 EMaxC= 1.00D-01 BMatC= 2.98D-13 BMatP= 3.34D-12
 IDIUse=1 WtCom= 1.00D+00 WtEn= 0.00D+00
 Coeff-Com:  0.891D-07 0.209D-05 0.258D-05 0.376D-05-0.157D-04-0.678D-04
 Coeff-Com: -0.310D-03 0.769D-04 0.311D-02 0.476D-02-0.348D-01-0.647D-01
 Coeff-Com:  0.135D+00 0.957D+00
 Coeff:      0.891D-07 0.209D-05 0.258D-05 0.376D-05-0.157D-04-0.678D-04
 Coeff:     -0.310D-03 0.769D-04 0.311D-02 0.476D-02-0.348D-01-0.647D-01
 Coeff:      0.135D+00 0.957D+00
 Gap=     0.320 Goal=   None    Shift=    0.000
 RMSDP=3.01D-08 MaxDP=1.29D-06 DE=-1.26D-11 OVMax= 1.01D-06

 Cycle  15  Pass 1  IDiag  1:
 RMSU=  7.59D-09    CP:  6.09D-01  8.26D-01  6.55D-01  9.66D-01  1.28D+00
                    CP:  1.24D+00  1.34D+00  1.36D+00  1.54D+00  1.25D+00
                    CP:  1.51D+00  1.43D+00  1.47D+00  1.34D+00
 E= -440.111130375486     Delta-E=        0.000000000001 Rises=F Damp=F
 DIIS: error= 2.54D-08 at cycle  15 NSaved=  15.
 NSaved=15 IEnMin=14 EnMin= -440.111130375487     IErMin=15 ErrMin= 2.54D-08
 ErrMax= 2.54D-08  0.00D+00 EMaxC= 1.00D-01 BMatC= 5.08D-14 BMatP= 2.98D-13
 IDIUse=1 WtCom= 1.00D+00 WtEn= 0.00D+00
 Coeff-Com: -0.950D-08 0.288D-06 0.650D-06 0.102D-04 0.643D-04-0.404D-06
 Coeff-Com: -0.371D-03-0.533D-03 0.774D-03 0.737D-02 0.336D-02-0.500D-01
 Coeff-Com: -0.915D-01 0.179D+00 0.952D+00
 Coeff:     -0.950D-08 0.288D-06 0.650D-06 0.102D-04 0.643D-04-0.404D-06
 Coeff:     -0.371D-03-0.533D-03 0.774D-03 0.737D-02 0.336D-02-0.500D-01
 Coeff:     -0.915D-01 0.179D+00 0.952D+00
 Gap=     0.320 Goal=   None    Shift=    0.000
 RMSDP=1.08D-08 MaxDP=3.98D-07 DE= 7.96D-13 OVMax= 4.20D-07

 Cycle  16  Pass 1  IDiag  1:
 RMSU=  3.07D-09    CP:  6.09D-01  8.26D-01  6.55D-01  9.66D-01  1.28D+00
                    CP:  1.24D+00  1.34D+00  1.36D+00  1.54D+00  1.25D+00
                    CP:  1.50D+00  1.45D+00  1.56D+00  1.52D+00  1.35D+00
 E= -440.111130375484     Delta-E=        0.000000000002 Rises=F Damp=F
 DIIS: error= 8.13D-09 at cycle  16 NSaved=  16.
 NSaved=16 IEnMin=14 EnMin= -440.111130375487     IErMin=16 ErrMin= 8.13D-09
 ErrMax= 8.13D-09  0.00D+00 EMaxC= 1.00D-01 BMatC= 6.69D-15 BMatP= 5.08D-14
 IDIUse=1 WtCom= 1.00D+00 WtEn= 0.00D+00
 Coeff-Com: -0.118D-07-0.199D-06-0.193D-06 0.205D-05 0.149D-04 0.675D-05
 Coeff-Com: -0.413D-04-0.946D-04-0.300D-03 0.692D-03 0.476D-02-0.311D-02
 Coeff-Com: -0.355D-01-0.907D-01 0.177D+00 0.947D+00
 Coeff:     -0.118D-07-0.199D-06-0.193D-06 0.205D-05 0.149D-04 0.675D-05
 Coeff:     -0.413D-04-0.946D-04-0.300D-03 0.692D-03 0.476D-02-0.311D-02
 Coeff:     -0.355D-01-0.907D-01 0.177D+00 0.947D+00
 Gap=     0.320 Goal=   None    Shift=    0.000
 RMSDP=3.83D-09 MaxDP=1.97D-07 DE= 2.27D-12 OVMax= 1.79D-07

 SCF Done:  E(RwB97XD) =  -440.111130375     A.U. after   16 cycles
            NFock= 16  Conv=0.38D-08     -V/T= 2.0001
 KE= 4.400472726105D+02 PE=-2.007722858307D+03 EE= 6.368314533244D+02
 Leave Link  502 at Tue Nov 22 19:14:23 2022, MaxMem= 16106127360 cpu:             626.9 elap:              19.6
 (Enter /opt/ap/G16/B01/g16/l601.exe)
 Copying SCF densities to generalized density rwf, IOpCl= 0 IROHF=0.

 **********************************************************************

            Population analysis using the SCF Density.

 **********************************************************************

 Orbital symmetries:
       Occupied  (A) (A) (A) (A) (A) (A) (A) (A) (A) (A) (A) (A)
                 (A) (A) (A) (A) (A) (A) (A) (A) (A) (A) (A) (A)
                 (A) (A) (A) (A) (A) (A) (A) (A) (A) (A) (A) (A)
       Virtual   (A) (A) (A) (A) (A) (A) (A) (A) (A) (A) (A) (A)
                 (A) (A) (A) (A) (A) (A) (A) (A) (A) (A) (A) (A)
                 (A) (A) (A) (A) (A) (A) (A) (A) (A) (A) (A) (A)
                 (A) (A) (A) (A) (A) (A) (A) (A) (A) (A) (A) (A)
                 (A) (A) (A) (A) (A) (A) (A) (A) (A) (A) (A) (A)
                 (A) (A) (A) (A) (A) (A) (A) (A) (A) (A) (A) (A)
                 (A) (A) (A) (A) (A) (A) (A) (A) (A) (A) (A) (A)
                 (A) (A) (A) (A) (A) (A) (A) (A) (A) (A) (A) (A)
                 (A) (A) (A) (A) (A) (A) (A) (A) (A) (A) (A) (A)
                 (A) (A) (A) (A) (A) (A) (A) (A) (A) (A) (A) (A)
                 (A) (A) (A) (A) (A) (A) (A) (A) (A) (A) (A) (A)
                 (A) (A) (A) (A) (A) (A) (A) (A) (A) (A) (A) (A)
                 (A) (A) (A) (A) (A) (A) (A) (A) (A) (A) (A) (A)
                 (A) (A) (A) (A) (A) (A) (A) (A) (A) (A) (A) (A)
                 (A) (A) (A) (A) (A) (A) (A) (A) (A) (A) (A) (A)
                 (A) (A) (A) (A) (A) (A) (A) (A) (A) (A) (A) (A)
                 (A) (A) (A) (A) (A) (A) (A) (A) (A) (A) (A) (A)
                 (A) (A) (A) (A) (A) (A) (A) (A) (A) (A) (A) (A)
                 (A) (A) (A) (A) (A) (A) (A) (A) (A) (A) (A) (A)
                 (A) (A) (A) (A) (A) (A) (A) (A) (A) (A) (A) (A)
                 (A) (A) (A) (A) (A) (A)
 The electronic state is 1-A.
 Alpha  occ. eigenvalues --  -19.24559 -14.44478 -10.41224 -10.34254 -10.28092
 Alpha  occ. eigenvalues --  -10.27995 -10.27502 -10.27439 -10.26952 -10.26158
 Alpha  occ. eigenvalues --   -1.15965  -1.06044  -0.96111  -0.88301  -0.86457
 Alpha  occ. eigenvalues --   -0.84939  -0.74852  -0.72933  -0.69091  -0.65587
 Alpha  occ. eigenvalues --   -0.61301  -0.59301  -0.56110  -0.55563  -0.54215
 Alpha  occ. eigenvalues --   -0.53354  -0.52886  -0.51353  -0.47572  -0.45967
 Alpha  occ. eigenvalues --   -0.44620  -0.44476  -0.39647  -0.36141  -0.33606
 Alpha  occ. eigenvalues --   -0.29143
 Alpha virt. eigenvalues --    0.02850   0.03698   0.04693   0.04865   0.05090
 Alpha virt. eigenvalues --    0.06266   0.06396   0.06863   0.07474   0.08656
 Alpha virt. eigenvalues --    0.09005   0.11082   0.11904   0.12335   0.13129
 Alpha virt. eigenvalues --    0.13904   0.14546   0.15405   0.15998   0.16750
 Alpha virt. eigenvalues --    0.17052   0.17140   0.17724   0.18351   0.18454
 Alpha virt. eigenvalues --    0.18648   0.19456   0.19657   0.20245   0.20490
 Alpha virt. eigenvalues --    0.20934   0.21280   0.22509   0.22719   0.23807
 Alpha virt. eigenvalues --    0.24635   0.24867   0.25339   0.26183   0.26971
 Alpha virt. eigenvalues --    0.27707   0.28132   0.28980   0.29365   0.29880
 Alpha virt. eigenvalues --    0.30861   0.31744   0.31883   0.34212   0.34740
 Alpha virt. eigenvalues --    0.34846   0.35766   0.36527   0.37509   0.37862
 Alpha virt. eigenvalues --    0.39041   0.39375   0.40126   0.40721   0.41485
 Alpha virt. eigenvalues --    0.42221   0.42601   0.43147   0.44433   0.45676
 Alpha virt. eigenvalues --    0.46676   0.47168   0.50203   0.53120   0.55895
 Alpha virt. eigenvalues --    0.58079   0.59690   0.60224   0.62026   0.62979
 Alpha virt. eigenvalues --    0.63791   0.64921   0.65700   0.65787   0.66907
 Alpha virt. eigenvalues --    0.67973   0.69384   0.70723   0.71075   0.72121
 Alpha virt. eigenvalues --    0.74424   0.76312   0.76958   0.77831   0.78180
 Alpha virt. eigenvalues --    0.80974   0.82538   0.83075   0.83849   0.84709
 Alpha virt. eigenvalues --    0.86559   0.89394   0.90068   0.92587   0.92707
 Alpha virt. eigenvalues --    0.94661   0.95001   0.96151   0.96698   0.97903
 Alpha virt. eigenvalues --    0.98769   0.99949   1.01511   1.02701   1.05348
 Alpha virt. eigenvalues --    1.07291   1.08522   1.11688   1.13167   1.13723
 Alpha virt. eigenvalues --    1.16580   1.17129   1.18383   1.22249   1.23316
 Alpha virt. eigenvalues --    1.26169   1.28553   1.32021   1.33803   1.37413
 Alpha virt. eigenvalues --    1.40785   1.45096   1.47951   1.55096   1.56161
 Alpha virt. eigenvalues --    1.59639   1.61605   1.62340   1.62860   1.64078
 Alpha virt. eigenvalues --    1.65528   1.67555   1.67909   1.68811   1.70555
 Alpha virt. eigenvalues --    1.72611   1.72910   1.75286   1.76465   1.78767
 Alpha virt. eigenvalues --    1.79516   1.83494   1.84914   1.88984   1.90230
 Alpha virt. eigenvalues --    1.93029   1.95376   1.96585   1.97349   1.98871
 Alpha virt. eigenvalues --    2.01253   2.01913   2.04759   2.05719   2.07118
 Alpha virt. eigenvalues --    2.08345   2.10385   2.14011   2.14912   2.16631
 Alpha virt. eigenvalues --    2.24092   2.25382   2.26764   2.29327   2.36810
 Alpha virt. eigenvalues --    2.39694   2.43129   2.48560   2.49236   2.51959
 Alpha virt. eigenvalues --    2.54409   2.56878   2.58413   2.61895   2.63760
 Alpha virt. eigenvalues --    2.65077   2.69384   2.72023   2.74895   2.75393
 Alpha virt. eigenvalues --    2.78966   2.81715   2.82200   2.83159   2.84839
 Alpha virt. eigenvalues --    2.86198   2.89791   2.91048   2.91899   2.93255
 Alpha virt. eigenvalues --    2.94664   2.94880   2.95913   2.99501   3.01725
 Alpha virt. eigenvalues --    3.02735   3.04783   3.07799   3.10026   3.15749
 Alpha virt. eigenvalues --    3.19694   3.21370   3.24084   3.26729   3.30874
 Alpha virt. eigenvalues --    3.41063   3.43807   3.48235   3.50483   3.53221
 Alpha virt. eigenvalues --    3.59888   3.63682   3.69347   3.72247   3.90886
 Alpha virt. eigenvalues --    3.97359   4.05157   4.10907   4.12663   4.22133
 Alpha virt. eigenvalues --    4.31037   4.34877   4.37989   4.39996   4.44899
 Alpha virt. eigenvalues --    4.96282   5.13952   5.17957   5.25443   5.31336
 Alpha virt. eigenvalues --    5.84359  23.87567  23.98845  24.14710  24.23022
 Alpha virt. eigenvalues --   24.30738  24.33580  24.37870  24.43057  35.89341
 Alpha virt. eigenvalues --   50.10734
          Condensed to atoms (all electrons):
               1          2          3          4          5          6
     1  C    7.669778  -0.378933  -0.216508  -0.546004  -0.116809  -0.188246
     2  C   -0.378933   9.715173  -3.516661  -0.691959   0.683598   0.121531
     3  C   -0.216508  -3.516661   9.516911   1.014136  -0.129040  -0.206212
     4  C   -0.546004  -0.691959   1.014136   6.197056  -0.130790  -0.011112
     5  H   -0.116809   0.683598  -0.129040  -0.130790   0.521578  -0.022089
     6  N   -0.188246   0.121531  -0.206212  -0.011112  -0.022089   7.403836
     7  C   -0.185108   0.547539  -0.226461  -0.349262   0.035261  -0.023903
     8  H   -0.123276  -0.067649   0.557716   0.037688  -0.005649   0.002114
     9  C   -0.020697  -0.351062  -0.337441   0.580644  -0.002187   0.045595
    10  H    0.024666  -0.065452   0.030484   0.405825  -0.014591  -0.002818
    11  C    0.154718  -0.168516  -0.013332  -0.200192   0.018668  -0.157973
    12  H    0.017153  -0.019815   0.022331  -0.007014   0.002354   0.365876
    13  H    0.046556   0.060309  -0.154093  -0.028622   0.002279  -0.006103
    14  H    0.011363  -0.026019  -0.007908  -0.051420   0.000294   0.002013
    15  C   -0.107876  -0.040849   0.063764   0.058910  -0.010330  -0.139662
    16  O    0.154409  -0.228907   0.112725   0.008285  -0.012857  -0.138693
    17  H   -0.003534  -0.000720  -0.002370  -0.006515   0.000459  -0.001353
    18  H   -0.003675  -0.019095   0.020868   0.011211  -0.006109   0.008065
    19  H   -0.007526  -0.006244  -0.008281  -0.010421   0.001367   0.007114
               7          8          9         10         11         12
     1  C   -0.185108  -0.123276  -0.020697   0.024666   0.154718   0.017153
     2  C    0.547539  -0.067649  -0.351062  -0.065452  -0.168516  -0.019815
     3  C   -0.226461   0.557716  -0.337441   0.030484  -0.013332   0.022331
     4  C   -0.349262   0.037688   0.580644   0.405825  -0.200192  -0.007014
     5  H    0.035261  -0.005649  -0.002187  -0.014591   0.018668   0.002354
     6  N   -0.023903   0.002114   0.045595  -0.002818  -0.157973   0.365876
     7  C    5.503383  -0.072527   0.475022  -0.006037   0.077468   0.009100
     8  H   -0.072527   0.548204  -0.002740   0.001902  -0.002119  -0.001459
     9  C    0.475022  -0.002740   5.576111  -0.060599   0.002793  -0.004240
    10  H   -0.006037   0.001902  -0.060599   0.493676   0.000470   0.000079
    11  C    0.077468  -0.002119   0.002793   0.000470   6.175166  -0.022339
    12  H    0.009100  -0.001459  -0.004240   0.000079  -0.022339   0.357500
    13  H    0.452320  -0.020618  -0.042603  -0.000880   0.000006   0.001756
    14  H   -0.054990  -0.000518   0.480722  -0.011663   0.000001  -0.000334
    15  C   -0.029646   0.006007   0.017555  -0.000768  -0.142428  -0.029723
    16  O   -0.012030   0.000632   0.002780   0.000184   0.434646   0.001440
    17  H    0.002687  -0.000356  -0.000711   0.000125   0.023258   0.001562
    18  H   -0.002394   0.000687   0.000852  -0.000028  -0.090180  -0.003648
    19  H    0.003690  -0.000282   0.001551  -0.000282  -0.062567  -0.001213
              13         14         15         16         17         18
     1  C    0.046556   0.011363  -0.107876   0.154409  -0.003534  -0.003675
     2  C    0.060309  -0.026019  -0.040849  -0.228907  -0.000720  -0.019095
     3  C   -0.154093  -0.007908   0.063764   0.112725  -0.002370   0.020868
     4  C   -0.028622  -0.051420   0.058910   0.008285  -0.006515   0.011211
     5  H    0.002279   0.000294  -0.010330  -0.012857   0.000459  -0.006109
     6  N   -0.006103   0.002013  -0.139662  -0.138693  -0.001353   0.008065
     7  C    0.452320  -0.054990  -0.029646  -0.012030   0.002687  -0.002394
     8  H   -0.020618  -0.000518   0.006007   0.000632  -0.000356   0.000687
     9  C   -0.042603   0.480722   0.017555   0.002780  -0.000711   0.000852
    10  H   -0.000880  -0.011663  -0.000768   0.000184   0.000125  -0.000028
    11  C    0.000006   0.000001  -0.142428   0.434646   0.023258  -0.090180
    12  H    0.001756  -0.000334  -0.029723   0.001440   0.001562  -0.003648
    13  H    0.499522  -0.009942  -0.001225  -0.000197   0.000060  -0.000105
    14  H   -0.009942   0.498690   0.000598   0.000138  -0.000053   0.000055
    15  C   -0.001225   0.000598   5.546614  -0.042389   0.370573   0.467944
    16  O   -0.000197   0.000138  -0.042389   7.971323  -0.012353  -0.009199
    17  H    0.000060  -0.000053   0.370573  -0.012353   0.490680  -0.026026
    18  H   -0.000105   0.000055   0.467944  -0.009199  -0.026026   0.484463
    19  H   -0.000136   0.000062   0.438496   0.004196  -0.025780  -0.034781
              19
     1  C   -0.007526
     2  C   -0.006244
     3  C   -0.008281
     4  C   -0.010421
     5  H    0.001367
     6  N    0.007114
     7  C    0.003690
     8  H   -0.000282
     9  C    0.001551
    10  H   -0.000282
    11  C   -0.062567
    12  H   -0.001213
    13  H   -0.000136
    14  H    0.000062
    15  C    0.438496
    16  O    0.004196
    17  H   -0.025780
    18  H   -0.034781
    19  H    0.527832
 Mulliken charges:
               1
     1  C   -0.180451
     2  C    0.453729
     3  C   -0.520627
     4  C   -0.280444
     5  H    0.184593
     6  N   -0.057979
     7  C   -0.144112
     8  H    0.142245
     9  C   -0.361346
    10  H    0.205707
    11  C   -0.027548
    12  H    0.310634
    13  H    0.201718
    14  H    0.168913
    15  C   -0.425563
    16  O   -0.234133
    17  H    0.190367
    18  H    0.201094
    19  H    0.173205
 Sum of Mulliken charges =  -0.00000
 Mulliken charges with hydrogens summed into heavy atoms:
               1
     1  C   -0.180451
     2  C    0.638322
     3  C   -0.378382
     4  C   -0.074737
     6  N    0.252654
     7  C    0.057605
     9  C   -0.192433
    11  C   -0.027548
    15  C    0.139103
    16  O   -0.234133
 Electronic spatial extent (au):  <R**2>=           1645.6224
 Charge=             -0.0000 electrons
 Dipole moment (field-independent basis, Debye):
    X=             -0.0681    Y=             -1.3709    Z=             -2.8478  Tot=              3.1613
 Quadrupole moment (field-independent basis, Debye-Ang):
   XX=            -54.2512   YY=            -51.0423   ZZ=            -65.9257
   XY=             -2.7268   XZ=             -8.2919   YZ=             -1.3272
 Traceless Quadrupole moment (field-independent basis, Debye-Ang):
   XX=              2.8219   YY=              6.0308   ZZ=             -8.8526
   XY=             -2.7268   XZ=             -8.2919   YZ=             -1.3272
 Octapole moment (field-independent basis, Debye-Ang**2):
  XXX=              3.3114  YYY=             -4.6796  ZZZ=             -3.5922  XYY=              2.5989
  XXY=             -7.0283  XXZ=            -17.4589  XZZ=              3.8532  YZZ=             -1.6144
  YYZ=             -1.0120  XYZ=             -3.1374
 Hexadecapole moment (field-independent basis, Debye-Ang**3):
 XXXX=          -1561.8898 YYYY=           -301.9834 ZZZZ=           -188.4909 XXXY=            -15.1817
 XXXZ=            -58.0317 YYYX=             -6.3059 YYYZ=             -0.5095 ZZZX=            -12.0361
 ZZZY=              0.1720 XXYY=           -307.9145 XXZZ=           -347.3554 YYZZ=            -93.4753
 XXYZ=            -11.2761 YYXZ=             -2.2137 ZZXY=             -2.3397
 N-N= 4.907330019965D+02 E-N=-2.007722858561D+03  KE= 4.400472726105D+02
 No NMR shielding tensors so no spin-rotation constants.
 Leave Link  601 at Tue Nov 22 19:14:23 2022, MaxMem= 16106127360 cpu:               3.6 elap:               0.1
 (Enter /opt/ap/G16/B01/g16/l9999.exe)
 1\1\GINC-N40\SP\RwB97XD\6-311++G(d,p)\C8H9N1O1\ROOT\22-Nov-2022\0\\#P 
 wB97XD/6-311++G(d,p) scf=maxcycle=512\\_conf050.gjf nmol_natom 1_19\\0
 ,1\C\C,1,1.39447505\C,1,1.39873503,2,119.56697224\C,2,1.39066123,1,119
 .42697207,3,2.53915756,0\H,2,0.96213008,1,119.8046163,3,-177.79870417,
 0\N,1,1.41693372,2,123.72220125,4,-177.74604849,0\C,3,1.38667133,1,120
 .18759987,2,-2.5020857,0\H,3,0.95673174,1,118.82085988,2,177.96737168,
 0\C,4,1.38268572,2,121.03929493,1,-0.41221113,0\H,4,0.9858595,2,118.57
 91267,1,178.77373233,0\C,6,1.35500692,1,127.62132737,2,17.57862687,0\H
 ,6,0.89609466,1,115.10511997,2,-166.41127095,0\H,7,0.98847198,3,119.08
 117704,1,-179.64585354,0\H,9,0.98451201,4,120.53755637,2,177.22743544,
 0\C,11,1.50274561,6,115.46861532,1,-110.,0\O,11,1.23496495,6,123.15099
 888,1,70.,0\H,15,0.98719837,11,107.47091875,6,-116.36962839,0\H,15,0.9
 9976021,11,109.69443261,6,128.85346087,0\H,15,0.97696155,11,114.370088
 71,6,6.05302844,0\\Version=ES64L-G16RevB.01\State=1-A\HF=-440.1111304\
 RMSD=3.831e-09\Dipole=0.1355849,-1.1495311,-0.4551236\Quadrupole=1.536
 5565,-6.7562132,5.2196567,6.0952836,0.8903597,1.1955405\PG=C01 [X(C8H9
 N1O1)]\\@


 THE ENLIGHTENED ONE, BECAUSE HE SAW MANKIND DROWNING  
 IN THE GREAT SEA OF BIRTH, DEATH, AND SORROW, LONGED TO SAVE 
 THEM, FOR THIS HE WAS MOVED TO PITY.                         
 BECAUSE HE SAW MEN OF THE WORLD STRAYING IN FALSE PATHS, AND 
 NONE TO GUIDE THEM, FOR THIS HE WAS MOVED TO PITY.           
                     ..................                       
 BECAUSE HE SAW THE MEN OF THE WORLD PLOUGHING THEIR FIELDS,  
 SOWING THE SEED, TRAFFICKING, HUCKSTERING, BUYING, SELLING,  
 AND AT THE END WINNOWING NOTHING BUT BITTERNESS,             
 FOR THIS HE WAS MOVED TO PITY......                   
                   BUDAH'S PITY - UPSAKA SILA SUTRA           
 Job cpu time:       0 days  0 hours 11 minutes  8.2 seconds.
 Elapsed time:       0 days  0 hours  0 minutes 21.0 seconds.
 File lengths (MBytes):  RWF=     46 Int=      0 D2E=      0 Chk=      6 Scr=      1
 Normal termination of Gaussian 16 at Tue Nov 22 19:14:23 2022.
