 Entering Gaussian System, Link 0=g16
 Input=_conf045.gjf
 Output=_conf045.log
 Initial command:
 /opt/ap/G16/B01/g16/l1.exe "/tmp2/scr/Gau-7255.inp" -scrdir="/tmp2/scr/"
 Entering Link 1 = /opt/ap/G16/B01/g16/l1.exe PID=      7256.
  
 Copyright (c) 1988-2017, Gaussian, Inc.  All Rights Reserved.
  
 This is part of the Gaussian(R) 16 program.  It is based on
 the Gaussian(R) 09 system (copyright 2009, Gaussian, Inc.),
 the Gaussian(R) 03 system (copyright 2003, Gaussian, Inc.),
 the Gaussian(R) 98 system (copyright 1998, Gaussian, Inc.),
 the Gaussian(R) 94 system (copyright 1995, Gaussian, Inc.),
 the Gaussian 92(TM) system (copyright 1992, Gaussian, Inc.),
 the Gaussian 90(TM) system (copyright 1990, Gaussian, Inc.),
 the Gaussian 88(TM) system (copyright 1988, Gaussian, Inc.),
 the Gaussian 86(TM) system (copyright 1986, Carnegie Mellon
 University), and the Gaussian 82(TM) system (copyright 1983,
 Carnegie Mellon University). Gaussian is a federally registered
 trademark of Gaussian, Inc.
  
 This software contains proprietary and confidential information,
 including trade secrets, belonging to Gaussian, Inc.
  
 This software is provided under written license and may be
 used, copied, transmitted, or stored only in accord with that
 written license.
  
 The following legend is applicable only to US Government
 contracts under FAR:
  
                    RESTRICTED RIGHTS LEGEND
  
 Use, reproduction and disclosure by the US Government is
 subject to restrictions as set forth in subparagraphs (a)
 and (c) of the Commercial Computer Software - Restricted
 Rights clause in FAR 52.227-19.
  
 Gaussian, Inc.
 340 Quinnipiac St., Bldg. 40, Wallingford CT 06492
  
  
 ---------------------------------------------------------------
 Warning -- This program may not be used in any manner that
 competes with the business of Gaussian, Inc. or will provide
 assistance to any competitor of Gaussian, Inc.  The licensee
 of this program is prohibited from giving any competitor of
 Gaussian, Inc. access to this program.  By using this program,
 the user acknowledges that Gaussian, Inc. is engaged in the
 business of creating and licensing software in the field of
 computational chemistry and represents and warrants to the
 licensee that it is not a competitor of Gaussian, Inc. and that
 it will not use this program in any manner prohibited above.
 ---------------------------------------------------------------
  

 Cite this work as:
 Gaussian 16, Revision B.01,
 M. J. Frisch, G. W. Trucks, H. B. Schlegel, G. E. Scuseria, 
 M. A. Robb, J. R. Cheeseman, G. Scalmani, V. Barone, 
 G. A. Petersson, H. Nakatsuji, X. Li, M. Caricato, A. V. Marenich, 
 J. Bloino, B. G. Janesko, R. Gomperts, B. Mennucci, H. P. Hratchian, 
 J. V. Ortiz, A. F. Izmaylov, J. L. Sonnenberg, D. Williams-Young, 
 F. Ding, F. Lipparini, F. Egidi, J. Goings, B. Peng, A. Petrone, 
 T. Henderson, D. Ranasinghe, V. G. Zakrzewski, J. Gao, N. Rega, 
 G. Zheng, W. Liang, M. Hada, M. Ehara, K. Toyota, R. Fukuda, 
 J. Hasegawa, M. Ishida, T. Nakajima, Y. Honda, O. Kitao, H. Nakai, 
 T. Vreven, K. Throssell, J. A. Montgomery, Jr., J. E. Peralta, 
 F. Ogliaro, M. J. Bearpark, J. J. Heyd, E. N. Brothers, K. N. Kudin, 
 V. N. Staroverov, T. A. Keith, R. Kobayashi, J. Normand, 
 K. Raghavachari, A. P. Rendell, J. C. Burant, S. S. Iyengar, 
 J. Tomasi, M. Cossi, J. M. Millam, M. Klene, C. Adamo, R. Cammi, 
 J. W. Ochterski, R. L. Martin, K. Morokuma, O. Farkas, 
 J. B. Foresman, and D. J. Fox, Gaussian, Inc., Wallingford CT, 2016.
 
 ******************************************
 Gaussian 16:  ES64L-G16RevB.01 20-Dec-2017
                22-Nov-2022 
 ******************************************
 %nprocshared=32
 Will use up to   32 processors via shared memory.
 %mem=120GB
 %chk=_conf045.chk
 ----------------------------------------
 #P wB97XD/6-311++G(d,p) scf=maxcycle=512
 ----------------------------------------
 1/38=1,172=1/1;
 2/12=2,17=6,18=5,40=1/2;
 3/5=4,6=6,7=1111,11=2,25=1,30=1,74=-58/1,2,3;
 4//1;
 5/5=2,7=512,38=5/2;
 6/7=2,8=2,9=2,10=2,28=1/1;
 99/5=1,9=1/99;
 Leave Link    1 at Tue Nov 22 19:13:44 2022, MaxMem= 16106127360 cpu:               1.4 elap:               0.1
 (Enter /opt/ap/G16/B01/g16/l101.exe)
 ----------------------------
 _conf045.gjf nmol_natom 1_19
 ----------------------------
 Symbolic Z-matrix:
 Charge =  0 Multiplicity = 1
 C
 C                    1     1.39448 
 C                    1     1.39874  2     119.56697 
 C                    2     1.39066  1     119.42697  3     2.53916  0
 H                    2     0.96213  1     119.80462  3    -177.7987  0
 N                    1     1.41693  2     123.7222  4    -177.74605  0
 C                    3     1.38667  1     120.1876  2    -2.50209  0
 H                    3     0.95673  1     118.82086  2     177.96737  0
 C                    4     1.38269  2     121.03929  1    -0.41221  0
 H                    4     0.98586  2     118.57913  1     178.77373  0
 C                    6     1.35501  1     127.62133  2     17.57863  0
 H                    6     0.89609  1     115.10512  2    -166.41127  0
 H                    7     0.98847  3     119.08118  1    -179.64585  0
 H                    9     0.98451  4     120.53756  2     177.22744  0
 C                    11    1.50275  6     115.46862  1    -135.     0
 O                    11    1.23496  6     123.151  1     45.      0
 H                    15    0.9872   11    107.47092  6    -116.36963  0
 H                    15    0.99976  11    109.69443  6     128.85346  0
 H                    15    0.97696  11    114.37009  6     6.05303  0
 
 ITRead=  0  0  0  0  0  0  0  0  0  0  0  0  0  0  0  0  0  0  0
 MicOpt= -1 -1 -1 -1 -1 -1 -1 -1 -1 -1 -1 -1 -1 -1 -1 -1 -1 -1 -1
 NAtoms=     19 NQM=       19 NQMF=       0 NMMI=      0 NMMIF=      0
                NMic=       0 NMicF=      0.
                    Isotopes and Nuclear Properties:
 (Nuclear quadrupole moments (NQMom) in fm**2, nuclear magnetic moments (NMagM)
  in nuclear magnetons)

  Atom         1           2           3           4           5           6           7           8           9          10
 IAtWgt=          12          12          12          12           1          14          12           1          12           1
 AtmWgt=  12.0000000  12.0000000  12.0000000  12.0000000   1.0078250  14.0030740  12.0000000   1.0078250  12.0000000   1.0078250
 NucSpn=           0           0           0           0           1           2           0           1           0           1
 AtZEff=  -0.0000000  -0.0000000  -0.0000000  -0.0000000  -0.0000000  -0.0000000  -0.0000000  -0.0000000  -0.0000000  -0.0000000
 NQMom=    0.0000000   0.0000000   0.0000000   0.0000000   0.0000000   2.0440000   0.0000000   0.0000000   0.0000000   0.0000000
 NMagM=    0.0000000   0.0000000   0.0000000   0.0000000   2.7928460   0.4037610   0.0000000   2.7928460   0.0000000   2.7928460
 AtZNuc=   6.0000000   6.0000000   6.0000000   6.0000000   1.0000000   7.0000000   6.0000000   1.0000000   6.0000000   1.0000000

  Atom        11          12          13          14          15          16          17          18          19
 IAtWgt=          12           1           1           1          12          16           1           1           1
 AtmWgt=  12.0000000   1.0078250   1.0078250   1.0078250  12.0000000  15.9949146   1.0078250   1.0078250   1.0078250
 NucSpn=           0           1           1           1           0           0           1           1           1
 AtZEff=  -0.0000000  -0.0000000  -0.0000000  -0.0000000  -0.0000000  -0.0000000  -0.0000000  -0.0000000  -0.0000000
 NQMom=    0.0000000   0.0000000   0.0000000   0.0000000   0.0000000   0.0000000   0.0000000   0.0000000   0.0000000
 NMagM=    0.0000000   2.7928460   2.7928460   2.7928460   0.0000000   0.0000000   2.7928460   2.7928460   2.7928460
 AtZNuc=   6.0000000   1.0000000   1.0000000   1.0000000   6.0000000   8.0000000   1.0000000   1.0000000   1.0000000
 Leave Link  101 at Tue Nov 22 19:13:44 2022, MaxMem= 16106127360 cpu:               5.2 elap:               0.2
 (Enter /opt/ap/G16/B01/g16/l202.exe)
                          Input orientation:                          
 ---------------------------------------------------------------------
 Center     Atomic      Atomic             Coordinates (Angstroms)
 Number     Number       Type             X           Y           Z
 ---------------------------------------------------------------------
      1          6           0        0.000000    0.000000    0.000000
      2          6           0        0.000000    0.000000    1.394475
      3          6           0        1.216591    0.000000   -0.690193
      4          6           0        1.210053    0.053661    2.077726
      5          1           0       -0.834249   -0.032067    1.872696
      6          7           0       -1.178505   -0.005866   -0.786634
      7          6           0        2.413939    0.052326    0.007287
      8          1           0        1.204393   -0.029731   -1.646384
      9          6           0        2.412261    0.098442    1.396177
     10          1           0        1.194755    0.071528    3.063305
     11          6           0       -2.436085    0.312014   -0.394861
     12          1           0       -1.055905   -0.195907   -1.653721
     13          1           0        3.263999    0.056828   -0.497149
     14          1           0        3.262484    0.177260    1.886251
     15          6           0       -3.513308   -0.630184   -0.853225
     16          8           0       -2.698976    1.304032    0.292108
     17          1           0       -4.115454   -0.124202   -1.449852
     18          1           0       -4.071152   -0.909773   -0.072097
     19          1           0       -3.183297   -1.428135   -1.310195
 ---------------------------------------------------------------------
                    Distance matrix (angstroms):
                    1          2          3          4          5
     1  C    0.000000
     2  C    1.394475   0.000000
     3  C    1.398735   2.413697   0.000000
     4  C    2.405006   1.390661   2.768447   0.000000
     5  H    2.050363   0.962130   3.282586   2.056345   0.000000
     6  N    1.416934   2.479142   2.397044   3.730055   2.681648
     7  C    2.414517   2.784624   1.386671   2.395008   3.746678
     8  H    2.040105   3.270821   0.956732   3.725048   4.066939
     9  C    2.788908   2.414270   2.406711   1.382686   3.283889
    10  H    3.288829   2.053668   3.754243   0.985860   2.354812
    11  C    2.487525   3.038682   3.677855   4.413021   2.797515
    12  H    1.971829   3.231844   2.476087   4.372705   3.537173
    13  H    3.302132   3.772951   2.057273   3.293734   4.734944
    14  H    3.772687   3.304099   3.294718   2.065046   4.102100
    15  C    3.669940   4.218130   4.774480   5.600737   3.868559
    16  O    3.011694   3.193773   4.242297   4.475753   2.785791
    17  H    4.365141   5.004256   5.387319   6.390341   4.670558
    18  H    4.172189   4.421854   5.400922   5.782825   3.876871
    19  H    3.726870   4.414543   4.667225   5.742407   4.194976
                    6          7          8          9         10
     6  N    0.000000
     7  C    3.679585   0.000000
     8  H    2.533365   2.050454   0.000000
     9  C    4.203468   1.389657   3.276058   0.000000
    10  H    4.523316   3.290292   4.710788   2.064548   0.000000
    11  C    1.355007   4.873592   3.864736   5.172997   5.019935
    12  H    0.896095   3.854917   2.266411   4.627818   5.233291
    13  H    4.452366   0.988472   2.360129   2.076505   4.118108
    14  H    5.186544   2.065465   4.093666   0.984512   2.381625
    15  C    2.417750   6.028147   4.821447   6.379896   6.164209
    16  O    2.278455   5.271603   4.557738   5.366299   4.935559
    17  H    3.013226   6.692337   5.324314   7.124641   6.971744
    18  H    3.113683   6.556549   5.575323   6.723613   6.206728
    19  H    2.513196   5.937724   4.617400   6.400403   6.367404
                   11         12         13         14         15
    11  C    0.000000
    12  H    1.935874   0.000000
    13  H    5.706710   4.479186   0.000000
    14  H    6.139652   5.596351   2.386441   0.000000
    15  C    1.502746   2.620729   6.821339   7.353098   0.000000
    16  O    1.234965   2.955631   6.142924   6.272952   2.390840
    17  H    2.030657   3.067171   7.442898   8.102742   0.987198
    18  H    2.066491   3.478915   7.410764   7.668050   0.999760
    19  H    2.103397   2.482376   6.665867   7.371747   0.976962
                   16         17         18         19
    16  O    0.000000
    17  H    2.660956   0.000000
    18  H    2.629913   1.586598   0.000000
    19  H    3.204166   1.608931   1.609308   0.000000
 Stoichiometry    C8H9NO
 Framework group  C1[X(C8H9NO)]
 Deg. of freedom    51
 Full point group                 C1      NOp   1
 Largest Abelian subgroup         C1      NOp   1
 Largest concise Abelian subgroup C1      NOp   1
                         Standard orientation:                         
 ---------------------------------------------------------------------
 Center     Atomic      Atomic             Coordinates (Angstroms)
 Number     Number       Type             X           Y           Z
 ---------------------------------------------------------------------
      1          6           0       -0.294988   -0.311702   -0.038243
      2          6           0       -0.685398    1.000455   -0.303543
      3          6           0       -1.269675   -1.293646    0.167261
      4          6           0       -2.038041    1.323383   -0.307158
      5          1           0       -0.018584    1.672041   -0.476823
      6          7           0        1.056571   -0.730988    0.033795
      7          6           0       -2.614113   -0.954123    0.158858
      8          1           0       -0.990421   -2.195996    0.319302
      9          6           0       -3.001100    0.362447   -0.060297
     10          1           0       -2.299191    2.258531   -0.478091
     11          6           0        2.155870    0.044840    0.194038
     12          1           0        1.180610   -1.618349    0.020026
     13          1           0       -3.288914   -1.660203    0.311079
     14          1           0       -3.954090    0.606967   -0.024453
     15          6           0        3.313246   -0.280232   -0.707656
     16          8           0        2.221260    0.961224    1.019327
     17          1           0        4.061066   -0.576021   -0.135089
     18          1           0        3.628574    0.551406   -1.164239
     19          1           0        3.120074   -0.959780   -1.382455
 ---------------------------------------------------------------------
 Rotational constants (GHZ):           3.6124901           0.7751152           0.6900026
 Leave Link  202 at Tue Nov 22 19:13:44 2022, MaxMem= 16106127360 cpu:               0.3 elap:               0.0
 (Enter /opt/ap/G16/B01/g16/l301.exe)
 Standard basis: 6-311++G(d,p) (5D, 7F)
 Ernie: Thresh=  0.10000D-02 Tol=  0.10000D-05 Strict=F.
 There are   293 symmetry adapted cartesian basis functions of A   symmetry.
 There are   283 symmetry adapted basis functions of A   symmetry.
   283 basis functions,   441 primitive gaussians,   293 cartesian basis functions
    36 alpha electrons       36 beta electrons
       nuclear repulsion energy       490.9713662324 Hartrees.
 IExCor= 4639 DFT=T Ex+Corr=wB97XD ExCW=0 ScaHFX=  1.000000
 ScaDFX=  1.000000  1.000000  1.000000  1.000000 ScalE2=  1.000000  1.000000
 IRadAn=      5 IRanWt=     -1 IRanGd=            0 ICorTp=0 IEmpDi=121
 HFx  wShort=  0.000000 wLong=  0.200000 cFull=  0.222036 cShort=  0.000000 cLong=  0.777964
 DFx  wShort=  0.000000 wLong=  0.200000 cFull=  0.000000 cShort=  0.000000 cLong=  1.000000
 NAtoms=   19 NActive=   19 NUniq=   19 SFac= 1.00D+00 NAtFMM=   60 NAOKFM=F Big=F
 Integral buffers will be    131072 words long.
 Raffenetti 2 integral format.
 Two-electron integral symmetry is turned on.
 R6Disp:  Grimme-D2 Dispersion energy=       -0.0092782757 Hartrees.
 Nuclear repulsion after empirical dispersion term =      490.9620879567 Hartrees.
 Leave Link  301 at Tue Nov 22 19:13:44 2022, MaxMem= 16106127360 cpu:               1.2 elap:               0.0
 (Enter /opt/ap/G16/B01/g16/l302.exe)
 NPDir=0 NMtPBC=     1 NCelOv=     1 NCel=       1 NClECP=     1 NCelD=      1
         NCelK=      1 NCelE2=     1 NClLst=     1 CellRange=     0.0.
 One-electron integrals computed using PRISM.
 One-electron integral symmetry used in STVInt
 NBasis=   283 RedAO= T EigKep=  2.41D-06  NBF=   283
 NBsUse=   282 1.00D-06 EigRej=  8.60D-07 NBFU=   282
 Precomputing XC quadrature grid using
 IXCGrd= 4 IRadAn=           5 IRanWt=          -1 IRanGd=           0 AccXCQ= 0.00D+00.
 Generated NRdTot=       0 NPtTot=           0 NUsed=           0 NTot=          32
 NSgBfM=   293   293   293   293   293 MxSgAt=    19 MxSgA2=    19.
 Leave Link  302 at Tue Nov 22 19:13:44 2022, MaxMem= 16106127360 cpu:               6.3 elap:               0.2
 (Enter /opt/ap/G16/B01/g16/l303.exe)
 DipDrv:  MaxL=1.
 Leave Link  303 at Tue Nov 22 19:13:44 2022, MaxMem= 16106127360 cpu:               1.6 elap:               0.1
 (Enter /opt/ap/G16/B01/g16/l401.exe)
 ExpMin= 3.60D-02 ExpMax= 8.59D+03 ExpMxC= 1.30D+03 IAcc=3 IRadAn=         5 AccDes= 0.00D+00
 Harris functional with IExCor= 4639 and IRadAn=       5 diagonalized for initial guess.
 HarFok:  IExCor= 4639 AccDes= 0.00D+00 IRadAn=         5 IDoV= 1 UseB2=F ITyADJ=14
 ICtDFT=  3500011 ScaDFX=  1.000000  1.000000  1.000000  1.000000
 FoFCou: FMM=F IPFlag=           0 FMFlag=      100000 FMFlg1=           0
         NFxFlg=           0 DoJE=T BraDBF=F KetDBF=T FulRan=T
         wScrn=  0.000000 ICntrl=       500 IOpCl=  0 I1Cent=   200000004 NGrid=           0
         NMat0=    1 NMatS0=      1 NMatT0=    0 NMatD0=    1 NMtDS0=    0 NMtDT0=    0
 Petite list used in FoFCou.
 Harris En= -420.974295581261    
 JPrj=0 DoOrth=F DoCkMO=F.
 Leave Link  401 at Tue Nov 22 19:13:45 2022, MaxMem= 16106127360 cpu:              16.1 elap:               0.5
 (Enter /opt/ap/G16/B01/g16/l502.exe)
 Integral symmetry usage will be decided dynamically.
 Closed shell SCF:
 Using DIIS extrapolation, IDIIS=  1040.
 NGot= 16106127360 LenX= 16105943385 LenY= 16105857095
 Requested convergence on RMS density matrix=1.00D-08 within 512 cycles.
 Requested convergence on MAX density matrix=1.00D-06.
 Requested convergence on             energy=1.00D-06.
 No special actions if energy rises.
 Fock matrices will be formed incrementally for  20 cycles.

 Cycle   1  Pass 1  IDiag  1:
 FoFJK:  IHMeth= 1 ICntrl=       0 DoSepK=T KAlg= 0 I1Cent=           0 FoldK=F
 IRaf=         1 NMat=       1 IRICut=       1 DoRegI=T DoRafI=F ISym2E= 0 IDoP0=0 IntGTp=1.
 FoFCou: FMM=F IPFlag=           0 FMFlag=      100000 FMFlg1=           0
         NFxFlg=           0 DoJE=T BraDBF=F KetDBF=F FulRan=T
         wScrn=  0.000000 ICntrl=       500 IOpCl=  0 I1Cent=           0 NGrid=           0
         NMat0=    1 NMatS0=      1 NMatT0=    0 NMatD0=    1 NMtDS0=    0 NMtDT0=    0
 Symmetry not used in FoFCou.
 E= -439.965266750849    
 DIIS: error= 6.02D-02 at cycle   1 NSaved=   1.
 NSaved= 1 IEnMin= 1 EnMin= -439.965266750849     IErMin= 1 ErrMin= 6.02D-02
 ErrMax= 6.02D-02  0.00D+00 EMaxC= 1.00D-01 BMatC= 9.50D-01 BMatP= 9.50D-01
 IDIUse=3 WtCom= 3.98D-01 WtEn= 6.02D-01
 Coeff-Com:  0.100D+01
 Coeff-En:   0.100D+01
 Coeff:      0.100D+01
 Gap=     0.434 Goal=   None    Shift=    0.000
 GapD=    0.434 DampG=2.000 DampE=0.500 DampFc=1.0000 IDamp=-1.
 RMSDP=1.20D-02 MaxDP=1.08D+00              OVMax= 1.69D-01

 Cycle   2  Pass 1  IDiag  1:
 RMSU=  6.46D-03    CP:  6.96D-01
 E= -440.047571469819     Delta-E=       -0.082304718970 Rises=F Damp=F
 DIIS: error= 1.17D-02 at cycle   2 NSaved=   2.
 NSaved= 2 IEnMin= 2 EnMin= -440.047571469819     IErMin= 2 ErrMin= 1.17D-02
 ErrMax= 1.17D-02  0.00D+00 EMaxC= 1.00D-01 BMatC= 8.88D-02 BMatP= 9.50D-01
 IDIUse=3 WtCom= 8.83D-01 WtEn= 1.17D-01
 Coeff-Com:  0.164D+00 0.836D+00
 Coeff-En:   0.242D+00 0.758D+00
 Coeff:      0.173D+00 0.827D+00
 Gap=     0.415 Goal=   None    Shift=    0.000
 RMSDP=4.95D-03 MaxDP=3.05D-01 DE=-8.23D-02 OVMax= 1.29D-01

 Cycle   3  Pass 1  IDiag  1:
 RMSU=  3.90D-03    CP:  6.15D-01  7.83D-01
 E= -440.090561284869     Delta-E=       -0.042989815051 Rises=F Damp=F
 DIIS: error= 1.07D-02 at cycle   3 NSaved=   3.
 NSaved= 3 IEnMin= 3 EnMin= -440.090561284869     IErMin= 3 ErrMin= 1.07D-02
 ErrMax= 1.07D-02  0.00D+00 EMaxC= 1.00D-01 BMatC= 3.85D-02 BMatP= 8.88D-02
 IDIUse=3 WtCom= 8.93D-01 WtEn= 1.07D-01
 Coeff-Com:  0.246D-01 0.402D+00 0.574D+00
 Coeff-En:   0.000D+00 0.303D+00 0.697D+00
 Coeff:      0.220D-01 0.391D+00 0.587D+00
 Gap=     0.361 Goal=   None    Shift=    0.000
 RMSDP=2.03D-03 MaxDP=8.00D-02 DE=-4.30D-02 OVMax= 7.45D-02

 Cycle   4  Pass 1  IDiag  1:
 RMSU=  1.24D-03    CP:  6.04D-01  8.75D-01  6.29D-01
 E= -440.125503721592     Delta-E=       -0.034942436723 Rises=F Damp=F
 DIIS: error= 2.93D-03 at cycle   4 NSaved=   4.
 NSaved= 4 IEnMin= 4 EnMin= -440.125503721592     IErMin= 4 ErrMin= 2.93D-03
 ErrMax= 2.93D-03  0.00D+00 EMaxC= 1.00D-01 BMatC= 1.17D-03 BMatP= 3.85D-02
 IDIUse=3 WtCom= 9.71D-01 WtEn= 2.93D-02
 Coeff-Com:  0.860D-02 0.172D+00 0.285D+00 0.534D+00
 Coeff-En:   0.000D+00 0.000D+00 0.000D+00 0.100D+01
 Coeff:      0.835D-02 0.167D+00 0.277D+00 0.548D+00
 Gap=     0.330 Goal=   None    Shift=    0.000
 RMSDP=2.95D-04 MaxDP=8.78D-03 DE=-3.49D-02 OVMax= 8.50D-03

 Cycle   5  Pass 1  IDiag  1:
 RMSU=  2.18D-04    CP:  6.03D-01  8.72D-01  6.63D-01  8.82D-01
 E= -440.126482425299     Delta-E=       -0.000978703707 Rises=F Damp=F
 DIIS: error= 4.64D-04 at cycle   5 NSaved=   5.
 NSaved= 5 IEnMin= 5 EnMin= -440.126482425299     IErMin= 5 ErrMin= 4.64D-04
 ErrMax= 4.64D-04  0.00D+00 EMaxC= 1.00D-01 BMatC= 5.80D-05 BMatP= 1.17D-03
 IDIUse=3 WtCom= 9.95D-01 WtEn= 4.64D-03
 Coeff-Com:  0.279D-03 0.835D-02 0.268D-01 0.179D+00 0.785D+00
 Coeff-En:   0.000D+00 0.000D+00 0.000D+00 0.000D+00 0.100D+01
 Coeff:      0.278D-03 0.832D-02 0.267D-01 0.179D+00 0.786D+00
 Gap=     0.330 Goal=   None    Shift=    0.000
 RMSDP=1.18D-04 MaxDP=6.26D-03 DE=-9.79D-04 OVMax= 3.51D-03

 Cycle   6  Pass 1  IDiag  1:
 RMSU=  8.15D-05    CP:  6.01D-01  8.75D-01  6.75D-01  9.10D-01  1.06D+00
 E= -440.126526624893     Delta-E=       -0.000044199593 Rises=F Damp=F
 DIIS: error= 3.11D-04 at cycle   6 NSaved=   6.
 NSaved= 6 IEnMin= 6 EnMin= -440.126526624893     IErMin= 6 ErrMin= 3.11D-04
 ErrMax= 3.11D-04  0.00D+00 EMaxC= 1.00D-01 BMatC= 2.41D-05 BMatP= 5.80D-05
 IDIUse=3 WtCom= 9.97D-01 WtEn= 3.11D-03
 Coeff-Com: -0.123D-02-0.215D-01-0.264D-01 0.222D-01 0.465D+00 0.562D+00
 Coeff-En:   0.000D+00 0.000D+00 0.000D+00 0.000D+00 0.415D-01 0.958D+00
 Coeff:     -0.123D-02-0.214D-01-0.263D-01 0.221D-01 0.463D+00 0.563D+00
 Gap=     0.331 Goal=   None    Shift=    0.000
 RMSDP=5.48D-05 MaxDP=2.88D-03 DE=-4.42D-05 OVMax= 1.22D-03

 Cycle   7  Pass 1  IDiag  1:
 RMSU=  3.02D-05    CP:  6.00D-01  8.74D-01  6.76D-01  9.28D-01  1.16D+00
                    CP:  1.01D+00
 E= -440.126545884727     Delta-E=       -0.000019259835 Rises=F Damp=F
 DIIS: error= 9.30D-05 at cycle   7 NSaved=   7.
 NSaved= 7 IEnMin= 7 EnMin= -440.126545884727     IErMin= 7 ErrMin= 9.30D-05
 ErrMax= 9.30D-05  0.00D+00 EMaxC= 1.00D-01 BMatC= 5.57D-07 BMatP= 2.41D-05
 IDIUse=1 WtCom= 1.00D+00 WtEn= 0.00D+00
 Coeff-Com: -0.291D-03-0.549D-02-0.696D-02-0.126D-01 0.222D-01 0.937D-01
 Coeff-Com:  0.909D+00
 Coeff:     -0.291D-03-0.549D-02-0.696D-02-0.126D-01 0.222D-01 0.937D-01
 Coeff:      0.909D+00
 Gap=     0.331 Goal=   None    Shift=    0.000
 RMSDP=1.82D-05 MaxDP=6.20D-04 DE=-1.93D-05 OVMax= 6.11D-04

 Cycle   8  Pass 1  IDiag  1:
 RMSU=  8.52D-06    CP:  6.00D-01  8.74D-01  6.78D-01  9.29D-01  1.21D+00
                    CP:  1.12D+00  1.09D+00
 E= -440.126547170919     Delta-E=       -0.000001286192 Rises=F Damp=F
 DIIS: error= 1.84D-05 at cycle   8 NSaved=   8.
 NSaved= 8 IEnMin= 8 EnMin= -440.126547170919     IErMin= 8 ErrMin= 1.84D-05
 ErrMax= 1.84D-05  0.00D+00 EMaxC= 1.00D-01 BMatC= 1.47D-07 BMatP= 5.57D-07
 IDIUse=1 WtCom= 1.00D+00 WtEn= 0.00D+00
 Coeff-Com:  0.763D-04 0.100D-02 0.134D-02-0.972D-02-0.694D-01-0.624D-01
 Coeff-Com:  0.353D+00 0.786D+00
 Coeff:      0.763D-04 0.100D-02 0.134D-02-0.972D-02-0.694D-01-0.624D-01
 Coeff:      0.353D+00 0.786D+00
 Gap=     0.331 Goal=   None    Shift=    0.000
 RMSDP=7.85D-06 MaxDP=3.45D-04 DE=-1.29D-06 OVMax= 3.73D-04

 Cycle   9  Pass 1  IDiag  1:
 RMSU=  3.54D-06    CP:  6.00D-01  8.74D-01  6.79D-01  9.28D-01  1.23D+00
                    CP:  1.17D+00  1.19D+00  1.23D+00
 E= -440.126547428253     Delta-E=       -0.000000257334 Rises=F Damp=F
 DIIS: error= 1.51D-05 at cycle   9 NSaved=   9.
 NSaved= 9 IEnMin= 9 EnMin= -440.126547428253     IErMin= 9 ErrMin= 1.51D-05
 ErrMax= 1.51D-05  0.00D+00 EMaxC= 1.00D-01 BMatC= 1.14D-08 BMatP= 1.47D-07
 IDIUse=1 WtCom= 1.00D+00 WtEn= 0.00D+00
 Coeff-Com:  0.571D-04 0.952D-03 0.135D-02-0.123D-02-0.221D-01-0.288D-01
 Coeff-Com:  0.956D-02 0.224D+00 0.816D+00
 Coeff:      0.571D-04 0.952D-03 0.135D-02-0.123D-02-0.221D-01-0.288D-01
 Coeff:      0.956D-02 0.224D+00 0.816D+00
 Gap=     0.331 Goal=   None    Shift=    0.000
 RMSDP=3.29D-06 MaxDP=1.52D-04 DE=-2.57D-07 OVMax= 8.82D-05

 Cycle  10  Pass 1  IDiag  1:
 RMSU=  1.17D-06    CP:  6.00D-01  8.74D-01  6.79D-01  9.26D-01  1.23D+00
                    CP:  1.17D+00  1.20D+00  1.34D+00  1.31D+00
 E= -440.126547451686     Delta-E=       -0.000000023433 Rises=F Damp=F
 DIIS: error= 2.11D-06 at cycle  10 NSaved=  10.
 NSaved=10 IEnMin=10 EnMin= -440.126547451686     IErMin=10 ErrMin= 2.11D-06
 ErrMax= 2.11D-06  0.00D+00 EMaxC= 1.00D-01 BMatC= 1.32D-09 BMatP= 1.14D-08
 IDIUse=1 WtCom= 1.00D+00 WtEn= 0.00D+00
 Coeff-Com:  0.280D-05 0.104D-03 0.192D-03 0.112D-02 0.454D-02 0.201D-02
 Coeff-Com: -0.438D-01-0.686D-01 0.169D+00 0.936D+00
 Coeff:      0.280D-05 0.104D-03 0.192D-03 0.112D-02 0.454D-02 0.201D-02
 Coeff:     -0.438D-01-0.686D-01 0.169D+00 0.936D+00
 Gap=     0.331 Goal=   None    Shift=    0.000
 RMSDP=1.24D-06 MaxDP=3.97D-05 DE=-2.34D-08 OVMax= 4.86D-05

 Cycle  11  Pass 1  IDiag  1:
 RMSU=  4.48D-07    CP:  6.00D-01  8.74D-01  6.79D-01  9.26D-01  1.23D+00
                    CP:  1.17D+00  1.20D+00  1.40D+00  1.47D+00  1.17D+00
 E= -440.126547455474     Delta-E=       -0.000000003787 Rises=F Damp=F
 DIIS: error= 1.47D-06 at cycle  11 NSaved=  11.
 NSaved=11 IEnMin=11 EnMin= -440.126547455474     IErMin=11 ErrMin= 1.47D-06
 ErrMax= 1.47D-06  0.00D+00 EMaxC= 1.00D-01 BMatC= 1.58D-10 BMatP= 1.32D-09
 IDIUse=1 WtCom= 1.00D+00 WtEn= 0.00D+00
 Coeff-Com: -0.467D-05-0.721D-04-0.813D-04 0.424D-03 0.324D-02 0.351D-02
 Coeff-Com: -0.977D-02-0.403D-01-0.605D-01 0.188D+00 0.915D+00
 Coeff:     -0.467D-05-0.721D-04-0.813D-04 0.424D-03 0.324D-02 0.351D-02
 Coeff:     -0.977D-02-0.403D-01-0.605D-01 0.188D+00 0.915D+00
 Gap=     0.331 Goal=   None    Shift=    0.000
 RMSDP=3.15D-07 MaxDP=1.26D-05 DE=-3.79D-09 OVMax= 1.22D-05

 Cycle  12  Pass 1  IDiag  1:
 RMSU=  1.28D-07    CP:  6.00D-01  8.74D-01  6.79D-01  9.26D-01  1.23D+00
                    CP:  1.17D+00  1.21D+00  1.40D+00  1.51D+00  1.26D+00
                    CP:  1.36D+00
 E= -440.126547455904     Delta-E=       -0.000000000431 Rises=F Damp=F
 DIIS: error= 2.85D-07 at cycle  12 NSaved=  12.
 NSaved=12 IEnMin=12 EnMin= -440.126547455904     IErMin=12 ErrMin= 2.85D-07
 ErrMax= 2.85D-07  0.00D+00 EMaxC= 1.00D-01 BMatC= 1.77D-11 BMatP= 1.58D-10
 IDIUse=1 WtCom= 1.00D+00 WtEn= 0.00D+00
 Coeff-Com: -0.913D-06-0.231D-04-0.324D-04-0.576D-04-0.272D-03 0.297D-03
 Coeff-Com:  0.429D-02 0.342D-02-0.284D-01-0.816D-01 0.137D+00 0.966D+00
 Coeff:     -0.913D-06-0.231D-04-0.324D-04-0.576D-04-0.272D-03 0.297D-03
 Coeff:      0.429D-02 0.342D-02-0.284D-01-0.816D-01 0.137D+00 0.966D+00
 Gap=     0.331 Goal=   None    Shift=    0.000
 RMSDP=1.27D-07 MaxDP=8.07D-06 DE=-4.31D-10 OVMax= 4.77D-06

 Cycle  13  Pass 1  IDiag  1:
 RMSU=  6.35D-08    CP:  6.00D-01  8.74D-01  6.79D-01  9.26D-01  1.23D+00
                    CP:  1.17D+00  1.21D+00  1.40D+00  1.51D+00  1.29D+00
                    CP:  1.50D+00  1.19D+00
 E= -440.126547455953     Delta-E=       -0.000000000048 Rises=F Damp=F
 DIIS: error= 8.43D-08 at cycle  13 NSaved=  13.
 NSaved=13 IEnMin=13 EnMin= -440.126547455953     IErMin=13 ErrMin= 8.43D-08
 ErrMax= 8.43D-08  0.00D+00 EMaxC= 1.00D-01 BMatC= 2.72D-12 BMatP= 1.77D-11
 IDIUse=1 WtCom= 1.00D+00 WtEn= 0.00D+00
 Coeff-Com:  0.136D-06-0.622D-07-0.180D-05-0.539D-04-0.432D-03-0.237D-03
 Coeff-Com:  0.225D-02 0.510D-02-0.266D-02-0.440D-01-0.607D-01 0.296D+00
 Coeff-Com:  0.805D+00
 Coeff:      0.136D-06-0.622D-07-0.180D-05-0.539D-04-0.432D-03-0.237D-03
 Coeff:      0.225D-02 0.510D-02-0.266D-02-0.440D-01-0.607D-01 0.296D+00
 Coeff:      0.805D+00
 Gap=     0.331 Goal=   None    Shift=    0.000
 RMSDP=4.73D-08 MaxDP=3.09D-06 DE=-4.82D-11 OVMax= 1.38D-06

 Cycle  14  Pass 1  IDiag  1:
 RMSU=  2.27D-08    CP:  6.00D-01  8.74D-01  6.79D-01  9.26D-01  1.23D+00
                    CP:  1.17D+00  1.21D+00  1.40D+00  1.50D+00  1.29D+00
                    CP:  1.53D+00  1.25D+00  1.28D+00
 E= -440.126547455960     Delta-E=       -0.000000000008 Rises=F Damp=F
 DIIS: error= 3.00D-08 at cycle  14 NSaved=  14.
 NSaved=14 IEnMin=14 EnMin= -440.126547455960     IErMin=14 ErrMin= 3.00D-08
 ErrMax= 3.00D-08  0.00D+00 EMaxC= 1.00D-01 BMatC= 2.38D-13 BMatP= 2.72D-12
 IDIUse=1 WtCom= 1.00D+00 WtEn= 0.00D+00
 Coeff-Com:  0.100D-06 0.201D-05 0.238D-05-0.409D-05-0.641D-04-0.689D-04
 Coeff-Com:  0.657D-05 0.646D-03 0.217D-02-0.896D-04-0.296D-01-0.379D-01
 Coeff-Com:  0.191D+00 0.874D+00
 Coeff:      0.100D-06 0.201D-05 0.238D-05-0.409D-05-0.641D-04-0.689D-04
 Coeff:      0.657D-05 0.646D-03 0.217D-02-0.896D-04-0.296D-01-0.379D-01
 Coeff:      0.191D+00 0.874D+00
 Gap=     0.331 Goal=   None    Shift=    0.000
 RMSDP=2.20D-08 MaxDP=9.45D-07 DE=-7.84D-12 OVMax= 4.97D-07

 Cycle  15  Pass 1  IDiag  1:
 RMSU=  6.21D-09    CP:  6.00D-01  8.74D-01  6.79D-01  9.26D-01  1.23D+00
                    CP:  1.17D+00  1.21D+00  1.40D+00  1.50D+00  1.29D+00
                    CP:  1.53D+00  1.26D+00  1.44D+00  1.33D+00
 E= -440.126547455961     Delta-E=       -0.000000000001 Rises=F Damp=F
 DIIS: error= 1.23D-08 at cycle  15 NSaved=  15.
 NSaved=15 IEnMin=15 EnMin= -440.126547455961     IErMin=15 ErrMin= 1.23D-08
 ErrMax= 1.23D-08  0.00D+00 EMaxC= 1.00D-01 BMatC= 2.79D-14 BMatP= 2.38D-13
 IDIUse=1 WtCom= 1.00D+00 WtEn= 0.00D+00
 Coeff-Com: -0.461D-10 0.312D-06 0.580D-06 0.640D-05 0.377D-04 0.208D-04
 Coeff-Com: -0.259D-03-0.455D-03 0.625D-03 0.543D-02 0.219D-02-0.413D-01
 Coeff-Com: -0.610D-01 0.144D+00 0.951D+00
 Coeff:     -0.461D-10 0.312D-06 0.580D-06 0.640D-05 0.377D-04 0.208D-04
 Coeff:     -0.259D-03-0.455D-03 0.625D-03 0.543D-02 0.219D-02-0.413D-01
 Coeff:     -0.610D-01 0.144D+00 0.951D+00
 Gap=     0.331 Goal=   None    Shift=    0.000
 RMSDP=7.95D-09 MaxDP=5.33D-07 DE=-7.96D-13 OVMax= 2.03D-07

 SCF Done:  E(RwB97XD) =  -440.126547456     A.U. after   15 cycles
            NFock= 15  Conv=0.80D-08     -V/T= 2.0002
 KE= 4.400309254723D+02 PE=-2.008240006116D+03 EE= 6.371204452312D+02
 Leave Link  502 at Tue Nov 22 19:14:05 2022, MaxMem= 16106127360 cpu:             624.0 elap:              19.6
 (Enter /opt/ap/G16/B01/g16/l601.exe)
 Copying SCF densities to generalized density rwf, IOpCl= 0 IROHF=0.

 **********************************************************************

            Population analysis using the SCF Density.

 **********************************************************************

 Orbital symmetries:
       Occupied  (A) (A) (A) (A) (A) (A) (A) (A) (A) (A) (A) (A)
                 (A) (A) (A) (A) (A) (A) (A) (A) (A) (A) (A) (A)
                 (A) (A) (A) (A) (A) (A) (A) (A) (A) (A) (A) (A)
       Virtual   (A) (A) (A) (A) (A) (A) (A) (A) (A) (A) (A) (A)
                 (A) (A) (A) (A) (A) (A) (A) (A) (A) (A) (A) (A)
                 (A) (A) (A) (A) (A) (A) (A) (A) (A) (A) (A) (A)
                 (A) (A) (A) (A) (A) (A) (A) (A) (A) (A) (A) (A)
                 (A) (A) (A) (A) (A) (A) (A) (A) (A) (A) (A) (A)
                 (A) (A) (A) (A) (A) (A) (A) (A) (A) (A) (A) (A)
                 (A) (A) (A) (A) (A) (A) (A) (A) (A) (A) (A) (A)
                 (A) (A) (A) (A) (A) (A) (A) (A) (A) (A) (A) (A)
                 (A) (A) (A) (A) (A) (A) (A) (A) (A) (A) (A) (A)
                 (A) (A) (A) (A) (A) (A) (A) (A) (A) (A) (A) (A)
                 (A) (A) (A) (A) (A) (A) (A) (A) (A) (A) (A) (A)
                 (A) (A) (A) (A) (A) (A) (A) (A) (A) (A) (A) (A)
                 (A) (A) (A) (A) (A) (A) (A) (A) (A) (A) (A) (A)
                 (A) (A) (A) (A) (A) (A) (A) (A) (A) (A) (A) (A)
                 (A) (A) (A) (A) (A) (A) (A) (A) (A) (A) (A) (A)
                 (A) (A) (A) (A) (A) (A) (A) (A) (A) (A) (A) (A)
                 (A) (A) (A) (A) (A) (A) (A) (A) (A) (A) (A) (A)
                 (A) (A) (A) (A) (A) (A) (A) (A) (A) (A) (A) (A)
                 (A) (A) (A) (A) (A) (A) (A) (A) (A) (A) (A) (A)
                 (A) (A) (A) (A) (A) (A) (A) (A) (A) (A) (A) (A)
                 (A) (A) (A) (A) (A) (A)
 The electronic state is 1-A.
 Alpha  occ. eigenvalues --  -19.22907 -14.45738 -10.40426 -10.34116 -10.28189
 Alpha  occ. eigenvalues --  -10.27990 -10.27717 -10.27532 -10.27195 -10.26160
 Alpha  occ. eigenvalues --   -1.15152  -1.06168  -0.96253  -0.88382  -0.86531
 Alpha  occ. eigenvalues --   -0.84808  -0.74888  -0.73073  -0.69112  -0.65720
 Alpha  occ. eigenvalues --   -0.61365  -0.58970  -0.56160  -0.55297  -0.54166
 Alpha  occ. eigenvalues --   -0.52951  -0.52671  -0.50860  -0.47981  -0.45967
 Alpha  occ. eigenvalues --   -0.44663  -0.44562  -0.39662  -0.35274  -0.33580
 Alpha  occ. eigenvalues --   -0.29759
 Alpha virt. eigenvalues --    0.03305   0.03878   0.04624   0.04931   0.05125
 Alpha virt. eigenvalues --    0.06282   0.06586   0.07239   0.08392   0.08713
 Alpha virt. eigenvalues --    0.09099   0.11074   0.11761   0.12153   0.13579
 Alpha virt. eigenvalues --    0.13799   0.14496   0.15514   0.16049   0.16504
 Alpha virt. eigenvalues --    0.16928   0.17295   0.17744   0.18443   0.18492
 Alpha virt. eigenvalues --    0.18911   0.19674   0.19700   0.20443   0.20575
 Alpha virt. eigenvalues --    0.20807   0.21654   0.22085   0.22569   0.23870
 Alpha virt. eigenvalues --    0.24531   0.25046   0.25462   0.26341   0.26832
 Alpha virt. eigenvalues --    0.27274   0.27703   0.28904   0.29276   0.29836
 Alpha virt. eigenvalues --    0.30832   0.31004   0.31715   0.33661   0.33777
 Alpha virt. eigenvalues --    0.34732   0.36229   0.36631   0.37123   0.37636
 Alpha virt. eigenvalues --    0.38687   0.39057   0.39441   0.40108   0.41910
 Alpha virt. eigenvalues --    0.42358   0.42479   0.43618   0.44962   0.45315
 Alpha virt. eigenvalues --    0.46067   0.46442   0.50750   0.53550   0.55608
 Alpha virt. eigenvalues --    0.58262   0.59596   0.59775   0.62251   0.63403
 Alpha virt. eigenvalues --    0.64299   0.64943   0.65298   0.66094   0.66300
 Alpha virt. eigenvalues --    0.68260   0.69680   0.70232   0.71211   0.71921
 Alpha virt. eigenvalues --    0.74109   0.76122   0.76421   0.77501   0.77939
 Alpha virt. eigenvalues --    0.81292   0.81868   0.82849   0.83093   0.84663
 Alpha virt. eigenvalues --    0.86658   0.88196   0.89540   0.92314   0.92644
 Alpha virt. eigenvalues --    0.94361   0.94855   0.95495   0.96636   0.98080
 Alpha virt. eigenvalues --    0.98355   0.99408   1.01476   1.03330   1.05082
 Alpha virt. eigenvalues --    1.05607   1.08633   1.11337   1.13256   1.13444
 Alpha virt. eigenvalues --    1.16890   1.17982   1.19657   1.22632   1.23318
 Alpha virt. eigenvalues --    1.27191   1.29223   1.32076   1.34053   1.37362
 Alpha virt. eigenvalues --    1.38868   1.44204   1.47296   1.52528   1.57167
 Alpha virt. eigenvalues --    1.59524   1.61258   1.62118   1.62994   1.64831
 Alpha virt. eigenvalues --    1.66211   1.66911   1.68017   1.68914   1.71069
 Alpha virt. eigenvalues --    1.71809   1.74267   1.74898   1.76523   1.77818
 Alpha virt. eigenvalues --    1.80310   1.84705   1.85802   1.88989   1.89692
 Alpha virt. eigenvalues --    1.93057   1.94704   1.96597   1.97195   1.98327
 Alpha virt. eigenvalues --    2.01318   2.01903   2.04568   2.05041   2.06758
 Alpha virt. eigenvalues --    2.08264   2.10630   2.14033   2.14784   2.15702
 Alpha virt. eigenvalues --    2.22754   2.25418   2.27230   2.31914   2.35950
 Alpha virt. eigenvalues --    2.40545   2.42594   2.46761   2.50860   2.52009
 Alpha virt. eigenvalues --    2.54148   2.55942   2.59717   2.61101   2.64481
 Alpha virt. eigenvalues --    2.64679   2.69245   2.71055   2.71406   2.76019
 Alpha virt. eigenvalues --    2.78888   2.82276   2.82481   2.83679   2.84787
 Alpha virt. eigenvalues --    2.86414   2.90640   2.91444   2.91851   2.93275
 Alpha virt. eigenvalues --    2.94624   2.95081   2.95880   3.00874   3.01481
 Alpha virt. eigenvalues --    3.02473   3.04478   3.05693   3.09024   3.15158
 Alpha virt. eigenvalues --    3.19582   3.21445   3.23855   3.27546   3.32810
 Alpha virt. eigenvalues --    3.41154   3.44487   3.47869   3.49905   3.53051
 Alpha virt. eigenvalues --    3.60604   3.66765   3.71052   3.71934   3.90841
 Alpha virt. eigenvalues --    3.97778   4.03962   4.09295   4.12640   4.20004
 Alpha virt. eigenvalues --    4.30878   4.34684   4.37799   4.40326   4.44463
 Alpha virt. eigenvalues --    4.96082   5.16375   5.19415   5.23603   5.34189
 Alpha virt. eigenvalues --    5.86430  23.87433  23.99651  24.14704  24.22927
 Alpha virt. eigenvalues --   24.30590  24.33489  24.37903  24.42878  35.88527
 Alpha virt. eigenvalues --   50.12827
          Condensed to atoms (all electrons):
               1          2          3          4          5          6
     1  C    7.073624   0.160510  -0.243732  -0.509296  -0.030975  -0.134238
     2  C    0.160510   8.168987  -2.310876  -0.810591   0.594694  -0.025609
     3  C   -0.243732  -2.310876   8.316437   1.023306  -0.095116  -0.088466
     4  C   -0.509296  -0.810591   1.023306   6.266292  -0.153506  -0.001901
     5  H   -0.030975   0.594694  -0.095116  -0.153506   0.502253  -0.042178
     6  N   -0.134238  -0.025609  -0.088466  -0.001901  -0.042178   7.427639
     7  C   -0.233026   0.364134  -0.088848  -0.285487   0.016069  -0.009138
     8  H   -0.106852  -0.052206   0.528573   0.032343  -0.004036   0.002890
     9  C    0.021404  -0.257856  -0.485560   0.528798   0.009182   0.035049
    10  H    0.018333  -0.060478   0.031786   0.414164  -0.013732  -0.001620
    11  C    0.136742  -0.018714  -0.169094  -0.211831   0.056408  -0.155301
    12  H    0.003043  -0.011647   0.020108  -0.003022   0.002330   0.356601
    13  H    0.036280   0.045794  -0.128007  -0.023060   0.001292  -0.004961
    14  H    0.014045  -0.017430  -0.014474  -0.054463   0.000452   0.001810
    15  C   -0.186413  -0.020325   0.064640   0.083799  -0.019659  -0.194404
    16  O    0.082081  -0.173694   0.086438   0.035822  -0.006762  -0.152613
    17  H   -0.011729   0.001600  -0.002487  -0.002573   0.000927   0.001700
    18  H   -0.009162  -0.003172   0.013125   0.008028  -0.005255   0.014173
    19  H   -0.028005   0.018203  -0.013289  -0.001796  -0.000317   0.029805
               7          8          9         10         11         12
     1  C   -0.233026  -0.106852   0.021404   0.018333   0.136742   0.003043
     2  C    0.364134  -0.052206  -0.257856  -0.060478  -0.018714  -0.011647
     3  C   -0.088848   0.528573  -0.485560   0.031786  -0.169094   0.020108
     4  C   -0.285487   0.032343   0.528798   0.414164  -0.211831  -0.003022
     5  H    0.016069  -0.004036   0.009182  -0.013732   0.056408   0.002330
     6  N   -0.009138   0.002890   0.035049  -0.001620  -0.155301   0.356601
     7  C    5.526591  -0.068574   0.562687  -0.002809   0.038163   0.008676
     8  H   -0.068574   0.551842  -0.009086   0.001600   0.001517  -0.002787
     9  C    0.562687  -0.009086   5.559349  -0.068974   0.023149  -0.007157
    10  H   -0.002809   0.001600  -0.068974   0.489497  -0.002078   0.000308
    11  C    0.038163   0.001517   0.023149  -0.002078   6.286085  -0.012067
    12  H    0.008676  -0.002787  -0.007157   0.000308  -0.012067   0.362216
    13  H    0.442278  -0.020631  -0.040466  -0.000525  -0.001341   0.002357
    14  H   -0.055091  -0.000693   0.478379  -0.011585   0.000315  -0.000273
    15  C   -0.016817   0.002607   0.014111  -0.000643  -0.199705  -0.026467
    16  O   -0.010115  -0.001105   0.003736  -0.000275   0.412559   0.006553
    17  H    0.000599   0.000088  -0.000107  -0.000006  -0.028599  -0.000253
    18  H   -0.000306   0.000169   0.000374   0.000054  -0.109059  -0.002033
    19  H    0.001323   0.000346   0.002060  -0.000124  -0.078491  -0.003999
              13         14         15         16         17         18
     1  C    0.036280   0.014045  -0.186413   0.082081  -0.011729  -0.009162
     2  C    0.045794  -0.017430  -0.020325  -0.173694   0.001600  -0.003172
     3  C   -0.128007  -0.014474   0.064640   0.086438  -0.002487   0.013125
     4  C   -0.023060  -0.054463   0.083799   0.035822  -0.002573   0.008028
     5  H    0.001292   0.000452  -0.019659  -0.006762   0.000927  -0.005255
     6  N   -0.004961   0.001810  -0.194404  -0.152613   0.001700   0.014173
     7  C    0.442278  -0.055091  -0.016817  -0.010115   0.000599  -0.000306
     8  H   -0.020631  -0.000693   0.002607  -0.001105   0.000088   0.000169
     9  C   -0.040466   0.478379   0.014111   0.003736  -0.000107   0.000374
    10  H   -0.000525  -0.011585  -0.000643  -0.000275  -0.000006   0.000054
    11  C   -0.001341   0.000315  -0.199705   0.412559  -0.028599  -0.109059
    12  H    0.002357  -0.000273  -0.026467   0.006553  -0.000253  -0.002033
    13  H    0.499395  -0.009420  -0.000787   0.000042  -0.000006  -0.000022
    14  H   -0.009420   0.497432   0.000420  -0.000001  -0.000023   0.000015
    15  C   -0.000787   0.000420   5.660885  -0.015765   0.412223   0.475483
    16  O    0.000042  -0.000001  -0.015765   8.042790  -0.009252  -0.008582
    17  H   -0.000006  -0.000023   0.412223  -0.009252   0.497176  -0.026155
    18  H   -0.000022   0.000015   0.475483  -0.008582  -0.026155   0.484969
    19  H   -0.000152   0.000056   0.422040   0.006003  -0.027186  -0.032800
              19
     1  C   -0.028005
     2  C    0.018203
     3  C   -0.013289
     4  C   -0.001796
     5  H   -0.000317
     6  N    0.029805
     7  C    0.001323
     8  H    0.000346
     9  C    0.002060
    10  H   -0.000124
    11  C   -0.078491
    12  H   -0.003999
    13  H   -0.000152
    14  H    0.000056
    15  C    0.422040
    16  O    0.006003
    17  H   -0.027186
    18  H   -0.032800
    19  H    0.555745
 Mulliken charges:
               1
     1  C   -0.052635
     2  C    0.408676
     3  C   -0.444465
     4  C   -0.335026
     5  H    0.187929
     6  N   -0.059238
     7  C   -0.190310
     8  H    0.143993
     9  C   -0.369073
    10  H    0.207105
    11  C    0.031343
    12  H    0.307514
    13  H    0.201942
    14  H    0.170529
    15  C   -0.455223
    16  O   -0.297857
    17  H    0.194065
    18  H    0.200154
    19  H    0.150576
 Sum of Mulliken charges =  -0.00000
 Mulliken charges with hydrogens summed into heavy atoms:
               1
     1  C   -0.052635
     2  C    0.596605
     3  C   -0.300471
     4  C   -0.127920
     6  N    0.248276
     7  C    0.011632
     9  C   -0.198544
    11  C    0.031343
    15  C    0.089572
    16  O   -0.297857
 Electronic spatial extent (au):  <R**2>=           1659.7702
 Charge=             -0.0000 electrons
 Dipole moment (field-independent basis, Debye):
    X=              0.0076    Y=             -2.7267    Z=             -2.1679  Tot=              3.4835
 Quadrupole moment (field-independent basis, Debye-Ang):
   XX=            -52.0085   YY=            -53.4445   ZZ=            -63.9967
   XY=             -6.1742   XZ=             -6.0636   YZ=             -4.2010
 Traceless Quadrupole moment (field-independent basis, Debye-Ang):
   XX=              4.4747   YY=              3.0387   ZZ=             -7.5135
   XY=             -6.1742   XZ=             -6.0636   YZ=             -4.2010
 Octapole moment (field-independent basis, Debye-Ang**2):
  XXX=             10.5592  YYY=             -6.2990  ZZZ=             -0.3113  XYY=             -3.0657
  XXY=            -12.6893  XXZ=            -11.0761  XZZ=              8.0417  YZZ=             -1.9746
  YYZ=             -2.7928  XYZ=             -4.0152
 Hexadecapole moment (field-independent basis, Debye-Ang**3):
 XXXX=          -1567.3013 YYYY=           -327.2897 ZZZZ=           -148.0010 XXXY=            -28.7881
 XXXZ=            -39.2509 YYYX=            -12.1764 YYYZ=             -9.5881 ZZZX=             -6.1650
 ZZZY=              0.9866 XXYY=           -332.6974 XXZZ=           -332.4904 YYZZ=            -89.1139
 XXYZ=            -22.7579 YYXZ=             -6.4170 ZZXY=             -4.4698
 N-N= 4.909620879567D+02 E-N=-2.008240005338D+03  KE= 4.400309254723D+02
 No NMR shielding tensors so no spin-rotation constants.
 Leave Link  601 at Tue Nov 22 19:14:05 2022, MaxMem= 16106127360 cpu:               3.7 elap:               0.1
 (Enter /opt/ap/G16/B01/g16/l9999.exe)
 1\1\GINC-N39\SP\RwB97XD\6-311++G(d,p)\C8H9N1O1\ROOT\22-Nov-2022\0\\#P 
 wB97XD/6-311++G(d,p) scf=maxcycle=512\\_conf045.gjf nmol_natom 1_19\\0
 ,1\C\C,1,1.39447505\C,1,1.39873503,2,119.56697224\C,2,1.39066123,1,119
 .42697207,3,2.53915756,0\H,2,0.96213008,1,119.8046163,3,-177.79870417,
 0\N,1,1.41693372,2,123.72220125,4,-177.74604849,0\C,3,1.38667133,1,120
 .18759987,2,-2.5020857,0\H,3,0.95673174,1,118.82085988,2,177.96737168,
 0\C,4,1.38268572,2,121.03929493,1,-0.41221113,0\H,4,0.9858595,2,118.57
 91267,1,178.77373233,0\C,6,1.35500692,1,127.62132737,2,17.57862687,0\H
 ,6,0.89609466,1,115.10511997,2,-166.41127095,0\H,7,0.98847198,3,119.08
 117704,1,-179.64585354,0\H,9,0.98451201,4,120.53755637,2,177.22743544,
 0\C,11,1.50274561,6,115.46861532,1,-135.,0\O,11,1.23496495,6,123.15099
 888,1,45.,0\H,15,0.98719837,11,107.47091875,6,-116.36962839,0\H,15,0.9
 9976021,11,109.69443261,6,128.85346087,0\H,15,0.97696155,11,114.370088
 71,6,6.05302844,0\\Version=ES64L-G16RevB.01\State=1-A\HF=-440.1265475\
 RMSD=7.950e-09\Dipole=0.2382999,-1.0499534,-0.8480224\Quadrupole=1.437
 243,-6.5528124,5.1155693,5.4498931,3.0852798,0.1745022\PG=C01 [X(C8H9N
 1O1)]\\@


 ASKING FOR EFFICIENCY AND ADAPTABILITY IN THE SAME PROGRAM IS LIKE
 ASKING FOR A BEAUTIFUL AND MODEST WIFE ...
 WE'LL PROBABLY HAVE TO SETTLE FOR ONE OR THE OTHER.

             -- THE PSYCHOLOGY OF COMPUTER PROGRAMMING
                GERALD M. WEINBERG
 Job cpu time:       0 days  0 hours 11 minutes  1.6 seconds.
 Elapsed time:       0 days  0 hours  0 minutes 20.9 seconds.
 File lengths (MBytes):  RWF=     46 Int=      0 D2E=      0 Chk=      6 Scr=      1
 Normal termination of Gaussian 16 at Tue Nov 22 19:14:05 2022.
