 Entering Gaussian System, Link 0=g16
 Input=_conf043.gjf
 Output=_conf043.log
 Initial command:
 /opt/ap/G16/B01/g16/l1.exe "/tmp2/scr/Gau-1460.inp" -scrdir="/tmp2/scr/"
 Entering Link 1 = /opt/ap/G16/B01/g16/l1.exe PID=      1461.
  
 Copyright (c) 1988-2017, Gaussian, Inc.  All Rights Reserved.
  
 This is part of the Gaussian(R) 16 program.  It is based on
 the Gaussian(R) 09 system (copyright 2009, Gaussian, Inc.),
 the Gaussian(R) 03 system (copyright 2003, Gaussian, Inc.),
 the Gaussian(R) 98 system (copyright 1998, Gaussian, Inc.),
 the Gaussian(R) 94 system (copyright 1995, Gaussian, Inc.),
 the Gaussian 92(TM) system (copyright 1992, Gaussian, Inc.),
 the Gaussian 90(TM) system (copyright 1990, Gaussian, Inc.),
 the Gaussian 88(TM) system (copyright 1988, Gaussian, Inc.),
 the Gaussian 86(TM) system (copyright 1986, Carnegie Mellon
 University), and the Gaussian 82(TM) system (copyright 1983,
 Carnegie Mellon University). Gaussian is a federally registered
 trademark of Gaussian, Inc.
  
 This software contains proprietary and confidential information,
 including trade secrets, belonging to Gaussian, Inc.
  
 This software is provided under written license and may be
 used, copied, transmitted, or stored only in accord with that
 written license.
  
 The following legend is applicable only to US Government
 contracts under FAR:
  
                    RESTRICTED RIGHTS LEGEND
  
 Use, reproduction and disclosure by the US Government is
 subject to restrictions as set forth in subparagraphs (a)
 and (c) of the Commercial Computer Software - Restricted
 Rights clause in FAR 52.227-19.
  
 Gaussian, Inc.
 340 Quinnipiac St., Bldg. 40, Wallingford CT 06492
  
  
 ---------------------------------------------------------------
 Warning -- This program may not be used in any manner that
 competes with the business of Gaussian, Inc. or will provide
 assistance to any competitor of Gaussian, Inc.  The licensee
 of this program is prohibited from giving any competitor of
 Gaussian, Inc. access to this program.  By using this program,
 the user acknowledges that Gaussian, Inc. is engaged in the
 business of creating and licensing software in the field of
 computational chemistry and represents and warrants to the
 licensee that it is not a competitor of Gaussian, Inc. and that
 it will not use this program in any manner prohibited above.
 ---------------------------------------------------------------
  

 Cite this work as:
 Gaussian 16, Revision B.01,
 M. J. Frisch, G. W. Trucks, H. B. Schlegel, G. E. Scuseria, 
 M. A. Robb, J. R. Cheeseman, G. Scalmani, V. Barone, 
 G. A. Petersson, H. Nakatsuji, X. Li, M. Caricato, A. V. Marenich, 
 J. Bloino, B. G. Janesko, R. Gomperts, B. Mennucci, H. P. Hratchian, 
 J. V. Ortiz, A. F. Izmaylov, J. L. Sonnenberg, D. Williams-Young, 
 F. Ding, F. Lipparini, F. Egidi, J. Goings, B. Peng, A. Petrone, 
 T. Henderson, D. Ranasinghe, V. G. Zakrzewski, J. Gao, N. Rega, 
 G. Zheng, W. Liang, M. Hada, M. Ehara, K. Toyota, R. Fukuda, 
 J. Hasegawa, M. Ishida, T. Nakajima, Y. Honda, O. Kitao, H. Nakai, 
 T. Vreven, K. Throssell, J. A. Montgomery, Jr., J. E. Peralta, 
 F. Ogliaro, M. J. Bearpark, J. J. Heyd, E. N. Brothers, K. N. Kudin, 
 V. N. Staroverov, T. A. Keith, R. Kobayashi, J. Normand, 
 K. Raghavachari, A. P. Rendell, J. C. Burant, S. S. Iyengar, 
 J. Tomasi, M. Cossi, J. M. Millam, M. Klene, C. Adamo, R. Cammi, 
 J. W. Ochterski, R. L. Martin, K. Morokuma, O. Farkas, 
 J. B. Foresman, and D. J. Fox, Gaussian, Inc., Wallingford CT, 2016.
 
 ******************************************
 Gaussian 16:  ES64L-G16RevB.01 20-Dec-2017
                22-Nov-2022 
 ******************************************
 %nprocshared=32
 Will use up to   32 processors via shared memory.
 %mem=120GB
 %chk=_conf043.chk
 ----------------------------------------
 #P wB97XD/6-311++G(d,p) scf=maxcycle=512
 ----------------------------------------
 1/38=1,172=1/1;
 2/12=2,17=6,18=5,40=1/2;
 3/5=4,6=6,7=1111,11=2,25=1,30=1,74=-58/1,2,3;
 4//1;
 5/5=2,7=512,38=5/2;
 6/7=2,8=2,9=2,10=2,28=1/1;
 99/5=1,9=1/99;
 Leave Link    1 at Tue Nov 22 19:13:40 2022, MaxMem= 16106127360 cpu:               1.8 elap:               0.1
 (Enter /opt/ap/G16/B01/g16/l101.exe)
 ----------------------------
 _conf043.gjf nmol_natom 1_19
 ----------------------------
 Symbolic Z-matrix:
 Charge =  0 Multiplicity = 1
 C
 C                    1     1.39448 
 C                    1     1.39874  2     119.56697 
 C                    2     1.39066  1     119.42697  3     2.53916  0
 H                    2     0.96213  1     119.80462  3    -177.7987  0
 N                    1     1.41693  2     123.7222  4    -177.74605  0
 C                    3     1.38667  1     120.1876  2    -2.50209  0
 H                    3     0.95673  1     118.82086  2     177.96737  0
 C                    4     1.38269  2     121.03929  1    -0.41221  0
 H                    4     0.98586  2     118.57913  1     178.77373  0
 C                    6     1.35501  1     127.62133  2     17.57863  0
 H                    6     0.89609  1     115.10512  2    -166.41127  0
 H                    7     0.98847  3     119.08118  1    -179.64585  0
 H                    9     0.98451  4     120.53756  2     177.22744  0
 C                    11    1.50275  6     115.46862  1    -145.     0
 O                    11    1.23496  6     123.151  1     35.      0
 H                    15    0.9872   11    107.47092  6    -116.36963  0
 H                    15    0.99976  11    109.69443  6     128.85346  0
 H                    15    0.97696  11    114.37009  6     6.05303  0
 
 ITRead=  0  0  0  0  0  0  0  0  0  0  0  0  0  0  0  0  0  0  0
 MicOpt= -1 -1 -1 -1 -1 -1 -1 -1 -1 -1 -1 -1 -1 -1 -1 -1 -1 -1 -1
 NAtoms=     19 NQM=       19 NQMF=       0 NMMI=      0 NMMIF=      0
                NMic=       0 NMicF=      0.
                    Isotopes and Nuclear Properties:
 (Nuclear quadrupole moments (NQMom) in fm**2, nuclear magnetic moments (NMagM)
  in nuclear magnetons)

  Atom         1           2           3           4           5           6           7           8           9          10
 IAtWgt=          12          12          12          12           1          14          12           1          12           1
 AtmWgt=  12.0000000  12.0000000  12.0000000  12.0000000   1.0078250  14.0030740  12.0000000   1.0078250  12.0000000   1.0078250
 NucSpn=           0           0           0           0           1           2           0           1           0           1
 AtZEff=  -0.0000000  -0.0000000  -0.0000000  -0.0000000  -0.0000000  -0.0000000  -0.0000000  -0.0000000  -0.0000000  -0.0000000
 NQMom=    0.0000000   0.0000000   0.0000000   0.0000000   0.0000000   2.0440000   0.0000000   0.0000000   0.0000000   0.0000000
 NMagM=    0.0000000   0.0000000   0.0000000   0.0000000   2.7928460   0.4037610   0.0000000   2.7928460   0.0000000   2.7928460
 AtZNuc=   6.0000000   6.0000000   6.0000000   6.0000000   1.0000000   7.0000000   6.0000000   1.0000000   6.0000000   1.0000000

  Atom        11          12          13          14          15          16          17          18          19
 IAtWgt=          12           1           1           1          12          16           1           1           1
 AtmWgt=  12.0000000   1.0078250   1.0078250   1.0078250  12.0000000  15.9949146   1.0078250   1.0078250   1.0078250
 NucSpn=           0           1           1           1           0           0           1           1           1
 AtZEff=  -0.0000000  -0.0000000  -0.0000000  -0.0000000  -0.0000000  -0.0000000  -0.0000000  -0.0000000  -0.0000000
 NQMom=    0.0000000   0.0000000   0.0000000   0.0000000   0.0000000   0.0000000   0.0000000   0.0000000   0.0000000
 NMagM=    0.0000000   2.7928460   2.7928460   2.7928460   0.0000000   0.0000000   2.7928460   2.7928460   2.7928460
 AtZNuc=   6.0000000   1.0000000   1.0000000   1.0000000   6.0000000   8.0000000   1.0000000   1.0000000   1.0000000
 Leave Link  101 at Tue Nov 22 19:13:40 2022, MaxMem= 16106127360 cpu:               5.2 elap:               0.2
 (Enter /opt/ap/G16/B01/g16/l202.exe)
                          Input orientation:                          
 ---------------------------------------------------------------------
 Center     Atomic      Atomic             Coordinates (Angstroms)
 Number     Number       Type             X           Y           Z
 ---------------------------------------------------------------------
      1          6           0        0.000000    0.000000    0.000000
      2          6           0        0.000000    0.000000    1.394475
      3          6           0        1.216591    0.000000   -0.690193
      4          6           0        1.210053    0.053661    2.077726
      5          1           0       -0.834249   -0.032067    1.872696
      6          7           0       -1.178505   -0.005866   -0.786634
      7          6           0        2.413939    0.052326    0.007287
      8          1           0        1.204393   -0.029731   -1.646384
      9          6           0        2.412261    0.098442    1.396177
     10          1           0        1.194755    0.071528    3.063305
     11          6           0       -2.436085    0.312014   -0.394861
     12          1           0       -1.055905   -0.195907   -1.653721
     13          1           0        3.263999    0.056828   -0.497149
     14          1           0        3.262484    0.177260    1.886251
     15          6           0       -3.534686   -0.485612   -1.039153
     16          8           0       -2.682684    1.193853    0.433805
     17          1           0       -4.085096    0.140869   -1.567482
     18          1           0       -4.139473   -0.856417   -0.334699
     19          1           0       -3.222315   -1.216592   -1.607085
 ---------------------------------------------------------------------
                    Distance matrix (angstroms):
                    1          2          3          4          5
     1  C    0.000000
     2  C    1.394475   0.000000
     3  C    1.398735   2.413697   0.000000
     4  C    2.405006   1.390661   2.768447   0.000000
     5  H    2.050363   0.962130   3.282586   2.056345   0.000000
     6  N    1.416934   2.479142   2.397044   3.730055   2.681648
     7  C    2.414517   2.784624   1.386671   2.395008   3.746678
     8  H    2.040105   3.270821   0.956732   3.725048   4.066939
     9  C    2.788908   2.414270   2.406711   1.382686   3.283889
    10  H    3.288829   2.053668   3.754243   0.985860   2.354812
    11  C    2.487525   3.038682   3.677855   4.413021   2.797515
    12  H    1.971829   3.231844   2.476087   4.372705   3.537173
    13  H    3.302132   3.772951   2.057273   3.293734   4.734944
    14  H    3.772687   3.304099   3.294718   2.065046   4.102100
    15  C    3.716136   4.318839   4.788761   5.702482   3.997115
    16  O    2.968209   3.089493   4.230012   4.376747   2.643861
    17  H    4.377768   5.047875   5.375627   6.429133   4.736321
    18  H    4.240367   4.567136   5.435738   5.938473   4.059144
    19  H    3.800806   4.568673   4.693045   5.902309   4.383473
                    6          7          8          9         10
     6  N    0.000000
     7  C    3.679585   0.000000
     8  H    2.533365   2.050454   0.000000
     9  C    4.203468   1.389657   3.276058   0.000000
    10  H    4.523316   3.290292   4.710788   2.064548   0.000000
    11  C    1.355007   4.873592   3.864736   5.172997   5.019935
    12  H    0.896095   3.854917   2.266411   4.627818   5.233291
    13  H    4.452366   0.988472   2.360129   2.076505   4.118108
    14  H    5.186544   2.065465   4.093666   0.984512   2.381625
    15  C    2.417750   6.063873   4.799524   6.452762   6.285554
    16  O    2.278455   5.240283   4.575338   5.299486   4.817512
    17  H    3.013226   6.687690   5.292828   7.141480   7.023235
    18  H    3.113683   6.624951   5.564246   6.843458   6.392301
    19  H    2.513196   5.998642   4.583222   6.518999   6.556089
                   11         12         13         14         15
    11  C    0.000000
    12  H    1.935874   0.000000
    13  H    5.706710   4.479186   0.000000
    14  H    6.139652   5.596351   2.386441   0.000000
    15  C    1.502746   2.570210   6.841793   7.429598   0.000000
    16  O    1.234965   2.989249   6.125564   6.203877   2.390840
    17  H    2.030657   3.049074   7.427104   8.118900   0.987198
    18  H    2.066491   3.418258   7.461354   7.796800   0.999760
    19  H    2.103397   2.395266   6.702672   7.496588   0.976962
                   16         17         18         19
    16  O    0.000000
    17  H    2.660956   0.000000
    18  H    2.629913   1.586598   0.000000
    19  H    3.204166   1.608931   1.609308   0.000000
 Stoichiometry    C8H9NO
 Framework group  C1[X(C8H9NO)]
 Deg. of freedom    51
 Full point group                 C1      NOp   1
 Largest Abelian subgroup         C1      NOp   1
 Largest concise Abelian subgroup C1      NOp   1
                         Standard orientation:                         
 ---------------------------------------------------------------------
 Center     Atomic      Atomic             Coordinates (Angstroms)
 Number     Number       Type             X           Y           Z
 ---------------------------------------------------------------------
      1          6           0       -0.295226   -0.308414   -0.044572
      2          6           0       -0.703431    0.998788   -0.307544
      3          6           0       -1.256417   -1.301945    0.168656
      4          6           0       -2.059866    1.305353   -0.301198
      5          1           0       -0.046092    1.678284   -0.486107
      6          7           0        1.061800   -0.711305    0.017556
      7          6           0       -2.604884   -0.978691    0.170145
      8          1           0       -0.965154   -2.200774    0.319017
      9          6           0       -3.009375    0.332990   -0.046710
     10          1           0       -2.333564    2.237185   -0.470600
     11          6           0        2.152811    0.077830    0.169227
     12          1           0        1.196444   -1.597111    0.003264
     13          1           0       -3.269950   -1.692786    0.327725
     14          1           0       -3.964955    0.566002   -0.003858
     15          6           0        3.383621   -0.372975   -0.565705
     16          8           0        2.155094    1.101507    0.860038
     17          1           0        4.070996   -0.585975    0.110096
     18          1           0        3.751850    0.385388   -1.103119
     19          1           0        3.243677   -1.140752   -1.153402
 ---------------------------------------------------------------------
 Rotational constants (GHZ):           3.6812732           0.7796595           0.6816520
 Leave Link  202 at Tue Nov 22 19:13:40 2022, MaxMem= 16106127360 cpu:               0.3 elap:               0.0
 (Enter /opt/ap/G16/B01/g16/l301.exe)
 Standard basis: 6-311++G(d,p) (5D, 7F)
 Ernie: Thresh=  0.10000D-02 Tol=  0.10000D-05 Strict=F.
 There are   293 symmetry adapted cartesian basis functions of A   symmetry.
 There are   283 symmetry adapted basis functions of A   symmetry.
   283 basis functions,   441 primitive gaussians,   293 cartesian basis functions
    36 alpha electrons       36 beta electrons
       nuclear repulsion energy       491.2206573977 Hartrees.
 IExCor= 4639 DFT=T Ex+Corr=wB97XD ExCW=0 ScaHFX=  1.000000
 ScaDFX=  1.000000  1.000000  1.000000  1.000000 ScalE2=  1.000000  1.000000
 IRadAn=      5 IRanWt=     -1 IRanGd=            0 ICorTp=0 IEmpDi=121
 HFx  wShort=  0.000000 wLong=  0.200000 cFull=  0.222036 cShort=  0.000000 cLong=  0.777964
 DFx  wShort=  0.000000 wLong=  0.200000 cFull=  0.000000 cShort=  0.000000 cLong=  1.000000
 NAtoms=   19 NActive=   19 NUniq=   19 SFac= 1.00D+00 NAtFMM=   60 NAOKFM=F Big=F
 Integral buffers will be    131072 words long.
 Raffenetti 2 integral format.
 Two-electron integral symmetry is turned on.
 R6Disp:  Grimme-D2 Dispersion energy=       -0.0092133030 Hartrees.
 Nuclear repulsion after empirical dispersion term =      491.2114440947 Hartrees.
 Leave Link  301 at Tue Nov 22 19:13:40 2022, MaxMem= 16106127360 cpu:               1.3 elap:               0.0
 (Enter /opt/ap/G16/B01/g16/l302.exe)
 NPDir=0 NMtPBC=     1 NCelOv=     1 NCel=       1 NClECP=     1 NCelD=      1
         NCelK=      1 NCelE2=     1 NClLst=     1 CellRange=     0.0.
 One-electron integrals computed using PRISM.
 One-electron integral symmetry used in STVInt
 NBasis=   283 RedAO= T EigKep=  2.53D-06  NBF=   283
 NBsUse=   282 1.00D-06 EigRej=  8.98D-07 NBFU=   282
 Precomputing XC quadrature grid using
 IXCGrd= 4 IRadAn=           5 IRanWt=          -1 IRanGd=           0 AccXCQ= 0.00D+00.
 Generated NRdTot=       0 NPtTot=           0 NUsed=           0 NTot=          32
 NSgBfM=   293   293   293   293   293 MxSgAt=    19 MxSgA2=    19.
 Leave Link  302 at Tue Nov 22 19:13:41 2022, MaxMem= 16106127360 cpu:               6.4 elap:               0.2
 (Enter /opt/ap/G16/B01/g16/l303.exe)
 DipDrv:  MaxL=1.
 Leave Link  303 at Tue Nov 22 19:13:41 2022, MaxMem= 16106127360 cpu:               1.4 elap:               0.0
 (Enter /opt/ap/G16/B01/g16/l401.exe)
 ExpMin= 3.60D-02 ExpMax= 8.59D+03 ExpMxC= 1.30D+03 IAcc=3 IRadAn=         5 AccDes= 0.00D+00
 Harris functional with IExCor= 4639 and IRadAn=       5 diagonalized for initial guess.
 HarFok:  IExCor= 4639 AccDes= 0.00D+00 IRadAn=         5 IDoV= 1 UseB2=F ITyADJ=14
 ICtDFT=  3500011 ScaDFX=  1.000000  1.000000  1.000000  1.000000
 FoFCou: FMM=F IPFlag=           0 FMFlag=      100000 FMFlg1=           0
         NFxFlg=           0 DoJE=T BraDBF=F KetDBF=T FulRan=T
         wScrn=  0.000000 ICntrl=       500 IOpCl=  0 I1Cent=   200000004 NGrid=           0
         NMat0=    1 NMatS0=      1 NMatT0=    0 NMatD0=    1 NMtDS0=    0 NMtDT0=    0
 Petite list used in FoFCou.
 Harris En= -420.979534070297    
 JPrj=0 DoOrth=F DoCkMO=F.
 Leave Link  401 at Tue Nov 22 19:13:41 2022, MaxMem= 16106127360 cpu:              15.6 elap:               0.5
 (Enter /opt/ap/G16/B01/g16/l502.exe)
 Integral symmetry usage will be decided dynamically.
 Closed shell SCF:
 Using DIIS extrapolation, IDIIS=  1040.
 NGot= 16106127360 LenX= 16105943385 LenY= 16105857095
 Requested convergence on RMS density matrix=1.00D-08 within 512 cycles.
 Requested convergence on MAX density matrix=1.00D-06.
 Requested convergence on             energy=1.00D-06.
 No special actions if energy rises.
 Fock matrices will be formed incrementally for  20 cycles.

 Cycle   1  Pass 1  IDiag  1:
 FoFJK:  IHMeth= 1 ICntrl=       0 DoSepK=T KAlg= 0 I1Cent=           0 FoldK=F
 IRaf=         1 NMat=       1 IRICut=       1 DoRegI=T DoRafI=F ISym2E= 0 IDoP0=0 IntGTp=1.
 FoFCou: FMM=F IPFlag=           0 FMFlag=      100000 FMFlg1=           0
         NFxFlg=           0 DoJE=T BraDBF=F KetDBF=F FulRan=T
         wScrn=  0.000000 ICntrl=       500 IOpCl=  0 I1Cent=           0 NGrid=           0
         NMat0=    1 NMatS0=      1 NMatT0=    0 NMatD0=    1 NMtDS0=    0 NMtDT0=    0
 Symmetry not used in FoFCou.
 E= -439.973180177375    
 DIIS: error= 6.45D-02 at cycle   1 NSaved=   1.
 NSaved= 1 IEnMin= 1 EnMin= -439.973180177375     IErMin= 1 ErrMin= 6.45D-02
 ErrMax= 6.45D-02  0.00D+00 EMaxC= 1.00D-01 BMatC= 9.49D-01 BMatP= 9.49D-01
 IDIUse=3 WtCom= 3.55D-01 WtEn= 6.45D-01
 Coeff-Com:  0.100D+01
 Coeff-En:   0.100D+01
 Coeff:      0.100D+01
 Gap=     0.435 Goal=   None    Shift=    0.000
 GapD=    0.435 DampG=2.000 DampE=0.500 DampFc=1.0000 IDamp=-1.
 RMSDP=1.05D-02 MaxDP=8.62D-01              OVMax= 1.67D-01

 Cycle   2  Pass 1  IDiag  1:
 RMSU=  6.40D-03    CP:  7.17D-01
 E= -440.054479473189     Delta-E=       -0.081299295814 Rises=F Damp=F
 DIIS: error= 1.23D-02 at cycle   2 NSaved=   2.
 NSaved= 2 IEnMin= 2 EnMin= -440.054479473189     IErMin= 2 ErrMin= 1.23D-02
 ErrMax= 1.23D-02  0.00D+00 EMaxC= 1.00D-01 BMatC= 8.86D-02 BMatP= 9.49D-01
 IDIUse=3 WtCom= 8.77D-01 WtEn= 1.23D-01
 Coeff-Com:  0.164D+00 0.836D+00
 Coeff-En:   0.243D+00 0.757D+00
 Coeff:      0.173D+00 0.827D+00
 Gap=     0.420 Goal=   None    Shift=    0.000
 RMSDP=5.77D-03 MaxDP=4.08D-01 DE=-8.13D-02 OVMax= 1.29D-01

 Cycle   3  Pass 1  IDiag  1:
 RMSU=  4.21D-03    CP:  5.97D-01  7.25D-01
 E= -440.096378776904     Delta-E=       -0.041899303715 Rises=F Damp=F
 DIIS: error= 9.86D-03 at cycle   3 NSaved=   3.
 NSaved= 3 IEnMin= 3 EnMin= -440.096378776904     IErMin= 3 ErrMin= 9.86D-03
 ErrMax= 9.86D-03  0.00D+00 EMaxC= 1.00D-01 BMatC= 3.95D-02 BMatP= 8.86D-02
 IDIUse=3 WtCom= 9.01D-01 WtEn= 9.86D-02
 Coeff-Com:  0.251D-01 0.405D+00 0.570D+00
 Coeff-En:   0.000D+00 0.310D+00 0.690D+00
 Coeff:      0.226D-01 0.395D+00 0.582D+00
 Gap=     0.363 Goal=   None    Shift=    0.000
 RMSDP=1.75D-03 MaxDP=5.52D-02 DE=-4.19D-02 OVMax= 7.39D-02

 Cycle   4  Pass 1  IDiag  1:
 RMSU=  1.03D-03    CP:  6.01D-01  8.35D-01  7.10D-01
 E= -440.132119917621     Delta-E=       -0.035741140717 Rises=F Damp=F
 DIIS: error= 2.38D-03 at cycle   4 NSaved=   4.
 NSaved= 4 IEnMin= 4 EnMin= -440.132119917621     IErMin= 4 ErrMin= 2.38D-03
 ErrMax= 2.38D-03  0.00D+00 EMaxC= 1.00D-01 BMatC= 1.29D-03 BMatP= 3.95D-02
 IDIUse=3 WtCom= 9.76D-01 WtEn= 2.38D-02
 Coeff-Com:  0.890D-02 0.178D+00 0.289D+00 0.524D+00
 Coeff-En:   0.000D+00 0.000D+00 0.000D+00 0.100D+01
 Coeff:      0.869D-02 0.174D+00 0.282D+00 0.536D+00
 Gap=     0.333 Goal=   None    Shift=    0.000
 RMSDP=2.78D-04 MaxDP=9.41D-03 DE=-3.57D-02 OVMax= 8.79D-03

 Cycle   5  Pass 1  IDiag  1:
 RMSU=  2.21D-04    CP:  6.01D-01  8.32D-01  7.29D-01  8.59D-01
 E= -440.133172484479     Delta-E=       -0.001052566858 Rises=F Damp=F
 DIIS: error= 4.38D-04 at cycle   5 NSaved=   5.
 NSaved= 5 IEnMin= 5 EnMin= -440.133172484479     IErMin= 5 ErrMin= 4.38D-04
 ErrMax= 4.38D-04  0.00D+00 EMaxC= 1.00D-01 BMatC= 6.36D-05 BMatP= 1.29D-03
 IDIUse=3 WtCom= 9.96D-01 WtEn= 4.38D-03
 Coeff-Com:  0.546D-03 0.136D-01 0.347D-01 0.184D+00 0.767D+00
 Coeff-En:   0.000D+00 0.000D+00 0.000D+00 0.000D+00 0.100D+01
 Coeff:      0.544D-03 0.136D-01 0.346D-01 0.183D+00 0.768D+00
 Gap=     0.333 Goal=   None    Shift=    0.000
 RMSDP=1.41D-04 MaxDP=8.98D-03 DE=-1.05D-03 OVMax= 3.20D-03

 Cycle   6  Pass 1  IDiag  1:
 RMSU=  8.35D-05    CP:  5.98D-01  8.34D-01  7.46D-01  8.86D-01  1.05D+00
 E= -440.133218466296     Delta-E=       -0.000045981817 Rises=F Damp=F
 DIIS: error= 3.13D-04 at cycle   6 NSaved=   6.
 NSaved= 6 IEnMin= 6 EnMin= -440.133218466296     IErMin= 6 ErrMin= 3.13D-04
 ErrMax= 3.13D-04  0.00D+00 EMaxC= 1.00D-01 BMatC= 2.31D-05 BMatP= 6.36D-05
 IDIUse=3 WtCom= 9.97D-01 WtEn= 3.13D-03
 Coeff-Com: -0.120D-02-0.208D-01-0.250D-01 0.191D-01 0.441D+00 0.587D+00
 Coeff-En:   0.000D+00 0.000D+00 0.000D+00 0.000D+00 0.411D-01 0.959D+00
 Coeff:     -0.119D-02-0.208D-01-0.249D-01 0.191D-01 0.439D+00 0.589D+00
 Gap=     0.333 Goal=   None    Shift=    0.000
 RMSDP=4.74D-05 MaxDP=1.79D-03 DE=-4.60D-05 OVMax= 1.37D-03

 Cycle   7  Pass 1  IDiag  1:
 RMSU=  2.93D-05    CP:  5.97D-01  8.34D-01  7.48D-01  9.04D-01  1.15D+00
                    CP:  1.03D+00
 E= -440.133237382149     Delta-E=       -0.000018915854 Rises=F Damp=F
 DIIS: error= 7.94D-05 at cycle   7 NSaved=   7.
 NSaved= 7 IEnMin= 7 EnMin= -440.133237382149     IErMin= 7 ErrMin= 7.94D-05
 ErrMax= 7.94D-05  0.00D+00 EMaxC= 1.00D-01 BMatC= 5.41D-07 BMatP= 2.31D-05
 IDIUse=1 WtCom= 1.00D+00 WtEn= 0.00D+00
 Coeff-Com: -0.293D-03-0.551D-02-0.688D-02-0.122D-01 0.208D-01 0.977D-01
 Coeff-Com:  0.906D+00
 Coeff:     -0.293D-03-0.551D-02-0.688D-02-0.122D-01 0.208D-01 0.977D-01
 Coeff:      0.906D+00
 Gap=     0.333 Goal=   None    Shift=    0.000
 RMSDP=1.92D-05 MaxDP=6.32D-04 DE=-1.89D-05 OVMax= 5.84D-04

 Cycle   8  Pass 1  IDiag  1:
 RMSU=  8.08D-06    CP:  5.97D-01  8.33D-01  7.50D-01  9.05D-01  1.19D+00
                    CP:  1.14D+00  1.11D+00
 E= -440.133238608020     Delta-E=       -0.000001225871 Rises=F Damp=F
 DIIS: error= 2.22D-05 at cycle   8 NSaved=   8.
 NSaved= 8 IEnMin= 8 EnMin= -440.133238608020     IErMin= 8 ErrMin= 2.22D-05
 ErrMax= 2.22D-05  0.00D+00 EMaxC= 1.00D-01 BMatC= 1.30D-07 BMatP= 5.41D-07
 IDIUse=1 WtCom= 1.00D+00 WtEn= 0.00D+00
 Coeff-Com:  0.709D-04 0.914D-03 0.121D-02-0.863D-02-0.644D-01-0.628D-01
 Coeff-Com:  0.332D+00 0.802D+00
 Coeff:      0.709D-04 0.914D-03 0.121D-02-0.863D-02-0.644D-01-0.628D-01
 Coeff:      0.332D+00 0.802D+00
 Gap=     0.333 Goal=   None    Shift=    0.000
 RMSDP=7.46D-06 MaxDP=2.44D-04 DE=-1.23D-06 OVMax= 3.61D-04

 Cycle   9  Pass 1  IDiag  1:
 RMSU=  3.21D-06    CP:  5.97D-01  8.33D-01  7.51D-01  9.03D-01  1.21D+00
                    CP:  1.18D+00  1.22D+00  1.22D+00
 E= -440.133238843070     Delta-E=       -0.000000235050 Rises=F Damp=F
 DIIS: error= 1.22D-05 at cycle   9 NSaved=   9.
 NSaved= 9 IEnMin= 9 EnMin= -440.133238843070     IErMin= 9 ErrMin= 1.22D-05
 ErrMax= 1.22D-05  0.00D+00 EMaxC= 1.00D-01 BMatC= 1.08D-08 BMatP= 1.30D-07
 IDIUse=1 WtCom= 1.00D+00 WtEn= 0.00D+00
 Coeff-Com:  0.552D-04 0.920D-03 0.129D-02-0.104D-02-0.210D-01-0.291D-01
 Coeff-Com:  0.748D-02 0.234D+00 0.808D+00
 Coeff:      0.552D-04 0.920D-03 0.129D-02-0.104D-02-0.210D-01-0.291D-01
 Coeff:      0.748D-02 0.234D+00 0.808D+00
 Gap=     0.333 Goal=   None    Shift=    0.000
 RMSDP=2.56D-06 MaxDP=1.04D-04 DE=-2.35D-07 OVMax= 8.27D-05

 Cycle  10  Pass 1  IDiag  1:
 RMSU=  1.08D-06    CP:  5.97D-01  8.33D-01  7.51D-01  9.02D-01  1.21D+00
                    CP:  1.19D+00  1.23D+00  1.32D+00  1.29D+00
 E= -440.133238865044     Delta-E=       -0.000000021974 Rises=F Damp=F
 DIIS: error= 2.27D-06 at cycle  10 NSaved=  10.
 NSaved=10 IEnMin=10 EnMin= -440.133238865044     IErMin=10 ErrMin= 2.27D-06
 ErrMax= 2.27D-06  0.00D+00 EMaxC= 1.00D-01 BMatC= 1.33D-09 BMatP= 1.08D-08
 IDIUse=1 WtCom= 1.00D+00 WtEn= 0.00D+00
 Coeff-Com:  0.340D-05 0.113D-03 0.198D-03 0.101D-02 0.398D-02 0.183D-02
 Coeff-Com: -0.418D-01-0.687D-01 0.179D+00 0.925D+00
 Coeff:      0.340D-05 0.113D-03 0.198D-03 0.101D-02 0.398D-02 0.183D-02
 Coeff:     -0.418D-01-0.687D-01 0.179D+00 0.925D+00
 Gap=     0.333 Goal=   None    Shift=    0.000
 RMSDP=1.06D-06 MaxDP=3.89D-05 DE=-2.20D-08 OVMax= 4.75D-05

 Cycle  11  Pass 1  IDiag  1:
 RMSU=  4.36D-07    CP:  5.97D-01  8.33D-01  7.51D-01  9.01D-01  1.21D+00
                    CP:  1.19D+00  1.23D+00  1.37D+00  1.45D+00  1.16D+00
 E= -440.133238868693     Delta-E=       -0.000000003649 Rises=F Damp=F
 DIIS: error= 1.23D-06 at cycle  11 NSaved=  11.
 NSaved=11 IEnMin=11 EnMin= -440.133238868693     IErMin=11 ErrMin= 1.23D-06
 ErrMax= 1.23D-06  0.00D+00 EMaxC= 1.00D-01 BMatC= 1.62D-10 BMatP= 1.33D-09
 IDIUse=1 WtCom= 1.00D+00 WtEn= 0.00D+00
 Coeff-Com: -0.468D-05-0.712D-04-0.799D-04 0.406D-03 0.326D-02 0.369D-02
 Coeff-Com: -0.988D-02-0.446D-01-0.585D-01 0.203D+00 0.903D+00
 Coeff:     -0.468D-05-0.712D-04-0.799D-04 0.406D-03 0.326D-02 0.369D-02
 Coeff:     -0.988D-02-0.446D-01-0.585D-01 0.203D+00 0.903D+00
 Gap=     0.333 Goal=   None    Shift=    0.000
 RMSDP=3.04D-07 MaxDP=1.00D-05 DE=-3.65D-09 OVMax= 1.26D-05

 Cycle  12  Pass 1  IDiag  1:
 RMSU=  1.29D-07    CP:  5.97D-01  8.33D-01  7.51D-01  9.01D-01  1.21D+00
                    CP:  1.19D+00  1.23D+00  1.37D+00  1.48D+00  1.26D+00
                    CP:  1.38D+00
 E= -440.133238869130     Delta-E=       -0.000000000437 Rises=F Damp=F
 DIIS: error= 2.03D-07 at cycle  12 NSaved=  12.
 NSaved=12 IEnMin=12 EnMin= -440.133238869130     IErMin=12 ErrMin= 2.03D-07
 ErrMax= 2.03D-07  0.00D+00 EMaxC= 1.00D-01 BMatC= 1.65D-11 BMatP= 1.62D-10
 IDIUse=1 WtCom= 1.00D+00 WtEn= 0.00D+00
 Coeff-Com: -0.922D-06-0.231D-04-0.328D-04-0.493D-04-0.239D-03 0.242D-03
 Coeff-Com:  0.420D-02 0.343D-02-0.277D-01-0.804D-01 0.116D+00 0.984D+00
 Coeff:     -0.922D-06-0.231D-04-0.328D-04-0.493D-04-0.239D-03 0.242D-03
 Coeff:      0.420D-02 0.343D-02-0.277D-01-0.804D-01 0.116D+00 0.984D+00
 Gap=     0.333 Goal=   None    Shift=    0.000
 RMSDP=1.20D-07 MaxDP=6.69D-06 DE=-4.37D-10 OVMax= 4.78D-06

 Cycle  13  Pass 1  IDiag  1:
 RMSU=  5.39D-08    CP:  5.97D-01  8.33D-01  7.51D-01  9.01D-01  1.21D+00
                    CP:  1.19D+00  1.23D+00  1.37D+00  1.48D+00  1.28D+00
                    CP:  1.53D+00  1.23D+00
 E= -440.133238869174     Delta-E=       -0.000000000044 Rises=F Damp=F
 DIIS: error= 8.25D-08 at cycle  13 NSaved=  13.
 NSaved=13 IEnMin=13 EnMin= -440.133238869174     IErMin=13 ErrMin= 8.25D-08
 ErrMax= 8.25D-08  0.00D+00 EMaxC= 1.00D-01 BMatC= 2.57D-12 BMatP= 1.65D-11
 IDIUse=1 WtCom= 1.00D+00 WtEn= 0.00D+00
 Coeff-Com:  0.111D-06-0.447D-06-0.247D-05-0.479D-04-0.410D-03-0.266D-03
 Coeff-Com:  0.223D-02 0.539D-02-0.295D-02-0.447D-01-0.618D-01 0.302D+00
 Coeff-Com:  0.800D+00
 Coeff:      0.111D-06-0.447D-06-0.247D-05-0.479D-04-0.410D-03-0.266D-03
 Coeff:      0.223D-02 0.539D-02-0.295D-02-0.447D-01-0.618D-01 0.302D+00
 Coeff:      0.800D+00
 Gap=     0.333 Goal=   None    Shift=    0.000
 RMSDP=4.01D-08 MaxDP=2.27D-06 DE=-4.41D-11 OVMax= 1.36D-06

 Cycle  14  Pass 1  IDiag  1:
 RMSU=  2.12D-08    CP:  5.97D-01  8.33D-01  7.51D-01  9.01D-01  1.21D+00
                    CP:  1.19D+00  1.23D+00  1.36D+00  1.48D+00  1.28D+00
                    CP:  1.56D+00  1.29D+00  1.21D+00
 E= -440.133238869178     Delta-E=       -0.000000000004 Rises=F Damp=F
 DIIS: error= 2.69D-08 at cycle  14 NSaved=  14.
 NSaved=14 IEnMin=14 EnMin= -440.133238869178     IErMin=14 ErrMin= 2.69D-08
 ErrMax= 2.69D-08  0.00D+00 EMaxC= 1.00D-01 BMatC= 2.30D-13 BMatP= 2.57D-12
 IDIUse=1 WtCom= 1.00D+00 WtEn= 0.00D+00
 Coeff-Com:  0.993D-07 0.198D-05 0.232D-05-0.418D-05-0.656D-04-0.747D-04
 Coeff-Com:  0.263D-04 0.736D-03 0.208D-02-0.533D-03-0.279D-01-0.396D-01
 Coeff-Com:  0.196D+00 0.870D+00
 Coeff:      0.993D-07 0.198D-05 0.232D-05-0.418D-05-0.656D-04-0.747D-04
 Coeff:      0.263D-04 0.736D-03 0.208D-02-0.533D-03-0.279D-01-0.396D-01
 Coeff:      0.196D+00 0.870D+00
 Gap=     0.333 Goal=   None    Shift=    0.000
 RMSDP=1.79D-08 MaxDP=6.79D-07 DE=-3.87D-12 OVMax= 4.91D-07

 Cycle  15  Pass 1  IDiag  1:
 RMSU=  6.01D-09    CP:  5.97D-01  8.33D-01  7.51D-01  9.01D-01  1.21D+00
                    CP:  1.19D+00  1.23D+00  1.36D+00  1.48D+00  1.28D+00
                    CP:  1.56D+00  1.30D+00  1.35D+00  1.34D+00
 E= -440.133238869176     Delta-E=        0.000000000002 Rises=F Damp=F
 DIIS: error= 1.31D-08 at cycle  15 NSaved=  15.
 NSaved=15 IEnMin=14 EnMin= -440.133238869178     IErMin=15 ErrMin= 1.31D-08
 ErrMax= 1.31D-08  0.00D+00 EMaxC= 1.00D-01 BMatC= 2.47D-14 BMatP= 2.30D-13
 IDIUse=1 WtCom= 1.00D+00 WtEn= 0.00D+00
 Coeff-Com:  0.724D-09 0.299D-06 0.557D-06 0.550D-05 0.356D-04 0.227D-04
 Coeff-Com: -0.247D-03-0.471D-03 0.627D-03 0.529D-02 0.267D-02-0.412D-01
 Coeff-Com: -0.569D-01 0.133D+00 0.957D+00
 Coeff:      0.724D-09 0.299D-06 0.557D-06 0.550D-05 0.356D-04 0.227D-04
 Coeff:     -0.247D-03-0.471D-03 0.627D-03 0.529D-02 0.267D-02-0.412D-01
 Coeff:     -0.569D-01 0.133D+00 0.957D+00
 Gap=     0.333 Goal=   None    Shift=    0.000
 RMSDP=6.78D-09 MaxDP=4.02D-07 DE= 2.05D-12 OVMax= 2.14D-07

 SCF Done:  E(RwB97XD) =  -440.133238869     A.U. after   15 cycles
            NFock= 15  Conv=0.68D-08     -V/T= 2.0002
 KE= 4.400238887596D+02 PE=-2.008755475461D+03 EE= 6.373869037378D+02
 Leave Link  502 at Tue Nov 22 19:14:02 2022, MaxMem= 16106127360 cpu:             666.4 elap:              21.0
 (Enter /opt/ap/G16/B01/g16/l601.exe)
 Copying SCF densities to generalized density rwf, IOpCl= 0 IROHF=0.

 **********************************************************************

            Population analysis using the SCF Density.

 **********************************************************************

 Orbital symmetries:
       Occupied  (A) (A) (A) (A) (A) (A) (A) (A) (A) (A) (A) (A)
                 (A) (A) (A) (A) (A) (A) (A) (A) (A) (A) (A) (A)
                 (A) (A) (A) (A) (A) (A) (A) (A) (A) (A) (A) (A)
       Virtual   (A) (A) (A) (A) (A) (A) (A) (A) (A) (A) (A) (A)
                 (A) (A) (A) (A) (A) (A) (A) (A) (A) (A) (A) (A)
                 (A) (A) (A) (A) (A) (A) (A) (A) (A) (A) (A) (A)
                 (A) (A) (A) (A) (A) (A) (A) (A) (A) (A) (A) (A)
                 (A) (A) (A) (A) (A) (A) (A) (A) (A) (A) (A) (A)
                 (A) (A) (A) (A) (A) (A) (A) (A) (A) (A) (A) (A)
                 (A) (A) (A) (A) (A) (A) (A) (A) (A) (A) (A) (A)
                 (A) (A) (A) (A) (A) (A) (A) (A) (A) (A) (A) (A)
                 (A) (A) (A) (A) (A) (A) (A) (A) (A) (A) (A) (A)
                 (A) (A) (A) (A) (A) (A) (A) (A) (A) (A) (A) (A)
                 (A) (A) (A) (A) (A) (A) (A) (A) (A) (A) (A) (A)
                 (A) (A) (A) (A) (A) (A) (A) (A) (A) (A) (A) (A)
                 (A) (A) (A) (A) (A) (A) (A) (A) (A) (A) (A) (A)
                 (A) (A) (A) (A) (A) (A) (A) (A) (A) (A) (A) (A)
                 (A) (A) (A) (A) (A) (A) (A) (A) (A) (A) (A) (A)
                 (A) (A) (A) (A) (A) (A) (A) (A) (A) (A) (A) (A)
                 (A) (A) (A) (A) (A) (A) (A) (A) (A) (A) (A) (A)
                 (A) (A) (A) (A) (A) (A) (A) (A) (A) (A) (A) (A)
                 (A) (A) (A) (A) (A) (A) (A) (A) (A) (A) (A) (A)
                 (A) (A) (A) (A) (A) (A) (A) (A) (A) (A) (A) (A)
                 (A) (A) (A) (A) (A) (A)
 The electronic state is 1-A.
 Alpha  occ. eigenvalues --  -19.22351 -14.46204 -10.40200 -10.34055 -10.28217
 Alpha  occ. eigenvalues --  -10.27963 -10.27825 -10.27504 -10.27278 -10.26195
 Alpha  occ. eigenvalues --   -1.14925  -1.06210  -0.96296  -0.88441  -0.86540
 Alpha  occ. eigenvalues --   -0.84764  -0.74889  -0.73111  -0.69127  -0.65755
 Alpha  occ. eigenvalues --   -0.61365  -0.58901  -0.56212  -0.55258  -0.54135
 Alpha  occ. eigenvalues --   -0.52940  -0.52351  -0.50641  -0.48273  -0.45960
 Alpha  occ. eigenvalues --   -0.44827  -0.44568  -0.39556  -0.35041  -0.33523
 Alpha  occ. eigenvalues --   -0.30008
 Alpha virt. eigenvalues --    0.03336   0.04021   0.04602   0.04960   0.05160
 Alpha virt. eigenvalues --    0.06295   0.06704   0.07258   0.08726   0.08962
 Alpha virt. eigenvalues --    0.09318   0.11139   0.11738   0.12030   0.13639
 Alpha virt. eigenvalues --    0.13883   0.14575   0.15576   0.16055   0.16400
 Alpha virt. eigenvalues --    0.16890   0.17371   0.17757   0.18399   0.18505
 Alpha virt. eigenvalues --    0.19090   0.19621   0.19797   0.20476   0.20547
 Alpha virt. eigenvalues --    0.20957   0.21830   0.22177   0.22593   0.23935
 Alpha virt. eigenvalues --    0.24602   0.24868   0.25846   0.26405   0.26907
 Alpha virt. eigenvalues --    0.27090   0.27703   0.28707   0.29332   0.29792
 Alpha virt. eigenvalues --    0.30566   0.30861   0.31662   0.33310   0.33698
 Alpha virt. eigenvalues --    0.34731   0.35830   0.36441   0.36981   0.37451
 Alpha virt. eigenvalues --    0.38842   0.39098   0.39326   0.39674   0.41959
 Alpha virt. eigenvalues --    0.42427   0.43049   0.43831   0.45096   0.45253
 Alpha virt. eigenvalues --    0.45735   0.46581   0.50738   0.53741   0.55385
 Alpha virt. eigenvalues --    0.58389   0.59238   0.59873   0.62369   0.63366
 Alpha virt. eigenvalues --    0.64364   0.64839   0.65527   0.66167   0.66435
 Alpha virt. eigenvalues --    0.68644   0.70030   0.70492   0.71421   0.71746
 Alpha virt. eigenvalues --    0.74306   0.76105   0.76271   0.77363   0.77984
 Alpha virt. eigenvalues --    0.81483   0.81657   0.82886   0.83123   0.84532
 Alpha virt. eigenvalues --    0.86428   0.87320   0.89441   0.92526   0.92845
 Alpha virt. eigenvalues --    0.94386   0.94942   0.95369   0.96821   0.97651
 Alpha virt. eigenvalues --    0.98190   1.00039   1.01399   1.02975   1.04851
 Alpha virt. eigenvalues --    1.05717   1.08948   1.11207   1.13087   1.13295
 Alpha virt. eigenvalues --    1.17040   1.18012   1.19646   1.22672   1.23291
 Alpha virt. eigenvalues --    1.27567   1.29425   1.31874   1.34024   1.36858
 Alpha virt. eigenvalues --    1.38984   1.44210   1.47269   1.52223   1.57047
 Alpha virt. eigenvalues --    1.58937   1.61175   1.61972   1.63120   1.64930
 Alpha virt. eigenvalues --    1.66449   1.66973   1.67976   1.68796   1.70918
 Alpha virt. eigenvalues --    1.71643   1.72947   1.75146   1.76446   1.78161
 Alpha virt. eigenvalues --    1.80552   1.85553   1.85642   1.88972   1.89976
 Alpha virt. eigenvalues --    1.93047   1.94342   1.96295   1.97417   1.98494
 Alpha virt. eigenvalues --    2.01167   2.01914   2.04702   2.05051   2.07010
 Alpha virt. eigenvalues --    2.08350   2.10599   2.13775   2.14435   2.15417
 Alpha virt. eigenvalues --    2.22439   2.25482   2.27725   2.32641   2.35727
 Alpha virt. eigenvalues --    2.40873   2.42491   2.45933   2.51604   2.51980
 Alpha virt. eigenvalues --    2.53974   2.55406   2.59637   2.61164   2.64304
 Alpha virt. eigenvalues --    2.64917   2.69075   2.69950   2.71651   2.76209
 Alpha virt. eigenvalues --    2.78841   2.82286   2.82679   2.83824   2.84499
 Alpha virt. eigenvalues --    2.86515   2.90625   2.91507   2.92470   2.93480
 Alpha virt. eigenvalues --    2.94793   2.95214   2.95888   3.00302   3.01678
 Alpha virt. eigenvalues --    3.02999   3.03908   3.05286   3.08387   3.14670
 Alpha virt. eigenvalues --    3.19644   3.21725   3.23649   3.27471   3.33361
 Alpha virt. eigenvalues --    3.41658   3.44212   3.47697   3.49711   3.53167
 Alpha virt. eigenvalues --    3.61036   3.67234   3.71803   3.72758   3.91074
 Alpha virt. eigenvalues --    3.97825   4.03547   4.08060   4.12592   4.19182
 Alpha virt. eigenvalues --    4.30823   4.34641   4.37617   4.40566   4.44463
 Alpha virt. eigenvalues --    4.96028   5.17413   5.20025   5.23463   5.35002
 Alpha virt. eigenvalues --    5.87543  23.87600  23.99766  24.14717  24.22899
 Alpha virt. eigenvalues --   24.30567  24.33459  24.37953  24.42873  35.88219
 Alpha virt. eigenvalues --   50.13655
          Condensed to atoms (all electrons):
               1          2          3          4          5          6
     1  C    6.848986   0.240181  -0.140394  -0.463680  -0.044295  -0.031718
     2  C    0.240181   7.411986  -1.849166  -0.532255   0.575107  -0.091464
     3  C   -0.140394  -1.849166   7.781023   0.884411  -0.094186  -0.064356
     4  C   -0.463680  -0.532255   0.884411   6.084250  -0.127124  -0.021297
     5  H   -0.044295   0.575107  -0.094186  -0.127124   0.494873  -0.040746
     6  N   -0.031718  -0.091464  -0.064356  -0.021297  -0.040746   7.396383
     7  C   -0.316059   0.258898   0.045438  -0.225741   0.007539   0.007247
     8  H   -0.093486  -0.037775   0.504578   0.029723  -0.003235   0.001910
     9  C    0.050455  -0.122915  -0.571486   0.447115   0.022779   0.026131
    10  H    0.018786  -0.065944   0.034910   0.417466  -0.013697  -0.001663
    11  C    0.035614  -0.003533  -0.172241  -0.158102   0.050945  -0.120025
    12  H   -0.004640  -0.026958   0.039916  -0.003159   0.001489   0.356013
    13  H    0.029734   0.034699  -0.108723  -0.020161   0.000786  -0.004414
    14  H    0.017249  -0.011979  -0.015900  -0.057049   0.000889   0.001453
    15  C   -0.148019  -0.028599   0.054521   0.056726  -0.015026  -0.238853
    16  O    0.006074  -0.082669   0.045526   0.036467  -0.003084  -0.150601
    17  H   -0.016319   0.005892  -0.004525  -0.001604   0.000906   0.002417
    18  H   -0.004044  -0.005306   0.011879   0.005034  -0.004181   0.014431
    19  H   -0.024054   0.024379  -0.017786  -0.000501  -0.000771   0.031623
               7          8          9         10         11         12
     1  C   -0.316059  -0.093486   0.050455   0.018786   0.035614  -0.004640
     2  C    0.258898  -0.037775  -0.122915  -0.065944  -0.003533  -0.026958
     3  C    0.045438   0.504578  -0.571486   0.034910  -0.172241   0.039916
     4  C   -0.225741   0.029723   0.447115   0.417466  -0.158102  -0.003159
     5  H    0.007539  -0.003235   0.022779  -0.013697   0.050945   0.001489
     6  N    0.007247   0.001910   0.026131  -0.001663  -0.120025   0.356013
     7  C    5.533831  -0.067301   0.583680  -0.002512   0.009562   0.006844
     8  H   -0.067301   0.554025  -0.009656   0.001487   0.004577  -0.004689
     9  C    0.583680  -0.009656   5.551676  -0.069692   0.031266  -0.008262
    10  H   -0.002512   0.001487  -0.069692   0.487254  -0.002529   0.000448
    11  C    0.009562   0.004577   0.031266  -0.002529   6.210949  -0.012048
    12  H    0.006844  -0.004689  -0.008262   0.000448  -0.012048   0.369179
    13  H    0.435697  -0.021131  -0.039692  -0.000459  -0.001896   0.002875
    14  H   -0.055962  -0.000622   0.474958  -0.011480   0.000374  -0.000291
    15  C   -0.000793  -0.000312   0.005799  -0.000486  -0.147337  -0.022514
    16  O   -0.005622  -0.001846   0.001804  -0.000377   0.423079   0.007785
    17  H    0.000321   0.000087  -0.000082  -0.000018  -0.047701  -0.001388
    18  H    0.000259   0.000149   0.000014   0.000060  -0.096524  -0.001926
    19  H    0.000294   0.000800   0.001884  -0.000089  -0.074522  -0.003906
              13         14         15         16         17         18
     1  C    0.029734   0.017249  -0.148019   0.006074  -0.016319  -0.004044
     2  C    0.034699  -0.011979  -0.028599  -0.082669   0.005892  -0.005306
     3  C   -0.108723  -0.015900   0.054521   0.045526  -0.004525   0.011879
     4  C   -0.020161  -0.057049   0.056726   0.036467  -0.001604   0.005034
     5  H    0.000786   0.000889  -0.015026  -0.003084   0.000906  -0.004181
     6  N   -0.004414   0.001453  -0.238853  -0.150601   0.002417   0.014431
     7  C    0.435697  -0.055962  -0.000793  -0.005622   0.000321   0.000259
     8  H   -0.021131  -0.000622  -0.000312  -0.001846   0.000087   0.000149
     9  C   -0.039692   0.474958   0.005799   0.001804  -0.000082   0.000014
    10  H   -0.000459  -0.011480  -0.000486  -0.000377  -0.000018   0.000060
    11  C   -0.001896   0.000374  -0.147337   0.423079  -0.047701  -0.096524
    12  H    0.002875  -0.000291  -0.022514   0.007785  -0.001388  -0.001926
    13  H    0.498837  -0.009122  -0.000342   0.000201  -0.000005  -0.000007
    14  H   -0.009122   0.496767   0.000159  -0.000108  -0.000018   0.000003
    15  C   -0.000342   0.000159   5.670564  -0.013275   0.429069   0.466398
    16  O    0.000201  -0.000108  -0.013275   8.064733  -0.006995  -0.008777
    17  H   -0.000005  -0.000018   0.429069  -0.006995   0.497902  -0.026934
    18  H   -0.000007   0.000003   0.466398  -0.008777  -0.026934   0.483838
    19  H   -0.000167   0.000048   0.408566   0.005335  -0.026100  -0.031943
              19
     1  C   -0.024054
     2  C    0.024379
     3  C   -0.017786
     4  C   -0.000501
     5  H   -0.000771
     6  N    0.031623
     7  C    0.000294
     8  H    0.000800
     9  C    0.001884
    10  H   -0.000089
    11  C   -0.074522
    12  H   -0.003906
    13  H   -0.000167
    14  H    0.000048
    15  C    0.408566
    16  O    0.005335
    17  H   -0.026100
    18  H   -0.031943
    19  H    0.566437
 Mulliken charges:
               1
     1  C    0.039629
     2  C    0.307422
     3  C   -0.363441
     4  C   -0.350519
     5  H    0.191034
     6  N   -0.072471
     7  C   -0.215619
     8  H    0.142716
     9  C   -0.375776
    10  H    0.208534
    11  C    0.070092
    12  H    0.305232
    13  H    0.203290
    14  H    0.170630
    15  C   -0.476248
    16  O   -0.317649
    17  H    0.195095
    18  H    0.197576
    19  H    0.140472
 Sum of Mulliken charges =  -0.00000
 Mulliken charges with hydrogens summed into heavy atoms:
               1
     1  C    0.039629
     2  C    0.498456
     3  C   -0.220724
     4  C   -0.141985
     6  N    0.232761
     7  C   -0.012330
     9  C   -0.205146
    11  C    0.070092
    15  C    0.056895
    16  O   -0.317649
 Electronic spatial extent (au):  <R**2>=           1664.0243
 Charge=             -0.0000 electrons
 Dipole moment (field-independent basis, Debye):
    X=              0.0259    Y=             -3.0569    Z=             -1.8498  Tot=              3.5731
 Quadrupole moment (field-independent basis, Debye-Ang):
   XX=            -51.3189   YY=            -54.2673   ZZ=            -63.3102
   XY=             -6.9239   XZ=             -5.1515   YZ=             -4.1205
 Traceless Quadrupole moment (field-independent basis, Debye-Ang):
   XX=              4.9799   YY=              2.0315   ZZ=             -7.0114
   XY=             -6.9239   XZ=             -5.1515   YZ=             -4.1205
 Octapole moment (field-independent basis, Debye-Ang**2):
  XXX=             12.8864  YYY=             -7.3448  ZZZ=              0.6081  XYY=             -5.0010
  XXY=            -13.6385  XXZ=             -8.5899  XZZ=              9.4801  YZZ=             -1.3400
  YYZ=             -3.2586  XYZ=             -3.5307
 Hexadecapole moment (field-independent basis, Debye-Ang**3):
 XXXX=          -1569.2976 YYYY=           -341.1761 ZZZZ=           -127.9478 XXXY=            -30.4010
 XXXZ=            -33.8914 YYYX=            -15.2067 YYYZ=             -9.7717 ZZZX=             -3.7034
 ZZZY=              1.2515 XXYY=           -341.0240 XXZZ=           -327.4184 YYZZ=            -87.8168
 XXYZ=            -21.3651 YYXZ=             -7.3432 ZZXY=             -3.4996
 N-N= 4.912114440947D+02 E-N=-2.008755474501D+03  KE= 4.400238887596D+02
 No NMR shielding tensors so no spin-rotation constants.
 Leave Link  601 at Tue Nov 22 19:14:02 2022, MaxMem= 16106127360 cpu:               4.1 elap:               0.2
 (Enter /opt/ap/G16/B01/g16/l9999.exe)
 1\1\GINC-N41\SP\RwB97XD\6-311++G(d,p)\C8H9N1O1\ROOT\22-Nov-2022\0\\#P 
 wB97XD/6-311++G(d,p) scf=maxcycle=512\\_conf043.gjf nmol_natom 1_19\\0
 ,1\C\C,1,1.39447505\C,1,1.39873503,2,119.56697224\C,2,1.39066123,1,119
 .42697207,3,2.53915756,0\H,2,0.96213008,1,119.8046163,3,-177.79870417,
 0\N,1,1.41693372,2,123.72220125,4,-177.74604849,0\C,3,1.38667133,1,120
 .18759987,2,-2.5020857,0\H,3,0.95673174,1,118.82085988,2,177.96737168,
 0\C,4,1.38268572,2,121.03929493,1,-0.41221113,0\H,4,0.9858595,2,118.57
 91267,1,178.77373233,0\C,6,1.35500692,1,127.62132737,2,17.57862687,0\H
 ,6,0.89609466,1,115.10511997,2,-166.41127095,0\H,7,0.98847198,3,119.08
 117704,1,-179.64585354,0\H,9,0.98451201,4,120.53755637,2,177.22743544,
 0\C,11,1.50274561,6,115.46861532,1,-145.,0\O,11,1.23496495,6,123.15099
 888,1,35.,0\H,15,0.98719837,11,107.47091875,6,-116.36962839,0\H,15,0.9
 9976021,11,109.69443261,6,128.85346087,0\H,15,0.97696155,11,114.370088
 71,6,6.05302844,0\\Version=ES64L-G16RevB.01\State=1-A\HF=-440.1332389\
 RMSD=6.784e-09\Dipole=0.283145,-0.9537724,-0.9931509\Quadrupole=1.2983
 214,-6.2428866,4.9445652,4.9275694,3.9101306,-0.1041959\PG=C01 [X(C8H9
 N1O1)]\\@


 YOU KNOW YOU'VE SPOKEN TOO LONG WHEN THE AUDIENCE STOPS LOOKING AT
 THEIR WATCHES AND STARTS SHAKING THEM.
 Job cpu time:       0 days  0 hours 11 minutes 44.2 seconds.
 Elapsed time:       0 days  0 hours  0 minutes 22.3 seconds.
 File lengths (MBytes):  RWF=     46 Int=      0 D2E=      0 Chk=      6 Scr=      1
 Normal termination of Gaussian 16 at Tue Nov 22 19:14:03 2022.
