LAMMPS Description

19 atoms
19 bonds
30 angles
38 dihedrals
7 impropers

13 atom types
8 bond types
11 angle types
6 dihedral types
3 improper types

-50.00000  50.00000 xlo xhi
-50.00000  50.00000 ylo yhi
-50.00000  50.00000 zlo zhi

Masses

1  12.01000 # CA0
2  12.01000 # CA1
3  12.01000 # CA2
4  12.01000 # CA3
5   1.00800 # HA0
6   1.00800 # HA1
7   1.00800 # HA2
8  14.01000 # N
9   1.00800 # HN
10  12.01000 # C
11  16.00000 # O
12  12.01000 # C3
13   1.00800 # HC

Atoms

1 1 1   0.50115  -0.30540  -0.28588  -0.12343
2 1 2  -0.33661  -0.75372   1.02593  -0.09217
3 1 2  -0.33661  -1.21134  -1.32967  -0.08342
4 1 3  -0.02468  -2.11183   1.29380  -0.08122
5 1 5   0.18930  -0.04541   1.82565   0.08147
6 1 8  -0.81562   1.05066  -0.60051   0.16193
7 1 3  -0.02468  -2.57107  -1.06705  -0.07198
8 1 5   0.18930  -0.86178  -2.33685   0.09328
9 1 4  -0.17880  -3.01729   0.24486  -0.07611
10 1 6   0.09783  -2.45863   2.31039   0.06246
11 1 10   0.86225   2.20352   0.15496  -0.00671
12 1 9   0.38524   1.09577  -1.57561  -0.01133
13 1 6   0.09783  -3.27446  -1.87778   0.07749
14 1 7   0.11288  -4.07239   0.45049   0.06160
15 1 12  -0.48253   3.49122  -0.63920  -0.01257
16 1 11  -0.63692   2.19873   1.37022   0.11720
17 1 13   0.13356   4.02585  -0.29589   0.87664
18 1 13   0.13356   4.07299  -0.18461  -0.81819
19 1 13   0.13356   3.27638  -1.70751  -0.10779

Bonds

1 8 1 2
2 8 1 3
3 6 1 6
4 8 2 4
5 4 2 5
6 8 3 7
7 4 3 8
8 8 4 9
9 4 4 10
10 3 6 11
11 2 6 12
12 8 7 9
13 4 7 13
14 4 9 14
15 5 11 15
16 7 11 16
17 1 15 17
18 1 15 18
19 1 15 19

Angles

1 5 11 15 17
2 5 11 15 18
3 5 11 15 19
4 4 17 15 18
5 4 17 15 19
6 4 18 15 19
7 2 1 2 4
8 2 1 3 7
9 2 2 1 3
10 2 2 4 9
11 2 3 7 9
12 2 4 9 7
13 7 1 2 5
14 7 1 3 8
15 7 2 4 10
16 7 3 7 13
17 7 4 2 5
18 7 4 9 14
19 7 7 3 8
20 7 7 9 14
21 7 9 4 10
22 7 9 7 13
23 8 2 1 6
24 8 3 1 6
25 9 6 11 15
26 10 15 11 16
27 3 6 11 16
28 11 1 6 12
29 6 1 6 11
30 1 11 6 12

Dihedrals

1 4 6 11 15 17
2 4 6 11 15 18
3 4 6 11 15 19
4 5 1 6 11 15
5 5 12 6 11 15
6 5 1 6 11 16
7 2 1 2 4 9
8 2 1 3 7 9
9 2 2 1 3 7
10 2 2 4 9 7
11 2 3 1 2 4
12 2 3 7 9 4
13 2 1 2 4 10
14 2 1 3 7 13
15 2 2 1 3 8
16 2 2 4 9 14
17 2 3 1 2 5
18 2 3 7 9 14
19 2 4 9 7 13
20 2 7 9 4 10
21 2 5 2 4 9
22 2 8 3 7 9
23 2 4 2 1 6
24 2 6 1 3 7
25 2 5 2 1 6
26 2 6 1 3 8
27 2 5 2 4 10
28 2 8 3 7 13
29 2 10 4 9 14
30 2 13 7 9 14
31 3 2 1 6 11
32 3 3 1 6 11
33 3 2 1 6 12
34 3 3 1 6 12
35 6 12 6 11 16
36 1 16 11 15 17
37 1 16 11 15 18
38 1 16 11 15 19

Impropers

1 1 6 15 11 16
2 2 1 4 2 5
3 2 1 7 3 8
4 2 2 9 4 10
5 2 3 9 7 13
6 2 4 7 9 14
7 3 1 11 6 12

