LAMMPS Description

152 atoms
152 bonds
240 angles
304 dihedrals
56 impropers

13 atom types
8 bond types
11 angle types
6 dihedral types
3 improper types

-50.00000  50.00000 xlo xhi
-50.00000  50.00000 ylo yhi
-50.00000  50.00000 zlo zhi

Masses

1  12.01000 # CA0
2  12.01000 # CA1
3  12.01000 # CA2
4  12.01000 # CA3
5   1.00800 # HA0
6   1.00800 # HA1
7   1.00800 # HA2
8  14.01000 # N
9   1.00800 # HN
10  12.01000 # C
11  16.00000 # O
12  12.01000 # C3
13   1.00800 # HC

Atoms

1 1 1   0.50115  11.34546   5.30689   2.80695
2 1 2  -0.33661  11.61992   6.44524   3.54909
3 1 2  -0.33661  12.34148   4.37845   2.57179
4 1 3  -0.02468  12.88187   6.63906   4.07895
5 1 5   0.18930  10.90749   7.25847   3.55455
6 1 8  -0.81562  10.20616   5.25683   1.96233
7 1 3  -0.02468  13.60301   4.56477   3.10982
8 1 5   0.18930  12.18733   3.61018   1.82643
9 1 4  -0.17880  13.87160   5.70034   3.85220
10 1 6   0.09783  13.13609   7.59493   4.51897
11 1 10   0.86225   9.00440   5.94273   2.04298
12 1 9   0.38524  10.20263   4.31200   1.64228
13 1 6   0.09783  14.41574   3.91819   2.80563
14 1 7   0.11288  14.89464   5.93436   4.11379
15 1 12  -0.48253   7.87745   5.37583   1.21447
16 1 11  -0.63692   8.94560   7.07205   2.51050
17 1 13   0.13356   7.67956   6.14527   0.46454
18 1 13   0.13356   7.00601   5.45531   1.86792
19 1 13   0.13356   8.14137   4.37428   0.86990
20 2 1   0.50115  11.32554   8.75015   6.61898
21 2 2  -0.33661  11.61786   7.60098   7.33711
22 2 2  -0.33661  12.31066   9.69125   6.39034
23 2 3  -0.02468  12.88586   7.41134   7.85446
24 2 5   0.18930  10.91218   6.78203   7.33596
25 2 8  -0.81562  10.17645   8.81048   5.78837
26 2 3  -0.02468  13.57864   9.50709   6.91191
27 2 5   0.18930  12.14208  10.47129   5.66129
28 2 4  -0.17880  13.86478   8.36314   7.63460
29 2 6   0.09783  13.15220   6.45154   8.27836
30 2 10   0.86225   8.98500   8.10612   5.85745
31 2 9   0.38524  10.15528   9.76940   5.51457
32 2 6   0.09783  14.38170  10.16522   6.60836
33 2 7   0.11288  14.89230   8.13593   7.88473
34 2 12  -0.48253   7.83784   8.69694   5.07353
35 2 11  -0.63692   8.94939   6.95484   6.27027
36 2 13   0.13356   7.63964   7.96278   4.28871
37 2 13   0.13356   6.97816   8.57271   5.73581
38 2 13   0.13356   8.08151   9.71826   4.77705
39 3 1   0.50115   8.11929  10.05041   1.28430
40 3 2  -0.33661   7.83133  11.17516   0.52891
41 3 2  -0.33661   7.16841   9.06205   1.44756
42 3 3  -0.02468   6.56131  11.35084   0.01087
43 3 5   0.18930   8.62250  11.86834   0.27781
44 3 8  -0.81562   9.44736   9.76975   1.69104
45 3 3  -0.02468   5.89953   9.23211   0.92312
46 3 5   0.18930   7.43585   8.12913   1.92017
47 3 4  -0.17880   5.59134  10.38951   0.23131
48 3 6   0.09783   6.34246  12.21398  -0.60400
49 3 10   0.86225  10.47419  10.64262   2.01604
50 3 9   0.38524   9.36576   8.90569   2.18269
51 3 6   0.09783   5.16388   8.44513   1.02390
52 3 7   0.11288   4.59892  10.52506  -0.17474
53 3 12  -0.48253  11.61789  10.03617   2.79258
54 3 11  -0.63692  10.56821  11.74220   1.48695
55 3 13   0.13356  11.84394  10.78970   3.55036
56 3 13   0.13356  12.47607  10.11647   2.12150
57 3 13   0.13356  11.33590   9.04577   3.15617
58 4 1   0.50115   8.16540   4.09976   4.97555
59 4 2  -0.33661   7.86173   2.94686   4.26847
60 4 2  -0.33661   7.18931   5.05329   5.19278
61 4 3  -0.02468   6.59149   2.76466   3.75348
62 4 5   0.18930   8.55816   2.12059   4.28175
63 4 8  -0.81562   9.31442   4.15136   5.80711
64 4 3  -0.02468   5.92104   4.88029   4.66718
65 4 5   0.18930   7.36333   5.83730   5.91601
66 4 4  -0.17880   5.62377   3.73136   3.95699
67 4 6   0.09783   6.31337   1.80243   3.34277
68 4 10   0.86225  10.50321   3.44166   5.73654
69 4 9   0.38524   9.33869   5.10622   6.09642
70 4 6   0.09783   5.12496   5.55343   4.95754
71 4 7   0.11288   4.59482   3.51445   3.70339
72 4 12  -0.48253  11.65060   4.01722   6.53099
73 4 11  -0.63692  10.53420   2.29682   5.30530
74 4 13   0.13356  11.84558   3.27027   7.30420
75 4 13   0.13356  12.51190   3.89947   5.86999
76 4 13   0.13356  11.41026   5.03550   6.84323
77 5 1   0.50115  17.91430   9.94341   2.80067
78 5 2  -0.33661  17.60817  11.09335   3.51167
79 5 2  -0.33661  16.93975   8.98954   2.57814
80 5 3  -0.02468  16.33691  11.27223   4.02511
81 5 5   0.18930  18.30350  11.92057   3.50270
82 5 8  -0.81562  19.06448   9.89621   1.97050
83 5 3  -0.02468  15.67021   9.15977   3.10153
84 5 5   0.18930  17.11602   8.20831   1.85226
85 5 4  -0.17880  15.37046  10.30584   3.81514
86 5 6   0.09783  16.05697  12.23245   4.43927
87 5 10   0.86225  20.25112  10.60916   2.04351
88 5 9   0.38524  19.09170   8.94176   1.68007
89 5 6   0.09783  14.87509   8.48759   2.80642
90 5 7   0.11288  14.34086  10.52146   4.06644
91 5 12  -0.48253  21.40171  10.03757   1.25077
92 5 11  -0.63692  20.27797  11.75365   2.47587
93 5 13   0.13356  21.59627  10.78579   0.47866
94 5 13   0.13356  22.26126  10.15707   1.91373
95 5 13   0.13356  21.16477   9.01896   0.93706
96 6 1   0.50115  21.09666   5.30277   1.15652
97 6 2  -0.33661  21.38877   6.45419   0.44206
98 6 2  -0.33661  22.08158   4.36041   1.38093
99 6 3  -0.02468  22.65632   6.64472  -0.07627
100 6 5   0.18930  20.68340   7.27339   0.44673
101 6 8  -0.81562  19.94832   5.23989   1.98794
102 6 3  -0.02468  23.34896   4.54509   0.85805
103 6 5   0.18930  21.91330   3.57798   2.10743
104 6 4  -0.17880  23.63483   5.69108   0.13828
105 6 6   0.09783  22.92268   7.60576  -0.49738
106 6 10   0.86225  18.75520   5.94173   1.92131
107 6 9   0.38524  19.92903   4.28060   2.26057
108 6 6   0.09783  24.15176   3.88482   1.15772
109 6 7   0.11288  24.66210   5.91767  -0.11387
110 6 12  -0.48253  17.61130   5.34664   2.70681
111 6 11  -0.63692  18.71557   7.09349   1.51008
112 6 13   0.13356  17.41273   6.07921   3.49299
113 6 13   0.13356  16.74990   5.46939   2.04652
114 6 13   0.13356  17.85826   4.32548   3.00155
115 7 1   0.50115  17.88936   3.99236   6.49657
116 7 2  -0.33661  17.60550   2.86855   7.25490
117 7 2  -0.33661  16.93542   4.97757   6.33225
118 7 3  -0.02468  16.33646   2.69025   7.77431
119 7 5   0.18930  18.39855   2.17751   7.50580
120 7 8  -0.81562  19.21584   4.27507   6.08583
121 7 3  -0.02468  15.66760   4.80482   6.85837
122 7 5   0.18930  17.19903   5.90960   5.85577
123 7 4  -0.17880  15.36339   3.64788   7.55246
124 7 6   0.09783  16.12001   1.82696   8.38968
125 7 10   0.86225  20.24408   3.40374   5.76086
126 7 9   0.38524  19.13103   5.13776   5.59238
127 7 6   0.09783  14.92885   5.58846   6.75491
128 7 7   0.11288  14.37106   3.50882   7.95736
129 7 12  -0.48253  21.38545   4.01055   4.98083
130 7 11  -0.63692  20.34135   2.30571   6.29255
131 7 13   0.13356  21.61224   3.25572   4.22454
132 7 13   0.13356  22.24488   3.93363   5.65066
133 7 13   0.13356  21.10082   4.99942   4.61519
134 8 1   0.50115  21.10042   8.74407   4.97367
135 8 2  -0.33661  21.38072   7.60520   4.23454
136 8 2  -0.33661  22.09226   9.67688   5.20893
137 8 3  -0.02468  22.64427   7.41556   3.70677
138 8 5   0.18930  20.67150   6.78914   4.22976
139 8 8  -0.81562  19.95912   8.79220   5.81547
140 8 3  -0.02468  23.35531   9.49498   4.67304
141 8 5   0.18930  21.93356  10.44587   5.95258
142 8 4  -0.17880  23.62964   8.35926   3.93276
143 8 6   0.09783  22.90302   6.45986   3.26886
144 8 10   0.86225  18.75946   8.10313   5.73280
145 8 9   0.38524  19.95197   9.73776   6.13336
146 8 6   0.09783  24.16474  10.14580   4.97704
147 8 7   0.11288  24.65398   8.12962   3.67226
148 8 12  -0.48253  17.62894   8.66989   6.55634
149 8 11  -0.63692  18.70482   6.97243   5.26814
150 8 13   0.13356  17.43123   7.90238   7.30829
151 8 13   0.13356  16.75956   8.58620   5.90065
152 8 13   0.13356  17.88936   9.67333   6.89818

Bonds

1 8 1 2
2 8 1 3
3 6 1 6
4 8 2 4
5 4 2 5
6 8 3 7
7 4 3 8
8 8 4 9
9 4 4 10
10 3 6 11
11 2 6 12
12 8 7 9
13 4 7 13
14 4 9 14
15 5 11 15
16 7 11 16
17 1 15 17
18 1 15 18
19 1 15 19
1 8 20 21
2 8 20 22
3 6 20 25
4 8 21 23
5 4 21 24
6 8 22 26
7 4 22 27
8 8 23 28
9 4 23 29
10 3 25 30
11 2 25 31
12 8 26 28
13 4 26 32
14 4 28 33
15 5 30 34
16 7 30 35
17 1 34 36
18 1 34 37
19 1 34 38
1 8 39 40
2 8 39 41
3 6 39 44
4 8 40 42
5 4 40 43
6 8 41 45
7 4 41 46
8 8 42 47
9 4 42 48
10 3 44 49
11 2 44 50
12 8 45 47
13 4 45 51
14 4 47 52
15 5 49 53
16 7 49 54
17 1 53 55
18 1 53 56
19 1 53 57
1 8 58 59
2 8 58 60
3 6 58 63
4 8 59 61
5 4 59 62
6 8 60 64
7 4 60 65
8 8 61 66
9 4 61 67
10 3 63 68
11 2 63 69
12 8 64 66
13 4 64 70
14 4 66 71
15 5 68 72
16 7 68 73
17 1 72 74
18 1 72 75
19 1 72 76
1 8 77 78
2 8 77 79
3 6 77 82
4 8 78 80
5 4 78 81
6 8 79 83
7 4 79 84
8 8 80 85
9 4 80 86
10 3 82 87
11 2 82 88
12 8 83 85
13 4 83 89
14 4 85 90
15 5 87 91
16 7 87 92
17 1 91 93
18 1 91 94
19 1 91 95
1 8 96 97
2 8 96 98
3 6 96 101
4 8 97 99
5 4 97 100
6 8 98 102
7 4 98 103
8 8 99 104
9 4 99 105
10 3 101 106
11 2 101 107
12 8 102 104
13 4 102 108
14 4 104 109
15 5 106 110
16 7 106 111
17 1 110 112
18 1 110 113
19 1 110 114
1 8 115 116
2 8 115 117
3 6 115 120
4 8 116 118
5 4 116 119
6 8 117 121
7 4 117 122
8 8 118 123
9 4 118 124
10 3 120 125
11 2 120 126
12 8 121 123
13 4 121 127
14 4 123 128
15 5 125 129
16 7 125 130
17 1 129 131
18 1 129 132
19 1 129 133
1 8 134 135
2 8 134 136
3 6 134 139
4 8 135 137
5 4 135 138
6 8 136 140
7 4 136 141
8 8 137 142
9 4 137 143
10 3 139 144
11 2 139 145
12 8 140 142
13 4 140 146
14 4 142 147
15 5 144 148
16 7 144 149
17 1 148 150
18 1 148 151
19 1 148 152

Angles

1 5 11 15 17
2 5 11 15 18
3 5 11 15 19
4 4 17 15 18
5 4 17 15 19
6 4 18 15 19
7 2 1 2 4
8 2 1 3 7
9 2 2 1 3
10 2 2 4 9
11 2 3 7 9
12 2 4 9 7
13 7 1 2 5
14 7 1 3 8
15 7 2 4 10
16 7 3 7 13
17 7 4 2 5
18 7 4 9 14
19 7 7 3 8
20 7 7 9 14
21 7 9 4 10
22 7 9 7 13
23 8 2 1 6
24 8 3 1 6
25 9 6 11 15
26 10 15 11 16
27 3 6 11 16
28 11 1 6 12
29 6 1 6 11
30 1 11 6 12
1 5 30 34 36
2 5 30 34 37
3 5 30 34 38
4 4 36 34 37
5 4 36 34 38
6 4 37 34 38
7 2 20 21 23
8 2 20 22 26
9 2 21 20 22
10 2 21 23 28
11 2 22 26 28
12 2 23 28 26
13 7 20 21 24
14 7 20 22 27
15 7 21 23 29
16 7 22 26 32
17 7 23 21 24
18 7 23 28 33
19 7 26 22 27
20 7 26 28 33
21 7 28 23 29
22 7 28 26 32
23 8 21 20 25
24 8 22 20 25
25 9 25 30 34
26 10 34 30 35
27 3 25 30 35
28 11 20 25 31
29 6 20 25 30
30 1 30 25 31
1 5 49 53 55
2 5 49 53 56
3 5 49 53 57
4 4 55 53 56
5 4 55 53 57
6 4 56 53 57
7 2 39 40 42
8 2 39 41 45
9 2 40 39 41
10 2 40 42 47
11 2 41 45 47
12 2 42 47 45
13 7 39 40 43
14 7 39 41 46
15 7 40 42 48
16 7 41 45 51
17 7 42 40 43
18 7 42 47 52
19 7 45 41 46
20 7 45 47 52
21 7 47 42 48
22 7 47 45 51
23 8 40 39 44
24 8 41 39 44
25 9 44 49 53
26 10 53 49 54
27 3 44 49 54
28 11 39 44 50
29 6 39 44 49
30 1 49 44 50
1 5 68 72 74
2 5 68 72 75
3 5 68 72 76
4 4 74 72 75
5 4 74 72 76
6 4 75 72 76
7 2 58 59 61
8 2 58 60 64
9 2 59 58 60
10 2 59 61 66
11 2 60 64 66
12 2 61 66 64
13 7 58 59 62
14 7 58 60 65
15 7 59 61 67
16 7 60 64 70
17 7 61 59 62
18 7 61 66 71
19 7 64 60 65
20 7 64 66 71
21 7 66 61 67
22 7 66 64 70
23 8 59 58 63
24 8 60 58 63
25 9 63 68 72
26 10 72 68 73
27 3 63 68 73
28 11 58 63 69
29 6 58 63 68
30 1 68 63 69
1 5 87 91 93
2 5 87 91 94
3 5 87 91 95
4 4 93 91 94
5 4 93 91 95
6 4 94 91 95
7 2 77 78 80
8 2 77 79 83
9 2 78 77 79
10 2 78 80 85
11 2 79 83 85
12 2 80 85 83
13 7 77 78 81
14 7 77 79 84
15 7 78 80 86
16 7 79 83 89
17 7 80 78 81
18 7 80 85 90
19 7 83 79 84
20 7 83 85 90
21 7 85 80 86
22 7 85 83 89
23 8 78 77 82
24 8 79 77 82
25 9 82 87 91
26 10 91 87 92
27 3 82 87 92
28 11 77 82 88
29 6 77 82 87
30 1 87 82 88
1 5 106 110 112
2 5 106 110 113
3 5 106 110 114
4 4 112 110 113
5 4 112 110 114
6 4 113 110 114
7 2 96 97 99
8 2 96 98 102
9 2 97 96 98
10 2 97 99 104
11 2 98 102 104
12 2 99 104 102
13 7 96 97 100
14 7 96 98 103
15 7 97 99 105
16 7 98 102 108
17 7 99 97 100
18 7 99 104 109
19 7 102 98 103
20 7 102 104 109
21 7 104 99 105
22 7 104 102 108
23 8 97 96 101
24 8 98 96 101
25 9 101 106 110
26 10 110 106 111
27 3 101 106 111
28 11 96 101 107
29 6 96 101 106
30 1 106 101 107
1 5 125 129 131
2 5 125 129 132
3 5 125 129 133
4 4 131 129 132
5 4 131 129 133
6 4 132 129 133
7 2 115 116 118
8 2 115 117 121
9 2 116 115 117
10 2 116 118 123
11 2 117 121 123
12 2 118 123 121
13 7 115 116 119
14 7 115 117 122
15 7 116 118 124
16 7 117 121 127
17 7 118 116 119
18 7 118 123 128
19 7 121 117 122
20 7 121 123 128
21 7 123 118 124
22 7 123 121 127
23 8 116 115 120
24 8 117 115 120
25 9 120 125 129
26 10 129 125 130
27 3 120 125 130
28 11 115 120 126
29 6 115 120 125
30 1 125 120 126
1 5 144 148 150
2 5 144 148 151
3 5 144 148 152
4 4 150 148 151
5 4 150 148 152
6 4 151 148 152
7 2 134 135 137
8 2 134 136 140
9 2 135 134 136
10 2 135 137 142
11 2 136 140 142
12 2 137 142 140
13 7 134 135 138
14 7 134 136 141
15 7 135 137 143
16 7 136 140 146
17 7 137 135 138
18 7 137 142 147
19 7 140 136 141
20 7 140 142 147
21 7 142 137 143
22 7 142 140 146
23 8 135 134 139
24 8 136 134 139
25 9 139 144 148
26 10 148 144 149
27 3 139 144 149
28 11 134 139 145
29 6 134 139 144
30 1 144 139 145

Dihedrals

1 4 6 11 15 17
2 4 6 11 15 18
3 4 6 11 15 19
4 5 1 6 11 15
5 5 12 6 11 15
6 5 1 6 11 16
7 2 1 2 4 9
8 2 1 3 7 9
9 2 2 1 3 7
10 2 2 4 9 7
11 2 3 1 2 4
12 2 3 7 9 4
13 2 1 2 4 10
14 2 1 3 7 13
15 2 2 1 3 8
16 2 2 4 9 14
17 2 3 1 2 5
18 2 3 7 9 14
19 2 4 9 7 13
20 2 7 9 4 10
21 2 5 2 4 9
22 2 8 3 7 9
23 2 4 2 1 6
24 2 6 1 3 7
25 2 5 2 1 6
26 2 6 1 3 8
27 2 5 2 4 10
28 2 8 3 7 13
29 2 10 4 9 14
30 2 13 7 9 14
31 3 2 1 6 11
32 3 3 1 6 11
33 3 2 1 6 12
34 3 3 1 6 12
35 6 12 6 11 16
36 1 16 11 15 17
37 1 16 11 15 18
38 1 16 11 15 19
1 4 25 30 34 36
2 4 25 30 34 37
3 4 25 30 34 38
4 5 20 25 30 34
5 5 31 25 30 34
6 5 20 25 30 35
7 2 20 21 23 28
8 2 20 22 26 28
9 2 21 20 22 26
10 2 21 23 28 26
11 2 22 20 21 23
12 2 22 26 28 23
13 2 20 21 23 29
14 2 20 22 26 32
15 2 21 20 22 27
16 2 21 23 28 33
17 2 22 20 21 24
18 2 22 26 28 33
19 2 23 28 26 32
20 2 26 28 23 29
21 2 24 21 23 28
22 2 27 22 26 28
23 2 23 21 20 25
24 2 25 20 22 26
25 2 24 21 20 25
26 2 25 20 22 27
27 2 24 21 23 29
28 2 27 22 26 32
29 2 29 23 28 33
30 2 32 26 28 33
31 3 21 20 25 30
32 3 22 20 25 30
33 3 21 20 25 31
34 3 22 20 25 31
35 6 31 25 30 35
36 1 35 30 34 36
37 1 35 30 34 37
38 1 35 30 34 38
1 4 44 49 53 55
2 4 44 49 53 56
3 4 44 49 53 57
4 5 39 44 49 53
5 5 50 44 49 53
6 5 39 44 49 54
7 2 39 40 42 47
8 2 39 41 45 47
9 2 40 39 41 45
10 2 40 42 47 45
11 2 41 39 40 42
12 2 41 45 47 42
13 2 39 40 42 48
14 2 39 41 45 51
15 2 40 39 41 46
16 2 40 42 47 52
17 2 41 39 40 43
18 2 41 45 47 52
19 2 42 47 45 51
20 2 45 47 42 48
21 2 43 40 42 47
22 2 46 41 45 47
23 2 42 40 39 44
24 2 44 39 41 45
25 2 43 40 39 44
26 2 44 39 41 46
27 2 43 40 42 48
28 2 46 41 45 51
29 2 48 42 47 52
30 2 51 45 47 52
31 3 40 39 44 49
32 3 41 39 44 49
33 3 40 39 44 50
34 3 41 39 44 50
35 6 50 44 49 54
36 1 54 49 53 55
37 1 54 49 53 56
38 1 54 49 53 57
1 4 63 68 72 74
2 4 63 68 72 75
3 4 63 68 72 76
4 5 58 63 68 72
5 5 69 63 68 72
6 5 58 63 68 73
7 2 58 59 61 66
8 2 58 60 64 66
9 2 59 58 60 64
10 2 59 61 66 64
11 2 60 58 59 61
12 2 60 64 66 61
13 2 58 59 61 67
14 2 58 60 64 70
15 2 59 58 60 65
16 2 59 61 66 71
17 2 60 58 59 62
18 2 60 64 66 71
19 2 61 66 64 70
20 2 64 66 61 67
21 2 62 59 61 66
22 2 65 60 64 66
23 2 61 59 58 63
24 2 63 58 60 64
25 2 62 59 58 63
26 2 63 58 60 65
27 2 62 59 61 67
28 2 65 60 64 70
29 2 67 61 66 71
30 2 70 64 66 71
31 3 59 58 63 68
32 3 60 58 63 68
33 3 59 58 63 69
34 3 60 58 63 69
35 6 69 63 68 73
36 1 73 68 72 74
37 1 73 68 72 75
38 1 73 68 72 76
1 4 82 87 91 93
2 4 82 87 91 94
3 4 82 87 91 95
4 5 77 82 87 91
5 5 88 82 87 91
6 5 77 82 87 92
7 2 77 78 80 85
8 2 77 79 83 85
9 2 78 77 79 83
10 2 78 80 85 83
11 2 79 77 78 80
12 2 79 83 85 80
13 2 77 78 80 86
14 2 77 79 83 89
15 2 78 77 79 84
16 2 78 80 85 90
17 2 79 77 78 81
18 2 79 83 85 90
19 2 80 85 83 89
20 2 83 85 80 86
21 2 81 78 80 85
22 2 84 79 83 85
23 2 80 78 77 82
24 2 82 77 79 83
25 2 81 78 77 82
26 2 82 77 79 84
27 2 81 78 80 86
28 2 84 79 83 89
29 2 86 80 85 90
30 2 89 83 85 90
31 3 78 77 82 87
32 3 79 77 82 87
33 3 78 77 82 88
34 3 79 77 82 88
35 6 88 82 87 92
36 1 92 87 91 93
37 1 92 87 91 94
38 1 92 87 91 95
1 4 101 106 110 112
2 4 101 106 110 113
3 4 101 106 110 114
4 5 96 101 106 110
5 5 107 101 106 110
6 5 96 101 106 111
7 2 96 97 99 104
8 2 96 98 102 104
9 2 97 96 98 102
10 2 97 99 104 102
11 2 98 96 97 99
12 2 98 102 104 99
13 2 96 97 99 105
14 2 96 98 102 108
15 2 97 96 98 103
16 2 97 99 104 109
17 2 98 96 97 100
18 2 98 102 104 109
19 2 99 104 102 108
20 2 102 104 99 105
21 2 100 97 99 104
22 2 103 98 102 104
23 2 99 97 96 101
24 2 101 96 98 102
25 2 100 97 96 101
26 2 101 96 98 103
27 2 100 97 99 105
28 2 103 98 102 108
29 2 105 99 104 109
30 2 108 102 104 109
31 3 97 96 101 106
32 3 98 96 101 106
33 3 97 96 101 107
34 3 98 96 101 107
35 6 107 101 106 111
36 1 111 106 110 112
37 1 111 106 110 113
38 1 111 106 110 114
1 4 120 125 129 131
2 4 120 125 129 132
3 4 120 125 129 133
4 5 115 120 125 129
5 5 126 120 125 129
6 5 115 120 125 130
7 2 115 116 118 123
8 2 115 117 121 123
9 2 116 115 117 121
10 2 116 118 123 121
11 2 117 115 116 118
12 2 117 121 123 118
13 2 115 116 118 124
14 2 115 117 121 127
15 2 116 115 117 122
16 2 116 118 123 128
17 2 117 115 116 119
18 2 117 121 123 128
19 2 118 123 121 127
20 2 121 123 118 124
21 2 119 116 118 123
22 2 122 117 121 123
23 2 118 116 115 120
24 2 120 115 117 121
25 2 119 116 115 120
26 2 120 115 117 122
27 2 119 116 118 124
28 2 122 117 121 127
29 2 124 118 123 128
30 2 127 121 123 128
31 3 116 115 120 125
32 3 117 115 120 125
33 3 116 115 120 126
34 3 117 115 120 126
35 6 126 120 125 130
36 1 130 125 129 131
37 1 130 125 129 132
38 1 130 125 129 133
1 4 139 144 148 150
2 4 139 144 148 151
3 4 139 144 148 152
4 5 134 139 144 148
5 5 145 139 144 148
6 5 134 139 144 149
7 2 134 135 137 142
8 2 134 136 140 142
9 2 135 134 136 140
10 2 135 137 142 140
11 2 136 134 135 137
12 2 136 140 142 137
13 2 134 135 137 143
14 2 134 136 140 146
15 2 135 134 136 141
16 2 135 137 142 147
17 2 136 134 135 138
18 2 136 140 142 147
19 2 137 142 140 146
20 2 140 142 137 143
21 2 138 135 137 142
22 2 141 136 140 142
23 2 137 135 134 139
24 2 139 134 136 140
25 2 138 135 134 139
26 2 139 134 136 141
27 2 138 135 137 143
28 2 141 136 140 146
29 2 143 137 142 147
30 2 146 140 142 147
31 3 135 134 139 144
32 3 136 134 139 144
33 3 135 134 139 145
34 3 136 134 139 145
35 6 145 139 144 149
36 1 149 144 148 150
37 1 149 144 148 151
38 1 149 144 148 152

Impropers

1 1 6 15 11 16
2 2 1 4 2 5
3 2 1 7 3 8
4 2 2 9 4 10
5 2 3 9 7 13
6 2 4 7 9 14
7 3 1 11 6 12
1 1 25 34 30 35
2 2 20 23 21 24
3 2 20 26 22 27
4 2 21 28 23 29
5 2 22 28 26 32
6 2 23 26 28 33
7 3 20 30 25 31
1 1 44 53 49 54
2 2 39 42 40 43
3 2 39 45 41 46
4 2 40 47 42 48
5 2 41 47 45 51
6 2 42 45 47 52
7 3 39 49 44 50
1 1 63 72 68 73
2 2 58 61 59 62
3 2 58 64 60 65
4 2 59 66 61 67
5 2 60 66 64 70
6 2 61 64 66 71
7 3 58 68 63 69
1 1 82 91 87 92
2 2 77 80 78 81
3 2 77 83 79 84
4 2 78 85 80 86
5 2 79 85 83 89
6 2 80 83 85 90
7 3 77 87 82 88
1 1 101 110 106 111
2 2 96 99 97 100
3 2 96 102 98 103
4 2 97 104 99 105
5 2 98 104 102 108
6 2 99 102 104 109
7 3 96 106 101 107
1 1 120 129 125 130
2 2 115 118 116 119
3 2 115 121 117 122
4 2 116 123 118 124
5 2 117 123 121 127
6 2 118 121 123 128
7 3 115 125 120 126
1 1 139 148 144 149
2 2 134 137 135 138
3 2 134 140 136 141
4 2 135 142 137 143
5 2 136 142 140 146
6 2 137 140 142 147
7 3 134 144 139 145

