LAMMPS Description

42  atoms
45  bonds
69  angles
108  dihedrals
18  impropers

3  atom types
4  bond types
6  angle types
3  dihedral types
1  improper types

-6.571840 6.309250 xlo xhi
-4.810130 7.319730 ylo yhi
-1.808100 1.809540 zlo zhi

Masses

1 1.008  # ha
2 12.01  # ca
3 12.01  # cp

Atoms

1 1 3 0.057300 -1.23980300 -0.65333000 -0.04186700
2 1 2 -0.187390 -0.05353100 -1.38455600 -0.00111200
3 1 2 -0.143220 -1.17237100 0.73939300 -0.04181200
4 1 3 0.053950 1.18564100 -0.74702500 0.04001500
5 1 1 0.113780 -0.09543400 -2.46863000 -0.00122900
6 1 3 0.083140 -2.55168300 -1.34586900 -0.10194600
7 1 3 0.015690 0.05411500 1.40146500 -0.00079600
8 1 1 0.075660 -2.08732900 1.31719900 -0.11896000
9 1 2 -0.160130 1.22587000 0.64671900 0.04014900
10 1 3 0.117570 2.43997900 -1.53894500 0.10111200
11 1 2 -0.114930 -2.73805500 -2.45342400 -0.93247400
12 1 2 -0.154890 -3.62690200 -0.90410000 0.67264100
13 1 3 0.148860 0.11157800 2.88485100 -0.00041000
14 1 1 0.082970 2.18266000 1.15218900 0.11771100
15 1 2 -0.139700 2.53928400 -2.65726200 0.93219900
16 1 2 -0.171730 3.54692500 -1.18211000 -0.67255800
17 1 2 -0.080270 -3.96536300 -3.10130900 -0.98700700
18 1 1 0.080130 -1.91986400 -2.79583300 -1.55700000
19 1 2 -0.075060 -4.85459000 -1.55116900 0.61863400
20 1 1 0.113250 -3.49242200 -0.05835500 1.33858500
21 1 2 -0.183440 -0.76698600 3.63322300 0.78648000
22 1 2 -0.195190 1.04565800 3.56334400 -0.78671800
23 1 2 -0.079340 3.71260300 -3.39833900 0.98807700
24 1 1 0.084500 1.69653100 -2.93499000 1.55617500
25 1 2 -0.077360 4.72071700 -1.92243600 -0.61720200
26 1 1 0.116190 3.47907700 -0.32862400 -1.33875900
27 1 2 -0.114900 -5.02819000 -2.65254400 -0.21155300
28 1 1 0.092790 -4.09397900 -3.95458100 -1.64366600
29 1 1 0.091520 -5.67584900 -1.19872200 1.23275800
30 1 2 -0.063940 -0.71360000 5.02102000 0.78735900
31 1 1 0.121230 -1.48387600 3.12114200 1.41942500
32 1 2 -0.053070 1.10033300 4.95108600 -0.78635700
33 1 1 0.125410 1.72064700 2.99757000 -1.42002700
34 1 2 -0.103480 4.80770500 -3.03366300 0.21344300
35 1 1 0.094430 3.77404700 -4.25877400 1.64510600
36 1 1 0.092050 5.56738600 -1.63489800 -1.23064900
37 1 1 0.095890 -5.98633800 -3.15797700 -0.25418200
38 1 2 -0.116480 0.22059900 5.68508400 0.00083800
39 1 1 0.088470 -1.39850700 5.58524500 1.41055600
40 1 1 0.085130 1.82710800 5.46089300 -1.40902800
41 1 1 0.091240 5.72374300 -3.61184800 0.25702600
42 1 1 0.093370 0.26281500 6.76837600 0.00135600

Bonds

1 2 1 2
2 2 1 3
3 4 1 6
4 2 2 4
5 1 2 5
6 2 3 7
7 1 3 8
8 2 4 9
9 4 4 10
10 2 6 11
11 2 6 12
12 2 7 9
13 4 7 13
14 1 9 14
15 2 10 15
16 2 10 16
17 3 11 17
18 1 11 18
19 3 12 19
20 1 12 20
21 2 13 21
22 2 13 22
23 3 15 23
24 1 15 24
25 3 16 25
26 1 16 26
27 3 17 27
28 1 17 28
29 3 19 27
30 1 19 29
31 3 21 30
32 1 21 31
33 3 22 32
34 1 22 33
35 3 23 34
36 1 23 35
37 3 25 34
38 1 25 36
39 1 27 37
40 3 30 38
41 1 30 39
42 3 32 38
43 1 32 40
44 1 34 41
45 1 38 42

Angles

1 1 11 17 27
2 1 12 19 27
3 1 15 23 34
4 1 16 25 34
5 1 17 27 19
6 1 21 30 38
7 1 22 32 38
8 1 23 34 25
9 1 30 38 32
10 5 6 11 17
11 5 6 12 19
12 5 10 15 23
13 5 10 16 25
14 5 13 21 30
15 5 13 22 32
16 6 11 17 28
17 6 12 19 29
18 6 15 23 35
19 6 16 25 36
20 6 17 11 18
21 6 17 27 37
22 6 19 12 20
23 6 19 27 37
24 6 21 30 39
25 6 22 32 40
26 6 23 15 24
27 6 23 34 41
28 6 25 16 26
29 6 25 34 41
30 6 27 17 28
31 6 27 19 29
32 6 30 21 31
33 6 30 38 42
34 6 32 22 33
35 6 32 38 42
36 6 34 23 35
37 6 34 25 36
38 6 38 30 39
39 6 38 32 40
40 2 1 2 5
41 2 1 3 8
42 2 4 2 5
43 2 4 9 14
44 2 6 11 18
45 2 6 12 20
46 2 7 3 8
47 2 7 9 14
48 2 10 15 24
49 2 10 16 26
50 2 13 21 31
51 2 13 22 33
52 3 2 1 3
53 3 2 4 9
54 3 3 7 9
55 3 11 6 12
56 3 15 10 16
57 3 21 13 22
58 4 2 1 6
59 4 2 4 10
60 4 3 1 6
61 4 3 7 13
62 4 9 4 10
63 4 9 7 13
64 4 1 6 11
65 4 1 6 12
66 4 4 10 15
67 4 4 10 16
68 4 7 13 21
69 4 7 13 22

Dihedrals

1 1 6 11 17 27
2 1 6 12 19 27
3 1 10 15 23 34
4 1 10 16 25 34
5 1 13 21 30 38
6 1 13 22 32 38
7 1 6 11 17 28
8 1 6 12 19 29
9 1 10 15 23 35
10 1 10 16 25 36
11 1 13 21 30 39
12 1 13 22 32 40
13 1 11 17 27 19
14 1 12 19 27 17
15 1 15 23 34 25
16 1 16 25 34 23
17 1 21 30 38 32
18 1 22 32 38 30
19 1 11 17 27 37
20 1 12 19 27 37
21 1 15 23 34 41
22 1 16 25 34 41
23 1 17 27 19 29
24 1 19 27 17 28
25 1 21 30 38 42
26 1 22 32 38 42
27 1 23 34 25 36
28 1 25 34 23 35
29 1 18 11 17 27
30 1 20 12 19 27
31 1 30 38 32 40
32 1 32 38 30 39
33 1 24 15 23 34
34 1 26 16 25 34
35 1 31 21 30 38
36 1 33 22 32 38
37 1 18 11 17 28
38 1 20 12 19 29
39 1 24 15 23 35
40 1 26 16 25 36
41 1 28 17 27 37
42 1 29 19 27 37
43 1 31 21 30 39
44 1 33 22 32 40
45 1 35 23 34 41
46 1 36 25 34 41
47 1 39 30 38 42
48 1 40 32 38 42
49 2 1 2 4 9
50 2 1 3 7 9
51 2 3 1 2 4
52 2 3 7 9 4
53 2 2 1 3 7
54 2 2 4 9 7
55 2 1 2 4 10
56 2 1 3 7 13
57 2 4 2 1 6
58 2 4 9 7 13
59 2 6 1 3 7
60 2 7 9 4 10
61 2 3 1 2 5
62 2 5 2 4 9
63 2 2 1 3 8
64 2 8 3 7 9
65 2 2 4 9 14
66 2 3 7 9 14
67 2 12 6 11 18
68 2 11 6 12 20
69 2 16 10 15 24
70 2 15 10 16 26
71 2 22 13 21 31
72 2 21 13 22 33
73 2 5 2 1 6
74 2 5 2 4 10
75 2 6 1 3 8
76 2 8 3 7 13
77 2 10 4 9 14
78 2 13 7 9 14
79 2 1 6 11 18
80 2 1 6 12 20
81 2 4 10 15 24
82 2 4 10 16 26
83 2 7 13 21 31
84 2 7 13 22 33
85 2 1 6 11 17
86 2 1 6 12 19
87 2 4 10 15 23
88 2 4 10 16 25
89 2 7 13 21 30
90 2 7 13 22 32
91 2 12 6 11 17
92 2 11 6 12 19
93 2 16 10 15 23
94 2 15 10 16 25
95 2 22 13 21 30
96 2 21 13 22 32
97 3 2 1 6 11
98 3 2 1 6 12
99 3 2 4 10 15
100 3 2 4 10 16
101 3 3 1 6 11
102 3 3 1 6 12
103 3 3 7 13 21
104 3 3 7 13 22
105 3 9 4 10 15
106 3 9 4 10 16
107 3 9 7 13 21
108 3 9 7 13 22

Impropers

1 1 1 4 2 5
2 1 1 7 3 8
3 1 4 7 9 14
4 1 6 17 11 18
5 1 6 19 12 20
6 1 10 23 15 24
7 1 10 25 16 26
8 1 13 30 21 31
9 1 13 32 22 33
10 1 11 27 17 28
11 1 12 27 19 29
12 1 15 34 23 35
13 1 16 34 25 36
14 1 17 19 27 37
15 1 21 38 30 39
16 1 22 38 32 40
17 1 23 25 34 41
18 1 30 32 38 42

