 Entering Gaussian System, Link 0=g16
 Input=_conf059.gjf
 Output=_conf059.log
 Initial command:
 /opt/ap/G16/B01/g16/l1.exe "/tmp2/scr/Gau-1527.inp" -scrdir="/tmp2/scr/"
 Entering Link 1 = /opt/ap/G16/B01/g16/l1.exe PID=      1528.
  
 Copyright (c) 1988-2017, Gaussian, Inc.  All Rights Reserved.
  
 This is part of the Gaussian(R) 16 program.  It is based on
 the Gaussian(R) 09 system (copyright 2009, Gaussian, Inc.),
 the Gaussian(R) 03 system (copyright 2003, Gaussian, Inc.),
 the Gaussian(R) 98 system (copyright 1998, Gaussian, Inc.),
 the Gaussian(R) 94 system (copyright 1995, Gaussian, Inc.),
 the Gaussian 92(TM) system (copyright 1992, Gaussian, Inc.),
 the Gaussian 90(TM) system (copyright 1990, Gaussian, Inc.),
 the Gaussian 88(TM) system (copyright 1988, Gaussian, Inc.),
 the Gaussian 86(TM) system (copyright 1986, Carnegie Mellon
 University), and the Gaussian 82(TM) system (copyright 1983,
 Carnegie Mellon University). Gaussian is a federally registered
 trademark of Gaussian, Inc.
  
 This software contains proprietary and confidential information,
 including trade secrets, belonging to Gaussian, Inc.
  
 This software is provided under written license and may be
 used, copied, transmitted, or stored only in accord with that
 written license.
  
 The following legend is applicable only to US Government
 contracts under FAR:
  
                    RESTRICTED RIGHTS LEGEND
  
 Use, reproduction and disclosure by the US Government is
 subject to restrictions as set forth in subparagraphs (a)
 and (c) of the Commercial Computer Software - Restricted
 Rights clause in FAR 52.227-19.
  
 Gaussian, Inc.
 340 Quinnipiac St., Bldg. 40, Wallingford CT 06492
  
  
 ---------------------------------------------------------------
 Warning -- This program may not be used in any manner that
 competes with the business of Gaussian, Inc. or will provide
 assistance to any competitor of Gaussian, Inc.  The licensee
 of this program is prohibited from giving any competitor of
 Gaussian, Inc. access to this program.  By using this program,
 the user acknowledges that Gaussian, Inc. is engaged in the
 business of creating and licensing software in the field of
 computational chemistry and represents and warrants to the
 licensee that it is not a competitor of Gaussian, Inc. and that
 it will not use this program in any manner prohibited above.
 ---------------------------------------------------------------
  

 Cite this work as:
 Gaussian 16, Revision B.01,
 M. J. Frisch, G. W. Trucks, H. B. Schlegel, G. E. Scuseria, 
 M. A. Robb, J. R. Cheeseman, G. Scalmani, V. Barone, 
 G. A. Petersson, H. Nakatsuji, X. Li, M. Caricato, A. V. Marenich, 
 J. Bloino, B. G. Janesko, R. Gomperts, B. Mennucci, H. P. Hratchian, 
 J. V. Ortiz, A. F. Izmaylov, J. L. Sonnenberg, D. Williams-Young, 
 F. Ding, F. Lipparini, F. Egidi, J. Goings, B. Peng, A. Petrone, 
 T. Henderson, D. Ranasinghe, V. G. Zakrzewski, J. Gao, N. Rega, 
 G. Zheng, W. Liang, M. Hada, M. Ehara, K. Toyota, R. Fukuda, 
 J. Hasegawa, M. Ishida, T. Nakajima, Y. Honda, O. Kitao, H. Nakai, 
 T. Vreven, K. Throssell, J. A. Montgomery, Jr., J. E. Peralta, 
 F. Ogliaro, M. J. Bearpark, J. J. Heyd, E. N. Brothers, K. N. Kudin, 
 V. N. Staroverov, T. A. Keith, R. Kobayashi, J. Normand, 
 K. Raghavachari, A. P. Rendell, J. C. Burant, S. S. Iyengar, 
 J. Tomasi, M. Cossi, J. M. Millam, M. Klene, C. Adamo, R. Cammi, 
 J. W. Ochterski, R. L. Martin, K. Morokuma, O. Farkas, 
 J. B. Foresman, and D. J. Fox, Gaussian, Inc., Wallingford CT, 2016.
 
 ******************************************
 Gaussian 16:  ES64L-G16RevB.01 20-Dec-2017
                22-Nov-2022 
 ******************************************
 %nprocshared=32
 Will use up to   32 processors via shared memory.
 %mem=120GB
 %chk=_conf059.chk
 ----------------------------------------
 #P wB97XD/6-311++G(d,p) scf=maxcycle=512
 ----------------------------------------
 1/38=1,172=1/1;
 2/12=2,17=6,18=5,40=1/2;
 3/5=4,6=6,7=1111,11=2,25=1,30=1,74=-58/1,2,3;
 4//1;
 5/5=2,7=512,38=5/2;
 6/7=2,8=2,9=2,10=2,28=1/1;
 99/5=1,9=1/99;
 Leave Link    1 at Tue Nov 22 19:13:53 2022, MaxMem= 16106127360 cpu:               1.5 elap:               0.1
 (Enter /opt/ap/G16/B01/g16/l101.exe)
 ----------------------------
 _conf059.gjf nmol_natom 1_19
 ----------------------------
 Symbolic Z-matrix:
 Charge =  0 Multiplicity = 1
 C
 C                    1     1.39448 
 C                    1     1.39874  2     119.56697 
 C                    2     1.39066  1     119.42697  3     2.53916  0
 H                    2     0.96213  1     119.80462  3    -177.7987  0
 N                    1     1.41693  2     123.7222  4    -177.74605  0
 C                    3     1.38667  1     120.1876  2    -2.50209  0
 H                    3     0.95673  1     118.82086  2     177.96737  0
 C                    4     1.38269  2     121.03929  1    -0.41221  0
 H                    4     0.98586  2     118.57913  1     178.77373  0
 C                    6     1.35501  1     127.62133  2    -65.      0
 H                    6     0.89609  1     115.10512  2     115.     0
 H                    7     0.98847  3     119.08118  1    -179.64585  0
 H                    9     0.98451  4     120.53756  2     177.22744  0
 C                    11    1.50275  6     115.46862  1     175.89235  0
 O                    11    1.23496  6     123.151  1    -3.40673  0
 H                    15    0.9872   11    107.47092  6    -116.36963  0
 H                    15    0.99976  11    109.69443  6     128.85346  0
 H                    15    0.97696  11    114.37009  6     6.05303  0
 
 ITRead=  0  0  0  0  0  0  0  0  0  0  0  0  0  0  0  0  0  0  0
 MicOpt= -1 -1 -1 -1 -1 -1 -1 -1 -1 -1 -1 -1 -1 -1 -1 -1 -1 -1 -1
 NAtoms=     19 NQM=       19 NQMF=       0 NMMI=      0 NMMIF=      0
                NMic=       0 NMicF=      0.
                    Isotopes and Nuclear Properties:
 (Nuclear quadrupole moments (NQMom) in fm**2, nuclear magnetic moments (NMagM)
  in nuclear magnetons)

  Atom         1           2           3           4           5           6           7           8           9          10
 IAtWgt=          12          12          12          12           1          14          12           1          12           1
 AtmWgt=  12.0000000  12.0000000  12.0000000  12.0000000   1.0078250  14.0030740  12.0000000   1.0078250  12.0000000   1.0078250
 NucSpn=           0           0           0           0           1           2           0           1           0           1
 AtZEff=  -0.0000000  -0.0000000  -0.0000000  -0.0000000  -0.0000000  -0.0000000  -0.0000000  -0.0000000  -0.0000000  -0.0000000
 NQMom=    0.0000000   0.0000000   0.0000000   0.0000000   0.0000000   2.0440000   0.0000000   0.0000000   0.0000000   0.0000000
 NMagM=    0.0000000   0.0000000   0.0000000   0.0000000   2.7928460   0.4037610   0.0000000   2.7928460   0.0000000   2.7928460
 AtZNuc=   6.0000000   6.0000000   6.0000000   6.0000000   1.0000000   7.0000000   6.0000000   1.0000000   6.0000000   1.0000000

  Atom        11          12          13          14          15          16          17          18          19
 IAtWgt=          12           1           1           1          12          16           1           1           1
 AtmWgt=  12.0000000   1.0078250   1.0078250   1.0078250  12.0000000  15.9949146   1.0078250   1.0078250   1.0078250
 NucSpn=           0           1           1           1           0           0           1           1           1
 AtZEff=  -0.0000000  -0.0000000  -0.0000000  -0.0000000  -0.0000000  -0.0000000  -0.0000000  -0.0000000  -0.0000000
 NQMom=    0.0000000   0.0000000   0.0000000   0.0000000   0.0000000   0.0000000   0.0000000   0.0000000   0.0000000
 NMagM=    0.0000000   2.7928460   2.7928460   2.7928460   0.0000000   0.0000000   2.7928460   2.7928460   2.7928460
 AtZNuc=   6.0000000   1.0000000   1.0000000   1.0000000   6.0000000   8.0000000   1.0000000   1.0000000   1.0000000
 Leave Link  101 at Tue Nov 22 19:13:53 2022, MaxMem= 16106127360 cpu:               5.2 elap:               0.2
 (Enter /opt/ap/G16/B01/g16/l202.exe)
                          Input orientation:                          
 ---------------------------------------------------------------------
 Center     Atomic      Atomic             Coordinates (Angstroms)
 Number     Number       Type             X           Y           Z
 ---------------------------------------------------------------------
      1          6           0        0.000000    0.000000    0.000000
      2          6           0        0.000000    0.000000    1.394475
      3          6           0        1.216591    0.000000   -0.690193
      4          6           0        1.210053    0.053661    2.077726
      5          1           0       -0.834249   -0.032067    1.872696
      6          7           0       -1.178505   -0.005866   -0.786634
      7          6           0        2.413939    0.052326    0.007287
      8          1           0        1.204393   -0.029731   -1.646384
      9          6           0        2.412261    0.098442    1.396177
     10          1           0        1.194755    0.071528    3.063305
     11          6           0       -2.113434   -0.983227   -0.868585
     12          1           0       -1.308004    0.728914   -1.282935
     13          1           0        3.263999    0.056828   -0.497149
     14          1           0        3.262484    0.177260    1.886251
     15          6           0       -3.309800   -0.663321   -1.719827
     16          8           0       -2.013397   -2.064521   -0.280423
     17          1           0       -4.100650   -0.656542   -1.129005
     18          1           0       -3.463210   -1.401479   -2.376416
     19          1           0       -3.246170    0.183627   -2.202617
 ---------------------------------------------------------------------
                    Distance matrix (angstroms):
                    1          2          3          4          5
     1  C    0.000000
     2  C    1.394475   0.000000
     3  C    1.398735   2.413697   0.000000
     4  C    2.405006   1.390661   2.768447   0.000000
     5  H    2.050363   0.962130   3.282586   2.056345   0.000000
     6  N    1.416934   2.479142   2.397044   3.730055   2.681648
     7  C    2.414517   2.784624   1.386671   2.395008   3.746678
     8  H    2.040105   3.270821   0.956732   3.725048   4.066939
     9  C    2.788908   2.414270   2.406711   1.382686   3.283889
    10  H    3.288829   2.053668   3.754243   0.985860   2.354812
    11  C    2.487525   3.248812   3.476727   4.560861   3.171063
    12  H    1.971829   3.067688   2.693740   4.253306   3.280479
    13  H    3.302132   3.772951   2.057273   3.293734   4.734944
    14  H    3.772687   3.304099   3.294718   2.065046   4.102100
    15  C    3.788479   4.592782   4.689174   5.946809   4.408294
    16  O    2.897353   3.334861   3.855254   4.520862   3.187033
    17  H    4.303607   4.859458   5.375561   6.244283   4.479906
    18  H    4.427790   5.308256   5.167982   6.617869   5.180895
    19  H    3.927195   4.848753   4.715653   6.180303   4.740471
                    6          7          8          9         10
     6  N    0.000000
     7  C    3.679585   0.000000
     8  H    2.533365   2.050454   0.000000
     9  C    4.203468   1.389657   3.276058   0.000000
    10  H    4.523316   3.290292   4.710788   2.064548   0.000000
    11  C    1.355007   4.726164   3.538659   5.175044   5.245606
    12  H    0.896095   3.996911   2.649486   4.627689   5.058237
    13  H    4.452366   0.988472   2.360129   2.076505   4.118108
    14  H    5.186544   2.065465   4.093666   0.984512   2.381625
    15  C    2.417750   6.021317   4.559031   6.559859   6.611307
    16  O    2.278455   4.915804   4.044799   5.203446   5.102496
    17  H    3.013226   6.650829   5.366941   7.025992   6.793149
    18  H    3.113683   6.506648   4.919468   7.141666   7.311426
    19  H    2.513196   6.077643   4.490259   6.706446   6.889435
                   11         12         13         14         15
    11  C    0.000000
    12  H    1.936964   0.000000
    13  H    5.489669   4.687469   0.000000
    14  H    6.151126   5.589045   2.386441   0.000000
    15  C    1.502746   2.477172   6.725205   7.543560   0.000000
    16  O    1.234965   3.050555   5.691924   6.128212   2.390796
    17  H    2.030657   3.121227   7.426048   8.000171   0.987198
    18  H    2.066491   3.221675   7.135380   8.117741   0.999760
    19  H    2.103397   2.213514   6.731047   7.686447   0.976962
                   16         17         18         19
    16  O    0.000000
    17  H    2.656900   0.000000
    18  H    2.633395   1.586598   0.000000
    19  H    3.204485   1.608931   1.609308   0.000000
 Stoichiometry    C8H9NO
 Framework group  C1[X(C8H9NO)]
 Deg. of freedom    51
 Full point group                 C1      NOp   1
 Largest Abelian subgroup         C1      NOp   1
 Largest concise Abelian subgroup C1      NOp   1
                         Standard orientation:                         
 ---------------------------------------------------------------------
 Center     Atomic      Atomic             Coordinates (Angstroms)
 Number     Number       Type             X           Y           Z
 ---------------------------------------------------------------------
      1          6           0       -0.288590    0.168446   -0.279911
      2          6           0       -0.887698   -1.079700   -0.446532
      3          6           0       -1.063080    1.255458    0.138455
      4          6           0       -2.257291   -1.212522   -0.245254
      5          1           0       -0.352285   -1.836690   -0.703425
      6          7           0        1.088037    0.416667   -0.505706
      7          6           0       -2.427333    1.104703    0.335798
      8          1           0       -0.635556    2.099953    0.277693
      9          6           0       -3.031835   -0.128771    0.125402
     10          1           0       -2.670850   -2.096580   -0.384281
     11          6           0        2.142791   -0.089331    0.178038
     12          1           0        1.267547    0.975390   -1.182900
     13          1           0       -2.959861    1.885085    0.626477
     14          1           0       -4.006718   -0.221844    0.226422
     15          6           0        3.497407    0.282741   -0.355650
     16          8           0        2.019414   -0.819192    1.166581
     17          1           0        3.938428   -0.549601   -0.651061
     18          1           0        4.062949    0.646052    0.384409
     19          1           0        3.478543    0.928965   -1.088106
 ---------------------------------------------------------------------
 Rotational constants (GHZ):           3.7267524           0.7588364           0.6949660
 Leave Link  202 at Tue Nov 22 19:13:53 2022, MaxMem= 16106127360 cpu:               0.4 elap:               0.0
 (Enter /opt/ap/G16/B01/g16/l301.exe)
 Standard basis: 6-311++G(d,p) (5D, 7F)
 Ernie: Thresh=  0.10000D-02 Tol=  0.10000D-05 Strict=F.
 There are   293 symmetry adapted cartesian basis functions of A   symmetry.
 There are   283 symmetry adapted basis functions of A   symmetry.
   283 basis functions,   441 primitive gaussians,   293 cartesian basis functions
    36 alpha electrons       36 beta electrons
       nuclear repulsion energy       490.5109597474 Hartrees.
 IExCor= 4639 DFT=T Ex+Corr=wB97XD ExCW=0 ScaHFX=  1.000000
 ScaDFX=  1.000000  1.000000  1.000000  1.000000 ScalE2=  1.000000  1.000000
 IRadAn=      5 IRanWt=     -1 IRanGd=            0 ICorTp=0 IEmpDi=121
 HFx  wShort=  0.000000 wLong=  0.200000 cFull=  0.222036 cShort=  0.000000 cLong=  0.777964
 DFx  wShort=  0.000000 wLong=  0.200000 cFull=  0.000000 cShort=  0.000000 cLong=  1.000000
 NAtoms=   19 NActive=   19 NUniq=   19 SFac= 1.00D+00 NAtFMM=   60 NAOKFM=F Big=F
 Integral buffers will be    131072 words long.
 Raffenetti 2 integral format.
 Two-electron integral symmetry is turned on.
 R6Disp:  Grimme-D2 Dispersion energy=       -0.0091859390 Hartrees.
 Nuclear repulsion after empirical dispersion term =      490.5017738083 Hartrees.
 Leave Link  301 at Tue Nov 22 19:13:53 2022, MaxMem= 16106127360 cpu:               1.2 elap:               0.0
 (Enter /opt/ap/G16/B01/g16/l302.exe)
 NPDir=0 NMtPBC=     1 NCelOv=     1 NCel=       1 NClECP=     1 NCelD=      1
         NCelK=      1 NCelE2=     1 NClLst=     1 CellRange=     0.0.
 One-electron integrals computed using PRISM.
 One-electron integral symmetry used in STVInt
 NBasis=   283 RedAO= T EigKep=  3.37D-06  NBF=   283
 NBsUse=   282 1.00D-06 EigRej=  9.04D-07 NBFU=   282
 Precomputing XC quadrature grid using
 IXCGrd= 4 IRadAn=           5 IRanWt=          -1 IRanGd=           0 AccXCQ= 0.00D+00.
 Generated NRdTot=       0 NPtTot=           0 NUsed=           0 NTot=          32
 NSgBfM=   293   293   293   293   293 MxSgAt=    19 MxSgA2=    19.
 Leave Link  302 at Tue Nov 22 19:13:53 2022, MaxMem= 16106127360 cpu:               6.2 elap:               0.2
 (Enter /opt/ap/G16/B01/g16/l303.exe)
 DipDrv:  MaxL=1.
 Leave Link  303 at Tue Nov 22 19:13:53 2022, MaxMem= 16106127360 cpu:               1.3 elap:               0.0
 (Enter /opt/ap/G16/B01/g16/l401.exe)
 ExpMin= 3.60D-02 ExpMax= 8.59D+03 ExpMxC= 1.30D+03 IAcc=3 IRadAn=         5 AccDes= 0.00D+00
 Harris functional with IExCor= 4639 and IRadAn=       5 diagonalized for initial guess.
 HarFok:  IExCor= 4639 AccDes= 0.00D+00 IRadAn=         5 IDoV= 1 UseB2=F ITyADJ=14
 ICtDFT=  3500011 ScaDFX=  1.000000  1.000000  1.000000  1.000000
 FoFCou: FMM=F IPFlag=           0 FMFlag=      100000 FMFlg1=           0
         NFxFlg=           0 DoJE=T BraDBF=F KetDBF=T FulRan=T
         wScrn=  0.000000 ICntrl=       500 IOpCl=  0 I1Cent=   200000004 NGrid=           0
         NMat0=    1 NMatS0=      1 NMatT0=    0 NMatD0=    1 NMtDS0=    0 NMtDT0=    0
 Petite list used in FoFCou.
 Harris En= -420.981742921613    
 JPrj=0 DoOrth=F DoCkMO=F.
 Leave Link  401 at Tue Nov 22 19:13:54 2022, MaxMem= 16106127360 cpu:              15.6 elap:               0.5
 (Enter /opt/ap/G16/B01/g16/l502.exe)
 Integral symmetry usage will be decided dynamically.
 Closed shell SCF:
 Using DIIS extrapolation, IDIIS=  1040.
 NGot= 16106127360 LenX= 16105943385 LenY= 16105857095
 Requested convergence on RMS density matrix=1.00D-08 within 512 cycles.
 Requested convergence on MAX density matrix=1.00D-06.
 Requested convergence on             energy=1.00D-06.
 No special actions if energy rises.
 Fock matrices will be formed incrementally for  20 cycles.

 Cycle   1  Pass 1  IDiag  1:
 FoFJK:  IHMeth= 1 ICntrl=       0 DoSepK=T KAlg= 0 I1Cent=           0 FoldK=F
 IRaf=         1 NMat=       1 IRICut=       1 DoRegI=T DoRafI=F ISym2E= 0 IDoP0=0 IntGTp=1.
 FoFCou: FMM=F IPFlag=           0 FMFlag=      100000 FMFlg1=           0
         NFxFlg=           0 DoJE=T BraDBF=F KetDBF=F FulRan=T
         wScrn=  0.000000 ICntrl=       500 IOpCl=  0 I1Cent=           0 NGrid=           0
         NMat0=    1 NMatS0=      1 NMatT0=    0 NMatD0=    1 NMtDS0=    0 NMtDT0=    0
 Symmetry not used in FoFCou.
 E= -439.996918637581    
 DIIS: error= 4.81D-02 at cycle   1 NSaved=   1.
 NSaved= 1 IEnMin= 1 EnMin= -439.996918637581     IErMin= 1 ErrMin= 4.81D-02
 ErrMax= 4.81D-02  0.00D+00 EMaxC= 1.00D-01 BMatC= 9.35D-01 BMatP= 9.35D-01
 IDIUse=3 WtCom= 5.19D-01 WtEn= 4.81D-01
 Coeff-Com:  0.100D+01
 Coeff-En:   0.100D+01
 Coeff:      0.100D+01
 Gap=     0.471 Goal=   None    Shift=    0.000
 GapD=    0.471 DampG=2.000 DampE=0.500 DampFc=1.0000 IDamp=-1.
 RMSDP=7.83D-03 MaxDP=5.19D-01              OVMax= 1.28D-01

 Cycle   2  Pass 1  IDiag  1:
 RMSU=  5.68D-03    CP:  7.92D-01
 E= -440.077966164622     Delta-E=       -0.081047527041 Rises=F Damp=F
 DIIS: error= 1.38D-02 at cycle   2 NSaved=   2.
 NSaved= 2 IEnMin= 2 EnMin= -440.077966164622     IErMin= 2 ErrMin= 1.38D-02
 ErrMax= 1.38D-02  0.00D+00 EMaxC= 1.00D-01 BMatC= 7.26D-02 BMatP= 9.35D-01
 IDIUse=3 WtCom= 8.62D-01 WtEn= 1.38D-01
 Coeff-Com:  0.146D+00 0.854D+00
 Coeff-En:   0.185D+00 0.815D+00
 Coeff:      0.152D+00 0.848D+00
 Gap=     0.426 Goal=   None    Shift=    0.000
 RMSDP=4.21D-03 MaxDP=2.79D-01 DE=-8.10D-02 OVMax= 1.10D-01

 Cycle   3  Pass 1  IDiag  1:
 RMSU=  3.46D-03    CP:  7.20D-01  7.37D-01
 E= -440.106109103869     Delta-E=       -0.028142939247 Rises=F Damp=F
 DIIS: error= 1.18D-02 at cycle   3 NSaved=   3.
 NSaved= 3 IEnMin= 3 EnMin= -440.106109103869     IErMin= 3 ErrMin= 1.18D-02
 ErrMax= 1.18D-02  0.00D+00 EMaxC= 1.00D-01 BMatC= 3.86D-02 BMatP= 7.26D-02
 IDIUse=3 WtCom= 8.82D-01 WtEn= 1.18D-01
 Coeff-Com:  0.264D-01 0.426D+00 0.548D+00
 Coeff-En:   0.000D+00 0.354D+00 0.646D+00
 Coeff:      0.233D-01 0.418D+00 0.559D+00
 Gap=     0.387 Goal=   None    Shift=    0.000
 RMSDP=1.71D-03 MaxDP=1.03D-01 DE=-2.81D-02 OVMax= 6.23D-02

 Cycle   4  Pass 1  IDiag  1:
 RMSU=  6.63D-04    CP:  7.36D-01  8.77D-01  6.25D-01
 E= -440.140168691777     Delta-E=       -0.034059587909 Rises=F Damp=F
 DIIS: error= 2.80D-03 at cycle   4 NSaved=   4.
 NSaved= 4 IEnMin= 4 EnMin= -440.140168691777     IErMin= 4 ErrMin= 2.80D-03
 ErrMax= 2.80D-03  0.00D+00 EMaxC= 1.00D-01 BMatC= 1.59D-03 BMatP= 3.86D-02
 IDIUse=3 WtCom= 9.72D-01 WtEn= 2.80D-02
 Coeff-Com:  0.975D-02 0.198D+00 0.295D+00 0.498D+00
 Coeff-En:   0.000D+00 0.000D+00 0.000D+00 0.100D+01
 Coeff:      0.948D-02 0.192D+00 0.287D+00 0.512D+00
 Gap=     0.361 Goal=   None    Shift=    0.000
 RMSDP=3.36D-04 MaxDP=2.71D-02 DE=-3.41D-02 OVMax= 9.98D-03

 Cycle   5  Pass 1  IDiag  1:
 RMSU=  2.16D-04    CP:  7.27D-01  8.71D-01  6.47D-01  8.20D-01
 E= -440.141395542465     Delta-E=       -0.001226850688 Rises=F Damp=F
 DIIS: error= 5.99D-04 at cycle   5 NSaved=   5.
 NSaved= 5 IEnMin= 5 EnMin= -440.141395542465     IErMin= 5 ErrMin= 5.99D-04
 ErrMax= 5.99D-04  0.00D+00 EMaxC= 1.00D-01 BMatC= 5.79D-05 BMatP= 1.59D-03
 IDIUse=3 WtCom= 9.94D-01 WtEn= 5.99D-03
 Coeff-Com:  0.120D-02 0.265D-01 0.496D-01 0.178D+00 0.744D+00
 Coeff-En:   0.000D+00 0.000D+00 0.000D+00 0.000D+00 0.100D+01
 Coeff:      0.119D-02 0.263D-01 0.493D-01 0.177D+00 0.746D+00
 Gap=     0.360 Goal=   None    Shift=    0.000
 RMSDP=1.27D-04 MaxDP=8.57D-03 DE=-1.23D-03 OVMax= 2.67D-03

 Cycle   6  Pass 1  IDiag  1:
 RMSU=  9.84D-05    CP:  7.29D-01  8.78D-01  6.58D-01  8.87D-01  9.27D-01
 E= -440.141433625677     Delta-E=       -0.000038083212 Rises=F Damp=F
 DIIS: error= 2.68D-04 at cycle   6 NSaved=   6.
 NSaved= 6 IEnMin= 6 EnMin= -440.141433625677     IErMin= 6 ErrMin= 2.68D-04
 ErrMax= 2.68D-04  0.00D+00 EMaxC= 1.00D-01 BMatC= 1.67D-05 BMatP= 5.79D-05
 IDIUse=3 WtCom= 9.97D-01 WtEn= 2.68D-03
 Coeff-Com: -0.105D-02-0.188D-01-0.209D-01 0.946D-02 0.400D+00 0.631D+00
 Coeff-En:   0.000D+00 0.000D+00 0.000D+00 0.000D+00 0.623D-01 0.938D+00
 Coeff:     -0.105D-02-0.187D-01-0.209D-01 0.944D-02 0.400D+00 0.632D+00
 Gap=     0.360 Goal=   None    Shift=    0.000
 RMSDP=4.35D-05 MaxDP=1.39D-03 DE=-3.81D-05 OVMax= 1.21D-03

 Cycle   7  Pass 1  IDiag  1:
 RMSU=  2.51D-05    CP:  7.28D-01  8.79D-01  6.60D-01  9.15D-01  1.03D+00
                    CP:  1.05D+00
 E= -440.141447697288     Delta-E=       -0.000014071611 Rises=F Damp=F
 DIIS: error= 9.29D-05 at cycle   7 NSaved=   7.
 NSaved= 7 IEnMin= 7 EnMin= -440.141447697288     IErMin= 7 ErrMin= 9.29D-05
 ErrMax= 9.29D-05  0.00D+00 EMaxC= 1.00D-01 BMatC= 4.23D-07 BMatP= 1.67D-05
 IDIUse=1 WtCom= 1.00D+00 WtEn= 0.00D+00
 Coeff-Com: -0.302D-03-0.581D-02-0.680D-02-0.122D-01 0.275D-01 0.114D+00
 Coeff-Com:  0.883D+00
 Coeff:     -0.302D-03-0.581D-02-0.680D-02-0.122D-01 0.275D-01 0.114D+00
 Coeff:      0.883D+00
 Gap=     0.360 Goal=   None    Shift=    0.000
 RMSDP=1.60D-05 MaxDP=9.72D-04 DE=-1.41D-05 OVMax= 3.92D-04

 Cycle   8  Pass 1  IDiag  1:
 RMSU=  7.22D-06    CP:  7.28D-01  8.78D-01  6.60D-01  9.26D-01  1.07D+00
                    CP:  1.14D+00  1.13D+00
 E= -440.141448529753     Delta-E=       -0.000000832465 Rises=F Damp=F
 DIIS: error= 1.71D-05 at cycle   8 NSaved=   8.
 NSaved= 8 IEnMin= 8 EnMin= -440.141448529753     IErMin= 8 ErrMin= 1.71D-05
 ErrMax= 1.71D-05  0.00D+00 EMaxC= 1.00D-01 BMatC= 8.31D-08 BMatP= 4.23D-07
 IDIUse=1 WtCom= 1.00D+00 WtEn= 0.00D+00
 Coeff-Com:  0.618D-04 0.801D-03 0.103D-02-0.643D-02-0.549D-01-0.668D-01
 Coeff-Com:  0.271D+00 0.855D+00
 Coeff:      0.618D-04 0.801D-03 0.103D-02-0.643D-02-0.549D-01-0.668D-01
 Coeff:      0.271D+00 0.855D+00
 Gap=     0.360 Goal=   None    Shift=    0.000
 RMSDP=5.87D-06 MaxDP=2.97D-04 DE=-8.32D-07 OVMax= 2.63D-04

 Cycle   9  Pass 1  IDiag  1:
 RMSU=  2.32D-06    CP:  7.28D-01  8.78D-01  6.60D-01  9.29D-01  1.08D+00
                    CP:  1.17D+00  1.23D+00  1.15D+00
 E= -440.141448683130     Delta-E=       -0.000000153378 Rises=F Damp=F
 DIIS: error= 1.40D-05 at cycle   9 NSaved=   9.
 NSaved= 9 IEnMin= 9 EnMin= -440.141448683130     IErMin= 9 ErrMin= 1.40D-05
 ErrMax= 1.40D-05  0.00D+00 EMaxC= 1.00D-01 BMatC= 7.23D-09 BMatP= 8.31D-08
 IDIUse=1 WtCom= 1.00D+00 WtEn= 0.00D+00
 Coeff-Com:  0.479D-04 0.831D-03 0.110D-02-0.654D-03-0.178D-01-0.299D-01
 Coeff-Com: -0.490D-03 0.242D+00 0.805D+00
 Coeff:      0.479D-04 0.831D-03 0.110D-02-0.654D-03-0.178D-01-0.299D-01
 Coeff:     -0.490D-03 0.242D+00 0.805D+00
 Gap=     0.360 Goal=   None    Shift=    0.000
 RMSDP=1.31D-06 MaxDP=3.40D-05 DE=-1.53D-07 OVMax= 5.71D-05

 Cycle  10  Pass 1  IDiag  1:
 RMSU=  8.26D-07    CP:  7.28D-01  8.78D-01  6.61D-01  9.28D-01  1.08D+00
                    CP:  1.18D+00  1.24D+00  1.19D+00  1.28D+00
 E= -440.141448697090     Delta-E=       -0.000000013959 Rises=F Damp=F
 DIIS: error= 2.05D-06 at cycle  10 NSaved=  10.
 NSaved=10 IEnMin=10 EnMin= -440.141448697090     IErMin=10 ErrMin= 2.05D-06
 ErrMax= 2.05D-06  0.00D+00 EMaxC= 1.00D-01 BMatC= 1.14D-09 BMatP= 7.23D-09
 IDIUse=1 WtCom= 1.00D+00 WtEn= 0.00D+00
 Coeff-Com:  0.462D-05 0.133D-03 0.198D-03 0.712D-03 0.308D-02 0.999D-03
 Coeff-Com: -0.372D-01-0.729D-01 0.227D+00 0.878D+00
 Coeff:      0.462D-05 0.133D-03 0.198D-03 0.712D-03 0.308D-02 0.999D-03
 Coeff:     -0.372D-01-0.729D-01 0.227D+00 0.878D+00
 Gap=     0.360 Goal=   None    Shift=    0.000
 RMSDP=8.12D-07 MaxDP=6.47D-05 DE=-1.40D-08 OVMax= 3.42D-05

 Cycle  11  Pass 1  IDiag  1:
 RMSU=  3.53D-07    CP:  7.28D-01  8.78D-01  6.61D-01  9.28D-01  1.08D+00
                    CP:  1.17D+00  1.24D+00  1.21D+00  1.44D+00  1.15D+00
 E= -440.141448699402     Delta-E=       -0.000000002312 Rises=F Damp=F
 DIIS: error= 1.18D-06 at cycle  11 NSaved=  11.
 NSaved=11 IEnMin=11 EnMin= -440.141448699402     IErMin=11 ErrMin= 1.18D-06
 ErrMax= 1.18D-06  0.00D+00 EMaxC= 1.00D-01 BMatC= 9.59D-11 BMatP= 1.14D-09
 IDIUse=1 WtCom= 1.00D+00 WtEn= 0.00D+00
 Coeff-Com: -0.329D-05-0.492D-04-0.532D-04 0.274D-03 0.273D-02 0.334D-02
 Coeff-Com: -0.882D-02-0.477D-01-0.280D-01 0.210D+00 0.869D+00
 Coeff:     -0.329D-05-0.492D-04-0.532D-04 0.274D-03 0.273D-02 0.334D-02
 Coeff:     -0.882D-02-0.477D-01-0.280D-01 0.210D+00 0.869D+00
 Gap=     0.360 Goal=   None    Shift=    0.000
 RMSDP=2.95D-07 MaxDP=2.76D-05 DE=-2.31D-09 OVMax= 6.84D-06

 Cycle  12  Pass 1  IDiag  1:
 RMSU=  8.48D-08    CP:  7.28D-01  8.78D-01  6.61D-01  9.28D-01  1.08D+00
                    CP:  1.17D+00  1.24D+00  1.20D+00  1.48D+00  1.26D+00
                    CP:  1.27D+00
 E= -440.141448699603     Delta-E=       -0.000000000201 Rises=F Damp=F
 DIIS: error= 1.90D-07 at cycle  12 NSaved=  12.
 NSaved=12 IEnMin=12 EnMin= -440.141448699603     IErMin=12 ErrMin= 1.90D-07
 ErrMax= 1.90D-07  0.00D+00 EMaxC= 1.00D-01 BMatC= 8.47D-12 BMatP= 9.59D-11
 IDIUse=1 WtCom= 1.00D+00 WtEn= 0.00D+00
 Coeff-Com: -0.899D-06-0.204D-04-0.270D-04-0.168D-04 0.885D-05 0.351D-03
 Coeff-Com:  0.285D-02 0.191D-03-0.243D-01-0.512D-01 0.139D+00 0.933D+00
 Coeff:     -0.899D-06-0.204D-04-0.270D-04-0.168D-04 0.885D-05 0.351D-03
 Coeff:      0.285D-02 0.191D-03-0.243D-01-0.512D-01 0.139D+00 0.933D+00
 Gap=     0.360 Goal=   None    Shift=    0.000
 RMSDP=9.54D-08 MaxDP=6.87D-06 DE=-2.01D-10 OVMax= 2.77D-06

 Cycle  13  Pass 1  IDiag  1:
 RMSU=  2.98D-08    CP:  7.28D-01  8.78D-01  6.61D-01  9.28D-01  1.08D+00
                    CP:  1.17D+00  1.24D+00  1.20D+00  1.48D+00  1.29D+00
                    CP:  1.38D+00  1.27D+00
 E= -440.141448699629     Delta-E=       -0.000000000026 Rises=F Damp=F
 DIIS: error= 7.15D-08 at cycle  13 NSaved=  13.
 NSaved=13 IEnMin=13 EnMin= -440.141448699629     IErMin=13 ErrMin= 7.15D-08
 ErrMax= 7.15D-08  0.00D+00 EMaxC= 1.00D-01 BMatC= 1.67D-12 BMatP= 8.47D-12
 IDIUse=1 WtCom= 1.00D+00 WtEn= 0.00D+00
 Coeff-Com:  0.845D-07-0.352D-06-0.185D-05-0.319D-04-0.341D-03-0.280D-03
 Coeff-Com:  0.192D-02 0.564D-02-0.441D-02-0.414D-01-0.714D-01 0.290D+00
 Coeff-Com:  0.821D+00
 Coeff:      0.845D-07-0.352D-06-0.185D-05-0.319D-04-0.341D-03-0.280D-03
 Coeff:      0.192D-02 0.564D-02-0.441D-02-0.414D-01-0.714D-01 0.290D+00
 Coeff:      0.821D+00
 Gap=     0.360 Goal=   None    Shift=    0.000
 RMSDP=3.30D-08 MaxDP=2.14D-06 DE=-2.60D-11 OVMax= 8.32D-07

 Cycle  14  Pass 1  IDiag  1:
 RMSU=  1.16D-08    CP:  7.28D-01  8.78D-01  6.61D-01  9.28D-01  1.08D+00
                    CP:  1.17D+00  1.24D+00  1.20D+00  1.48D+00  1.29D+00
                    CP:  1.43D+00  1.33D+00  1.18D+00
 E= -440.141448699633     Delta-E=       -0.000000000005 Rises=F Damp=F
 DIIS: error= 2.24D-08 at cycle  14 NSaved=  14.
 NSaved=14 IEnMin=14 EnMin= -440.141448699633     IErMin=14 ErrMin= 2.24D-08
 ErrMax= 2.24D-08  0.00D+00 EMaxC= 1.00D-01 BMatC= 1.09D-13 BMatP= 1.67D-12
 IDIUse=1 WtCom= 1.00D+00 WtEn= 0.00D+00
 Coeff-Com:  0.910D-07 0.156D-05 0.173D-05-0.476D-05-0.765D-04-0.812D-04
 Coeff-Com:  0.156D-03 0.111D-02 0.123D-02-0.300D-02-0.310D-01-0.251D-01
 Coeff-Com:  0.175D+00 0.882D+00
 Coeff:      0.910D-07 0.156D-05 0.173D-05-0.476D-05-0.765D-04-0.812D-04
 Coeff:      0.156D-03 0.111D-02 0.123D-02-0.300D-02-0.310D-01-0.251D-01
 Coeff:      0.175D+00 0.882D+00
 Gap=     0.360 Goal=   None    Shift=    0.000
 RMSDP=7.41D-09 MaxDP=2.94D-07 DE=-4.55D-12 OVMax= 2.47D-07

 SCF Done:  E(RwB97XD) =  -440.141448700     A.U. after   14 cycles
            NFock= 14  Conv=0.74D-08     -V/T= 2.0003
 KE= 4.400206475184D+02 PE=-2.007450080644D+03 EE= 6.367862106172D+02
 Leave Link  502 at Tue Nov 22 19:14:11 2022, MaxMem= 16106127360 cpu:             547.8 elap:              17.2
 (Enter /opt/ap/G16/B01/g16/l601.exe)
 Copying SCF densities to generalized density rwf, IOpCl= 0 IROHF=0.

 **********************************************************************

            Population analysis using the SCF Density.

 **********************************************************************

 Orbital symmetries:
       Occupied  (A) (A) (A) (A) (A) (A) (A) (A) (A) (A) (A) (A)
                 (A) (A) (A) (A) (A) (A) (A) (A) (A) (A) (A) (A)
                 (A) (A) (A) (A) (A) (A) (A) (A) (A) (A) (A) (A)
       Virtual   (A) (A) (A) (A) (A) (A) (A) (A) (A) (A) (A) (A)
                 (A) (A) (A) (A) (A) (A) (A) (A) (A) (A) (A) (A)
                 (A) (A) (A) (A) (A) (A) (A) (A) (A) (A) (A) (A)
                 (A) (A) (A) (A) (A) (A) (A) (A) (A) (A) (A) (A)
                 (A) (A) (A) (A) (A) (A) (A) (A) (A) (A) (A) (A)
                 (A) (A) (A) (A) (A) (A) (A) (A) (A) (A) (A) (A)
                 (A) (A) (A) (A) (A) (A) (A) (A) (A) (A) (A) (A)
                 (A) (A) (A) (A) (A) (A) (A) (A) (A) (A) (A) (A)
                 (A) (A) (A) (A) (A) (A) (A) (A) (A) (A) (A) (A)
                 (A) (A) (A) (A) (A) (A) (A) (A) (A) (A) (A) (A)
                 (A) (A) (A) (A) (A) (A) (A) (A) (A) (A) (A) (A)
                 (A) (A) (A) (A) (A) (A) (A) (A) (A) (A) (A) (A)
                 (A) (A) (A) (A) (A) (A) (A) (A) (A) (A) (A) (A)
                 (A) (A) (A) (A) (A) (A) (A) (A) (A) (A) (A) (A)
                 (A) (A) (A) (A) (A) (A) (A) (A) (A) (A) (A) (A)
                 (A) (A) (A) (A) (A) (A) (A) (A) (A) (A) (A) (A)
                 (A) (A) (A) (A) (A) (A) (A) (A) (A) (A) (A) (A)
                 (A) (A) (A) (A) (A) (A) (A) (A) (A) (A) (A) (A)
                 (A) (A) (A) (A) (A) (A) (A) (A) (A) (A) (A) (A)
                 (A) (A) (A) (A) (A) (A) (A) (A) (A) (A) (A) (A)
                 (A) (A) (A) (A) (A) (A)
 The electronic state is 1-A.
 Alpha  occ. eigenvalues --  -19.20687 -14.45960 -10.39267 -10.33519 -10.28422
 Alpha  occ. eigenvalues --  -10.28339 -10.28237 -10.28158 -10.28113 -10.25932
 Alpha  occ. eigenvalues --   -1.13789  -1.05545  -0.96582  -0.88288  -0.86821
 Alpha  occ. eigenvalues --   -0.84700  -0.74112  -0.73056  -0.69894  -0.65874
 Alpha  occ. eigenvalues --   -0.61611  -0.58266  -0.56684  -0.55436  -0.54359
 Alpha  occ. eigenvalues --   -0.53251  -0.51457  -0.49379  -0.47411  -0.46047
 Alpha  occ. eigenvalues --   -0.45848  -0.44336  -0.36641  -0.34265  -0.33554
 Alpha  occ. eigenvalues --   -0.32537
 Alpha virt. eigenvalues --    0.03496   0.04356   0.04521   0.04749   0.05144
 Alpha virt. eigenvalues --    0.06187   0.06679   0.06886   0.08564   0.09115
 Alpha virt. eigenvalues --    0.10062   0.10388   0.11507   0.12697   0.13383
 Alpha virt. eigenvalues --    0.13904   0.14823   0.15513   0.15987   0.16394
 Alpha virt. eigenvalues --    0.16709   0.17379   0.17760   0.17942   0.18335
 Alpha virt. eigenvalues --    0.18902   0.19126   0.19675   0.20099   0.20360
 Alpha virt. eigenvalues --    0.20998   0.21456   0.22321   0.22959   0.23380
 Alpha virt. eigenvalues --    0.24109   0.24892   0.25204   0.25472   0.26726
 Alpha virt. eigenvalues --    0.27829   0.27874   0.28612   0.29244   0.29636
 Alpha virt. eigenvalues --    0.29827   0.30979   0.31753   0.32657   0.34100
 Alpha virt. eigenvalues --    0.34843   0.35614   0.36404   0.37153   0.38052
 Alpha virt. eigenvalues --    0.38424   0.38884   0.39511   0.40105   0.40728
 Alpha virt. eigenvalues --    0.42486   0.43779   0.44287   0.45015   0.45467
 Alpha virt. eigenvalues --    0.46434   0.48270   0.50262   0.54228   0.55555
 Alpha virt. eigenvalues --    0.56961   0.58007   0.59321   0.62568   0.63053
 Alpha virt. eigenvalues --    0.63928   0.65073   0.65377   0.66068   0.66686
 Alpha virt. eigenvalues --    0.67537   0.69524   0.70068   0.72842   0.73565
 Alpha virt. eigenvalues --    0.74162   0.75088   0.76277   0.77100   0.78471
 Alpha virt. eigenvalues --    0.78963   0.80947   0.82241   0.82890   0.84636
 Alpha virt. eigenvalues --    0.86276   0.88094   0.89416   0.92594   0.93588
 Alpha virt. eigenvalues --    0.94249   0.94315   0.95724   0.96306   0.97223
 Alpha virt. eigenvalues --    0.98839   0.98956   0.99922   1.02380   1.04770
 Alpha virt. eigenvalues --    1.07879   1.10256   1.11294   1.13779   1.15124
 Alpha virt. eigenvalues --    1.16394   1.17666   1.18859   1.22040   1.24223
 Alpha virt. eigenvalues --    1.25640   1.28509   1.31360   1.35830   1.37975
 Alpha virt. eigenvalues --    1.42574   1.43291   1.47992   1.53252   1.55683
 Alpha virt. eigenvalues --    1.56392   1.61024   1.61932   1.62590   1.65844
 Alpha virt. eigenvalues --    1.66723   1.67192   1.67952   1.68298   1.68806
 Alpha virt. eigenvalues --    1.71447   1.72385   1.75027   1.76285   1.78474
 Alpha virt. eigenvalues --    1.82150   1.84344   1.86913   1.88795   1.90806
 Alpha virt. eigenvalues --    1.92561   1.93859   1.96514   1.97480   1.98759
 Alpha virt. eigenvalues --    2.01610   2.02339   2.04563   2.06330   2.07364
 Alpha virt. eigenvalues --    2.08357   2.11214   2.12817   2.13377   2.15549
 Alpha virt. eigenvalues --    2.22055   2.24989   2.26875   2.30580   2.35982
 Alpha virt. eigenvalues --    2.38761   2.41772   2.46164   2.49550   2.51838
 Alpha virt. eigenvalues --    2.53307   2.55664   2.59500   2.60444   2.63775
 Alpha virt. eigenvalues --    2.65808   2.68009   2.73170   2.73903   2.77881
 Alpha virt. eigenvalues --    2.80809   2.81545   2.82740   2.83233   2.84714
 Alpha virt. eigenvalues --    2.86976   2.89310   2.90599   2.91725   2.93218
 Alpha virt. eigenvalues --    2.94485   2.95436   2.97790   3.00612   3.01766
 Alpha virt. eigenvalues --    3.02452   3.04454   3.05752   3.13118   3.14476
 Alpha virt. eigenvalues --    3.20486   3.21386   3.22677   3.24976   3.28528
 Alpha virt. eigenvalues --    3.41681   3.45119   3.46305   3.48221   3.51566
 Alpha virt. eigenvalues --    3.62760   3.68265   3.71142   3.73905   3.90604
 Alpha virt. eigenvalues --    3.99672   4.07231   4.09328   4.13571   4.17779
 Alpha virt. eigenvalues --    4.30399   4.34221   4.38641   4.39227   4.44100
 Alpha virt. eigenvalues --    4.95552   5.16477   5.20374   5.21030   5.38044
 Alpha virt. eigenvalues --    5.90337  23.88487  23.98884  24.15005  24.22464
 Alpha virt. eigenvalues --   24.29828  24.32835  24.38314  24.42374  35.88345
 Alpha virt. eigenvalues --   50.16868
          Condensed to atoms (all electrons):
               1          2          3          4          5          6
     1  C    7.655531   0.036705  -0.503376  -0.487944  -0.150857  -0.264256
     2  C    0.036705   7.533385  -2.189993   0.437678   0.567305  -0.197186
     3  C   -0.503376  -2.189993   8.243476   0.371413  -0.085573   0.108636
     4  C   -0.487944   0.437678   0.371413   5.362077  -0.014884   0.024550
     5  H   -0.150857   0.567305  -0.085573  -0.014884   0.488572  -0.001166
     6  N   -0.264256  -0.197186   0.108636   0.024550  -0.001166   7.662331
     7  C   -0.335653   0.379360   0.189582  -0.085302   0.026564  -0.031979
     8  H   -0.129025  -0.071342   0.625122   0.033038  -0.003380  -0.005587
     9  C    0.151391  -0.155487  -0.486562   0.336508   0.017004   0.010593
    10  H    0.031673  -0.111771   0.051999   0.429994  -0.013405  -0.002162
    11  C    0.023241  -0.095033  -0.159357  -0.094512  -0.012914  -0.067429
    12  H   -0.003349   0.019164  -0.069543  -0.005653  -0.000574   0.340219
    13  H    0.018849   0.022851  -0.096136  -0.006294   0.001404  -0.004224
    14  H    0.019407  -0.015979  -0.009803  -0.052750  -0.000018   0.001578
    15  C   -0.005057   0.015279  -0.021743  -0.001616  -0.003114  -0.397820
    16  O    0.126495  -0.097008  -0.005072  -0.036641  -0.005829  -0.152380
    17  H   -0.001808   0.006467  -0.006649   0.000885  -0.001340   0.003536
    18  H    0.005320   0.008438  -0.015569  -0.001751  -0.000240  -0.000141
    19  H   -0.002491   0.002770   0.011020   0.003192   0.002014   0.028050
               7          8          9         10         11         12
     1  C   -0.335653  -0.129025   0.151391   0.031673   0.023241  -0.003349
     2  C    0.379360  -0.071342  -0.155487  -0.111771  -0.095033   0.019164
     3  C    0.189582   0.625122  -0.486562   0.051999  -0.159357  -0.069543
     4  C   -0.085302   0.033038   0.336508   0.429994  -0.094512  -0.005653
     5  H    0.026564  -0.003380   0.017004  -0.013405  -0.012914  -0.000574
     6  N   -0.031979  -0.005587   0.010593  -0.002162  -0.067429   0.340219
     7  C    5.304817  -0.071526   0.475006  -0.011288  -0.033370  -0.016680
     8  H   -0.071526   0.502663  -0.015610   0.002188  -0.019679   0.000471
     9  C    0.475006  -0.015610   5.629753  -0.062672   0.023098   0.009806
    10  H   -0.011288   0.002188  -0.062672   0.486864  -0.000451   0.000089
    11  C   -0.033370  -0.019679   0.023098  -0.000451   5.977103   0.060742
    12  H   -0.016680   0.000471   0.009806   0.000089   0.060742   0.360701
    13  H    0.429806  -0.013423  -0.041055  -0.001026   0.001550   0.000080
    14  H   -0.056443  -0.001190   0.468621  -0.009195  -0.001342   0.000392
    15  C    0.023699  -0.004105  -0.003652  -0.000391  -0.083022  -0.015696
    16  O    0.008073  -0.004214   0.006351  -0.000652   0.491325   0.006694
    17  H   -0.001683  -0.000110   0.000274  -0.000035  -0.034414   0.000074
    18  H   -0.000187  -0.000469   0.000544  -0.000041  -0.034786   0.001503
    19  H    0.002283   0.001448  -0.001549   0.000030  -0.098298  -0.008632
              13         14         15         16         17         18
     1  C    0.018849   0.019407  -0.005057   0.126495  -0.001808   0.005320
     2  C    0.022851  -0.015979   0.015279  -0.097008   0.006467   0.008438
     3  C   -0.096136  -0.009803  -0.021743  -0.005072  -0.006649  -0.015569
     4  C   -0.006294  -0.052750  -0.001616  -0.036641   0.000885  -0.001751
     5  H    0.001404  -0.000018  -0.003114  -0.005829  -0.001340  -0.000240
     6  N   -0.004224   0.001578  -0.397820  -0.152380   0.003536  -0.000141
     7  C    0.429806  -0.056443   0.023699   0.008073  -0.001683  -0.000187
     8  H   -0.013423  -0.001190  -0.004105  -0.004214  -0.000110  -0.000469
     9  C   -0.041055   0.468621  -0.003652   0.006351   0.000274   0.000544
    10  H   -0.001026  -0.009195  -0.000391  -0.000652  -0.000035  -0.000041
    11  C    0.001550  -0.001342  -0.083022   0.491325  -0.034414  -0.034786
    12  H    0.000080   0.000392  -0.015696   0.006694   0.000074   0.001503
    13  H    0.488038  -0.007929   0.000215   0.000208  -0.000012  -0.000034
    14  H   -0.007929   0.490376  -0.000090  -0.000037  -0.000001   0.000006
    15  C    0.000215  -0.000090   5.798128  -0.023618   0.408851   0.427896
    16  O    0.000208  -0.000037  -0.023618   8.045286  -0.007039  -0.010734
    17  H   -0.000012  -0.000001   0.408851  -0.007039   0.503417  -0.026720
    18  H   -0.000034   0.000006   0.427896  -0.010734  -0.026720   0.493106
    19  H    0.000055  -0.000034   0.403859   0.010589  -0.034976  -0.037494
              19
     1  C   -0.002491
     2  C    0.002770
     3  C    0.011020
     4  C    0.003192
     5  H    0.002014
     6  N    0.028050
     7  C    0.002283
     8  H    0.001448
     9  C   -0.001549
    10  H    0.000030
    11  C   -0.098298
    12  H   -0.008632
    13  H    0.000055
    14  H   -0.000034
    15  C    0.403859
    16  O    0.010589
    17  H   -0.034976
    18  H   -0.037494
    19  H    0.608797
 Mulliken charges:
               1
     1  C   -0.184795
     2  C   -0.095602
     3  C    0.048127
     4  C   -0.211989
     5  H    0.190432
     6  N   -0.055165
     7  C   -0.195079
     8  H    0.174730
     9  C   -0.362362
    10  H    0.210252
    11  C    0.157547
    12  H    0.320191
    13  H    0.207076
    14  H    0.174431
    15  C   -0.518004
    16  O   -0.351796
    17  H    0.191282
    18  H    0.191355
    19  H    0.109368
 Sum of Mulliken charges =  -0.00000
 Mulliken charges with hydrogens summed into heavy atoms:
               1
     1  C   -0.184795
     2  C    0.094830
     3  C    0.222858
     4  C   -0.001737
     6  N    0.265026
     7  C    0.011997
     9  C   -0.187931
    11  C    0.157547
    15  C   -0.025999
    16  O   -0.351796
 Electronic spatial extent (au):  <R**2>=           1668.2148
 Charge=             -0.0000 electrons
 Dipole moment (field-independent basis, Debye):
    X=             -0.4736    Y=              2.1995    Z=             -3.1558  Tot=              3.8758
 Quadrupole moment (field-independent basis, Debye-Ang):
   XX=            -49.6241   YY=            -54.4585   ZZ=            -63.3585
   XY=              5.0961   XZ=             -7.6074   YZ=              3.2836
 Traceless Quadrupole moment (field-independent basis, Debye-Ang):
   XX=              6.1896   YY=              1.3552   ZZ=             -7.5448
   XY=              5.0961   XZ=             -7.6074   YZ=              3.2836
 Octapole moment (field-independent basis, Debye-Ang**2):
  XXX=             13.3748  YYY=              0.5307  ZZZ=             -4.5882  XYY=             -3.8357
  XXY=              7.9609  XXZ=             -7.8371  XZZ=              5.2697  YZZ=              5.4616
  YYZ=             -3.7011  XYZ=              0.8895
 Hexadecapole moment (field-independent basis, Debye-Ang**3):
 XXXX=          -1556.7915 YYYY=           -307.9236 ZZZZ=           -165.0754 XXXY=             22.8107
 XXXZ=            -38.5866 YYYX=              4.7305 YYYZ=              8.4876 ZZZX=            -10.5361
 ZZZY=             -3.0916 XXYY=           -329.7721 XXZZ=           -342.1262 YYZZ=            -83.2228
 XXYZ=             20.7282 YYXZ=             -9.9205 ZZXY=              9.2288
 N-N= 4.905017738083D+02 E-N=-2.007450079350D+03  KE= 4.400206475184D+02
 No NMR shielding tensors so no spin-rotation constants.
 Leave Link  601 at Tue Nov 22 19:14:11 2022, MaxMem= 16106127360 cpu:               3.8 elap:               0.1
 (Enter /opt/ap/G16/B01/g16/l9999.exe)
 1\1\GINC-N37\SP\RwB97XD\6-311++G(d,p)\C8H9N1O1\ROOT\22-Nov-2022\0\\#P 
 wB97XD/6-311++G(d,p) scf=maxcycle=512\\_conf059.gjf nmol_natom 1_19\\0
 ,1\C\C,1,1.39447505\C,1,1.39873503,2,119.56697224\C,2,1.39066123,1,119
 .42697207,3,2.53915756,0\H,2,0.96213008,1,119.8046163,3,-177.79870417,
 0\N,1,1.41693372,2,123.72220125,4,-177.74604849,0\C,3,1.38667133,1,120
 .18759987,2,-2.5020857,0\H,3,0.95673174,1,118.82085988,2,177.96737168,
 0\C,4,1.38268572,2,121.03929493,1,-0.41221113,0\H,4,0.9858595,2,118.57
 91267,1,178.77373233,0\C,6,1.35500692,1,127.62132737,2,-65.,0\H,6,0.89
 609466,1,115.10511997,2,115.,0\H,7,0.98847198,3,119.08117704,1,-179.64
 585354,0\H,9,0.98451201,4,120.53755637,2,177.22743544,0\C,11,1.5027456
 1,6,115.46861532,1,175.89235465,0\O,11,1.23496495,6,123.15099888,1,-3.
 40672617,0\H,15,0.98719837,11,107.47091875,6,-116.36962839,0\H,15,0.99
 976021,11,109.69443261,6,128.85346087,0\H,15,0.97696155,11,114.3700887
 1,6,6.05302844,0\\Version=ES64L-G16RevB.01\State=1-A\HF=-440.1414487\R
 MSD=7.413e-09\Dipole=0.1549938,1.4152111,-0.5461559\Quadrupole=3.98512
 77,-8.4170584,4.4319307,-3.8435765,3.2955059,-0.5607891\PG=C01 [X(C8H9
 N1O1)]\\@


 ERWIN WITH HIS PSI CAN DO
 CALCULATIONS QUITE A FEW.
 BUT ONE THING HAS NOT BEEN SEEN
 JUST WHAT DOES PSI REALLY MEAN.
 -- WALTER HUCKEL, TRANS. BY FELIX BLOCH
 Job cpu time:       0 days  0 hours  9 minutes 44.7 seconds.
 Elapsed time:       0 days  0 hours  0 minutes 18.4 seconds.
 File lengths (MBytes):  RWF=     46 Int=      0 D2E=      0 Chk=      6 Scr=      1
 Normal termination of Gaussian 16 at Tue Nov 22 19:14:11 2022.
