 Entering Gaussian System, Link 0=g16
 Input=_conf055.gjf
 Output=_conf055.log
 Initial command:
 /opt/ap/G16/B01/g16/l1.exe "/tmp2/scr/Gau-1199.inp" -scrdir="/tmp2/scr/"
 Entering Link 1 = /opt/ap/G16/B01/g16/l1.exe PID=      1200.
  
 Copyright (c) 1988-2017, Gaussian, Inc.  All Rights Reserved.
  
 This is part of the Gaussian(R) 16 program.  It is based on
 the Gaussian(R) 09 system (copyright 2009, Gaussian, Inc.),
 the Gaussian(R) 03 system (copyright 2003, Gaussian, Inc.),
 the Gaussian(R) 98 system (copyright 1998, Gaussian, Inc.),
 the Gaussian(R) 94 system (copyright 1995, Gaussian, Inc.),
 the Gaussian 92(TM) system (copyright 1992, Gaussian, Inc.),
 the Gaussian 90(TM) system (copyright 1990, Gaussian, Inc.),
 the Gaussian 88(TM) system (copyright 1988, Gaussian, Inc.),
 the Gaussian 86(TM) system (copyright 1986, Carnegie Mellon
 University), and the Gaussian 82(TM) system (copyright 1983,
 Carnegie Mellon University). Gaussian is a federally registered
 trademark of Gaussian, Inc.
  
 This software contains proprietary and confidential information,
 including trade secrets, belonging to Gaussian, Inc.
  
 This software is provided under written license and may be
 used, copied, transmitted, or stored only in accord with that
 written license.
  
 The following legend is applicable only to US Government
 contracts under FAR:
  
                    RESTRICTED RIGHTS LEGEND
  
 Use, reproduction and disclosure by the US Government is
 subject to restrictions as set forth in subparagraphs (a)
 and (c) of the Commercial Computer Software - Restricted
 Rights clause in FAR 52.227-19.
  
 Gaussian, Inc.
 340 Quinnipiac St., Bldg. 40, Wallingford CT 06492
  
  
 ---------------------------------------------------------------
 Warning -- This program may not be used in any manner that
 competes with the business of Gaussian, Inc. or will provide
 assistance to any competitor of Gaussian, Inc.  The licensee
 of this program is prohibited from giving any competitor of
 Gaussian, Inc. access to this program.  By using this program,
 the user acknowledges that Gaussian, Inc. is engaged in the
 business of creating and licensing software in the field of
 computational chemistry and represents and warrants to the
 licensee that it is not a competitor of Gaussian, Inc. and that
 it will not use this program in any manner prohibited above.
 ---------------------------------------------------------------
  

 Cite this work as:
 Gaussian 16, Revision B.01,
 M. J. Frisch, G. W. Trucks, H. B. Schlegel, G. E. Scuseria, 
 M. A. Robb, J. R. Cheeseman, G. Scalmani, V. Barone, 
 G. A. Petersson, H. Nakatsuji, X. Li, M. Caricato, A. V. Marenich, 
 J. Bloino, B. G. Janesko, R. Gomperts, B. Mennucci, H. P. Hratchian, 
 J. V. Ortiz, A. F. Izmaylov, J. L. Sonnenberg, D. Williams-Young, 
 F. Ding, F. Lipparini, F. Egidi, J. Goings, B. Peng, A. Petrone, 
 T. Henderson, D. Ranasinghe, V. G. Zakrzewski, J. Gao, N. Rega, 
 G. Zheng, W. Liang, M. Hada, M. Ehara, K. Toyota, R. Fukuda, 
 J. Hasegawa, M. Ishida, T. Nakajima, Y. Honda, O. Kitao, H. Nakai, 
 T. Vreven, K. Throssell, J. A. Montgomery, Jr., J. E. Peralta, 
 F. Ogliaro, M. J. Bearpark, J. J. Heyd, E. N. Brothers, K. N. Kudin, 
 V. N. Staroverov, T. A. Keith, R. Kobayashi, J. Normand, 
 K. Raghavachari, A. P. Rendell, J. C. Burant, S. S. Iyengar, 
 J. Tomasi, M. Cossi, J. M. Millam, M. Klene, C. Adamo, R. Cammi, 
 J. W. Ochterski, R. L. Martin, K. Morokuma, O. Farkas, 
 J. B. Foresman, and D. J. Fox, Gaussian, Inc., Wallingford CT, 2016.
 
 ******************************************
 Gaussian 16:  ES64L-G16RevB.01 20-Dec-2017
                22-Nov-2022 
 ******************************************
 %nprocshared=32
 Will use up to   32 processors via shared memory.
 %mem=120GB
 %chk=_conf055.chk
 ----------------------------------------
 #P wB97XD/6-311++G(d,p) scf=maxcycle=512
 ----------------------------------------
 1/38=1,172=1/1;
 2/12=2,17=6,18=5,40=1/2;
 3/5=4,6=6,7=1111,11=2,25=1,30=1,74=-58/1,2,3;
 4//1;
 5/5=2,7=512,38=5/2;
 6/7=2,8=2,9=2,10=2,28=1/1;
 99/5=1,9=1/99;
 Leave Link    1 at Tue Nov 22 19:13:34 2022, MaxMem= 16106127360 cpu:               1.8 elap:               0.1
 (Enter /opt/ap/G16/B01/g16/l101.exe)
 ----------------------------
 _conf055.gjf nmol_natom 1_19
 ----------------------------
 Symbolic Z-matrix:
 Charge =  0 Multiplicity = 1
 C
 C                    1     1.39448 
 C                    1     1.39874  2     119.56697 
 C                    2     1.39066  1     119.42697  3     2.53916  0
 H                    2     0.96213  1     119.80462  3    -177.7987  0
 N                    1     1.41693  2     123.7222  4    -177.74605  0
 C                    3     1.38667  1     120.1876  2    -2.50209  0
 H                    3     0.95673  1     118.82086  2     177.96737  0
 C                    4     1.38269  2     121.03929  1    -0.41221  0
 H                    4     0.98586  2     118.57913  1     178.77373  0
 C                    6     1.35501  1     127.62133  2    -85.      0
 H                    6     0.89609  1     115.10512  2     95.      0
 H                    7     0.98847  3     119.08118  1    -179.64585  0
 H                    9     0.98451  4     120.53756  2     177.22744  0
 C                    11    1.50275  6     115.46862  1     175.89235  0
 O                    11    1.23496  6     123.151  1    -3.40673  0
 H                    15    0.9872   11    107.47092  6    -116.36963  0
 H                    15    0.99976  11    109.69443  6     128.85346  0
 H                    15    0.97696  11    114.37009  6     6.05303  0
 
 ITRead=  0  0  0  0  0  0  0  0  0  0  0  0  0  0  0  0  0  0  0
 MicOpt= -1 -1 -1 -1 -1 -1 -1 -1 -1 -1 -1 -1 -1 -1 -1 -1 -1 -1 -1
 NAtoms=     19 NQM=       19 NQMF=       0 NMMI=      0 NMMIF=      0
                NMic=       0 NMicF=      0.
                    Isotopes and Nuclear Properties:
 (Nuclear quadrupole moments (NQMom) in fm**2, nuclear magnetic moments (NMagM)
  in nuclear magnetons)

  Atom         1           2           3           4           5           6           7           8           9          10
 IAtWgt=          12          12          12          12           1          14          12           1          12           1
 AtmWgt=  12.0000000  12.0000000  12.0000000  12.0000000   1.0078250  14.0030740  12.0000000   1.0078250  12.0000000   1.0078250
 NucSpn=           0           0           0           0           1           2           0           1           0           1
 AtZEff=  -0.0000000  -0.0000000  -0.0000000  -0.0000000  -0.0000000  -0.0000000  -0.0000000  -0.0000000  -0.0000000  -0.0000000
 NQMom=    0.0000000   0.0000000   0.0000000   0.0000000   0.0000000   2.0440000   0.0000000   0.0000000   0.0000000   0.0000000
 NMagM=    0.0000000   0.0000000   0.0000000   0.0000000   2.7928460   0.4037610   0.0000000   2.7928460   0.0000000   2.7928460
 AtZNuc=   6.0000000   6.0000000   6.0000000   6.0000000   1.0000000   7.0000000   6.0000000   1.0000000   6.0000000   1.0000000

  Atom        11          12          13          14          15          16          17          18          19
 IAtWgt=          12           1           1           1          12          16           1           1           1
 AtmWgt=  12.0000000   1.0078250   1.0078250   1.0078250  12.0000000  15.9949146   1.0078250   1.0078250   1.0078250
 NucSpn=           0           1           1           1           0           0           1           1           1
 AtZEff=  -0.0000000  -0.0000000  -0.0000000  -0.0000000  -0.0000000  -0.0000000  -0.0000000  -0.0000000  -0.0000000
 NQMom=    0.0000000   0.0000000   0.0000000   0.0000000   0.0000000   0.0000000   0.0000000   0.0000000   0.0000000
 NMagM=    0.0000000   2.7928460   2.7928460   2.7928460   0.0000000   0.0000000   2.7928460   2.7928460   2.7928460
 AtZNuc=   6.0000000   1.0000000   1.0000000   1.0000000   6.0000000   8.0000000   1.0000000   1.0000000   1.0000000
 Leave Link  101 at Tue Nov 22 19:13:34 2022, MaxMem= 16106127360 cpu:               5.2 elap:               0.2
 (Enter /opt/ap/G16/B01/g16/l202.exe)
                          Input orientation:                          
 ---------------------------------------------------------------------
 Center     Atomic      Atomic             Coordinates (Angstroms)
 Number     Number       Type             X           Y           Z
 ---------------------------------------------------------------------
      1          6           0        0.000000    0.000000    0.000000
      2          6           0        0.000000    0.000000    1.394475
      3          6           0        1.216591    0.000000   -0.690193
      4          6           0        1.210053    0.053661    2.077726
      5          1           0       -0.834249   -0.032067    1.872696
      6          7           0       -1.178505   -0.005866   -0.786634
      7          6           0        2.413939    0.052326    0.007287
      8          1           0        1.204393   -0.029731   -1.646384
      9          6           0        2.412261    0.098442    1.396177
     10          1           0        1.194755    0.071528    3.063305
     11          6           0       -1.913077   -1.078702   -1.168040
     12          1           0       -1.459486    0.801099   -1.056528
     13          1           0        3.263999    0.056828   -0.497149
     14          1           0        3.262484    0.177260    1.886251
     15          6           0       -3.172791   -0.763467   -1.924342
     16          8           0       -1.592598   -2.243003   -0.909516
     17          1           0       -3.932937   -1.075415   -1.377143
     18          1           0       -3.202556   -1.299584   -2.767677
     19          1           0       -3.285113    0.181770   -2.144261
 ---------------------------------------------------------------------
                    Distance matrix (angstroms):
                    1          2          3          4          5
     1  C    0.000000
     2  C    1.394475   0.000000
     3  C    1.398735   2.413697   0.000000
     4  C    2.405006   1.390661   2.768447   0.000000
     5  H    2.050363   0.962130   3.282586   2.056345   0.000000
     6  N    1.416934   2.479142   2.397044   3.730055   2.681648
     7  C    2.414517   2.784624   1.386671   2.395008   3.746678
     8  H    2.040105   3.270821   0.956732   3.725048   4.066939
     9  C    2.788908   2.414270   2.406711   1.382686   3.283889
    10  H    3.288829   2.053668   3.754243   0.985860   2.354812
    11  C    2.487525   3.374899   3.344661   4.644479   3.391960
    12  H    1.971829   2.962984   2.817330   4.184334   3.108929
    13  H    3.302132   3.772951   2.057273   3.293734   4.734944
    14  H    3.772687   3.304099   3.294718   2.065046   4.102100
    15  C    3.788479   4.654463   4.623059   5.991124   4.518985
    16  O    2.897353   3.588288   3.601488   4.696076   3.633736
    17  H    4.303607   4.930149   5.305285   6.297719   4.609978
    18  H    4.427790   5.410064   5.053090   6.691810   5.361766
    19  H    3.927195   4.831941   4.734204   6.168314   4.710457
                    6          7          8          9         10
     6  N    0.000000
     7  C    3.679585   0.000000
     8  H    2.533365   2.050454   0.000000
     9  C    4.203468   1.389657   3.276058   0.000000
    10  H    4.523316   3.290292   4.710788   2.064548   0.000000
    11  C    1.355007   4.624250   3.323819   5.164245   5.374564
    12  H    0.896095   4.086047   2.852097   4.636800   4.954826
    13  H    4.452366   0.988472   2.360129   2.076505   4.118108
    14  H    5.186544   2.065465   4.093666   0.984512   2.381625
    15  C    2.417750   5.967265   4.446950   6.554505   6.682013
    16  O    2.278455   4.707590   3.642075   5.180491   5.376774
    17  H    3.013226   6.593275   5.249581   7.023587   6.879410
    18  H    3.113683   6.408830   4.721337   7.128698   7.430791
    19  H    2.513196   6.093037   4.521977   6.708332   6.870234
                   11         12         13         14         15
    11  C    0.000000
    12  H    1.936964   0.000000
    13  H    5.342437   4.814369   0.000000
    14  H    6.139428   5.598761   2.386441   0.000000
    15  C    1.502746   2.477172   6.643946   7.537795   0.000000
    16  O    1.234965   3.050555   5.389416   6.102935   2.390796
    17  H    2.030657   3.121227   7.338409   7.999564   0.987198
    18  H    2.066491   3.221675   6.986522   8.101658   0.999760
    19  H    2.103397   2.213514   6.754217   7.688698   0.976962
                   16         17         18         19
    16  O    0.000000
    17  H    2.656900   0.000000
    18  H    2.633395   1.586598   0.000000
    19  H    3.204485   1.608931   1.609308   0.000000
 Stoichiometry    C8H9NO
 Framework group  C1[X(C8H9NO)]
 Deg. of freedom    51
 Full point group                 C1      NOp   1
 Largest Abelian subgroup         C1      NOp   1
 Largest concise Abelian subgroup C1      NOp   1
                         Standard orientation:                         
 ---------------------------------------------------------------------
 Center     Atomic      Atomic             Coordinates (Angstroms)
 Number     Number       Type             X           Y           Z
 ---------------------------------------------------------------------
      1          6           0        0.287747    0.008003   -0.347740
      2          6           0        0.983461    1.211678   -0.239539
      3          6           0        0.962756   -1.200045   -0.144162
      4          6           0        2.350098    1.190274    0.016944
      5          1           0        0.515951    2.045627   -0.347510
      6          7           0       -1.093450   -0.077641   -0.652143
      7          6           0        2.325551   -1.202720    0.112040
      8          1           0        0.468899   -2.018064   -0.191966
      9          6           0        3.027288   -0.004885    0.174521
     10          1           0        2.832952    2.047977    0.072776
     11          6           0       -2.136835    0.006217    0.208298
     12          1           0       -1.284797   -0.201821   -1.518718
     13          1           0        2.787125   -2.066139    0.248177
     14          1           0        4.001627   -0.012956    0.315451
     15          6           0       -3.499822   -0.025357   -0.423774
     16          8           0       -1.997212    0.115153    1.430499
     17          1           0       -3.932820    0.842154   -0.238037
     18          1           0       -4.064252   -0.716644    0.026850
     19          1           0       -3.494296   -0.196874   -1.385545
 ---------------------------------------------------------------------
 Rotational constants (GHZ):           3.7045876           0.7489824           0.7080189
 Leave Link  202 at Tue Nov 22 19:13:34 2022, MaxMem= 16106127360 cpu:               0.3 elap:               0.0
 (Enter /opt/ap/G16/B01/g16/l301.exe)
 Standard basis: 6-311++G(d,p) (5D, 7F)
 Ernie: Thresh=  0.10000D-02 Tol=  0.10000D-05 Strict=F.
 There are   293 symmetry adapted cartesian basis functions of A   symmetry.
 There are   283 symmetry adapted basis functions of A   symmetry.
   283 basis functions,   441 primitive gaussians,   293 cartesian basis functions
    36 alpha electrons       36 beta electrons
       nuclear repulsion energy       490.4334649038 Hartrees.
 IExCor= 4639 DFT=T Ex+Corr=wB97XD ExCW=0 ScaHFX=  1.000000
 ScaDFX=  1.000000  1.000000  1.000000  1.000000 ScalE2=  1.000000  1.000000
 IRadAn=      5 IRanWt=     -1 IRanGd=            0 ICorTp=0 IEmpDi=121
 HFx  wShort=  0.000000 wLong=  0.200000 cFull=  0.222036 cShort=  0.000000 cLong=  0.777964
 DFx  wShort=  0.000000 wLong=  0.200000 cFull=  0.000000 cShort=  0.000000 cLong=  1.000000
 NAtoms=   19 NActive=   19 NUniq=   19 SFac= 1.00D+00 NAtFMM=   60 NAOKFM=F Big=F
 Integral buffers will be    131072 words long.
 Raffenetti 2 integral format.
 Two-electron integral symmetry is turned on.
 R6Disp:  Grimme-D2 Dispersion energy=       -0.0091717272 Hartrees.
 Nuclear repulsion after empirical dispersion term =      490.4242931766 Hartrees.
 Leave Link  301 at Tue Nov 22 19:13:34 2022, MaxMem= 16106127360 cpu:               1.2 elap:               0.0
 (Enter /opt/ap/G16/B01/g16/l302.exe)
 NPDir=0 NMtPBC=     1 NCelOv=     1 NCel=       1 NClECP=     1 NCelD=      1
         NCelK=      1 NCelE2=     1 NClLst=     1 CellRange=     0.0.
 One-electron integrals computed using PRISM.
 One-electron integral symmetry used in STVInt
 NBasis=   283 RedAO= T EigKep=  4.00D-06  NBF=   283
 NBsUse=   282 1.00D-06 EigRej=  8.44D-07 NBFU=   282
 Precomputing XC quadrature grid using
 IXCGrd= 4 IRadAn=           5 IRanWt=          -1 IRanGd=           0 AccXCQ= 0.00D+00.
 Generated NRdTot=       0 NPtTot=           0 NUsed=           0 NTot=          32
 NSgBfM=   293   293   293   293   293 MxSgAt=    19 MxSgA2=    19.
 Leave Link  302 at Tue Nov 22 19:13:34 2022, MaxMem= 16106127360 cpu:               6.3 elap:               0.2
 (Enter /opt/ap/G16/B01/g16/l303.exe)
 DipDrv:  MaxL=1.
 Leave Link  303 at Tue Nov 22 19:13:34 2022, MaxMem= 16106127360 cpu:               1.3 elap:               0.0
 (Enter /opt/ap/G16/B01/g16/l401.exe)
 ExpMin= 3.60D-02 ExpMax= 8.59D+03 ExpMxC= 1.30D+03 IAcc=3 IRadAn=         5 AccDes= 0.00D+00
 Harris functional with IExCor= 4639 and IRadAn=       5 diagonalized for initial guess.
 HarFok:  IExCor= 4639 AccDes= 0.00D+00 IRadAn=         5 IDoV= 1 UseB2=F ITyADJ=14
 ICtDFT=  3500011 ScaDFX=  1.000000  1.000000  1.000000  1.000000
 FoFCou: FMM=F IPFlag=           0 FMFlag=      100000 FMFlg1=           0
         NFxFlg=           0 DoJE=T BraDBF=F KetDBF=T FulRan=T
         wScrn=  0.000000 ICntrl=       500 IOpCl=  0 I1Cent=   200000004 NGrid=           0
         NMat0=    1 NMatS0=      1 NMatT0=    0 NMatD0=    1 NMtDS0=    0 NMtDT0=    0
 Petite list used in FoFCou.
 Harris En= -420.979716997083    
 JPrj=0 DoOrth=F DoCkMO=F.
 Leave Link  401 at Tue Nov 22 19:13:35 2022, MaxMem= 16106127360 cpu:              15.3 elap:               0.5
 (Enter /opt/ap/G16/B01/g16/l502.exe)
 Integral symmetry usage will be decided dynamically.
 Closed shell SCF:
 Using DIIS extrapolation, IDIIS=  1040.
 NGot= 16106127360 LenX= 16105943385 LenY= 16105857095
 Requested convergence on RMS density matrix=1.00D-08 within 512 cycles.
 Requested convergence on MAX density matrix=1.00D-06.
 Requested convergence on             energy=1.00D-06.
 No special actions if energy rises.
 Fock matrices will be formed incrementally for  20 cycles.

 Cycle   1  Pass 1  IDiag  1:
 FoFJK:  IHMeth= 1 ICntrl=       0 DoSepK=T KAlg= 0 I1Cent=           0 FoldK=F
 IRaf=         1 NMat=       1 IRICut=       1 DoRegI=T DoRafI=F ISym2E= 0 IDoP0=0 IntGTp=1.
 FoFCou: FMM=F IPFlag=           0 FMFlag=      100000 FMFlg1=           0
         NFxFlg=           0 DoJE=T BraDBF=F KetDBF=F FulRan=T
         wScrn=  0.000000 ICntrl=       500 IOpCl=  0 I1Cent=           0 NGrid=           0
         NMat0=    1 NMatS0=      1 NMatT0=    0 NMatD0=    1 NMtDS0=    0 NMtDT0=    0
 Symmetry not used in FoFCou.
 E= -439.998366034536    
 DIIS: error= 6.00D-02 at cycle   1 NSaved=   1.
 NSaved= 1 IEnMin= 1 EnMin= -439.998366034536     IErMin= 1 ErrMin= 6.00D-02
 ErrMax= 6.00D-02  0.00D+00 EMaxC= 1.00D-01 BMatC= 9.33D-01 BMatP= 9.33D-01
 IDIUse=3 WtCom= 4.00D-01 WtEn= 6.00D-01
 Coeff-Com:  0.100D+01
 Coeff-En:   0.100D+01
 Coeff:      0.100D+01
 Gap=     0.458 Goal=   None    Shift=    0.000
 GapD=    0.458 DampG=2.000 DampE=0.500 DampFc=1.0000 IDamp=-1.
 RMSDP=1.27D-02 MaxDP=9.28D-01              OVMax= 1.18D-01

 Cycle   2  Pass 1  IDiag  1:
 RMSU=  6.06D-03    CP:  6.89D-01
 E= -440.079968787182     Delta-E=       -0.081602752646 Rises=F Damp=F
 DIIS: error= 1.46D-02 at cycle   2 NSaved=   2.
 NSaved= 2 IEnMin= 2 EnMin= -440.079968787182     IErMin= 2 ErrMin= 1.46D-02
 ErrMax= 1.46D-02  0.00D+00 EMaxC= 1.00D-01 BMatC= 6.90D-02 BMatP= 9.33D-01
 IDIUse=3 WtCom= 8.54D-01 WtEn= 1.46D-01
 Coeff-Com:  0.142D+00 0.858D+00
 Coeff-En:   0.166D+00 0.834D+00
 Coeff:      0.146D+00 0.854D+00
 Gap=     0.402 Goal=   None    Shift=    0.000
 RMSDP=4.42D-03 MaxDP=2.11D-01 DE=-8.16D-02 OVMax= 1.20D-01

 Cycle   3  Pass 1  IDiag  1:
 RMSU=  3.77D-03    CP:  7.30D-01  7.08D-01
 E= -440.105849599623     Delta-E=       -0.025880812441 Rises=F Damp=F
 DIIS: error= 1.30D-02 at cycle   3 NSaved=   3.
 NSaved= 3 IEnMin= 3 EnMin= -440.105849599623     IErMin= 3 ErrMin= 1.30D-02
 ErrMax= 1.30D-02  0.00D+00 EMaxC= 1.00D-01 BMatC= 3.75D-02 BMatP= 6.90D-02
 IDIUse=3 WtCom= 8.70D-01 WtEn= 1.30D-01
 Coeff-Com:  0.263D-01 0.429D+00 0.545D+00
 Coeff-En:   0.000D+00 0.359D+00 0.641D+00
 Coeff:      0.229D-01 0.420D+00 0.557D+00
 Gap=     0.401 Goal=   None    Shift=    0.000
 RMSDP=2.56D-03 MaxDP=1.44D-01 DE=-2.59D-02 OVMax= 5.63D-02

 Cycle   4  Pass 1  IDiag  1:
 RMSU=  6.54D-04    CP:  6.92D-01  8.90D-01  5.41D-01
 E= -440.138832975370     Delta-E=       -0.032983375747 Rises=F Damp=F
 DIIS: error= 2.78D-03 at cycle   4 NSaved=   4.
 NSaved= 4 IEnMin= 4 EnMin= -440.138832975370     IErMin= 4 ErrMin= 2.78D-03
 ErrMax= 2.78D-03  0.00D+00 EMaxC= 1.00D-01 BMatC= 1.59D-03 BMatP= 3.75D-02
 IDIUse=3 WtCom= 9.72D-01 WtEn= 2.78D-02
 Coeff-Com:  0.981D-02 0.200D+00 0.296D+00 0.495D+00
 Coeff-En:   0.000D+00 0.000D+00 0.000D+00 0.100D+01
 Coeff:      0.954D-02 0.194D+00 0.287D+00 0.509D+00
 Gap=     0.374 Goal=   None    Shift=    0.000
 RMSDP=3.18D-04 MaxDP=1.46D-02 DE=-3.30D-02 OVMax= 1.07D-02

 Cycle   5  Pass 1  IDiag  1:
 RMSU=  2.39D-04    CP:  6.87D-01  8.85D-01  5.68D-01  8.94D-01
 E= -440.140060962135     Delta-E=       -0.001227986765 Rises=F Damp=F
 DIIS: error= 6.24D-04 at cycle   5 NSaved=   5.
 NSaved= 5 IEnMin= 5 EnMin= -440.140060962135     IErMin= 5 ErrMin= 6.24D-04
 ErrMax= 6.24D-04  0.00D+00 EMaxC= 1.00D-01 BMatC= 5.43D-05 BMatP= 1.59D-03
 IDIUse=3 WtCom= 9.94D-01 WtEn= 6.24D-03
 Coeff-Com:  0.126D-02 0.277D-01 0.510D-01 0.176D+00 0.744D+00
 Coeff-En:   0.000D+00 0.000D+00 0.000D+00 0.000D+00 0.100D+01
 Coeff:      0.125D-02 0.276D-01 0.506D-01 0.175D+00 0.746D+00
 Gap=     0.371 Goal=   None    Shift=    0.000
 RMSDP=1.40D-04 MaxDP=9.34D-03 DE=-1.23D-03 OVMax= 2.97D-03

 Cycle   6  Pass 1  IDiag  1:
 RMSU=  1.04D-04    CP:  6.88D-01  8.90D-01  5.81D-01  9.66D-01  1.05D+00
 E= -440.140096027442     Delta-E=       -0.000035065306 Rises=F Damp=F
 DIIS: error= 3.14D-04 at cycle   6 NSaved=   6.
 NSaved= 6 IEnMin= 6 EnMin= -440.140096027442     IErMin= 6 ErrMin= 3.14D-04
 ErrMax= 3.14D-04  0.00D+00 EMaxC= 1.00D-01 BMatC= 1.59D-05 BMatP= 5.43D-05
 IDIUse=3 WtCom= 9.97D-01 WtEn= 3.14D-03
 Coeff-Com: -0.103D-02-0.186D-01-0.205D-01 0.778D-02 0.401D+00 0.632D+00
 Coeff-En:   0.000D+00 0.000D+00 0.000D+00 0.000D+00 0.768D-01 0.923D+00
 Coeff:     -0.103D-02-0.185D-01-0.205D-01 0.776D-02 0.400D+00 0.633D+00
 Gap=     0.371 Goal=   None    Shift=    0.000
 RMSDP=5.51D-05 MaxDP=2.93D-03 DE=-3.51D-05 OVMax= 9.12D-04

 Cycle   7  Pass 1  IDiag  1:
 RMSU=  2.99D-05    CP:  6.88D-01  8.90D-01  5.83D-01  9.98D-01  1.18D+00
                    CP:  1.05D+00
 E= -440.140109281366     Delta-E=       -0.000013253924 Rises=F Damp=F
 DIIS: error= 8.81D-05 at cycle   7 NSaved=   7.
 NSaved= 7 IEnMin= 7 EnMin= -440.140109281366     IErMin= 7 ErrMin= 8.81D-05
 ErrMax= 8.81D-05  0.00D+00 EMaxC= 1.00D-01 BMatC= 4.00D-07 BMatP= 1.59D-05
 IDIUse=1 WtCom= 1.00D+00 WtEn= 0.00D+00
 Coeff-Com: -0.303D-03-0.588D-02-0.686D-02-0.124D-01 0.303D-01 0.116D+00
 Coeff-Com:  0.879D+00
 Coeff:     -0.303D-03-0.588D-02-0.686D-02-0.124D-01 0.303D-01 0.116D+00
 Coeff:      0.879D+00
 Gap=     0.371 Goal=   None    Shift=    0.000
 RMSDP=2.34D-05 MaxDP=1.75D-03 DE=-1.33D-05 OVMax= 3.63D-04

 Cycle   8  Pass 1  IDiag  1:
 RMSU=  8.80D-06    CP:  6.88D-01  8.90D-01  5.84D-01  1.01D+00  1.24D+00
                    CP:  1.15D+00  1.21D+00
 E= -440.140110029637     Delta-E=       -0.000000748271 Rises=F Damp=F
 DIIS: error= 1.47D-05 at cycle   8 NSaved=   8.
 NSaved= 8 IEnMin= 8 EnMin= -440.140110029637     IErMin= 8 ErrMin= 1.47D-05
 ErrMax= 1.47D-05  0.00D+00 EMaxC= 1.00D-01 BMatC= 7.68D-08 BMatP= 4.00D-07
 IDIUse=1 WtCom= 1.00D+00 WtEn= 0.00D+00
 Coeff-Com:  0.595D-04 0.767D-03 0.971D-03-0.624D-02-0.534D-01-0.665D-01
 Coeff-Com:  0.264D+00 0.861D+00
 Coeff:      0.595D-04 0.767D-03 0.971D-03-0.624D-02-0.534D-01-0.665D-01
 Coeff:      0.264D+00 0.861D+00
 Gap=     0.371 Goal=   None    Shift=    0.000
 RMSDP=9.93D-06 MaxDP=7.60D-04 DE=-7.48D-07 OVMax= 1.62D-04

 Cycle   9  Pass 1  IDiag  1:
 RMSU=  2.28D-06    CP:  6.88D-01  8.90D-01  5.84D-01  1.01D+00  1.25D+00
                    CP:  1.20D+00  1.36D+00  1.18D+00
 E= -440.140110166719     Delta-E=       -0.000000137083 Rises=F Damp=F
 DIIS: error= 1.30D-05 at cycle   9 NSaved=   9.
 NSaved= 9 IEnMin= 9 EnMin= -440.140110166719     IErMin= 9 ErrMin= 1.30D-05
 ErrMax= 1.30D-05  0.00D+00 EMaxC= 1.00D-01 BMatC= 6.69D-09 BMatP= 7.68D-08
 IDIUse=1 WtCom= 1.00D+00 WtEn= 0.00D+00
 Coeff-Com:  0.460D-04 0.805D-03 0.105D-02-0.645D-03-0.171D-01-0.296D-01
 Coeff-Com: -0.186D-02 0.242D+00 0.806D+00
 Coeff:      0.460D-04 0.805D-03 0.105D-02-0.645D-03-0.171D-01-0.296D-01
 Coeff:     -0.186D-02 0.242D+00 0.806D+00
 Gap=     0.371 Goal=   None    Shift=    0.000
 RMSDP=2.18D-06 MaxDP=1.22D-04 DE=-1.37D-07 OVMax= 6.03D-05

 Cycle  10  Pass 1  IDiag  1:
 RMSU=  8.12D-07    CP:  6.88D-01  8.90D-01  5.84D-01  1.01D+00  1.25D+00
                    CP:  1.20D+00  1.38D+00  1.23D+00  1.26D+00
 E= -440.140110179161     Delta-E=       -0.000000012441 Rises=F Damp=F
 DIIS: error= 2.28D-06 at cycle  10 NSaved=  10.
 NSaved=10 IEnMin=10 EnMin= -440.140110179161     IErMin=10 ErrMin= 2.28D-06
 ErrMax= 2.28D-06  0.00D+00 EMaxC= 1.00D-01 BMatC= 1.10D-09 BMatP= 6.69D-09
 IDIUse=1 WtCom= 1.00D+00 WtEn= 0.00D+00
 Coeff-Com:  0.464D-05 0.134D-03 0.195D-03 0.665D-03 0.307D-02 0.819D-03
 Coeff-Com: -0.372D-01-0.731D-01 0.235D+00 0.871D+00
 Coeff:      0.464D-05 0.134D-03 0.195D-03 0.665D-03 0.307D-02 0.819D-03
 Coeff:     -0.372D-01-0.731D-01 0.235D+00 0.871D+00
 Gap=     0.371 Goal=   None    Shift=    0.000
 RMSDP=6.77D-07 MaxDP=2.54D-05 DE=-1.24D-08 OVMax= 2.21D-05

 Cycle  11  Pass 1  IDiag  1:
 RMSU=  3.19D-07    CP:  6.88D-01  8.90D-01  5.84D-01  1.01D+00  1.25D+00
                    CP:  1.20D+00  1.38D+00  1.26D+00  1.39D+00  1.09D+00
 E= -440.140110181230     Delta-E=       -0.000000002069 Rises=F Damp=F
 DIIS: error= 1.04D-06 at cycle  11 NSaved=  11.
 NSaved=11 IEnMin=11 EnMin= -440.140110181230     IErMin=11 ErrMin= 1.04D-06
 ErrMax= 1.04D-06  0.00D+00 EMaxC= 1.00D-01 BMatC= 8.21D-11 BMatP= 1.10D-09
 IDIUse=1 WtCom= 1.00D+00 WtEn= 0.00D+00
 Coeff-Com: -0.297D-05-0.441D-04-0.473D-04 0.248D-03 0.260D-02 0.312D-02
 Coeff-Com: -0.866D-02-0.467D-01-0.213D-01 0.205D+00 0.866D+00
 Coeff:     -0.297D-05-0.441D-04-0.473D-04 0.248D-03 0.260D-02 0.312D-02
 Coeff:     -0.866D-02-0.467D-01-0.213D-01 0.205D+00 0.866D+00
 Gap=     0.371 Goal=   None    Shift=    0.000
 RMSDP=2.91D-07 MaxDP=2.34D-05 DE=-2.07D-09 OVMax= 7.51D-06

 Cycle  12  Pass 1  IDiag  1:
 RMSU=  7.69D-08    CP:  6.88D-01  8.90D-01  5.84D-01  1.01D+00  1.25D+00
                    CP:  1.20D+00  1.37D+00  1.26D+00  1.42D+00  1.19D+00
                    CP:  1.23D+00
 E= -440.140110181406     Delta-E=       -0.000000000176 Rises=F Damp=F
 DIIS: error= 1.95D-07 at cycle  12 NSaved=  12.
 NSaved=12 IEnMin=12 EnMin= -440.140110181406     IErMin=12 ErrMin= 1.95D-07
 ErrMax= 1.95D-07  0.00D+00 EMaxC= 1.00D-01 BMatC= 7.39D-12 BMatP= 8.21D-11
 IDIUse=1 WtCom= 1.00D+00 WtEn= 0.00D+00
 Coeff-Com: -0.896D-06-0.199D-04-0.260D-04-0.112D-04 0.766D-04 0.396D-03
 Coeff-Com:  0.251D-02-0.964D-03-0.235D-01-0.450D-01 0.158D+00 0.908D+00
 Coeff:     -0.896D-06-0.199D-04-0.260D-04-0.112D-04 0.766D-04 0.396D-03
 Coeff:      0.251D-02-0.964D-03-0.235D-01-0.450D-01 0.158D+00 0.908D+00
 Gap=     0.371 Goal=   None    Shift=    0.000
 RMSDP=1.04D-07 MaxDP=9.27D-06 DE=-1.76D-10 OVMax= 2.28D-06

 Cycle  13  Pass 1  IDiag  1:
 RMSU=  2.92D-08    CP:  6.88D-01  8.90D-01  5.84D-01  1.01D+00  1.25D+00
                    CP:  1.20D+00  1.37D+00  1.26D+00  1.42D+00  1.21D+00
                    CP:  1.32D+00  1.28D+00
 E= -440.140110181415     Delta-E=       -0.000000000009 Rises=F Damp=F
 DIIS: error= 6.33D-08 at cycle  13 NSaved=  13.
 NSaved=13 IEnMin=13 EnMin= -440.140110181415     IErMin=13 ErrMin= 6.33D-08
 ErrMax= 6.33D-08  0.00D+00 EMaxC= 1.00D-01 BMatC= 1.44D-12 BMatP= 7.39D-12
 IDIUse=1 WtCom= 1.00D+00 WtEn= 0.00D+00
 Coeff-Com:  0.841D-07-0.175D-06-0.156D-05-0.289D-04-0.322D-03-0.271D-03
 Coeff-Com:  0.182D-02 0.545D-02-0.438D-02-0.397D-01-0.717D-01 0.272D+00
 Coeff-Com:  0.837D+00
 Coeff:      0.841D-07-0.175D-06-0.156D-05-0.289D-04-0.322D-03-0.271D-03
 Coeff:      0.182D-02 0.545D-02-0.438D-02-0.397D-01-0.717D-01 0.272D+00
 Coeff:      0.837D+00
 Gap=     0.371 Goal=   None    Shift=    0.000
 RMSDP=4.74D-08 MaxDP=4.01D-06 DE=-9.09D-12 OVMax= 8.07D-07

 Cycle  14  Pass 1  IDiag  1:
 RMSU=  1.13D-08    CP:  6.88D-01  8.90D-01  5.84D-01  1.01D+00  1.25D+00
                    CP:  1.20D+00  1.37D+00  1.26D+00  1.42D+00  1.21D+00
                    CP:  1.36D+00  1.38D+00  1.19D+00
 E= -440.140110181425     Delta-E=       -0.000000000010 Rises=F Damp=F
 DIIS: error= 2.78D-08 at cycle  14 NSaved=  14.
 NSaved=14 IEnMin=14 EnMin= -440.140110181425     IErMin=14 ErrMin= 2.78D-08
 ErrMax= 2.78D-08  0.00D+00 EMaxC= 1.00D-01 BMatC= 1.06D-13 BMatP= 1.44D-12
 IDIUse=1 WtCom= 1.00D+00 WtEn= 0.00D+00
 Coeff-Com:  0.934D-07 0.160D-05 0.176D-05-0.444D-05-0.739D-04-0.804D-04
 Coeff-Com:  0.137D-03 0.112D-02 0.129D-02-0.261D-02-0.327D-01-0.336D-01
 Coeff-Com:  0.164D+00 0.903D+00
 Coeff:      0.934D-07 0.160D-05 0.176D-05-0.444D-05-0.739D-04-0.804D-04
 Coeff:      0.137D-03 0.112D-02 0.129D-02-0.261D-02-0.327D-01-0.336D-01
 Coeff:      0.164D+00 0.903D+00
 Gap=     0.371 Goal=   None    Shift=    0.000
 RMSDP=9.99D-09 MaxDP=5.12D-07 DE=-1.02D-11 OVMax= 2.86D-07

 SCF Done:  E(RwB97XD) =  -440.140110181     A.U. after   14 cycles
            NFock= 14  Conv=0.10D-07     -V/T= 2.0003
 KE= 4.400248168840D+02 PE=-2.007322368165D+03 EE= 6.367331479234D+02
 Leave Link  502 at Tue Nov 22 19:13:52 2022, MaxMem= 16106127360 cpu:             549.2 elap:              17.2
 (Enter /opt/ap/G16/B01/g16/l601.exe)
 Copying SCF densities to generalized density rwf, IOpCl= 0 IROHF=0.

 **********************************************************************

            Population analysis using the SCF Density.

 **********************************************************************

 Orbital symmetries:
       Occupied  (A) (A) (A) (A) (A) (A) (A) (A) (A) (A) (A) (A)
                 (A) (A) (A) (A) (A) (A) (A) (A) (A) (A) (A) (A)
                 (A) (A) (A) (A) (A) (A) (A) (A) (A) (A) (A) (A)
       Virtual   (A) (A) (A) (A) (A) (A) (A) (A) (A) (A) (A) (A)
                 (A) (A) (A) (A) (A) (A) (A) (A) (A) (A) (A) (A)
                 (A) (A) (A) (A) (A) (A) (A) (A) (A) (A) (A) (A)
                 (A) (A) (A) (A) (A) (A) (A) (A) (A) (A) (A) (A)
                 (A) (A) (A) (A) (A) (A) (A) (A) (A) (A) (A) (A)
                 (A) (A) (A) (A) (A) (A) (A) (A) (A) (A) (A) (A)
                 (A) (A) (A) (A) (A) (A) (A) (A) (A) (A) (A) (A)
                 (A) (A) (A) (A) (A) (A) (A) (A) (A) (A) (A) (A)
                 (A) (A) (A) (A) (A) (A) (A) (A) (A) (A) (A) (A)
                 (A) (A) (A) (A) (A) (A) (A) (A) (A) (A) (A) (A)
                 (A) (A) (A) (A) (A) (A) (A) (A) (A) (A) (A) (A)
                 (A) (A) (A) (A) (A) (A) (A) (A) (A) (A) (A) (A)
                 (A) (A) (A) (A) (A) (A) (A) (A) (A) (A) (A) (A)
                 (A) (A) (A) (A) (A) (A) (A) (A) (A) (A) (A) (A)
                 (A) (A) (A) (A) (A) (A) (A) (A) (A) (A) (A) (A)
                 (A) (A) (A) (A) (A) (A) (A) (A) (A) (A) (A) (A)
                 (A) (A) (A) (A) (A) (A) (A) (A) (A) (A) (A) (A)
                 (A) (A) (A) (A) (A) (A) (A) (A) (A) (A) (A) (A)
                 (A) (A) (A) (A) (A) (A) (A) (A) (A) (A) (A) (A)
                 (A) (A) (A) (A) (A) (A) (A) (A) (A) (A) (A) (A)
                 (A) (A) (A) (A) (A) (A)
 The electronic state is 1-A.
 Alpha  occ. eigenvalues --  -19.20525 -14.45704 -10.39138 -10.33409 -10.28481
 Alpha  occ. eigenvalues --  -10.28431 -10.28416 -10.28320 -10.28074 -10.25837
 Alpha  occ. eigenvalues --   -1.13614  -1.05369  -0.96625  -0.88216  -0.86879
 Alpha  occ. eigenvalues --   -0.84689  -0.73885  -0.73066  -0.70062  -0.65879
 Alpha  occ. eigenvalues --   -0.61627  -0.58145  -0.56800  -0.55467  -0.54354
 Alpha  occ. eigenvalues --   -0.53314  -0.51380  -0.49247  -0.46869  -0.46469
 Alpha  occ. eigenvalues --   -0.45851  -0.44193  -0.35254  -0.34035  -0.33896
 Alpha  occ. eigenvalues --   -0.33563
 Alpha virt. eigenvalues --    0.03546   0.04401   0.04544   0.04675   0.05107
 Alpha virt. eigenvalues --    0.06153   0.06641   0.06789   0.08478   0.08991
 Alpha virt. eigenvalues --    0.10013   0.10326   0.11468   0.12654   0.13349
 Alpha virt. eigenvalues --    0.13926   0.15004   0.15283   0.16284   0.16510
 Alpha virt. eigenvalues --    0.16637   0.17469   0.17518   0.18147   0.18256
 Alpha virt. eigenvalues --    0.18834   0.18898   0.19662   0.19880   0.20247
 Alpha virt. eigenvalues --    0.21293   0.21347   0.22162   0.23185   0.23436
 Alpha virt. eigenvalues --    0.24371   0.24956   0.25158   0.25384   0.26921
 Alpha virt. eigenvalues --    0.27390   0.28226   0.28655   0.28916   0.29204
 Alpha virt. eigenvalues --    0.29565   0.30699   0.31744   0.32751   0.34035
 Alpha virt. eigenvalues --    0.34928   0.36243   0.36509   0.37657   0.38127
 Alpha virt. eigenvalues --    0.38650   0.38712   0.39594   0.40180   0.41124
 Alpha virt. eigenvalues --    0.41998   0.43910   0.44880   0.45050   0.45475
 Alpha virt. eigenvalues --    0.47817   0.48934   0.53609   0.54704   0.55021
 Alpha virt. eigenvalues --    0.56580   0.57357   0.59606   0.62657   0.63207
 Alpha virt. eigenvalues --    0.63814   0.64367   0.65121   0.65807   0.66554
 Alpha virt. eigenvalues --    0.67259   0.68795   0.70455   0.73230   0.73459
 Alpha virt. eigenvalues --    0.74049   0.74907   0.76063   0.77387   0.78363
 Alpha virt. eigenvalues --    0.78731   0.82018   0.82652   0.82823   0.84042
 Alpha virt. eigenvalues --    0.86930   0.88155   0.89869   0.92864   0.93282
 Alpha virt. eigenvalues --    0.94441   0.95360   0.96300   0.96622   0.97767
 Alpha virt. eigenvalues --    0.99477   0.99677   1.00077   1.02163   1.04543
 Alpha virt. eigenvalues --    1.07085   1.10365   1.10951   1.13313   1.15138
 Alpha virt. eigenvalues --    1.15858   1.16690   1.18118   1.22446   1.23669
 Alpha virt. eigenvalues --    1.26963   1.28121   1.31562   1.36694   1.38380
 Alpha virt. eigenvalues --    1.42443   1.44343   1.48491   1.53049   1.55375
 Alpha virt. eigenvalues --    1.56153   1.60567   1.61722   1.62795   1.66063
 Alpha virt. eigenvalues --    1.67278   1.67442   1.67716   1.68399   1.69827
 Alpha virt. eigenvalues --    1.70713   1.72390   1.75244   1.75839   1.77088
 Alpha virt. eigenvalues --    1.83454   1.84173   1.87074   1.88802   1.91626
 Alpha virt. eigenvalues --    1.92561   1.92896   1.97209   1.97705   1.99562
 Alpha virt. eigenvalues --    2.00563   2.03160   2.04313   2.06294   2.07452
 Alpha virt. eigenvalues --    2.07944   2.11598   2.13946   2.15226   2.16921
 Alpha virt. eigenvalues --    2.22099   2.24620   2.25932   2.30351   2.36435
 Alpha virt. eigenvalues --    2.37771   2.41914   2.46552   2.49828   2.52334
 Alpha virt. eigenvalues --    2.54005   2.55114   2.59115   2.60628   2.64242
 Alpha virt. eigenvalues --    2.66167   2.66857   2.73268   2.73808   2.80564
 Alpha virt. eigenvalues --    2.80655   2.81974   2.83258   2.83808   2.84898
 Alpha virt. eigenvalues --    2.87009   2.87980   2.90463   2.91117   2.93092
 Alpha virt. eigenvalues --    2.94566   2.96714   2.97865   2.98571   3.01702
 Alpha virt. eigenvalues --    3.02608   3.04840   3.06735   3.13087   3.16489
 Alpha virt. eigenvalues --    3.20657   3.21869   3.22618   3.24325   3.25690
 Alpha virt. eigenvalues --    3.41501   3.45189   3.46285   3.47550   3.51951
 Alpha virt. eigenvalues --    3.63450   3.67879   3.71634   3.73398   3.90602
 Alpha virt. eigenvalues --    4.00148   4.07823   4.10548   4.14110   4.17964
 Alpha virt. eigenvalues --    4.30266   4.34223   4.38552   4.39253   4.44105
 Alpha virt. eigenvalues --    4.95319   5.15305   5.20808   5.21015   5.39184
 Alpha virt. eigenvalues --    5.91069  23.88371  23.99415  24.15084  24.22364
 Alpha virt. eigenvalues --   24.29763  24.32741  24.38500  24.42409  35.88567
 Alpha virt. eigenvalues --   50.17170
          Condensed to atoms (all electrons):
               1          2          3          4          5          6
     1  C   10.150617  -0.511479  -0.834132  -0.974517  -0.160671  -0.874162
     2  C   -0.511479   9.055584  -3.159566   0.648546   0.618743  -0.101210
     3  C   -0.834132  -3.159566   9.159012   0.134007  -0.110027   0.156308
     4  C   -0.974517   0.648546   0.134007   5.559223  -0.020813   0.101025
     5  H   -0.160671   0.618743  -0.110027  -0.020813   0.493314  -0.002547
     6  N   -0.874162  -0.101210   0.156308   0.101025  -0.002547   7.953953
     7  C   -0.857639   0.304070   0.432186   0.090701   0.028040   0.062290
     8  H   -0.145796  -0.098309   0.640104   0.023327  -0.003219  -0.005384
     9  C    0.195485  -0.254411  -0.262643   0.318093   0.014500  -0.009369
    10  H    0.010771  -0.128350   0.039466   0.453965  -0.015248  -0.000413
    11  C    0.183788  -0.243434  -0.071981  -0.106230  -0.020559  -0.070087
    12  H   -0.077474  -0.030893  -0.002198   0.001321  -0.000760   0.371372
    13  H    0.004547   0.029480  -0.120032   0.002916   0.001407  -0.002186
    14  H    0.032687  -0.012275  -0.008764  -0.066188  -0.000425   0.000102
    15  C    0.158949  -0.026098  -0.050641  -0.009792  -0.000862  -0.467116
    16  O    0.201638  -0.070924  -0.064308  -0.021978  -0.000298  -0.138719
    17  H    0.017990   0.000799  -0.011296  -0.000672  -0.000553  -0.003960
    18  H    0.015183   0.004133  -0.015402  -0.001907   0.000052  -0.002972
    19  H   -0.007398   0.005608   0.008856   0.002111   0.001276   0.020158
               7          8          9         10         11         12
     1  C   -0.857639  -0.145796   0.195485   0.010771   0.183788  -0.077474
     2  C    0.304070  -0.098309  -0.254411  -0.128350  -0.243434  -0.030893
     3  C    0.432186   0.640104  -0.262643   0.039466  -0.071981  -0.002198
     4  C    0.090701   0.023327   0.318093   0.453965  -0.106230   0.001321
     5  H    0.028040  -0.003219   0.014500  -0.015248  -0.020559  -0.000760
     6  N    0.062290  -0.005384  -0.009369  -0.000413  -0.070087   0.371372
     7  C    5.537325  -0.048430   0.326241  -0.001762  -0.085639  -0.002831
     8  H   -0.048430   0.499218   0.005360   0.001519  -0.023844  -0.000348
     9  C    0.326241   0.005360   5.593699  -0.047503   0.031258   0.005074
    10  H   -0.001762   0.001519  -0.047503   0.488157  -0.000691   0.000720
    11  C   -0.085639  -0.023844   0.031258  -0.000691   6.039043   0.075922
    12  H   -0.002831  -0.000348   0.005074   0.000720   0.075922   0.373154
    13  H    0.451490  -0.015866  -0.042627  -0.000754   0.000657   0.000771
    14  H   -0.066875  -0.000700   0.477971  -0.010051  -0.000427   0.000143
    15  C    0.000846  -0.001092   0.002226  -0.000710  -0.145564  -0.028306
    16  O   -0.015099  -0.000649   0.007667  -0.000490   0.472135   0.002326
    17  H   -0.003150  -0.000114   0.000413  -0.000069  -0.040271  -0.001328
    18  H   -0.001091  -0.000759   0.000610  -0.000050  -0.039305   0.000334
    19  H    0.002080   0.001549  -0.000507  -0.000034  -0.096479  -0.005723
              13         14         15         16         17         18
     1  C    0.004547   0.032687   0.158949   0.201638   0.017990   0.015183
     2  C    0.029480  -0.012275  -0.026098  -0.070924   0.000799   0.004133
     3  C   -0.120032  -0.008764  -0.050641  -0.064308  -0.011296  -0.015402
     4  C    0.002916  -0.066188  -0.009792  -0.021978  -0.000672  -0.001907
     5  H    0.001407  -0.000425  -0.000862  -0.000298  -0.000553   0.000052
     6  N   -0.002186   0.000102  -0.467116  -0.138719  -0.003960  -0.002972
     7  C    0.451490  -0.066875   0.000846  -0.015099  -0.003150  -0.001091
     8  H   -0.015866  -0.000700  -0.001092  -0.000649  -0.000114  -0.000759
     9  C   -0.042627   0.477971   0.002226   0.007667   0.000413   0.000610
    10  H   -0.000754  -0.010051  -0.000710  -0.000490  -0.000069  -0.000050
    11  C    0.000657  -0.000427  -0.145564   0.472135  -0.040271  -0.039305
    12  H    0.000771   0.000143  -0.028306   0.002326  -0.001328   0.000334
    13  H    0.488824  -0.009510  -0.000631  -0.000248  -0.000022  -0.000057
    14  H   -0.009510   0.491414   0.000227   0.000155   0.000014   0.000016
    15  C   -0.000631   0.000227   5.851230  -0.028850   0.415722   0.428809
    16  O   -0.000248   0.000155  -0.028850   8.000070  -0.011025  -0.011483
    17  H   -0.000022   0.000014   0.415722  -0.011025   0.502290  -0.024856
    18  H   -0.000057   0.000016   0.428809  -0.011483  -0.024856   0.495322
    19  H   -0.000044  -0.000023   0.419224   0.013041  -0.032266  -0.036171
              19
     1  C   -0.007398
     2  C    0.005608
     3  C    0.008856
     4  C    0.002111
     5  H    0.001276
     6  N    0.020158
     7  C    0.002080
     8  H    0.001549
     9  C   -0.000507
    10  H   -0.000034
    11  C   -0.096479
    12  H   -0.005723
    13  H   -0.000044
    14  H   -0.000023
    15  C    0.419224
    16  O    0.013041
    17  H   -0.032266
    18  H   -0.036171
    19  H    0.592734
 Mulliken charges:
               1
     1  C   -0.528387
     2  C   -0.030014
     3  C    0.141050
     4  C   -0.133136
     5  H    0.178650
     6  N    0.012918
     7  C   -0.152753
     8  H    0.173434
     9  C   -0.361537
    10  H    0.211527
    11  C    0.141708
    12  H    0.318724
    13  H    0.211884
    14  H    0.172509
    15  C   -0.517571
    16  O   -0.332962
    17  H    0.192356
    18  H    0.189593
    19  H    0.112009
 Sum of Mulliken charges =  -0.00000
 Mulliken charges with hydrogens summed into heavy atoms:
               1
     1  C   -0.528387
     2  C    0.148636
     3  C    0.314484
     4  C    0.078391
     6  N    0.331641
     7  C    0.059131
     9  C   -0.189028
    11  C    0.141708
    15  C   -0.023614
    16  O   -0.332962
 Electronic spatial extent (au):  <R**2>=           1664.4831
 Charge=             -0.0000 electrons
 Dipole moment (field-independent basis, Debye):
    X=              0.5688    Y=             -0.3199    Z=             -3.8561  Tot=              3.9109
 Quadrupole moment (field-independent basis, Debye-Ang):
   XX=            -49.3712   YY=            -53.1625   ZZ=            -64.6525
   XY=              0.7831   XZ=              9.2037   YZ=             -0.4424
 Traceless Quadrupole moment (field-independent basis, Debye-Ang):
   XX=              6.3575   YY=              2.5662   ZZ=             -8.9237
   XY=              0.7831   XZ=              9.2037   YZ=             -0.4424
 Octapole moment (field-independent basis, Debye-Ang**2):
  XXX=            -12.9276  YYY=              0.8099  ZZZ=            -11.7767  XYY=              2.0550
  XXY=             -1.1029  XXZ=             -9.5491  XZZ=             -3.0367  YZZ=             -1.7521
  YYZ=              1.3627  XYZ=             -0.1724
 Hexadecapole moment (field-independent basis, Debye-Ang**3):
 XXXX=          -1549.2219 YYYY=           -278.5198 ZZZZ=           -188.2496 XXXY=              3.6365
 XXXZ=             45.8663 YYYX=             -0.8760 YYYZ=             -2.0362 ZZZX=             24.0031
 ZZZY=              1.6859 XXYY=           -314.4268 XXZZ=           -354.9362 YYZZ=            -87.6866
 XXYZ=             -3.5925 YYXZ=              1.2413 ZZXY=              3.0693
 N-N= 4.904242931766D+02 E-N=-2.007322366581D+03  KE= 4.400248168840D+02
 No NMR shielding tensors so no spin-rotation constants.
 Leave Link  601 at Tue Nov 22 19:13:52 2022, MaxMem= 16106127360 cpu:               3.7 elap:               0.1
 (Enter /opt/ap/G16/B01/g16/l9999.exe)
 1\1\GINC-N37\SP\RwB97XD\6-311++G(d,p)\C8H9N1O1\ROOT\22-Nov-2022\0\\#P 
 wB97XD/6-311++G(d,p) scf=maxcycle=512\\_conf055.gjf nmol_natom 1_19\\0
 ,1\C\C,1,1.39447505\C,1,1.39873503,2,119.56697224\C,2,1.39066123,1,119
 .42697207,3,2.53915756,0\H,2,0.96213008,1,119.8046163,3,-177.79870417,
 0\N,1,1.41693372,2,123.72220125,4,-177.74604849,0\C,3,1.38667133,1,120
 .18759987,2,-2.5020857,0\H,3,0.95673174,1,118.82085988,2,177.96737168,
 0\C,4,1.38268572,2,121.03929493,1,-0.41221113,0\H,4,0.9858595,2,118.57
 91267,1,178.77373233,0\C,6,1.35500692,1,127.62132737,2,-85.,0\H,6,0.89
 609466,1,115.10511997,2,95.,0\H,7,0.98847198,3,119.08117704,1,-179.645
 85354,0\H,9,0.98451201,4,120.53755637,2,177.22743544,0\C,11,1.50274561
 ,6,115.46861532,1,175.89235465,0\O,11,1.23496495,6,123.15099888,1,-3.4
 0672617,0\H,15,0.98719837,11,107.47091875,6,-116.36962839,0\H,15,0.999
 76021,11,109.69443261,6,128.85346087,0\H,15,0.97696155,11,114.37008871
 ,6,6.05302844,0\\Version=ES64L-G16RevB.01\State=1-A\HF=-440.1401102\RM
 SD=9.987e-09\Dipole=-0.0697858,1.5327981,-0.1147195\Quadrupole=5.50763
 45,-9.0529361,3.5453016,-3.226692,2.4323448,-1.8741255\PG=C01 [X(C8H9N
 1O1)]\\@


 MEN HAVE BECOME THE TOOLS OF THEIR TOOLS... THOREAU   
 Job cpu time:       0 days  0 hours  9 minutes 46.1 seconds.
 Elapsed time:       0 days  0 hours  0 minutes 18.4 seconds.
 File lengths (MBytes):  RWF=     46 Int=      0 D2E=      0 Chk=      6 Scr=      1
 Normal termination of Gaussian 16 at Tue Nov 22 19:13:52 2022.
