 Entering Gaussian System, Link 0=g16
 Input=_conf065.gjf
 Output=_conf065.log
 Initial command:
 /opt/ap/G16/B01/g16/l1.exe "/tmp2/scr/Gau-19743.inp" -scrdir="/tmp2/scr/"
 Entering Link 1 = /opt/ap/G16/B01/g16/l1.exe PID=     19744.
  
 Copyright (c) 1988-2017, Gaussian, Inc.  All Rights Reserved.
  
 This is part of the Gaussian(R) 16 program.  It is based on
 the Gaussian(R) 09 system (copyright 2009, Gaussian, Inc.),
 the Gaussian(R) 03 system (copyright 2003, Gaussian, Inc.),
 the Gaussian(R) 98 system (copyright 1998, Gaussian, Inc.),
 the Gaussian(R) 94 system (copyright 1995, Gaussian, Inc.),
 the Gaussian 92(TM) system (copyright 1992, Gaussian, Inc.),
 the Gaussian 90(TM) system (copyright 1990, Gaussian, Inc.),
 the Gaussian 88(TM) system (copyright 1988, Gaussian, Inc.),
 the Gaussian 86(TM) system (copyright 1986, Carnegie Mellon
 University), and the Gaussian 82(TM) system (copyright 1983,
 Carnegie Mellon University). Gaussian is a federally registered
 trademark of Gaussian, Inc.
  
 This software contains proprietary and confidential information,
 including trade secrets, belonging to Gaussian, Inc.
  
 This software is provided under written license and may be
 used, copied, transmitted, or stored only in accord with that
 written license.
  
 The following legend is applicable only to US Government
 contracts under FAR:
  
                    RESTRICTED RIGHTS LEGEND
  
 Use, reproduction and disclosure by the US Government is
 subject to restrictions as set forth in subparagraphs (a)
 and (c) of the Commercial Computer Software - Restricted
 Rights clause in FAR 52.227-19.
  
 Gaussian, Inc.
 340 Quinnipiac St., Bldg. 40, Wallingford CT 06492
  
  
 ---------------------------------------------------------------
 Warning -- This program may not be used in any manner that
 competes with the business of Gaussian, Inc. or will provide
 assistance to any competitor of Gaussian, Inc.  The licensee
 of this program is prohibited from giving any competitor of
 Gaussian, Inc. access to this program.  By using this program,
 the user acknowledges that Gaussian, Inc. is engaged in the
 business of creating and licensing software in the field of
 computational chemistry and represents and warrants to the
 licensee that it is not a competitor of Gaussian, Inc. and that
 it will not use this program in any manner prohibited above.
 ---------------------------------------------------------------
  

 Cite this work as:
 Gaussian 16, Revision B.01,
 M. J. Frisch, G. W. Trucks, H. B. Schlegel, G. E. Scuseria, 
 M. A. Robb, J. R. Cheeseman, G. Scalmani, V. Barone, 
 G. A. Petersson, H. Nakatsuji, X. Li, M. Caricato, A. V. Marenich, 
 J. Bloino, B. G. Janesko, R. Gomperts, B. Mennucci, H. P. Hratchian, 
 J. V. Ortiz, A. F. Izmaylov, J. L. Sonnenberg, D. Williams-Young, 
 F. Ding, F. Lipparini, F. Egidi, J. Goings, B. Peng, A. Petrone, 
 T. Henderson, D. Ranasinghe, V. G. Zakrzewski, J. Gao, N. Rega, 
 G. Zheng, W. Liang, M. Hada, M. Ehara, K. Toyota, R. Fukuda, 
 J. Hasegawa, M. Ishida, T. Nakajima, Y. Honda, O. Kitao, H. Nakai, 
 T. Vreven, K. Throssell, J. A. Montgomery, Jr., J. E. Peralta, 
 F. Ogliaro, M. J. Bearpark, J. J. Heyd, E. N. Brothers, K. N. Kudin, 
 V. N. Staroverov, T. A. Keith, R. Kobayashi, J. Normand, 
 K. Raghavachari, A. P. Rendell, J. C. Burant, S. S. Iyengar, 
 J. Tomasi, M. Cossi, J. M. Millam, M. Klene, C. Adamo, R. Cammi, 
 J. W. Ochterski, R. L. Martin, K. Morokuma, O. Farkas, 
 J. B. Foresman, and D. J. Fox, Gaussian, Inc., Wallingford CT, 2016.
 
 ******************************************
 Gaussian 16:  ES64L-G16RevB.01 20-Dec-2017
                22-Nov-2022 
 ******************************************
 %nprocshared=32
 Will use up to   32 processors via shared memory.
 %mem=120GB
 %chk=_conf065.chk
 ----------------------------------------
 #P wB97XD/6-311++G(d,p) scf=maxcycle=512
 ----------------------------------------
 1/38=1,172=1/1;
 2/12=2,17=6,18=5,40=1/2;
 3/5=4,6=6,7=1111,11=2,25=1,30=1,74=-58/1,2,3;
 4//1;
 5/5=2,7=512,38=5/2;
 6/7=2,8=2,9=2,10=2,28=1/1;
 99/5=1,9=1/99;
 Leave Link    1 at Tue Nov 22 19:14:24 2022, MaxMem= 16106127360 cpu:               1.9 elap:               0.1
 (Enter /opt/ap/G16/B01/g16/l101.exe)
 ----------------------------
 _conf065.gjf nmol_natom 1_19
 ----------------------------
 Symbolic Z-matrix:
 Charge =  0 Multiplicity = 1
 C
 C                    1     1.39448 
 C                    1     1.39874  2     119.56697 
 C                    2     1.39066  1     119.42697  3     2.53916  0
 H                    2     0.96213  1     119.80462  3    -177.7987  0
 N                    1     1.41693  2     123.7222  4    -177.74605  0
 C                    3     1.38667  1     120.1876  2    -2.50209  0
 H                    3     0.95673  1     118.82086  2     177.96737  0
 C                    4     1.38269  2     121.03929  1    -0.41221  0
 H                    4     0.98586  2     118.57913  1     178.77373  0
 C                    6     1.35501  1     127.62133  2    -35.      0
 H                    6     0.89609  1     115.10512  2     145.     0
 H                    7     0.98847  3     119.08118  1    -179.64585  0
 H                    9     0.98451  4     120.53756  2     177.22744  0
 C                    11    1.50275  6     115.46862  1     175.89235  0
 O                    11    1.23496  6     123.151  1    -3.40673  0
 H                    15    0.9872   11    107.47092  6    -116.36963  0
 H                    15    0.99976  11    109.69443  6     128.85346  0
 H                    15    0.97696  11    114.37009  6     6.05303  0
 
 ITRead=  0  0  0  0  0  0  0  0  0  0  0  0  0  0  0  0  0  0  0
 MicOpt= -1 -1 -1 -1 -1 -1 -1 -1 -1 -1 -1 -1 -1 -1 -1 -1 -1 -1 -1
 NAtoms=     19 NQM=       19 NQMF=       0 NMMI=      0 NMMIF=      0
                NMic=       0 NMicF=      0.
                    Isotopes and Nuclear Properties:
 (Nuclear quadrupole moments (NQMom) in fm**2, nuclear magnetic moments (NMagM)
  in nuclear magnetons)

  Atom         1           2           3           4           5           6           7           8           9          10
 IAtWgt=          12          12          12          12           1          14          12           1          12           1
 AtmWgt=  12.0000000  12.0000000  12.0000000  12.0000000   1.0078250  14.0030740  12.0000000   1.0078250  12.0000000   1.0078250
 NucSpn=           0           0           0           0           1           2           0           1           0           1
 AtZEff=  -0.0000000  -0.0000000  -0.0000000  -0.0000000  -0.0000000  -0.0000000  -0.0000000  -0.0000000  -0.0000000  -0.0000000
 NQMom=    0.0000000   0.0000000   0.0000000   0.0000000   0.0000000   2.0440000   0.0000000   0.0000000   0.0000000   0.0000000
 NMagM=    0.0000000   0.0000000   0.0000000   0.0000000   2.7928460   0.4037610   0.0000000   2.7928460   0.0000000   2.7928460
 AtZNuc=   6.0000000   6.0000000   6.0000000   6.0000000   1.0000000   7.0000000   6.0000000   1.0000000   6.0000000   1.0000000

  Atom        11          12          13          14          15          16          17          18          19
 IAtWgt=          12           1           1           1          12          16           1           1           1
 AtmWgt=  12.0000000   1.0078250   1.0078250   1.0078250  12.0000000  15.9949146   1.0078250   1.0078250   1.0078250
 NucSpn=           0           1           1           1           0           0           1           1           1
 AtZEff=  -0.0000000  -0.0000000  -0.0000000  -0.0000000  -0.0000000  -0.0000000  -0.0000000  -0.0000000  -0.0000000
 NQMom=    0.0000000   0.0000000   0.0000000   0.0000000   0.0000000   0.0000000   0.0000000   0.0000000   0.0000000
 NMagM=    0.0000000   2.7928460   2.7928460   2.7928460   0.0000000   0.0000000   2.7928460   2.7928460   2.7928460
 AtZNuc=   6.0000000   1.0000000   1.0000000   1.0000000   6.0000000   8.0000000   1.0000000   1.0000000   1.0000000
 Leave Link  101 at Tue Nov 22 19:14:24 2022, MaxMem= 16106127360 cpu:               5.1 elap:               0.2
 (Enter /opt/ap/G16/B01/g16/l202.exe)
                          Input orientation:                          
 ---------------------------------------------------------------------
 Center     Atomic      Atomic             Coordinates (Angstroms)
 Number     Number       Type             X           Y           Z
 ---------------------------------------------------------------------
      1          6           0        0.000000    0.000000    0.000000
      2          6           0        0.000000    0.000000    1.394475
      3          6           0        1.216591    0.000000   -0.690193
      4          6           0        1.210053    0.053661    2.077726
      5          1           0       -0.834249   -0.032067    1.872696
      6          7           0       -1.178505   -0.005866   -0.786634
      7          6           0        2.413939    0.052326    0.007287
      8          1           0        1.204393   -0.029731   -1.646384
      9          6           0        2.412261    0.098442    1.396177
     10          1           0        1.194755    0.071528    3.063305
     11          6           0       -2.351477   -0.627304   -0.514613
     12          1           0       -1.128029    0.459814   -1.550558
     13          1           0        3.263999    0.056828   -0.497149
     14          1           0        3.262484    0.177260    1.886251
     15          6           0       -3.460388   -0.372980   -1.496387
     16          8           0       -2.521051   -1.346680    0.474771
     17          1           0       -4.181369    0.097936   -1.013701
     18          1           0       -3.851964   -1.242986   -1.795182
     19          1           0       -3.192764    0.141943   -2.282316
 ---------------------------------------------------------------------
                    Distance matrix (angstroms):
                    1          2          3          4          5
     1  C    0.000000
     2  C    1.394475   0.000000
     3  C    1.398735   2.413697   0.000000
     4  C    2.405006   1.390661   2.768447   0.000000
     5  H    2.050363   0.962130   3.282586   2.056345   0.000000
     6  N    1.416934   2.479142   2.397044   3.730055   2.681648
     7  C    2.414517   2.784624   1.386671   2.395008   3.746678
     8  H    2.040105   3.270821   0.956732   3.725048   4.066939
     9  C    2.788908   2.414270   2.406711   1.382686   3.283889
    10  H    3.288829   2.053668   3.754243   0.985860   2.354812
    11  C    2.487525   3.093149   3.627044   4.457401   2.890594
    12  H    1.971829   3.187021   2.539469   4.335439   3.470868
    13  H    3.302132   3.772951   2.057273   3.293734   4.734944
    14  H    3.772687   3.304099   3.294718   2.065046   4.102100
    15  C    3.788479   4.524432   4.760588   5.896552   4.285271
    16  O    2.897353   3.002516   4.140128   4.295527   2.554937
    17  H    4.303607   4.826257   5.408532   6.215007   4.421697
    18  H    4.427790   5.153305   5.334442   6.504208   4.901659
    19  H    3.927195   4.871621   4.690141   6.196980   4.780900
                    6          7          8          9         10
     6  N    0.000000
     7  C    3.679585   0.000000
     8  H    2.533365   2.050454   0.000000
     9  C    4.203468   1.389657   3.276058   0.000000
    10  H    4.523316   3.290292   4.710788   2.064548   0.000000
    11  C    1.355007   4.841845   3.779181   5.183727   5.085826
    12  H    0.896095   3.890818   2.385169   4.620335   5.180138
    13  H    4.452366   0.988472   2.360129   2.076505   4.118108
    14  H    5.186544   2.065465   4.093666   0.984512   2.381625
    15  C    2.417750   6.078621   4.679797   6.563321   6.531366
    16  O    2.278455   5.150717   4.484706   5.222541   4.745423
    17  H    3.013226   6.674023   5.424299   7.020219   6.747251
    18  H    3.113683   6.647426   5.202007   7.157145   7.127568
    19  H    2.513196   6.056850   4.446220   6.704440   6.915993
                   11         12         13         14         15
    11  C    0.000000
    12  H    1.936964   0.000000
    13  H    5.657023   4.534532   0.000000
    14  H    6.158574   5.582840   2.386441   0.000000
    15  C    1.502746   2.477172   6.811798   7.545994   0.000000
    16  O    1.234965   3.050555   6.031688   6.145238   2.390796
    17  H    2.030657   3.121227   7.463378   7.989178   0.987198
    18  H    2.066491   3.221675   7.349240   8.135443   0.999760
    19  H    2.103397   2.213514   6.699542   7.684298   0.976962
                   16         17         18         19
    16  O    0.000000
    17  H    2.656900   0.000000
    18  H    2.633395   1.586598   0.000000
    19  H    3.204485   1.608931   1.609308   0.000000
 Stoichiometry    C8H9NO
 Framework group  C1[X(C8H9NO)]
 Deg. of freedom    51
 Full point group                 C1      NOp   1
 Largest Abelian subgroup         C1      NOp   1
 Largest concise Abelian subgroup C1      NOp   1
                         Standard orientation:                         
 ---------------------------------------------------------------------
 Center     Atomic      Atomic             Coordinates (Angstroms)
 Number     Number       Type             X           Y           Z
 ---------------------------------------------------------------------
      1          6           0        0.293289   -0.268455   -0.137854
      2          6           0        0.778293    1.027294   -0.312109
      3          6           0        1.182916   -1.302695    0.170967
      4          6           0        2.146495    1.261733   -0.228438
      5          1           0        0.165812    1.746849   -0.493223
      6          7           0       -1.075380   -0.617733   -0.249442
      7          6           0        2.544097   -1.050693    0.251837
      8          1           0        0.835168   -2.181910    0.317214
      9          6           0        3.031579    0.232124    0.033004
     10          1           0        2.477396    2.179265   -0.371819
     11          6           0       -2.150509    0.125504    0.107966
     12          1           0       -1.233836   -1.427540   -0.598854
     13          1           0        3.158568   -1.794760    0.466000
     14          1           0        4.001731    0.398752    0.050452
     15          6           0       -3.488696   -0.474320   -0.220229
     16          8           0       -2.057117    1.228854    0.654806
     17          1           0       -3.929241    0.122434   -0.871661
     18          1           0       -4.069007   -0.469189    0.593855
     19          1           0       -3.446786   -1.383553   -0.575183
 ---------------------------------------------------------------------
 Rotational constants (GHZ):           3.7867116           0.7813646           0.6718951
 Leave Link  202 at Tue Nov 22 19:14:24 2022, MaxMem= 16106127360 cpu:               0.3 elap:               0.0
 (Enter /opt/ap/G16/B01/g16/l301.exe)
 Standard basis: 6-311++G(d,p) (5D, 7F)
 Ernie: Thresh=  0.10000D-02 Tol=  0.10000D-05 Strict=F.
 There are   293 symmetry adapted cartesian basis functions of A   symmetry.
 There are   283 symmetry adapted basis functions of A   symmetry.
   283 basis functions,   441 primitive gaussians,   293 cartesian basis functions
    36 alpha electrons       36 beta electrons
       nuclear repulsion energy       491.3463129889 Hartrees.
 IExCor= 4639 DFT=T Ex+Corr=wB97XD ExCW=0 ScaHFX=  1.000000
 ScaDFX=  1.000000  1.000000  1.000000  1.000000 ScalE2=  1.000000  1.000000
 IRadAn=      5 IRanWt=     -1 IRanGd=            0 ICorTp=0 IEmpDi=121
 HFx  wShort=  0.000000 wLong=  0.200000 cFull=  0.222036 cShort=  0.000000 cLong=  0.777964
 DFx  wShort=  0.000000 wLong=  0.200000 cFull=  0.000000 cShort=  0.000000 cLong=  1.000000
 NAtoms=   19 NActive=   19 NUniq=   19 SFac= 1.00D+00 NAtFMM=   60 NAOKFM=F Big=F
 Integral buffers will be    131072 words long.
 Raffenetti 2 integral format.
 Two-electron integral symmetry is turned on.
 R6Disp:  Grimme-D2 Dispersion energy=       -0.0091347699 Hartrees.
 Nuclear repulsion after empirical dispersion term =      491.3371782190 Hartrees.
 Leave Link  301 at Tue Nov 22 19:14:24 2022, MaxMem= 16106127360 cpu:               1.2 elap:               0.0
 (Enter /opt/ap/G16/B01/g16/l302.exe)
 NPDir=0 NMtPBC=     1 NCelOv=     1 NCel=       1 NClECP=     1 NCelD=      1
         NCelK=      1 NCelE2=     1 NClLst=     1 CellRange=     0.0.
 One-electron integrals computed using PRISM.
 One-electron integral symmetry used in STVInt
 NBasis=   283 RedAO= T EigKep=  3.55D-06  NBF=   283
 NBsUse=   282 1.00D-06 EigRej=  9.45D-07 NBFU=   282
 Precomputing XC quadrature grid using
 IXCGrd= 4 IRadAn=           5 IRanWt=          -1 IRanGd=           0 AccXCQ= 0.00D+00.
 Generated NRdTot=       0 NPtTot=           0 NUsed=           0 NTot=          32
 NSgBfM=   293   293   293   293   293 MxSgAt=    19 MxSgA2=    19.
 Leave Link  302 at Tue Nov 22 19:14:24 2022, MaxMem= 16106127360 cpu:               6.4 elap:               0.2
 (Enter /opt/ap/G16/B01/g16/l303.exe)
 DipDrv:  MaxL=1.
 Leave Link  303 at Tue Nov 22 19:14:24 2022, MaxMem= 16106127360 cpu:               1.4 elap:               0.0
 (Enter /opt/ap/G16/B01/g16/l401.exe)
 ExpMin= 3.60D-02 ExpMax= 8.59D+03 ExpMxC= 1.30D+03 IAcc=3 IRadAn=         5 AccDes= 0.00D+00
 Harris functional with IExCor= 4639 and IRadAn=       5 diagonalized for initial guess.
 HarFok:  IExCor= 4639 AccDes= 0.00D+00 IRadAn=         5 IDoV= 1 UseB2=F ITyADJ=14
 ICtDFT=  3500011 ScaDFX=  1.000000  1.000000  1.000000  1.000000
 FoFCou: FMM=F IPFlag=           0 FMFlag=      100000 FMFlg1=           0
         NFxFlg=           0 DoJE=T BraDBF=F KetDBF=T FulRan=T
         wScrn=  0.000000 ICntrl=       500 IOpCl=  0 I1Cent=   200000004 NGrid=           0
         NMat0=    1 NMatS0=      1 NMatT0=    0 NMatD0=    1 NMtDS0=    0 NMtDT0=    0
 Petite list used in FoFCou.
 Harris En= -420.987587775874    
 JPrj=0 DoOrth=F DoCkMO=F.
 Leave Link  401 at Tue Nov 22 19:14:25 2022, MaxMem= 16106127360 cpu:              15.0 elap:               0.5
 (Enter /opt/ap/G16/B01/g16/l502.exe)
 Integral symmetry usage will be decided dynamically.
 Closed shell SCF:
 Using DIIS extrapolation, IDIIS=  1040.
 NGot= 16106127360 LenX= 16105943385 LenY= 16105857095
 Requested convergence on RMS density matrix=1.00D-08 within 512 cycles.
 Requested convergence on MAX density matrix=1.00D-06.
 Requested convergence on             energy=1.00D-06.
 No special actions if energy rises.
 Fock matrices will be formed incrementally for  20 cycles.

 Cycle   1  Pass 1  IDiag  1:
 FoFJK:  IHMeth= 1 ICntrl=       0 DoSepK=T KAlg= 0 I1Cent=           0 FoldK=F
 IRaf=         1 NMat=       1 IRICut=       1 DoRegI=T DoRafI=F ISym2E= 0 IDoP0=0 IntGTp=1.
 FoFCou: FMM=F IPFlag=           0 FMFlag=      100000 FMFlg1=           0
         NFxFlg=           0 DoJE=T BraDBF=F KetDBF=F FulRan=T
         wScrn=  0.000000 ICntrl=       500 IOpCl=  0 I1Cent=           0 NGrid=           0
         NMat0=    1 NMatS0=      1 NMatT0=    0 NMatD0=    1 NMtDS0=    0 NMtDT0=    0
 Symmetry not used in FoFCou.
 E= -439.991644445967    
 DIIS: error= 5.39D-02 at cycle   1 NSaved=   1.
 NSaved= 1 IEnMin= 1 EnMin= -439.991644445967     IErMin= 1 ErrMin= 5.39D-02
 ErrMax= 5.39D-02  0.00D+00 EMaxC= 1.00D-01 BMatC= 9.43D-01 BMatP= 9.43D-01
 IDIUse=3 WtCom= 4.61D-01 WtEn= 5.39D-01
 Coeff-Com:  0.100D+01
 Coeff-En:   0.100D+01
 Coeff:      0.100D+01
 Gap=     0.447 Goal=   None    Shift=    0.000
 GapD=    0.447 DampG=2.000 DampE=0.500 DampFc=1.0000 IDamp=-1.
 RMSDP=6.70D-03 MaxDP=4.36D-01              OVMax= 1.50D-01

 Cycle   2  Pass 1  IDiag  1:
 RMSU=  5.64D-03    CP:  8.33D-01
 E= -440.071570405453     Delta-E=       -0.079925959486 Rises=F Damp=F
 DIIS: error= 1.38D-02 at cycle   2 NSaved=   2.
 NSaved= 2 IEnMin= 2 EnMin= -440.071570405453     IErMin= 2 ErrMin= 1.38D-02
 ErrMax= 1.38D-02  0.00D+00 EMaxC= 1.00D-01 BMatC= 8.36D-02 BMatP= 9.43D-01
 IDIUse=3 WtCom= 8.62D-01 WtEn= 1.38D-01
 Coeff-Com:  0.158D+00 0.842D+00
 Coeff-En:   0.229D+00 0.771D+00
 Coeff:      0.168D+00 0.832D+00
 Gap=     0.453 Goal=   None    Shift=    0.000
 RMSDP=5.95D-03 MaxDP=3.28D-01 DE=-7.99D-02 OVMax= 1.18D-01

 Cycle   3  Pass 1  IDiag  1:
 RMSU=  4.61D-03    CP:  6.95D-01  6.00D-01
 E= -440.107448233810     Delta-E=       -0.035877828357 Rises=F Damp=F
 DIIS: error= 9.92D-03 at cycle   3 NSaved=   3.
 NSaved= 3 IEnMin= 3 EnMin= -440.107448233810     IErMin= 3 ErrMin= 9.92D-03
 ErrMax= 9.92D-03  0.00D+00 EMaxC= 1.00D-01 BMatC= 4.11D-02 BMatP= 8.36D-02
 IDIUse=3 WtCom= 9.01D-01 WtEn= 9.92D-02
 Coeff-Com:  0.262D-01 0.416D+00 0.558D+00
 Coeff-En:   0.000D+00 0.334D+00 0.666D+00
 Coeff:      0.236D-01 0.408D+00 0.569D+00
 Gap=     0.369 Goal=   None    Shift=    0.000
 RMSDP=2.07D-03 MaxDP=8.03D-02 DE=-3.59D-02 OVMax= 6.96D-02

 Cycle   4  Pass 1  IDiag  1:
 RMSU=  1.01D-03    CP:  7.10D-01  7.47D-01  6.60D-01
 E= -440.143965757968     Delta-E=       -0.036517524159 Rises=F Damp=F
 DIIS: error= 2.11D-03 at cycle   4 NSaved=   4.
 NSaved= 4 IEnMin= 4 EnMin= -440.143965757968     IErMin= 4 ErrMin= 2.11D-03
 ErrMax= 2.11D-03  0.00D+00 EMaxC= 1.00D-01 BMatC= 1.56D-03 BMatP= 4.11D-02
 IDIUse=3 WtCom= 9.79D-01 WtEn= 2.11D-02
 Coeff-Com:  0.948D-02 0.190D+00 0.294D+00 0.507D+00
 Coeff-En:   0.000D+00 0.000D+00 0.000D+00 0.100D+01
 Coeff:      0.928D-02 0.186D+00 0.288D+00 0.517D+00
 Gap=     0.344 Goal=   None    Shift=    0.000
 RMSDP=2.87D-04 MaxDP=7.60D-03 DE=-3.65D-02 OVMax= 1.01D-02

 Cycle   5  Pass 1  IDiag  1:
 RMSU=  1.99D-04    CP:  7.09D-01  7.46D-01  6.79D-01  8.15D-01
 E= -440.145180662472     Delta-E=       -0.001214904504 Rises=F Damp=F
 DIIS: error= 4.67D-04 at cycle   5 NSaved=   5.
 NSaved= 5 IEnMin= 5 EnMin= -440.145180662472     IErMin= 5 ErrMin= 4.67D-04
 ErrMax= 4.67D-04  0.00D+00 EMaxC= 1.00D-01 BMatC= 6.38D-05 BMatP= 1.56D-03
 IDIUse=3 WtCom= 9.95D-01 WtEn= 4.67D-03
 Coeff-Com:  0.932D-03 0.212D-01 0.443D-01 0.179D+00 0.754D+00
 Coeff-En:   0.000D+00 0.000D+00 0.000D+00 0.000D+00 0.100D+01
 Coeff:      0.927D-03 0.211D-01 0.441D-01 0.179D+00 0.755D+00
 Gap=     0.344 Goal=   None    Shift=    0.000
 RMSDP=1.46D-04 MaxDP=5.38D-03 DE=-1.21D-03 OVMax= 2.64D-03

 Cycle   6  Pass 1  IDiag  1:
 RMSU=  9.03D-05    CP:  7.07D-01  7.45D-01  6.99D-01  8.50D-01  9.57D-01
 E= -440.145224022955     Delta-E=       -0.000043360483 Rises=F Damp=F
 DIIS: error= 2.75D-04 at cycle   6 NSaved=   6.
 NSaved= 6 IEnMin= 6 EnMin= -440.145224022955     IErMin= 6 ErrMin= 2.75D-04
 ErrMax= 2.75D-04  0.00D+00 EMaxC= 1.00D-01 BMatC= 1.90D-05 BMatP= 6.38D-05
 IDIUse=3 WtCom= 9.97D-01 WtEn= 2.75D-03
 Coeff-Com: -0.109D-02-0.191D-01-0.218D-01 0.131D-01 0.408D+00 0.621D+00
 Coeff-En:   0.000D+00 0.000D+00 0.000D+00 0.000D+00 0.389D-01 0.961D+00
 Coeff:     -0.109D-02-0.191D-01-0.217D-01 0.130D-01 0.407D+00 0.622D+00
 Gap=     0.344 Goal=   None    Shift=    0.000
 RMSDP=4.67D-05 MaxDP=1.78D-03 DE=-4.34D-05 OVMax= 1.42D-03

 Cycle   7  Pass 1  IDiag  1:
 RMSU=  2.53D-05    CP:  7.06D-01  7.43D-01  7.03D-01  8.64D-01  1.05D+00
                    CP:  1.11D+00
 E= -440.145240256848     Delta-E=       -0.000016233893 Rises=F Damp=F
 DIIS: error= 7.19D-05 at cycle   7 NSaved=   7.
 NSaved= 7 IEnMin= 7 EnMin= -440.145240256848     IErMin= 7 ErrMin= 7.19D-05
 ErrMax= 7.19D-05  0.00D+00 EMaxC= 1.00D-01 BMatC= 4.82D-07 BMatP= 1.90D-05
 IDIUse=1 WtCom= 1.00D+00 WtEn= 0.00D+00
 Coeff-Com: -0.293D-03-0.554D-02-0.665D-02-0.117D-01 0.216D-01 0.108D+00
 Coeff-Com:  0.894D+00
 Coeff:     -0.293D-03-0.554D-02-0.665D-02-0.117D-01 0.216D-01 0.108D+00
 Coeff:      0.894D+00
 Gap=     0.344 Goal=   None    Shift=    0.000
 RMSDP=1.99D-05 MaxDP=8.08D-04 DE=-1.62D-05 OVMax= 4.92D-04

 Cycle   8  Pass 1  IDiag  1:
 RMSU=  7.81D-06    CP:  7.05D-01  7.42D-01  7.05D-01  8.68D-01  1.09D+00
                    CP:  1.19D+00  1.11D+00
 E= -440.145241278762     Delta-E=       -0.000001021914 Rises=F Damp=F
 DIIS: error= 1.35D-05 at cycle   8 NSaved=   8.
 NSaved= 8 IEnMin= 8 EnMin= -440.145241278762     IErMin= 8 ErrMin= 1.35D-05
 ErrMax= 1.35D-05  0.00D+00 EMaxC= 1.00D-01 BMatC= 9.90D-08 BMatP= 4.82D-07
 IDIUse=1 WtCom= 1.00D+00 WtEn= 0.00D+00
 Coeff-Com:  0.617D-04 0.778D-03 0.986D-03-0.677D-02-0.574D-01-0.632D-01
 Coeff-Com:  0.292D+00 0.834D+00
 Coeff:      0.617D-04 0.778D-03 0.986D-03-0.677D-02-0.574D-01-0.632D-01
 Coeff:      0.292D+00 0.834D+00
 Gap=     0.344 Goal=   None    Shift=    0.000
 RMSDP=8.37D-06 MaxDP=3.00D-04 DE=-1.02D-06 OVMax= 3.22D-04

 Cycle   9  Pass 1  IDiag  1:
 RMSU=  2.86D-06    CP:  7.05D-01  7.41D-01  7.06D-01  8.68D-01  1.10D+00
                    CP:  1.23D+00  1.22D+00  1.25D+00
 E= -440.145241467360     Delta-E=       -0.000000188599 Rises=F Damp=F
 DIIS: error= 1.16D-05 at cycle   9 NSaved=   9.
 NSaved= 9 IEnMin= 9 EnMin= -440.145241467360     IErMin= 9 ErrMin= 1.16D-05
 ErrMax= 1.16D-05  0.00D+00 EMaxC= 1.00D-01 BMatC= 8.98D-09 BMatP= 9.90D-08
 IDIUse=1 WtCom= 1.00D+00 WtEn= 0.00D+00
 Coeff-Com:  0.504D-04 0.854D-03 0.115D-02-0.617D-03-0.189D-01-0.295D-01
 Coeff-Com: -0.368D-03 0.242D+00 0.805D+00
 Coeff:      0.504D-04 0.854D-03 0.115D-02-0.617D-03-0.189D-01-0.295D-01
 Coeff:     -0.368D-03 0.242D+00 0.805D+00
 Gap=     0.344 Goal=   None    Shift=    0.000
 RMSDP=2.21D-06 MaxDP=8.73D-05 DE=-1.89D-07 OVMax= 7.36D-05

 Cycle  10  Pass 1  IDiag  1:
 RMSU=  9.78D-07    CP:  7.05D-01  7.41D-01  7.06D-01  8.67D-01  1.10D+00
                    CP:  1.23D+00  1.23D+00  1.32D+00  1.29D+00
 E= -440.145241485871     Delta-E=       -0.000000018511 Rises=F Damp=F
 DIIS: error= 1.94D-06 at cycle  10 NSaved=  10.
 NSaved=10 IEnMin=10 EnMin= -440.145241485871     IErMin=10 ErrMin= 1.94D-06
 ErrMax= 1.94D-06  0.00D+00 EMaxC= 1.00D-01 BMatC= 1.26D-09 BMatP= 8.98D-09
 IDIUse=1 WtCom= 1.00D+00 WtEn= 0.00D+00
 Coeff-Com:  0.425D-05 0.125D-03 0.200D-03 0.819D-03 0.325D-02 0.125D-02
 Coeff-Com: -0.386D-01-0.707D-01 0.202D+00 0.902D+00
 Coeff:      0.425D-05 0.125D-03 0.200D-03 0.819D-03 0.325D-02 0.125D-02
 Coeff:     -0.386D-01-0.707D-01 0.202D+00 0.902D+00
 Gap=     0.344 Goal=   None    Shift=    0.000
 RMSDP=7.88D-07 MaxDP=2.64D-05 DE=-1.85D-08 OVMax= 4.33D-05

 Cycle  11  Pass 1  IDiag  1:
 RMSU=  4.25D-07    CP:  7.05D-01  7.41D-01  7.06D-01  8.67D-01  1.10D+00
                    CP:  1.23D+00  1.24D+00  1.36D+00  1.43D+00  1.19D+00
 E= -440.145241489038     Delta-E=       -0.000000003167 Rises=F Damp=F
 DIIS: error= 1.06D-06 at cycle  11 NSaved=  11.
 NSaved=11 IEnMin=11 EnMin= -440.145241489038     IErMin=11 ErrMin= 1.06D-06
 ErrMax= 1.06D-06  0.00D+00 EMaxC= 1.00D-01 BMatC= 1.49D-10 BMatP= 1.26D-09
 IDIUse=1 WtCom= 1.00D+00 WtEn= 0.00D+00
 Coeff-Com: -0.442D-05-0.666D-04-0.742D-04 0.337D-03 0.324D-02 0.390D-02
 Coeff-Com: -0.953D-02-0.515D-01-0.503D-01 0.224D+00 0.880D+00
 Coeff:     -0.442D-05-0.666D-04-0.742D-04 0.337D-03 0.324D-02 0.390D-02
 Coeff:     -0.953D-02-0.515D-01-0.503D-01 0.224D+00 0.880D+00
 Gap=     0.344 Goal=   None    Shift=    0.000
 RMSDP=2.69D-07 MaxDP=8.13D-06 DE=-3.17D-09 OVMax= 1.21D-05

 Cycle  12  Pass 1  IDiag  1:
 RMSU=  1.16D-07    CP:  7.05D-01  7.41D-01  7.06D-01  8.66D-01  1.10D+00
                    CP:  1.23D+00  1.24D+00  1.36D+00  1.47D+00  1.30D+00
                    CP:  1.34D+00
 E= -440.145241489414     Delta-E=       -0.000000000376 Rises=F Damp=F
 DIIS: error= 2.08D-07 at cycle  12 NSaved=  12.
 NSaved=12 IEnMin=12 EnMin= -440.145241489414     IErMin=12 ErrMin= 2.08D-07
 ErrMax= 2.08D-07  0.00D+00 EMaxC= 1.00D-01 BMatC= 1.32D-11 BMatP= 1.49D-10
 IDIUse=1 WtCom= 1.00D+00 WtEn= 0.00D+00
 Coeff-Com: -0.930D-06-0.227D-04-0.325D-04-0.395D-04-0.167D-03 0.214D-03
 Coeff-Com:  0.390D-02 0.340D-02-0.263D-01-0.747D-01 0.927D-01 0.100D+01
 Coeff:     -0.930D-06-0.227D-04-0.325D-04-0.395D-04-0.167D-03 0.214D-03
 Coeff:      0.390D-02 0.340D-02-0.263D-01-0.747D-01 0.927D-01 0.100D+01
 Gap=     0.344 Goal=   None    Shift=    0.000
 RMSDP=1.15D-07 MaxDP=4.71D-06 DE=-3.76D-10 OVMax= 4.28D-06

 Cycle  13  Pass 1  IDiag  1:
 RMSU=  4.05D-08    CP:  7.05D-01  7.41D-01  7.06D-01  8.66D-01  1.10D+00
                    CP:  1.23D+00  1.24D+00  1.36D+00  1.46D+00  1.33D+00
                    CP:  1.48D+00  1.26D+00
 E= -440.145241489454     Delta-E=       -0.000000000039 Rises=F Damp=F
 DIIS: error= 8.04D-08 at cycle  13 NSaved=  13.
 NSaved=13 IEnMin=13 EnMin= -440.145241489454     IErMin=13 ErrMin= 8.04D-08
 ErrMax= 8.04D-08  0.00D+00 EMaxC= 1.00D-01 BMatC= 2.29D-12 BMatP= 1.32D-11
 IDIUse=1 WtCom= 1.00D+00 WtEn= 0.00D+00
 Coeff-Com:  0.873D-07-0.698D-06-0.313D-05-0.401D-04-0.390D-03-0.308D-03
 Coeff-Com:  0.216D-02 0.623D-02-0.351D-02-0.469D-01-0.687D-01 0.308D+00
 Coeff-Com:  0.803D+00
 Coeff:      0.873D-07-0.698D-06-0.313D-05-0.401D-04-0.390D-03-0.308D-03
 Coeff:      0.216D-02 0.623D-02-0.351D-02-0.469D-01-0.687D-01 0.308D+00
 Coeff:      0.803D+00
 Gap=     0.344 Goal=   None    Shift=    0.000
 RMSDP=3.40D-08 MaxDP=1.08D-06 DE=-3.93D-11 OVMax= 1.34D-06

 Cycle  14  Pass 1  IDiag  1:
 RMSU=  1.76D-08    CP:  7.05D-01  7.41D-01  7.06D-01  8.66D-01  1.10D+00
                    CP:  1.23D+00  1.24D+00  1.36D+00  1.46D+00  1.33D+00
                    CP:  1.52D+00  1.32D+00  1.16D+00
 E= -440.145241489460     Delta-E=       -0.000000000007 Rises=F Damp=F
 DIIS: error= 2.71D-08 at cycle  14 NSaved=  14.
 NSaved=14 IEnMin=14 EnMin= -440.145241489460     IErMin=14 ErrMin= 2.71D-08
 ErrMax= 2.71D-08  0.00D+00 EMaxC= 1.00D-01 BMatC= 2.09D-13 BMatP= 2.29D-12
 IDIUse=1 WtCom= 1.00D+00 WtEn= 0.00D+00
 Coeff-Com:  0.994D-07 0.200D-05 0.231D-05-0.365D-05-0.630D-04-0.783D-04
 Coeff-Com:  0.168D-05 0.853D-03 0.204D-02-0.552D-03-0.262D-01-0.521D-01
 Coeff-Com:  0.188D+00 0.888D+00
 Coeff:      0.994D-07 0.200D-05 0.231D-05-0.365D-05-0.630D-04-0.783D-04
 Coeff:      0.168D-05 0.853D-03 0.204D-02-0.552D-03-0.262D-01-0.521D-01
 Coeff:      0.188D+00 0.888D+00
 Gap=     0.344 Goal=   None    Shift=    0.000
 RMSDP=1.46D-08 MaxDP=5.38D-07 DE=-6.82D-12 OVMax= 4.71D-07

 Cycle  15  Pass 1  IDiag  1:
 RMSU=  5.05D-09    CP:  7.05D-01  7.41D-01  7.06D-01  8.66D-01  1.10D+00
                    CP:  1.23D+00  1.24D+00  1.36D+00  1.46D+00  1.33D+00
                    CP:  1.51D+00  1.35D+00  1.27D+00  1.29D+00
 E= -440.145241489461     Delta-E=       -0.000000000000 Rises=F Damp=F
 DIIS: error= 1.47D-08 at cycle  15 NSaved=  15.
 NSaved=15 IEnMin=15 EnMin= -440.145241489461     IErMin=15 ErrMin= 1.47D-08
 ErrMax= 1.47D-08  0.00D+00 EMaxC= 1.00D-01 BMatC= 2.33D-14 BMatP= 2.09D-13
 IDIUse=1 WtCom= 1.00D+00 WtEn= 0.00D+00
 Coeff-Com:  0.190D-08 0.316D-06 0.589D-06 0.440D-05 0.357D-04 0.276D-04
 Coeff-Com: -0.250D-03-0.561D-03 0.735D-03 0.548D-02 0.395D-02-0.446D-01
 Coeff-Com: -0.555D-01 0.130D+00 0.961D+00
 Coeff:      0.190D-08 0.316D-06 0.589D-06 0.440D-05 0.357D-04 0.276D-04
 Coeff:     -0.250D-03-0.561D-03 0.735D-03 0.548D-02 0.395D-02-0.446D-01
 Coeff:     -0.555D-01 0.130D+00 0.961D+00
 Gap=     0.344 Goal=   None    Shift=    0.000
 RMSDP=5.91D-09 MaxDP=2.05D-07 DE=-2.27D-13 OVMax= 2.36D-07

 SCF Done:  E(RwB97XD) =  -440.145241489     A.U. after   15 cycles
            NFock= 15  Conv=0.59D-08     -V/T= 2.0003
 KE= 4.400137617767D+02 PE=-2.009061850043D+03 EE= 6.375656685577D+02
 Leave Link  502 at Tue Nov 22 19:14:43 2022, MaxMem= 16106127360 cpu:             586.9 elap:              18.4
 (Enter /opt/ap/G16/B01/g16/l601.exe)
 Copying SCF densities to generalized density rwf, IOpCl= 0 IROHF=0.

 **********************************************************************

            Population analysis using the SCF Density.

 **********************************************************************

 Orbital symmetries:
       Occupied  (A) (A) (A) (A) (A) (A) (A) (A) (A) (A) (A) (A)
                 (A) (A) (A) (A) (A) (A) (A) (A) (A) (A) (A) (A)
                 (A) (A) (A) (A) (A) (A) (A) (A) (A) (A) (A) (A)
       Virtual   (A) (A) (A) (A) (A) (A) (A) (A) (A) (A) (A) (A)
                 (A) (A) (A) (A) (A) (A) (A) (A) (A) (A) (A) (A)
                 (A) (A) (A) (A) (A) (A) (A) (A) (A) (A) (A) (A)
                 (A) (A) (A) (A) (A) (A) (A) (A) (A) (A) (A) (A)
                 (A) (A) (A) (A) (A) (A) (A) (A) (A) (A) (A) (A)
                 (A) (A) (A) (A) (A) (A) (A) (A) (A) (A) (A) (A)
                 (A) (A) (A) (A) (A) (A) (A) (A) (A) (A) (A) (A)
                 (A) (A) (A) (A) (A) (A) (A) (A) (A) (A) (A) (A)
                 (A) (A) (A) (A) (A) (A) (A) (A) (A) (A) (A) (A)
                 (A) (A) (A) (A) (A) (A) (A) (A) (A) (A) (A) (A)
                 (A) (A) (A) (A) (A) (A) (A) (A) (A) (A) (A) (A)
                 (A) (A) (A) (A) (A) (A) (A) (A) (A) (A) (A) (A)
                 (A) (A) (A) (A) (A) (A) (A) (A) (A) (A) (A) (A)
                 (A) (A) (A) (A) (A) (A) (A) (A) (A) (A) (A) (A)
                 (A) (A) (A) (A) (A) (A) (A) (A) (A) (A) (A) (A)
                 (A) (A) (A) (A) (A) (A) (A) (A) (A) (A) (A) (A)
                 (A) (A) (A) (A) (A) (A) (A) (A) (A) (A) (A) (A)
                 (A) (A) (A) (A) (A) (A) (A) (A) (A) (A) (A) (A)
                 (A) (A) (A) (A) (A) (A) (A) (A) (A) (A) (A) (A)
                 (A) (A) (A) (A) (A) (A) (A) (A) (A) (A) (A) (A)
                 (A) (A) (A) (A) (A) (A)
 The electronic state is 1-A.
 Alpha  occ. eigenvalues --  -19.21195 -14.46698 -10.39681 -10.33781 -10.28308
 Alpha  occ. eigenvalues --  -10.28053 -10.28012 -10.27667 -10.27642 -10.26207
 Alpha  occ. eigenvalues --   -1.14348  -1.06043  -0.96431  -0.88494  -0.86607
 Alpha  occ. eigenvalues --   -0.84691  -0.74605  -0.73107  -0.69430  -0.65824
 Alpha  occ. eigenvalues --   -0.61408  -0.58716  -0.56414  -0.55249  -0.54209
 Alpha  occ. eigenvalues --   -0.52977  -0.51612  -0.49836  -0.48634  -0.45919
 Alpha  occ. eigenvalues --   -0.45343  -0.44570  -0.38541  -0.34617  -0.33406
 Alpha  occ. eigenvalues --   -0.31057
 Alpha virt. eigenvalues --    0.03374   0.04298   0.04545   0.04945   0.05267
 Alpha virt. eigenvalues --    0.06267   0.06862   0.07279   0.08696   0.09250
 Alpha virt. eigenvalues --    0.10420   0.10694   0.11488   0.12397   0.13291
 Alpha virt. eigenvalues --    0.14143   0.14896   0.15636   0.15765   0.16272
 Alpha virt. eigenvalues --    0.16850   0.17458   0.17829   0.18008   0.18592
 Alpha virt. eigenvalues --    0.19034   0.19460   0.19917   0.20321   0.20826
 Alpha virt. eigenvalues --    0.20960   0.21866   0.22289   0.22922   0.23770
 Alpha virt. eigenvalues --    0.24060   0.25208   0.26029   0.26404   0.26599
 Alpha virt. eigenvalues --    0.26746   0.28023   0.28364   0.29518   0.29687
 Alpha virt. eigenvalues --    0.30241   0.30959   0.31646   0.32673   0.33484
 Alpha virt. eigenvalues --    0.34024   0.34280   0.36097   0.37123   0.37529
 Alpha virt. eigenvalues --    0.38017   0.38567   0.39477   0.40063   0.41543
 Alpha virt. eigenvalues --    0.42320   0.43075   0.43955   0.44528   0.44960
 Alpha virt. eigenvalues --    0.46376   0.46540   0.50072   0.53569   0.55046
 Alpha virt. eigenvalues --    0.57680   0.58414   0.59158   0.62844   0.63212
 Alpha virt. eigenvalues --    0.64180   0.65082   0.65933   0.66282   0.66609
 Alpha virt. eigenvalues --    0.68751   0.69512   0.70879   0.72567   0.73319
 Alpha virt. eigenvalues --    0.74464   0.75923   0.76706   0.77200   0.78921
 Alpha virt. eigenvalues --    0.79710   0.81525   0.82297   0.83445   0.84790
 Alpha virt. eigenvalues --    0.85495   0.87950   0.89245   0.92247   0.93454
 Alpha virt. eigenvalues --    0.93762   0.94793   0.95119   0.96871   0.97080
 Alpha virt. eigenvalues --    0.98014   0.98920   1.00509   1.02537   1.05387
 Alpha virt. eigenvalues --    1.07758   1.10334   1.10754   1.12513   1.13944
 Alpha virt. eigenvalues --    1.16399   1.17365   1.18326   1.22214   1.24154
 Alpha virt. eigenvalues --    1.25189   1.29378   1.32605   1.35446   1.37685
 Alpha virt. eigenvalues --    1.40056   1.45208   1.46132   1.52895   1.54986
 Alpha virt. eigenvalues --    1.57104   1.60917   1.62042   1.62811   1.65364
 Alpha virt. eigenvalues --    1.66447   1.67489   1.67785   1.68152   1.68569
 Alpha virt. eigenvalues --    1.70331   1.71195   1.75225   1.76507   1.79039
 Alpha virt. eigenvalues --    1.80831   1.85932   1.86790   1.88939   1.90961
 Alpha virt. eigenvalues --    1.92377   1.94175   1.96449   1.97627   1.98836
 Alpha virt. eigenvalues --    2.01352   2.02051   2.04548   2.06454   2.07644
 Alpha virt. eigenvalues --    2.09294   2.10111   2.11853   2.13427   2.14032
 Alpha virt. eigenvalues --    2.22261   2.25660   2.28591   2.32721   2.36071
 Alpha virt. eigenvalues --    2.39135   2.41988   2.45807   2.50856   2.51664
 Alpha virt. eigenvalues --    2.53019   2.55702   2.59854   2.60670   2.63619
 Alpha virt. eigenvalues --    2.65063   2.69170   2.70012   2.73636   2.75694
 Alpha virt. eigenvalues --    2.79681   2.82132   2.82311   2.82874   2.84641
 Alpha virt. eigenvalues --    2.86575   2.90447   2.91884   2.92895   2.93129
 Alpha virt. eigenvalues --    2.94747   2.94909   2.98196   2.99607   3.02719
 Alpha virt. eigenvalues --    3.03288   3.04170   3.05152   3.08336   3.14079
 Alpha virt. eigenvalues --    3.19853   3.22027   3.23460   3.26194   3.31858
 Alpha virt. eigenvalues --    3.42528   3.44984   3.46032   3.48821   3.52441
 Alpha virt. eigenvalues --    3.62151   3.67850   3.71309   3.75652   3.91254
 Alpha virt. eigenvalues --    3.99921   4.04028   4.06295   4.12680   4.17787
 Alpha virt. eigenvalues --    4.30651   4.34485   4.38077   4.40135   4.44696
 Alpha virt. eigenvalues --    4.95753   5.18391   5.20031   5.21912   5.37175
 Alpha virt. eigenvalues --    5.90360  23.88637  23.98871  24.14869  24.22737
 Alpha virt. eigenvalues --   24.30301  24.33195  24.38123  24.42755  35.87893
 Alpha virt. eigenvalues --   50.16362
          Condensed to atoms (all electrons):
               1          2          3          4          5          6
     1  C    6.786696   0.100882   0.164974  -0.431630  -0.109089   0.117006
     2  C    0.100882   6.743697  -1.353661   0.327095   0.508199  -0.139787
     3  C    0.164974  -1.353661   7.027299   0.301184  -0.071191  -0.067434
     4  C   -0.431630   0.327095   0.301184   5.585789  -0.024627  -0.031066
     5  H   -0.109089   0.508199  -0.071191  -0.024627   0.462232  -0.026570
     6  N    0.117006  -0.139787  -0.067434  -0.031066  -0.026570   7.399801
     7  C   -0.427269   0.190735   0.274246  -0.216310   0.015730  -0.033055
     8  H   -0.110531  -0.039801   0.582455   0.042058  -0.002971   0.002855
     9  C   -0.009865  -0.343753  -0.333076   0.501297   0.030409   0.027764
    10  H    0.018186  -0.073790   0.030116   0.423879  -0.011368  -0.002041
    11  C   -0.254060   0.075786  -0.179196  -0.077096   0.019677  -0.007243
    12  H   -0.022339  -0.041946   0.019495  -0.015931  -0.000739   0.347045
    13  H    0.026214   0.027228  -0.114465  -0.019297   0.000747  -0.004935
    14  H    0.015580  -0.022107   0.001280  -0.049081   0.001028   0.001513
    15  C   -0.015298  -0.000123  -0.008052  -0.004525   0.005264  -0.379011
    16  O   -0.060011   0.037003  -0.020565  -0.006006  -0.002425  -0.138760
    17  H   -0.002548  -0.003420   0.004611   0.000037  -0.001635   0.005483
    18  H   -0.006502   0.008039  -0.009880  -0.001532  -0.000172   0.006426
    19  H    0.006722   0.018125  -0.007804   0.003413   0.000781   0.023002
               7          8          9         10         11         12
     1  C   -0.427269  -0.110531  -0.009865   0.018186  -0.254060  -0.022339
     2  C    0.190735  -0.039801  -0.343753  -0.073790   0.075786  -0.041946
     3  C    0.274246   0.582455  -0.333076   0.030116  -0.179196   0.019495
     4  C   -0.216310   0.042058   0.501297   0.423879  -0.077096  -0.015931
     5  H    0.015730  -0.002971   0.030409  -0.011368   0.019677  -0.000739
     6  N   -0.033055   0.002855   0.027764  -0.002041  -0.007243   0.347045
     7  C    5.526496  -0.092809   0.569962  -0.008070  -0.013244  -0.000311
     8  H   -0.092809   0.529591  -0.029742   0.002340  -0.015496  -0.002893
     9  C    0.569962  -0.029742   5.573157  -0.059088   0.012215   0.008394
    10  H   -0.008070   0.002340  -0.059088   0.483880  -0.000973   0.000020
    11  C   -0.013244  -0.015496   0.012215  -0.000973   5.948818   0.050061
    12  H   -0.000311  -0.002893   0.008394   0.000020   0.050061   0.381325
    13  H    0.437282  -0.015727  -0.026577  -0.001073   0.001456   0.000721
    14  H   -0.056265  -0.001143   0.463083  -0.009919  -0.001399   0.000162
    15  C    0.027897  -0.003067  -0.011671  -0.000128  -0.048593  -0.023550
    16  O    0.009064  -0.003281  -0.001017  -0.000462   0.467070   0.005512
    17  H   -0.000017  -0.000199  -0.000049  -0.000003  -0.030473   0.001347
    18  H    0.000066  -0.000152   0.000031  -0.000004  -0.056611   0.000055
    19  H    0.000410   0.001821  -0.000531   0.000011  -0.078580  -0.010959
              13         14         15         16         17         18
     1  C    0.026214   0.015580  -0.015298  -0.060011  -0.002548  -0.006502
     2  C    0.027228  -0.022107  -0.000123   0.037003  -0.003420   0.008039
     3  C   -0.114465   0.001280  -0.008052  -0.020565   0.004611  -0.009880
     4  C   -0.019297  -0.049081  -0.004525  -0.006006   0.000037  -0.001532
     5  H    0.000747   0.001028   0.005264  -0.002425  -0.001635  -0.000172
     6  N   -0.004935   0.001513  -0.379011  -0.138760   0.005483   0.006426
     7  C    0.437282  -0.056265   0.027897   0.009064  -0.000017   0.000066
     8  H   -0.015727  -0.001143  -0.003067  -0.003281  -0.000199  -0.000152
     9  C   -0.026577   0.463083  -0.011671  -0.001017  -0.000049   0.000031
    10  H   -0.001073  -0.009919  -0.000128  -0.000462  -0.000003  -0.000004
    11  C    0.001456  -0.001399  -0.048593   0.467070  -0.030473  -0.056611
    12  H    0.000721   0.000162  -0.023550   0.005512   0.001347   0.000055
    13  H    0.490627  -0.007568   0.000615   0.000300   0.000007  -0.000011
    14  H   -0.007568   0.492657  -0.000322  -0.000181  -0.000010  -0.000007
    15  C    0.000615  -0.000322   5.793811  -0.016806   0.401395   0.446457
    16  O    0.000300  -0.000181  -0.016806   8.098905  -0.004858  -0.008671
    17  H    0.000007  -0.000010   0.401395  -0.004858   0.504241  -0.029797
    18  H   -0.000011  -0.000007   0.446457  -0.008671  -0.029797   0.491744
    19  H   -0.000008  -0.000003   0.381522   0.007530  -0.035085  -0.032516
              19
     1  C    0.006722
     2  C    0.018125
     3  C   -0.007804
     4  C    0.003413
     5  H    0.000781
     6  N    0.023002
     7  C    0.000410
     8  H    0.001821
     9  C   -0.000531
    10  H    0.000011
    11  C   -0.078580
    12  H   -0.010959
    13  H   -0.000008
    14  H   -0.000003
    15  C    0.381522
    16  O    0.007530
    17  H   -0.035085
    18  H   -0.032516
    19  H    0.609504
 Mulliken charges:
               1
     1  C    0.212883
     2  C   -0.018404
     3  C   -0.240336
     4  C   -0.307651
     5  H    0.206720
     6  N   -0.100992
     7  C   -0.204538
     8  H    0.156691
     9  C   -0.370942
    10  H    0.208487
    11  C    0.187882
    12  H    0.304533
    13  H    0.204464
    14  H    0.172702
    15  C   -0.545813
    16  O   -0.362340
    17  H    0.190972
    18  H    0.193036
    19  H    0.112646
 Sum of Mulliken charges =  -0.00000
 Mulliken charges with hydrogens summed into heavy atoms:
               1
     1  C    0.212883
     2  C    0.188316
     3  C   -0.083645
     4  C   -0.099164
     6  N    0.203541
     7  C   -0.000074
     9  C   -0.198240
    11  C    0.187882
    15  C   -0.049160
    16  O   -0.362340
 Electronic spatial extent (au):  <R**2>=           1671.9179
 Charge=              0.0000 electrons
 Dipole moment (field-independent basis, Debye):
    X=              0.1503    Y=             -3.3168    Z=             -1.7903  Tot=              3.7721
 Quadrupole moment (field-independent basis, Debye-Ang):
   XX=            -50.1584   YY=            -55.5728   ZZ=            -62.2232
   XY=              7.5644   XZ=              4.3418   YZ=             -2.8536
 Traceless Quadrupole moment (field-independent basis, Debye-Ang):
   XX=              5.8264   YY=              0.4120   ZZ=             -6.2384
   XY=              7.5644   XZ=              4.3418   YZ=             -2.8536
 Octapole moment (field-independent basis, Debye-Ang**2):
  XXX=            -15.2043  YYY=             -7.0755  ZZZ=              0.5871  XYY=              7.5090
  XXY=            -14.0411  XXZ=             -4.9120  XZZ=            -10.4033  YZZ=             -1.4967
  YYZ=             -4.9148  XYZ=              0.9891
 Hexadecapole moment (field-independent basis, Debye-Ang**3):
 XXXX=          -1568.7856 YYYY=           -356.1780 ZZZZ=           -106.7632 XXXY=             32.3327
 XXXZ=             21.4507 YYYX=             17.7888 YYYZ=             -6.5033 ZZZX=              0.1129
 ZZZY=              1.9699 XXYY=           -350.8531 XXZZ=           -324.3467 YYZZ=            -84.7262
 XXYZ=            -18.4785 YYXZ=             11.2017 ZZXY=              2.3538
 N-N= 4.913371782190D+02 E-N=-2.009061849088D+03  KE= 4.400137617767D+02
 No NMR shielding tensors so no spin-rotation constants.
 Leave Link  601 at Tue Nov 22 19:14:43 2022, MaxMem= 16106127360 cpu:               3.7 elap:               0.1
 (Enter /opt/ap/G16/B01/g16/l9999.exe)
 1\1\GINC-N35\SP\RwB97XD\6-311++G(d,p)\C8H9N1O1\ROOT\22-Nov-2022\0\\#P 
 wB97XD/6-311++G(d,p) scf=maxcycle=512\\_conf065.gjf nmol_natom 1_19\\0
 ,1\C\C,1,1.39447505\C,1,1.39873503,2,119.56697224\C,2,1.39066123,1,119
 .42697207,3,2.53915756,0\H,2,0.96213008,1,119.8046163,3,-177.79870417,
 0\N,1,1.41693372,2,123.72220125,4,-177.74604849,0\C,3,1.38667133,1,120
 .18759987,2,-2.5020857,0\H,3,0.95673174,1,118.82085988,2,177.96737168,
 0\C,4,1.38268572,2,121.03929493,1,-0.41221113,0\H,4,0.9858595,2,118.57
 91267,1,178.77373233,0\C,6,1.35500692,1,127.62132737,2,-35.,0\H,6,0.89
 609466,1,115.10511997,2,145.,0\H,7,0.98847198,3,119.08117704,1,-179.64
 585354,0\H,9,0.98451201,4,120.53755637,2,177.22743544,0\C,11,1.5027456
 1,6,115.46861532,1,175.89235465,0\O,11,1.23496495,6,123.15099888,1,-3.
 40672617,0\H,15,0.98719837,11,107.47091875,6,-116.36962839,0\H,15,0.99
 976021,11,109.69443261,6,128.85346087,0\H,15,0.97696155,11,114.3700887
 1,6,6.05302844,0\\Version=ES64L-G16RevB.01\State=1-A\HF=-440.1452415\R
 MSD=5.907e-09\Dipole=0.3474969,0.9289603,-1.1039453\Quadrupole=1.58605
 57,-6.1493072,4.5632515,-3.2518399,5.0183862,0.6326839\PG=C01 [X(C8H9N
 1O1)]\\@


    UPON JULIA'S CLOTHES

 WHENAS IN SILKS MY JULIA GOES,
 THEN, THEN, METHINKS, HOW SWEETLY FLOWS
 THAT LIQUEFACTION OF HER CLOTHES.

 NEXT, WHEN I CAST MINE EYES, AND SEE
 THAT BRAVE VIBRATION, EACH WAY FREE,
 O, HOW THAT GLITTERING TAKETH ME!
     -- ROBERT HERRICK, 1648
 Job cpu time:       0 days  0 hours 10 minutes 23.8 seconds.
 Elapsed time:       0 days  0 hours  0 minutes 19.6 seconds.
 File lengths (MBytes):  RWF=     46 Int=      0 D2E=      0 Chk=      6 Scr=      1
 Normal termination of Gaussian 16 at Tue Nov 22 19:14:43 2022.
