 Entering Gaussian System, Link 0=g16
 Input=_conf053.gjf
 Output=_conf053.log
 Initial command:
 /opt/ap/G16/B01/g16/l1.exe "/tmp2/scr/Gau-18794.inp" -scrdir="/tmp2/scr/"
 Entering Link 1 = /opt/ap/G16/B01/g16/l1.exe PID=     18795.
  
 Copyright (c) 1988-2017, Gaussian, Inc.  All Rights Reserved.
  
 This is part of the Gaussian(R) 16 program.  It is based on
 the Gaussian(R) 09 system (copyright 2009, Gaussian, Inc.),
 the Gaussian(R) 03 system (copyright 2003, Gaussian, Inc.),
 the Gaussian(R) 98 system (copyright 1998, Gaussian, Inc.),
 the Gaussian(R) 94 system (copyright 1995, Gaussian, Inc.),
 the Gaussian 92(TM) system (copyright 1992, Gaussian, Inc.),
 the Gaussian 90(TM) system (copyright 1990, Gaussian, Inc.),
 the Gaussian 88(TM) system (copyright 1988, Gaussian, Inc.),
 the Gaussian 86(TM) system (copyright 1986, Carnegie Mellon
 University), and the Gaussian 82(TM) system (copyright 1983,
 Carnegie Mellon University). Gaussian is a federally registered
 trademark of Gaussian, Inc.
  
 This software contains proprietary and confidential information,
 including trade secrets, belonging to Gaussian, Inc.
  
 This software is provided under written license and may be
 used, copied, transmitted, or stored only in accord with that
 written license.
  
 The following legend is applicable only to US Government
 contracts under FAR:
  
                    RESTRICTED RIGHTS LEGEND
  
 Use, reproduction and disclosure by the US Government is
 subject to restrictions as set forth in subparagraphs (a)
 and (c) of the Commercial Computer Software - Restricted
 Rights clause in FAR 52.227-19.
  
 Gaussian, Inc.
 340 Quinnipiac St., Bldg. 40, Wallingford CT 06492
  
  
 ---------------------------------------------------------------
 Warning -- This program may not be used in any manner that
 competes with the business of Gaussian, Inc. or will provide
 assistance to any competitor of Gaussian, Inc.  The licensee
 of this program is prohibited from giving any competitor of
 Gaussian, Inc. access to this program.  By using this program,
 the user acknowledges that Gaussian, Inc. is engaged in the
 business of creating and licensing software in the field of
 computational chemistry and represents and warrants to the
 licensee that it is not a competitor of Gaussian, Inc. and that
 it will not use this program in any manner prohibited above.
 ---------------------------------------------------------------
  

 Cite this work as:
 Gaussian 16, Revision B.01,
 M. J. Frisch, G. W. Trucks, H. B. Schlegel, G. E. Scuseria, 
 M. A. Robb, J. R. Cheeseman, G. Scalmani, V. Barone, 
 G. A. Petersson, H. Nakatsuji, X. Li, M. Caricato, A. V. Marenich, 
 J. Bloino, B. G. Janesko, R. Gomperts, B. Mennucci, H. P. Hratchian, 
 J. V. Ortiz, A. F. Izmaylov, J. L. Sonnenberg, D. Williams-Young, 
 F. Ding, F. Lipparini, F. Egidi, J. Goings, B. Peng, A. Petrone, 
 T. Henderson, D. Ranasinghe, V. G. Zakrzewski, J. Gao, N. Rega, 
 G. Zheng, W. Liang, M. Hada, M. Ehara, K. Toyota, R. Fukuda, 
 J. Hasegawa, M. Ishida, T. Nakajima, Y. Honda, O. Kitao, H. Nakai, 
 T. Vreven, K. Throssell, J. A. Montgomery, Jr., J. E. Peralta, 
 F. Ogliaro, M. J. Bearpark, J. J. Heyd, E. N. Brothers, K. N. Kudin, 
 V. N. Staroverov, T. A. Keith, R. Kobayashi, J. Normand, 
 K. Raghavachari, A. P. Rendell, J. C. Burant, S. S. Iyengar, 
 J. Tomasi, M. Cossi, J. M. Millam, M. Klene, C. Adamo, R. Cammi, 
 J. W. Ochterski, R. L. Martin, K. Morokuma, O. Farkas, 
 J. B. Foresman, and D. J. Fox, Gaussian, Inc., Wallingford CT, 2016.
 
 ******************************************
 Gaussian 16:  ES64L-G16RevB.01 20-Dec-2017
                22-Nov-2022 
 ******************************************
 %nprocshared=32
 Will use up to   32 processors via shared memory.
 %mem=120GB
 %chk=_conf053.chk
 ----------------------------------------
 #P wB97XD/6-311++G(d,p) scf=maxcycle=512
 ----------------------------------------
 1/38=1,172=1/1;
 2/12=2,17=6,18=5,40=1/2;
 3/5=4,6=6,7=1111,11=2,25=1,30=1,74=-58/1,2,3;
 4//1;
 5/5=2,7=512,38=5/2;
 6/7=2,8=2,9=2,10=2,28=1/1;
 99/5=1,9=1/99;
 Leave Link    1 at Tue Nov 22 19:13:27 2022, MaxMem= 16106127360 cpu:               1.8 elap:               0.1
 (Enter /opt/ap/G16/B01/g16/l101.exe)
 ----------------------------
 _conf053.gjf nmol_natom 1_19
 ----------------------------
 Symbolic Z-matrix:
 Charge =  0 Multiplicity = 1
 C
 C                    1     1.39448 
 C                    1     1.39874  2     119.56697 
 C                    2     1.39066  1     119.42697  3     2.53916  0
 H                    2     0.96213  1     119.80462  3    -177.7987  0
 N                    1     1.41693  2     123.7222  4    -177.74605  0
 C                    3     1.38667  1     120.1876  2    -2.50209  0
 H                    3     0.95673  1     118.82086  2     177.96737  0
 C                    4     1.38269  2     121.03929  1    -0.41221  0
 H                    4     0.98586  2     118.57913  1     178.77373  0
 C                    6     1.35501  1     127.62133  2    -95.      0
 H                    6     0.89609  1     115.10512  2     85.      0
 H                    7     0.98847  3     119.08118  1    -179.64585  0
 H                    9     0.98451  4     120.53756  2     177.22744  0
 C                    11    1.50275  6     115.46862  1     175.89235  0
 O                    11    1.23496  6     123.151  1    -3.40673  0
 H                    15    0.9872   11    107.47092  6    -116.36963  0
 H                    15    0.99976  11    109.69443  6     128.85346  0
 H                    15    0.97696  11    114.37009  6     6.05303  0
 
 ITRead=  0  0  0  0  0  0  0  0  0  0  0  0  0  0  0  0  0  0  0
 MicOpt= -1 -1 -1 -1 -1 -1 -1 -1 -1 -1 -1 -1 -1 -1 -1 -1 -1 -1 -1
 NAtoms=     19 NQM=       19 NQMF=       0 NMMI=      0 NMMIF=      0
                NMic=       0 NMicF=      0.
                    Isotopes and Nuclear Properties:
 (Nuclear quadrupole moments (NQMom) in fm**2, nuclear magnetic moments (NMagM)
  in nuclear magnetons)

  Atom         1           2           3           4           5           6           7           8           9          10
 IAtWgt=          12          12          12          12           1          14          12           1          12           1
 AtmWgt=  12.0000000  12.0000000  12.0000000  12.0000000   1.0078250  14.0030740  12.0000000   1.0078250  12.0000000   1.0078250
 NucSpn=           0           0           0           0           1           2           0           1           0           1
 AtZEff=  -0.0000000  -0.0000000  -0.0000000  -0.0000000  -0.0000000  -0.0000000  -0.0000000  -0.0000000  -0.0000000  -0.0000000
 NQMom=    0.0000000   0.0000000   0.0000000   0.0000000   0.0000000   2.0440000   0.0000000   0.0000000   0.0000000   0.0000000
 NMagM=    0.0000000   0.0000000   0.0000000   0.0000000   2.7928460   0.4037610   0.0000000   2.7928460   0.0000000   2.7928460
 AtZNuc=   6.0000000   6.0000000   6.0000000   6.0000000   1.0000000   7.0000000   6.0000000   1.0000000   6.0000000   1.0000000

  Atom        11          12          13          14          15          16          17          18          19
 IAtWgt=          12           1           1           1          12          16           1           1           1
 AtmWgt=  12.0000000   1.0078250   1.0078250   1.0078250  12.0000000  15.9949146   1.0078250   1.0078250   1.0078250
 NucSpn=           0           1           1           1           0           0           1           1           1
 AtZEff=  -0.0000000  -0.0000000  -0.0000000  -0.0000000  -0.0000000  -0.0000000  -0.0000000  -0.0000000  -0.0000000
 NQMom=    0.0000000   0.0000000   0.0000000   0.0000000   0.0000000   0.0000000   0.0000000   0.0000000   0.0000000
 NMagM=    0.0000000   2.7928460   2.7928460   2.7928460   0.0000000   0.0000000   2.7928460   2.7928460   2.7928460
 AtZNuc=   6.0000000   1.0000000   1.0000000   1.0000000   6.0000000   8.0000000   1.0000000   1.0000000   1.0000000
 Leave Link  101 at Tue Nov 22 19:13:28 2022, MaxMem= 16106127360 cpu:               5.1 elap:               0.2
 (Enter /opt/ap/G16/B01/g16/l202.exe)
                          Input orientation:                          
 ---------------------------------------------------------------------
 Center     Atomic      Atomic             Coordinates (Angstroms)
 Number     Number       Type             X           Y           Z
 ---------------------------------------------------------------------
      1          6           0        0.000000    0.000000    0.000000
      2          6           0        0.000000    0.000000    1.394475
      3          6           0        1.216591    0.000000   -0.690193
      4          6           0        1.210053    0.053661    2.077726
      5          1           0       -0.834249   -0.032067    1.872696
      6          7           0       -1.178505   -0.005866   -0.786634
      7          6           0        2.413939    0.052326    0.007287
      8          1           0        1.204393   -0.029731   -1.646384
      9          6           0        2.412261    0.098442    1.396177
     10          1           0        1.194755    0.071528    3.063305
     11          6           0       -1.809218   -1.078185   -1.323642
     12          1           0       -1.538010    0.800708   -0.938884
     13          1           0        3.263999    0.056828   -0.497149
     14          1           0        3.262484    0.177260    1.886251
     15          6           0       -3.099255   -0.780041   -2.034387
     16          8           0       -1.376059   -2.231216   -1.234015
     17          1           0       -3.821553   -1.239583   -1.542789
     18          1           0       -3.083748   -1.189112   -2.946494
     19          1           0       -3.303827    0.171757   -2.116149
 ---------------------------------------------------------------------
                    Distance matrix (angstroms):
                    1          2          3          4          5
     1  C    0.000000
     2  C    1.394475   0.000000
     3  C    1.398735   2.413697   0.000000
     4  C    2.405006   1.390661   2.768447   0.000000
     5  H    2.050363   0.962130   3.282586   2.056345   0.000000
     6  N    1.416934   2.479142   2.397044   3.730055   2.681648
     7  C    2.414517   2.784624   1.386671   2.395008   3.746678
     8  H    2.040105   3.270821   0.956732   3.725048   4.066939
     9  C    2.788908   2.414270   2.406711   1.382686   3.283889
    10  H    3.288829   2.053668   3.754243   0.985860   2.354812
    11  C    2.487525   3.438591   3.274028   4.686830   3.501643
    12  H    1.971829   2.907090   2.879376   4.148477   3.015589
    13  H    3.302132   3.772951   2.057273   3.293734   4.734944
    14  H    3.772687   3.304099   3.294718   2.065046   4.102100
    15  C    3.788479   4.687317   4.587140   6.014537   4.577664
    16  O    2.897353   3.712253   3.463509   4.782913   3.844667
    17  H    4.303607   4.976781   5.257983   6.332271   4.695489
    18  H    4.427790   5.455961   4.999780   6.724879   5.442756
    19  H    3.927195   4.823822   4.743104   6.162600   4.695875
                    6          7          8          9         10
     6  N    0.000000
     7  C    3.679585   0.000000
     8  H    2.533365   2.050454   0.000000
     9  C    4.203468   1.389657   3.276058   0.000000
    10  H    4.523316   3.290292   4.710788   2.064548   0.000000
    11  C    1.355007   4.569954   3.207066   5.157786   5.439761
    12  H    0.896095   4.131974   2.951433   4.642233   4.900737
    13  H    4.452366   0.988472   2.360129   2.076505   4.118108
    14  H    5.186544   2.065465   4.093666   0.984512   2.381625
    15  C    2.417750   5.937725   4.385761   6.551131   6.719387
    16  O    2.278455   4.595593   3.416916   5.166874   5.511685
    17  H    3.013226   6.553863   5.170552   7.020561   6.935306
    18  H    3.113683   6.363219   4.628456   7.121988   7.484150
    19  H    2.513196   6.100499   4.537105   6.709357   6.861052
                   11         12         13         14         15
    11  C    0.000000
    12  H    1.936964   0.000000
    13  H    5.263922   4.879321   0.000000
    14  H    6.132024   5.604892   2.386441   0.000000
    15  C    1.502746   2.477172   6.599579   7.533894   0.000000
    16  O    1.234965   3.050555   5.225729   6.087109   2.390796
    17  H    2.030657   3.121227   7.278673   7.996833   0.987198
    18  H    2.066491   3.221675   6.917048   8.093026   0.999760
    19  H    2.103397   2.213514   6.765405   7.689973   0.976962
                   16         17         18         19
    16  O    0.000000
    17  H    2.656900   0.000000
    18  H    2.633395   1.586598   0.000000
    19  H    3.204485   1.608931   1.609308   0.000000
 Stoichiometry    C8H9NO
 Framework group  C1[X(C8H9NO)]
 Deg. of freedom    51
 Full point group                 C1      NOp   1
 Largest Abelian subgroup         C1      NOp   1
 Largest concise Abelian subgroup C1      NOp   1
                         Standard orientation:                         
 ---------------------------------------------------------------------
 Center     Atomic      Atomic             Coordinates (Angstroms)
 Number     Number       Type             X           Y           Z
 ---------------------------------------------------------------------
      1          6           0        0.288492    0.124916   -0.335867
      2          6           0        1.034287    1.264697   -0.037122
      3          6           0        0.911072   -1.127620   -0.333045
      4          6           0        2.398022    1.144269    0.207138
      5          1           0        0.602874    2.124154   -0.006929
      6          7           0       -1.094186    0.148172   -0.644676
      7          6           0        2.271763   -1.229374   -0.086018
      8          1           0        0.383123   -1.905489   -0.510600
      9          6           0        3.023463   -0.088210    0.166642
     10          1           0        2.916636    1.960429    0.399077
     11          6           0       -2.134066   -0.050098    0.201126
     12          1           0       -1.289234    0.314581   -1.503308
     13          1           0        2.695912   -2.122192   -0.093160
     14          1           0        3.996162   -0.160197    0.300574
     15          6           0       -3.499443    0.131250   -0.399794
     16          8           0       -1.989544   -0.346923    1.391146
     17          1           0       -3.927540    0.891958    0.061309
     18          1           0       -4.065619   -0.667381   -0.196930
     19          1           0       -3.498192    0.283345   -1.364842
 ---------------------------------------------------------------------
 Rotational constants (GHZ):           3.7039382           0.7517734           0.7077196
 Leave Link  202 at Tue Nov 22 19:13:28 2022, MaxMem= 16106127360 cpu:               0.3 elap:               0.0
 (Enter /opt/ap/G16/B01/g16/l301.exe)
 Standard basis: 6-311++G(d,p) (5D, 7F)
 Ernie: Thresh=  0.10000D-02 Tol=  0.10000D-05 Strict=F.
 There are   293 symmetry adapted cartesian basis functions of A   symmetry.
 There are   283 symmetry adapted basis functions of A   symmetry.
   283 basis functions,   441 primitive gaussians,   293 cartesian basis functions
    36 alpha electrons       36 beta electrons
       nuclear repulsion energy       490.5923393992 Hartrees.
 IExCor= 4639 DFT=T Ex+Corr=wB97XD ExCW=0 ScaHFX=  1.000000
 ScaDFX=  1.000000  1.000000  1.000000  1.000000 ScalE2=  1.000000  1.000000
 IRadAn=      5 IRanWt=     -1 IRanGd=            0 ICorTp=0 IEmpDi=121
 HFx  wShort=  0.000000 wLong=  0.200000 cFull=  0.222036 cShort=  0.000000 cLong=  0.777964
 DFx  wShort=  0.000000 wLong=  0.200000 cFull=  0.000000 cShort=  0.000000 cLong=  1.000000
 NAtoms=   19 NActive=   19 NUniq=   19 SFac= 1.00D+00 NAtFMM=   60 NAOKFM=F Big=F
 Integral buffers will be    131072 words long.
 Raffenetti 2 integral format.
 Two-electron integral symmetry is turned on.
 R6Disp:  Grimme-D2 Dispersion energy=       -0.0091803538 Hartrees.
 Nuclear repulsion after empirical dispersion term =      490.5831590453 Hartrees.
 Leave Link  301 at Tue Nov 22 19:13:28 2022, MaxMem= 16106127360 cpu:               1.3 elap:               0.0
 (Enter /opt/ap/G16/B01/g16/l302.exe)
 NPDir=0 NMtPBC=     1 NCelOv=     1 NCel=       1 NClECP=     1 NCelD=      1
         NCelK=      1 NCelE2=     1 NClLst=     1 CellRange=     0.0.
 One-electron integrals computed using PRISM.
 One-electron integral symmetry used in STVInt
 NBasis=   283 RedAO= T EigKep=  4.16D-06  NBF=   283
 NBsUse=   282 1.00D-06 EigRej=  8.48D-07 NBFU=   282
 Precomputing XC quadrature grid using
 IXCGrd= 4 IRadAn=           5 IRanWt=          -1 IRanGd=           0 AccXCQ= 0.00D+00.
 Generated NRdTot=       0 NPtTot=           0 NUsed=           0 NTot=          32
 NSgBfM=   293   293   293   293   293 MxSgAt=    19 MxSgA2=    19.
 Leave Link  302 at Tue Nov 22 19:13:28 2022, MaxMem= 16106127360 cpu:               6.3 elap:               0.2
 (Enter /opt/ap/G16/B01/g16/l303.exe)
 DipDrv:  MaxL=1.
 Leave Link  303 at Tue Nov 22 19:13:28 2022, MaxMem= 16106127360 cpu:               1.4 elap:               0.1
 (Enter /opt/ap/G16/B01/g16/l401.exe)
 ExpMin= 3.60D-02 ExpMax= 8.59D+03 ExpMxC= 1.30D+03 IAcc=3 IRadAn=         5 AccDes= 0.00D+00
 Harris functional with IExCor= 4639 and IRadAn=       5 diagonalized for initial guess.
 HarFok:  IExCor= 4639 AccDes= 0.00D+00 IRadAn=         5 IDoV= 1 UseB2=F ITyADJ=14
 ICtDFT=  3500011 ScaDFX=  1.000000  1.000000  1.000000  1.000000
 FoFCou: FMM=F IPFlag=           0 FMFlag=      100000 FMFlg1=           0
         NFxFlg=           0 DoJE=T BraDBF=F KetDBF=T FulRan=T
         wScrn=  0.000000 ICntrl=       500 IOpCl=  0 I1Cent=   200000004 NGrid=           0
         NMat0=    1 NMatS0=      1 NMatT0=    0 NMatD0=    1 NMtDS0=    0 NMtDT0=    0
 Petite list used in FoFCou.
 Harris En= -420.979643091665    
 JPrj=0 DoOrth=F DoCkMO=F.
 Leave Link  401 at Tue Nov 22 19:13:28 2022, MaxMem= 16106127360 cpu:              15.1 elap:               0.5
 (Enter /opt/ap/G16/B01/g16/l502.exe)
 Integral symmetry usage will be decided dynamically.
 Closed shell SCF:
 Using DIIS extrapolation, IDIIS=  1040.
 NGot= 16106127360 LenX= 16105943385 LenY= 16105857095
 Requested convergence on RMS density matrix=1.00D-08 within 512 cycles.
 Requested convergence on MAX density matrix=1.00D-06.
 Requested convergence on             energy=1.00D-06.
 No special actions if energy rises.
 Fock matrices will be formed incrementally for  20 cycles.

 Cycle   1  Pass 1  IDiag  1:
 FoFJK:  IHMeth= 1 ICntrl=       0 DoSepK=T KAlg= 0 I1Cent=           0 FoldK=F
 IRaf=         1 NMat=       1 IRICut=       1 DoRegI=T DoRafI=F ISym2E= 0 IDoP0=0 IntGTp=1.
 FoFCou: FMM=F IPFlag=           0 FMFlag=      100000 FMFlg1=           0
         NFxFlg=           0 DoJE=T BraDBF=F KetDBF=F FulRan=T
         wScrn=  0.000000 ICntrl=       500 IOpCl=  0 I1Cent=           0 NGrid=           0
         NMat0=    1 NMatS0=      1 NMatT0=    0 NMatD0=    1 NMtDS0=    0 NMtDT0=    0
 Symmetry not used in FoFCou.
 E= -439.998213179818    
 DIIS: error= 5.90D-02 at cycle   1 NSaved=   1.
 NSaved= 1 IEnMin= 1 EnMin= -439.998213179818     IErMin= 1 ErrMin= 5.90D-02
 ErrMax= 5.90D-02  0.00D+00 EMaxC= 1.00D-01 BMatC= 9.33D-01 BMatP= 9.33D-01
 IDIUse=3 WtCom= 4.10D-01 WtEn= 5.90D-01
 Coeff-Com:  0.100D+01
 Coeff-En:   0.100D+01
 Coeff:      0.100D+01
 Gap=     0.463 Goal=   None    Shift=    0.000
 GapD=    0.463 DampG=2.000 DampE=0.500 DampFc=1.0000 IDamp=-1.
 RMSDP=1.27D-02 MaxDP=9.93D-01              OVMax= 1.18D-01

 Cycle   2  Pass 1  IDiag  1:
 RMSU=  5.80D-03    CP:  6.85D-01
 E= -440.079839091279     Delta-E=       -0.081625911462 Rises=F Damp=F
 DIIS: error= 1.47D-02 at cycle   2 NSaved=   2.
 NSaved= 2 IEnMin= 2 EnMin= -440.079839091279     IErMin= 2 ErrMin= 1.47D-02
 ErrMax= 1.47D-02  0.00D+00 EMaxC= 1.00D-01 BMatC= 6.91D-02 BMatP= 9.33D-01
 IDIUse=3 WtCom= 8.53D-01 WtEn= 1.47D-01
 Coeff-Com:  0.142D+00 0.858D+00
 Coeff-En:   0.167D+00 0.833D+00
 Coeff:      0.146D+00 0.854D+00
 Gap=     0.401 Goal=   None    Shift=    0.000
 RMSDP=4.65D-03 MaxDP=2.16D-01 DE=-8.16D-02 OVMax= 1.20D-01

 Cycle   3  Pass 1  IDiag  1:
 RMSU=  4.03D-03    CP:  7.22D-01  6.74D-01
 E= -440.105772370786     Delta-E=       -0.025933279507 Rises=F Damp=F
 DIIS: error= 1.31D-02 at cycle   3 NSaved=   3.
 NSaved= 3 IEnMin= 3 EnMin= -440.105772370786     IErMin= 3 ErrMin= 1.31D-02
 ErrMax= 1.31D-02  0.00D+00 EMaxC= 1.00D-01 BMatC= 3.76D-02 BMatP= 6.91D-02
 IDIUse=3 WtCom= 8.69D-01 WtEn= 1.31D-01
 Coeff-Com:  0.264D-01 0.429D+00 0.545D+00
 Coeff-En:   0.000D+00 0.359D+00 0.641D+00
 Coeff:      0.229D-01 0.420D+00 0.557D+00
 Gap=     0.401 Goal=   None    Shift=    0.000
 RMSDP=2.67D-03 MaxDP=1.43D-01 DE=-2.59D-02 OVMax= 5.35D-02

 Cycle   4  Pass 1  IDiag  1:
 RMSU=  6.92D-04    CP:  6.86D-01  8.76D-01  5.30D-01
 E= -440.138781520014     Delta-E=       -0.033009149228 Rises=F Damp=F
 DIIS: error= 2.65D-03 at cycle   4 NSaved=   4.
 NSaved= 4 IEnMin= 4 EnMin= -440.138781520014     IErMin= 4 ErrMin= 2.65D-03
 ErrMax= 2.65D-03  0.00D+00 EMaxC= 1.00D-01 BMatC= 1.60D-03 BMatP= 3.76D-02
 IDIUse=3 WtCom= 9.73D-01 WtEn= 2.65D-02
 Coeff-Com:  0.981D-02 0.200D+00 0.296D+00 0.494D+00
 Coeff-En:   0.000D+00 0.000D+00 0.000D+00 0.100D+01
 Coeff:      0.955D-02 0.195D+00 0.288D+00 0.508D+00
 Gap=     0.374 Goal=   None    Shift=    0.000
 RMSDP=3.35D-04 MaxDP=1.64D-02 DE=-3.30D-02 OVMax= 1.08D-02

 Cycle   5  Pass 1  IDiag  1:
 RMSU=  2.37D-04    CP:  6.81D-01  8.70D-01  5.59D-01  8.80D-01
 E= -440.140017272110     Delta-E=       -0.001235752096 Rises=F Damp=F
 DIIS: error= 6.10D-04 at cycle   5 NSaved=   5.
 NSaved= 5 IEnMin= 5 EnMin= -440.140017272110     IErMin= 5 ErrMin= 6.10D-04
 ErrMax= 6.10D-04  0.00D+00 EMaxC= 1.00D-01 BMatC= 5.38D-05 BMatP= 1.60D-03
 IDIUse=3 WtCom= 9.94D-01 WtEn= 6.10D-03
 Coeff-Com:  0.126D-02 0.278D-01 0.511D-01 0.175D+00 0.745D+00
 Coeff-En:   0.000D+00 0.000D+00 0.000D+00 0.000D+00 0.100D+01
 Coeff:      0.125D-02 0.276D-01 0.508D-01 0.174D+00 0.747D+00
 Gap=     0.371 Goal=   None    Shift=    0.000
 RMSDP=1.36D-04 MaxDP=8.50D-03 DE=-1.24D-03 OVMax= 2.99D-03

 Cycle   6  Pass 1  IDiag  1:
 RMSU=  9.91D-05    CP:  6.83D-01  8.73D-01  5.72D-01  9.57D-01  1.05D+00
 E= -440.140052052558     Delta-E=       -0.000034780448 Rises=F Damp=F
 DIIS: error= 3.14D-04 at cycle   6 NSaved=   6.
 NSaved= 6 IEnMin= 6 EnMin= -440.140052052558     IErMin= 6 ErrMin= 3.14D-04
 ErrMax= 3.14D-04  0.00D+00 EMaxC= 1.00D-01 BMatC= 1.59D-05 BMatP= 5.38D-05
 IDIUse=3 WtCom= 9.97D-01 WtEn= 3.14D-03
 Coeff-Com: -0.104D-02-0.186D-01-0.205D-01 0.722D-02 0.401D+00 0.632D+00
 Coeff-En:   0.000D+00 0.000D+00 0.000D+00 0.000D+00 0.777D-01 0.922D+00
 Coeff:     -0.103D-02-0.185D-01-0.205D-01 0.720D-02 0.400D+00 0.633D+00
 Gap=     0.371 Goal=   None    Shift=    0.000
 RMSDP=5.15D-05 MaxDP=2.06D-03 DE=-3.48D-05 OVMax= 9.15D-04

 Cycle   7  Pass 1  IDiag  1:
 RMSU=  2.82D-05    CP:  6.82D-01  8.74D-01  5.73D-01  9.87D-01  1.17D+00
                    CP:  1.03D+00
 E= -440.140065343614     Delta-E=       -0.000013291055 Rises=F Damp=F
 DIIS: error= 8.87D-05 at cycle   7 NSaved=   7.
 NSaved= 7 IEnMin= 7 EnMin= -440.140065343614     IErMin= 7 ErrMin= 8.87D-05
 ErrMax= 8.87D-05  0.00D+00 EMaxC= 1.00D-01 BMatC= 4.00D-07 BMatP= 1.59D-05
 IDIUse=1 WtCom= 1.00D+00 WtEn= 0.00D+00
 Coeff-Com: -0.303D-03-0.588D-02-0.686D-02-0.124D-01 0.299D-01 0.116D+00
 Coeff-Com:  0.880D+00
 Coeff:     -0.303D-03-0.588D-02-0.686D-02-0.124D-01 0.299D-01 0.116D+00
 Coeff:      0.880D+00
 Gap=     0.371 Goal=   None    Shift=    0.000
 RMSDP=2.29D-05 MaxDP=1.70D-03 DE=-1.33D-05 OVMax= 3.36D-04

 Cycle   8  Pass 1  IDiag  1:
 RMSU=  8.98D-06    CP:  6.82D-01  8.73D-01  5.74D-01  1.00D+00  1.22D+00
                    CP:  1.13D+00  1.18D+00
 E= -440.140066096981     Delta-E=       -0.000000753367 Rises=F Damp=F
 DIIS: error= 1.45D-05 at cycle   8 NSaved=   8.
 NSaved= 8 IEnMin= 8 EnMin= -440.140066096981     IErMin= 8 ErrMin= 1.45D-05
 ErrMax= 1.45D-05  0.00D+00 EMaxC= 1.00D-01 BMatC= 7.69D-08 BMatP= 4.00D-07
 IDIUse=1 WtCom= 1.00D+00 WtEn= 0.00D+00
 Coeff-Com:  0.598D-04 0.771D-03 0.970D-03-0.616D-02-0.536D-01-0.668D-01
 Coeff-Com:  0.263D+00 0.861D+00
 Coeff:      0.598D-04 0.771D-03 0.970D-03-0.616D-02-0.536D-01-0.668D-01
 Coeff:      0.263D+00 0.861D+00
 Gap=     0.371 Goal=   None    Shift=    0.000
 RMSDP=9.58D-06 MaxDP=6.93D-04 DE=-7.53D-07 OVMax= 1.64D-04

 Cycle   9  Pass 1  IDiag  1:
 RMSU=  2.48D-06    CP:  6.82D-01  8.73D-01  5.74D-01  1.00D+00  1.23D+00
                    CP:  1.17D+00  1.31D+00  1.19D+00
 E= -440.140066235313     Delta-E=       -0.000000138332 Rises=F Damp=F
 DIIS: error= 1.32D-05 at cycle   9 NSaved=   9.
 NSaved= 9 IEnMin= 9 EnMin= -440.140066235313     IErMin= 9 ErrMin= 1.32D-05
 ErrMax= 1.32D-05  0.00D+00 EMaxC= 1.00D-01 BMatC= 6.74D-09 BMatP= 7.69D-08
 IDIUse=1 WtCom= 1.00D+00 WtEn= 0.00D+00
 Coeff-Com:  0.461D-04 0.806D-03 0.105D-02-0.608D-03-0.170D-01-0.296D-01
 Coeff-Com: -0.262D-02 0.242D+00 0.806D+00
 Coeff:      0.461D-04 0.806D-03 0.105D-02-0.608D-03-0.170D-01-0.296D-01
 Coeff:     -0.262D-02 0.242D+00 0.806D+00
 Gap=     0.371 Goal=   None    Shift=    0.000
 RMSDP=2.09D-06 MaxDP=1.12D-04 DE=-1.38D-07 OVMax= 5.89D-05

 Cycle  10  Pass 1  IDiag  1:
 RMSU=  8.36D-07    CP:  6.82D-01  8.73D-01  5.74D-01  1.00D+00  1.23D+00
                    CP:  1.18D+00  1.33D+00  1.24D+00  1.26D+00
 E= -440.140066248000     Delta-E=       -0.000000012687 Rises=F Damp=F
 DIIS: error= 2.50D-06 at cycle  10 NSaved=  10.
 NSaved=10 IEnMin=10 EnMin= -440.140066248000     IErMin=10 ErrMin= 2.50D-06
 ErrMax= 2.50D-06  0.00D+00 EMaxC= 1.00D-01 BMatC= 1.12D-09 BMatP= 6.74D-09
 IDIUse=1 WtCom= 1.00D+00 WtEn= 0.00D+00
 Coeff-Com:  0.461D-05 0.134D-03 0.195D-03 0.668D-03 0.313D-02 0.878D-03
 Coeff-Com: -0.376D-01-0.737D-01 0.235D+00 0.871D+00
 Coeff:      0.461D-05 0.134D-03 0.195D-03 0.668D-03 0.313D-02 0.878D-03
 Coeff:     -0.376D-01-0.737D-01 0.235D+00 0.871D+00
 Gap=     0.371 Goal=   None    Shift=    0.000
 RMSDP=6.78D-07 MaxDP=2.34D-05 DE=-1.27D-08 OVMax= 2.25D-05

 Cycle  11  Pass 1  IDiag  1:
 RMSU=  3.13D-07    CP:  6.82D-01  8.73D-01  5.74D-01  1.00D+00  1.23D+00
                    CP:  1.17D+00  1.33D+00  1.27D+00  1.39D+00  1.12D+00
 E= -440.140066250144     Delta-E=       -0.000000002144 Rises=F Damp=F
 DIIS: error= 1.03D-06 at cycle  11 NSaved=  11.
 NSaved=11 IEnMin=11 EnMin= -440.140066250144     IErMin=11 ErrMin= 1.03D-06
 ErrMax= 1.03D-06  0.00D+00 EMaxC= 1.00D-01 BMatC= 8.40D-11 BMatP= 1.12D-09
 IDIUse=1 WtCom= 1.00D+00 WtEn= 0.00D+00
 Coeff-Com: -0.306D-05-0.459D-04-0.498D-04 0.244D-03 0.263D-02 0.317D-02
 Coeff-Com: -0.861D-02-0.469D-01-0.229D-01 0.203D+00 0.869D+00
 Coeff:     -0.306D-05-0.459D-04-0.498D-04 0.244D-03 0.263D-02 0.317D-02
 Coeff:     -0.861D-02-0.469D-01-0.229D-01 0.203D+00 0.869D+00
 Gap=     0.371 Goal=   None    Shift=    0.000
 RMSDP=2.86D-07 MaxDP=2.22D-05 DE=-2.14D-09 OVMax= 8.05D-06

 Cycle  12  Pass 1  IDiag  1:
 RMSU=  8.01D-08    CP:  6.82D-01  8.73D-01  5.74D-01  1.00D+00  1.23D+00
                    CP:  1.17D+00  1.33D+00  1.27D+00  1.42D+00  1.22D+00
                    CP:  1.23D+00
 E= -440.140066250326     Delta-E=       -0.000000000183 Rises=F Damp=F
 DIIS: error= 2.02D-07 at cycle  12 NSaved=  12.
 NSaved=12 IEnMin=12 EnMin= -440.140066250326     IErMin=12 ErrMin= 2.02D-07
 ErrMax= 2.02D-07  0.00D+00 EMaxC= 1.00D-01 BMatC= 7.83D-12 BMatP= 8.40D-11
 IDIUse=1 WtCom= 1.00D+00 WtEn= 0.00D+00
 Coeff-Com: -0.907D-06-0.203D-04-0.268D-04-0.142D-04 0.557D-04 0.381D-03
 Coeff-Com:  0.267D-02-0.498D-03-0.241D-01-0.480D-01 0.154D+00 0.915D+00
 Coeff:     -0.907D-06-0.203D-04-0.268D-04-0.142D-04 0.557D-04 0.381D-03
 Coeff:      0.267D-02-0.498D-03-0.241D-01-0.480D-01 0.154D+00 0.915D+00
 Gap=     0.371 Goal=   None    Shift=    0.000
 RMSDP=1.03D-07 MaxDP=9.01D-06 DE=-1.83D-10 OVMax= 2.51D-06

 Cycle  13  Pass 1  IDiag  1:
 RMSU=  3.03D-08    CP:  6.82D-01  8.73D-01  5.74D-01  1.00D+00  1.23D+00
                    CP:  1.17D+00  1.33D+00  1.27D+00  1.43D+00  1.24D+00
                    CP:  1.32D+00  1.28D+00
 E= -440.140066250342     Delta-E=       -0.000000000016 Rises=F Damp=F
 DIIS: error= 7.30D-08 at cycle  13 NSaved=  13.
 NSaved=13 IEnMin=13 EnMin= -440.140066250342     IErMin=13 ErrMin= 7.30D-08
 ErrMax= 7.30D-08  0.00D+00 EMaxC= 1.00D-01 BMatC= 1.53D-12 BMatP= 7.83D-12
 IDIUse=1 WtCom= 1.00D+00 WtEn= 0.00D+00
 Coeff-Com:  0.999D-07 0.852D-07-0.139D-05-0.299D-04-0.338D-03-0.290D-03
 Coeff-Com:  0.186D-02 0.575D-02-0.428D-02-0.407D-01-0.761D-01 0.268D+00
 Coeff-Com:  0.846D+00
 Coeff:      0.999D-07 0.852D-07-0.139D-05-0.299D-04-0.338D-03-0.290D-03
 Coeff:      0.186D-02 0.575D-02-0.428D-02-0.407D-01-0.761D-01 0.268D+00
 Coeff:      0.846D+00
 Gap=     0.371 Goal=   None    Shift=    0.000
 RMSDP=4.74D-08 MaxDP=3.73D-06 DE=-1.57D-11 OVMax= 1.01D-06

 Cycle  14  Pass 1  IDiag  1:
 RMSU=  1.31D-08    CP:  6.82D-01  8.73D-01  5.74D-01  1.00D+00  1.23D+00
                    CP:  1.17D+00  1.33D+00  1.26D+00  1.43D+00  1.25D+00
                    CP:  1.36D+00  1.37D+00  1.23D+00
 E= -440.140066250352     Delta-E=       -0.000000000010 Rises=F Damp=F
 DIIS: error= 4.01D-08 at cycle  14 NSaved=  14.
 NSaved=14 IEnMin=14 EnMin= -440.140066250352     IErMin=14 ErrMin= 4.01D-08
 ErrMax= 4.01D-08  0.00D+00 EMaxC= 1.00D-01 BMatC= 1.27D-13 BMatP= 1.53D-12
 IDIUse=1 WtCom= 1.00D+00 WtEn= 0.00D+00
 Coeff-Com:  0.101D-06 0.178D-05 0.198D-05-0.407D-05-0.719D-04-0.819D-04
 Coeff-Com:  0.932D-04 0.110D-02 0.154D-02-0.183D-02-0.334D-01-0.448D-01
 Coeff-Com:  0.164D+00 0.914D+00
 Coeff:      0.101D-06 0.178D-05 0.198D-05-0.407D-05-0.719D-04-0.819D-04
 Coeff:      0.932D-04 0.110D-02 0.154D-02-0.183D-02-0.334D-01-0.448D-01
 Coeff:      0.164D+00 0.914D+00
 Gap=     0.371 Goal=   None    Shift=    0.000
 RMSDP=9.96D-09 MaxDP=4.04D-07 DE=-1.01D-11 OVMax= 3.79D-07

 SCF Done:  E(RwB97XD) =  -440.140066250     A.U. after   14 cycles
            NFock= 14  Conv=0.10D-07     -V/T= 2.0003
 KE= 4.400249884803D+02 PE=-2.007644104615D+03 EE= 6.368958908394D+02
 Leave Link  502 at Tue Nov 22 19:13:46 2022, MaxMem= 16106127360 cpu:             564.2 elap:              17.7
 (Enter /opt/ap/G16/B01/g16/l601.exe)
 Copying SCF densities to generalized density rwf, IOpCl= 0 IROHF=0.

 **********************************************************************

            Population analysis using the SCF Density.

 **********************************************************************

 Orbital symmetries:
       Occupied  (A) (A) (A) (A) (A) (A) (A) (A) (A) (A) (A) (A)
                 (A) (A) (A) (A) (A) (A) (A) (A) (A) (A) (A) (A)
                 (A) (A) (A) (A) (A) (A) (A) (A) (A) (A) (A) (A)
       Virtual   (A) (A) (A) (A) (A) (A) (A) (A) (A) (A) (A) (A)
                 (A) (A) (A) (A) (A) (A) (A) (A) (A) (A) (A) (A)
                 (A) (A) (A) (A) (A) (A) (A) (A) (A) (A) (A) (A)
                 (A) (A) (A) (A) (A) (A) (A) (A) (A) (A) (A) (A)
                 (A) (A) (A) (A) (A) (A) (A) (A) (A) (A) (A) (A)
                 (A) (A) (A) (A) (A) (A) (A) (A) (A) (A) (A) (A)
                 (A) (A) (A) (A) (A) (A) (A) (A) (A) (A) (A) (A)
                 (A) (A) (A) (A) (A) (A) (A) (A) (A) (A) (A) (A)
                 (A) (A) (A) (A) (A) (A) (A) (A) (A) (A) (A) (A)
                 (A) (A) (A) (A) (A) (A) (A) (A) (A) (A) (A) (A)
                 (A) (A) (A) (A) (A) (A) (A) (A) (A) (A) (A) (A)
                 (A) (A) (A) (A) (A) (A) (A) (A) (A) (A) (A) (A)
                 (A) (A) (A) (A) (A) (A) (A) (A) (A) (A) (A) (A)
                 (A) (A) (A) (A) (A) (A) (A) (A) (A) (A) (A) (A)
                 (A) (A) (A) (A) (A) (A) (A) (A) (A) (A) (A) (A)
                 (A) (A) (A) (A) (A) (A) (A) (A) (A) (A) (A) (A)
                 (A) (A) (A) (A) (A) (A) (A) (A) (A) (A) (A) (A)
                 (A) (A) (A) (A) (A) (A) (A) (A) (A) (A) (A) (A)
                 (A) (A) (A) (A) (A) (A) (A) (A) (A) (A) (A) (A)
                 (A) (A) (A) (A) (A) (A) (A) (A) (A) (A) (A) (A)
                 (A) (A) (A) (A) (A) (A)
 The electronic state is 1-A.
 Alpha  occ. eigenvalues --  -19.20535 -14.45706 -10.39153 -10.33393 -10.28513
 Alpha  occ. eigenvalues --  -10.28444 -10.28380 -10.28305 -10.28006 -10.25845
 Alpha  occ. eigenvalues --   -1.13627  -1.05366  -0.96613  -0.88215  -0.86864
 Alpha  occ. eigenvalues --   -0.84682  -0.73834  -0.73100  -0.70069  -0.65868
 Alpha  occ. eigenvalues --   -0.61598  -0.58168  -0.56775  -0.55457  -0.54363
 Alpha  occ. eigenvalues --   -0.53294  -0.51373  -0.49259  -0.46794  -0.46563
 Alpha  occ. eigenvalues --   -0.45807  -0.44187  -0.35237  -0.34133  -0.33795
 Alpha  occ. eigenvalues --   -0.33567
 Alpha virt. eigenvalues --    0.03547   0.04406   0.04546   0.04706   0.05121
 Alpha virt. eigenvalues --    0.06157   0.06637   0.06791   0.08465   0.08978
 Alpha virt. eigenvalues --    0.10029   0.10319   0.11475   0.12664   0.13339
 Alpha virt. eigenvalues --    0.13932   0.14976   0.15292   0.16321   0.16489
 Alpha virt. eigenvalues --    0.16634   0.17430   0.17603   0.18192   0.18239
 Alpha virt. eigenvalues --    0.18818   0.18923   0.19627   0.19903   0.20239
 Alpha virt. eigenvalues --    0.21267   0.21381   0.22178   0.23191   0.23495
 Alpha virt. eigenvalues --    0.24341   0.24900   0.25054   0.25254   0.26900
 Alpha virt. eigenvalues --    0.27464   0.28308   0.28763   0.28904   0.29299
 Alpha virt. eigenvalues --    0.29445   0.30673   0.31777   0.32759   0.34002
 Alpha virt. eigenvalues --    0.34914   0.36258   0.36420   0.37715   0.38129
 Alpha virt. eigenvalues --    0.38601   0.38668   0.39594   0.40200   0.41211
 Alpha virt. eigenvalues --    0.42055   0.43872   0.44688   0.45324   0.45379
 Alpha virt. eigenvalues --    0.47527   0.48878   0.52389   0.54097   0.55283
 Alpha virt. eigenvalues --    0.56973   0.57447   0.59491   0.62689   0.63111
 Alpha virt. eigenvalues --    0.63889   0.64593   0.65197   0.65723   0.66513
 Alpha virt. eigenvalues --    0.67662   0.68719   0.70523   0.73345   0.73526
 Alpha virt. eigenvalues --    0.73832   0.74768   0.76091   0.77411   0.78422
 Alpha virt. eigenvalues --    0.78651   0.81891   0.82481   0.82855   0.83925
 Alpha virt. eigenvalues --    0.86948   0.88265   0.89673   0.92872   0.93361
 Alpha virt. eigenvalues --    0.94509   0.95006   0.96089   0.96591   0.98834
 Alpha virt. eigenvalues --    0.99080   0.99660   1.00021   1.01959   1.04632
 Alpha virt. eigenvalues --    1.07234   1.10116   1.11162   1.13288   1.14824
 Alpha virt. eigenvalues --    1.15970   1.16768   1.18534   1.22381   1.23434
 Alpha virt. eigenvalues --    1.27092   1.28082   1.31418   1.36435   1.38543
 Alpha virt. eigenvalues --    1.42386   1.44217   1.48345   1.53253   1.55327
 Alpha virt. eigenvalues --    1.56158   1.60571   1.61684   1.62815   1.66097
 Alpha virt. eigenvalues --    1.67270   1.67506   1.67895   1.68587   1.70139
 Alpha virt. eigenvalues --    1.70786   1.72287   1.75406   1.75783   1.77334
 Alpha virt. eigenvalues --    1.83407   1.83792   1.87255   1.88788   1.91732
 Alpha virt. eigenvalues --    1.92571   1.92827   1.97303   1.97795   1.99431
 Alpha virt. eigenvalues --    2.00272   2.03085   2.04406   2.06228   2.07116
 Alpha virt. eigenvalues --    2.08352   2.11671   2.14049   2.15576   2.16582
 Alpha virt. eigenvalues --    2.21764   2.24632   2.25981   2.30109   2.36625
 Alpha virt. eigenvalues --    2.37430   2.42047   2.46578   2.49970   2.52451
 Alpha virt. eigenvalues --    2.54145   2.54921   2.59100   2.60632   2.64625
 Alpha virt. eigenvalues --    2.65348   2.67198   2.73194   2.73871   2.80442
 Alpha virt. eigenvalues --    2.80789   2.82087   2.83324   2.83937   2.84299
 Alpha virt. eigenvalues --    2.86888   2.88112   2.90470   2.91072   2.93272
 Alpha virt. eigenvalues --    2.94476   2.96164   2.97835   2.99126   3.01705
 Alpha virt. eigenvalues --    3.02632   3.04847   3.06619   3.12879   3.16565
 Alpha virt. eigenvalues --    3.20511   3.21895   3.22620   3.24920   3.25429
 Alpha virt. eigenvalues --    3.41571   3.45050   3.46204   3.47631   3.51812
 Alpha virt. eigenvalues --    3.63428   3.67953   3.71618   3.73233   3.90662
 Alpha virt. eigenvalues --    4.00076   4.07507   4.10809   4.14200   4.17939
 Alpha virt. eigenvalues --    4.30296   4.34244   4.38543   4.39218   4.44154
 Alpha virt. eigenvalues --    4.95356   5.15252   5.20672   5.21052   5.39128
 Alpha virt. eigenvalues --    5.90909  23.88414  23.99367  24.15088  24.22398
 Alpha virt. eigenvalues --   24.29745  24.32780  24.38475  24.42414  35.88543
 Alpha virt. eigenvalues --   50.17168
          Condensed to atoms (all electrons):
               1          2          3          4          5          6
     1  C    9.760119  -1.095079  -0.089636  -0.876172  -0.137714  -0.689620
     2  C   -1.095079   9.339471  -3.188745   0.819400   0.613232   0.060531
     3  C   -0.089636  -3.188745   8.787867  -0.024860  -0.099199  -0.096950
     4  C   -0.876172   0.819400  -0.024860   5.438930  -0.037710   0.067902
     5  H   -0.137714   0.613232  -0.099199  -0.037710   0.492201  -0.008458
     6  N   -0.689620   0.060531  -0.096950   0.067902  -0.008458   7.890062
     7  C   -0.788324   0.456554   0.291380   0.037677   0.028302   0.045949
     8  H   -0.173306  -0.114249   0.650761   0.022484  -0.003319   0.004377
     9  C    0.158257  -0.463604  -0.054856   0.382877   0.007724  -0.000068
    10  H    0.002063  -0.111776   0.021881   0.451437  -0.015038  -0.001367
    11  C    0.109868  -0.228908  -0.057899  -0.064466  -0.017680  -0.056042
    12  H   -0.066994  -0.030753  -0.005843  -0.002606  -0.000593   0.368220
    13  H    0.018051   0.047806  -0.135890  -0.000753   0.001569  -0.003077
    14  H    0.030268  -0.020237  -0.003476  -0.062021  -0.000581   0.000718
    15  C    0.140032  -0.071848   0.009389  -0.004139  -0.000512  -0.463987
    16  O    0.188210  -0.062641  -0.063810  -0.010032  -0.000859  -0.146033
    17  H    0.020104  -0.006854  -0.005551  -0.001076  -0.000423  -0.005723
    18  H    0.006819   0.001588  -0.008418  -0.001450   0.000095   0.000763
    19  H   -0.003880   0.007555   0.005840   0.002171   0.001063   0.020075
               7          8          9         10         11         12
     1  C   -0.788324  -0.173306   0.158257   0.002063   0.109868  -0.066994
     2  C    0.456554  -0.114249  -0.463604  -0.111776  -0.228908  -0.030753
     3  C    0.291380   0.650761  -0.054856   0.021881  -0.057899  -0.005843
     4  C    0.037677   0.022484   0.382877   0.451437  -0.064466  -0.002606
     5  H    0.028302  -0.003319   0.007724  -0.015038  -0.017680  -0.000593
     6  N    0.045949   0.004377  -0.000068  -0.001367  -0.056042   0.368220
     7  C    5.591331  -0.032046   0.279361   0.001023  -0.097129  -0.003142
     8  H   -0.032046   0.501420   0.013176   0.001377  -0.028198  -0.000009
     9  C    0.279361   0.013176   5.606420  -0.036303   0.026548   0.006322
    10  H    0.001023   0.001377  -0.036303   0.487123  -0.000014   0.000572
    11  C   -0.097129  -0.028198   0.026548  -0.000014   6.043257   0.076488
    12  H   -0.003142  -0.000009   0.006322   0.000572   0.076488   0.372883
    13  H    0.449732  -0.016391  -0.053175  -0.000751   0.000988   0.000598
    14  H   -0.066802  -0.000404   0.478183  -0.009644  -0.000932   0.000231
    15  C    0.000311  -0.001792   0.000908  -0.000410  -0.150580  -0.029630
    16  O   -0.025252  -0.001572   0.007645  -0.000223   0.476416   0.002329
    17  H   -0.003214  -0.000316   0.000428  -0.000062  -0.038359  -0.000723
    18  H   -0.000343  -0.001085   0.000424  -0.000033  -0.036046   0.000541
    19  H    0.002028   0.001876  -0.000688  -0.000017  -0.098092  -0.005881
              13         14         15         16         17         18
     1  C    0.018051   0.030268   0.140032   0.188210   0.020104   0.006819
     2  C    0.047806  -0.020237  -0.071848  -0.062641  -0.006854   0.001588
     3  C   -0.135890  -0.003476   0.009389  -0.063810  -0.005551  -0.008418
     4  C   -0.000753  -0.062021  -0.004139  -0.010032  -0.001076  -0.001450
     5  H    0.001569  -0.000581  -0.000512  -0.000859  -0.000423   0.000095
     6  N   -0.003077   0.000718  -0.463987  -0.146033  -0.005723   0.000763
     7  C    0.449732  -0.066802   0.000311  -0.025252  -0.003214  -0.000343
     8  H   -0.016391  -0.000404  -0.001792  -0.001572  -0.000316  -0.001085
     9  C   -0.053175   0.478183   0.000908   0.007645   0.000428   0.000424
    10  H   -0.000751  -0.009644  -0.000410  -0.000223  -0.000062  -0.000033
    11  C    0.000988  -0.000932  -0.150580   0.476416  -0.038359  -0.036046
    12  H    0.000598   0.000231  -0.029630   0.002329  -0.000723   0.000541
    13  H    0.489445  -0.009826  -0.000737  -0.000432  -0.000021  -0.000038
    14  H   -0.009826   0.491456   0.000157   0.000107   0.000013   0.000008
    15  C   -0.000737   0.000157   5.858729  -0.027516   0.415853   0.424830
    16  O   -0.000432   0.000107  -0.027516   8.009497  -0.011123  -0.010336
    17  H   -0.000021   0.000013   0.415853  -0.011123   0.501431  -0.025111
    18  H   -0.000038   0.000008   0.424830  -0.010336  -0.025111   0.495371
    19  H   -0.000038  -0.000026   0.418851   0.012634  -0.032892  -0.035933
              19
     1  C   -0.003880
     2  C    0.007555
     3  C    0.005840
     4  C    0.002171
     5  H    0.001063
     6  N    0.020075
     7  C    0.002028
     8  H    0.001876
     9  C   -0.000688
    10  H   -0.000017
    11  C   -0.098092
    12  H   -0.005881
    13  H   -0.000038
    14  H   -0.000026
    15  C    0.418851
    16  O    0.012634
    17  H   -0.032892
    18  H   -0.035933
    19  H    0.593866
 Mulliken charges:
               1
     1  C   -0.513067
     2  C    0.048557
     3  C    0.068015
     4  C   -0.137594
     5  H    0.177899
     6  N    0.012727
     7  C   -0.167394
     8  H    0.177216
     9  C   -0.359581
    10  H    0.210162
    11  C    0.140779
    12  H    0.317991
    13  H    0.212941
    14  H    0.172808
    15  C   -0.517911
    16  O   -0.337011
    17  H    0.193621
    18  H    0.188354
    19  H    0.111487
 Sum of Mulliken charges =  -0.00000
 Mulliken charges with hydrogens summed into heavy atoms:
               1
     1  C   -0.513067
     2  C    0.226456
     3  C    0.245232
     4  C    0.072568
     6  N    0.330718
     7  C    0.045546
     9  C   -0.186772
    11  C    0.140779
    15  C   -0.024449
    16  O   -0.337011
 Electronic spatial extent (au):  <R**2>=           1662.4168
 Charge=              0.0000 electrons
 Dipole moment (field-independent basis, Debye):
    X=              0.5437    Y=              0.9111    Z=             -3.7515  Tot=              3.8987
 Quadrupole moment (field-independent basis, Debye-Ang):
   XX=            -49.3198   YY=            -53.5195   ZZ=            -64.2833
   XY=             -2.0505   XZ=              8.9611   YZ=              1.7969
 Traceless Quadrupole moment (field-independent basis, Debye-Ang):
   XX=              6.3877   YY=              2.1881   ZZ=             -8.5758
   XY=             -2.0505   XZ=              8.9611   YZ=              1.7969
 Octapole moment (field-independent basis, Debye-Ang**2):
  XXX=            -13.2137  YYY=             -0.6296  ZZZ=            -11.0676  XYY=              2.5306
  XXY=              2.9266  XXZ=             -9.0337  XZZ=             -3.5855  YZZ=              3.0762
  YYZ=              0.8942  XYZ=             -0.7809
 Hexadecapole moment (field-independent basis, Debye-Ang**3):
 XXXX=          -1546.5522 YYYY=           -282.6029 ZZZZ=           -184.8647 XXXY=             -9.1091
 XXXZ=             44.6688 YYYX=             -0.3911 YYYZ=              5.1494 ZZZX=             22.6953
 ZZZY=             -1.6563 XXYY=           -316.2833 XXZZ=           -351.9309 YYZZ=            -87.2998
 XXYZ=              9.8724 YYXZ=              1.9209 ZZXY=             -5.3072
 N-N= 4.905831590453D+02 E-N=-2.007644102941D+03  KE= 4.400249884803D+02
 No NMR shielding tensors so no spin-rotation constants.
 Leave Link  601 at Tue Nov 22 19:13:46 2022, MaxMem= 16106127360 cpu:               3.7 elap:               0.1
 (Enter /opt/ap/G16/B01/g16/l9999.exe)
 1\1\GINC-N35\SP\RwB97XD\6-311++G(d,p)\C8H9N1O1\ROOT\22-Nov-2022\0\\#P 
 wB97XD/6-311++G(d,p) scf=maxcycle=512\\_conf053.gjf nmol_natom 1_19\\0
 ,1\C\C,1,1.39447505\C,1,1.39873503,2,119.56697224\C,2,1.39066123,1,119
 .42697207,3,2.53915756,0\H,2,0.96213008,1,119.8046163,3,-177.79870417,
 0\N,1,1.41693372,2,123.72220125,4,-177.74604849,0\C,3,1.38667133,1,120
 .18759987,2,-2.5020857,0\H,3,0.95673174,1,118.82085988,2,177.96737168,
 0\C,4,1.38268572,2,121.03929493,1,-0.41221113,0\H,4,0.9858595,2,118.57
 91267,1,178.77373233,0\C,6,1.35500692,1,127.62132737,2,-95.,0\H,6,0.89
 609466,1,115.10511997,2,85.,0\H,7,0.98847198,3,119.08117704,1,-179.645
 85354,0\H,9,0.98451201,4,120.53755637,2,177.22743544,0\C,11,1.50274561
 ,6,115.46861532,1,175.89235465,0\O,11,1.23496495,6,123.15099888,1,-3.4
 0672617,0\H,15,0.98719837,11,107.47091875,6,-116.36962839,0\H,15,0.999
 76021,11,109.69443261,6,128.85346087,0\H,15,0.97696155,11,114.37008871
 ,6,6.05302844,0\\Version=ES64L-G16RevB.01\State=1-A\HF=-440.1400663\RM
 SD=9.959e-09\Dipole=-0.2112669,1.5165049,0.0911823\Quadrupole=6.143119
 3,-8.9574346,2.8143153,-2.74422,2.1725957,-2.4947076\PG=C01 [X(C8H9N1O
 1)]\\@


 IT IS BY LOGIC THAT WE PROVE, BUT BY INTUITION THAT WE DISCOVER.
     -- J.H.POINCARE (1854-1912)
 Job cpu time:       0 days  0 hours 10 minutes  0.8 seconds.
 Elapsed time:       0 days  0 hours  0 minutes 18.9 seconds.
 File lengths (MBytes):  RWF=     46 Int=      0 D2E=      0 Chk=      6 Scr=      1
 Normal termination of Gaussian 16 at Tue Nov 22 19:13:46 2022.
