 Entering Gaussian System, Link 0=g16
 Input=_conf070.gjf
 Output=_conf070.log
 Initial command:
 /opt/ap/G16/B01/g16/l1.exe "/tmp2/scr/Gau-12089.inp" -scrdir="/tmp2/scr/"
 Entering Link 1 = /opt/ap/G16/B01/g16/l1.exe PID=     12090.
  
 Copyright (c) 1988-2017, Gaussian, Inc.  All Rights Reserved.
  
 This is part of the Gaussian(R) 16 program.  It is based on
 the Gaussian(R) 09 system (copyright 2009, Gaussian, Inc.),
 the Gaussian(R) 03 system (copyright 2003, Gaussian, Inc.),
 the Gaussian(R) 98 system (copyright 1998, Gaussian, Inc.),
 the Gaussian(R) 94 system (copyright 1995, Gaussian, Inc.),
 the Gaussian 92(TM) system (copyright 1992, Gaussian, Inc.),
 the Gaussian 90(TM) system (copyright 1990, Gaussian, Inc.),
 the Gaussian 88(TM) system (copyright 1988, Gaussian, Inc.),
 the Gaussian 86(TM) system (copyright 1986, Carnegie Mellon
 University), and the Gaussian 82(TM) system (copyright 1983,
 Carnegie Mellon University). Gaussian is a federally registered
 trademark of Gaussian, Inc.
  
 This software contains proprietary and confidential information,
 including trade secrets, belonging to Gaussian, Inc.
  
 This software is provided under written license and may be
 used, copied, transmitted, or stored only in accord with that
 written license.
  
 The following legend is applicable only to US Government
 contracts under FAR:
  
                    RESTRICTED RIGHTS LEGEND
  
 Use, reproduction and disclosure by the US Government is
 subject to restrictions as set forth in subparagraphs (a)
 and (c) of the Commercial Computer Software - Restricted
 Rights clause in FAR 52.227-19.
  
 Gaussian, Inc.
 340 Quinnipiac St., Bldg. 40, Wallingford CT 06492
  
  
 ---------------------------------------------------------------
 Warning -- This program may not be used in any manner that
 competes with the business of Gaussian, Inc. or will provide
 assistance to any competitor of Gaussian, Inc.  The licensee
 of this program is prohibited from giving any competitor of
 Gaussian, Inc. access to this program.  By using this program,
 the user acknowledges that Gaussian, Inc. is engaged in the
 business of creating and licensing software in the field of
 computational chemistry and represents and warrants to the
 licensee that it is not a competitor of Gaussian, Inc. and that
 it will not use this program in any manner prohibited above.
 ---------------------------------------------------------------
  

 Cite this work as:
 Gaussian 16, Revision B.01,
 M. J. Frisch, G. W. Trucks, H. B. Schlegel, G. E. Scuseria, 
 M. A. Robb, J. R. Cheeseman, G. Scalmani, V. Barone, 
 G. A. Petersson, H. Nakatsuji, X. Li, M. Caricato, A. V. Marenich, 
 J. Bloino, B. G. Janesko, R. Gomperts, B. Mennucci, H. P. Hratchian, 
 J. V. Ortiz, A. F. Izmaylov, J. L. Sonnenberg, D. Williams-Young, 
 F. Ding, F. Lipparini, F. Egidi, J. Goings, B. Peng, A. Petrone, 
 T. Henderson, D. Ranasinghe, V. G. Zakrzewski, J. Gao, N. Rega, 
 G. Zheng, W. Liang, M. Hada, M. Ehara, K. Toyota, R. Fukuda, 
 J. Hasegawa, M. Ishida, T. Nakajima, Y. Honda, O. Kitao, H. Nakai, 
 T. Vreven, K. Throssell, J. A. Montgomery, Jr., J. E. Peralta, 
 F. Ogliaro, M. J. Bearpark, J. J. Heyd, E. N. Brothers, K. N. Kudin, 
 V. N. Staroverov, T. A. Keith, R. Kobayashi, J. Normand, 
 K. Raghavachari, A. P. Rendell, J. C. Burant, S. S. Iyengar, 
 J. Tomasi, M. Cossi, J. M. Millam, M. Klene, C. Adamo, R. Cammi, 
 J. W. Ochterski, R. L. Martin, K. Morokuma, O. Farkas, 
 J. B. Foresman, and D. J. Fox, Gaussian, Inc., Wallingford CT, 2016.
 
 ******************************************
 Gaussian 16:  ES64L-G16RevB.01 20-Dec-2017
                22-Nov-2022 
 ******************************************
 %nprocshared=32
 Will use up to   32 processors via shared memory.
 %mem=120GB
 %chk=_conf070.chk
 ----------------------------------------
 #P wB97XD/6-311++G(d,p) scf=maxcycle=512
 ----------------------------------------
 1/38=1,172=1/1;
 2/12=2,17=6,18=5,40=1/2;
 3/5=4,6=6,7=1111,11=2,25=1,30=1,74=-58/1,2,3;
 4//1;
 5/5=2,7=512,38=5/2;
 6/7=2,8=2,9=2,10=2,28=1/1;
 99/5=1,9=1/99;
 Leave Link    1 at Tue Nov 22 19:15:00 2022, MaxMem= 16106127360 cpu:               2.0 elap:               0.1
 (Enter /opt/ap/G16/B01/g16/l101.exe)
 ----------------------------
 _conf070.gjf nmol_natom 1_19
 ----------------------------
 Symbolic Z-matrix:
 Charge =  0 Multiplicity = 1
 C
 C                    1     1.39448 
 C                    1     1.39874  2     119.56697 
 C                    2     1.39066  1     119.42697  3     2.53916  0
 H                    2     0.96213  1     119.80462  3    -177.7987  0
 N                    1     1.41693  2     123.7222  4    -177.74605  0
 C                    3     1.38667  1     120.1876  2    -2.50209  0
 H                    3     0.95673  1     118.82086  2     177.96737  0
 C                    4     1.38269  2     121.03929  1    -0.41221  0
 H                    4     0.98586  2     118.57913  1     178.77373  0
 C                    6     1.35501  1     127.62133  2    -10.      0
 H                    6     0.89609  1     115.10512  2     170.     0
 H                    7     0.98847  3     119.08118  1    -179.64585  0
 H                    9     0.98451  4     120.53756  2     177.22744  0
 C                    11    1.50275  6     115.46862  1     175.89235  0
 O                    11    1.23496  6     123.151  1    -3.40673  0
 H                    15    0.9872   11    107.47092  6    -116.36963  0
 H                    15    0.99976  11    109.69443  6     128.85346  0
 H                    15    0.97696  11    114.37009  6     6.05303  0
 
 ITRead=  0  0  0  0  0  0  0  0  0  0  0  0  0  0  0  0  0  0  0
 MicOpt= -1 -1 -1 -1 -1 -1 -1 -1 -1 -1 -1 -1 -1 -1 -1 -1 -1 -1 -1
 NAtoms=     19 NQM=       19 NQMF=       0 NMMI=      0 NMMIF=      0
                NMic=       0 NMicF=      0.
                    Isotopes and Nuclear Properties:
 (Nuclear quadrupole moments (NQMom) in fm**2, nuclear magnetic moments (NMagM)
  in nuclear magnetons)

  Atom         1           2           3           4           5           6           7           8           9          10
 IAtWgt=          12          12          12          12           1          14          12           1          12           1
 AtmWgt=  12.0000000  12.0000000  12.0000000  12.0000000   1.0078250  14.0030740  12.0000000   1.0078250  12.0000000   1.0078250
 NucSpn=           0           0           0           0           1           2           0           1           0           1
 AtZEff=  -0.0000000  -0.0000000  -0.0000000  -0.0000000  -0.0000000  -0.0000000  -0.0000000  -0.0000000  -0.0000000  -0.0000000
 NQMom=    0.0000000   0.0000000   0.0000000   0.0000000   0.0000000   2.0440000   0.0000000   0.0000000   0.0000000   0.0000000
 NMagM=    0.0000000   0.0000000   0.0000000   0.0000000   2.7928460   0.4037610   0.0000000   2.7928460   0.0000000   2.7928460
 AtZNuc=   6.0000000   6.0000000   6.0000000   6.0000000   1.0000000   7.0000000   6.0000000   1.0000000   6.0000000   1.0000000

  Atom        11          12          13          14          15          16          17          18          19
 IAtWgt=          12           1           1           1          12          16           1           1           1
 AtmWgt=  12.0000000   1.0078250   1.0078250   1.0078250  12.0000000  15.9949146   1.0078250   1.0078250   1.0078250
 NucSpn=           0           1           1           1           0           0           1           1           1
 AtZEff=  -0.0000000  -0.0000000  -0.0000000  -0.0000000  -0.0000000  -0.0000000  -0.0000000  -0.0000000  -0.0000000
 NQMom=    0.0000000   0.0000000   0.0000000   0.0000000   0.0000000   0.0000000   0.0000000   0.0000000   0.0000000
 NMagM=    0.0000000   2.7928460   2.7928460   2.7928460   0.0000000   0.0000000   2.7928460   2.7928460   2.7928460
 AtZNuc=   6.0000000   1.0000000   1.0000000   1.0000000   6.0000000   8.0000000   1.0000000   1.0000000   1.0000000
 Leave Link  101 at Tue Nov 22 19:15:00 2022, MaxMem= 16106127360 cpu:               5.6 elap:               0.2
 (Enter /opt/ap/G16/B01/g16/l202.exe)
                          Input orientation:                          
 ---------------------------------------------------------------------
 Center     Atomic      Atomic             Coordinates (Angstroms)
 Number     Number       Type             X           Y           Z
 ---------------------------------------------------------------------
      1          6           0        0.000000    0.000000    0.000000
      2          6           0        0.000000    0.000000    1.394475
      3          6           0        1.216591    0.000000   -0.690193
      4          6           0        1.210053    0.053661    2.077726
      5          1           0       -0.834249   -0.032067    1.872696
      6          7           0       -1.178505   -0.005866   -0.786634
      7          6           0        2.413939    0.052326    0.007287
      8          1           0        1.204393   -0.029731   -1.646384
      9          6           0        2.412261    0.098442    1.396177
     10          1           0        1.194755    0.071528    3.063305
     11          6           0       -2.452315   -0.198577   -0.366738
     12          1           0       -1.051789    0.135671   -1.662360
     13          1           0        3.263999    0.056828   -0.497149
     14          1           0        3.262484    0.177260    1.886251
     15          6           0       -3.510206   -0.053571   -1.424133
     16          8           0       -2.744935   -0.462838    0.803594
     17          1           0       -4.079689    0.711921   -1.170613
     18          1           0       -4.107282   -0.855411   -1.415565
     19          1           0       -3.161958    0.073978   -2.327963
 ---------------------------------------------------------------------
                    Distance matrix (angstroms):
                    1          2          3          4          5
     1  C    0.000000
     2  C    1.394475   0.000000
     3  C    1.398735   2.413697   0.000000
     4  C    2.405006   1.390661   2.768447   0.000000
     5  H    2.050363   0.962130   3.282586   2.056345   0.000000
     6  N    1.416934   2.479142   2.397044   3.730055   2.681648
     7  C    2.414517   2.784624   1.386671   2.395008   3.746678
     8  H    2.040105   3.270821   0.956732   3.725048   4.066939
     9  C    2.788908   2.414270   2.406711   1.382686   3.283889
    10  H    3.288829   2.053668   3.754243   0.985860   2.354812
    11  C    2.487525   3.025749   3.688486   4.410439   2.767839
    12  H    1.971829   3.235570   2.471653   4.371602   3.545713
    13  H    3.302132   3.772951   2.057273   3.293734   4.734944
    14  H    3.772687   3.304099   3.294718   2.065046   4.102100
    15  C    3.788479   4.502107   4.783738   5.878381   4.246209
    16  O    2.897353   2.845704   4.259027   4.187137   2.231427
    17  H    4.303607   4.871383   5.365465   6.242306   4.510890
    18  H    4.427790   5.049537   5.440728   6.426783   4.712038
    19  H    3.927195   4.884669   4.675409   6.206850   4.803645
                    6          7          8          9         10
     6  N    0.000000
     7  C    3.679585   0.000000
     8  H    2.533365   2.050454   0.000000
     9  C    4.203468   1.389657   3.276058   0.000000
    10  H    4.523316   3.290292   4.710788   2.064548   0.000000
    11  C    1.355007   4.887052   3.877824   5.182682   5.013909
    12  H    0.896095   3.847849   2.262294   4.621221   5.232876
    13  H    4.452366   0.988472   2.360129   2.076505   4.118108
    14  H    5.186544   2.065465   4.093666   0.984512   2.381625
    15  C    2.417750   6.095546   4.719895   6.561470   6.503031
    16  O    2.278455   5.245330   4.667673   5.221386   4.573074
    17  H    3.013226   6.632474   5.357045   7.007866   6.793816
    18  H    3.113683   6.736084   5.380420   7.163810   7.002221
    19  H    2.513196   6.045203   4.420444   6.703860   6.931574
                   11         12         13         14         15
    11  C    0.000000
    12  H    1.936964   0.000000
    13  H    5.723503   4.471014   0.000000
    14  H    6.154360   5.586352   2.386441   0.000000
    15  C    1.502746   2.477172   6.838227   7.541967   0.000000
    16  O    1.234965   3.050555   6.170030   6.137668   2.390796
    17  H    2.030657   3.121227   7.403543   7.971060   0.987198
    18  H    2.066491   3.221675   7.484080   8.141367   0.999760
    19  H    2.103397   2.213514   6.681698   7.683991   0.976962
                   16         17         18         19
    16  O    0.000000
    17  H    2.656900   0.000000
    18  H    2.633395   1.586598   0.000000
    19  H    3.204485   1.608931   1.609308   0.000000
 Stoichiometry    C8H9NO
 Framework group  C1[X(C8H9NO)]
 Deg. of freedom    51
 Full point group                 C1      NOp   1
 Largest Abelian subgroup         C1      NOp   1
 Largest concise Abelian subgroup C1      NOp   1
                         Standard orientation:                         
 ---------------------------------------------------------------------
 Center     Atomic      Atomic             Coordinates (Angstroms)
 Number     Number       Type             X           Y           Z
 ---------------------------------------------------------------------
      1          6           0       -0.296310   -0.295605    0.019758
      2          6           0       -0.735524    1.026357    0.083531
      3          6           0       -1.232292   -1.329440   -0.087858
      4          6           0       -2.100313    1.293204    0.092634
      5          1           0       -0.093808    1.741988    0.125582
      6          7           0        1.068983   -0.673314    0.051606
      7          6           0       -2.589458   -1.045057   -0.078641
      8          1           0       -0.918221   -2.230230   -0.160466
      9          6           0       -3.027398    0.269227    0.030958
     10          1           0       -2.397040    2.231178    0.156477
     11          6           0        2.153017    0.134280   -0.041693
     12          1           0        1.218309   -1.551956    0.144749
     13          1           0       -3.236666   -1.788734   -0.150362
     14          1           0       -3.991344    0.463609    0.078802
     15          6           0        3.482456   -0.547248    0.120652
     16          8           0        2.073705    1.351703   -0.233345
     17          1           0        3.908052   -0.177514    0.931038
     18          1           0        4.081886   -0.302307   -0.641062
     19          1           0        3.431242   -1.520761    0.184713
 ---------------------------------------------------------------------
 Rotational constants (GHZ):           3.8163232           0.7934766           0.6618872
 Leave Link  202 at Tue Nov 22 19:15:00 2022, MaxMem= 16106127360 cpu:               0.6 elap:               0.0
 (Enter /opt/ap/G16/B01/g16/l301.exe)
 Standard basis: 6-311++G(d,p) (5D, 7F)
 Ernie: Thresh=  0.10000D-02 Tol=  0.10000D-05 Strict=F.
 There are   293 symmetry adapted cartesian basis functions of A   symmetry.
 There are   283 symmetry adapted basis functions of A   symmetry.
   283 basis functions,   441 primitive gaussians,   293 cartesian basis functions
    36 alpha electrons       36 beta electrons
       nuclear repulsion energy       492.0561583519 Hartrees.
 IExCor= 4639 DFT=T Ex+Corr=wB97XD ExCW=0 ScaHFX=  1.000000
 ScaDFX=  1.000000  1.000000  1.000000  1.000000 ScalE2=  1.000000  1.000000
 IRadAn=      5 IRanWt=     -1 IRanGd=            0 ICorTp=0 IEmpDi=121
 HFx  wShort=  0.000000 wLong=  0.200000 cFull=  0.222036 cShort=  0.000000 cLong=  0.777964
 DFx  wShort=  0.000000 wLong=  0.200000 cFull=  0.000000 cShort=  0.000000 cLong=  1.000000
 NAtoms=   19 NActive=   19 NUniq=   19 SFac= 1.00D+00 NAtFMM=   60 NAOKFM=F Big=F
 Integral buffers will be    131072 words long.
 Raffenetti 2 integral format.
 Two-electron integral symmetry is turned on.
 R6Disp:  Grimme-D2 Dispersion energy=       -0.0089967037 Hartrees.
 Nuclear repulsion after empirical dispersion term =      492.0471616482 Hartrees.
 Leave Link  301 at Tue Nov 22 19:15:00 2022, MaxMem= 16106127360 cpu:               2.6 elap:               0.1
 (Enter /opt/ap/G16/B01/g16/l302.exe)
 NPDir=0 NMtPBC=     1 NCelOv=     1 NCel=       1 NClECP=     1 NCelD=      1
         NCelK=      1 NCelE2=     1 NClLst=     1 CellRange=     0.0.
 One-electron integrals computed using PRISM.
 One-electron integral symmetry used in STVInt
 NBasis=   283 RedAO= T EigKep=  2.48D-06  NBF=   283
 NBsUse=   282 1.00D-06 EigRej=  8.29D-07 NBFU=   282
 Precomputing XC quadrature grid using
 IXCGrd= 4 IRadAn=           5 IRanWt=          -1 IRanGd=           0 AccXCQ= 0.00D+00.
 Generated NRdTot=       0 NPtTot=           0 NUsed=           0 NTot=          32
 NSgBfM=   293   293   293   293   293 MxSgAt=    19 MxSgA2=    19.
 Leave Link  302 at Tue Nov 22 19:15:00 2022, MaxMem= 16106127360 cpu:               6.3 elap:               0.2
 (Enter /opt/ap/G16/B01/g16/l303.exe)
 DipDrv:  MaxL=1.
 Leave Link  303 at Tue Nov 22 19:15:00 2022, MaxMem= 16106127360 cpu:               1.4 elap:               0.1
 (Enter /opt/ap/G16/B01/g16/l401.exe)
 ExpMin= 3.60D-02 ExpMax= 8.59D+03 ExpMxC= 1.30D+03 IAcc=3 IRadAn=         5 AccDes= 0.00D+00
 Harris functional with IExCor= 4639 and IRadAn=       5 diagonalized for initial guess.
 HarFok:  IExCor= 4639 AccDes= 0.00D+00 IRadAn=         5 IDoV= 1 UseB2=F ITyADJ=14
 ICtDFT=  3500011 ScaDFX=  1.000000  1.000000  1.000000  1.000000
 FoFCou: FMM=F IPFlag=           0 FMFlag=      100000 FMFlg1=           0
         NFxFlg=           0 DoJE=T BraDBF=F KetDBF=T FulRan=T
         wScrn=  0.000000 ICntrl=       500 IOpCl=  0 I1Cent=   200000004 NGrid=           0
         NMat0=    1 NMatS0=      1 NMatT0=    0 NMatD0=    1 NMtDS0=    0 NMtDT0=    0
 Petite list used in FoFCou.
 Harris En= -420.990592566150    
 JPrj=0 DoOrth=F DoCkMO=F.
 Leave Link  401 at Tue Nov 22 19:15:01 2022, MaxMem= 16106127360 cpu:              15.4 elap:               0.5
 (Enter /opt/ap/G16/B01/g16/l502.exe)
 Integral symmetry usage will be decided dynamically.
 Closed shell SCF:
 Using DIIS extrapolation, IDIIS=  1040.
 NGot= 16106127360 LenX= 16105943385 LenY= 16105857095
 Requested convergence on RMS density matrix=1.00D-08 within 512 cycles.
 Requested convergence on MAX density matrix=1.00D-06.
 Requested convergence on             energy=1.00D-06.
 No special actions if energy rises.
 Fock matrices will be formed incrementally for  20 cycles.

 Cycle   1  Pass 1  IDiag  1:
 FoFJK:  IHMeth= 1 ICntrl=       0 DoSepK=T KAlg= 0 I1Cent=           0 FoldK=F
 IRaf=         1 NMat=       1 IRICut=       1 DoRegI=T DoRafI=F ISym2E= 0 IDoP0=0 IntGTp=1.
 FoFCou: FMM=F IPFlag=           0 FMFlag=      100000 FMFlg1=           0
         NFxFlg=           0 DoJE=T BraDBF=F KetDBF=F FulRan=T
         wScrn=  0.000000 ICntrl=       500 IOpCl=  0 I1Cent=           0 NGrid=           0
         NMat0=    1 NMatS0=      1 NMatT0=    0 NMatD0=    1 NMtDS0=    0 NMtDT0=    0
 Symmetry not used in FoFCou.
 E= -439.987331813883    
 DIIS: error= 5.69D-02 at cycle   1 NSaved=   1.
 NSaved= 1 IEnMin= 1 EnMin= -439.987331813883     IErMin= 1 ErrMin= 5.69D-02
 ErrMax= 5.69D-02  0.00D+00 EMaxC= 1.00D-01 BMatC= 9.48D-01 BMatP= 9.48D-01
 IDIUse=3 WtCom= 4.31D-01 WtEn= 5.69D-01
 Coeff-Com:  0.100D+01
 Coeff-En:   0.100D+01
 Coeff:      0.100D+01
 Gap=     0.440 Goal=   None    Shift=    0.000
 GapD=    0.440 DampG=2.000 DampE=0.500 DampFc=1.0000 IDamp=-1.
 RMSDP=1.32D-02 MaxDP=1.12D+00              OVMax= 1.64D-01

 Cycle   2  Pass 1  IDiag  1:
 RMSU=  7.91D-03    CP:  6.92D-01
 E= -440.066981852521     Delta-E=       -0.079650038638 Rises=F Damp=F
 DIIS: error= 1.20D-02 at cycle   2 NSaved=   2.
 NSaved= 2 IEnMin= 2 EnMin= -440.066981852521     IErMin= 2 ErrMin= 1.20D-02
 ErrMax= 1.20D-02  0.00D+00 EMaxC= 1.00D-01 BMatC= 9.07D-02 BMatP= 9.48D-01
 IDIUse=3 WtCom= 8.80D-01 WtEn= 1.20D-01
 Coeff-Com:  0.165D+00 0.835D+00
 Coeff-En:   0.251D+00 0.749D+00
 Coeff:      0.176D+00 0.824D+00
 Gap=     0.458 Goal=   None    Shift=    0.000
 RMSDP=6.47D-03 MaxDP=3.36D-01 DE=-7.97D-02 OVMax= 1.30D-01

 Cycle   3  Pass 1  IDiag  1:
 RMSU=  4.88D-03    CP:  6.46D-01  5.02D-01
 E= -440.107932545490     Delta-E=       -0.040950692968 Rises=F Damp=F
 DIIS: error= 1.02D-02 at cycle   3 NSaved=   3.
 NSaved= 3 IEnMin= 3 EnMin= -440.107932545490     IErMin= 3 ErrMin= 1.02D-02
 ErrMax= 1.02D-02  0.00D+00 EMaxC= 1.00D-01 BMatC= 4.25D-02 BMatP= 9.07D-02
 IDIUse=3 WtCom= 8.98D-01 WtEn= 1.02D-01
 Coeff-Com:  0.260D-01 0.410D+00 0.564D+00
 Coeff-En:   0.000D+00 0.323D+00 0.677D+00
 Coeff:      0.233D-01 0.401D+00 0.575D+00
 Gap=     0.352 Goal=   None    Shift=    0.000
 RMSDP=2.76D-03 MaxDP=1.07D-01 DE=-4.10D-02 OVMax= 7.26D-02

 Cycle   4  Pass 1  IDiag  1:
 RMSU=  1.06D-03    CP:  6.37D-01  7.04D-01  5.98D-01
 E= -440.145829454003     Delta-E=       -0.037896908513 Rises=F Damp=F
 DIIS: error= 2.50D-03 at cycle   4 NSaved=   4.
 NSaved= 4 IEnMin= 4 EnMin= -440.145829454003     IErMin= 4 ErrMin= 2.50D-03
 ErrMax= 2.50D-03  0.00D+00 EMaxC= 1.00D-01 BMatC= 1.53D-03 BMatP= 4.25D-02
 IDIUse=3 WtCom= 9.75D-01 WtEn= 2.50D-02
 Coeff-Com:  0.924D-02 0.184D+00 0.293D+00 0.513D+00
 Coeff-En:   0.000D+00 0.000D+00 0.000D+00 0.100D+01
 Coeff:      0.901D-02 0.180D+00 0.286D+00 0.525D+00
 Gap=     0.338 Goal=   None    Shift=    0.000
 RMSDP=3.37D-04 MaxDP=1.10D-02 DE=-3.79D-02 OVMax= 1.04D-02

 Cycle   5  Pass 1  IDiag  1:
 RMSU=  2.51D-04    CP:  6.35D-01  6.87D-01  6.26D-01  9.09D-01
 E= -440.147029094038     Delta-E=       -0.001199640036 Rises=F Damp=F
 DIIS: error= 4.07D-04 at cycle   5 NSaved=   5.
 NSaved= 5 IEnMin= 5 EnMin= -440.147029094038     IErMin= 5 ErrMin= 4.07D-04
 ErrMax= 4.07D-04  0.00D+00 EMaxC= 1.00D-01 BMatC= 7.01D-05 BMatP= 1.53D-03
 IDIUse=3 WtCom= 9.96D-01 WtEn= 4.07D-03
 Coeff-Com:  0.707D-03 0.170D-01 0.393D-01 0.185D+00 0.758D+00
 Coeff-En:   0.000D+00 0.000D+00 0.000D+00 0.000D+00 0.100D+01
 Coeff:      0.704D-03 0.169D-01 0.391D-01 0.184D+00 0.759D+00
 Gap=     0.338 Goal=   None    Shift=    0.000
 RMSDP=1.17D-04 MaxDP=3.62D-03 DE=-1.20D-03 OVMax= 2.86D-03

 Cycle   6  Pass 1  IDiag  1:
 RMSU=  9.57D-05    CP:  6.35D-01  6.90D-01  6.39D-01  9.13D-01  9.07D-01
 E= -440.147077617606     Delta-E=       -0.000048523567 Rises=F Damp=F
 DIIS: error= 2.35D-04 at cycle   6 NSaved=   6.
 NSaved= 6 IEnMin= 6 EnMin= -440.147077617606     IErMin= 6 ErrMin= 2.35D-04
 ErrMax= 2.35D-04  0.00D+00 EMaxC= 1.00D-01 BMatC= 2.03D-05 BMatP= 7.01D-05
 IDIUse=3 WtCom= 9.98D-01 WtEn= 2.35D-03
 Coeff-Com: -0.110D-02-0.191D-01-0.220D-01 0.201D-01 0.412D+00 0.610D+00
 Coeff-En:   0.000D+00 0.000D+00 0.000D+00 0.000D+00 0.190D-01 0.981D+00
 Coeff:     -0.110D-02-0.190D-01-0.219D-01 0.200D-01 0.411D+00 0.611D+00
 Gap=     0.338 Goal=   None    Shift=    0.000
 RMSDP=4.30D-05 MaxDP=9.24D-04 DE=-4.85D-05 OVMax= 1.44D-03

 Cycle   7  Pass 1  IDiag  1:
 RMSU=  3.28D-05    CP:  6.35D-01  6.88D-01  6.40D-01  9.25D-01  9.66D-01
                    CP:  1.13D+00
 E= -440.147094800189     Delta-E=       -0.000017182583 Rises=F Damp=F
 DIIS: error= 8.53D-05 at cycle   7 NSaved=   7.
 NSaved= 7 IEnMin= 7 EnMin= -440.147094800189     IErMin= 7 ErrMin= 8.53D-05
 ErrMax= 8.53D-05  0.00D+00 EMaxC= 1.00D-01 BMatC= 5.13D-07 BMatP= 2.03D-05
 IDIUse=1 WtCom= 1.00D+00 WtEn= 0.00D+00
 Coeff-Com: -0.282D-03-0.529D-02-0.650D-02-0.112D-01 0.175D-01 0.104D+00
 Coeff-Com:  0.901D+00
 Coeff:     -0.282D-03-0.529D-02-0.650D-02-0.112D-01 0.175D-01 0.104D+00
 Coeff:      0.901D+00
 Gap=     0.338 Goal=   None    Shift=    0.000
 RMSDP=1.68D-05 MaxDP=4.80D-04 DE=-1.72D-05 OVMax= 5.43D-04

 Cycle   8  Pass 1  IDiag  1:
 RMSU=  9.90D-06    CP:  6.35D-01  6.88D-01  6.41D-01  9.25D-01  9.94D-01
                    CP:  1.22D+00  1.12D+00
 E= -440.147095918477     Delta-E=       -0.000001118288 Rises=F Damp=F
 DIIS: error= 2.00D-05 at cycle   8 NSaved=   8.
 NSaved= 8 IEnMin= 8 EnMin= -440.147095918477     IErMin= 8 ErrMin= 2.00D-05
 ErrMax= 2.00D-05  0.00D+00 EMaxC= 1.00D-01 BMatC= 1.06D-07 BMatP= 5.13D-07
 IDIUse=1 WtCom= 1.00D+00 WtEn= 0.00D+00
 Coeff-Com:  0.591D-04 0.722D-03 0.887D-03-0.762D-02-0.582D-01-0.589D-01
 Coeff-Com:  0.302D+00 0.821D+00
 Coeff:      0.591D-04 0.722D-03 0.887D-03-0.762D-02-0.582D-01-0.589D-01
 Coeff:      0.302D+00 0.821D+00
 Gap=     0.338 Goal=   None    Shift=    0.000
 RMSDP=7.46D-06 MaxDP=2.78D-04 DE=-1.12D-06 OVMax= 3.44D-04

 Cycle   9  Pass 1  IDiag  1:
 RMSU=  3.43D-06    CP:  6.35D-01  6.87D-01  6.41D-01  9.24D-01  1.00D+00
                    CP:  1.27D+00  1.22D+00  1.21D+00
 E= -440.147096125378     Delta-E=       -0.000000206901 Rises=F Damp=F
 DIIS: error= 1.39D-05 at cycle   9 NSaved=   9.
 NSaved= 9 IEnMin= 9 EnMin= -440.147096125378     IErMin= 9 ErrMin= 1.39D-05
 ErrMax= 1.39D-05  0.00D+00 EMaxC= 1.00D-01 BMatC= 1.02D-08 BMatP= 1.06D-07
 IDIUse=1 WtCom= 1.00D+00 WtEn= 0.00D+00
 Coeff-Com:  0.502D-04 0.841D-03 0.114D-02-0.749D-03-0.190D-01-0.280D-01
 Coeff-Com: -0.508D-02 0.240D+00 0.811D+00
 Coeff:      0.502D-04 0.841D-03 0.114D-02-0.749D-03-0.190D-01-0.280D-01
 Coeff:     -0.508D-02 0.240D+00 0.811D+00
 Gap=     0.338 Goal=   None    Shift=    0.000
 RMSDP=2.51D-06 MaxDP=1.44D-04 DE=-2.07D-07 OVMax= 8.98D-05

 Cycle  10  Pass 1  IDiag  1:
 RMSU=  1.06D-06    CP:  6.35D-01  6.87D-01  6.41D-01  9.23D-01  9.99D-01
                    CP:  1.27D+00  1.23D+00  1.29D+00  1.24D+00
 E= -440.147096147615     Delta-E=       -0.000000022237 Rises=F Damp=F
 DIIS: error= 3.06D-06 at cycle  10 NSaved=  10.
 NSaved=10 IEnMin=10 EnMin= -440.147096147615     IErMin=10 ErrMin= 3.06D-06
 ErrMax= 3.06D-06  0.00D+00 EMaxC= 1.00D-01 BMatC= 1.37D-09 BMatP= 1.02D-08
 IDIUse=1 WtCom= 1.00D+00 WtEn= 0.00D+00
 Coeff-Com:  0.374D-05 0.117D-03 0.194D-03 0.927D-03 0.342D-02 0.139D-02
 Coeff-Com: -0.407D-01-0.688D-01 0.190D+00 0.914D+00
 Coeff:      0.374D-05 0.117D-03 0.194D-03 0.927D-03 0.342D-02 0.139D-02
 Coeff:     -0.407D-01-0.688D-01 0.190D+00 0.914D+00
 Gap=     0.338 Goal=   None    Shift=    0.000
 RMSDP=8.81D-07 MaxDP=5.36D-05 DE=-2.22D-08 OVMax= 4.87D-05

 Cycle  11  Pass 1  IDiag  1:
 RMSU=  4.32D-07    CP:  6.35D-01  6.87D-01  6.41D-01  9.23D-01  9.99D-01
                    CP:  1.27D+00  1.24D+00  1.33D+00  1.36D+00  1.14D+00
 E= -440.147096151573     Delta-E=       -0.000000003958 Rises=F Damp=F
 DIIS: error= 1.28D-06 at cycle  11 NSaved=  11.
 NSaved=11 IEnMin=11 EnMin= -440.147096151573     IErMin=11 ErrMin= 1.28D-06
 ErrMax= 1.28D-06  0.00D+00 EMaxC= 1.00D-01 BMatC= 1.95D-10 BMatP= 1.37D-09
 IDIUse=1 WtCom= 1.00D+00 WtEn= 0.00D+00
 Coeff-Com: -0.530D-05-0.802D-04-0.926D-04 0.419D-03 0.364D-02 0.423D-02
 Coeff-Com: -0.100D-01-0.546D-01-0.652D-01 0.234D+00 0.888D+00
 Coeff:     -0.530D-05-0.802D-04-0.926D-04 0.419D-03 0.364D-02 0.423D-02
 Coeff:     -0.100D-01-0.546D-01-0.652D-01 0.234D+00 0.888D+00
 Gap=     0.338 Goal=   None    Shift=    0.000
 RMSDP=2.87D-07 MaxDP=1.75D-05 DE=-3.96D-09 OVMax= 1.64D-05

 Cycle  12  Pass 1  IDiag  1:
 RMSU=  1.67D-07    CP:  6.35D-01  6.87D-01  6.41D-01  9.23D-01  9.99D-01
                    CP:  1.27D+00  1.24D+00  1.33D+00  1.40D+00  1.24D+00
                    CP:  1.28D+00
 E= -440.147096152137     Delta-E=       -0.000000000564 Rises=F Damp=F
 DIIS: error= 4.15D-07 at cycle  12 NSaved=  12.
 NSaved=12 IEnMin=12 EnMin= -440.147096152137     IErMin=12 ErrMin= 4.15D-07
 ErrMax= 4.15D-07  0.00D+00 EMaxC= 1.00D-01 BMatC= 1.73D-11 BMatP= 1.95D-10
 IDIUse=1 WtCom= 1.00D+00 WtEn= 0.00D+00
 Coeff-Com: -0.905D-06-0.240D-04-0.366D-04-0.646D-04-0.295D-03 0.950D-04
 Coeff-Com:  0.474D-02 0.569D-02-0.263D-01-0.942D-01 0.640D-01 0.105D+01
 Coeff:     -0.905D-06-0.240D-04-0.366D-04-0.646D-04-0.295D-03 0.950D-04
 Coeff:      0.474D-02 0.569D-02-0.263D-01-0.942D-01 0.640D-01 0.105D+01
 Gap=     0.338 Goal=   None    Shift=    0.000
 RMSDP=1.21D-07 MaxDP=2.46D-06 DE=-5.64D-10 OVMax= 5.82D-06

 Cycle  13  Pass 1  IDiag  1:
 RMSU=  5.00D-08    CP:  6.35D-01  6.87D-01  6.41D-01  9.23D-01  9.98D-01
                    CP:  1.27D+00  1.24D+00  1.33D+00  1.39D+00  1.25D+00
                    CP:  1.45D+00  1.23D+00
 E= -440.147096152205     Delta-E=       -0.000000000068 Rises=F Damp=F
 DIIS: error= 1.35D-07 at cycle  13 NSaved=  13.
 NSaved=13 IEnMin=13 EnMin= -440.147096152205     IErMin=13 ErrMin= 1.35D-07
 ErrMax= 1.35D-07  0.00D+00 EMaxC= 1.00D-01 BMatC= 2.62D-12 BMatP= 1.73D-11
 IDIUse=1 WtCom= 1.00D+00 WtEn= 0.00D+00
 Coeff-Com:  0.841D-07-0.881D-06-0.400D-05-0.506D-04-0.410D-03-0.318D-03
 Coeff-Com:  0.227D-02 0.652D-02-0.260D-02-0.504D-01-0.631D-01 0.312D+00
 Coeff-Com:  0.796D+00
 Coeff:      0.841D-07-0.881D-06-0.400D-05-0.506D-04-0.410D-03-0.318D-03
 Coeff:      0.227D-02 0.652D-02-0.260D-02-0.504D-01-0.631D-01 0.312D+00
 Coeff:      0.796D+00
 Gap=     0.338 Goal=   None    Shift=    0.000
 RMSDP=4.17D-08 MaxDP=2.32D-06 DE=-6.78D-11 OVMax= 1.77D-06

 Cycle  14  Pass 1  IDiag  1:
 RMSU=  2.57D-08    CP:  6.35D-01  6.87D-01  6.41D-01  9.23D-01  9.98D-01
                    CP:  1.27D+00  1.24D+00  1.32D+00  1.39D+00  1.25D+00
                    CP:  1.48D+00  1.30D+00  1.35D+00
 E= -440.147096152212     Delta-E=       -0.000000000007 Rises=F Damp=F
 DIIS: error= 6.43D-08 at cycle  14 NSaved=  14.
 NSaved=14 IEnMin=14 EnMin= -440.147096152212     IErMin=14 ErrMin= 6.43D-08
 ErrMax= 6.43D-08  0.00D+00 EMaxC= 1.00D-01 BMatC= 3.45D-13 BMatP= 2.62D-12
 IDIUse=1 WtCom= 1.00D+00 WtEn= 0.00D+00
 Coeff-Com:  0.110D-06 0.263D-05 0.328D-05-0.181D-05-0.371D-04-0.690D-04
 Coeff-Com: -0.243D-03 0.470D-03 0.296D-02 0.339D-02-0.221D-01-0.921D-01
 Coeff-Com:  0.195D+00 0.912D+00
 Coeff:      0.110D-06 0.263D-05 0.328D-05-0.181D-05-0.371D-04-0.690D-04
 Coeff:     -0.243D-03 0.470D-03 0.296D-02 0.339D-02-0.221D-01-0.921D-01
 Coeff:      0.195D+00 0.912D+00
 Gap=     0.338 Goal=   None    Shift=    0.000
 RMSDP=2.67D-08 MaxDP=1.75D-06 DE=-6.71D-12 OVMax= 7.38D-07

 Cycle  15  Pass 1  IDiag  1:
 RMSU=  7.54D-09    CP:  6.35D-01  6.87D-01  6.41D-01  9.23D-01  9.98D-01
                    CP:  1.27D+00  1.24D+00  1.32D+00  1.39D+00  1.24D+00
                    CP:  1.47D+00  1.34D+00  1.55D+00  1.37D+00
 E= -440.147096152215     Delta-E=       -0.000000000003 Rises=F Damp=F
 DIIS: error= 2.15D-08 at cycle  15 NSaved=  15.
 NSaved=15 IEnMin=15 EnMin= -440.147096152215     IErMin=15 ErrMin= 2.15D-08
 ErrMax= 2.15D-08  0.00D+00 EMaxC= 1.00D-01 BMatC= 3.64D-14 BMatP= 3.45D-13
 IDIUse=1 WtCom= 1.00D+00 WtEn= 0.00D+00
 Coeff-Com: -0.900D-08 0.110D-06 0.401D-06 0.663D-05 0.573D-04 0.435D-04
 Coeff-Com: -0.339D-03-0.786D-03 0.644D-03 0.703D-02 0.741D-02-0.512D-01
 Coeff-Com: -0.738D-01 0.603D-01 0.105D+01
 Coeff:     -0.900D-08 0.110D-06 0.401D-06 0.663D-05 0.573D-04 0.435D-04
 Coeff:     -0.339D-03-0.786D-03 0.644D-03 0.703D-02 0.741D-02-0.512D-01
 Coeff:     -0.738D-01 0.603D-01 0.105D+01
 Gap=     0.338 Goal=   None    Shift=    0.000
 RMSDP=9.29D-09 MaxDP=4.11D-07 DE=-3.07D-12 OVMax= 3.76D-07

 SCF Done:  E(RwB97XD) =  -440.147096152     A.U. after   15 cycles
            NFock= 15  Conv=0.93D-08     -V/T= 2.0003
 KE= 4.400206514534D+02 PE=-2.010463363919D+03 EE= 6.382484546654D+02
 Leave Link  502 at Tue Nov 22 19:15:19 2022, MaxMem= 16106127360 cpu:             586.0 elap:              18.4
 (Enter /opt/ap/G16/B01/g16/l601.exe)
 Copying SCF densities to generalized density rwf, IOpCl= 0 IROHF=0.

 **********************************************************************

            Population analysis using the SCF Density.

 **********************************************************************

 Orbital symmetries:
       Occupied  (A) (A) (A) (A) (A) (A) (A) (A) (A) (A) (A) (A)
                 (A) (A) (A) (A) (A) (A) (A) (A) (A) (A) (A) (A)
                 (A) (A) (A) (A) (A) (A) (A) (A) (A) (A) (A) (A)
       Virtual   (A) (A) (A) (A) (A) (A) (A) (A) (A) (A) (A) (A)
                 (A) (A) (A) (A) (A) (A) (A) (A) (A) (A) (A) (A)
                 (A) (A) (A) (A) (A) (A) (A) (A) (A) (A) (A) (A)
                 (A) (A) (A) (A) (A) (A) (A) (A) (A) (A) (A) (A)
                 (A) (A) (A) (A) (A) (A) (A) (A) (A) (A) (A) (A)
                 (A) (A) (A) (A) (A) (A) (A) (A) (A) (A) (A) (A)
                 (A) (A) (A) (A) (A) (A) (A) (A) (A) (A) (A) (A)
                 (A) (A) (A) (A) (A) (A) (A) (A) (A) (A) (A) (A)
                 (A) (A) (A) (A) (A) (A) (A) (A) (A) (A) (A) (A)
                 (A) (A) (A) (A) (A) (A) (A) (A) (A) (A) (A) (A)
                 (A) (A) (A) (A) (A) (A) (A) (A) (A) (A) (A) (A)
                 (A) (A) (A) (A) (A) (A) (A) (A) (A) (A) (A) (A)
                 (A) (A) (A) (A) (A) (A) (A) (A) (A) (A) (A) (A)
                 (A) (A) (A) (A) (A) (A) (A) (A) (A) (A) (A) (A)
                 (A) (A) (A) (A) (A) (A) (A) (A) (A) (A) (A) (A)
                 (A) (A) (A) (A) (A) (A) (A) (A) (A) (A) (A) (A)
                 (A) (A) (A) (A) (A) (A) (A) (A) (A) (A) (A) (A)
                 (A) (A) (A) (A) (A) (A) (A) (A) (A) (A) (A) (A)
                 (A) (A) (A) (A) (A) (A) (A) (A) (A) (A) (A) (A)
                 (A) (A) (A) (A) (A) (A) (A) (A) (A) (A) (A) (A)
                 (A) (A) (A) (A) (A) (A)
 The electronic state is 1-A.
 Alpha  occ. eigenvalues --  -19.21504 -14.47178 -10.39932 -10.33936 -10.28248
 Alpha  occ. eigenvalues --  -10.28026 -10.27774 -10.27369 -10.27064 -10.26354
 Alpha  occ. eigenvalues --   -1.14726  -1.06364  -0.96332  -0.88620  -0.86451
 Alpha  occ. eigenvalues --   -0.84657  -0.74873  -0.73130  -0.69169  -0.65782
 Alpha  occ. eigenvalues --   -0.61214  -0.59066  -0.56339  -0.55118  -0.53858
 Alpha  occ. eigenvalues --   -0.52791  -0.51540  -0.50109  -0.49739  -0.45843
 Alpha  occ. eigenvalues --   -0.45176  -0.44469  -0.39406  -0.34457  -0.33507
 Alpha  occ. eigenvalues --   -0.30565
 Alpha virt. eigenvalues --    0.03264   0.04379   0.04556   0.05129   0.05300
 Alpha virt. eigenvalues --    0.06303   0.07024   0.07702   0.08700   0.09290
 Alpha virt. eigenvalues --    0.10907   0.11198   0.11577   0.11975   0.13380
 Alpha virt. eigenvalues --    0.14491   0.14842   0.15559   0.15688   0.16065
 Alpha virt. eigenvalues --    0.16857   0.17496   0.17766   0.18095   0.18751
 Alpha virt. eigenvalues --    0.19083   0.19712   0.19819   0.20447   0.21045
 Alpha virt. eigenvalues --    0.21400   0.22203   0.22412   0.23243   0.23773
 Alpha virt. eigenvalues --    0.24640   0.25328   0.25582   0.26166   0.26393
 Alpha virt. eigenvalues --    0.27259   0.27813   0.28005   0.29511   0.30786
 Alpha virt. eigenvalues --    0.30914   0.31514   0.32458   0.33834   0.33981
 Alpha virt. eigenvalues --    0.34587   0.35318   0.36034   0.37496   0.37996
 Alpha virt. eigenvalues --    0.38361   0.38530   0.39219   0.39430   0.41079
 Alpha virt. eigenvalues --    0.42505   0.43673   0.44432   0.45285   0.45704
 Alpha virt. eigenvalues --    0.47141   0.48849   0.52143   0.53011   0.54990
 Alpha virt. eigenvalues --    0.58501   0.59061   0.60277   0.62323   0.63638
 Alpha virt. eigenvalues --    0.64497   0.64907   0.65518   0.66540   0.67258
 Alpha virt. eigenvalues --    0.68153   0.68562   0.71003   0.71543   0.72847
 Alpha virt. eigenvalues --    0.75138   0.75790   0.76812   0.77709   0.80013
 Alpha virt. eigenvalues --    0.81491   0.82335   0.82821   0.84460   0.85044
 Alpha virt. eigenvalues --    0.86984   0.89903   0.91373   0.92705   0.93585
 Alpha virt. eigenvalues --    0.94406   0.95355   0.96367   0.97277   0.98083
 Alpha virt. eigenvalues --    0.99062   1.01317   1.02627   1.04032   1.06477
 Alpha virt. eigenvalues --    1.08402   1.09918   1.10653   1.12490   1.13766
 Alpha virt. eigenvalues --    1.17001   1.17428   1.19057   1.22574   1.23121
 Alpha virt. eigenvalues --    1.24081   1.29654   1.33490   1.34508   1.36693
 Alpha virt. eigenvalues --    1.38451   1.44872   1.46893   1.52957   1.55369
 Alpha virt. eigenvalues --    1.58037   1.60745   1.61933   1.63794   1.65338
 Alpha virt. eigenvalues --    1.66364   1.66962   1.67900   1.68533   1.69021
 Alpha virt. eigenvalues --    1.69300   1.72265   1.75714   1.76507   1.79321
 Alpha virt. eigenvalues --    1.79726   1.86072   1.88221   1.88969   1.91514
 Alpha virt. eigenvalues --    1.93391   1.94442   1.95673   1.97346   1.99860
 Alpha virt. eigenvalues --    2.00839   2.01917   2.04746   2.06283   2.07984
 Alpha virt. eigenvalues --    2.09325   2.11507   2.12454   2.13667   2.15928
 Alpha virt. eigenvalues --    2.22030   2.25498   2.29119   2.34471   2.35076
 Alpha virt. eigenvalues --    2.40107   2.41590   2.45099   2.52202   2.52471
 Alpha virt. eigenvalues --    2.53464   2.55961   2.59818   2.61001   2.63070
 Alpha virt. eigenvalues --    2.64388   2.68546   2.69595   2.73537   2.77001
 Alpha virt. eigenvalues --    2.78305   2.81139   2.82134   2.83131   2.85227
 Alpha virt. eigenvalues --    2.86753   2.90848   2.91183   2.92542   2.94253
 Alpha virt. eigenvalues --    2.95018   2.96762   2.97342   2.98816   3.01522
 Alpha virt. eigenvalues --    3.03165   3.03433   3.05525   3.06372   3.15007
 Alpha virt. eigenvalues --    3.19612   3.22446   3.24492   3.27568   3.33593
 Alpha virt. eigenvalues --    3.43356   3.44634   3.46248   3.49432   3.54714
 Alpha virt. eigenvalues --    3.62914   3.68231   3.72188   3.78452   3.91979
 Alpha virt. eigenvalues --    3.99825   4.03565   4.04307   4.12247   4.18339
 Alpha virt. eigenvalues --    4.30985   4.34717   4.38602   4.41484   4.45966
 Alpha virt. eigenvalues --    4.96410   5.18452   5.19126   5.24438   5.39233
 Alpha virt. eigenvalues --    5.91982  23.88739  23.99379  24.14842  24.22959
 Alpha virt. eigenvalues --   24.30668  24.33515  24.38219  24.43112  35.88056
 Alpha virt. eigenvalues --   50.16255
          Condensed to atoms (all electrons):
               1          2          3          4          5          6
     1  C    8.155003  -0.360540   0.082750  -0.981242  -0.053323  -0.139051
     2  C   -0.360540   8.508984  -2.688298  -0.484452   0.555450   0.123015
     3  C    0.082750  -2.688298   8.532212   0.813365  -0.080232  -0.171682
     4  C   -0.981242  -0.484452   0.813365   6.506656  -0.097114   0.025449
     5  H   -0.053323   0.555450  -0.080232  -0.097114   0.443602  -0.012065
     6  N   -0.139051   0.123015  -0.171682   0.025449  -0.012065   7.290755
     7  C   -0.137845   0.143266   0.315234  -0.359430   0.009691  -0.007447
     8  H   -0.105201  -0.012066   0.477322   0.039313  -0.003175  -0.001621
     9  C   -0.224182  -0.066434  -0.554458   0.634347   0.027757   0.055225
    10  H    0.031426  -0.070228   0.034277   0.404562  -0.012871  -0.005525
    11  C   -0.173999   0.015277  -0.136590  -0.134385  -0.014020   0.122271
    12  H   -0.020926  -0.038862   0.036649  -0.001604   0.002521   0.354273
    13  H    0.046014   0.027718  -0.110425  -0.034529   0.000566  -0.004888
    14  H    0.007472  -0.010406  -0.013374  -0.052000   0.001842   0.001571
    15  C    0.091475  -0.142887  -0.004913  -0.065061  -0.003195  -0.438921
    16  O   -0.233980   0.147653  -0.037199   0.033331   0.006175  -0.100889
    17  H   -0.013883   0.002023   0.007676   0.002584  -0.000589   0.004411
    18  H   -0.019180   0.005282  -0.002004  -0.000327  -0.000498   0.009165
    19  H    0.011468   0.023472  -0.021613  -0.001021   0.000504   0.013587
               7          8          9         10         11         12
     1  C   -0.137845  -0.105201  -0.224182   0.031426  -0.173999  -0.020926
     2  C    0.143266  -0.012066  -0.066434  -0.070228   0.015277  -0.038862
     3  C    0.315234   0.477322  -0.554458   0.034277  -0.136590   0.036649
     4  C   -0.359430   0.039313   0.634347   0.404562  -0.134385  -0.001604
     5  H    0.009691  -0.003175   0.027757  -0.012871  -0.014020   0.002521
     6  N   -0.007447  -0.001621   0.055225  -0.005525   0.122271   0.354273
     7  C    5.531047  -0.055028   0.456343  -0.001181  -0.022117  -0.019505
     8  H   -0.055028   0.552193  -0.008902   0.001619   0.002538  -0.006292
     9  C    0.456343  -0.008902   5.676213  -0.073620  -0.007704  -0.000296
    10  H   -0.001181   0.001619  -0.073620   0.485381   0.007547  -0.000052
    11  C   -0.022117   0.002538  -0.007704   0.007547   5.982872   0.022534
    12  H   -0.019505  -0.006292  -0.000296  -0.000052   0.022534   0.388362
    13  H    0.442421  -0.020678  -0.039013  -0.000541   0.000124   0.002333
    14  H   -0.058331  -0.000513   0.480146  -0.012771  -0.002009  -0.000092
    15  C    0.033968  -0.000196  -0.025688   0.002516  -0.278755  -0.018934
    16  O   -0.005992  -0.000537  -0.000570   0.000540   0.495188   0.007845
    17  H    0.000086   0.000429   0.000085   0.000010  -0.012119  -0.002784
    18  H    0.000280   0.000162   0.000064   0.000014  -0.097862  -0.002690
    19  H    0.001063   0.001932   0.001044  -0.000069  -0.037280  -0.007138
              13         14         15         16         17         18
     1  C    0.046014   0.007472   0.091475  -0.233980  -0.013883  -0.019180
     2  C    0.027718  -0.010406  -0.142887   0.147653   0.002023   0.005282
     3  C   -0.110425  -0.013374  -0.004913  -0.037199   0.007676  -0.002004
     4  C   -0.034529  -0.052000  -0.065061   0.033331   0.002584  -0.000327
     5  H    0.000566   0.001842  -0.003195   0.006175  -0.000589  -0.000498
     6  N   -0.004888   0.001571  -0.438921  -0.100889   0.004411   0.009165
     7  C    0.442421  -0.058331   0.033968  -0.005992   0.000086   0.000280
     8  H   -0.020678  -0.000513  -0.000196  -0.000537   0.000429   0.000162
     9  C   -0.039013   0.480146  -0.025688  -0.000570   0.000085   0.000064
    10  H   -0.000541  -0.012771   0.002516   0.000540   0.000010   0.000014
    11  C    0.000124  -0.002009  -0.278755   0.495188  -0.012119  -0.097862
    12  H    0.002333  -0.000092  -0.018934   0.007845  -0.002784  -0.002690
    13  H    0.494747  -0.009692   0.000976   0.000017  -0.000026  -0.000016
    14  H   -0.009692   0.497192  -0.000764   0.000048   0.000001  -0.000004
    15  C    0.000976  -0.000764   6.226904  -0.012538   0.389245   0.489933
    16  O    0.000017   0.000048  -0.012538   8.070523  -0.007083  -0.009782
    17  H   -0.000026   0.000001   0.389245  -0.007083   0.498697  -0.031277
    18  H   -0.000016  -0.000004   0.489933  -0.009782  -0.031277   0.493867
    19  H   -0.000230   0.000029   0.345165   0.008165  -0.029526  -0.027307
              19
     1  C    0.011468
     2  C    0.023472
     3  C   -0.021613
     4  C   -0.001021
     5  H    0.000504
     6  N    0.013587
     7  C    0.001063
     8  H    0.001932
     9  C    0.001044
    10  H   -0.000069
    11  C   -0.037280
    12  H   -0.007138
    13  H   -0.000230
    14  H    0.000029
    15  C    0.345165
    16  O    0.008165
    17  H   -0.029526
    18  H   -0.027307
    19  H    0.597422
 Mulliken charges:
               1
     1  C    0.037744
     2  C    0.322036
     3  C   -0.478696
     4  C   -0.248441
     5  H    0.228973
     6  N   -0.117635
     7  C   -0.266524
     8  H    0.138700
     9  C   -0.330356
    10  H    0.208966
    11  C    0.268490
    12  H    0.304660
    13  H    0.205122
    14  H    0.171655
    15  C   -0.588332
    16  O   -0.360915
    17  H    0.192040
    18  H    0.192179
    19  H    0.120334
 Sum of Mulliken charges =  -0.00000
 Mulliken charges with hydrogens summed into heavy atoms:
               1
     1  C    0.037744
     2  C    0.551009
     3  C   -0.339995
     4  C   -0.039475
     6  N    0.187025
     7  C   -0.061402
     9  C   -0.158702
    11  C    0.268490
    15  C   -0.083778
    16  O   -0.360915
 Electronic spatial extent (au):  <R**2>=           1672.5057
 Charge=             -0.0000 electrons
 Dipole moment (field-independent basis, Debye):
    X=              0.0428    Y=             -3.6757    Z=              0.6522  Tot=              3.7334
 Quadrupole moment (field-independent basis, Debye-Ang):
   XX=            -50.4750   YY=            -55.8362   ZZ=            -61.9086
   XY=             -8.2994   XZ=              1.3922   YZ=              1.2258
 Traceless Quadrupole moment (field-independent basis, Debye-Ang):
   XX=              5.5983   YY=              0.2370   ZZ=             -5.8353
   XY=             -8.2994   XZ=              1.3922   YZ=              1.2258
 Octapole moment (field-independent basis, Debye-Ang**2):
  XXX=             16.2928  YYY=            -10.0730  ZZZ=             -0.3130  XYY=             -9.2611
  XXY=            -16.6366  XXZ=              3.0969  XZZ=             12.9991  YZZ=              0.8781
  YYZ=              1.5941  XYZ=              0.3835
 Hexadecapole moment (field-independent basis, Debye-Ang**3):
 XXXX=          -1573.9345 YYYY=           -377.9817 ZZZZ=            -77.1676 XXXY=            -34.5100
 XXXZ=              3.5423 YYYX=            -23.1634 YYYZ=              3.2495 ZZZX=              0.2987
 ZZZY=             -0.9055 XXYY=           -358.9991 XXZZ=           -317.0588 YYZZ=            -86.8740
 XXYZ=              7.7205 YYXZ=              3.8637 ZZXY=              1.2845
 N-N= 4.920471616482D+02 E-N=-2.010463361960D+03  KE= 4.400206514534D+02
 No NMR shielding tensors so no spin-rotation constants.
 Leave Link  601 at Tue Nov 22 19:15:19 2022, MaxMem= 16106127360 cpu:               3.7 elap:               0.1
 (Enter /opt/ap/G16/B01/g16/l9999.exe)
 1\1\GINC-N36\SP\RwB97XD\6-311++G(d,p)\C8H9N1O1\ROOT\22-Nov-2022\0\\#P 
 wB97XD/6-311++G(d,p) scf=maxcycle=512\\_conf070.gjf nmol_natom 1_19\\0
 ,1\C\C,1,1.39447505\C,1,1.39873503,2,119.56697224\C,2,1.39066123,1,119
 .42697207,3,2.53915756,0\H,2,0.96213008,1,119.8046163,3,-177.79870417,
 0\N,1,1.41693372,2,123.72220125,4,-177.74604849,0\C,3,1.38667133,1,120
 .18759987,2,-2.5020857,0\H,3,0.95673174,1,118.82085988,2,177.96737168,
 0\C,4,1.38268572,2,121.03929493,1,-0.41221113,0\H,4,0.9858595,2,118.57
 91267,1,178.77373233,0\C,6,1.35500692,1,127.62132737,2,-10.,0\H,6,0.89
 609466,1,115.10511997,2,170.,0\H,7,0.98847198,3,119.08117704,1,-179.64
 585354,0\H,9,0.98451201,4,120.53755637,2,177.22743544,0\C,11,1.5027456
 1,6,115.46861532,1,175.89235465,0\O,11,1.23496495,6,123.15099888,1,-3.
 40672617,0\H,15,0.98719837,11,107.47091875,6,-116.36962839,0\H,15,0.99
 976021,11,109.69443261,6,128.85346087,0\H,15,0.97696155,11,114.3700887
 1,6,6.05302844,0\\Version=ES64L-G16RevB.01\State=1-A\HF=-440.1470962\R
 MSD=9.292e-09\Dipole=0.4191427,0.346257,-1.3644941\Quadrupole=0.249462
 4,-4.545718,4.2962557,-1.2592916,6.0508863,0.5228626\PG=C01 [X(C8H9N1O
 1)]\\@


 EXPERIENCE IS A WONDERFUL THING.  IT ENABLES
 YOU TO RECOGNIZE A MISTAKE WHEN YOU MAKE IT AGAIN.
           - BACK OF A SUGAR PACKET
 Job cpu time:       0 days  0 hours 10 minutes 25.3 seconds.
 Elapsed time:       0 days  0 hours  0 minutes 19.7 seconds.
 File lengths (MBytes):  RWF=     46 Int=      0 D2E=      0 Chk=      6 Scr=      1
 Normal termination of Gaussian 16 at Tue Nov 22 19:15:20 2022.
