 Entering Gaussian System, Link 0=g16
 Input=_conf038.gjf
 Output=_conf038.log
 Initial command:
 /opt/ap/G16/B01/g16/l1.exe "/tmp2/scr/Gau-9557.inp" -scrdir="/tmp2/scr/"
 Entering Link 1 = /opt/ap/G16/B01/g16/l1.exe PID=      9558.
  
 Copyright (c) 1988-2017, Gaussian, Inc.  All Rights Reserved.
  
 This is part of the Gaussian(R) 16 program.  It is based on
 the Gaussian(R) 09 system (copyright 2009, Gaussian, Inc.),
 the Gaussian(R) 03 system (copyright 2003, Gaussian, Inc.),
 the Gaussian(R) 98 system (copyright 1998, Gaussian, Inc.),
 the Gaussian(R) 94 system (copyright 1995, Gaussian, Inc.),
 the Gaussian 92(TM) system (copyright 1992, Gaussian, Inc.),
 the Gaussian 90(TM) system (copyright 1990, Gaussian, Inc.),
 the Gaussian 88(TM) system (copyright 1988, Gaussian, Inc.),
 the Gaussian 86(TM) system (copyright 1986, Carnegie Mellon
 University), and the Gaussian 82(TM) system (copyright 1983,
 Carnegie Mellon University). Gaussian is a federally registered
 trademark of Gaussian, Inc.
  
 This software contains proprietary and confidential information,
 including trade secrets, belonging to Gaussian, Inc.
  
 This software is provided under written license and may be
 used, copied, transmitted, or stored only in accord with that
 written license.
  
 The following legend is applicable only to US Government
 contracts under FAR:
  
                    RESTRICTED RIGHTS LEGEND
  
 Use, reproduction and disclosure by the US Government is
 subject to restrictions as set forth in subparagraphs (a)
 and (c) of the Commercial Computer Software - Restricted
 Rights clause in FAR 52.227-19.
  
 Gaussian, Inc.
 340 Quinnipiac St., Bldg. 40, Wallingford CT 06492
  
  
 ---------------------------------------------------------------
 Warning -- This program may not be used in any manner that
 competes with the business of Gaussian, Inc. or will provide
 assistance to any competitor of Gaussian, Inc.  The licensee
 of this program is prohibited from giving any competitor of
 Gaussian, Inc. access to this program.  By using this program,
 the user acknowledges that Gaussian, Inc. is engaged in the
 business of creating and licensing software in the field of
 computational chemistry and represents and warrants to the
 licensee that it is not a competitor of Gaussian, Inc. and that
 it will not use this program in any manner prohibited above.
 ---------------------------------------------------------------
  

 Cite this work as:
 Gaussian 16, Revision B.01,
 M. J. Frisch, G. W. Trucks, H. B. Schlegel, G. E. Scuseria, 
 M. A. Robb, J. R. Cheeseman, G. Scalmani, V. Barone, 
 G. A. Petersson, H. Nakatsuji, X. Li, M. Caricato, A. V. Marenich, 
 J. Bloino, B. G. Janesko, R. Gomperts, B. Mennucci, H. P. Hratchian, 
 J. V. Ortiz, A. F. Izmaylov, J. L. Sonnenberg, D. Williams-Young, 
 F. Ding, F. Lipparini, F. Egidi, J. Goings, B. Peng, A. Petrone, 
 T. Henderson, D. Ranasinghe, V. G. Zakrzewski, J. Gao, N. Rega, 
 G. Zheng, W. Liang, M. Hada, M. Ehara, K. Toyota, R. Fukuda, 
 J. Hasegawa, M. Ishida, T. Nakajima, Y. Honda, O. Kitao, H. Nakai, 
 T. Vreven, K. Throssell, J. A. Montgomery, Jr., J. E. Peralta, 
 F. Ogliaro, M. J. Bearpark, J. J. Heyd, E. N. Brothers, K. N. Kudin, 
 V. N. Staroverov, T. A. Keith, R. Kobayashi, J. Normand, 
 K. Raghavachari, A. P. Rendell, J. C. Burant, S. S. Iyengar, 
 J. Tomasi, M. Cossi, J. M. Millam, M. Klene, C. Adamo, R. Cammi, 
 J. W. Ochterski, R. L. Martin, K. Morokuma, O. Farkas, 
 J. B. Foresman, and D. J. Fox, Gaussian, Inc., Wallingford CT, 2016.
 
 ******************************************
 Gaussian 16:  ES64L-G16RevB.01 20-Dec-2017
                22-Nov-2022 
 ******************************************
 %nprocshared=32
 Will use up to   32 processors via shared memory.
 %mem=120GB
 %chk=_conf038.chk
 ----------------------------------------
 #P wB97XD/6-311++G(d,p) scf=maxcycle=512
 ----------------------------------------
 1/38=1,172=1/1;
 2/12=2,17=6,18=5,40=1/2;
 3/5=4,6=6,7=1111,11=2,25=1,30=1,74=-58/1,2,3;
 4//1;
 5/5=2,7=512,38=5/2;
 6/7=2,8=2,9=2,10=2,28=1/1;
 99/5=1,9=1/99;
 Leave Link    1 at Tue Nov 22 19:12:16 2022, MaxMem= 16106127360 cpu:               1.9 elap:               0.1
 (Enter /opt/ap/G16/B01/g16/l101.exe)
 ----------------------------
 _conf038.gjf nmol_natom 1_19
 ----------------------------
 Symbolic Z-matrix:
 Charge =  0 Multiplicity = 1
 C
 C                    1     1.39448 
 C                    1     1.39874  2     119.56697 
 C                    2     1.39066  1     119.42697  3     2.53916  0
 H                    2     0.96213  1     119.80462  3    -177.7987  0
 N                    1     1.41693  2     123.7222  4    -177.74605  0
 C                    3     1.38667  1     120.1876  2    -2.50209  0
 H                    3     0.95673  1     118.82086  2     177.96737  0
 C                    4     1.38269  2     121.03929  1    -0.41221  0
 H                    4     0.98586  2     118.57913  1     178.77373  0
 C                    6     1.35501  1     127.62133  2    -170.     0
 H                    6     0.89609  1     115.10512  2     10.      0
 H                    7     0.98847  3     119.08118  1    -179.64585  0
 H                    9     0.98451  4     120.53756  2     177.22744  0
 C                    11    1.50275  6     115.46862  1     175.89235  0
 O                    11    1.23496  6     123.151  1    -3.40673  0
 H                    15    0.9872   11    107.47092  6    -116.36963  0
 H                    15    0.99976  11    109.69443  6     128.85346  0
 H                    15    0.97696  11    114.37009  6     6.05303  0
 
 ITRead=  0  0  0  0  0  0  0  0  0  0  0  0  0  0  0  0  0  0  0
 MicOpt= -1 -1 -1 -1 -1 -1 -1 -1 -1 -1 -1 -1 -1 -1 -1 -1 -1 -1 -1
 NAtoms=     19 NQM=       19 NQMF=       0 NMMI=      0 NMMIF=      0
                NMic=       0 NMicF=      0.
                    Isotopes and Nuclear Properties:
 (Nuclear quadrupole moments (NQMom) in fm**2, nuclear magnetic moments (NMagM)
  in nuclear magnetons)

  Atom         1           2           3           4           5           6           7           8           9          10
 IAtWgt=          12          12          12          12           1          14          12           1          12           1
 AtmWgt=  12.0000000  12.0000000  12.0000000  12.0000000   1.0078250  14.0030740  12.0000000   1.0078250  12.0000000   1.0078250
 NucSpn=           0           0           0           0           1           2           0           1           0           1
 AtZEff=  -0.0000000  -0.0000000  -0.0000000  -0.0000000  -0.0000000  -0.0000000  -0.0000000  -0.0000000  -0.0000000  -0.0000000
 NQMom=    0.0000000   0.0000000   0.0000000   0.0000000   0.0000000   2.0440000   0.0000000   0.0000000   0.0000000   0.0000000
 NMagM=    0.0000000   0.0000000   0.0000000   0.0000000   2.7928460   0.4037610   0.0000000   2.7928460   0.0000000   2.7928460
 AtZNuc=   6.0000000   6.0000000   6.0000000   6.0000000   1.0000000   7.0000000   6.0000000   1.0000000   6.0000000   1.0000000

  Atom        11          12          13          14          15          16          17          18          19
 IAtWgt=          12           1           1           1          12          16           1           1           1
 AtmWgt=  12.0000000   1.0078250   1.0078250   1.0078250  12.0000000  15.9949146   1.0078250   1.0078250   1.0078250
 NucSpn=           0           1           1           1           0           0           1           1           1
 AtZEff=  -0.0000000  -0.0000000  -0.0000000  -0.0000000  -0.0000000  -0.0000000  -0.0000000  -0.0000000  -0.0000000
 NQMom=    0.0000000   0.0000000   0.0000000   0.0000000   0.0000000   0.0000000   0.0000000   0.0000000   0.0000000
 NMagM=    0.0000000   2.7928460   2.7928460   2.7928460   0.0000000   0.0000000   2.7928460   2.7928460   2.7928460
 AtZNuc=   6.0000000   1.0000000   1.0000000   1.0000000   6.0000000   8.0000000   1.0000000   1.0000000   1.0000000
 Leave Link  101 at Tue Nov 22 19:12:16 2022, MaxMem= 16106127360 cpu:               5.9 elap:               0.2
 (Enter /opt/ap/G16/B01/g16/l202.exe)
                          Input orientation:                          
 ---------------------------------------------------------------------
 Center     Atomic      Atomic             Coordinates (Angstroms)
 Number     Number       Type             X           Y           Z
 ---------------------------------------------------------------------
      1          6           0        0.000000    0.000000    0.000000
      2          6           0        0.000000    0.000000    1.394475
      3          6           0        1.216591    0.000000   -0.690193
      4          6           0        1.210053    0.053661    2.077726
      5          1           0       -0.834249   -0.032067    1.872696
      6          7           0       -1.178505   -0.005866   -0.786634
      7          6           0        2.413939    0.052326    0.007287
      8          1           0        1.204393   -0.029731   -1.646384
      9          6           0        2.412261    0.098442    1.396177
     10          1           0        1.194755    0.071528    3.063305
     11          6           0       -1.278768   -0.192736   -2.124943
     12          1           0       -1.939061    0.131255   -0.333052
     13          1           0        3.263999    0.056828   -0.497149
     14          1           0        3.262484    0.177260    1.886251
     15          6           0       -2.679299   -0.240848   -2.667568
     16          8           0       -0.298164   -0.329642   -2.863056
     17          1           0       -2.821121   -1.143074   -3.042316
     18          1           0       -2.764821    0.392849   -3.436096
     19          1           0       -3.373418   -0.039169   -2.010318
 ---------------------------------------------------------------------
                    Distance matrix (angstroms):
                    1          2          3          4          5
     1  C    0.000000
     2  C    1.394475   0.000000
     3  C    1.398735   2.413697   0.000000
     4  C    2.405006   1.390661   2.768447   0.000000
     5  H    2.050363   0.962130   3.282586   2.056345   0.000000
     6  N    1.416934   2.479142   2.397044   3.730055   2.681648
     7  C    2.414517   2.784624   1.386671   2.395008   3.746678
     8  H    2.040105   3.270821   0.956732   3.725048   4.066939
     9  C    2.788908   2.414270   2.406711   1.382686   3.283889
    10  H    3.288829   2.053668   3.754243   0.985860   2.354812
    11  C    2.487525   3.749494   2.884870   4.890539   4.025485
    12  H    1.971829   2.600295   3.178509   3.966710   2.472369
    13  H    3.302132   3.772951   2.057273   3.293734   4.734944
    14  H    3.772687   3.304099   3.294718   2.065046   4.102100
    15  C    3.788479   4.872048   4.375613   6.142607   4.905283
    16  O    2.897353   4.280670   2.669172   5.180054   4.775278
    17  H    4.303607   5.380563   4.810636   6.625509   5.416580
    18  H    4.427790   5.579694   4.852418   6.805652   5.664886
    19  H    3.927195   4.793130   4.776238   6.142387   4.639529
                    6          7          8          9         10
     6  N    0.000000
     7  C    3.679585   0.000000
     8  H    2.533365   2.050454   0.000000
     9  C    4.203468   1.389657   3.276058   0.000000
    10  H    4.523316   3.290292   4.710788   2.064548   0.000000
    11  C    1.355007   4.271129   2.534103   5.109479   5.753788
    12  H    0.896095   4.366998   3.410581   4.682448   4.621647
    13  H    4.452366   0.988472   2.360129   2.076505   4.118108
    14  H    5.186544   2.065465   4.093666   0.984512   2.381625
    15  C    2.417750   5.760371   4.021250   6.523277   6.924507
    16  O    2.278455   3.967400   1.956505   5.066629   6.124663
    17  H    3.013226   6.175347   4.403739   6.973512   7.408180
    18  H    3.113683   6.228354   4.374506   7.087999   7.617329
    19  H    2.513196   6.129649   4.592264   6.715447   6.828038
                   11         12         13         14         15
    11  C    0.000000
    12  H    1.936964   0.000000
    13  H    4.832052   5.206179   0.000000
    14  H    6.070383   5.655396   2.386441   0.000000
    15  C    1.502746   2.477172   6.334203   7.497792   0.000000
    16  O    1.234965   3.050555   4.293702   5.957439   2.390796
    17  H    2.030657   3.121227   6.704202   7.940045   0.987198
    18  H    2.066491   3.221675   6.715429   8.043772   0.999760
    19  H    2.103397   2.213514   6.808392   7.698395   0.976962
                   16         17         18         19
    16  O    0.000000
    17  H    2.656900   0.000000
    18  H    2.633395   1.586598   0.000000
    19  H    3.204485   1.608931   1.609308   0.000000
 Stoichiometry    C8H9NO
 Framework group  C1[X(C8H9NO)]
 Deg. of freedom    51
 Full point group                 C1      NOp   1
 Largest Abelian subgroup         C1      NOp   1
 Largest concise Abelian subgroup C1      NOp   1
                         Standard orientation:                         
 ---------------------------------------------------------------------
 Center     Atomic      Atomic             Coordinates (Angstroms)
 Number     Number       Type             X           Y           Z
 ---------------------------------------------------------------------
      1          6           0       -0.305940   -0.411901   -0.032279
      2          6           0       -1.312845   -1.372751    0.054159
      3          6           0       -0.646397    0.944594   -0.053990
      4          6           0       -2.643561   -0.968971    0.063919
      5          1           0       -1.081128   -2.305367    0.101354
      6          7           0        1.074958   -0.723046   -0.095597
      7          6           0       -1.978551    1.329410   -0.042237
      8          1           0        0.054137    1.595515   -0.083803
      9          6           0       -2.982887    0.369799   -0.002194
     10          1           0       -3.345683   -1.659691    0.106916
     11          6           0        2.121055    0.132152    0.006192
     12          1           0        1.264044   -1.590441   -0.217491
     13          1           0       -2.200675    2.292372   -0.063274
     14          1           0       -3.927448    0.645376   -0.035745
     15          6           0        3.481247   -0.506616   -0.003687
     16          8           0        1.985688    1.354928    0.114045
     17          1           0        3.900886   -0.323815    0.870982
     18          1           0        4.059136   -0.058154   -0.685190
     19          1           0        3.473794   -1.468192   -0.176230
 ---------------------------------------------------------------------
 Rotational constants (GHZ):           3.8187797           0.8103836           0.6717864
 Leave Link  202 at Tue Nov 22 19:12:16 2022, MaxMem= 16106127360 cpu:               0.2 elap:               0.0
 (Enter /opt/ap/G16/B01/g16/l301.exe)
 Standard basis: 6-311++G(d,p) (5D, 7F)
 Ernie: Thresh=  0.10000D-02 Tol=  0.10000D-05 Strict=F.
 There are   293 symmetry adapted cartesian basis functions of A   symmetry.
 There are   283 symmetry adapted basis functions of A   symmetry.
   283 basis functions,   441 primitive gaussians,   293 cartesian basis functions
    36 alpha electrons       36 beta electrons
       nuclear repulsion energy       494.0960379127 Hartrees.
 IExCor= 4639 DFT=T Ex+Corr=wB97XD ExCW=0 ScaHFX=  1.000000
 ScaDFX=  1.000000  1.000000  1.000000  1.000000 ScalE2=  1.000000  1.000000
 IRadAn=      5 IRanWt=     -1 IRanGd=            0 ICorTp=0 IEmpDi=121
 HFx  wShort=  0.000000 wLong=  0.200000 cFull=  0.222036 cShort=  0.000000 cLong=  0.777964
 DFx  wShort=  0.000000 wLong=  0.200000 cFull=  0.000000 cShort=  0.000000 cLong=  1.000000
 NAtoms=   19 NActive=   19 NUniq=   19 SFac= 1.00D+00 NAtFMM=   60 NAOKFM=F Big=F
 Integral buffers will be    131072 words long.
 Raffenetti 2 integral format.
 Two-electron integral symmetry is turned on.
 R6Disp:  Grimme-D2 Dispersion energy=       -0.0089359770 Hartrees.
 Nuclear repulsion after empirical dispersion term =      494.0871019357 Hartrees.
 Leave Link  301 at Tue Nov 22 19:12:16 2022, MaxMem= 16106127360 cpu:               1.6 elap:               0.1
 (Enter /opt/ap/G16/B01/g16/l302.exe)
 NPDir=0 NMtPBC=     1 NCelOv=     1 NCel=       1 NClECP=     1 NCelD=      1
         NCelK=      1 NCelE2=     1 NClLst=     1 CellRange=     0.0.
 One-electron integrals computed using PRISM.
 One-electron integral symmetry used in STVInt
 NBasis=   283 RedAO= T EigKep=  2.17D-06  NBF=   283
 NBsUse=   282 1.00D-06 EigRej=  6.78D-07 NBFU=   282
 Precomputing XC quadrature grid using
 IXCGrd= 4 IRadAn=           5 IRanWt=          -1 IRanGd=           0 AccXCQ= 0.00D+00.
 Generated NRdTot=       0 NPtTot=           0 NUsed=           0 NTot=          32
 NSgBfM=   293   293   293   293   293 MxSgAt=    19 MxSgA2=    19.
 Leave Link  302 at Tue Nov 22 19:12:17 2022, MaxMem= 16106127360 cpu:               7.3 elap:               0.2
 (Enter /opt/ap/G16/B01/g16/l303.exe)
 DipDrv:  MaxL=1.
 Leave Link  303 at Tue Nov 22 19:12:17 2022, MaxMem= 16106127360 cpu:               1.4 elap:               0.0
 (Enter /opt/ap/G16/B01/g16/l401.exe)
 ExpMin= 3.60D-02 ExpMax= 8.59D+03 ExpMxC= 1.30D+03 IAcc=3 IRadAn=         5 AccDes= 0.00D+00
 Harris functional with IExCor= 4639 and IRadAn=       5 diagonalized for initial guess.
 HarFok:  IExCor= 4639 AccDes= 0.00D+00 IRadAn=         5 IDoV= 1 UseB2=F ITyADJ=14
 ICtDFT=  3500011 ScaDFX=  1.000000  1.000000  1.000000  1.000000
 FoFCou: FMM=F IPFlag=           0 FMFlag=      100000 FMFlg1=           0
         NFxFlg=           0 DoJE=T BraDBF=F KetDBF=T FulRan=T
         wScrn=  0.000000 ICntrl=       500 IOpCl=  0 I1Cent=   200000004 NGrid=           0
         NMat0=    1 NMatS0=      1 NMatT0=    0 NMatD0=    1 NMtDS0=    0 NMtDT0=    0
 Petite list used in FoFCou.
 Harris En= -420.985776594762    
 JPrj=0 DoOrth=F DoCkMO=F.
 Leave Link  401 at Tue Nov 22 19:12:17 2022, MaxMem= 16106127360 cpu:              15.3 elap:               0.5
 (Enter /opt/ap/G16/B01/g16/l502.exe)
 Integral symmetry usage will be decided dynamically.
 Closed shell SCF:
 Using DIIS extrapolation, IDIIS=  1040.
 NGot= 16106127360 LenX= 16105943385 LenY= 16105857095
 Requested convergence on RMS density matrix=1.00D-08 within 512 cycles.
 Requested convergence on MAX density matrix=1.00D-06.
 Requested convergence on             energy=1.00D-06.
 No special actions if energy rises.
 Fock matrices will be formed incrementally for  20 cycles.

 Cycle   1  Pass 1  IDiag  1:
 FoFJK:  IHMeth= 1 ICntrl=       0 DoSepK=T KAlg= 0 I1Cent=           0 FoldK=F
 IRaf=         1 NMat=       1 IRICut=       1 DoRegI=T DoRafI=F ISym2E= 0 IDoP0=0 IntGTp=1.
 FoFCou: FMM=F IPFlag=           0 FMFlag=      100000 FMFlg1=           0
         NFxFlg=           0 DoJE=T BraDBF=F KetDBF=F FulRan=T
         wScrn=  0.000000 ICntrl=       500 IOpCl=  0 I1Cent=           0 NGrid=           0
         NMat0=    1 NMatS0=      1 NMatT0=    0 NMatD0=    1 NMtDS0=    0 NMtDT0=    0
 Symmetry not used in FoFCou.
 E= -439.979078029302    
 DIIS: error= 5.60D-02 at cycle   1 NSaved=   1.
 NSaved= 1 IEnMin= 1 EnMin= -439.979078029302     IErMin= 1 ErrMin= 5.60D-02
 ErrMax= 5.60D-02  0.00D+00 EMaxC= 1.00D-01 BMatC= 9.51D-01 BMatP= 9.51D-01
 IDIUse=3 WtCom= 4.40D-01 WtEn= 5.60D-01
 Coeff-Com:  0.100D+01
 Coeff-En:   0.100D+01
 Coeff:      0.100D+01
 Gap=     0.445 Goal=   None    Shift=    0.000
 GapD=    0.445 DampG=2.000 DampE=0.500 DampFc=1.0000 IDamp=-1.
 RMSDP=1.54D-02 MaxDP=1.45D+00              OVMax= 1.54D-01

 Cycle   2  Pass 1  IDiag  1:
 RMSU=  9.52D-03    CP:  7.15D-01
 E= -440.059836752622     Delta-E=       -0.080758723321 Rises=F Damp=F
 DIIS: error= 1.52D-02 at cycle   2 NSaved=   2.
 NSaved= 2 IEnMin= 2 EnMin= -440.059836752622     IErMin= 2 ErrMin= 1.52D-02
 ErrMax= 1.52D-02  0.00D+00 EMaxC= 1.00D-01 BMatC= 9.32D-02 BMatP= 9.51D-01
 IDIUse=3 WtCom= 8.48D-01 WtEn= 1.52D-01
 Coeff-Com:  0.168D+00 0.832D+00
 Coeff-En:   0.255D+00 0.745D+00
 Coeff:      0.181D+00 0.819D+00
 Gap=     0.451 Goal=   None    Shift=    0.000
 RMSDP=9.17D-03 MaxDP=5.69D-01 DE=-8.08D-02 OVMax= 1.31D-01

 Cycle   3  Pass 1  IDiag  1:
 RMSU=  5.43D-03    CP:  6.03D-01  4.04D-01
 E= -440.103582726226     Delta-E=       -0.043745973604 Rises=F Damp=F
 DIIS: error= 1.20D-02 at cycle   3 NSaved=   3.
 NSaved= 3 IEnMin= 3 EnMin= -440.103582726226     IErMin= 3 ErrMin= 1.20D-02
 ErrMax= 1.20D-02  0.00D+00 EMaxC= 1.00D-01 BMatC= 4.19D-02 BMatP= 9.32D-02
 IDIUse=3 WtCom= 8.80D-01 WtEn= 1.20D-01
 Coeff-Com:  0.260D-01 0.405D+00 0.569D+00
 Coeff-En:   0.000D+00 0.312D+00 0.688D+00
 Coeff:      0.229D-01 0.394D+00 0.583D+00
 Gap=     0.351 Goal=   None    Shift=    0.000
 RMSDP=2.95D-03 MaxDP=1.23D-01 DE=-4.37D-02 OVMax= 7.27D-02

 Cycle   4  Pass 1  IDiag  1:
 RMSU=  9.21D-04    CP:  6.24D-01  6.14D-01  6.76D-01
 E= -440.140839785489     Delta-E=       -0.037257059263 Rises=F Damp=F
 DIIS: error= 2.93D-03 at cycle   4 NSaved=   4.
 NSaved= 4 IEnMin= 4 EnMin= -440.140839785489     IErMin= 4 ErrMin= 2.93D-03
 ErrMax= 2.93D-03  0.00D+00 EMaxC= 1.00D-01 BMatC= 1.62D-03 BMatP= 4.19D-02
 IDIUse=3 WtCom= 9.71D-01 WtEn= 2.93D-02
 Coeff-Com:  0.919D-02 0.182D+00 0.298D+00 0.511D+00
 Coeff-En:   0.000D+00 0.000D+00 0.000D+00 0.100D+01
 Coeff:      0.893D-02 0.176D+00 0.289D+00 0.525D+00
 Gap=     0.337 Goal=   None    Shift=    0.000
 RMSDP=3.97D-04 MaxDP=1.60D-02 DE=-3.73D-02 OVMax= 1.07D-02

 Cycle   5  Pass 1  IDiag  1:
 RMSU=  2.93D-04    CP:  6.20D-01  6.02D-01  6.96D-01  8.46D-01
 E= -440.142118450120     Delta-E=       -0.001278664631 Rises=F Damp=F
 DIIS: error= 6.53D-04 at cycle   5 NSaved=   5.
 NSaved= 5 IEnMin= 5 EnMin= -440.142118450120     IErMin= 5 ErrMin= 6.53D-04
 ErrMax= 6.53D-04  0.00D+00 EMaxC= 1.00D-01 BMatC= 7.29D-05 BMatP= 1.62D-03
 IDIUse=3 WtCom= 9.93D-01 WtEn= 6.53D-03
 Coeff-Com:  0.664D-03 0.161D-01 0.393D-01 0.186D+00 0.758D+00
 Coeff-En:   0.000D+00 0.000D+00 0.000D+00 0.000D+00 0.100D+01
 Coeff:      0.659D-03 0.159D-01 0.391D-01 0.184D+00 0.760D+00
 Gap=     0.337 Goal=   None    Shift=    0.000
 RMSDP=1.21D-04 MaxDP=5.09D-03 DE=-1.28D-03 OVMax= 2.93D-03

 Cycle   6  Pass 1  IDiag  1:
 RMSU=  1.04D-04    CP:  6.20D-01  6.06D-01  7.03D-01  8.62D-01  9.18D-01
 E= -440.142169351936     Delta-E=       -0.000050901816 Rises=F Damp=F
 DIIS: error= 2.66D-04 at cycle   6 NSaved=   6.
 NSaved= 6 IEnMin= 6 EnMin= -440.142169351936     IErMin= 6 ErrMin= 2.66D-04
 ErrMax= 2.66D-04  0.00D+00 EMaxC= 1.00D-01 BMatC= 2.07D-05 BMatP= 7.29D-05
 IDIUse=3 WtCom= 9.97D-01 WtEn= 2.66D-03
 Coeff-Com: -0.110D-02-0.189D-01-0.223D-01 0.218D-01 0.414D+00 0.607D+00
 Coeff-En:   0.000D+00 0.000D+00 0.000D+00 0.000D+00 0.724D-02 0.993D+00
 Coeff:     -0.110D-02-0.189D-01-0.223D-01 0.217D-01 0.413D+00 0.608D+00
 Gap=     0.338 Goal=   None    Shift=    0.000
 RMSDP=5.04D-05 MaxDP=1.99D-03 DE=-5.09D-05 OVMax= 1.45D-03

 Cycle   7  Pass 1  IDiag  1:
 RMSU=  3.47D-05    CP:  6.20D-01  6.04D-01  7.06D-01  8.69D-01  9.71D-01
                    CP:  1.04D+00
 E= -440.142187024228     Delta-E=       -0.000017672292 Rises=F Damp=F
 DIIS: error= 9.21D-05 at cycle   7 NSaved=   7.
 NSaved= 7 IEnMin= 7 EnMin= -440.142187024228     IErMin= 7 ErrMin= 9.21D-05
 ErrMax= 9.21D-05  0.00D+00 EMaxC= 1.00D-01 BMatC= 5.33D-07 BMatP= 2.07D-05
 IDIUse=1 WtCom= 1.00D+00 WtEn= 0.00D+00
 Coeff-Com: -0.274D-03-0.514D-02-0.653D-02-0.114D-01 0.119D-01 0.982D-01
 Coeff-Com:  0.913D+00
 Coeff:     -0.274D-03-0.514D-02-0.653D-02-0.114D-01 0.119D-01 0.982D-01
 Coeff:      0.913D+00
 Gap=     0.338 Goal=   None    Shift=    0.000
 RMSDP=1.79D-05 MaxDP=5.92D-04 DE=-1.77D-05 OVMax= 6.07D-04

 Cycle   8  Pass 1  IDiag  1:
 RMSU=  1.09D-05    CP:  6.20D-01  6.04D-01  7.06D-01  8.70D-01  9.93D-01
                    CP:  1.14D+00  1.14D+00
 E= -440.142188273688     Delta-E=       -0.000001249461 Rises=F Damp=F
 DIIS: error= 3.04D-05 at cycle   8 NSaved=   8.
 NSaved= 8 IEnMin= 8 EnMin= -440.142188273688     IErMin= 8 ErrMin= 3.04D-05
 ErrMax= 3.04D-05  0.00D+00 EMaxC= 1.00D-01 BMatC= 1.11D-07 BMatP= 5.33D-07
 IDIUse=1 WtCom= 1.00D+00 WtEn= 0.00D+00
 Coeff-Com:  0.661D-04 0.829D-03 0.100D-02-0.780D-02-0.613D-01-0.623D-01
 Coeff-Com:  0.299D+00 0.830D+00
 Coeff:      0.661D-04 0.829D-03 0.100D-02-0.780D-02-0.613D-01-0.623D-01
 Coeff:      0.299D+00 0.830D+00
 Gap=     0.338 Goal=   None    Shift=    0.000
 RMSDP=7.55D-06 MaxDP=2.55D-04 DE=-1.25D-06 OVMax= 3.70D-04

 Cycle   9  Pass 1  IDiag  1:
 RMSU=  3.68D-06    CP:  6.20D-01  6.04D-01  7.06D-01  8.68D-01  9.95D-01
                    CP:  1.18D+00  1.25D+00  1.17D+00
 E= -440.142188511134     Delta-E=       -0.000000237446 Rises=F Damp=F
 DIIS: error= 1.47D-05 at cycle   9 NSaved=   9.
 NSaved= 9 IEnMin= 9 EnMin= -440.142188511134     IErMin= 9 ErrMin= 1.47D-05
 ErrMax= 1.47D-05  0.00D+00 EMaxC= 1.00D-01 BMatC= 1.17D-08 BMatP= 1.11D-07
 IDIUse=1 WtCom= 1.00D+00 WtEn= 0.00D+00
 Coeff-Com:  0.528D-04 0.885D-03 0.121D-02-0.636D-03-0.192D-01-0.286D-01
 Coeff-Com: -0.141D-01 0.245D+00 0.816D+00
 Coeff:      0.528D-04 0.885D-03 0.121D-02-0.636D-03-0.192D-01-0.286D-01
 Coeff:     -0.141D-01 0.245D+00 0.816D+00
 Gap=     0.338 Goal=   None    Shift=    0.000
 RMSDP=2.57D-06 MaxDP=1.46D-04 DE=-2.37D-07 OVMax= 1.03D-04

 Cycle  10  Pass 1  IDiag  1:
 RMSU=  1.20D-06    CP:  6.20D-01  6.04D-01  7.06D-01  8.67D-01  9.93D-01
                    CP:  1.19D+00  1.27D+00  1.25D+00  1.21D+00
 E= -440.142188539002     Delta-E=       -0.000000027868 Rises=F Damp=F
 DIIS: error= 4.76D-06 at cycle  10 NSaved=  10.
 NSaved=10 IEnMin=10 EnMin= -440.142188539002     IErMin=10 ErrMin= 4.76D-06
 ErrMax= 4.76D-06  0.00D+00 EMaxC= 1.00D-01 BMatC= 1.64D-09 BMatP= 1.17D-08
 IDIUse=1 WtCom= 1.00D+00 WtEn= 0.00D+00
 Coeff-Com:  0.296D-05 0.108D-03 0.185D-03 0.106D-02 0.428D-02 0.221D-02
 Coeff-Com: -0.458D-01-0.747D-01 0.193D+00 0.920D+00
 Coeff:      0.296D-05 0.108D-03 0.185D-03 0.106D-02 0.428D-02 0.221D-02
 Coeff:     -0.458D-01-0.747D-01 0.193D+00 0.920D+00
 Gap=     0.338 Goal=   None    Shift=    0.000
 RMSDP=1.04D-06 MaxDP=7.33D-05 DE=-2.79D-08 OVMax= 5.49D-05

 Cycle  11  Pass 1  IDiag  1:
 RMSU=  5.19D-07    CP:  6.20D-01  6.04D-01  7.06D-01  8.66D-01  9.92D-01
                    CP:  1.19D+00  1.27D+00  1.29D+00  1.36D+00  1.13D+00
 E= -440.142188544259     Delta-E=       -0.000000005257 Rises=F Damp=F
 DIIS: error= 1.73D-06 at cycle  11 NSaved=  11.
 NSaved=11 IEnMin=11 EnMin= -440.142188544259     IErMin=11 ErrMin= 1.73D-06
 ErrMax= 1.73D-06  0.00D+00 EMaxC= 1.00D-01 BMatC= 2.27D-10 BMatP= 1.64D-09
 IDIUse=1 WtCom= 1.00D+00 WtEn= 0.00D+00
 Coeff-Com: -0.612D-05-0.947D-04-0.117D-03 0.429D-03 0.392D-02 0.459D-02
 Coeff-Com: -0.952D-02-0.559D-01-0.701D-01 0.222D+00 0.904D+00
 Coeff:     -0.612D-05-0.947D-04-0.117D-03 0.429D-03 0.392D-02 0.459D-02
 Coeff:     -0.952D-02-0.559D-01-0.701D-01 0.222D+00 0.904D+00
 Gap=     0.338 Goal=   None    Shift=    0.000
 RMSDP=3.78D-07 MaxDP=1.28D-05 DE=-5.26D-09 OVMax= 1.99D-05

 Cycle  12  Pass 1  IDiag  1:
 RMSU=  1.91D-07    CP:  6.20D-01  6.04D-01  7.06D-01  8.66D-01  9.92D-01
                    CP:  1.18D+00  1.27D+00  1.30D+00  1.39D+00  1.22D+00
                    CP:  1.32D+00
 E= -440.142188545009     Delta-E=       -0.000000000750 Rises=F Damp=F
 DIIS: error= 6.72D-07 at cycle  12 NSaved=  12.
 NSaved=12 IEnMin=12 EnMin= -440.142188545009     IErMin=12 ErrMin= 6.72D-07
 ErrMax= 6.72D-07  0.00D+00 EMaxC= 1.00D-01 BMatC= 2.12D-11 BMatP= 2.27D-10
 IDIUse=1 WtCom= 1.00D+00 WtEn= 0.00D+00
 Coeff-Com: -0.818D-06-0.234D-04-0.387D-04-0.923D-04-0.473D-03-0.698D-04
 Coeff-Com:  0.560D-02 0.815D-02-0.259D-01-0.106D+00 0.491D-01 0.107D+01
 Coeff:     -0.818D-06-0.234D-04-0.387D-04-0.923D-04-0.473D-03-0.698D-04
 Coeff:      0.560D-02 0.815D-02-0.259D-01-0.106D+00 0.491D-01 0.107D+01
 Gap=     0.338 Goal=   None    Shift=    0.000
 RMSDP=1.38D-07 MaxDP=4.16D-06 DE=-7.50D-10 OVMax= 7.10D-06

 Cycle  13  Pass 1  IDiag  1:
 RMSU=  6.15D-08    CP:  6.20D-01  6.04D-01  7.06D-01  8.66D-01  9.92D-01
                    CP:  1.18D+00  1.27D+00  1.30D+00  1.39D+00  1.23D+00
                    CP:  1.50D+00  1.22D+00
 E= -440.142188545102     Delta-E=       -0.000000000093 Rises=F Damp=F
 DIIS: error= 2.03D-07 at cycle  13 NSaved=  13.
 NSaved=13 IEnMin=13 EnMin= -440.142188545102     IErMin=13 ErrMin= 2.03D-07
 ErrMax= 2.03D-07  0.00D+00 EMaxC= 1.00D-01 BMatC= 2.27D-12 BMatP= 2.12D-11
 IDIUse=1 WtCom= 1.00D+00 WtEn= 0.00D+00
 Coeff-Com:  0.168D-06 0.141D-05-0.104D-05-0.505D-04-0.408D-03-0.349D-03
 Coeff-Com:  0.193D-02 0.621D-02-0.950D-03-0.429D-01-0.607D-01 0.232D+00
 Coeff-Com:  0.865D+00
 Coeff:      0.168D-06 0.141D-05-0.104D-05-0.505D-04-0.408D-03-0.349D-03
 Coeff:      0.193D-02 0.621D-02-0.950D-03-0.429D-01-0.607D-01 0.232D+00
 Coeff:      0.865D+00
 Gap=     0.338 Goal=   None    Shift=    0.000
 RMSDP=4.96D-08 MaxDP=1.89D-06 DE=-9.27D-11 OVMax= 2.01D-06

 Cycle  14  Pass 1  IDiag  1:
 RMSU=  2.67D-08    CP:  6.20D-01  6.04D-01  7.06D-01  8.66D-01  9.92D-01
                    CP:  1.18D+00  1.27D+00  1.30D+00  1.39D+00  1.23D+00
                    CP:  1.53D+00  1.31D+00  1.41D+00
 E= -440.142188545103     Delta-E=       -0.000000000001 Rises=F Damp=F
 DIIS: error= 6.47D-08 at cycle  14 NSaved=  14.
 NSaved=14 IEnMin=14 EnMin= -440.142188545103     IErMin=14 ErrMin= 6.47D-08
 ErrMax= 6.47D-08  0.00D+00 EMaxC= 1.00D-01 BMatC= 4.58D-13 BMatP= 2.27D-12
 IDIUse=1 WtCom= 1.00D+00 WtEn= 0.00D+00
 Coeff-Com:  0.126D-06 0.311D-05 0.408D-05 0.645D-06-0.118D-04-0.581D-04
 Coeff-Com: -0.448D-03 0.154D-03 0.355D-02 0.639D-02-0.204D-01-0.117D+00
 Coeff-Com:  0.242D+00 0.886D+00
 Coeff:      0.126D-06 0.311D-05 0.408D-05 0.645D-06-0.118D-04-0.581D-04
 Coeff:     -0.448D-03 0.154D-03 0.355D-02 0.639D-02-0.204D-01-0.117D+00
 Coeff:      0.242D+00 0.886D+00
 Gap=     0.338 Goal=   None    Shift=    0.000
 RMSDP=2.05D-08 MaxDP=9.01D-07 DE=-1.48D-12 OVMax= 8.77D-07

 Cycle  15  Pass 1  IDiag  1:
 RMSU=  7.46D-09    CP:  6.20D-01  6.04D-01  7.06D-01  8.66D-01  9.92D-01
                    CP:  1.18D+00  1.27D+00  1.30D+00  1.39D+00  1.23D+00
                    CP:  1.53D+00  1.34D+00  1.61D+00  1.29D+00
 E= -440.142188545110     Delta-E=       -0.000000000007 Rises=F Damp=F
 DIIS: error= 2.78D-08 at cycle  15 NSaved=  15.
 NSaved=15 IEnMin=15 EnMin= -440.142188545110     IErMin=15 ErrMin= 2.78D-08
 ErrMax= 2.78D-08  0.00D+00 EMaxC= 1.00D-01 BMatC= 4.66D-14 BMatP= 4.58D-13
 IDIUse=1 WtCom= 1.00D+00 WtEn= 0.00D+00
 Coeff-Com: -0.140D-07 0.643D-09 0.282D-06 0.739D-05 0.663D-04 0.512D-04
 Coeff-Com: -0.355D-03-0.864D-03 0.610D-03 0.694D-02 0.813D-02-0.492D-01
 Coeff-Com: -0.942D-01 0.754D-01 0.105D+01
 Coeff:     -0.140D-07 0.643D-09 0.282D-06 0.739D-05 0.663D-04 0.512D-04
 Coeff:     -0.355D-03-0.864D-03 0.610D-03 0.694D-02 0.813D-02-0.492D-01
 Coeff:     -0.942D-01 0.754D-01 0.105D+01
 Gap=     0.338 Goal=   None    Shift=    0.000
 RMSDP=7.96D-09 MaxDP=3.48D-07 DE=-6.82D-12 OVMax= 3.82D-07

 SCF Done:  E(RwB97XD) =  -440.142188545     A.U. after   15 cycles
            NFock= 15  Conv=0.80D-08     -V/T= 2.0002
 KE= 4.400608169887D+02 PE=-2.014637615313D+03 EE= 6.403475078431D+02
 Leave Link  502 at Tue Nov 22 19:12:38 2022, MaxMem= 16106127360 cpu:             645.2 elap:              20.4
 (Enter /opt/ap/G16/B01/g16/l601.exe)
 Copying SCF densities to generalized density rwf, IOpCl= 0 IROHF=0.

 **********************************************************************

            Population analysis using the SCF Density.

 **********************************************************************

 Orbital symmetries:
       Occupied  (A) (A) (A) (A) (A) (A) (A) (A) (A) (A) (A) (A)
                 (A) (A) (A) (A) (A) (A) (A) (A) (A) (A) (A) (A)
                 (A) (A) (A) (A) (A) (A) (A) (A) (A) (A) (A) (A)
       Virtual   (A) (A) (A) (A) (A) (A) (A) (A) (A) (A) (A) (A)
                 (A) (A) (A) (A) (A) (A) (A) (A) (A) (A) (A) (A)
                 (A) (A) (A) (A) (A) (A) (A) (A) (A) (A) (A) (A)
                 (A) (A) (A) (A) (A) (A) (A) (A) (A) (A) (A) (A)
                 (A) (A) (A) (A) (A) (A) (A) (A) (A) (A) (A) (A)
                 (A) (A) (A) (A) (A) (A) (A) (A) (A) (A) (A) (A)
                 (A) (A) (A) (A) (A) (A) (A) (A) (A) (A) (A) (A)
                 (A) (A) (A) (A) (A) (A) (A) (A) (A) (A) (A) (A)
                 (A) (A) (A) (A) (A) (A) (A) (A) (A) (A) (A) (A)
                 (A) (A) (A) (A) (A) (A) (A) (A) (A) (A) (A) (A)
                 (A) (A) (A) (A) (A) (A) (A) (A) (A) (A) (A) (A)
                 (A) (A) (A) (A) (A) (A) (A) (A) (A) (A) (A) (A)
                 (A) (A) (A) (A) (A) (A) (A) (A) (A) (A) (A) (A)
                 (A) (A) (A) (A) (A) (A) (A) (A) (A) (A) (A) (A)
                 (A) (A) (A) (A) (A) (A) (A) (A) (A) (A) (A) (A)
                 (A) (A) (A) (A) (A) (A) (A) (A) (A) (A) (A) (A)
                 (A) (A) (A) (A) (A) (A) (A) (A) (A) (A) (A) (A)
                 (A) (A) (A) (A) (A) (A) (A) (A) (A) (A) (A) (A)
                 (A) (A) (A) (A) (A) (A) (A) (A) (A) (A) (A) (A)
                 (A) (A) (A) (A) (A) (A) (A) (A) (A) (A) (A) (A)
                 (A) (A) (A) (A) (A) (A)
 The electronic state is 1-A.
 Alpha  occ. eigenvalues --  -19.21568 -14.47266 -10.40151 -10.33725 -10.28167
 Alpha  occ. eigenvalues --  -10.28011 -10.27440 -10.27150 -10.26454 -10.26121
 Alpha  occ. eigenvalues --   -1.15013  -1.06374  -0.96138  -0.88652  -0.86171
 Alpha  occ. eigenvalues --   -0.84514  -0.74583  -0.73185  -0.69273  -0.65630
 Alpha  occ. eigenvalues --   -0.60837  -0.59311  -0.56418  -0.55049  -0.53554
 Alpha  occ. eigenvalues --   -0.52659  -0.51334  -0.50285  -0.49795  -0.45709
 Alpha  occ. eigenvalues --   -0.45004  -0.44246  -0.39460  -0.34212  -0.33242
 Alpha  occ. eigenvalues --   -0.30512
 Alpha virt. eigenvalues --    0.03251   0.04460   0.04604   0.05314   0.05479
 Alpha virt. eigenvalues --    0.06343   0.07079   0.07681   0.08630   0.09133
 Alpha virt. eigenvalues --    0.10805   0.11216   0.11685   0.12059   0.13504
 Alpha virt. eigenvalues --    0.14188   0.14769   0.15682   0.15743   0.16122
 Alpha virt. eigenvalues --    0.16912   0.17499   0.17758   0.18291   0.18973
 Alpha virt. eigenvalues --    0.19316   0.19666   0.19910   0.20450   0.21052
 Alpha virt. eigenvalues --    0.21634   0.22080   0.22511   0.23336   0.23774
 Alpha virt. eigenvalues --    0.24584   0.25107   0.25510   0.26325   0.26768
 Alpha virt. eigenvalues --    0.27287   0.27842   0.27921   0.29355   0.30794
 Alpha virt. eigenvalues --    0.31446   0.31844   0.32752   0.33650   0.34410
 Alpha virt. eigenvalues --    0.35356   0.36019   0.36839   0.37508   0.38021
 Alpha virt. eigenvalues --    0.38501   0.39006   0.39316   0.40540   0.41548
 Alpha virt. eigenvalues --    0.42786   0.43358   0.44623   0.45757   0.46596
 Alpha virt. eigenvalues --    0.48079   0.49558   0.51952   0.53786   0.55358
 Alpha virt. eigenvalues --    0.58677   0.59254   0.60622   0.62012   0.64420
 Alpha virt. eigenvalues --    0.64673   0.64971   0.65774   0.66987   0.67662
 Alpha virt. eigenvalues --    0.67886   0.68189   0.71248   0.71591   0.73113
 Alpha virt. eigenvalues --    0.75170   0.76387   0.77013   0.77596   0.79784
 Alpha virt. eigenvalues --    0.82167   0.82780   0.83280   0.84934   0.86200
 Alpha virt. eigenvalues --    0.87671   0.91064   0.92335   0.93252   0.93696
 Alpha virt. eigenvalues --    0.94497   0.95631   0.96386   0.97448   0.98297
 Alpha virt. eigenvalues --    1.00555   1.01138   1.03981   1.05299   1.06475
 Alpha virt. eigenvalues --    1.07777   1.10074   1.10673   1.11185   1.14414
 Alpha virt. eigenvalues --    1.17403   1.18032   1.19599   1.21866   1.22811
 Alpha virt. eigenvalues --    1.24529   1.30373   1.34236   1.35191   1.37252
 Alpha virt. eigenvalues --    1.39821   1.44157   1.47079   1.52633   1.54300
 Alpha virt. eigenvalues --    1.57729   1.60598   1.62242   1.63411   1.65745
 Alpha virt. eigenvalues --    1.66827   1.67276   1.67597   1.68349   1.69270
 Alpha virt. eigenvalues --    1.69712   1.73365   1.76212   1.76672   1.79578
 Alpha virt. eigenvalues --    1.80829   1.86317   1.88060   1.89144   1.90483
 Alpha virt. eigenvalues --    1.94031   1.95807   1.96327   1.97843   2.00844
 Alpha virt. eigenvalues --    2.01893   2.02275   2.05034   2.06943   2.08112
 Alpha virt. eigenvalues --    2.10824   2.11157   2.12281   2.13354   2.17474
 Alpha virt. eigenvalues --    2.21756   2.25996   2.29558   2.34614   2.35578
 Alpha virt. eigenvalues --    2.39379   2.41992   2.44454   2.52151   2.53256
 Alpha virt. eigenvalues --    2.53963   2.56421   2.60038   2.61000   2.62625
 Alpha virt. eigenvalues --    2.65092   2.67714   2.69560   2.73939   2.77946
 Alpha virt. eigenvalues --    2.78301   2.81430   2.82052   2.82959   2.85565
 Alpha virt. eigenvalues --    2.87867   2.90950   2.91302   2.92782   2.94064
 Alpha virt. eigenvalues --    2.96350   2.97409   2.98581   2.99826   3.01007
 Alpha virt. eigenvalues --    3.03197   3.04483   3.05322   3.09492   3.17056
 Alpha virt. eigenvalues --    3.19826   3.22787   3.24740   3.28294   3.33883
 Alpha virt. eigenvalues --    3.42807   3.44606   3.46219   3.50195   3.54046
 Alpha virt. eigenvalues --    3.63376   3.68843   3.72514   3.77841   3.93593
 Alpha virt. eigenvalues --    4.00106   4.03243   4.06210   4.12155   4.18452
 Alpha virt. eigenvalues --    4.31236   4.35049   4.39238   4.41330   4.47929
 Alpha virt. eigenvalues --    4.96769   5.18236   5.19704   5.22949   5.42188
 Alpha virt. eigenvalues --    5.93723  23.89050  23.99439  24.15079  24.23552
 Alpha virt. eigenvalues --   24.30545  24.34193  24.38093  24.43593  35.88155
 Alpha virt. eigenvalues --   50.16492
          Condensed to atoms (all electrons):
               1          2          3          4          5          6
     1  C    9.227679  -0.477781  -0.449509   0.208155  -0.121968  -0.348361
     2  C   -0.477781   9.429687  -3.256317   0.293936   0.499051  -0.301600
     3  C   -0.449509  -3.256317   9.216138   0.095689  -0.046157   0.394283
     4  C    0.208155   0.293936   0.095689   5.383716  -0.030629  -0.058613
     5  H   -0.121968   0.499051  -0.046157  -0.030629   0.533684  -0.001373
     6  N   -0.348361  -0.301600   0.394283  -0.058613  -0.001373   7.260924
     7  C   -1.533865   1.398661  -1.045826  -0.481609   0.038783   0.112847
     8  H   -0.091814  -0.115040   0.635394   0.007640  -0.002659   0.006348
     9  C   -0.440738  -0.565116   0.127336   0.395401  -0.004009   0.092021
    10  H    0.068359  -0.124309   0.029940   0.456007  -0.018931  -0.005704
    11  C   -0.061649  -0.223087   0.155692   0.046197   0.000508   0.222636
    12  H   -0.053058   0.041046  -0.032711  -0.010852  -0.004219   0.365523
    13  H    0.071699   0.044382  -0.066914   0.005815   0.001509  -0.009550
    14  H   -0.007612  -0.013283   0.002282  -0.062606  -0.000151   0.003013
    15  C    0.367393  -0.047047  -0.376861   0.047276  -0.002987  -0.534859
    16  O   -0.143026  -0.007584   0.041899  -0.004513   0.000175  -0.086716
    17  H   -0.031560  -0.005316   0.020805  -0.000661   0.000303   0.004050
    18  H   -0.020490   0.003789   0.007552  -0.000445   0.000243   0.004691
    19  H    0.027595  -0.017333   0.009373   0.001229   0.001606   0.011950
               7          8          9         10         11         12
     1  C   -1.533865  -0.091814  -0.440738   0.068359  -0.061649  -0.053058
     2  C    1.398661  -0.115040  -0.565116  -0.124309  -0.223087   0.041046
     3  C   -1.045826   0.635394   0.127336   0.029940   0.155692  -0.032711
     4  C   -0.481609   0.007640   0.395401   0.456007   0.046197  -0.010852
     5  H    0.038783  -0.002659  -0.004009  -0.018931   0.000508  -0.004219
     6  N    0.112847   0.006348   0.092021  -0.005704   0.222636   0.365523
     7  C    7.308024  -0.117430   0.737173  -0.047490  -0.333812   0.006385
     8  H   -0.117430   0.463435   0.041001  -0.000019  -0.035854   0.002295
     9  C    0.737173   0.041001   5.703959  -0.047621  -0.060454   0.001503
    10  H   -0.047490  -0.000019  -0.047621   0.496418   0.002925   0.001540
    11  C   -0.333812  -0.035854  -0.060454   0.002925   6.182096   0.015846
    12  H    0.006385   0.002295   0.001503   0.001540   0.015846   0.377945
    13  H    0.374897  -0.019434  -0.112150  -0.000038   0.016085  -0.000169
    14  H   -0.045758   0.002902   0.479541  -0.011308  -0.004755  -0.000050
    15  C   -0.170707  -0.023176  -0.045234   0.001839  -0.599801  -0.015223
    16  O   -0.004348  -0.012173  -0.009147   0.000024   0.482119   0.006044
    17  H    0.001784  -0.000579   0.000274  -0.000042  -0.030027  -0.002424
    18  H    0.002582  -0.001335   0.000038  -0.000009  -0.015761  -0.000302
    19  H   -0.005820   0.001032   0.000801  -0.000200  -0.047991  -0.006549
              13         14         15         16         17         18
     1  C    0.071699  -0.007612   0.367393  -0.143026  -0.031560  -0.020490
     2  C    0.044382  -0.013283  -0.047047  -0.007584  -0.005316   0.003789
     3  C   -0.066914   0.002282  -0.376861   0.041899   0.020805   0.007552
     4  C    0.005815  -0.062606   0.047276  -0.004513  -0.000661  -0.000445
     5  H    0.001509  -0.000151  -0.002987   0.000175   0.000303   0.000243
     6  N   -0.009550   0.003013  -0.534859  -0.086716   0.004050   0.004691
     7  C    0.374897  -0.045758  -0.170707  -0.004348   0.001784   0.002582
     8  H   -0.019434   0.002902  -0.023176  -0.012173  -0.000579  -0.001335
     9  C   -0.112150   0.479541  -0.045234  -0.009147   0.000274   0.000038
    10  H   -0.000038  -0.011308   0.001839   0.000024  -0.000042  -0.000009
    11  C    0.016085  -0.004755  -0.599801   0.482119  -0.030027  -0.015761
    12  H   -0.000169  -0.000050  -0.015223   0.006044  -0.002424  -0.000302
    13  H    0.495934  -0.015070   0.005820   0.002739   0.000035   0.000082
    14  H   -0.015070   0.498428  -0.001524  -0.000038   0.000007  -0.000000
    15  C    0.005820  -0.001524   6.821699   0.025263   0.414897   0.404924
    16  O    0.002739  -0.000038   0.025263   8.069604  -0.008342  -0.009566
    17  H    0.000035   0.000007   0.414897  -0.008342   0.497648  -0.031562
    18  H    0.000082  -0.000000   0.404924  -0.009566  -0.031562   0.497971
    19  H   -0.000088   0.000024   0.357063   0.009852  -0.024747  -0.031947
              19
     1  C    0.027595
     2  C   -0.017333
     3  C    0.009373
     4  C    0.001229
     5  H    0.001606
     6  N    0.011950
     7  C   -0.005820
     8  H    0.001032
     9  C    0.000801
    10  H   -0.000200
    11  C   -0.047991
    12  H   -0.006549
    13  H   -0.000088
    14  H    0.000024
    15  C    0.357063
    16  O    0.009852
    17  H   -0.024747
    18  H   -0.031947
    19  H    0.590362
 Mulliken charges:
               1
     1  C   -0.189448
     2  C   -0.556738
     3  C    0.537912
     4  C   -0.291132
     5  H    0.157220
     6  N   -0.131511
     7  C   -0.194469
     8  H    0.259466
     9  C   -0.294577
    10  H    0.198619
    11  C    0.289086
    12  H    0.307431
    13  H    0.204416
    14  H    0.175958
    15  C   -0.628757
    16  O   -0.352267
    17  H    0.195456
    18  H    0.189544
    19  H    0.123790
 Sum of Mulliken charges =  -0.00000
 Mulliken charges with hydrogens summed into heavy atoms:
               1
     1  C   -0.189448
     2  C   -0.399518
     3  C    0.797377
     4  C   -0.092512
     6  N    0.175920
     7  C    0.009948
     9  C   -0.118619
    11  C    0.289086
    15  C   -0.119967
    16  O   -0.352267
 Electronic spatial extent (au):  <R**2>=           1649.1926
 Charge=             -0.0000 electrons
 Dipole moment (field-independent basis, Debye):
    X=              0.3787    Y=             -3.6580    Z=             -0.3651  Tot=              3.6956
 Quadrupole moment (field-independent basis, Debye-Ang):
   XX=            -49.9297   YY=            -55.8235   ZZ=            -61.7959
   XY=             -7.9205   XZ=             -0.7116   YZ=             -0.3645
 Traceless Quadrupole moment (field-independent basis, Debye-Ang):
   XX=              5.9200   YY=              0.0262   ZZ=             -5.9462
   XY=             -7.9205   XZ=             -0.7116   YZ=             -0.3645
 Octapole moment (field-independent basis, Debye-Ang**2):
  XXX=             19.4904  YYY=            -10.4086  ZZZ=              0.4844  XYY=             -8.5686
  XXY=            -15.2301  XXZ=             -1.1604  XZZ=             13.3351  YZZ=              0.9559
  YYZ=             -1.5058  XYZ=              0.2459
 Hexadecapole moment (field-independent basis, Debye-Ang**3):
 XXXX=          -1543.7619 YYYY=           -378.9267 ZZZZ=            -74.4229 XXXY=            -30.2773
 XXXZ=             -1.9446 YYYX=            -23.1318 YYYZ=             -0.1941 ZZZX=              1.9537
 ZZZY=              0.6301 XXYY=           -352.8553 XXZZ=           -311.4105 YYZZ=            -86.6108
 XXYZ=             -3.9590 YYXZ=             -3.9650 ZZXY=              1.2697
 N-N= 4.940871019357D+02 E-N=-2.014637613460D+03  KE= 4.400608169887D+02
 No NMR shielding tensors so no spin-rotation constants.
 Leave Link  601 at Tue Nov 22 19:12:38 2022, MaxMem= 16106127360 cpu:               3.9 elap:               0.1
 (Enter /opt/ap/G16/B01/g16/l9999.exe)
 1\1\GINC-N36\SP\RwB97XD\6-311++G(d,p)\C8H9N1O1\ROOT\22-Nov-2022\0\\#P 
 wB97XD/6-311++G(d,p) scf=maxcycle=512\\_conf038.gjf nmol_natom 1_19\\0
 ,1\C\C,1,1.39447505\C,1,1.39873503,2,119.56697224\C,2,1.39066123,1,119
 .42697207,3,2.53915756,0\H,2,0.96213008,1,119.8046163,3,-177.79870417,
 0\N,1,1.41693372,2,123.72220125,4,-177.74604849,0\C,3,1.38667133,1,120
 .18759987,2,-2.5020857,0\H,3,0.95673174,1,118.82085988,2,177.96737168,
 0\C,4,1.38268572,2,121.03929493,1,-0.41221113,0\H,4,0.9858595,2,118.57
 91267,1,178.77373233,0\C,6,1.35500692,1,127.62132737,2,-170.,0\H,6,0.8
 9609466,1,115.10511997,2,10.,0\H,7,0.98847198,3,119.08117704,1,-179.64
 585354,0\H,9,0.98451201,4,120.53755637,2,177.22743544,0\C,11,1.5027456
 1,6,115.46861532,1,175.89235465,0\O,11,1.23496495,6,123.15099888,1,-3.
 40672617,0\H,15,0.98719837,11,107.47091875,6,-116.36962839,0\H,15,0.99
 976021,11,109.69443261,6,128.85346087,0\H,15,0.97696155,11,114.3700887
 1,6,6.05302844,0\\Version=ES64L-G16RevB.01\State=1-A\HF=-440.1421885\R
 MSD=7.960e-09\Dipole=-1.1473054,0.1783974,0.8751348\Quadrupole=7.98696
 34,-4.4849218,-3.5020416,0.2003696,2.478331,-0.4698045\PG=C01 [X(C8H9N
 1O1)]\\@


 THE ONLY EXISTING THINGS ARE ATOMS AND EMPTY SPACE;
 ALL ELSE IS MERE OPINION. -- DEMOCRITUS OF ABDERA D. 370 B.C.
 EXPERIMENTS ARE THE ONLY MEANS OF KNOWLEDGE AT OUR DISPOSAL
 THE REST IS POETRY, IMAGINATION. -- MAX PLANCK
 Job cpu time:       0 days  0 hours 11 minutes 24.2 seconds.
 Elapsed time:       0 days  0 hours  0 minutes 21.7 seconds.
 File lengths (MBytes):  RWF=     46 Int=      0 D2E=      0 Chk=      6 Scr=      1
 Normal termination of Gaussian 16 at Tue Nov 22 19:12:38 2022.
