 Entering Gaussian System, Link 0=g16
 Input=_conf056.gjf
 Output=_conf056.log
 Initial command:
 /opt/ap/G16/B01/g16/l1.exe "/tmp2/scr/Gau-7713.inp" -scrdir="/tmp2/scr/"
 Entering Link 1 = /opt/ap/G16/B01/g16/l1.exe PID=      7714.
  
 Copyright (c) 1988-2017, Gaussian, Inc.  All Rights Reserved.
  
 This is part of the Gaussian(R) 16 program.  It is based on
 the Gaussian(R) 09 system (copyright 2009, Gaussian, Inc.),
 the Gaussian(R) 03 system (copyright 2003, Gaussian, Inc.),
 the Gaussian(R) 98 system (copyright 1998, Gaussian, Inc.),
 the Gaussian(R) 94 system (copyright 1995, Gaussian, Inc.),
 the Gaussian 92(TM) system (copyright 1992, Gaussian, Inc.),
 the Gaussian 90(TM) system (copyright 1990, Gaussian, Inc.),
 the Gaussian 88(TM) system (copyright 1988, Gaussian, Inc.),
 the Gaussian 86(TM) system (copyright 1986, Carnegie Mellon
 University), and the Gaussian 82(TM) system (copyright 1983,
 Carnegie Mellon University). Gaussian is a federally registered
 trademark of Gaussian, Inc.
  
 This software contains proprietary and confidential information,
 including trade secrets, belonging to Gaussian, Inc.
  
 This software is provided under written license and may be
 used, copied, transmitted, or stored only in accord with that
 written license.
  
 The following legend is applicable only to US Government
 contracts under FAR:
  
                    RESTRICTED RIGHTS LEGEND
  
 Use, reproduction and disclosure by the US Government is
 subject to restrictions as set forth in subparagraphs (a)
 and (c) of the Commercial Computer Software - Restricted
 Rights clause in FAR 52.227-19.
  
 Gaussian, Inc.
 340 Quinnipiac St., Bldg. 40, Wallingford CT 06492
  
  
 ---------------------------------------------------------------
 Warning -- This program may not be used in any manner that
 competes with the business of Gaussian, Inc. or will provide
 assistance to any competitor of Gaussian, Inc.  The licensee
 of this program is prohibited from giving any competitor of
 Gaussian, Inc. access to this program.  By using this program,
 the user acknowledges that Gaussian, Inc. is engaged in the
 business of creating and licensing software in the field of
 computational chemistry and represents and warrants to the
 licensee that it is not a competitor of Gaussian, Inc. and that
 it will not use this program in any manner prohibited above.
 ---------------------------------------------------------------
  

 Cite this work as:
 Gaussian 16, Revision B.01,
 M. J. Frisch, G. W. Trucks, H. B. Schlegel, G. E. Scuseria, 
 M. A. Robb, J. R. Cheeseman, G. Scalmani, V. Barone, 
 G. A. Petersson, H. Nakatsuji, X. Li, M. Caricato, A. V. Marenich, 
 J. Bloino, B. G. Janesko, R. Gomperts, B. Mennucci, H. P. Hratchian, 
 J. V. Ortiz, A. F. Izmaylov, J. L. Sonnenberg, D. Williams-Young, 
 F. Ding, F. Lipparini, F. Egidi, J. Goings, B. Peng, A. Petrone, 
 T. Henderson, D. Ranasinghe, V. G. Zakrzewski, J. Gao, N. Rega, 
 G. Zheng, W. Liang, M. Hada, M. Ehara, K. Toyota, R. Fukuda, 
 J. Hasegawa, M. Ishida, T. Nakajima, Y. Honda, O. Kitao, H. Nakai, 
 T. Vreven, K. Throssell, J. A. Montgomery, Jr., J. E. Peralta, 
 F. Ogliaro, M. J. Bearpark, J. J. Heyd, E. N. Brothers, K. N. Kudin, 
 V. N. Staroverov, T. A. Keith, R. Kobayashi, J. Normand, 
 K. Raghavachari, A. P. Rendell, J. C. Burant, S. S. Iyengar, 
 J. Tomasi, M. Cossi, J. M. Millam, M. Klene, C. Adamo, R. Cammi, 
 J. W. Ochterski, R. L. Martin, K. Morokuma, O. Farkas, 
 J. B. Foresman, and D. J. Fox, Gaussian, Inc., Wallingford CT, 2016.
 
 ******************************************
 Gaussian 16:  ES64L-G16RevB.01 20-Dec-2017
                22-Nov-2022 
 ******************************************
 %nprocshared=32
 Will use up to   32 processors via shared memory.
 %mem=120GB
 %chk=_conf056.chk
 ----------------------------------------
 #P wB97XD/6-311++G(d,p) scf=maxcycle=512
 ----------------------------------------
 1/38=1,172=1/1;
 2/12=2,17=6,18=5,40=1/2;
 3/5=4,6=6,7=1111,11=2,25=1,30=1,74=-58/1,2,3;
 4//1;
 5/5=2,7=512,38=5/2;
 6/7=2,8=2,9=2,10=2,28=1/1;
 99/5=1,9=1/99;
 Leave Link    1 at Tue Nov 22 19:14:06 2022, MaxMem= 16106127360 cpu:               1.8 elap:               0.1
 (Enter /opt/ap/G16/B01/g16/l101.exe)
 ----------------------------
 _conf056.gjf nmol_natom 1_19
 ----------------------------
 Symbolic Z-matrix:
 Charge =  0 Multiplicity = 1
 C
 C                    1     1.39448 
 C                    1     1.39874  2     119.56697 
 C                    2     1.39066  1     119.42697  3     2.53916  0
 H                    2     0.96213  1     119.80462  3    -177.7987  0
 N                    1     1.41693  2     123.7222  4    -177.74605  0
 C                    3     1.38667  1     120.1876  2    -2.50209  0
 H                    3     0.95673  1     118.82086  2     177.96737  0
 C                    4     1.38269  2     121.03929  1    -0.41221  0
 H                    4     0.98586  2     118.57913  1     178.77373  0
 C                    6     1.35501  1     127.62133  2    -80.      0
 H                    6     0.89609  1     115.10512  2     100.     0
 H                    7     0.98847  3     119.08118  1    -179.64585  0
 H                    9     0.98451  4     120.53756  2     177.22744  0
 C                    11    1.50275  6     115.46862  1     175.89235  0
 O                    11    1.23496  6     123.151  1    -3.40673  0
 H                    15    0.9872   11    107.47092  6    -116.36963  0
 H                    15    0.99976  11    109.69443  6     128.85346  0
 H                    15    0.97696  11    114.37009  6     6.05303  0
 
 ITRead=  0  0  0  0  0  0  0  0  0  0  0  0  0  0  0  0  0  0  0
 MicOpt= -1 -1 -1 -1 -1 -1 -1 -1 -1 -1 -1 -1 -1 -1 -1 -1 -1 -1 -1
 NAtoms=     19 NQM=       19 NQMF=       0 NMMI=      0 NMMIF=      0
                NMic=       0 NMicF=      0.
                    Isotopes and Nuclear Properties:
 (Nuclear quadrupole moments (NQMom) in fm**2, nuclear magnetic moments (NMagM)
  in nuclear magnetons)

  Atom         1           2           3           4           5           6           7           8           9          10
 IAtWgt=          12          12          12          12           1          14          12           1          12           1
 AtmWgt=  12.0000000  12.0000000  12.0000000  12.0000000   1.0078250  14.0030740  12.0000000   1.0078250  12.0000000   1.0078250
 NucSpn=           0           0           0           0           1           2           0           1           0           1
 AtZEff=  -0.0000000  -0.0000000  -0.0000000  -0.0000000  -0.0000000  -0.0000000  -0.0000000  -0.0000000  -0.0000000  -0.0000000
 NQMom=    0.0000000   0.0000000   0.0000000   0.0000000   0.0000000   2.0440000   0.0000000   0.0000000   0.0000000   0.0000000
 NMagM=    0.0000000   0.0000000   0.0000000   0.0000000   2.7928460   0.4037610   0.0000000   2.7928460   0.0000000   2.7928460
 AtZNuc=   6.0000000   6.0000000   6.0000000   6.0000000   1.0000000   7.0000000   6.0000000   1.0000000   6.0000000   1.0000000

  Atom        11          12          13          14          15          16          17          18          19
 IAtWgt=          12           1           1           1          12          16           1           1           1
 AtmWgt=  12.0000000   1.0078250   1.0078250   1.0078250  12.0000000  15.9949146   1.0078250   1.0078250   1.0078250
 NucSpn=           0           1           1           1           0           0           1           1           1
 AtZEff=  -0.0000000  -0.0000000  -0.0000000  -0.0000000  -0.0000000  -0.0000000  -0.0000000  -0.0000000  -0.0000000
 NQMom=    0.0000000   0.0000000   0.0000000   0.0000000   0.0000000   0.0000000   0.0000000   0.0000000   0.0000000
 NMagM=    0.0000000   2.7928460   2.7928460   2.7928460   0.0000000   0.0000000   2.7928460   2.7928460   2.7928460
 AtZNuc=   6.0000000   1.0000000   1.0000000   1.0000000   6.0000000   8.0000000   1.0000000   1.0000000   1.0000000
 Leave Link  101 at Tue Nov 22 19:14:06 2022, MaxMem= 16106127360 cpu:               5.1 elap:               0.2
 (Enter /opt/ap/G16/B01/g16/l202.exe)
                          Input orientation:                          
 ---------------------------------------------------------------------
 Center     Atomic      Atomic             Coordinates (Angstroms)
 Number     Number       Type             X           Y           Z
 ---------------------------------------------------------------------
      1          6           0        0.000000    0.000000    0.000000
      2          6           0        0.000000    0.000000    1.394475
      3          6           0        1.216591    0.000000   -0.690193
      4          6           0        1.210053    0.053661    2.077726
      5          1           0       -0.834249   -0.032067    1.872696
      6          7           0       -1.178505   -0.005866   -0.786634
      7          6           0        2.413939    0.052326    0.007287
      8          1           0        1.204393   -0.029731   -1.646384
      9          6           0        2.412261    0.098442    1.396177
     10          1           0        1.194755    0.071528    3.063305
     11          6           0       -1.964672   -1.066738   -1.090831
     12          1           0       -1.420477    0.792053   -1.114903
     13          1           0        3.263999    0.056828   -0.497149
     14          1           0        3.262484    0.177260    1.886251
     15          6           0       -3.208707   -0.746597   -1.870659
     16          8           0       -1.700560   -2.223368   -0.747919
     17          1           0       -3.982296   -0.980916   -1.303900
     18          1           0       -3.265563   -1.340375   -2.672979
     19          1           0       -3.275456    0.184533   -2.158749
 ---------------------------------------------------------------------
                    Distance matrix (angstroms):
                    1          2          3          4          5
     1  C    0.000000
     2  C    1.394475   0.000000
     3  C    1.398735   2.413697   0.000000
     4  C    2.405006   1.390661   2.768447   0.000000
     5  H    2.050363   0.962130   3.282586   2.056345   0.000000
     6  N    1.416934   2.479142   2.397044   3.730055   2.681648
     7  C    2.414517   2.784624   1.386671   2.395008   3.746678
     8  H    2.040105   3.270821   0.956732   3.725048   4.066939
     9  C    2.788908   2.414270   2.406711   1.382686   3.283889
    10  H    3.288829   2.053668   3.754243   0.985860   2.354812
    11  C    2.487525   3.342845   3.379183   4.623194   3.336300
    12  H    1.971829   2.990331   2.786010   4.202117   3.154138
    13  H    3.302132   3.772951   2.057273   3.293734   4.734944
    14  H    3.772687   3.304099   3.294718   2.065046   4.102100
    15  C    3.788479   4.638352   4.640493   5.979598   4.490135
    16  O    2.897353   3.524929   3.668306   4.651967   3.524190
    17  H    4.303607   4.909389   5.326092   6.282215   4.571791
    18  H    4.427790   5.385600   5.081117   6.674104   5.318469
    19  H    3.927195   4.836121   4.729608   6.171275   4.717940
                    6          7          8          9         10
     6  N    0.000000
     7  C    3.679585   0.000000
     8  H    2.533365   2.050454   0.000000
     9  C    4.203468   1.389657   3.276058   0.000000
    10  H    4.523316   3.290292   4.710788   2.064548   0.000000
    11  C    1.355007   4.650850   3.380384   5.167243   5.341768
    12  H    0.896095   4.063157   2.801382   4.634275   4.981568
    13  H    4.452366   0.988472   2.360129   2.076505   4.118108
    14  H    5.186544   2.065465   4.093666   0.984512   2.381625
    15  C    2.417750   5.981564   4.476567   6.556035   6.663619
    16  O    2.278455   4.762166   3.749405   5.186834   5.307997
    17  H    3.013226   6.610493   5.284296   7.024656   6.854340
    18  H    3.113683   6.432743   4.769926   7.132034   7.402220
    19  H    2.513196   6.089204   4.514141   6.707834   6.874984
                   11         12         13         14         15
    11  C    0.000000
    12  H    1.936964   0.000000
    13  H    5.380879   4.781891   0.000000
    14  H    6.142778   5.595982   2.386441   0.000000
    15  C    1.502746   2.477172   6.665429   7.539510   0.000000
    16  O    1.234965   3.050555   5.468914   6.110129   2.390796
    17  H    2.030657   3.121227   7.364546   8.000329   0.987198
    18  H    2.066491   3.221675   7.022933   8.105874   0.999760
    19  H    2.103397   2.213514   6.748458   7.688091   0.976962
                   16         17         18         19
    16  O    0.000000
    17  H    2.656900   0.000000
    18  H    2.633395   1.586598   0.000000
    19  H    3.204485   1.608931   1.609308   0.000000
 Stoichiometry    C8H9NO
 Framework group  C1[X(C8H9NO)]
 Deg. of freedom    51
 Full point group                 C1      NOp   1
 Largest Abelian subgroup         C1      NOp   1
 Largest concise Abelian subgroup C1      NOp   1
                         Standard orientation:                         
 ---------------------------------------------------------------------
 Center     Atomic      Atomic             Coordinates (Angstroms)
 Number     Number       Type             X           Y           Z
 ---------------------------------------------------------------------
      1          6           0       -0.287681    0.048316   -0.339063
      2          6           0       -0.958516   -1.174146   -0.327809
      3          6           0       -0.988512    1.222906   -0.046431
      4          6           0       -2.326248   -1.200682   -0.077719
      5          1           0       -0.473301   -1.987484   -0.497346
      6          7           0        1.092551    0.185560   -0.628589
      7          6           0       -2.352010    1.177801    0.201953
      8          1           0       -0.511663    2.052136   -0.028315
      9          6           0       -3.028818   -0.035429    0.168043
     10          1           0       -2.791297   -2.069864   -0.090836
     11          6           0        2.138294   -0.033628    0.204731
     12          1           0        1.281431    0.448678   -1.464100
     13          1           0       -2.832010    2.018460    0.401878
     14          1           0       -4.003632   -0.058274    0.303987
     15          6           0        3.499602    0.103179   -0.416855
     16          8           0        2.002007   -0.339060    1.393543
     17          1           0        3.934948   -0.781841   -0.374733
     18          1           0        4.063673    0.713965    0.138379
     19          1           0        3.491265    0.427898   -1.338235
 ---------------------------------------------------------------------
 Rotational constants (GHZ):           3.7076823           0.7499559           0.7060156
 Leave Link  202 at Tue Nov 22 19:14:06 2022, MaxMem= 16106127360 cpu:               0.5 elap:               0.0
 (Enter /opt/ap/G16/B01/g16/l301.exe)
 Standard basis: 6-311++G(d,p) (5D, 7F)
 Ernie: Thresh=  0.10000D-02 Tol=  0.10000D-05 Strict=F.
 There are   293 symmetry adapted cartesian basis functions of A   symmetry.
 There are   283 symmetry adapted basis functions of A   symmetry.
   283 basis functions,   441 primitive gaussians,   293 cartesian basis functions
    36 alpha electrons       36 beta electrons
       nuclear repulsion energy       490.4048035888 Hartrees.
 IExCor= 4639 DFT=T Ex+Corr=wB97XD ExCW=0 ScaHFX=  1.000000
 ScaDFX=  1.000000  1.000000  1.000000  1.000000 ScalE2=  1.000000  1.000000
 IRadAn=      5 IRanWt=     -1 IRanGd=            0 ICorTp=0 IEmpDi=121
 HFx  wShort=  0.000000 wLong=  0.200000 cFull=  0.222036 cShort=  0.000000 cLong=  0.777964
 DFx  wShort=  0.000000 wLong=  0.200000 cFull=  0.000000 cShort=  0.000000 cLong=  1.000000
 NAtoms=   19 NActive=   19 NUniq=   19 SFac= 1.00D+00 NAtFMM=   60 NAOKFM=F Big=F
 Integral buffers will be    131072 words long.
 Raffenetti 2 integral format.
 Two-electron integral symmetry is turned on.
 R6Disp:  Grimme-D2 Dispersion energy=       -0.0091717186 Hartrees.
 Nuclear repulsion after empirical dispersion term =      490.3956318701 Hartrees.
 Leave Link  301 at Tue Nov 22 19:14:06 2022, MaxMem= 16106127360 cpu:               1.1 elap:               0.0
 (Enter /opt/ap/G16/B01/g16/l302.exe)
 NPDir=0 NMtPBC=     1 NCelOv=     1 NCel=       1 NClECP=     1 NCelD=      1
         NCelK=      1 NCelE2=     1 NClLst=     1 CellRange=     0.0.
 One-electron integrals computed using PRISM.
 One-electron integral symmetry used in STVInt
 NBasis=   283 RedAO= T EigKep=  3.79D-06  NBF=   283
 NBsUse=   282 1.00D-06 EigRej=  8.55D-07 NBFU=   282
 Precomputing XC quadrature grid using
 IXCGrd= 4 IRadAn=           5 IRanWt=          -1 IRanGd=           0 AccXCQ= 0.00D+00.
 Generated NRdTot=       0 NPtTot=           0 NUsed=           0 NTot=          32
 NSgBfM=   293   293   293   293   293 MxSgAt=    19 MxSgA2=    19.
 Leave Link  302 at Tue Nov 22 19:14:06 2022, MaxMem= 16106127360 cpu:               6.5 elap:               0.2
 (Enter /opt/ap/G16/B01/g16/l303.exe)
 DipDrv:  MaxL=1.
 Leave Link  303 at Tue Nov 22 19:14:06 2022, MaxMem= 16106127360 cpu:               1.4 elap:               0.0
 (Enter /opt/ap/G16/B01/g16/l401.exe)
 ExpMin= 3.60D-02 ExpMax= 8.59D+03 ExpMxC= 1.30D+03 IAcc=3 IRadAn=         5 AccDes= 0.00D+00
 Harris functional with IExCor= 4639 and IRadAn=       5 diagonalized for initial guess.
 HarFok:  IExCor= 4639 AccDes= 0.00D+00 IRadAn=         5 IDoV= 1 UseB2=F ITyADJ=14
 ICtDFT=  3500011 ScaDFX=  1.000000  1.000000  1.000000  1.000000
 FoFCou: FMM=F IPFlag=           0 FMFlag=      100000 FMFlg1=           0
         NFxFlg=           0 DoJE=T BraDBF=F KetDBF=T FulRan=T
         wScrn=  0.000000 ICntrl=       500 IOpCl=  0 I1Cent=   200000004 NGrid=           0
         NMat0=    1 NMatS0=      1 NMatT0=    0 NMatD0=    1 NMtDS0=    0 NMtDT0=    0
 Petite list used in FoFCou.
 Harris En= -420.979988406022    
 JPrj=0 DoOrth=F DoCkMO=F.
 Leave Link  401 at Tue Nov 22 19:14:07 2022, MaxMem= 16106127360 cpu:              16.6 elap:               0.5
 (Enter /opt/ap/G16/B01/g16/l502.exe)
 Integral symmetry usage will be decided dynamically.
 Closed shell SCF:
 Using DIIS extrapolation, IDIIS=  1040.
 NGot= 16106127360 LenX= 16105943385 LenY= 16105857095
 Requested convergence on RMS density matrix=1.00D-08 within 512 cycles.
 Requested convergence on MAX density matrix=1.00D-06.
 Requested convergence on             energy=1.00D-06.
 No special actions if energy rises.
 Fock matrices will be formed incrementally for  20 cycles.

 Cycle   1  Pass 1  IDiag  1:
 FoFJK:  IHMeth= 1 ICntrl=       0 DoSepK=T KAlg= 0 I1Cent=           0 FoldK=F
 IRaf=         1 NMat=       1 IRICut=       1 DoRegI=T DoRafI=F ISym2E= 0 IDoP0=0 IntGTp=1.
 FoFCou: FMM=F IPFlag=           0 FMFlag=      100000 FMFlg1=           0
         NFxFlg=           0 DoJE=T BraDBF=F KetDBF=F FulRan=T
         wScrn=  0.000000 ICntrl=       500 IOpCl=  0 I1Cent=           0 NGrid=           0
         NMat0=    1 NMatS0=      1 NMatT0=    0 NMatD0=    1 NMtDS0=    0 NMtDT0=    0
 Symmetry not used in FoFCou.
 E= -439.998213939705    
 DIIS: error= 5.97D-02 at cycle   1 NSaved=   1.
 NSaved= 1 IEnMin= 1 EnMin= -439.998213939705     IErMin= 1 ErrMin= 5.97D-02
 ErrMax= 5.97D-02  0.00D+00 EMaxC= 1.00D-01 BMatC= 9.33D-01 BMatP= 9.33D-01
 IDIUse=3 WtCom= 4.03D-01 WtEn= 5.97D-01
 Coeff-Com:  0.100D+01
 Coeff-En:   0.100D+01
 Coeff:      0.100D+01
 Gap=     0.485 Goal=   None    Shift=    0.000
 GapD=    0.485 DampG=2.000 DampE=0.500 DampFc=1.0000 IDamp=-1.
 RMSDP=1.18D-02 MaxDP=8.92D-01              OVMax= 1.19D-01

 Cycle   2  Pass 1  IDiag  1:
 RMSU=  6.14D-03    CP:  7.10D-01
 E= -440.079733919015     Delta-E=       -0.081519979310 Rises=F Damp=F
 DIIS: error= 1.44D-02 at cycle   2 NSaved=   2.
 NSaved= 2 IEnMin= 2 EnMin= -440.079733919015     IErMin= 2 ErrMin= 1.44D-02
 ErrMax= 1.44D-02  0.00D+00 EMaxC= 1.00D-01 BMatC= 6.95D-02 BMatP= 9.33D-01
 IDIUse=3 WtCom= 8.56D-01 WtEn= 1.44D-01
 Coeff-Com:  0.143D+00 0.857D+00
 Coeff-En:   0.169D+00 0.831D+00
 Coeff:      0.147D+00 0.853D+00
 Gap=     0.403 Goal=   None    Shift=    0.000
 RMSDP=4.12D-03 MaxDP=1.53D-01 DE=-8.15D-02 OVMax= 1.18D-01

 Cycle   3  Pass 1  IDiag  1:
 RMSU=  3.62D-03    CP:  7.25D-01  6.91D-01
 E= -440.105891904989     Delta-E=       -0.026157985974 Rises=F Damp=F
 DIIS: error= 1.28D-02 at cycle   3 NSaved=   3.
 NSaved= 3 IEnMin= 3 EnMin= -440.105891904989     IErMin= 3 ErrMin= 1.28D-02
 ErrMax= 1.28D-02  0.00D+00 EMaxC= 1.00D-01 BMatC= 3.77D-02 BMatP= 6.95D-02
 IDIUse=3 WtCom= 8.72D-01 WtEn= 1.28D-01
 Coeff-Com:  0.263D-01 0.429D+00 0.545D+00
 Coeff-En:   0.000D+00 0.359D+00 0.641D+00
 Coeff:      0.230D-01 0.420D+00 0.557D+00
 Gap=     0.398 Goal=   None    Shift=    0.000
 RMSDP=2.22D-03 MaxDP=9.44D-02 DE=-2.62D-02 OVMax= 5.84D-02

 Cycle   4  Pass 1  IDiag  1:
 RMSU=  6.49D-04    CP:  7.02D-01  8.79D-01  5.60D-01
 E= -440.139013277471     Delta-E=       -0.033121372482 Rises=F Damp=F
 DIIS: error= 2.86D-03 at cycle   4 NSaved=   4.
 NSaved= 4 IEnMin= 4 EnMin= -440.139013277471     IErMin= 4 ErrMin= 2.86D-03
 ErrMax= 2.86D-03  0.00D+00 EMaxC= 1.00D-01 BMatC= 1.59D-03 BMatP= 3.77D-02
 IDIUse=3 WtCom= 9.71D-01 WtEn= 2.86D-02
 Coeff-Com:  0.980D-02 0.200D+00 0.296D+00 0.495D+00
 Coeff-En:   0.000D+00 0.000D+00 0.000D+00 0.100D+01
 Coeff:      0.952D-02 0.194D+00 0.287D+00 0.509D+00
 Gap=     0.374 Goal=   None    Shift=    0.000
 RMSDP=3.46D-04 MaxDP=1.96D-02 DE=-3.31D-02 OVMax= 1.03D-02

 Cycle   5  Pass 1  IDiag  1:
 RMSU=  2.36D-04    CP:  6.96D-01  8.72D-01  5.87D-01  8.63D-01
 E= -440.140239733179     Delta-E=       -0.001226455708 Rises=F Damp=F
 DIIS: error= 6.30D-04 at cycle   5 NSaved=   5.
 NSaved= 5 IEnMin= 5 EnMin= -440.140239733179     IErMin= 5 ErrMin= 6.30D-04
 ErrMax= 6.30D-04  0.00D+00 EMaxC= 1.00D-01 BMatC= 5.51D-05 BMatP= 1.59D-03
 IDIUse=3 WtCom= 9.94D-01 WtEn= 6.30D-03
 Coeff-Com:  0.125D-02 0.276D-01 0.508D-01 0.177D+00 0.744D+00
 Coeff-En:   0.000D+00 0.000D+00 0.000D+00 0.000D+00 0.100D+01
 Coeff:      0.124D-02 0.274D-01 0.504D-01 0.176D+00 0.745D+00
 Gap=     0.370 Goal=   None    Shift=    0.000
 RMSDP=1.38D-04 MaxDP=9.68D-03 DE=-1.23D-03 OVMax= 2.83D-03

 Cycle   6  Pass 1  IDiag  1:
 RMSU=  1.02D-04    CP:  6.97D-01  8.77D-01  5.99D-01  9.45D-01  1.03D+00
 E= -440.140275416926     Delta-E=       -0.000035683747 Rises=F Damp=F
 DIIS: error= 3.08D-04 at cycle   6 NSaved=   6.
 NSaved= 6 IEnMin= 6 EnMin= -440.140275416926     IErMin= 6 ErrMin= 3.08D-04
 ErrMax= 3.08D-04  0.00D+00 EMaxC= 1.00D-01 BMatC= 1.60D-05 BMatP= 5.51D-05
 IDIUse=3 WtCom= 9.97D-01 WtEn= 3.08D-03
 Coeff-Com: -0.104D-02-0.186D-01-0.206D-01 0.830D-02 0.400D+00 0.632D+00
 Coeff-En:   0.000D+00 0.000D+00 0.000D+00 0.000D+00 0.739D-01 0.926D+00
 Coeff:     -0.103D-02-0.185D-01-0.205D-01 0.828D-02 0.399D+00 0.632D+00
 Gap=     0.370 Goal=   None    Shift=    0.000
 RMSDP=5.28D-05 MaxDP=2.51D-03 DE=-3.57D-05 OVMax= 1.02D-03

 Cycle   7  Pass 1  IDiag  1:
 RMSU=  2.84D-05    CP:  6.97D-01  8.77D-01  6.00D-01  9.79D-01  1.16D+00
                    CP:  1.04D+00
 E= -440.140288772850     Delta-E=       -0.000013355924 Rises=F Damp=F
 DIIS: error= 8.86D-05 at cycle   7 NSaved=   7.
 NSaved= 7 IEnMin= 7 EnMin= -440.140288772850     IErMin= 7 ErrMin= 8.86D-05
 ErrMax= 8.86D-05  0.00D+00 EMaxC= 1.00D-01 BMatC= 4.03D-07 BMatP= 1.60D-05
 IDIUse=1 WtCom= 1.00D+00 WtEn= 0.00D+00
 Coeff-Com: -0.303D-03-0.587D-02-0.686D-02-0.123D-01 0.299D-01 0.116D+00
 Coeff-Com:  0.879D+00
 Coeff:     -0.303D-03-0.587D-02-0.686D-02-0.123D-01 0.299D-01 0.116D+00
 Coeff:      0.879D+00
 Gap=     0.370 Goal=   None    Shift=    0.000
 RMSDP=2.22D-05 MaxDP=1.70D-03 DE=-1.34D-05 OVMax= 3.94D-04

 Cycle   8  Pass 1  IDiag  1:
 RMSU=  8.44D-06    CP:  6.97D-01  8.77D-01  6.01D-01  9.93D-01  1.21D+00
                    CP:  1.14D+00  1.20D+00
 E= -440.140289532012     Delta-E=       -0.000000759162 Rises=F Damp=F
 DIIS: error= 1.44D-05 at cycle   8 NSaved=   8.
 NSaved= 8 IEnMin= 8 EnMin= -440.140289532012     IErMin= 8 ErrMin= 1.44D-05
 ErrMax= 1.44D-05  0.00D+00 EMaxC= 1.00D-01 BMatC= 7.76D-08 BMatP= 4.03D-07
 IDIUse=1 WtCom= 1.00D+00 WtEn= 0.00D+00
 Coeff-Com:  0.598D-04 0.772D-03 0.983D-03-0.631D-02-0.536D-01-0.666D-01
 Coeff-Com:  0.265D+00 0.860D+00
 Coeff:      0.598D-04 0.772D-03 0.983D-03-0.631D-02-0.536D-01-0.666D-01
 Coeff:      0.265D+00 0.860D+00
 Gap=     0.370 Goal=   None    Shift=    0.000
 RMSDP=9.07D-06 MaxDP=6.94D-04 DE=-7.59D-07 OVMax= 2.06D-04

 Cycle   9  Pass 1  IDiag  1:
 RMSU=  2.32D-06    CP:  6.97D-01  8.77D-01  6.01D-01  9.97D-01  1.22D+00
                    CP:  1.18D+00  1.33D+00  1.19D+00
 E= -440.140289671186     Delta-E=       -0.000000139174 Rises=F Damp=F
 DIIS: error= 1.31D-05 at cycle   9 NSaved=   9.
 NSaved= 9 IEnMin= 9 EnMin= -440.140289671186     IErMin= 9 ErrMin= 1.31D-05
 ErrMax= 1.31D-05  0.00D+00 EMaxC= 1.00D-01 BMatC= 6.74D-09 BMatP= 7.76D-08
 IDIUse=1 WtCom= 1.00D+00 WtEn= 0.00D+00
 Coeff-Com:  0.463D-04 0.808D-03 0.106D-02-0.661D-03-0.172D-01-0.296D-01
 Coeff-Com: -0.150D-02 0.242D+00 0.805D+00
 Coeff:      0.463D-04 0.808D-03 0.106D-02-0.661D-03-0.172D-01-0.296D-01
 Coeff:     -0.150D-02 0.242D+00 0.805D+00
 Gap=     0.370 Goal=   None    Shift=    0.000
 RMSDP=1.87D-06 MaxDP=9.16D-05 DE=-1.39D-07 OVMax= 6.33D-05

 Cycle  10  Pass 1  IDiag  1:
 RMSU=  8.05D-07    CP:  6.97D-01  8.77D-01  6.02D-01  9.96D-01  1.22D+00
                    CP:  1.18D+00  1.35D+00  1.24D+00  1.26D+00
 E= -440.140289683778     Delta-E=       -0.000000012591 Rises=F Damp=F
 DIIS: error= 2.20D-06 at cycle  10 NSaved=  10.
 NSaved=10 IEnMin=10 EnMin= -440.140289683778     IErMin=10 ErrMin= 2.20D-06
 ErrMax= 2.20D-06  0.00D+00 EMaxC= 1.00D-01 BMatC= 1.11D-09 BMatP= 6.74D-09
 IDIUse=1 WtCom= 1.00D+00 WtEn= 0.00D+00
 Coeff-Com:  0.466D-05 0.134D-03 0.196D-03 0.672D-03 0.305D-02 0.832D-03
 Coeff-Com: -0.371D-01-0.730D-01 0.234D+00 0.872D+00
 Coeff:      0.466D-05 0.134D-03 0.196D-03 0.672D-03 0.305D-02 0.832D-03
 Coeff:     -0.371D-01-0.730D-01 0.234D+00 0.872D+00
 Gap=     0.370 Goal=   None    Shift=    0.000
 RMSDP=6.92D-07 MaxDP=3.31D-05 DE=-1.26D-08 OVMax= 2.74D-05

 Cycle  11  Pass 1  IDiag  1:
 RMSU=  3.30D-07    CP:  6.97D-01  8.77D-01  6.02D-01  9.96D-01  1.22D+00
                    CP:  1.18D+00  1.35D+00  1.27D+00  1.38D+00  1.11D+00
 E= -440.140289685861     Delta-E=       -0.000000002083 Rises=F Damp=F
 DIIS: error= 1.06D-06 at cycle  11 NSaved=  11.
 NSaved=11 IEnMin=11 EnMin= -440.140289685861     IErMin=11 ErrMin= 1.06D-06
 ErrMax= 1.06D-06  0.00D+00 EMaxC= 1.00D-01 BMatC= 8.34D-11 BMatP= 1.11D-09
 IDIUse=1 WtCom= 1.00D+00 WtEn= 0.00D+00
 Coeff-Com: -0.299D-05-0.444D-04-0.475D-04 0.253D-03 0.261D-02 0.314D-02
 Coeff-Com: -0.869D-02-0.468D-01-0.218D-01 0.206D+00 0.865D+00
 Coeff:     -0.299D-05-0.444D-04-0.475D-04 0.253D-03 0.261D-02 0.314D-02
 Coeff:     -0.869D-02-0.468D-01-0.218D-01 0.206D+00 0.865D+00
 Gap=     0.370 Goal=   None    Shift=    0.000
 RMSDP=2.98D-07 MaxDP=2.50D-05 DE=-2.08D-09 OVMax= 7.51D-06

 Cycle  12  Pass 1  IDiag  1:
 RMSU=  7.73D-08    CP:  6.97D-01  8.77D-01  6.02D-01  9.96D-01  1.22D+00
                    CP:  1.18D+00  1.35D+00  1.27D+00  1.42D+00  1.21D+00
                    CP:  1.24D+00
 E= -440.140289686033     Delta-E=       -0.000000000173 Rises=F Damp=F
 DIIS: error= 1.96D-07 at cycle  12 NSaved=  12.
 NSaved=12 IEnMin=12 EnMin= -440.140289686033     IErMin=12 ErrMin= 1.96D-07
 ErrMax= 1.96D-07  0.00D+00 EMaxC= 1.00D-01 BMatC= 7.41D-12 BMatP= 8.34D-11
 IDIUse=1 WtCom= 1.00D+00 WtEn= 0.00D+00
 Coeff-Com: -0.893D-06-0.199D-04-0.259D-04-0.111D-04 0.716D-04 0.394D-03
 Coeff-Com:  0.252D-02-0.910D-03-0.235D-01-0.450D-01 0.156D+00 0.910D+00
 Coeff:     -0.893D-06-0.199D-04-0.259D-04-0.111D-04 0.716D-04 0.394D-03
 Coeff:      0.252D-02-0.910D-03-0.235D-01-0.450D-01 0.156D+00 0.910D+00
 Gap=     0.370 Goal=   None    Shift=    0.000
 RMSDP=1.06D-07 MaxDP=9.48D-06 DE=-1.73D-10 OVMax= 2.15D-06

 Cycle  13  Pass 1  IDiag  1:
 RMSU=  2.87D-08    CP:  6.97D-01  8.77D-01  6.02D-01  9.96D-01  1.22D+00
                    CP:  1.18D+00  1.35D+00  1.26D+00  1.42D+00  1.23D+00
                    CP:  1.34D+00  1.27D+00
 E= -440.140289686049     Delta-E=       -0.000000000016 Rises=F Damp=F
 DIIS: error= 6.49D-08 at cycle  13 NSaved=  13.
 NSaved=13 IEnMin=13 EnMin= -440.140289686049     IErMin=13 ErrMin= 6.49D-08
 ErrMax= 6.49D-08  0.00D+00 EMaxC= 1.00D-01 BMatC= 1.45D-12 BMatP= 7.41D-12
 IDIUse=1 WtCom= 1.00D+00 WtEn= 0.00D+00
 Coeff-Com:  0.805D-07-0.261D-06-0.163D-05-0.292D-04-0.321D-03-0.267D-03
 Coeff-Com:  0.182D-02 0.540D-02-0.442D-02-0.396D-01-0.706D-01 0.276D+00
 Coeff-Com:  0.832D+00
 Coeff:      0.805D-07-0.261D-06-0.163D-05-0.292D-04-0.321D-03-0.267D-03
 Coeff:      0.182D-02 0.540D-02-0.442D-02-0.396D-01-0.706D-01 0.276D+00
 Coeff:      0.832D+00
 Gap=     0.370 Goal=   None    Shift=    0.000
 RMSDP=4.43D-08 MaxDP=3.74D-06 DE=-1.59D-11 OVMax= 7.13D-07

 Cycle  14  Pass 1  IDiag  1:
 RMSU=  1.10D-08    CP:  6.97D-01  8.77D-01  6.02D-01  9.96D-01  1.22D+00
                    CP:  1.18D+00  1.35D+00  1.26D+00  1.41D+00  1.23D+00
                    CP:  1.38D+00  1.36D+00  1.16D+00
 E= -440.140289686056     Delta-E=       -0.000000000007 Rises=F Damp=F
 DIIS: error= 2.14D-08 at cycle  14 NSaved=  14.
 NSaved=14 IEnMin=14 EnMin= -440.140289686056     IErMin=14 ErrMin= 2.14D-08
 ErrMax= 2.14D-08  0.00D+00 EMaxC= 1.00D-01 BMatC= 1.01D-13 BMatP= 1.45D-12
 IDIUse=1 WtCom= 1.00D+00 WtEn= 0.00D+00
 Coeff-Com:  0.910D-07 0.154D-05 0.170D-05-0.461D-05-0.749D-04-0.801D-04
 Coeff-Com:  0.152D-03 0.112D-02 0.120D-02-0.289D-02-0.323D-01-0.290D-01
 Coeff-Com:  0.166D+00 0.896D+00
 Coeff:      0.910D-07 0.154D-05 0.170D-05-0.461D-05-0.749D-04-0.801D-04
 Coeff:      0.152D-03 0.112D-02 0.120D-02-0.289D-02-0.323D-01-0.290D-01
 Coeff:      0.166D+00 0.896D+00
 Gap=     0.370 Goal=   None    Shift=    0.000
 RMSDP=8.86D-09 MaxDP=3.61D-07 DE=-7.05D-12 OVMax= 2.39D-07

 SCF Done:  E(RwB97XD) =  -440.140289686     A.U. after   14 cycles
            NFock= 14  Conv=0.89D-08     -V/T= 2.0003
 KE= 4.400242899722D+02 PE=-2.007260603491D+03 EE= 6.367003919621D+02
 Leave Link  502 at Tue Nov 22 19:14:24 2022, MaxMem= 16106127360 cpu:             546.8 elap:              17.1
 (Enter /opt/ap/G16/B01/g16/l601.exe)
 Copying SCF densities to generalized density rwf, IOpCl= 0 IROHF=0.

 **********************************************************************

            Population analysis using the SCF Density.

 **********************************************************************

 Orbital symmetries:
       Occupied  (A) (A) (A) (A) (A) (A) (A) (A) (A) (A) (A) (A)
                 (A) (A) (A) (A) (A) (A) (A) (A) (A) (A) (A) (A)
                 (A) (A) (A) (A) (A) (A) (A) (A) (A) (A) (A) (A)
       Virtual   (A) (A) (A) (A) (A) (A) (A) (A) (A) (A) (A) (A)
                 (A) (A) (A) (A) (A) (A) (A) (A) (A) (A) (A) (A)
                 (A) (A) (A) (A) (A) (A) (A) (A) (A) (A) (A) (A)
                 (A) (A) (A) (A) (A) (A) (A) (A) (A) (A) (A) (A)
                 (A) (A) (A) (A) (A) (A) (A) (A) (A) (A) (A) (A)
                 (A) (A) (A) (A) (A) (A) (A) (A) (A) (A) (A) (A)
                 (A) (A) (A) (A) (A) (A) (A) (A) (A) (A) (A) (A)
                 (A) (A) (A) (A) (A) (A) (A) (A) (A) (A) (A) (A)
                 (A) (A) (A) (A) (A) (A) (A) (A) (A) (A) (A) (A)
                 (A) (A) (A) (A) (A) (A) (A) (A) (A) (A) (A) (A)
                 (A) (A) (A) (A) (A) (A) (A) (A) (A) (A) (A) (A)
                 (A) (A) (A) (A) (A) (A) (A) (A) (A) (A) (A) (A)
                 (A) (A) (A) (A) (A) (A) (A) (A) (A) (A) (A) (A)
                 (A) (A) (A) (A) (A) (A) (A) (A) (A) (A) (A) (A)
                 (A) (A) (A) (A) (A) (A) (A) (A) (A) (A) (A) (A)
                 (A) (A) (A) (A) (A) (A) (A) (A) (A) (A) (A) (A)
                 (A) (A) (A) (A) (A) (A) (A) (A) (A) (A) (A) (A)
                 (A) (A) (A) (A) (A) (A) (A) (A) (A) (A) (A) (A)
                 (A) (A) (A) (A) (A) (A) (A) (A) (A) (A) (A) (A)
                 (A) (A) (A) (A) (A) (A) (A) (A) (A) (A) (A) (A)
                 (A) (A) (A) (A) (A) (A)
 The electronic state is 1-A.
 Alpha  occ. eigenvalues --  -19.20543 -14.45737 -10.39151 -10.33427 -10.28455
 Alpha  occ. eigenvalues --  -10.28433 -10.28395 -10.28302 -10.28094 -10.25848
 Alpha  occ. eigenvalues --   -1.13634  -1.05393  -0.96622  -0.88226  -0.86875
 Alpha  occ. eigenvalues --   -0.84693  -0.73927  -0.73056  -0.70038  -0.65881
 Alpha  occ. eigenvalues --   -0.61633  -0.58155  -0.56790  -0.55466  -0.54354
 Alpha  occ. eigenvalues --   -0.53310  -0.51392  -0.49261  -0.46985  -0.46359
 Alpha  occ. eigenvalues --   -0.45863  -0.44215  -0.35546  -0.34082  -0.33718
 Alpha  occ. eigenvalues --   -0.33439
 Alpha virt. eigenvalues --    0.03539   0.04394   0.04537   0.04682   0.05109
 Alpha virt. eigenvalues --    0.06158   0.06646   0.06800   0.08494   0.09012
 Alpha virt. eigenvalues --    0.10015   0.10336   0.11478   0.12666   0.13358
 Alpha virt. eigenvalues --    0.13918   0.14961   0.15332   0.16224   0.16492
 Alpha virt. eigenvalues --    0.16650   0.17429   0.17576   0.18100   0.18255
 Alpha virt. eigenvalues --    0.18850   0.18947   0.19656   0.19915   0.20272
 Alpha virt. eigenvalues --    0.21239   0.21376   0.22179   0.23175   0.23392
 Alpha virt. eigenvalues --    0.24337   0.24914   0.25185   0.25345   0.26897
 Alpha virt. eigenvalues --    0.27487   0.28229   0.28582   0.28990   0.29261
 Alpha virt. eigenvalues --    0.29647   0.30741   0.31763   0.32736   0.34050
 Alpha virt. eigenvalues --    0.34927   0.36157   0.36572   0.37437   0.38179
 Alpha virt. eigenvalues --    0.38654   0.38727   0.39463   0.40152   0.41395
 Alpha virt. eigenvalues --    0.41920   0.43907   0.44753   0.45024   0.45496
 Alpha virt. eigenvalues --    0.47609   0.48840   0.52909   0.54400   0.55392
 Alpha virt. eigenvalues --    0.56710   0.57437   0.59557   0.62635   0.63112
 Alpha virt. eigenvalues --    0.63831   0.64589   0.65124   0.65873   0.66630
 Alpha virt. eigenvalues --    0.67181   0.68929   0.70355   0.73145   0.73372
 Alpha virt. eigenvalues --    0.74253   0.74986   0.76062   0.77335   0.78337
 Alpha virt. eigenvalues --    0.78621   0.81902   0.82554   0.82809   0.84168
 Alpha virt. eigenvalues --    0.86862   0.88140   0.89825   0.92829   0.93313
 Alpha virt. eigenvalues --    0.94372   0.95231   0.96308   0.96602   0.97544
 Alpha virt. eigenvalues --    0.99112   0.99560   0.99896   1.02179   1.04579
 Alpha virt. eigenvalues --    1.07363   1.10424   1.10989   1.13408   1.15158
 Alpha virt. eigenvalues --    1.16100   1.16699   1.18310   1.22436   1.23743
 Alpha virt. eigenvalues --    1.26757   1.28125   1.31478   1.36557   1.38289
 Alpha virt. eigenvalues --    1.42485   1.44193   1.48451   1.53083   1.55455
 Alpha virt. eigenvalues --    1.56231   1.60649   1.61759   1.62757   1.66006
 Alpha virt. eigenvalues --    1.67231   1.67372   1.67764   1.68306   1.69632
 Alpha virt. eigenvalues --    1.70680   1.72426   1.75178   1.75894   1.77254
 Alpha virt. eigenvalues --    1.83477   1.84130   1.86991   1.88808   1.91346
 Alpha virt. eigenvalues --    1.92547   1.93156   1.97070   1.97633   1.99246
 Alpha virt. eigenvalues --    2.00921   2.03012   2.04347   2.06283   2.07490
 Alpha virt. eigenvalues --    2.07954   2.11507   2.13828   2.15050   2.16528
 Alpha virt. eigenvalues --    2.22159   2.24691   2.25994   2.30375   2.36266
 Alpha virt. eigenvalues --    2.38068   2.41845   2.46463   2.49674   2.52238
 Alpha virt. eigenvalues --    2.53804   2.55344   2.59181   2.60573   2.64086
 Alpha virt. eigenvalues --    2.66478   2.66769   2.73199   2.73803   2.80180
 Alpha virt. eigenvalues --    2.80644   2.81911   2.83177   2.83718   2.85025
 Alpha virt. eigenvalues --    2.87211   2.87869   2.90455   2.91266   2.93033
 Alpha virt. eigenvalues --    2.94627   2.96374   2.97840   2.99062   3.01709
 Alpha virt. eigenvalues --    3.02549   3.04779   3.06518   3.13167   3.16129
 Alpha virt. eigenvalues --    3.20740   3.21797   3.22477   3.24248   3.26330
 Alpha virt. eigenvalues --    3.41508   3.45200   3.46307   3.47633   3.51875
 Alpha virt. eigenvalues --    3.63311   3.67945   3.71502   3.73496   3.90585
 Alpha virt. eigenvalues --    4.00035   4.07825   4.10309   4.14012   4.17929
 Alpha virt. eigenvalues --    4.30280   4.34214   4.38618   4.39192   4.44086
 Alpha virt. eigenvalues --    4.95349   5.15454   5.20701   5.21138   5.38978
 Alpha virt. eigenvalues --    5.90939  23.88368  23.99316  24.15071  24.22370
 Alpha virt. eigenvalues --   24.29771  24.32743  24.38469  24.42395  35.88526
 Alpha virt. eigenvalues --   50.17106
          Condensed to atoms (all electrons):
               1          2          3          4          5          6
     1  C    9.768421  -0.232614  -1.032870  -0.894373  -0.171464  -0.770692
     2  C   -0.232614   8.874336  -3.149607   0.569424   0.613372  -0.180258
     3  C   -1.032870  -3.149607   9.280027   0.224176  -0.108490   0.221739
     4  C   -0.894373   0.569424   0.224176   5.549163  -0.012694   0.088328
     5  H   -0.171464   0.613372  -0.108490  -0.012694   0.494051   0.001588
     6  N   -0.770692  -0.180258   0.221739   0.088328   0.001588   7.904527
     7  C   -0.754710   0.271733   0.458371   0.055727   0.028881   0.041506
     8  H   -0.133688  -0.087156   0.629669   0.024859  -0.003239  -0.008242
     9  C    0.181601  -0.174848  -0.366117   0.305403   0.015665  -0.007071
    10  H    0.018645  -0.130031   0.047581   0.448999  -0.014926  -0.000748
    11  C    0.183019  -0.233840  -0.086993  -0.114658  -0.022034  -0.077244
    12  H   -0.059325  -0.026235  -0.011147  -0.000471  -0.000628   0.363431
    13  H    0.003636   0.023174  -0.109580   0.002423   0.001410  -0.002505
    14  H    0.030033  -0.010638  -0.012025  -0.064574  -0.000386   0.000383
    15  C    0.120847  -0.001423  -0.059730  -0.008189  -0.001711  -0.451441
    16  O    0.192704  -0.077228  -0.055031  -0.027415  -0.001037  -0.140750
    17  H    0.012562   0.004496  -0.012039  -0.000154  -0.000721  -0.001700
    18  H    0.015022   0.006216  -0.017681  -0.001950  -0.000024  -0.003407
    19  H   -0.008953   0.004299   0.010917   0.002445   0.001486   0.022632
               7          8          9         10         11         12
     1  C   -0.754710  -0.133688   0.181601   0.018645   0.183019  -0.059325
     2  C    0.271733  -0.087156  -0.174848  -0.130031  -0.233840  -0.026235
     3  C    0.458371   0.629669  -0.366117   0.047581  -0.086993  -0.011147
     4  C    0.055727   0.024859   0.305403   0.448999  -0.114658  -0.000471
     5  H    0.028881  -0.003239   0.015665  -0.014926  -0.022034  -0.000628
     6  N    0.041506  -0.008242  -0.007071  -0.000748  -0.077244   0.363431
     7  C    5.450673  -0.055608   0.370466  -0.005174  -0.072111  -0.007084
     8  H   -0.055608   0.498793  -0.000123   0.001667  -0.021826  -0.000266
     9  C    0.370466  -0.000123   5.609271  -0.053619   0.030625   0.005829
    10  H   -0.005174   0.001667  -0.053619   0.488212  -0.000668   0.000594
    11  C   -0.072111  -0.021826   0.030625  -0.000668   6.023717   0.073642
    12  H   -0.007084  -0.000266   0.005829   0.000594   0.073642   0.370227
    13  H    0.446355  -0.015291  -0.039820  -0.000817   0.000821   0.000659
    14  H   -0.063133  -0.000857   0.476286  -0.009908  -0.000548   0.000202
    15  C    0.006182  -0.001563   0.001436  -0.000701  -0.128148  -0.024597
    16  O   -0.008922  -0.001302   0.007998  -0.000610   0.474821   0.003099
    17  H   -0.002850  -0.000067   0.000385  -0.000065  -0.038829  -0.001176
    18  H   -0.001095  -0.000646   0.000662  -0.000054  -0.038454   0.000616
    19  H    0.002428   0.001454  -0.000757  -0.000018  -0.096564  -0.006110
              13         14         15         16         17         18
     1  C    0.003636   0.030033   0.120847   0.192704   0.012562   0.015022
     2  C    0.023174  -0.010638  -0.001423  -0.077228   0.004496   0.006216
     3  C   -0.109580  -0.012025  -0.059730  -0.055031  -0.012039  -0.017681
     4  C    0.002423  -0.064574  -0.008189  -0.027415  -0.000154  -0.001950
     5  H    0.001410  -0.000386  -0.001711  -0.001037  -0.000721  -0.000024
     6  N   -0.002505   0.000383  -0.451441  -0.140750  -0.001700  -0.003407
     7  C    0.446355  -0.063133   0.006182  -0.008922  -0.002850  -0.001095
     8  H   -0.015291  -0.000857  -0.001563  -0.001302  -0.000067  -0.000646
     9  C   -0.039820   0.476286   0.001436   0.007998   0.000385   0.000662
    10  H   -0.000817  -0.009908  -0.000701  -0.000610  -0.000065  -0.000054
    11  C    0.000821  -0.000548  -0.128148   0.474821  -0.038829  -0.038454
    12  H    0.000659   0.000202  -0.024597   0.003099  -0.001176   0.000616
    13  H    0.488470  -0.009095  -0.000430  -0.000141  -0.000019  -0.000057
    14  H   -0.009095   0.491076   0.000175   0.000141   0.000011   0.000016
    15  C   -0.000430   0.000175   5.836095  -0.028852   0.413947   0.429069
    16  O   -0.000141   0.000141  -0.028852   8.007660  -0.010269  -0.011496
    17  H   -0.000019   0.000011   0.413947  -0.010269   0.502406  -0.025022
    18  H   -0.000057   0.000016   0.429069  -0.011496  -0.025022   0.494912
    19  H   -0.000020  -0.000029   0.416292   0.012740  -0.032724  -0.036789
              19
     1  C   -0.008953
     2  C    0.004299
     3  C    0.010917
     4  C    0.002445
     5  H    0.001486
     6  N    0.022632
     7  C    0.002428
     8  H    0.001454
     9  C   -0.000757
    10  H   -0.000018
    11  C   -0.096564
    12  H   -0.006110
    13  H   -0.000020
    14  H   -0.000029
    15  C    0.416292
    16  O    0.012740
    17  H   -0.032724
    18  H   -0.036789
    19  H    0.595981
 Mulliken charges:
               1
     1  C   -0.467801
     2  C   -0.063172
     3  C    0.148829
     4  C   -0.146469
     5  H    0.180903
     6  N   -0.000075
     7  C   -0.161636
     8  H    0.173435
     9  C   -0.363269
    10  H    0.211637
    11  C    0.145272
    12  H    0.318742
    13  H    0.210826
    14  H    0.172870
    15  C   -0.517259
    16  O   -0.336110
    17  H    0.191826
    18  H    0.190163
    19  H    0.111290
 Sum of Mulliken charges =  -0.00000
 Mulliken charges with hydrogens summed into heavy atoms:
               1
     1  C   -0.467801
     2  C    0.117731
     3  C    0.322264
     4  C    0.065168
     6  N    0.318666
     7  C    0.049189
     9  C   -0.190398
    11  C    0.145272
    15  C   -0.023980
    16  O   -0.336110
 Electronic spatial extent (au):  <R**2>=           1665.4774
 Charge=             -0.0000 electrons
 Dipole moment (field-independent basis, Debye):
    X=             -0.5616    Y=              0.9168    Z=             -3.7580  Tot=              3.9088
 Quadrupole moment (field-independent basis, Debye-Ang):
   XX=            -49.4167   YY=            -53.3615   ZZ=            -64.4563
   XY=              2.1592   XZ=             -8.9819   YZ=              1.5289
 Traceless Quadrupole moment (field-independent basis, Debye-Ang):
   XX=              6.3281   YY=              2.3834   ZZ=             -8.7115
   XY=              2.1592   XZ=             -8.9819   YZ=              1.5289
 Octapole moment (field-independent basis, Debye-Ang**2):
  XXX=             12.9272  YYY=             -1.2573  ZZZ=            -10.4060  XYY=             -2.2303
  XXY=              3.1088  XXZ=             -9.3484  XZZ=              3.2558  YZZ=              3.8299
  YYZ=              0.3041  XYZ=              0.1763
 Hexadecapole moment (field-independent basis, Debye-Ang**3):
 XXXX=          -1550.8727 YYYY=           -282.8426 ZZZZ=           -185.9555 XXXY=              9.8556
 XXXZ=            -44.8965 YYYX=             -0.6221 YYYZ=              5.1559 ZZZX=            -21.4608
 ZZZY=             -2.8724 XXYY=           -316.8244 XXZZ=           -353.1504 YYZZ=            -86.4948
 XXYZ=             10.0816 YYXZ=             -3.0951 ZZXY=              6.6226
 N-N= 4.903956318701D+02 E-N=-2.007260601966D+03  KE= 4.400242899722D+02
 No NMR shielding tensors so no spin-rotation constants.
 Leave Link  601 at Tue Nov 22 19:14:24 2022, MaxMem= 16106127360 cpu:               3.8 elap:               0.1
 (Enter /opt/ap/G16/B01/g16/l9999.exe)
 1\1\GINC-N34\SP\RwB97XD\6-311++G(d,p)\C8H9N1O1\ROOT\22-Nov-2022\0\\#P 
 wB97XD/6-311++G(d,p) scf=maxcycle=512\\_conf056.gjf nmol_natom 1_19\\0
 ,1\C\C,1,1.39447505\C,1,1.39873503,2,119.56697224\C,2,1.39066123,1,119
 .42697207,3,2.53915756,0\H,2,0.96213008,1,119.8046163,3,-177.79870417,
 0\N,1,1.41693372,2,123.72220125,4,-177.74604849,0\C,3,1.38667133,1,120
 .18759987,2,-2.5020857,0\H,3,0.95673174,1,118.82085988,2,177.96737168,
 0\C,4,1.38268572,2,121.03929493,1,-0.41221113,0\H,4,0.9858595,2,118.57
 91267,1,178.77373233,0\C,6,1.35500692,1,127.62132737,2,-80.,0\H,6,0.89
 609466,1,115.10511997,2,100.,0\H,7,0.98847198,3,119.08117704,1,-179.64
 585354,0\H,9,0.98451201,4,120.53755637,2,177.22743544,0\C,11,1.5027456
 1,6,115.46861532,1,175.89235465,0\O,11,1.23496495,6,123.15099888,1,-3.
 40672617,0\H,15,0.98719837,11,107.47091875,6,-116.36962839,0\H,15,0.99
 976021,11,109.69443261,6,128.85346087,0\H,15,0.97696155,11,114.3700887
 1,6,6.05302844,0\\Version=ES64L-G16RevB.01\State=1-A\HF=-440.1402897\R
 MSD=8.865e-09\Dipole=-0.0059364,1.5217255,-0.2218506\Quadrupole=5.1543
 043,-8.9942454,3.839941,-3.4343523,2.6079493,-1.5405583\PG=C01 [X(C8H9
 N1O1)]\\@


 Ideas are like rabbits. You get a couple and learn
 how to handle them, and pretty soon you have a dozen.
                                    -- John Steinbeck
 Job cpu time:       0 days  0 hours  9 minutes 45.5 seconds.
 Elapsed time:       0 days  0 hours  0 minutes 18.4 seconds.
 File lengths (MBytes):  RWF=     46 Int=      0 D2E=      0 Chk=      6 Scr=      1
 Normal termination of Gaussian 16 at Tue Nov 22 19:14:24 2022.
