 Entering Gaussian System, Link 0=g16
 Input=_conf068.gjf
 Output=_conf068.log
 Initial command:
 /opt/ap/G16/B01/g16/l1.exe "/tmp2/scr/Gau-8680.inp" -scrdir="/tmp2/scr/"
 Entering Link 1 = /opt/ap/G16/B01/g16/l1.exe PID=      8681.
  
 Copyright (c) 1988-2017, Gaussian, Inc.  All Rights Reserved.
  
 This is part of the Gaussian(R) 16 program.  It is based on
 the Gaussian(R) 09 system (copyright 2009, Gaussian, Inc.),
 the Gaussian(R) 03 system (copyright 2003, Gaussian, Inc.),
 the Gaussian(R) 98 system (copyright 1998, Gaussian, Inc.),
 the Gaussian(R) 94 system (copyright 1995, Gaussian, Inc.),
 the Gaussian 92(TM) system (copyright 1992, Gaussian, Inc.),
 the Gaussian 90(TM) system (copyright 1990, Gaussian, Inc.),
 the Gaussian 88(TM) system (copyright 1988, Gaussian, Inc.),
 the Gaussian 86(TM) system (copyright 1986, Carnegie Mellon
 University), and the Gaussian 82(TM) system (copyright 1983,
 Carnegie Mellon University). Gaussian is a federally registered
 trademark of Gaussian, Inc.
  
 This software contains proprietary and confidential information,
 including trade secrets, belonging to Gaussian, Inc.
  
 This software is provided under written license and may be
 used, copied, transmitted, or stored only in accord with that
 written license.
  
 The following legend is applicable only to US Government
 contracts under FAR:
  
                    RESTRICTED RIGHTS LEGEND
  
 Use, reproduction and disclosure by the US Government is
 subject to restrictions as set forth in subparagraphs (a)
 and (c) of the Commercial Computer Software - Restricted
 Rights clause in FAR 52.227-19.
  
 Gaussian, Inc.
 340 Quinnipiac St., Bldg. 40, Wallingford CT 06492
  
  
 ---------------------------------------------------------------
 Warning -- This program may not be used in any manner that
 competes with the business of Gaussian, Inc. or will provide
 assistance to any competitor of Gaussian, Inc.  The licensee
 of this program is prohibited from giving any competitor of
 Gaussian, Inc. access to this program.  By using this program,
 the user acknowledges that Gaussian, Inc. is engaged in the
 business of creating and licensing software in the field of
 computational chemistry and represents and warrants to the
 licensee that it is not a competitor of Gaussian, Inc. and that
 it will not use this program in any manner prohibited above.
 ---------------------------------------------------------------
  

 Cite this work as:
 Gaussian 16, Revision B.01,
 M. J. Frisch, G. W. Trucks, H. B. Schlegel, G. E. Scuseria, 
 M. A. Robb, J. R. Cheeseman, G. Scalmani, V. Barone, 
 G. A. Petersson, H. Nakatsuji, X. Li, M. Caricato, A. V. Marenich, 
 J. Bloino, B. G. Janesko, R. Gomperts, B. Mennucci, H. P. Hratchian, 
 J. V. Ortiz, A. F. Izmaylov, J. L. Sonnenberg, D. Williams-Young, 
 F. Ding, F. Lipparini, F. Egidi, J. Goings, B. Peng, A. Petrone, 
 T. Henderson, D. Ranasinghe, V. G. Zakrzewski, J. Gao, N. Rega, 
 G. Zheng, W. Liang, M. Hada, M. Ehara, K. Toyota, R. Fukuda, 
 J. Hasegawa, M. Ishida, T. Nakajima, Y. Honda, O. Kitao, H. Nakai, 
 T. Vreven, K. Throssell, J. A. Montgomery, Jr., J. E. Peralta, 
 F. Ogliaro, M. J. Bearpark, J. J. Heyd, E. N. Brothers, K. N. Kudin, 
 V. N. Staroverov, T. A. Keith, R. Kobayashi, J. Normand, 
 K. Raghavachari, A. P. Rendell, J. C. Burant, S. S. Iyengar, 
 J. Tomasi, M. Cossi, J. M. Millam, M. Klene, C. Adamo, R. Cammi, 
 J. W. Ochterski, R. L. Martin, K. Morokuma, O. Farkas, 
 J. B. Foresman, and D. J. Fox, Gaussian, Inc., Wallingford CT, 2016.
 
 ******************************************
 Gaussian 16:  ES64L-G16RevB.01 20-Dec-2017
                22-Nov-2022 
 ******************************************
 %nprocshared=32
 Will use up to   32 processors via shared memory.
 %mem=120GB
 %chk=_conf068.chk
 ----------------------------------------
 #P wB97XD/6-311++G(d,p) scf=maxcycle=512
 ----------------------------------------
 1/38=1,172=1/1;
 2/12=2,17=6,18=5,40=1/2;
 3/5=4,6=6,7=1111,11=2,25=1,30=1,74=-58/1,2,3;
 4//1;
 5/5=2,7=512,38=5/2;
 6/7=2,8=2,9=2,10=2,28=1/1;
 99/5=1,9=1/99;
 Leave Link    1 at Tue Nov 22 19:15:03 2022, MaxMem= 16106127360 cpu:               1.9 elap:               0.1
 (Enter /opt/ap/G16/B01/g16/l101.exe)
 ----------------------------
 _conf068.gjf nmol_natom 1_19
 ----------------------------
 Symbolic Z-matrix:
 Charge =  0 Multiplicity = 1
 C
 C                    1     1.39448 
 C                    1     1.39874  2     119.56697 
 C                    2     1.39066  1     119.42697  3     2.53916  0
 H                    2     0.96213  1     119.80462  3    -177.7987  0
 N                    1     1.41693  2     123.7222  4    -177.74605  0
 C                    3     1.38667  1     120.1876  2    -2.50209  0
 H                    3     0.95673  1     118.82086  2     177.96737  0
 C                    4     1.38269  2     121.03929  1    -0.41221  0
 H                    4     0.98586  2     118.57913  1     178.77373  0
 C                    6     1.35501  1     127.62133  2    -20.      0
 H                    6     0.89609  1     115.10512  2     160.     0
 H                    7     0.98847  3     119.08118  1    -179.64585  0
 H                    9     0.98451  4     120.53756  2     177.22744  0
 C                    11    1.50275  6     115.46862  1     175.89235  0
 O                    11    1.23496  6     123.151  1    -3.40673  0
 H                    15    0.9872   11    107.47092  6    -116.36963  0
 H                    15    0.99976  11    109.69443  6     128.85346  0
 H                    15    0.97696  11    114.37009  6     6.05303  0
 
 ITRead=  0  0  0  0  0  0  0  0  0  0  0  0  0  0  0  0  0  0  0
 MicOpt= -1 -1 -1 -1 -1 -1 -1 -1 -1 -1 -1 -1 -1 -1 -1 -1 -1 -1 -1
 NAtoms=     19 NQM=       19 NQMF=       0 NMMI=      0 NMMIF=      0
                NMic=       0 NMicF=      0.
                    Isotopes and Nuclear Properties:
 (Nuclear quadrupole moments (NQMom) in fm**2, nuclear magnetic moments (NMagM)
  in nuclear magnetons)

  Atom         1           2           3           4           5           6           7           8           9          10
 IAtWgt=          12          12          12          12           1          14          12           1          12           1
 AtmWgt=  12.0000000  12.0000000  12.0000000  12.0000000   1.0078250  14.0030740  12.0000000   1.0078250  12.0000000   1.0078250
 NucSpn=           0           0           0           0           1           2           0           1           0           1
 AtZEff=  -0.0000000  -0.0000000  -0.0000000  -0.0000000  -0.0000000  -0.0000000  -0.0000000  -0.0000000  -0.0000000  -0.0000000
 NQMom=    0.0000000   0.0000000   0.0000000   0.0000000   0.0000000   2.0440000   0.0000000   0.0000000   0.0000000   0.0000000
 NMagM=    0.0000000   0.0000000   0.0000000   0.0000000   2.7928460   0.4037610   0.0000000   2.7928460   0.0000000   2.7928460
 AtZNuc=   6.0000000   6.0000000   6.0000000   6.0000000   1.0000000   7.0000000   6.0000000   1.0000000   6.0000000   1.0000000

  Atom        11          12          13          14          15          16          17          18          19
 IAtWgt=          12           1           1           1          12          16           1           1           1
 AtmWgt=  12.0000000   1.0078250   1.0078250   1.0078250  12.0000000  15.9949146   1.0078250   1.0078250   1.0078250
 NucSpn=           0           1           1           1           0           0           1           1           1
 AtZEff=  -0.0000000  -0.0000000  -0.0000000  -0.0000000  -0.0000000  -0.0000000  -0.0000000  -0.0000000  -0.0000000
 NQMom=    0.0000000   0.0000000   0.0000000   0.0000000   0.0000000   0.0000000   0.0000000   0.0000000   0.0000000
 NMagM=    0.0000000   2.7928460   2.7928460   2.7928460   0.0000000   0.0000000   2.7928460   2.7928460   2.7928460
 AtZNuc=   6.0000000   1.0000000   1.0000000   1.0000000   6.0000000   8.0000000   1.0000000   1.0000000   1.0000000
 Leave Link  101 at Tue Nov 22 19:15:03 2022, MaxMem= 16106127360 cpu:               5.1 elap:               0.2
 (Enter /opt/ap/G16/B01/g16/l202.exe)
                          Input orientation:                          
 ---------------------------------------------------------------------
 Center     Atomic      Atomic             Coordinates (Angstroms)
 Number     Number       Type             X           Y           Z
 ---------------------------------------------------------------------
      1          6           0        0.000000    0.000000    0.000000
      2          6           0        0.000000    0.000000    1.394475
      3          6           0        1.216591    0.000000   -0.690193
      4          6           0        1.210053    0.053661    2.077726
      5          1           0       -0.834249   -0.032067    1.872696
      6          7           0       -1.178505   -0.005866   -0.786634
      7          6           0        2.413939    0.052326    0.007287
      8          1           0        1.204393   -0.029731   -1.646384
      9          6           0        2.412261    0.098442    1.396177
     10          1           0        1.194755    0.071528    3.063305
     11          6           0       -2.424535   -0.379147   -0.407011
     12          1           0       -1.072793    0.272193   -1.631912
     13          1           0        3.263999    0.056828   -0.497149
     14          1           0        3.262484    0.177260    1.886251
     15          6           0       -3.499622   -0.185702   -1.439005
     16          8           0       -2.681272   -0.836606    0.711003
     17          1           0       -4.138233    0.476623   -1.081150
     18          1           0       -4.016577   -1.034190   -1.550122
     19          1           0       -3.172284    0.104006   -2.312717
 ---------------------------------------------------------------------
                    Distance matrix (angstroms):
                    1          2          3          4          5
     1  C    0.000000
     2  C    1.394475   0.000000
     3  C    1.398735   2.413697   0.000000
     4  C    2.405006   1.390661   2.768447   0.000000
     5  H    2.050363   0.962130   3.282586   2.056345   0.000000
     6  N    1.416934   2.479142   2.397044   3.730055   2.681648
     7  C    2.414517   2.784624   1.386671   2.395008   3.746678
     8  H    2.040105   3.270821   0.956732   3.725048   4.066939
     9  C    2.788908   2.414270   2.406711   1.382686   3.283889
    10  H    3.288829   2.053668   3.754243   0.985860   2.354812
    11  C    2.487525   3.044253   3.671749   4.423965   2.801167
    12  H    1.971829   3.222420   2.490422   4.361256   3.525869
    13  H    3.302132   3.772951   2.057273   3.293734   4.734944
    14  H    3.772687   3.304099   3.294718   2.065046   4.102100
    15  C    3.788479   4.506712   4.778898   5.882663   4.253843
    16  O    2.897353   2.890720   4.225706   4.219350   2.325577
    17  H    4.303607   4.845706   5.390191   6.225878   4.460974
    18  H    4.427790   5.086560   5.403247   6.454639   4.779869
    19  H    3.927195   4.880315   4.680344   6.203499   4.796103
                    6          7          8          9         10
     6  N    0.000000
     7  C    3.679585   0.000000
     8  H    2.533365   2.050454   0.000000
     9  C    4.203468   1.389657   3.276058   0.000000
    10  H    4.523316   3.290292   4.710788   2.064548   0.000000
    11  C    1.355007   4.875309   3.850618   5.184031   5.034428
    12  H    0.896095   3.859095   2.297160   4.620078   5.217960
    13  H    4.452366   0.988472   2.360129   2.076505   4.118108
    14  H    5.186544   2.065465   4.093666   0.984512   2.381625
    15  C    2.417750   6.092505   4.711166   6.562725   6.509542
    16  O    2.278455   5.219827   4.615920   5.223778   4.624026
    17  H    3.013226   6.655500   5.396252   7.013498   6.766194
    18  H    3.113683   6.705041   5.317587   7.161948   7.047291
    19  H    2.513196   6.049047   4.429129   6.703959   6.926305
                   11         12         13         14         15
    11  C    0.000000
    12  H    1.936964   0.000000
    13  H    5.705928   4.487965   0.000000
    14  H    6.157177   5.584005   2.386441   0.000000
    15  C    1.502746   2.477172   6.833189   7.544213   0.000000
    16  O    1.234965   3.050555   6.132218   6.143075   2.390796
    17  H    2.030657   3.121227   7.437091   7.979079   0.987198
    18  H    2.066491   3.221675   7.436791   8.140087   0.999760
    19  H    2.103397   2.213514   6.687619   7.683940   0.976962
                   16         17         18         19
    16  O    0.000000
    17  H    2.656900   0.000000
    18  H    2.633395   1.586598   0.000000
    19  H    3.204485   1.608931   1.609308   0.000000
 Stoichiometry    C8H9NO
 Framework group  C1[X(C8H9NO)]
 Deg. of freedom    51
 Full point group                 C1      NOp   1
 Largest Abelian subgroup         C1      NOp   1
 Largest concise Abelian subgroup C1      NOp   1
                         Standard orientation:                         
 ---------------------------------------------------------------------
 Center     Atomic      Atomic             Coordinates (Angstroms)
 Number     Number       Type             X           Y           Z
 ---------------------------------------------------------------------
      1          6           0       -0.295447   -0.288675    0.066931
      2          6           0       -0.746566    1.025943    0.180219
      3          6           0       -1.219160   -1.321147   -0.125983
      4          6           0       -2.112751    1.284250    0.152761
      5          1           0       -0.112166    1.742214    0.281148
      6          7           0        1.070590   -0.659746    0.129773
      7          6           0       -2.577863   -1.045288   -0.152177
      8          1           0       -0.895933   -2.215393   -0.231735
      9          6           0       -3.029307    0.259381    0.006515
     10          1           0       -2.418607    2.216170    0.252245
     11          6           0        2.152594    0.131355   -0.068903
     12          1           0        1.221981   -1.521207    0.324581
     13          1           0       -3.216468   -1.788120   -0.284314
     14          1           0       -3.995781    0.445658    0.028752
     15          6           0        3.484452   -0.525998    0.159757
     16          8           0        2.069806    1.317600   -0.402231
     17          1           0        3.917416   -0.063050    0.916579
     18          1           0        4.076120   -0.372652   -0.631403
     19          1           0        3.435155   -1.485135    0.338863
 ---------------------------------------------------------------------
 Rotational constants (GHZ):           3.8095839           0.7897334           0.6646211
 Leave Link  202 at Tue Nov 22 19:15:03 2022, MaxMem= 16106127360 cpu:               0.4 elap:               0.0
 (Enter /opt/ap/G16/B01/g16/l301.exe)
 Standard basis: 6-311++G(d,p) (5D, 7F)
 Ernie: Thresh=  0.10000D-02 Tol=  0.10000D-05 Strict=F.
 There are   293 symmetry adapted cartesian basis functions of A   symmetry.
 There are   283 symmetry adapted basis functions of A   symmetry.
   283 basis functions,   441 primitive gaussians,   293 cartesian basis functions
    36 alpha electrons       36 beta electrons
       nuclear repulsion energy       491.8260803400 Hartrees.
 IExCor= 4639 DFT=T Ex+Corr=wB97XD ExCW=0 ScaHFX=  1.000000
 ScaDFX=  1.000000  1.000000  1.000000  1.000000 ScalE2=  1.000000  1.000000
 IRadAn=      5 IRanWt=     -1 IRanGd=            0 ICorTp=0 IEmpDi=121
 HFx  wShort=  0.000000 wLong=  0.200000 cFull=  0.222036 cShort=  0.000000 cLong=  0.777964
 DFx  wShort=  0.000000 wLong=  0.200000 cFull=  0.000000 cShort=  0.000000 cLong=  1.000000
 NAtoms=   19 NActive=   19 NUniq=   19 SFac= 1.00D+00 NAtFMM=   60 NAOKFM=F Big=F
 Integral buffers will be    131072 words long.
 Raffenetti 2 integral format.
 Two-electron integral symmetry is turned on.
 R6Disp:  Grimme-D2 Dispersion energy=       -0.0090404384 Hartrees.
 Nuclear repulsion after empirical dispersion term =      491.8170399016 Hartrees.
 Leave Link  301 at Tue Nov 22 19:15:03 2022, MaxMem= 16106127360 cpu:               1.2 elap:               0.0
 (Enter /opt/ap/G16/B01/g16/l302.exe)
 NPDir=0 NMtPBC=     1 NCelOv=     1 NCel=       1 NClECP=     1 NCelD=      1
         NCelK=      1 NCelE2=     1 NClLst=     1 CellRange=     0.0.
 One-electron integrals computed using PRISM.
 One-electron integral symmetry used in STVInt
 NBasis=   283 RedAO= T EigKep=  3.04D-06  NBF=   283
 NBsUse=   282 1.00D-06 EigRej=  9.06D-07 NBFU=   282
 Precomputing XC quadrature grid using
 IXCGrd= 4 IRadAn=           5 IRanWt=          -1 IRanGd=           0 AccXCQ= 0.00D+00.
 Generated NRdTot=       0 NPtTot=           0 NUsed=           0 NTot=          32
 NSgBfM=   293   293   293   293   293 MxSgAt=    19 MxSgA2=    19.
 Leave Link  302 at Tue Nov 22 19:15:04 2022, MaxMem= 16106127360 cpu:               6.3 elap:               0.2
 (Enter /opt/ap/G16/B01/g16/l303.exe)
 DipDrv:  MaxL=1.
 Leave Link  303 at Tue Nov 22 19:15:04 2022, MaxMem= 16106127360 cpu:               3.6 elap:               0.1
 (Enter /opt/ap/G16/B01/g16/l401.exe)
 ExpMin= 3.60D-02 ExpMax= 8.59D+03 ExpMxC= 1.30D+03 IAcc=3 IRadAn=         5 AccDes= 0.00D+00
 Harris functional with IExCor= 4639 and IRadAn=       5 diagonalized for initial guess.
 HarFok:  IExCor= 4639 AccDes= 0.00D+00 IRadAn=         5 IDoV= 1 UseB2=F ITyADJ=14
 ICtDFT=  3500011 ScaDFX=  1.000000  1.000000  1.000000  1.000000
 FoFCou: FMM=F IPFlag=           0 FMFlag=      100000 FMFlg1=           0
         NFxFlg=           0 DoJE=T BraDBF=F KetDBF=T FulRan=T
         wScrn=  0.000000 ICntrl=       500 IOpCl=  0 I1Cent=   200000004 NGrid=           0
         NMat0=    1 NMatS0=      1 NMatT0=    0 NMatD0=    1 NMtDS0=    0 NMtDT0=    0
 Petite list used in FoFCou.
 Harris En= -420.989810145323    
 JPrj=0 DoOrth=F DoCkMO=F.
 Leave Link  401 at Tue Nov 22 19:15:04 2022, MaxMem= 16106127360 cpu:              15.4 elap:               0.5
 (Enter /opt/ap/G16/B01/g16/l502.exe)
 Integral symmetry usage will be decided dynamically.
 Closed shell SCF:
 Using DIIS extrapolation, IDIIS=  1040.
 NGot= 16106127360 LenX= 16105943385 LenY= 16105857095
 Requested convergence on RMS density matrix=1.00D-08 within 512 cycles.
 Requested convergence on MAX density matrix=1.00D-06.
 Requested convergence on             energy=1.00D-06.
 No special actions if energy rises.
 Fock matrices will be formed incrementally for  20 cycles.

 Cycle   1  Pass 1  IDiag  1:
 FoFJK:  IHMeth= 1 ICntrl=       0 DoSepK=T KAlg= 0 I1Cent=           0 FoldK=F
 IRaf=         1 NMat=       1 IRICut=       1 DoRegI=T DoRafI=F ISym2E= 0 IDoP0=0 IntGTp=1.
 FoFCou: FMM=F IPFlag=           0 FMFlag=      100000 FMFlg1=           0
         NFxFlg=           0 DoJE=T BraDBF=F KetDBF=F FulRan=T
         wScrn=  0.000000 ICntrl=       500 IOpCl=  0 I1Cent=           0 NGrid=           0
         NMat0=    1 NMatS0=      1 NMatT0=    0 NMatD0=    1 NMtDS0=    0 NMtDT0=    0
 Symmetry not used in FoFCou.
 E= -439.988753709997    
 DIIS: error= 5.54D-02 at cycle   1 NSaved=   1.
 NSaved= 1 IEnMin= 1 EnMin= -439.988753709997     IErMin= 1 ErrMin= 5.54D-02
 ErrMax= 5.54D-02  0.00D+00 EMaxC= 1.00D-01 BMatC= 9.47D-01 BMatP= 9.47D-01
 IDIUse=3 WtCom= 4.46D-01 WtEn= 5.54D-01
 Coeff-Com:  0.100D+01
 Coeff-En:   0.100D+01
 Coeff:      0.100D+01
 Gap=     0.442 Goal=   None    Shift=    0.000
 GapD=    0.442 DampG=2.000 DampE=0.500 DampFc=1.0000 IDamp=-1.
 RMSDP=8.74D-03 MaxDP=7.37D-01              OVMax= 1.59D-01

 Cycle   2  Pass 1  IDiag  1:
 RMSU=  6.46D-03    CP:  7.73D-01
 E= -440.068433740059     Delta-E=       -0.079680030062 Rises=F Damp=F
 DIIS: error= 1.29D-02 at cycle   2 NSaved=   2.
 NSaved= 2 IEnMin= 2 EnMin= -440.068433740059     IErMin= 2 ErrMin= 1.29D-02
 ErrMax= 1.29D-02  0.00D+00 EMaxC= 1.00D-01 BMatC= 8.86D-02 BMatP= 9.47D-01
 IDIUse=3 WtCom= 8.71D-01 WtEn= 1.29D-01
 Coeff-Com:  0.163D+00 0.837D+00
 Coeff-En:   0.245D+00 0.755D+00
 Coeff:      0.174D+00 0.826D+00
 Gap=     0.455 Goal=   None    Shift=    0.000
 RMSDP=6.51D-03 MaxDP=2.65D-01 DE=-7.97D-02 OVMax= 1.27D-01

 Cycle   3  Pass 1  IDiag  1:
 RMSU=  5.02D-03    CP:  6.72D-01  5.05D-01
 E= -440.107915366784     Delta-E=       -0.039481626725 Rises=F Damp=F
 DIIS: error= 8.54D-03 at cycle   3 NSaved=   3.
 NSaved= 3 IEnMin= 3 EnMin= -440.107915366784     IErMin= 3 ErrMin= 8.54D-03
 ErrMax= 8.54D-03  0.00D+00 EMaxC= 1.00D-01 BMatC= 4.20D-02 BMatP= 8.86D-02
 IDIUse=3 WtCom= 9.15D-01 WtEn= 8.54D-02
 Coeff-Com:  0.260D-01 0.412D+00 0.562D+00
 Coeff-En:   0.000D+00 0.326D+00 0.674D+00
 Coeff:      0.238D-01 0.404D+00 0.572D+00
 Gap=     0.356 Goal=   None    Shift=    0.000
 RMSDP=2.71D-03 MaxDP=1.07D-01 DE=-3.95D-02 OVMax= 7.15D-02

 Cycle   4  Pass 1  IDiag  1:
 RMSU=  1.01D-03    CP:  6.75D-01  7.39D-01  6.01D-01
 E= -440.145393022511     Delta-E=       -0.037477655727 Rises=F Damp=F
 DIIS: error= 1.92D-03 at cycle   4 NSaved=   4.
 NSaved= 4 IEnMin= 4 EnMin= -440.145393022511     IErMin= 4 ErrMin= 1.92D-03
 ErrMax= 1.92D-03  0.00D+00 EMaxC= 1.00D-01 BMatC= 1.51D-03 BMatP= 4.20D-02
 IDIUse=3 WtCom= 9.81D-01 WtEn= 1.92D-02
 Coeff-Com:  0.932D-02 0.186D+00 0.292D+00 0.513D+00
 Coeff-En:   0.000D+00 0.000D+00 0.000D+00 0.100D+01
 Coeff:      0.914D-02 0.182D+00 0.286D+00 0.522D+00
 Gap=     0.340 Goal=   None    Shift=    0.000
 RMSDP=3.32D-04 MaxDP=1.07D-02 DE=-3.75D-02 OVMax= 1.01D-02

 Cycle   5  Pass 1  IDiag  1:
 RMSU=  2.34D-04    CP:  6.75D-01  7.21D-01  6.28D-01  8.50D-01
 E= -440.146570459256     Delta-E=       -0.001177436745 Rises=F Damp=F
 DIIS: error= 3.91D-04 at cycle   5 NSaved=   5.
 NSaved= 5 IEnMin= 5 EnMin= -440.146570459256     IErMin= 5 ErrMin= 3.91D-04
 ErrMax= 3.91D-04  0.00D+00 EMaxC= 1.00D-01 BMatC= 6.59D-05 BMatP= 1.51D-03
 IDIUse=3 WtCom= 9.96D-01 WtEn= 3.91D-03
 Coeff-Com:  0.780D-03 0.184D-01 0.406D-01 0.180D+00 0.760D+00
 Coeff-En:   0.000D+00 0.000D+00 0.000D+00 0.000D+00 0.100D+01
 Coeff:      0.776D-03 0.183D-01 0.405D-01 0.180D+00 0.761D+00
 Gap=     0.340 Goal=   None    Shift=    0.000
 RMSDP=1.47D-04 MaxDP=5.31D-03 DE=-1.18D-03 OVMax= 2.72D-03

 Cycle   6  Pass 1  IDiag  1:
 RMSU=  1.00D-04    CP:  6.73D-01  7.22D-01  6.46D-01  8.63D-01  8.84D-01
 E= -440.146615848220     Delta-E=       -0.000045388965 Rises=F Damp=F
 DIIS: error= 2.39D-04 at cycle   6 NSaved=   6.
 NSaved= 6 IEnMin= 6 EnMin= -440.146615848220     IErMin= 6 ErrMin= 2.39D-04
 ErrMax= 2.39D-04  0.00D+00 EMaxC= 1.00D-01 BMatC= 1.99D-05 BMatP= 6.59D-05
 IDIUse=3 WtCom= 9.98D-01 WtEn= 2.39D-03
 Coeff-Com: -0.110D-02-0.191D-01-0.219D-01 0.161D-01 0.413D+00 0.613D+00
 Coeff-En:   0.000D+00 0.000D+00 0.000D+00 0.000D+00 0.285D-01 0.972D+00
 Coeff:     -0.110D-02-0.191D-01-0.218D-01 0.161D-01 0.412D+00 0.614D+00
 Gap=     0.340 Goal=   None    Shift=    0.000
 RMSDP=4.29D-05 MaxDP=1.05D-03 DE=-4.54D-05 OVMax= 1.44D-03

 Cycle   7  Pass 1  IDiag  1:
 RMSU=  2.91D-05    CP:  6.72D-01  7.20D-01  6.49D-01  8.72D-01  9.44D-01
                    CP:  1.13D+00
 E= -440.146632757636     Delta-E=       -0.000016909416 Rises=F Damp=F
 DIIS: error= 6.82D-05 at cycle   7 NSaved=   7.
 NSaved= 7 IEnMin= 7 EnMin= -440.146632757636     IErMin= 7 ErrMin= 6.82D-05
 ErrMax= 6.82D-05  0.00D+00 EMaxC= 1.00D-01 BMatC= 5.04D-07 BMatP= 1.99D-05
 IDIUse=1 WtCom= 1.00D+00 WtEn= 0.00D+00
 Coeff-Com: -0.287D-03-0.539D-02-0.653D-02-0.114D-01 0.191D-01 0.106D+00
 Coeff-Com:  0.899D+00
 Coeff:     -0.287D-03-0.539D-02-0.653D-02-0.114D-01 0.191D-01 0.106D+00
 Coeff:      0.899D+00
 Gap=     0.340 Goal=   None    Shift=    0.000
 RMSDP=1.92D-05 MaxDP=4.61D-04 DE=-1.69D-05 OVMax= 5.27D-04

 Cycle   8  Pass 1  IDiag  1:
 RMSU=  9.40D-06    CP:  6.72D-01  7.19D-01  6.50D-01  8.74D-01  9.70D-01
                    CP:  1.22D+00  1.13D+00
 E= -440.146633845601     Delta-E=       -0.000001087965 Rises=F Damp=F
 DIIS: error= 1.63D-05 at cycle   8 NSaved=   8.
 NSaved= 8 IEnMin= 8 EnMin= -440.146633845601     IErMin= 8 ErrMin= 1.63D-05
 ErrMax= 1.63D-05  0.00D+00 EMaxC= 1.00D-01 BMatC= 1.04D-07 BMatP= 5.04D-07
 IDIUse=1 WtCom= 1.00D+00 WtEn= 0.00D+00
 Coeff-Com:  0.597D-04 0.735D-03 0.922D-03-0.711D-02-0.580D-01-0.602D-01
 Coeff-Com:  0.299D+00 0.825D+00
 Coeff:      0.597D-04 0.735D-03 0.922D-03-0.711D-02-0.580D-01-0.602D-01
 Coeff:      0.299D+00 0.825D+00
 Gap=     0.340 Goal=   None    Shift=    0.000
 RMSDP=8.43D-06 MaxDP=2.51D-04 DE=-1.09D-06 OVMax= 3.37D-04

 Cycle   9  Pass 1  IDiag  1:
 RMSU=  3.33D-06    CP:  6.72D-01  7.19D-01  6.51D-01  8.73D-01  9.75D-01
                    CP:  1.26D+00  1.24D+00  1.26D+00
 E= -440.146634046416     Delta-E=       -0.000000200815 Rises=F Damp=F
 DIIS: error= 1.15D-05 at cycle   9 NSaved=   9.
 NSaved= 9 IEnMin= 9 EnMin= -440.146634046416     IErMin= 9 ErrMin= 1.15D-05
 ErrMax= 1.15D-05  0.00D+00 EMaxC= 1.00D-01 BMatC= 9.78D-09 BMatP= 1.04D-07
 IDIUse=1 WtCom= 1.00D+00 WtEn= 0.00D+00
 Coeff-Com:  0.504D-04 0.847D-03 0.114D-02-0.633D-03-0.191D-01-0.286D-01
 Coeff-Com: -0.293D-02 0.241D+00 0.808D+00
 Coeff:      0.504D-04 0.847D-03 0.114D-02-0.633D-03-0.191D-01-0.286D-01
 Coeff:     -0.293D-02 0.241D+00 0.808D+00
 Gap=     0.340 Goal=   None    Shift=    0.000
 RMSDP=2.61D-06 MaxDP=1.15D-04 DE=-2.01D-07 OVMax= 8.21D-05

 Cycle  10  Pass 1  IDiag  1:
 RMSU=  1.03D-06    CP:  6.72D-01  7.19D-01  6.51D-01  8.72D-01  9.74D-01
                    CP:  1.27D+00  1.25D+00  1.35D+00  1.26D+00
 E= -440.146634067290     Delta-E=       -0.000000020875 Rises=F Damp=F
 DIIS: error= 2.41D-06 at cycle  10 NSaved=  10.
 NSaved=10 IEnMin=10 EnMin= -440.146634067290     IErMin=10 ErrMin= 2.41D-06
 ErrMax= 2.41D-06  0.00D+00 EMaxC= 1.00D-01 BMatC= 1.32D-09 BMatP= 9.78D-09
 IDIUse=1 WtCom= 1.00D+00 WtEn= 0.00D+00
 Coeff-Com:  0.397D-05 0.120D-03 0.195D-03 0.879D-03 0.334D-02 0.131D-02
 Coeff-Com: -0.398D-01-0.692D-01 0.193D+00 0.910D+00
 Coeff:      0.397D-05 0.120D-03 0.195D-03 0.879D-03 0.334D-02 0.131D-02
 Coeff:     -0.398D-01-0.692D-01 0.193D+00 0.910D+00
 Gap=     0.340 Goal=   None    Shift=    0.000
 RMSDP=8.57D-07 MaxDP=4.71D-05 DE=-2.09D-08 OVMax= 4.68D-05

 Cycle  11  Pass 1  IDiag  1:
 RMSU=  4.23D-07    CP:  6.72D-01  7.19D-01  6.51D-01  8.72D-01  9.73D-01
                    CP:  1.27D+00  1.26D+00  1.39D+00  1.38D+00  1.19D+00
 E= -440.146634070943     Delta-E=       -0.000000003653 Rises=F Damp=F
 DIIS: error= 1.07D-06 at cycle  11 NSaved=  11.
 NSaved=11 IEnMin=11 EnMin= -440.146634070943     IErMin=11 ErrMin= 1.07D-06
 ErrMax= 1.07D-06  0.00D+00 EMaxC= 1.00D-01 BMatC= 1.80D-10 BMatP= 1.32D-09
 IDIUse=1 WtCom= 1.00D+00 WtEn= 0.00D+00
 Coeff-Com: -0.498D-05-0.752D-04-0.859D-04 0.379D-03 0.351D-02 0.412D-02
 Coeff-Com: -0.989D-02-0.535D-01-0.602D-01 0.232D+00 0.884D+00
 Coeff:     -0.498D-05-0.752D-04-0.859D-04 0.379D-03 0.351D-02 0.412D-02
 Coeff:     -0.989D-02-0.535D-01-0.602D-01 0.232D+00 0.884D+00
 Gap=     0.340 Goal=   None    Shift=    0.000
 RMSDP=2.99D-07 MaxDP=1.57D-05 DE=-3.65D-09 OVMax= 1.47D-05

 Cycle  12  Pass 1  IDiag  1:
 RMSU=  1.57D-07    CP:  6.72D-01  7.19D-01  6.51D-01  8.72D-01  9.73D-01
                    CP:  1.27D+00  1.26D+00  1.40D+00  1.41D+00  1.29D+00
                    CP:  1.32D+00
 E= -440.146634071436     Delta-E=       -0.000000000493 Rises=F Damp=F
 DIIS: error= 2.88D-07 at cycle  12 NSaved=  12.
 NSaved=12 IEnMin=12 EnMin= -440.146634071436     IErMin=12 ErrMin= 2.88D-07
 ErrMax= 2.88D-07  0.00D+00 EMaxC= 1.00D-01 BMatC= 1.59D-11 BMatP= 1.80D-10
 IDIUse=1 WtCom= 1.00D+00 WtEn= 0.00D+00
 Coeff-Com: -0.921D-06-0.236D-04-0.353D-04-0.542D-04-0.249D-03 0.139D-03
 Coeff-Com:  0.443D-02 0.488D-02-0.264D-01-0.874D-01 0.728D-01 0.103D+01
 Coeff:     -0.921D-06-0.236D-04-0.353D-04-0.542D-04-0.249D-03 0.139D-03
 Coeff:      0.443D-02 0.488D-02-0.264D-01-0.874D-01 0.728D-01 0.103D+01
 Gap=     0.340 Goal=   None    Shift=    0.000
 RMSDP=1.31D-07 MaxDP=3.53D-06 DE=-4.93D-10 OVMax= 5.26D-06

 Cycle  13  Pass 1  IDiag  1:
 RMSU=  4.79D-08    CP:  6.72D-01  7.19D-01  6.51D-01  8.72D-01  9.73D-01
                    CP:  1.27D+00  1.26D+00  1.39D+00  1.41D+00  1.32D+00
                    CP:  1.47D+00  1.25D+00
 E= -440.146634071494     Delta-E=       -0.000000000058 Rises=F Damp=F
 DIIS: error= 1.07D-07 at cycle  13 NSaved=  13.
 NSaved=13 IEnMin=13 EnMin= -440.146634071494     IErMin=13 ErrMin= 1.07D-07
 ErrMax= 1.07D-07  0.00D+00 EMaxC= 1.00D-01 BMatC= 2.52D-12 BMatP= 1.59D-11
 IDIUse=1 WtCom= 1.00D+00 WtEn= 0.00D+00
 Coeff-Com:  0.835D-07-0.868D-06-0.373D-05-0.455D-04-0.405D-03-0.314D-03
 Coeff-Com:  0.224D-02 0.643D-02-0.289D-02-0.494D-01-0.652D-01 0.312D+00
 Coeff-Com:  0.797D+00
 Coeff:      0.835D-07-0.868D-06-0.373D-05-0.455D-04-0.405D-03-0.314D-03
 Coeff:      0.224D-02 0.643D-02-0.289D-02-0.494D-01-0.652D-01 0.312D+00
 Coeff:      0.797D+00
 Gap=     0.340 Goal=   None    Shift=    0.000
 RMSDP=4.04D-08 MaxDP=1.42D-06 DE=-5.82D-11 OVMax= 1.63D-06

 Cycle  14  Pass 1  IDiag  1:
 RMSU=  2.41D-08    CP:  6.72D-01  7.19D-01  6.51D-01  8.72D-01  9.73D-01
                    CP:  1.27D+00  1.26D+00  1.39D+00  1.41D+00  1.31D+00
                    CP:  1.50D+00  1.31D+00  1.25D+00
 E= -440.146634071503     Delta-E=       -0.000000000008 Rises=F Damp=F
 DIIS: error= 3.97D-08 at cycle  14 NSaved=  14.
 NSaved=14 IEnMin=14 EnMin= -440.146634071503     IErMin=14 ErrMin= 3.97D-08
 ErrMax= 3.97D-08  0.00D+00 EMaxC= 1.00D-01 BMatC= 2.94D-13 BMatP= 2.52D-12
 IDIUse=1 WtCom= 1.00D+00 WtEn= 0.00D+00
 Coeff-Com:  0.106D-06 0.239D-05 0.290D-05-0.244D-05-0.473D-04-0.727D-04
 Coeff-Com: -0.150D-03 0.615D-03 0.264D-02 0.188D-02-0.234D-01-0.776D-01
 Coeff-Com:  0.191D+00 0.905D+00
 Coeff:      0.106D-06 0.239D-05 0.290D-05-0.244D-05-0.473D-04-0.727D-04
 Coeff:     -0.150D-03 0.615D-03 0.264D-02 0.188D-02-0.234D-01-0.776D-01
 Coeff:      0.191D+00 0.905D+00
 Gap=     0.340 Goal=   None    Shift=    0.000
 RMSDP=2.42D-08 MaxDP=1.44D-06 DE=-8.07D-12 OVMax= 6.48D-07

 Cycle  15  Pass 1  IDiag  1:
 RMSU=  6.71D-09    CP:  6.72D-01  7.19D-01  6.51D-01  8.72D-01  9.73D-01
                    CP:  1.27D+00  1.26D+00  1.39D+00  1.41D+00  1.31D+00
                    CP:  1.49D+00  1.34D+00  1.42D+00  1.35D+00
 E= -440.146634071500     Delta-E=        0.000000000002 Rises=F Damp=F
 DIIS: error= 1.72D-08 at cycle  15 NSaved=  15.
 NSaved=15 IEnMin=14 EnMin= -440.146634071503     IErMin=15 ErrMin= 1.72D-08
 ErrMax= 1.72D-08  0.00D+00 EMaxC= 1.00D-01 BMatC= 3.23D-14 BMatP= 2.94D-13
 IDIUse=1 WtCom= 1.00D+00 WtEn= 0.00D+00
 Coeff-Com: -0.515D-08 0.200D-06 0.493D-06 0.575D-05 0.510D-04 0.385D-04
 Coeff-Com: -0.316D-03-0.727D-03 0.698D-03 0.666D-02 0.644D-02-0.504D-01
 Coeff-Com: -0.685D-01 0.848D-01 0.102D+01
 Coeff:     -0.515D-08 0.200D-06 0.493D-06 0.575D-05 0.510D-04 0.385D-04
 Coeff:     -0.316D-03-0.727D-03 0.698D-03 0.666D-02 0.644D-02-0.504D-01
 Coeff:     -0.685D-01 0.848D-01 0.102D+01
 Gap=     0.340 Goal=   None    Shift=    0.000
 RMSDP=9.60D-09 MaxDP=4.99D-07 DE= 2.16D-12 OVMax= 3.35D-07

 SCF Done:  E(RwB97XD) =  -440.146634072     A.U. after   15 cycles
            NFock= 15  Conv=0.96D-08     -V/T= 2.0003
 KE= 4.400172469663D+02 PE=-2.010006015666D+03 EE= 6.380250947270D+02
 Leave Link  502 at Tue Nov 22 19:15:23 2022, MaxMem= 16106127360 cpu:             586.5 elap:              18.4
 (Enter /opt/ap/G16/B01/g16/l601.exe)
 Copying SCF densities to generalized density rwf, IOpCl= 0 IROHF=0.

 **********************************************************************

            Population analysis using the SCF Density.

 **********************************************************************

 Orbital symmetries:
       Occupied  (A) (A) (A) (A) (A) (A) (A) (A) (A) (A) (A) (A)
                 (A) (A) (A) (A) (A) (A) (A) (A) (A) (A) (A) (A)
                 (A) (A) (A) (A) (A) (A) (A) (A) (A) (A) (A) (A)
       Virtual   (A) (A) (A) (A) (A) (A) (A) (A) (A) (A) (A) (A)
                 (A) (A) (A) (A) (A) (A) (A) (A) (A) (A) (A) (A)
                 (A) (A) (A) (A) (A) (A) (A) (A) (A) (A) (A) (A)
                 (A) (A) (A) (A) (A) (A) (A) (A) (A) (A) (A) (A)
                 (A) (A) (A) (A) (A) (A) (A) (A) (A) (A) (A) (A)
                 (A) (A) (A) (A) (A) (A) (A) (A) (A) (A) (A) (A)
                 (A) (A) (A) (A) (A) (A) (A) (A) (A) (A) (A) (A)
                 (A) (A) (A) (A) (A) (A) (A) (A) (A) (A) (A) (A)
                 (A) (A) (A) (A) (A) (A) (A) (A) (A) (A) (A) (A)
                 (A) (A) (A) (A) (A) (A) (A) (A) (A) (A) (A) (A)
                 (A) (A) (A) (A) (A) (A) (A) (A) (A) (A) (A) (A)
                 (A) (A) (A) (A) (A) (A) (A) (A) (A) (A) (A) (A)
                 (A) (A) (A) (A) (A) (A) (A) (A) (A) (A) (A) (A)
                 (A) (A) (A) (A) (A) (A) (A) (A) (A) (A) (A) (A)
                 (A) (A) (A) (A) (A) (A) (A) (A) (A) (A) (A) (A)
                 (A) (A) (A) (A) (A) (A) (A) (A) (A) (A) (A) (A)
                 (A) (A) (A) (A) (A) (A) (A) (A) (A) (A) (A) (A)
                 (A) (A) (A) (A) (A) (A) (A) (A) (A) (A) (A) (A)
                 (A) (A) (A) (A) (A) (A) (A) (A) (A) (A) (A) (A)
                 (A) (A) (A) (A) (A) (A) (A) (A) (A) (A) (A) (A)
                 (A) (A) (A) (A) (A) (A)
 The electronic state is 1-A.
 Alpha  occ. eigenvalues --  -19.21414 -14.47032 -10.39858 -10.33891 -10.28264
 Alpha  occ. eigenvalues --  -10.28031 -10.27852 -10.27458 -10.27267 -10.26313
 Alpha  occ. eigenvalues --   -1.14610  -1.06267  -0.96363  -0.88583  -0.86501
 Alpha  occ. eigenvalues --   -0.84671  -0.74798  -0.73126  -0.69242  -0.65797
 Alpha  occ. eigenvalues --   -0.61276  -0.58953  -0.56360  -0.55152  -0.53991
 Alpha  occ. eigenvalues --   -0.52840  -0.51601  -0.50052  -0.49337  -0.45883
 Alpha  occ. eigenvalues --   -0.45197  -0.44529  -0.39155  -0.34571  -0.33442
 Alpha  occ. eigenvalues --   -0.30685
 Alpha virt. eigenvalues --    0.03310   0.04335   0.04555   0.05058   0.05297
 Alpha virt. eigenvalues --    0.06296   0.06973   0.07534   0.08716   0.09278
 Alpha virt. eigenvalues --    0.10771   0.10893   0.11536   0.12136   0.13297
 Alpha virt. eigenvalues --    0.14378   0.14954   0.15551   0.15714   0.16194
 Alpha virt. eigenvalues --    0.16873   0.17492   0.17789   0.18071   0.18699
 Alpha virt. eigenvalues --    0.19045   0.19626   0.19876   0.20435   0.20873
 Alpha virt. eigenvalues --    0.21362   0.22122   0.22276   0.23154   0.23940
 Alpha virt. eigenvalues --    0.24341   0.25453   0.25759   0.26207   0.26326
 Alpha virt. eigenvalues --    0.27149   0.27927   0.28199   0.29631   0.30146
 Alpha virt. eigenvalues --    0.30747   0.31006   0.32273   0.33091   0.33512
 Alpha virt. eigenvalues --    0.33942   0.34505   0.36114   0.36980   0.37578
 Alpha virt. eigenvalues --    0.38408   0.38704   0.38875   0.39751   0.41266
 Alpha virt. eigenvalues --    0.42409   0.43142   0.44200   0.44847   0.44997
 Alpha virt. eigenvalues --    0.46650   0.47702   0.51128   0.52865   0.54822
 Alpha virt. eigenvalues --    0.58020   0.58776   0.59669   0.62675   0.63407
 Alpha virt. eigenvalues --    0.64343   0.64994   0.65822   0.66334   0.67055
 Alpha virt. eigenvalues --    0.68555   0.69091   0.70900   0.72155   0.73129
 Alpha virt. eigenvalues --    0.74678   0.75840   0.76692   0.77829   0.79582
 Alpha virt. eigenvalues --    0.81337   0.81675   0.82577   0.83918   0.84936
 Alpha virt. eigenvalues --    0.85955   0.88279   0.90548   0.92682   0.93192
 Alpha virt. eigenvalues --    0.94229   0.95381   0.95604   0.96970   0.97404
 Alpha virt. eigenvalues --    0.98235   1.00717   1.01917   1.02410   1.06119
 Alpha virt. eigenvalues --    1.08085   1.09660   1.10707   1.12225   1.13343
 Alpha virt. eigenvalues --    1.16272   1.17448   1.18537   1.22417   1.23630
 Alpha virt. eigenvalues --    1.24338   1.29870   1.33461   1.35820   1.37179
 Alpha virt. eigenvalues --    1.38256   1.45190   1.46063   1.52937   1.55052
 Alpha virt. eigenvalues --    1.57592   1.60845   1.61892   1.63401   1.65291
 Alpha virt. eigenvalues --    1.66593   1.67091   1.68037   1.68424   1.68690
 Alpha virt. eigenvalues --    1.69760   1.71165   1.75493   1.76439   1.79046
 Alpha virt. eigenvalues --    1.80220   1.86017   1.87430   1.88995   1.91203
 Alpha virt. eigenvalues --    1.93177   1.94304   1.95858   1.97519   1.99111
 Alpha virt. eigenvalues --    2.00973   2.01971   2.04583   2.06319   2.07708
 Alpha virt. eigenvalues --    2.09107   2.10784   2.12292   2.13509   2.14947
 Alpha virt. eigenvalues --    2.22019   2.25774   2.28855   2.33885   2.35612
 Alpha virt. eigenvalues --    2.39611   2.41870   2.45331   2.51624   2.52195
 Alpha virt. eigenvalues --    2.53276   2.55839   2.60219   2.60459   2.62949
 Alpha virt. eigenvalues --    2.64845   2.68399   2.69489   2.73421   2.76594
 Alpha virt. eigenvalues --    2.78942   2.81403   2.82426   2.82975   2.84918
 Alpha virt. eigenvalues --    2.86420   2.90674   2.91716   2.92890   2.93710
 Alpha virt. eigenvalues --    2.94958   2.95753   2.97950   2.98435   3.02065
 Alpha virt. eigenvalues --    3.03242   3.04028   3.05541   3.06541   3.14421
 Alpha virt. eigenvalues --    3.19766   3.22279   3.23998   3.26907   3.33012
 Alpha virt. eigenvalues --    3.43204   3.44694   3.46099   3.49003   3.53753
 Alpha virt. eigenvalues --    3.62438   3.68007   3.71744   3.77350   3.91781
 Alpha virt. eigenvalues --    3.99994   4.03443   4.04569   4.12402   4.18091
 Alpha virt. eigenvalues --    4.30897   4.34636   4.38401   4.40823   4.45332
 Alpha virt. eigenvalues --    4.96109   5.18653   5.19387   5.23563   5.38011
 Alpha virt. eigenvalues --    5.91175  23.88574  23.99081  24.14833  24.22875
 Alpha virt. eigenvalues --   24.30545  24.33387  24.38157  24.42972  35.87875
 Alpha virt. eigenvalues --   50.16202
          Condensed to atoms (all electrons):
               1          2          3          4          5          6
     1  C    7.331291  -0.102198   0.243844  -0.721328  -0.078452   0.028510
     2  C   -0.102198   7.376255  -1.791874   0.078874   0.511411  -0.004200
     3  C    0.243844  -1.791874   7.514574   0.387182  -0.061697  -0.140746
     4  C   -0.721328   0.078874   0.387182   6.018828  -0.052847  -0.008820
     5  H   -0.078452   0.511411  -0.061697  -0.052847   0.451792  -0.019152
     6  N    0.028510  -0.004200  -0.140746  -0.008820  -0.019152   7.322611
     7  C   -0.337972   0.097127   0.364195  -0.297699   0.012569  -0.017719
     8  H   -0.106836  -0.018774   0.521346   0.041555  -0.002801   0.001567
     9  C   -0.124077  -0.274229  -0.406890   0.630324   0.028060   0.040089
    10  H    0.020757  -0.067893   0.026984   0.413263  -0.011649  -0.003701
    11  C   -0.216103   0.034048  -0.145432  -0.098239  -0.000287   0.066169
    12  H   -0.015897  -0.040057   0.026316  -0.008473   0.000659   0.351880
    13  H    0.031973   0.026882  -0.114203  -0.027477   0.000682  -0.004888
    14  H    0.012020  -0.018497  -0.004221  -0.049447   0.001424   0.001390
    15  C    0.036247  -0.095808   0.020481  -0.033479   0.002644  -0.417982
    16  O   -0.152623   0.106697  -0.037928   0.011573   0.002365  -0.116980
    17  H   -0.005105  -0.001612   0.005402   0.000832  -0.001019   0.004719
    18  H   -0.013596   0.007011  -0.006600  -0.001268  -0.000332   0.008436
    19  H    0.007578   0.018639  -0.010751   0.001277   0.000555   0.017413
               7          8          9         10         11         12
     1  C   -0.337972  -0.106836  -0.124077   0.020757  -0.216103  -0.015897
     2  C    0.097127  -0.018774  -0.274229  -0.067893   0.034048  -0.040057
     3  C    0.364195   0.521346  -0.406890   0.026984  -0.145432   0.026316
     4  C   -0.297699   0.041555   0.630324   0.413263  -0.098239  -0.008473
     5  H    0.012569  -0.002801   0.028060  -0.011649  -0.000287   0.000659
     6  N   -0.017719   0.001567   0.040089  -0.003701   0.066169   0.351880
     7  C    5.582518  -0.076689   0.521255  -0.004215  -0.027312  -0.012072
     8  H   -0.076689   0.544614  -0.018298   0.001834  -0.005932  -0.004389
     9  C    0.521255  -0.018298   5.602142  -0.060827  -0.003297   0.002251
    10  H   -0.004215   0.001834  -0.060827   0.483763   0.003715   0.000083
    11  C   -0.027312  -0.005932  -0.003297   0.003715   5.915905   0.035649
    12  H   -0.012072  -0.004389   0.002251   0.000083   0.035649   0.388053
    13  H    0.442971  -0.018682  -0.029035  -0.000870   0.000830   0.001638
    14  H   -0.057082  -0.000725   0.470655  -0.011204  -0.001652  -0.000017
    15  C    0.031130  -0.001581  -0.018796   0.000948  -0.113677  -0.022002
    16  O    0.000658  -0.001579  -0.001171  -0.000112   0.481518   0.006516
    17  H    0.000061   0.000093  -0.000042  -0.000002  -0.021326  -0.000581
    18  H    0.000148  -0.000052   0.000018   0.000004  -0.083859  -0.000993
    19  H    0.001287   0.001920   0.000391  -0.000035  -0.049577  -0.009702
              13         14         15         16         17         18
     1  C    0.031973   0.012020   0.036247  -0.152623  -0.005105  -0.013596
     2  C    0.026882  -0.018497  -0.095808   0.106697  -0.001612   0.007011
     3  C   -0.114203  -0.004221   0.020481  -0.037928   0.005402  -0.006600
     4  C   -0.027477  -0.049447  -0.033479   0.011573   0.000832  -0.001268
     5  H    0.000682   0.001424   0.002644   0.002365  -0.001019  -0.000332
     6  N   -0.004888   0.001390  -0.417982  -0.116980   0.004719   0.008436
     7  C    0.442971  -0.057082   0.031130   0.000658   0.000061   0.000148
     8  H   -0.018682  -0.000725  -0.001581  -0.001579   0.000093  -0.000052
     9  C   -0.029035   0.470655  -0.018796  -0.001171  -0.000042   0.000018
    10  H   -0.000870  -0.011204   0.000948  -0.000112  -0.000002   0.000004
    11  C    0.000830  -0.001652  -0.113677   0.481518  -0.021326  -0.083859
    12  H    0.001638  -0.000017  -0.022002   0.006516  -0.000581  -0.000993
    13  H    0.492941  -0.008537   0.000744   0.000116  -0.000008  -0.000011
    14  H   -0.008537   0.495265  -0.000500  -0.000038  -0.000005  -0.000006
    15  C    0.000744  -0.000500   5.976321  -0.022747   0.395144   0.474909
    16  O    0.000116  -0.000038  -0.022747   8.093646  -0.005954  -0.009045
    17  H   -0.000008  -0.000005   0.395144  -0.005954   0.501582  -0.030446
    18  H   -0.000011  -0.000006   0.474909  -0.009045  -0.030446   0.492382
    19  H   -0.000123   0.000016   0.355949   0.007559  -0.033011  -0.029534
              19
     1  C    0.007578
     2  C    0.018639
     3  C   -0.010751
     4  C    0.001277
     5  H    0.000555
     6  N    0.017413
     7  C    0.001287
     8  H    0.001920
     9  C    0.000391
    10  H   -0.000035
    11  C   -0.049577
    12  H   -0.009702
    13  H   -0.000123
    14  H    0.000016
    15  C    0.355949
    16  O    0.007559
    17  H   -0.033011
    18  H   -0.029534
    19  H    0.603967
 Mulliken charges:
               1
     1  C    0.161966
     2  C    0.158195
     3  C   -0.389983
     4  C   -0.284632
     5  H    0.216075
     6  N   -0.108596
     7  C   -0.223161
     8  H    0.143410
     9  C   -0.358523
    10  H    0.209156
    11  C    0.228859
    12  H    0.301138
    13  H    0.205056
    14  H    0.171161
    15  C   -0.567946
    16  O   -0.362470
    17  H    0.191278
    18  H    0.192833
    19  H    0.116183
 Sum of Mulliken charges =  -0.00000
 Mulliken charges with hydrogens summed into heavy atoms:
               1
     1  C    0.161966
     2  C    0.374270
     3  C   -0.246574
     4  C   -0.075476
     6  N    0.192542
     7  C   -0.018104
     9  C   -0.187362
    11  C    0.228859
    15  C   -0.067651
    16  O   -0.362470
 Electronic spatial extent (au):  <R**2>=           1672.5731
 Charge=             -0.0000 electrons
 Dipole moment (field-independent basis, Debye):
    X=             -0.0150    Y=             -3.5747    Z=              1.1099  Tot=              3.7431
 Quadrupole moment (field-independent basis, Debye-Ang):
   XX=            -50.3777   YY=            -55.7621   ZZ=            -62.0082
   XY=             -8.0945   XZ=              2.5998   YZ=              1.9393
 Traceless Quadrupole moment (field-independent basis, Debye-Ang):
   XX=              5.6716   YY=              0.2872   ZZ=             -5.9589
   XY=             -8.0945   XZ=              2.5998   YZ=              1.9393
 Octapole moment (field-independent basis, Debye-Ang**2):
  XXX=             15.9456  YYY=             -9.2311  ZZZ=             -0.6956  XYY=             -8.7356
  XXY=            -15.8940  XXZ=              3.7859  XZZ=             12.2381  YZZ=              0.1992
  YYZ=              3.1765  XYZ=              0.6734
 Hexadecapole moment (field-independent basis, Debye-Ang**3):
 XXXX=          -1572.6975 YYYY=           -371.5675 ZZZZ=            -85.7020 XXXY=            -33.9386
 XXXZ=             11.0222 YYYX=            -21.6951 YYYZ=              4.6746 ZZZX=             -0.3390
 ZZZY=             -1.4417 XXYY=           -356.7784 XXZZ=           -319.2242 YYZZ=            -86.2365
 XXYZ=             12.5517 YYXZ=              7.3333 ZZXY=              0.3190
 N-N= 4.918170399016D+02 E-N=-2.010006014094D+03  KE= 4.400172469663D+02
 No NMR shielding tensors so no spin-rotation constants.
 Leave Link  601 at Tue Nov 22 19:15:23 2022, MaxMem= 16106127360 cpu:               3.7 elap:               0.1
 (Enter /opt/ap/G16/B01/g16/l9999.exe)
 1\1\GINC-N34\SP\RwB97XD\6-311++G(d,p)\C8H9N1O1\ROOT\22-Nov-2022\0\\#P 
 wB97XD/6-311++G(d,p) scf=maxcycle=512\\_conf068.gjf nmol_natom 1_19\\0
 ,1\C\C,1,1.39447505\C,1,1.39873503,2,119.56697224\C,2,1.39066123,1,119
 .42697207,3,2.53915756,0\H,2,0.96213008,1,119.8046163,3,-177.79870417,
 0\N,1,1.41693372,2,123.72220125,4,-177.74604849,0\C,3,1.38667133,1,120
 .18759987,2,-2.5020857,0\H,3,0.95673174,1,118.82085988,2,177.96737168,
 0\C,4,1.38268572,2,121.03929493,1,-0.41221113,0\H,4,0.9858595,2,118.57
 91267,1,178.77373233,0\C,6,1.35500692,1,127.62132737,2,-20.,0\H,6,0.89
 609466,1,115.10511997,2,160.,0\H,7,0.98847198,3,119.08117704,1,-179.64
 585354,0\H,9,0.98451201,4,120.53755637,2,177.22743544,0\C,11,1.5027456
 1,6,115.46861532,1,175.89235465,0\O,11,1.23496495,6,123.15099888,1,-3.
 40672617,0\H,15,0.98719837,11,107.47091875,6,-116.36962839,0\H,15,0.99
 976021,11,109.69443261,6,128.85346087,0\H,15,0.97696155,11,114.3700887
 1,6,6.05302844,0\\Version=ES64L-G16RevB.01\State=1-A\HF=-440.1466341\R
 MSD=9.596e-09\Dipole=0.3978267,0.5918185,-1.2884632\Quadrupole=0.66356
 24,-5.0554317,4.3918693,-2.1888621,5.7338891,0.6686813\PG=C01 [X(C8H9N
 1O1)]\\@


 MATERIAL COPIED FROM ONE SCHOLARLY BOOK WITHOUT CREDIT COMPRISES PLAGIARISM.
 MATERIAL COPIED FROM TWO SCHOLARLY BOOKS COMPRISES AN ESSAY.
 MATERIAL COPIED FROM THREE SCHOLARLY BOOKS COMPRISES A DISSERTATION.
 MATERIAL COPIED FROM FOUR SCHOLARLY BOOKS COMPRISES A FIFTH SCHOLARLY BOOK.

                               -- C&EN, 25 FEB 1980
 Job cpu time:       0 days  0 hours 10 minutes 25.8 seconds.
 Elapsed time:       0 days  0 hours  0 minutes 19.7 seconds.
 File lengths (MBytes):  RWF=     46 Int=      0 D2E=      0 Chk=      6 Scr=      1
 Normal termination of Gaussian 16 at Tue Nov 22 19:15:23 2022.
