 Entering Gaussian System, Link 0=g16
 Input=_conf029.gjf
 Output=_conf029.log
 Initial command:
 /opt/ap/G16/B01/g16/l1.exe "/tmp2/scr/Gau-16885.inp" -scrdir="/tmp2/scr/"
 Entering Link 1 = /opt/ap/G16/B01/g16/l1.exe PID=     16886.
  
 Copyright (c) 1988-2017, Gaussian, Inc.  All Rights Reserved.
  
 This is part of the Gaussian(R) 16 program.  It is based on
 the Gaussian(R) 09 system (copyright 2009, Gaussian, Inc.),
 the Gaussian(R) 03 system (copyright 2003, Gaussian, Inc.),
 the Gaussian(R) 98 system (copyright 1998, Gaussian, Inc.),
 the Gaussian(R) 94 system (copyright 1995, Gaussian, Inc.),
 the Gaussian 92(TM) system (copyright 1992, Gaussian, Inc.),
 the Gaussian 90(TM) system (copyright 1990, Gaussian, Inc.),
 the Gaussian 88(TM) system (copyright 1988, Gaussian, Inc.),
 the Gaussian 86(TM) system (copyright 1986, Carnegie Mellon
 University), and the Gaussian 82(TM) system (copyright 1983,
 Carnegie Mellon University). Gaussian is a federally registered
 trademark of Gaussian, Inc.
  
 This software contains proprietary and confidential information,
 including trade secrets, belonging to Gaussian, Inc.
  
 This software is provided under written license and may be
 used, copied, transmitted, or stored only in accord with that
 written license.
  
 The following legend is applicable only to US Government
 contracts under FAR:
  
                    RESTRICTED RIGHTS LEGEND
  
 Use, reproduction and disclosure by the US Government is
 subject to restrictions as set forth in subparagraphs (a)
 and (c) of the Commercial Computer Software - Restricted
 Rights clause in FAR 52.227-19.
  
 Gaussian, Inc.
 340 Quinnipiac St., Bldg. 40, Wallingford CT 06492
  
  
 ---------------------------------------------------------------
 Warning -- This program may not be used in any manner that
 competes with the business of Gaussian, Inc. or will provide
 assistance to any competitor of Gaussian, Inc.  The licensee
 of this program is prohibited from giving any competitor of
 Gaussian, Inc. access to this program.  By using this program,
 the user acknowledges that Gaussian, Inc. is engaged in the
 business of creating and licensing software in the field of
 computational chemistry and represents and warrants to the
 licensee that it is not a competitor of Gaussian, Inc. and that
 it will not use this program in any manner prohibited above.
 ---------------------------------------------------------------
  

 Cite this work as:
 Gaussian 16, Revision B.01,
 M. J. Frisch, G. W. Trucks, H. B. Schlegel, G. E. Scuseria, 
 M. A. Robb, J. R. Cheeseman, G. Scalmani, V. Barone, 
 G. A. Petersson, H. Nakatsuji, X. Li, M. Caricato, A. V. Marenich, 
 J. Bloino, B. G. Janesko, R. Gomperts, B. Mennucci, H. P. Hratchian, 
 J. V. Ortiz, A. F. Izmaylov, J. L. Sonnenberg, D. Williams-Young, 
 F. Ding, F. Lipparini, F. Egidi, J. Goings, B. Peng, A. Petrone, 
 T. Henderson, D. Ranasinghe, V. G. Zakrzewski, J. Gao, N. Rega, 
 G. Zheng, W. Liang, M. Hada, M. Ehara, K. Toyota, R. Fukuda, 
 J. Hasegawa, M. Ishida, T. Nakajima, Y. Honda, O. Kitao, H. Nakai, 
 T. Vreven, K. Throssell, J. A. Montgomery, Jr., J. E. Peralta, 
 F. Ogliaro, M. J. Bearpark, J. J. Heyd, E. N. Brothers, K. N. Kudin, 
 V. N. Staroverov, T. A. Keith, R. Kobayashi, J. Normand, 
 K. Raghavachari, A. P. Rendell, J. C. Burant, S. S. Iyengar, 
 J. Tomasi, M. Cossi, J. M. Millam, M. Klene, C. Adamo, R. Cammi, 
 J. W. Ochterski, R. L. Martin, K. Morokuma, O. Farkas, 
 J. B. Foresman, and D. J. Fox, Gaussian, Inc., Wallingford CT, 2016.
 
 ******************************************
 Gaussian 16:  ES64L-G16RevB.01 20-Dec-2017
                22-Nov-2022 
 ******************************************
 %nprocshared=32
 Will use up to   32 processors via shared memory.
 %mem=120GB
 %chk=_conf029.chk
 ----------------------------------------
 #P wB97XD/6-311++G(d,p) scf=maxcycle=512
 ----------------------------------------
 1/38=1,172=1/1;
 2/12=2,17=6,18=5,40=1/2;
 3/5=4,6=6,7=1111,11=2,25=1,30=1,74=-58/1,2,3;
 4//1;
 5/5=2,7=512,38=5/2;
 6/7=2,8=2,9=2,10=2,28=1/1;
 99/5=1,9=1/99;
 Leave Link    1 at Tue Nov 22 19:11:24 2022, MaxMem= 16106127360 cpu:               1.5 elap:               0.1
 (Enter /opt/ap/G16/B01/g16/l101.exe)
 ----------------------------
 _conf029.gjf nmol_natom 1_19
 ----------------------------
 Symbolic Z-matrix:
 Charge =  0 Multiplicity = 1
 C
 C                    1     1.39448 
 C                    1     1.39874  2     119.56697 
 C                    2     1.39066  1     119.42697  3     2.53916  0
 H                    2     0.96213  1     119.80462  3    -177.7987  0
 N                    1     1.41693  2     123.7222  4    -177.74605  0
 C                    3     1.38667  1     120.1876  2    -2.50209  0
 H                    3     0.95673  1     118.82086  2     177.96737  0
 C                    4     1.38269  2     121.03929  1    -0.41221  0
 H                    4     0.98586  2     118.57913  1     178.77373  0
 C                    6     1.35501  1     127.62133  2     145.     0
 H                    6     0.89609  1     115.10512  2    -35.      0
 H                    7     0.98847  3     119.08118  1    -179.64585  0
 H                    9     0.98451  4     120.53756  2     177.22744  0
 C                    11    1.50275  6     115.46862  1     175.89235  0
 O                    11    1.23496  6     123.151  1    -3.40673  0
 H                    15    0.9872   11    107.47092  6    -116.36963  0
 H                    15    0.99976  11    109.69443  6     128.85346  0
 H                    15    0.97696  11    114.37009  6     6.05303  0
 
 ITRead=  0  0  0  0  0  0  0  0  0  0  0  0  0  0  0  0  0  0  0
 MicOpt= -1 -1 -1 -1 -1 -1 -1 -1 -1 -1 -1 -1 -1 -1 -1 -1 -1 -1 -1
 NAtoms=     19 NQM=       19 NQMF=       0 NMMI=      0 NMMIF=      0
                NMic=       0 NMicF=      0.
                    Isotopes and Nuclear Properties:
 (Nuclear quadrupole moments (NQMom) in fm**2, nuclear magnetic moments (NMagM)
  in nuclear magnetons)

  Atom         1           2           3           4           5           6           7           8           9          10
 IAtWgt=          12          12          12          12           1          14          12           1          12           1
 AtmWgt=  12.0000000  12.0000000  12.0000000  12.0000000   1.0078250  14.0030740  12.0000000   1.0078250  12.0000000   1.0078250
 NucSpn=           0           0           0           0           1           2           0           1           0           1
 AtZEff=  -0.0000000  -0.0000000  -0.0000000  -0.0000000  -0.0000000  -0.0000000  -0.0000000  -0.0000000  -0.0000000  -0.0000000
 NQMom=    0.0000000   0.0000000   0.0000000   0.0000000   0.0000000   2.0440000   0.0000000   0.0000000   0.0000000   0.0000000
 NMagM=    0.0000000   0.0000000   0.0000000   0.0000000   2.7928460   0.4037610   0.0000000   2.7928460   0.0000000   2.7928460
 AtZNuc=   6.0000000   6.0000000   6.0000000   6.0000000   1.0000000   7.0000000   6.0000000   1.0000000   6.0000000   1.0000000

  Atom        11          12          13          14          15          16          17          18          19
 IAtWgt=          12           1           1           1          12          16           1           1           1
 AtmWgt=  12.0000000   1.0078250   1.0078250   1.0078250  12.0000000  15.9949146   1.0078250   1.0078250   1.0078250
 NucSpn=           0           1           1           1           0           0           1           1           1
 AtZEff=  -0.0000000  -0.0000000  -0.0000000  -0.0000000  -0.0000000  -0.0000000  -0.0000000  -0.0000000  -0.0000000
 NQMom=    0.0000000   0.0000000   0.0000000   0.0000000   0.0000000   0.0000000   0.0000000   0.0000000   0.0000000
 NMagM=    0.0000000   2.7928460   2.7928460   2.7928460   0.0000000   0.0000000   2.7928460   2.7928460   2.7928460
 AtZNuc=   6.0000000   1.0000000   1.0000000   1.0000000   6.0000000   8.0000000   1.0000000   1.0000000   1.0000000
 Leave Link  101 at Tue Nov 22 19:11:24 2022, MaxMem= 16106127360 cpu:               5.2 elap:               0.2
 (Enter /opt/ap/G16/B01/g16/l202.exe)
                          Input orientation:                          
 ---------------------------------------------------------------------
 Center     Atomic      Atomic             Coordinates (Angstroms)
 Number     Number       Type             X           Y           Z
 ---------------------------------------------------------------------
      1          6           0        0.000000    0.000000    0.000000
      2          6           0        0.000000    0.000000    1.394475
      3          6           0        1.216591    0.000000   -0.690193
      4          6           0        1.210053    0.053661    2.077726
      5          1           0       -0.834249   -0.032067    1.872696
      6          7           0       -1.178505   -0.005866   -0.786634
      7          6           0        2.413939    0.052326    0.007287
      8          1           0        1.204393   -0.029731   -1.646384
      9          6           0        2.412261    0.098442    1.396177
     10          1           0        1.194755    0.071528    3.063305
     11          6           0       -1.381462    0.608722   -1.977069
     12          1           0       -1.861419   -0.474695   -0.444854
     13          1           0        3.263999    0.056828   -0.497149
     14          1           0        3.262484    0.177260    1.886251
     15          6           0       -2.711693    0.342257   -2.623387
     16          8           0       -0.537763    1.331454   -2.516485
     17          1           0       -2.539220   -0.131390   -3.472193
     18          1           0       -3.143808    1.208162   -2.874393
     19          1           0       -3.331304   -0.174419   -2.072403
 ---------------------------------------------------------------------
                    Distance matrix (angstroms):
                    1          2          3          4          5
     1  C    0.000000
     2  C    1.394475   0.000000
     3  C    1.398735   2.413697   0.000000
     4  C    2.405006   1.390661   2.768447   0.000000
     5  H    2.050363   0.962130   3.282586   2.056345   0.000000
     6  N    1.416934   2.479142   2.397044   3.730055   2.681648
     7  C    2.414517   2.784624   1.386671   2.395008   3.746678
     8  H    2.040105   3.270821   0.956732   3.725048   4.066939
     9  C    2.788908   2.414270   2.406711   1.382686   3.283889
    10  H    3.288829   2.053668   3.754243   0.985860   2.354812
    11  C    2.487525   3.694088   2.962511   4.844110   3.940906
    12  H    1.971829   2.659577   3.124047   4.009552   2.573332
    13  H    3.302132   3.772951   2.057273   3.293734   4.734944
    14  H    3.772687   3.304099   3.294718   2.065046   4.102100
    15  C    3.788479   4.859386   4.391559   6.128934   4.886683
    16  O    2.897353   4.166241   2.861096   5.078818   4.605649
    17  H    4.303607   5.490844   4.675779   6.700216   5.611117
    18  H    4.427790   5.437501   5.024288   6.694211   5.422830
    19  H    3.927195   4.811159   4.756498   6.156258   4.671119
                    6          7          8          9         10
     6  N    0.000000
     7  C    3.679585   0.000000
     8  H    2.533365   2.050454   0.000000
     9  C    4.203468   1.389657   3.276058   0.000000
    10  H    4.523316   3.290292   4.710788   2.064548   0.000000
    11  C    1.355007   4.318832   2.683956   5.102108   5.686021
    12  H    0.896095   4.331381   3.322780   4.688520   4.684628
    13  H    4.452366   0.988472   2.360129   2.076505   4.118108
    14  H    5.186544   2.065465   4.093666   0.984512   2.381625
    15  C    2.417750   5.768587   4.053225   6.516997   6.904498
    16  O    2.278455   4.088782   2.375922   5.052909   5.976879
    17  H    3.013226   6.055933   4.166360   6.947735   7.529707
    18  H    3.113683   6.366207   4.684788   7.095009   7.441191
    19  H    2.513196   6.114273   4.557957   6.715210   6.849905
                   11         12         13         14         15
    11  C    0.000000
    12  H    1.936964   0.000000
    13  H    4.906634   5.153169   0.000000
    14  H    6.056206   5.666876   2.386441   0.000000
    15  C    1.502746   2.477172   6.349114   7.486979   0.000000
    16  O    1.234965   3.050555   4.489519   5.929429   2.390796
    17  H    2.030657   3.121227   6.524084   7.903668   0.987198
    18  H    2.066491   3.221675   6.930862   8.047799   0.999760
    19  H    2.103397   2.213514   6.784756   7.698874   0.976962
                   16         17         18         19
    16  O    0.000000
    17  H    2.656900   0.000000
    18  H    2.633395   1.586598   0.000000
    19  H    3.204485   1.608931   1.609308   0.000000
 Stoichiometry    C8H9NO
 Framework group  C1[X(C8H9NO)]
 Deg. of freedom    51
 Full point group                 C1      NOp   1
 Largest Abelian subgroup         C1      NOp   1
 Largest concise Abelian subgroup C1      NOp   1
                         Standard orientation:                         
 ---------------------------------------------------------------------
 Center     Atomic      Atomic             Coordinates (Angstroms)
 Number     Number       Type             X           Y           Z
 ---------------------------------------------------------------------
      1          6           0        0.301218   -0.393189   -0.150392
      2          6           0        1.270204   -1.353293    0.139135
      3          6           0        0.688080    0.932229   -0.374143
      4          6           0        2.601439   -0.967667    0.253349
      5          1           0        1.011546   -2.271782    0.262295
      6          7           0       -1.084146   -0.676323   -0.241511
      7          6           0        2.020287    1.298921   -0.257437
      8          1           0        0.017919    1.576286   -0.600882
      9          6           0        2.979606    0.350428    0.076049
     10          1           0        3.273620   -1.653471    0.476429
     11          6           0       -2.117091    0.120580    0.124566
     12          1           0       -1.286344   -1.479765   -0.582954
     13          1           0        2.274734    2.241165   -0.413989
     14          1           0        3.917830    0.622465    0.198502
     15          6           0       -3.487065   -0.415706   -0.181723
     16          8           0       -1.962996    1.221672    0.662144
     17          1           0       -3.906884    0.197432   -0.831627
     18          1           0       -4.055456   -0.377041    0.639835
     19          1           0       -3.494044   -1.328220   -0.530613
 ---------------------------------------------------------------------
 Rotational constants (GHZ):           3.7584590           0.7971847           0.6839509
 Leave Link  202 at Tue Nov 22 19:11:24 2022, MaxMem= 16106127360 cpu:               0.4 elap:               0.0
 (Enter /opt/ap/G16/B01/g16/l301.exe)
 Standard basis: 6-311++G(d,p) (5D, 7F)
 Ernie: Thresh=  0.10000D-02 Tol=  0.10000D-05 Strict=F.
 There are   293 symmetry adapted cartesian basis functions of A   symmetry.
 There are   283 symmetry adapted basis functions of A   symmetry.
   283 basis functions,   441 primitive gaussians,   293 cartesian basis functions
    36 alpha electrons       36 beta electrons
       nuclear repulsion energy       492.9927356176 Hartrees.
 IExCor= 4639 DFT=T Ex+Corr=wB97XD ExCW=0 ScaHFX=  1.000000
 ScaDFX=  1.000000  1.000000  1.000000  1.000000 ScalE2=  1.000000  1.000000
 IRadAn=      5 IRanWt=     -1 IRanGd=            0 ICorTp=0 IEmpDi=121
 HFx  wShort=  0.000000 wLong=  0.200000 cFull=  0.222036 cShort=  0.000000 cLong=  0.777964
 DFx  wShort=  0.000000 wLong=  0.200000 cFull=  0.000000 cShort=  0.000000 cLong=  1.000000
 NAtoms=   19 NActive=   19 NUniq=   19 SFac= 1.00D+00 NAtFMM=   60 NAOKFM=F Big=F
 Integral buffers will be    131072 words long.
 Raffenetti 2 integral format.
 Two-electron integral symmetry is turned on.
 R6Disp:  Grimme-D2 Dispersion energy=       -0.0090977890 Hartrees.
 Nuclear repulsion after empirical dispersion term =      492.9836378285 Hartrees.
 Leave Link  301 at Tue Nov 22 19:11:24 2022, MaxMem= 16106127360 cpu:               1.1 elap:               0.0
 (Enter /opt/ap/G16/B01/g16/l302.exe)
 NPDir=0 NMtPBC=     1 NCelOv=     1 NCel=       1 NClECP=     1 NCelD=      1
         NCelK=      1 NCelE2=     1 NClLst=     1 CellRange=     0.0.
 One-electron integrals computed using PRISM.
 One-electron integral symmetry used in STVInt
 NBasis=   283 RedAO= T EigKep=  3.29D-06  NBF=   283
 NBsUse=   282 1.00D-06 EigRej=  8.88D-07 NBFU=   282
 Precomputing XC quadrature grid using
 IXCGrd= 4 IRadAn=           5 IRanWt=          -1 IRanGd=           0 AccXCQ= 0.00D+00.
 Generated NRdTot=       0 NPtTot=           0 NUsed=           0 NTot=          32
 NSgBfM=   293   293   293   293   293 MxSgAt=    19 MxSgA2=    19.
 Leave Link  302 at Tue Nov 22 19:11:25 2022, MaxMem= 16106127360 cpu:               7.4 elap:               0.2
 (Enter /opt/ap/G16/B01/g16/l303.exe)
 DipDrv:  MaxL=1.
 Leave Link  303 at Tue Nov 22 19:11:25 2022, MaxMem= 16106127360 cpu:               1.4 elap:               0.0
 (Enter /opt/ap/G16/B01/g16/l401.exe)
 ExpMin= 3.60D-02 ExpMax= 8.59D+03 ExpMxC= 1.30D+03 IAcc=3 IRadAn=         5 AccDes= 0.00D+00
 Harris functional with IExCor= 4639 and IRadAn=       5 diagonalized for initial guess.
 HarFok:  IExCor= 4639 AccDes= 0.00D+00 IRadAn=         5 IDoV= 1 UseB2=F ITyADJ=14
 ICtDFT=  3500011 ScaDFX=  1.000000  1.000000  1.000000  1.000000
 FoFCou: FMM=F IPFlag=           0 FMFlag=      100000 FMFlg1=           0
         NFxFlg=           0 DoJE=T BraDBF=F KetDBF=T FulRan=T
         wScrn=  0.000000 ICntrl=       500 IOpCl=  0 I1Cent=   200000004 NGrid=           0
         NMat0=    1 NMatS0=      1 NMatT0=    0 NMatD0=    1 NMtDS0=    0 NMtDT0=    0
 Petite list used in FoFCou.
 Harris En= -420.986005542162    
 JPrj=0 DoOrth=F DoCkMO=F.
 Leave Link  401 at Tue Nov 22 19:11:25 2022, MaxMem= 16106127360 cpu:              15.2 elap:               0.5
 (Enter /opt/ap/G16/B01/g16/l502.exe)
 Integral symmetry usage will be decided dynamically.
 Closed shell SCF:
 Using DIIS extrapolation, IDIIS=  1040.
 NGot= 16106127360 LenX= 16105943385 LenY= 16105857095
 Requested convergence on RMS density matrix=1.00D-08 within 512 cycles.
 Requested convergence on MAX density matrix=1.00D-06.
 Requested convergence on             energy=1.00D-06.
 No special actions if energy rises.
 Fock matrices will be formed incrementally for  20 cycles.

 Cycle   1  Pass 1  IDiag  1:
 FoFJK:  IHMeth= 1 ICntrl=       0 DoSepK=T KAlg= 0 I1Cent=           0 FoldK=F
 IRaf=         1 NMat=       1 IRICut=       1 DoRegI=T DoRafI=F ISym2E= 0 IDoP0=0 IntGTp=1.
 FoFCou: FMM=F IPFlag=           0 FMFlag=      100000 FMFlg1=           0
         NFxFlg=           0 DoJE=T BraDBF=F KetDBF=F FulRan=T
         wScrn=  0.000000 ICntrl=       500 IOpCl=  0 I1Cent=           0 NGrid=           0
         NMat0=    1 NMatS0=      1 NMatT0=    0 NMatD0=    1 NMtDS0=    0 NMtDT0=    0
 Symmetry not used in FoFCou.
 E= -439.987939485058    
 DIIS: error= 5.42D-02 at cycle   1 NSaved=   1.
 NSaved= 1 IEnMin= 1 EnMin= -439.987939485058     IErMin= 1 ErrMin= 5.42D-02
 ErrMax= 5.42D-02  0.00D+00 EMaxC= 1.00D-01 BMatC= 9.44D-01 BMatP= 9.44D-01
 IDIUse=3 WtCom= 4.58D-01 WtEn= 5.42D-01
 Coeff-Com:  0.100D+01
 Coeff-En:   0.100D+01
 Coeff:      0.100D+01
 Gap=     0.448 Goal=   None    Shift=    0.000
 GapD=    0.448 DampG=2.000 DampE=0.500 DampFc=1.0000 IDamp=-1.
 RMSDP=7.47D-03 MaxDP=5.68D-01              OVMax= 1.44D-01

 Cycle   2  Pass 1  IDiag  1:
 RMSU=  5.72D-03    CP:  7.94D-01
 E= -440.068315965711     Delta-E=       -0.080376480653 Rises=F Damp=F
 DIIS: error= 1.39D-02 at cycle   2 NSaved=   2.
 NSaved= 2 IEnMin= 2 EnMin= -440.068315965711     IErMin= 2 ErrMin= 1.39D-02
 ErrMax= 1.39D-02  0.00D+00 EMaxC= 1.00D-01 BMatC= 8.50D-02 BMatP= 9.44D-01
 IDIUse=3 WtCom= 8.61D-01 WtEn= 1.39D-01
 Coeff-Com:  0.159D+00 0.841D+00
 Coeff-En:   0.233D+00 0.767D+00
 Coeff:      0.170D+00 0.830D+00
 Gap=     0.447 Goal=   None    Shift=    0.000
 RMSDP=6.46D-03 MaxDP=4.43D-01 DE=-8.04D-02 OVMax= 1.20D-01

 Cycle   3  Pass 1  IDiag  1:
 RMSU=  4.58D-03    CP:  6.19D-01  6.45D-01
 E= -440.105178879900     Delta-E=       -0.036862914189 Rises=F Damp=F
 DIIS: error= 9.20D-03 at cycle   3 NSaved=   3.
 NSaved= 3 IEnMin= 3 EnMin= -440.105178879900     IErMin= 3 ErrMin= 9.20D-03
 ErrMax= 9.20D-03  0.00D+00 EMaxC= 1.00D-01 BMatC= 4.13D-02 BMatP= 8.50D-02
 IDIUse=3 WtCom= 9.08D-01 WtEn= 9.20D-02
 Coeff-Com:  0.263D-01 0.415D+00 0.559D+00
 Coeff-En:   0.000D+00 0.332D+00 0.668D+00
 Coeff:      0.239D-01 0.407D+00 0.569D+00
 Gap=     0.357 Goal=   None    Shift=    0.000
 RMSDP=2.08D-03 MaxDP=1.19D-01 DE=-3.69D-02 OVMax= 6.97D-02

 Cycle   4  Pass 1  IDiag  1:
 RMSU=  7.65D-04    CP:  6.62D-01  7.79D-01  6.78D-01
 E= -440.141969107250     Delta-E=       -0.036790227349 Rises=F Damp=F
 DIIS: error= 2.03D-03 at cycle   4 NSaved=   4.
 NSaved= 4 IEnMin= 4 EnMin= -440.141969107250     IErMin= 4 ErrMin= 2.03D-03
 ErrMax= 2.03D-03  0.00D+00 EMaxC= 1.00D-01 BMatC= 1.60D-03 BMatP= 4.13D-02
 IDIUse=3 WtCom= 9.80D-01 WtEn= 2.03D-02
 Coeff-Com:  0.947D-02 0.189D+00 0.294D+00 0.507D+00
 Coeff-En:   0.000D+00 0.000D+00 0.000D+00 0.100D+01
 Coeff:      0.928D-02 0.185D+00 0.288D+00 0.517D+00
 Gap=     0.343 Goal=   None    Shift=    0.000
 RMSDP=3.01D-04 MaxDP=8.82D-03 DE=-3.68D-02 OVMax= 1.02D-02

 Cycle   5  Pass 1  IDiag  1:
 RMSU=  2.20D-04    CP:  6.59D-01  7.84D-01  6.88D-01  7.60D-01
 E= -440.143215777471     Delta-E=       -0.001246670222 Rises=F Damp=F
 DIIS: error= 4.46D-04 at cycle   5 NSaved=   5.
 NSaved= 5 IEnMin= 5 EnMin= -440.143215777471     IErMin= 5 ErrMin= 4.46D-04
 ErrMax= 4.46D-04  0.00D+00 EMaxC= 1.00D-01 BMatC= 6.50D-05 BMatP= 1.60D-03
 IDIUse=3 WtCom= 9.96D-01 WtEn= 4.46D-03
 Coeff-Com:  0.939D-03 0.215D-01 0.448D-01 0.179D+00 0.754D+00
 Coeff-En:   0.000D+00 0.000D+00 0.000D+00 0.000D+00 0.100D+01
 Coeff:      0.935D-03 0.214D-01 0.446D-01 0.178D+00 0.755D+00
 Gap=     0.343 Goal=   None    Shift=    0.000
 RMSDP=1.83D-04 MaxDP=1.03D-02 DE=-1.25D-03 OVMax= 2.65D-03

 Cycle   6  Pass 1  IDiag  1:
 RMSU=  9.17D-05    CP:  6.54D-01  7.81D-01  7.13D-01  8.12D-01  9.65D-01
 E= -440.143260088803     Delta-E=       -0.000044311331 Rises=F Damp=F
 DIIS: error= 2.80D-04 at cycle   6 NSaved=   6.
 NSaved= 6 IEnMin= 6 EnMin= -440.143260088803     IErMin= 6 ErrMin= 2.80D-04
 ErrMax= 2.80D-04  0.00D+00 EMaxC= 1.00D-01 BMatC= 1.95D-05 BMatP= 6.50D-05
 IDIUse=3 WtCom= 9.97D-01 WtEn= 2.80D-03
 Coeff-Com: -0.110D-02-0.192D-01-0.220D-01 0.125D-01 0.408D+00 0.621D+00
 Coeff-En:   0.000D+00 0.000D+00 0.000D+00 0.000D+00 0.369D-01 0.963D+00
 Coeff:     -0.110D-02-0.192D-01-0.219D-01 0.125D-01 0.407D+00 0.622D+00
 Gap=     0.343 Goal=   None    Shift=    0.000
 RMSDP=4.87D-05 MaxDP=1.95D-03 DE=-4.43D-05 OVMax= 1.42D-03

 Cycle   7  Pass 1  IDiag  1:
 RMSU=  2.60D-05    CP:  6.53D-01  7.79D-01  7.17D-01  8.29D-01  1.05D+00
                    CP:  1.11D+00
 E= -440.143276850119     Delta-E=       -0.000016761316 Rises=F Damp=F
 DIIS: error= 7.40D-05 at cycle   7 NSaved=   7.
 NSaved= 7 IEnMin= 7 EnMin= -440.143276850119     IErMin= 7 ErrMin= 7.40D-05
 ErrMax= 7.40D-05  0.00D+00 EMaxC= 1.00D-01 BMatC= 4.90D-07 BMatP= 1.95D-05
 IDIUse=1 WtCom= 1.00D+00 WtEn= 0.00D+00
 Coeff-Com: -0.293D-03-0.553D-02-0.668D-02-0.118D-01 0.195D-01 0.105D+00
 Coeff-Com:  0.900D+00
 Coeff:     -0.293D-03-0.553D-02-0.668D-02-0.118D-01 0.195D-01 0.105D+00
 Coeff:      0.900D+00
 Gap=     0.343 Goal=   None    Shift=    0.000
 RMSDP=2.05D-05 MaxDP=8.61D-04 DE=-1.68D-05 OVMax= 5.16D-04

 Cycle   8  Pass 1  IDiag  1:
 RMSU=  7.91D-06    CP:  6.53D-01  7.78D-01  7.19D-01  8.33D-01  1.09D+00
                    CP:  1.20D+00  1.12D+00
 E= -440.143277930311     Delta-E=       -0.000001080192 Rises=F Damp=F
 DIIS: error= 1.69D-05 at cycle   8 NSaved=   8.
 NSaved= 8 IEnMin= 8 EnMin= -440.143277930311     IErMin= 8 ErrMin= 1.69D-05
 ErrMax= 1.69D-05  0.00D+00 EMaxC= 1.00D-01 BMatC= 1.01D-07 BMatP= 4.90D-07
 IDIUse=1 WtCom= 1.00D+00 WtEn= 0.00D+00
 Coeff-Com:  0.652D-04 0.828D-03 0.104D-02-0.663D-02-0.584D-01-0.657D-01
 Coeff-Com:  0.289D+00 0.840D+00
 Coeff:      0.652D-04 0.828D-03 0.104D-02-0.663D-02-0.584D-01-0.657D-01
 Coeff:      0.289D+00 0.840D+00
 Gap=     0.343 Goal=   None    Shift=    0.000
 RMSDP=1.03D-05 MaxDP=5.59D-04 DE=-1.08D-06 OVMax= 3.26D-04

 Cycle   9  Pass 1  IDiag  1:
 RMSU=  3.18D-06    CP:  6.53D-01  7.78D-01  7.21D-01  8.34D-01  1.09D+00
                    CP:  1.25D+00  1.23D+00  1.17D+00
 E= -440.143278131342     Delta-E=       -0.000000201031 Rises=F Damp=F
 DIIS: error= 1.24D-05 at cycle   9 NSaved=   9.
 NSaved= 9 IEnMin= 9 EnMin= -440.143278131342     IErMin= 9 ErrMin= 1.24D-05
 ErrMax= 1.24D-05  0.00D+00 EMaxC= 1.00D-01 BMatC= 9.62D-09 BMatP= 1.01D-07
 IDIUse=1 WtCom= 1.00D+00 WtEn= 0.00D+00
 Coeff-Com:  0.514D-04 0.874D-03 0.117D-02-0.524D-03-0.190D-01-0.299D-01
 Coeff-Com: -0.279D-02 0.246D+00 0.804D+00
 Coeff:      0.514D-04 0.874D-03 0.117D-02-0.524D-03-0.190D-01-0.299D-01
 Coeff:     -0.279D-02 0.246D+00 0.804D+00
 Gap=     0.343 Goal=   None    Shift=    0.000
 RMSDP=2.88D-06 MaxDP=1.82D-04 DE=-2.01D-07 OVMax= 7.97D-05

 Cycle  10  Pass 1  IDiag  1:
 RMSU=  1.05D-06    CP:  6.52D-01  7.78D-01  7.21D-01  8.33D-01  1.09D+00
                    CP:  1.26D+00  1.25D+00  1.22D+00  1.31D+00
 E= -440.143278151850     Delta-E=       -0.000000020508 Rises=F Damp=F
 DIIS: error= 2.44D-06 at cycle  10 NSaved=  10.
 NSaved=10 IEnMin=10 EnMin= -440.143278151850     IErMin=10 ErrMin= 2.44D-06
 ErrMax= 2.44D-06  0.00D+00 EMaxC= 1.00D-01 BMatC= 1.40D-09 BMatP= 9.62D-09
 IDIUse=1 WtCom= 1.00D+00 WtEn= 0.00D+00
 Coeff-Com:  0.378D-05 0.121D-03 0.191D-03 0.871D-03 0.375D-02 0.178D-02
 Coeff-Com: -0.413D-01-0.749D-01 0.205D+00 0.905D+00
 Coeff:      0.378D-05 0.121D-03 0.191D-03 0.871D-03 0.375D-02 0.178D-02
 Coeff:     -0.413D-01-0.749D-01 0.205D+00 0.905D+00
 Gap=     0.343 Goal=   None    Shift=    0.000
 RMSDP=7.24D-07 MaxDP=2.48D-05 DE=-2.05D-08 OVMax= 4.56D-05

 Cycle  11  Pass 1  IDiag  1:
 RMSU=  4.23D-07    CP:  6.52D-01  7.78D-01  7.21D-01  8.33D-01  1.09D+00
                    CP:  1.26D+00  1.25D+00  1.25D+00  1.45D+00  1.14D+00
 E= -440.143278155619     Delta-E=       -0.000000003769 Rises=F Damp=F
 DIIS: error= 1.04D-06 at cycle  11 NSaved=  11.
 NSaved=11 IEnMin=11 EnMin= -440.143278155619     IErMin=11 ErrMin= 1.04D-06
 ErrMax= 1.04D-06  0.00D+00 EMaxC= 1.00D-01 BMatC= 1.58D-10 BMatP= 1.40D-09
 IDIUse=1 WtCom= 1.00D+00 WtEn= 0.00D+00
 Coeff-Com: -0.483D-05-0.749D-04-0.881D-04 0.323D-03 0.332D-02 0.409D-02
 Coeff-Com: -0.910D-02-0.516D-01-0.550D-01 0.206D+00 0.902D+00
 Coeff:     -0.483D-05-0.749D-04-0.881D-04 0.323D-03 0.332D-02 0.409D-02
 Coeff:     -0.910D-02-0.516D-01-0.550D-01 0.206D+00 0.902D+00
 Gap=     0.343 Goal=   None    Shift=    0.000
 RMSDP=2.62D-07 MaxDP=5.48D-06 DE=-3.77D-09 OVMax= 1.39D-05

 Cycle  12  Pass 1  IDiag  1:
 RMSU=  1.29D-07    CP:  6.52D-01  7.78D-01  7.21D-01  8.32D-01  1.09D+00
                    CP:  1.26D+00  1.25D+00  1.25D+00  1.49D+00  1.23D+00
                    CP:  1.36D+00
 E= -440.143278156088     Delta-E=       -0.000000000469 Rises=F Damp=F
 DIIS: error= 2.98D-07 at cycle  12 NSaved=  12.
 NSaved=12 IEnMin=12 EnMin= -440.143278156088     IErMin=12 ErrMin= 2.98D-07
 ErrMax= 2.98D-07  0.00D+00 EMaxC= 1.00D-01 BMatC= 1.55D-11 BMatP= 1.58D-10
 IDIUse=1 WtCom= 1.00D+00 WtEn= 0.00D+00
 Coeff-Com: -0.888D-06-0.226D-04-0.336D-04-0.541D-04-0.291D-03 0.974D-04
 Coeff-Com:  0.454D-02 0.538D-02-0.268D-01-0.853D-01 0.820D-01 0.102D+01
 Coeff:     -0.888D-06-0.226D-04-0.336D-04-0.541D-04-0.291D-03 0.974D-04
 Coeff:      0.454D-02 0.538D-02-0.268D-01-0.853D-01 0.820D-01 0.102D+01
 Gap=     0.343 Goal=   None    Shift=    0.000
 RMSDP=1.12D-07 MaxDP=2.53D-06 DE=-4.69D-10 OVMax= 5.17D-06

 Cycle  13  Pass 1  IDiag  1:
 RMSU=  4.41D-08    CP:  6.52D-01  7.78D-01  7.21D-01  8.33D-01  1.09D+00
                    CP:  1.26D+00  1.25D+00  1.24D+00  1.48D+00  1.24D+00
                    CP:  1.50D+00  1.33D+00
 E= -440.143278156139     Delta-E=       -0.000000000051 Rises=F Damp=F
 DIIS: error= 1.10D-07 at cycle  13 NSaved=  13.
 NSaved=13 IEnMin=13 EnMin= -440.143278156139     IErMin=13 ErrMin= 1.10D-07
 ErrMax= 1.10D-07  0.00D+00 EMaxC= 1.00D-01 BMatC= 2.19D-12 BMatP= 1.55D-11
 IDIUse=1 WtCom= 1.00D+00 WtEn= 0.00D+00
 Coeff-Com:  0.151D-06 0.785D-06-0.138D-05-0.400D-04-0.405D-03-0.349D-03
 Coeff-Com:  0.202D-02 0.636D-02-0.242D-02-0.438D-01-0.728D-01 0.259D+00
 Coeff-Com:  0.853D+00
 Coeff:      0.151D-06 0.785D-06-0.138D-05-0.400D-04-0.405D-03-0.349D-03
 Coeff:      0.202D-02 0.636D-02-0.242D-02-0.438D-01-0.728D-01 0.259D+00
 Coeff:      0.853D+00
 Gap=     0.343 Goal=   None    Shift=    0.000
 RMSDP=3.63D-08 MaxDP=1.23D-06 DE=-5.10D-11 OVMax= 1.72D-06

 Cycle  14  Pass 1  IDiag  1:
 RMSU=  1.97D-08    CP:  6.52D-01  7.78D-01  7.21D-01  8.33D-01  1.09D+00
                    CP:  1.26D+00  1.25D+00  1.24D+00  1.48D+00  1.24D+00
                    CP:  1.54D+00  1.40D+00  1.27D+00
 E= -440.143278156148     Delta-E=       -0.000000000009 Rises=F Damp=F
 DIIS: error= 4.29D-08 at cycle  14 NSaved=  14.
 NSaved=14 IEnMin=14 EnMin= -440.143278156148     IErMin=14 ErrMin= 4.29D-08
 ErrMax= 4.29D-08  0.00D+00 EMaxC= 1.00D-01 BMatC= 2.91D-13 BMatP= 2.19D-12
 IDIUse=1 WtCom= 1.00D+00 WtEn= 0.00D+00
 Coeff-Com:  0.114D-06 0.241D-05 0.287D-05-0.187D-05-0.448D-04-0.713D-04
 Coeff-Com: -0.160D-03 0.608D-03 0.267D-02 0.238D-02-0.253D-01-0.787D-01
 Coeff-Com:  0.210D+00 0.888D+00
 Coeff:      0.114D-06 0.241D-05 0.287D-05-0.187D-05-0.448D-04-0.713D-04
 Coeff:     -0.160D-03 0.608D-03 0.267D-02 0.238D-02-0.253D-01-0.787D-01
 Coeff:      0.210D+00 0.888D+00
 Gap=     0.343 Goal=   None    Shift=    0.000
 RMSDP=1.64D-08 MaxDP=8.02D-07 DE=-8.75D-12 OVMax= 6.48D-07

 Cycle  15  Pass 1  IDiag  1:
 RMSU=  5.85D-09    CP:  6.52D-01  7.78D-01  7.21D-01  8.33D-01  1.09D+00
                    CP:  1.26D+00  1.25D+00  1.24D+00  1.48D+00  1.23D+00
                    CP:  1.53D+00  1.43D+00  1.42D+00  1.31D+00
 E= -440.143278156144     Delta-E=        0.000000000004 Rises=F Damp=F
 DIIS: error= 1.96D-08 at cycle  15 NSaved=  15.
 NSaved=15 IEnMin=14 EnMin= -440.143278156148     IErMin=15 ErrMin= 1.96D-08
 ErrMax= 1.96D-08  0.00D+00 EMaxC= 1.00D-01 BMatC= 3.47D-14 BMatP= 2.91D-13
 IDIUse=1 WtCom= 1.00D+00 WtEn= 0.00D+00
 Coeff-Com: -0.367D-08 0.284D-06 0.590D-06 0.549D-05 0.504D-04 0.398D-04
 Coeff-Com: -0.316D-03-0.753D-03 0.807D-03 0.648D-02 0.644D-02-0.517D-01
 Coeff-Com: -0.761D-01 0.126D+00 0.989D+00
 Coeff:     -0.367D-08 0.284D-06 0.590D-06 0.549D-05 0.504D-04 0.398D-04
 Coeff:     -0.316D-03-0.753D-03 0.807D-03 0.648D-02 0.644D-02-0.517D-01
 Coeff:     -0.761D-01 0.126D+00 0.989D+00
 Gap=     0.343 Goal=   None    Shift=    0.000
 RMSDP=6.89D-09 MaxDP=2.63D-07 DE= 3.75D-12 OVMax= 3.07D-07

 SCF Done:  E(RwB97XD) =  -440.143278156     A.U. after   15 cycles
            NFock= 15  Conv=0.69D-08     -V/T= 2.0003
 KE= 4.400230326351D+02 PE=-2.012405492818D+03 EE= 6.392555441977D+02
 Leave Link  502 at Tue Nov 22 19:11:43 2022, MaxMem= 16106127360 cpu:             584.9 elap:              18.3
 (Enter /opt/ap/G16/B01/g16/l601.exe)
 Copying SCF densities to generalized density rwf, IOpCl= 0 IROHF=0.

 **********************************************************************

            Population analysis using the SCF Density.

 **********************************************************************

 Orbital symmetries:
       Occupied  (A) (A) (A) (A) (A) (A) (A) (A) (A) (A) (A) (A)
                 (A) (A) (A) (A) (A) (A) (A) (A) (A) (A) (A) (A)
                 (A) (A) (A) (A) (A) (A) (A) (A) (A) (A) (A) (A)
       Virtual   (A) (A) (A) (A) (A) (A) (A) (A) (A) (A) (A) (A)
                 (A) (A) (A) (A) (A) (A) (A) (A) (A) (A) (A) (A)
                 (A) (A) (A) (A) (A) (A) (A) (A) (A) (A) (A) (A)
                 (A) (A) (A) (A) (A) (A) (A) (A) (A) (A) (A) (A)
                 (A) (A) (A) (A) (A) (A) (A) (A) (A) (A) (A) (A)
                 (A) (A) (A) (A) (A) (A) (A) (A) (A) (A) (A) (A)
                 (A) (A) (A) (A) (A) (A) (A) (A) (A) (A) (A) (A)
                 (A) (A) (A) (A) (A) (A) (A) (A) (A) (A) (A) (A)
                 (A) (A) (A) (A) (A) (A) (A) (A) (A) (A) (A) (A)
                 (A) (A) (A) (A) (A) (A) (A) (A) (A) (A) (A) (A)
                 (A) (A) (A) (A) (A) (A) (A) (A) (A) (A) (A) (A)
                 (A) (A) (A) (A) (A) (A) (A) (A) (A) (A) (A) (A)
                 (A) (A) (A) (A) (A) (A) (A) (A) (A) (A) (A) (A)
                 (A) (A) (A) (A) (A) (A) (A) (A) (A) (A) (A) (A)
                 (A) (A) (A) (A) (A) (A) (A) (A) (A) (A) (A) (A)
                 (A) (A) (A) (A) (A) (A) (A) (A) (A) (A) (A) (A)
                 (A) (A) (A) (A) (A) (A) (A) (A) (A) (A) (A) (A)
                 (A) (A) (A) (A) (A) (A) (A) (A) (A) (A) (A) (A)
                 (A) (A) (A) (A) (A) (A) (A) (A) (A) (A) (A) (A)
                 (A) (A) (A) (A) (A) (A) (A) (A) (A) (A) (A) (A)
                 (A) (A) (A) (A) (A) (A)
 The electronic state is 1-A.
 Alpha  occ. eigenvalues --  -19.21220 -14.46716 -10.39802 -10.33633 -10.28289
 Alpha  occ. eigenvalues --  -10.28147 -10.27792 -10.27525 -10.27121 -10.26273
 Alpha  occ. eigenvalues --   -1.14455  -1.06002  -0.96308  -0.88487  -0.86454
 Alpha  occ. eigenvalues --   -0.84614  -0.74344  -0.73240  -0.69476  -0.65703
 Alpha  occ. eigenvalues --   -0.61161  -0.58807  -0.56467  -0.55127  -0.54122
 Alpha  occ. eigenvalues --   -0.52813  -0.51615  -0.49860  -0.48611  -0.45622
 Alpha  occ. eigenvalues --   -0.45349  -0.44493  -0.38508  -0.34754  -0.33137
 Alpha  occ. eigenvalues --   -0.30935
 Alpha virt. eigenvalues --    0.03368   0.04368   0.04587   0.05112   0.05322
 Alpha virt. eigenvalues --    0.06269   0.06838   0.07351   0.08684   0.09166
 Alpha virt. eigenvalues --    0.10627   0.10669   0.11580   0.12414   0.13280
 Alpha virt. eigenvalues --    0.14127   0.14756   0.15553   0.15852   0.16402
 Alpha virt. eigenvalues --    0.16911   0.17444   0.17797   0.18255   0.18681
 Alpha virt. eigenvalues --    0.19062   0.19456   0.19942   0.20362   0.20880
 Alpha virt. eigenvalues --    0.20991   0.21694   0.22510   0.23316   0.24059
 Alpha virt. eigenvalues --    0.24277   0.25217   0.25880   0.26296   0.26720
 Alpha virt. eigenvalues --    0.26940   0.28135   0.28376   0.29186   0.29705
 Alpha virt. eigenvalues --    0.30443   0.30874   0.31974   0.32536   0.33604
 Alpha virt. eigenvalues --    0.33834   0.34333   0.36300   0.37166   0.37834
 Alpha virt. eigenvalues --    0.38029   0.38694   0.39475   0.40009   0.41859
 Alpha virt. eigenvalues --    0.42339   0.43473   0.43960   0.44386   0.45699
 Alpha virt. eigenvalues --    0.46122   0.47147   0.50550   0.53327   0.55121
 Alpha virt. eigenvalues --    0.57675   0.58705   0.59098   0.62858   0.63341
 Alpha virt. eigenvalues --    0.64377   0.65442   0.66021   0.66321   0.66607
 Alpha virt. eigenvalues --    0.68844   0.69692   0.70819   0.72640   0.73921
 Alpha virt. eigenvalues --    0.74601   0.75960   0.76784   0.77348   0.78931
 Alpha virt. eigenvalues --    0.80043   0.81588   0.82656   0.83408   0.84870
 Alpha virt. eigenvalues --    0.86074   0.88174   0.89351   0.92504   0.93028
 Alpha virt. eigenvalues --    0.93322   0.94689   0.95576   0.96779   0.96927
 Alpha virt. eigenvalues --    0.98342   0.99707   1.00933   1.02538   1.05715
 Alpha virt. eigenvalues --    1.07954   1.10238   1.11353   1.12107   1.14040
 Alpha virt. eigenvalues --    1.16988   1.17950   1.19076   1.22812   1.23838
 Alpha virt. eigenvalues --    1.24504   1.29033   1.33487   1.35485   1.38708
 Alpha virt. eigenvalues --    1.40824   1.43231   1.45778   1.53092   1.55460
 Alpha virt. eigenvalues --    1.57500   1.60849   1.62445   1.62985   1.65797
 Alpha virt. eigenvalues --    1.66457   1.67666   1.68008   1.68273   1.68654
 Alpha virt. eigenvalues --    1.70758   1.71298   1.75601   1.76916   1.78500
 Alpha virt. eigenvalues --    1.82190   1.85715   1.86515   1.89177   1.90697
 Alpha virt. eigenvalues --    1.92894   1.94686   1.96251   1.97338   1.98709
 Alpha virt. eigenvalues --    2.02009   2.02557   2.04672   2.06253   2.07543
 Alpha virt. eigenvalues --    2.09697   2.10346   2.11585   2.13647   2.15264
 Alpha virt. eigenvalues --    2.21683   2.26040   2.28394   2.32559   2.35818
 Alpha virt. eigenvalues --    2.39553   2.42751   2.45253   2.51006   2.51630
 Alpha virt. eigenvalues --    2.53529   2.55558   2.59440   2.60674   2.63660
 Alpha virt. eigenvalues --    2.65712   2.69213   2.70008   2.73950   2.75692
 Alpha virt. eigenvalues --    2.79000   2.82197   2.82452   2.83134   2.84518
 Alpha virt. eigenvalues --    2.86949   2.90346   2.91962   2.92220   2.93940
 Alpha virt. eigenvalues --    2.94497   2.95443   2.98475   2.99060   3.02366
 Alpha virt. eigenvalues --    3.03962   3.05161   3.05461   3.08494   3.14540
 Alpha virt. eigenvalues --    3.20314   3.22355   3.23850   3.26794   3.31702
 Alpha virt. eigenvalues --    3.42974   3.44550   3.46178   3.49180   3.51463
 Alpha virt. eigenvalues --    3.62336   3.68373   3.71278   3.74863   3.92068
 Alpha virt. eigenvalues --    4.00141   4.03564   4.07113   4.12794   4.17805
 Alpha virt. eigenvalues --    4.30881   4.34698   4.38979   4.39848   4.45063
 Alpha virt. eigenvalues --    4.95975   5.18764   5.20183   5.21261   5.37153
 Alpha virt. eigenvalues --    5.90645  23.88675  23.99146  24.14940  24.23090
 Alpha virt. eigenvalues --   24.30167  24.33592  24.38066  24.43029  35.87732
 Alpha virt. eigenvalues --   50.16509
          Condensed to atoms (all electrons):
               1          2          3          4          5          6
     1  C    6.715180   0.175073   0.065254  -0.294705  -0.131007   0.214468
     2  C    0.175073   6.988084  -1.349271   0.216137   0.600819  -0.147002
     3  C    0.065254  -1.349271   6.616469   0.263184  -0.077117  -0.138489
     4  C   -0.294705   0.216137   0.263184   5.322439  -0.064358  -0.031535
     5  H   -0.131007   0.600819  -0.077117  -0.064358   0.521889   0.001283
     6  N    0.214468  -0.147002  -0.138489  -0.031535   0.001283   7.387021
     7  C   -0.484916   0.491758   0.164490  -0.197398   0.039690  -0.042814
     8  H   -0.131088  -0.092984   0.554020   0.014300  -0.003208  -0.036180
     9  C    0.014162  -0.411750  -0.163174   0.573718  -0.015629   0.037693
    10  H    0.027569  -0.115773   0.030040   0.438235  -0.016099  -0.004520
    11  C   -0.117113  -0.123824  -0.048797   0.011265  -0.015318  -0.041708
    12  H   -0.025642   0.005988  -0.027759   0.002048  -0.002590   0.349378
    13  H    0.030832   0.041897  -0.085398  -0.009375   0.002215  -0.003028
    14  H    0.018027  -0.001249  -0.018107  -0.059047  -0.000465   0.001897
    15  C   -0.052785  -0.049342   0.059219   0.014059  -0.001187  -0.349733
    16  O   -0.083571  -0.028330   0.061100   0.010700  -0.002601  -0.134728
    17  H   -0.000645   0.006711  -0.006602   0.000391  -0.000214   0.003718
    18  H   -0.004327  -0.003498  -0.000884   0.000762  -0.000288   0.005908
    19  H    0.005285  -0.016505   0.029617  -0.001425   0.001913   0.024924
               7          8          9         10         11         12
     1  C   -0.484916  -0.131088   0.014162   0.027569  -0.117113  -0.025642
     2  C    0.491758  -0.092984  -0.411750  -0.115773  -0.123824   0.005988
     3  C    0.164490   0.554020  -0.163174   0.030040  -0.048797  -0.027759
     4  C   -0.197398   0.014300   0.573718   0.438235   0.011265   0.002048
     5  H    0.039690  -0.003208  -0.015629  -0.016099  -0.015318  -0.002590
     6  N   -0.042814  -0.036180   0.037693  -0.004520  -0.041708   0.349378
     7  C    5.695494  -0.031074   0.461983  -0.022588  -0.153553  -0.013369
     8  H   -0.031074   0.481991   0.032959   0.000792   0.022591  -0.000489
     9  C    0.461983   0.032959   5.471221  -0.023998   0.008559   0.003903
    10  H   -0.022588   0.000792  -0.023998   0.491570   0.000446   0.000935
    11  C   -0.153553   0.022591   0.008559   0.000446   6.045180   0.053018
    12  H   -0.013369  -0.000489   0.003903   0.000935   0.053018   0.381902
    13  H    0.420895  -0.012489  -0.067028  -0.001119  -0.002138   0.000206
    14  H   -0.051930   0.000805   0.462373  -0.008482  -0.001341   0.000003
    15  C    0.019600   0.004147  -0.007624   0.000180  -0.084195  -0.030416
    16  O   -0.005271  -0.003609  -0.005885   0.000369   0.458594   0.004790
    17  H   -0.000624  -0.002961  -0.000293   0.000008  -0.031333   0.002230
    18  H   -0.003130  -0.000070  -0.000242   0.000004  -0.056470   0.000454
    19  H    0.004469   0.000989   0.000239  -0.000074  -0.087706  -0.012085
              13         14         15         16         17         18
     1  C    0.030832   0.018027  -0.052785  -0.083571  -0.000645  -0.004327
     2  C    0.041897  -0.001249  -0.049342  -0.028330   0.006711  -0.003498
     3  C   -0.085398  -0.018107   0.059219   0.061100  -0.006602  -0.000884
     4  C   -0.009375  -0.059047   0.014059   0.010700   0.000391   0.000762
     5  H    0.002215  -0.000465  -0.001187  -0.002601  -0.000214  -0.000288
     6  N   -0.003028   0.001897  -0.349733  -0.134728   0.003718   0.005908
     7  C    0.420895  -0.051930   0.019600  -0.005271  -0.000624  -0.003130
     8  H   -0.012489   0.000805   0.004147  -0.003609  -0.002961  -0.000070
     9  C   -0.067028   0.462373  -0.007624  -0.005885  -0.000293  -0.000242
    10  H   -0.001119  -0.008482   0.000180   0.000369   0.000008   0.000004
    11  C   -0.002138  -0.001341  -0.084195   0.458594  -0.031333  -0.056470
    12  H    0.000206   0.000003  -0.030416   0.004790   0.002230   0.000454
    13  H    0.486792  -0.009980  -0.000902  -0.000109   0.000058   0.000008
    14  H   -0.009980   0.494513  -0.000226  -0.000462  -0.000017  -0.000016
    15  C   -0.000902  -0.000226   5.797094  -0.016179   0.403415   0.448011
    16  O   -0.000109  -0.000462  -0.016179   8.102809  -0.005052  -0.008413
    17  H    0.000058  -0.000017   0.403415  -0.005052   0.507281  -0.029917
    18  H    0.000008  -0.000016   0.448011  -0.008413  -0.029917   0.490371
    19  H   -0.000041   0.000020   0.387933   0.008195  -0.036605  -0.031428
              19
     1  C    0.005285
     2  C   -0.016505
     3  C    0.029617
     4  C   -0.001425
     5  H    0.001913
     6  N    0.024924
     7  C    0.004469
     8  H    0.000989
     9  C    0.000239
    10  H   -0.000074
    11  C   -0.087706
    12  H   -0.012085
    13  H   -0.000041
    14  H    0.000020
    15  C    0.387933
    16  O    0.008195
    17  H   -0.036605
    18  H   -0.031428
    19  H    0.608899
 Mulliken charges:
               1
     1  C    0.059949
     2  C   -0.186939
     3  C    0.072204
     4  C   -0.209398
     5  H    0.162269
     6  N   -0.096553
     7  C   -0.291712
     8  H    0.201558
     9  C   -0.371189
    10  H    0.202506
    11  C    0.163844
    12  H    0.307493
    13  H    0.208702
    14  H    0.173684
    15  C   -0.541069
    16  O   -0.352349
    17  H    0.190451
    18  H    0.193164
    19  H    0.113385
 Sum of Mulliken charges =  -0.00000
 Mulliken charges with hydrogens summed into heavy atoms:
               1
     1  C    0.059949
     2  C   -0.024670
     3  C    0.273763
     4  C   -0.006892
     6  N    0.210939
     7  C   -0.083011
     9  C   -0.197505
    11  C    0.163844
    15  C   -0.044070
    16  O   -0.352349
 Electronic spatial extent (au):  <R**2>=           1648.0312
 Charge=             -0.0000 electrons
 Dipole moment (field-independent basis, Debye):
    X=             -0.1375    Y=             -3.2742    Z=             -1.7087  Tot=              3.6958
 Quadrupole moment (field-independent basis, Debye-Ang):
   XX=            -49.5780   YY=            -55.4759   ZZ=            -62.1931
   XY=              7.1958   XZ=              4.6431   YZ=             -2.7881
 Traceless Quadrupole moment (field-independent basis, Debye-Ang):
   XX=              6.1710   YY=              0.2731   ZZ=             -6.4441
   XY=              7.1958   XZ=              4.6431   YZ=             -2.7881
 Octapole moment (field-independent basis, Debye-Ang**2):
  XXX=            -18.9448  YYY=             -7.7590  ZZZ=              0.9064  XYY=              6.9941
  XXY=            -12.0437  XXZ=             -1.6833  XZZ=            -10.2834  YZZ=             -1.1589
  YYZ=             -5.3556  XYZ=              1.1365
 Hexadecapole moment (field-independent basis, Debye-Ang**3):
 XXXX=          -1538.7970 YYYY=           -355.1454 ZZZZ=           -108.8542 XXXY=             29.2176
 XXXZ=             28.0854 YYYX=             17.8115 YYYZ=             -5.9638 ZZZX=              0.2292
 ZZZY=              1.8832 XXYY=           -343.1240 XXZZ=           -317.9039 YYZZ=            -85.0683
 XXYZ=            -15.8374 YYXZ=             11.3747 ZZXY=              2.3065
 N-N= 4.929836378285D+02 E-N=-2.012405492009D+03  KE= 4.400230326351D+02
 No NMR shielding tensors so no spin-rotation constants.
 Leave Link  601 at Tue Nov 22 19:11:44 2022, MaxMem= 16106127360 cpu:               4.0 elap:               0.1
 (Enter /opt/ap/G16/B01/g16/l9999.exe)
 1\1\GINC-N35\SP\RwB97XD\6-311++G(d,p)\C8H9N1O1\ROOT\22-Nov-2022\0\\#P 
 wB97XD/6-311++G(d,p) scf=maxcycle=512\\_conf029.gjf nmol_natom 1_19\\0
 ,1\C\C,1,1.39447505\C,1,1.39873503,2,119.56697224\C,2,1.39066123,1,119
 .42697207,3,2.53915756,0\H,2,0.96213008,1,119.8046163,3,-177.79870417,
 0\N,1,1.41693372,2,123.72220125,4,-177.74604849,0\C,3,1.38667133,1,120
 .18759987,2,-2.5020857,0\H,3,0.95673174,1,118.82085988,2,177.96737168,
 0\C,4,1.38268572,2,121.03929493,1,-0.41221113,0\H,4,0.9858595,2,118.57
 91267,1,178.77373233,0\C,6,1.35500692,1,127.62132737,2,145.,0\H,6,0.89
 609466,1,115.10511997,2,-35.,0\H,7,0.98847198,3,119.08117704,1,-179.64
 585354,0\H,9,0.98451201,4,120.53755637,2,177.22743544,0\C,11,1.5027456
 1,6,115.46861532,1,175.89235465,0\O,11,1.23496495,6,123.15099888,1,-3.
 40672617,0\H,15,0.98719837,11,107.47091875,6,-116.36962839,0\H,15,0.99
 976021,11,109.69443261,6,128.85346087,0\H,15,0.97696155,11,114.3700887
 1,6,6.05302844,0\\Version=ES64L-G16RevB.01\State=1-A\HF=-440.1432782\R
 MSD=6.892e-09\Dipole=-0.8943149,-0.9003808,0.7097608\Quadrupole=7.5973
 735,-6.1721036,-1.4252699,1.4125211,2.1699559,3.3511563\PG=C01 [X(C8H9
 N1O1)]\\@


 THE 2ND LAW OF THERMODYNAMICS HAS THE SAME
 DEGREE OF TRUTH AS THE STATEMENT THAT IF YOU THROW
 A TUMBLERFULL OF WATER INTO THE SEA, YOU CANNOT GET
 THE SAME TUMBLERFULL OF WATER OUT AGAIN.
          - J.C. MAXWELL, LETTER TO LORD RAYLEIGH, DECEMBER 6,1870
 Job cpu time:       0 days  0 hours 10 minutes 22.8 seconds.
 Elapsed time:       0 days  0 hours  0 minutes 19.6 seconds.
 File lengths (MBytes):  RWF=     46 Int=      0 D2E=      0 Chk=      6 Scr=      1
 Normal termination of Gaussian 16 at Tue Nov 22 19:11:44 2022.
