 Entering Gaussian System, Link 0=g16
 Input=_conf012.gjf
 Output=_conf012.log
 Initial command:
 /opt/ap/G16/B01/g16/l1.exe "/tmp2/scr/Gau-4026.inp" -scrdir="/tmp2/scr/"
 Entering Link 1 = /opt/ap/G16/B01/g16/l1.exe PID=      4027.
  
 Copyright (c) 1988-2017, Gaussian, Inc.  All Rights Reserved.
  
 This is part of the Gaussian(R) 16 program.  It is based on
 the Gaussian(R) 09 system (copyright 2009, Gaussian, Inc.),
 the Gaussian(R) 03 system (copyright 2003, Gaussian, Inc.),
 the Gaussian(R) 98 system (copyright 1998, Gaussian, Inc.),
 the Gaussian(R) 94 system (copyright 1995, Gaussian, Inc.),
 the Gaussian 92(TM) system (copyright 1992, Gaussian, Inc.),
 the Gaussian 90(TM) system (copyright 1990, Gaussian, Inc.),
 the Gaussian 88(TM) system (copyright 1988, Gaussian, Inc.),
 the Gaussian 86(TM) system (copyright 1986, Carnegie Mellon
 University), and the Gaussian 82(TM) system (copyright 1983,
 Carnegie Mellon University). Gaussian is a federally registered
 trademark of Gaussian, Inc.
  
 This software contains proprietary and confidential information,
 including trade secrets, belonging to Gaussian, Inc.
  
 This software is provided under written license and may be
 used, copied, transmitted, or stored only in accord with that
 written license.
  
 The following legend is applicable only to US Government
 contracts under FAR:
  
                    RESTRICTED RIGHTS LEGEND
  
 Use, reproduction and disclosure by the US Government is
 subject to restrictions as set forth in subparagraphs (a)
 and (c) of the Commercial Computer Software - Restricted
 Rights clause in FAR 52.227-19.
  
 Gaussian, Inc.
 340 Quinnipiac St., Bldg. 40, Wallingford CT 06492
  
  
 ---------------------------------------------------------------
 Warning -- This program may not be used in any manner that
 competes with the business of Gaussian, Inc. or will provide
 assistance to any competitor of Gaussian, Inc.  The licensee
 of this program is prohibited from giving any competitor of
 Gaussian, Inc. access to this program.  By using this program,
 the user acknowledges that Gaussian, Inc. is engaged in the
 business of creating and licensing software in the field of
 computational chemistry and represents and warrants to the
 licensee that it is not a competitor of Gaussian, Inc. and that
 it will not use this program in any manner prohibited above.
 ---------------------------------------------------------------
  

 Cite this work as:
 Gaussian 16, Revision B.01,
 M. J. Frisch, G. W. Trucks, H. B. Schlegel, G. E. Scuseria, 
 M. A. Robb, J. R. Cheeseman, G. Scalmani, V. Barone, 
 G. A. Petersson, H. Nakatsuji, X. Li, M. Caricato, A. V. Marenich, 
 J. Bloino, B. G. Janesko, R. Gomperts, B. Mennucci, H. P. Hratchian, 
 J. V. Ortiz, A. F. Izmaylov, J. L. Sonnenberg, D. Williams-Young, 
 F. Ding, F. Lipparini, F. Egidi, J. Goings, B. Peng, A. Petrone, 
 T. Henderson, D. Ranasinghe, V. G. Zakrzewski, J. Gao, N. Rega, 
 G. Zheng, W. Liang, M. Hada, M. Ehara, K. Toyota, R. Fukuda, 
 J. Hasegawa, M. Ishida, T. Nakajima, Y. Honda, O. Kitao, H. Nakai, 
 T. Vreven, K. Throssell, J. A. Montgomery, Jr., J. E. Peralta, 
 F. Ogliaro, M. J. Bearpark, J. J. Heyd, E. N. Brothers, K. N. Kudin, 
 V. N. Staroverov, T. A. Keith, R. Kobayashi, J. Normand, 
 K. Raghavachari, A. P. Rendell, J. C. Burant, S. S. Iyengar, 
 J. Tomasi, M. Cossi, J. M. Millam, M. Klene, C. Adamo, R. Cammi, 
 J. W. Ochterski, R. L. Martin, K. Morokuma, O. Farkas, 
 J. B. Foresman, and D. J. Fox, Gaussian, Inc., Wallingford CT, 2016.
 
 ******************************************
 Gaussian 16:  ES64L-G16RevB.01 20-Dec-2017
                22-Nov-2022 
 ******************************************
 %nprocshared=32
 Will use up to   32 processors via shared memory.
 %mem=120GB
 %chk=_conf012.chk
 ----------------------------------------
 #P wB97XD/6-311++G(d,p) scf=maxcycle=512
 ----------------------------------------
 1/38=1,172=1/1;
 2/12=2,17=6,18=5,40=1/2;
 3/5=4,6=6,7=1111,11=2,25=1,30=1,74=-58/1,2,3;
 4//1;
 5/5=2,7=512,38=5/2;
 6/7=2,8=2,9=2,10=2,28=1/1;
 99/5=1,9=1/99;
 Leave Link    1 at Tue Nov 22 19:10:17 2022, MaxMem= 16106127360 cpu:               1.8 elap:               0.1
 (Enter /opt/ap/G16/B01/g16/l101.exe)
 ----------------------------
 _conf012.gjf nmol_natom 1_19
 ----------------------------
 Symbolic Z-matrix:
 Charge =  0 Multiplicity = 1
 C
 C                    1     1.39448 
 C                    1     1.39874  2     119.56697 
 C                    2     1.39066  1     119.42697  3     2.53916  0
 H                    2     0.96213  1     119.80462  3    -177.7987  0
 N                    1     1.41693  2     123.7222  4    -177.74605  0
 C                    3     1.38667  1     120.1876  2    -2.50209  0
 H                    3     0.95673  1     118.82086  2     177.96737  0
 C                    4     1.38269  2     121.03929  1    -0.41221  0
 H                    4     0.98586  2     118.57913  1     178.77373  0
 C                    6     1.35501  1     127.62133  2     60.      0
 H                    6     0.89609  1     115.10512  2    -120.     0
 H                    7     0.98847  3     119.08118  1    -179.64585  0
 H                    9     0.98451  4     120.53756  2     177.22744  0
 C                    11    1.50275  6     115.46862  1     175.89235  0
 O                    11    1.23496  6     123.151  1    -3.40673  0
 H                    15    0.9872   11    107.47092  6    -116.36963  0
 H                    15    0.99976  11    109.69443  6     128.85346  0
 H                    15    0.97696  11    114.37009  6     6.05303  0
 
 ITRead=  0  0  0  0  0  0  0  0  0  0  0  0  0  0  0  0  0  0  0
 MicOpt= -1 -1 -1 -1 -1 -1 -1 -1 -1 -1 -1 -1 -1 -1 -1 -1 -1 -1 -1
 NAtoms=     19 NQM=       19 NQMF=       0 NMMI=      0 NMMIF=      0
                NMic=       0 NMicF=      0.
                    Isotopes and Nuclear Properties:
 (Nuclear quadrupole moments (NQMom) in fm**2, nuclear magnetic moments (NMagM)
  in nuclear magnetons)

  Atom         1           2           3           4           5           6           7           8           9          10
 IAtWgt=          12          12          12          12           1          14          12           1          12           1
 AtmWgt=  12.0000000  12.0000000  12.0000000  12.0000000   1.0078250  14.0030740  12.0000000   1.0078250  12.0000000   1.0078250
 NucSpn=           0           0           0           0           1           2           0           1           0           1
 AtZEff=  -0.0000000  -0.0000000  -0.0000000  -0.0000000  -0.0000000  -0.0000000  -0.0000000  -0.0000000  -0.0000000  -0.0000000
 NQMom=    0.0000000   0.0000000   0.0000000   0.0000000   0.0000000   2.0440000   0.0000000   0.0000000   0.0000000   0.0000000
 NMagM=    0.0000000   0.0000000   0.0000000   0.0000000   2.7928460   0.4037610   0.0000000   2.7928460   0.0000000   2.7928460
 AtZNuc=   6.0000000   6.0000000   6.0000000   6.0000000   1.0000000   7.0000000   6.0000000   1.0000000   6.0000000   1.0000000

  Atom        11          12          13          14          15          16          17          18          19
 IAtWgt=          12           1           1           1          12          16           1           1           1
 AtmWgt=  12.0000000   1.0078250   1.0078250   1.0078250  12.0000000  15.9949146   1.0078250   1.0078250   1.0078250
 NucSpn=           0           1           1           1           0           0           1           1           1
 AtZEff=  -0.0000000  -0.0000000  -0.0000000  -0.0000000  -0.0000000  -0.0000000  -0.0000000  -0.0000000  -0.0000000
 NQMom=    0.0000000   0.0000000   0.0000000   0.0000000   0.0000000   0.0000000   0.0000000   0.0000000   0.0000000
 NMagM=    0.0000000   2.7928460   2.7928460   2.7928460   0.0000000   0.0000000   2.7928460   2.7928460   2.7928460
 AtZNuc=   6.0000000   1.0000000   1.0000000   1.0000000   6.0000000   8.0000000   1.0000000   1.0000000   1.0000000
 Leave Link  101 at Tue Nov 22 19:10:17 2022, MaxMem= 16106127360 cpu:               5.2 elap:               0.2
 (Enter /opt/ap/G16/B01/g16/l202.exe)
                          Input orientation:                          
 ---------------------------------------------------------------------
 Center     Atomic      Atomic             Coordinates (Angstroms)
 Number     Number       Type             X           Y           Z
 ---------------------------------------------------------------------
      1          6           0        0.000000    0.000000    0.000000
      2          6           0        0.000000    0.000000    1.394475
      3          6           0        1.216591    0.000000   -0.690193
      4          6           0        1.210053    0.053661    2.077726
      5          1           0       -0.834249   -0.032067    1.872696
      6          7           0       -1.178505   -0.005866   -0.786634
      7          6           0        2.413939    0.052326    0.007287
      8          1           0        1.204393   -0.029731   -1.646384
      9          6           0        2.412261    0.098442    1.396177
     10          1           0        1.194755    0.071528    3.063305
     11          6           0       -2.169009    0.918676   -0.799509
     12          1           0       -1.265986   -0.709039   -1.335160
     13          1           0        3.263999    0.056828   -0.497149
     14          1           0        3.262484    0.177260    1.886251
     15          6           0       -3.253520    0.689737   -1.814233
     16          8           0       -2.189725    1.896750   -0.045797
     17          1           0       -3.230389    1.445887   -2.448475
     18          1           0       -4.147061    0.732326   -1.367811
     19          1           0       -3.180156   -0.155297   -2.298989
 ---------------------------------------------------------------------
                    Distance matrix (angstroms):
                    1          2          3          4          5
     1  C    0.000000
     2  C    1.394475   0.000000
     3  C    1.398735   2.413697   0.000000
     4  C    2.405006   1.390661   2.768447   0.000000
     5  H    2.050363   0.962130   3.282586   2.056345   0.000000
     6  N    1.416934   2.479142   2.397044   3.730055   2.681648
     7  C    2.414517   2.784624   1.386671   2.395008   3.746678
     8  H    2.040105   3.270821   0.956732   3.725048   4.066939
     9  C    2.788908   2.414270   2.406711   1.382686   3.283889
    10  H    3.288829   2.053668   3.754243   0.985860   2.354812
    11  C    2.487525   3.219026   3.509730   4.521591   3.134673
    12  H    1.971829   3.091337   2.661186   4.284889   3.306815
    13  H    3.302132   3.772951   2.057273   3.293734   4.734944
    14  H    3.772687   3.304099   3.294718   2.065046   4.102100
    15  C    3.788479   4.621357   4.660590   5.956125   4.468481
    16  O    2.897353   3.235265   3.951695   4.411895   3.039452
    17  H    4.303607   5.224391   4.995776   6.491711   5.157359
    18  H    4.427790   5.036332   5.455660   6.405543   4.696798
    19  H    3.927195   4.876391   4.684413   6.202679   4.787632
                    6          7          8          9         10
     6  N    0.000000
     7  C    3.679585   0.000000
     8  H    2.533365   2.050454   0.000000
     9  C    4.203468   1.389657   3.276058   0.000000
    10  H    4.523316   3.290292   4.710788   2.064548   0.000000
    11  C    1.355007   4.733380   3.605068   5.146053   5.191715
    12  H    0.896095   3.990450   2.580910   4.652068   5.100101
    13  H    4.452366   0.988472   2.360129   2.076505   4.118108
    14  H    5.186544   2.065465   4.093666   0.984512   2.381625
    15  C    2.417750   5.987013   4.518717   6.538918   6.630213
    16  O    2.278455   4.959681   4.218204   5.146987   4.944963
    17  H    3.013226   6.311197   4.742160   6.959631   7.200728
    18  H    3.113683   6.737953   5.412614   7.146058   6.971832
    19  H    2.513196   6.054413   4.434628   6.707740   6.924269
                   11         12         13         14         15
    11  C    0.000000
    12  H    1.936964   0.000000
    13  H    5.509244   4.670073   0.000000
    14  H    6.104435   5.627616   2.386441   0.000000
    15  C    1.502746   2.477172   6.679322   7.510961   0.000000
    16  O    1.234965   3.050555   5.773399   6.034571   2.390796
    17  H    2.030657   3.121227   6.922010   7.909277   0.987198
    18  H    2.066491   3.221675   7.492540   8.111620   0.999760
    19  H    2.103397   2.213514   6.694681   7.689892   0.976962
                   16         17         18         19
    16  O    0.000000
    17  H    2.656900   0.000000
    18  H    2.633395   1.586598   0.000000
    19  H    3.204485   1.608931   1.609308   0.000000
 Stoichiometry    C8H9NO
 Framework group  C1[X(C8H9NO)]
 Deg. of freedom    51
 Full point group                 C1      NOp   1
 Largest Abelian subgroup         C1      NOp   1
 Largest concise Abelian subgroup C1      NOp   1
                         Standard orientation:                         
 ---------------------------------------------------------------------
 Center     Atomic      Atomic             Coordinates (Angstroms)
 Number     Number       Type             X           Y           Z
 ---------------------------------------------------------------------
      1          6           0       -0.288574   -0.201727   -0.298157
      2          6           0       -0.884320    1.040942   -0.511278
      3          6           0       -1.074240   -1.281498    0.118116
      4          6           0       -2.241858    1.200736   -0.255355
      5          1           0       -0.353105    1.777916   -0.828095
      6          7           0        1.093201   -0.453997   -0.484593
      7          6           0       -2.426798   -1.104499    0.367345
      8          1           0       -0.659935   -2.136218    0.232754
      9          6           0       -3.010863    0.145127    0.198673
     10          1           0       -2.646305    2.089240   -0.392834
     11          6           0        2.134927    0.139283    0.146970
     12          1           0        1.286214   -1.081584   -1.094402
     13          1           0       -2.965523   -1.877624    0.665891
     14          1           0       -3.962026    0.276382    0.416215
     15          6           0        3.492906   -0.406776   -0.193555
     16          8           0        1.996884    1.058364    0.960218
     17          1           0        3.871314   -0.795645    0.631157
     18          1           0        4.103003    0.342792   -0.449387
     19          1           0        3.491805   -1.073713   -0.907450
 ---------------------------------------------------------------------
 Rotational constants (GHZ):           3.6822544           0.7726630           0.6910443
 Leave Link  202 at Tue Nov 22 19:10:17 2022, MaxMem= 16106127360 cpu:               0.3 elap:               0.0
 (Enter /opt/ap/G16/B01/g16/l301.exe)
 Standard basis: 6-311++G(d,p) (5D, 7F)
 Ernie: Thresh=  0.10000D-02 Tol=  0.10000D-05 Strict=F.
 There are   293 symmetry adapted cartesian basis functions of A   symmetry.
 There are   283 symmetry adapted basis functions of A   symmetry.
   283 basis functions,   441 primitive gaussians,   293 cartesian basis functions
    36 alpha electrons       36 beta electrons
       nuclear repulsion energy       490.8694349580 Hartrees.
 IExCor= 4639 DFT=T Ex+Corr=wB97XD ExCW=0 ScaHFX=  1.000000
 ScaDFX=  1.000000  1.000000  1.000000  1.000000 ScalE2=  1.000000  1.000000
 IRadAn=      5 IRanWt=     -1 IRanGd=            0 ICorTp=0 IEmpDi=121
 HFx  wShort=  0.000000 wLong=  0.200000 cFull=  0.222036 cShort=  0.000000 cLong=  0.777964
 DFx  wShort=  0.000000 wLong=  0.200000 cFull=  0.000000 cShort=  0.000000 cLong=  1.000000
 NAtoms=   19 NActive=   19 NUniq=   19 SFac= 1.00D+00 NAtFMM=   60 NAOKFM=F Big=F
 Integral buffers will be    131072 words long.
 Raffenetti 2 integral format.
 Two-electron integral symmetry is turned on.
 R6Disp:  Grimme-D2 Dispersion energy=       -0.0091963045 Hartrees.
 Nuclear repulsion after empirical dispersion term =      490.8602386536 Hartrees.
 Leave Link  301 at Tue Nov 22 19:10:17 2022, MaxMem= 16106127360 cpu:               1.1 elap:               0.0
 (Enter /opt/ap/G16/B01/g16/l302.exe)
 NPDir=0 NMtPBC=     1 NCelOv=     1 NCel=       1 NClECP=     1 NCelD=      1
         NCelK=      1 NCelE2=     1 NClLst=     1 CellRange=     0.0.
 One-electron integrals computed using PRISM.
 One-electron integral symmetry used in STVInt
 NBasis=   283 RedAO= T EigKep=  3.17D-06  NBF=   283
 NBsUse=   282 1.00D-06 EigRej=  9.19D-07 NBFU=   282
 Precomputing XC quadrature grid using
 IXCGrd= 4 IRadAn=           5 IRanWt=          -1 IRanGd=           0 AccXCQ= 0.00D+00.
 Generated NRdTot=       0 NPtTot=           0 NUsed=           0 NTot=          32
 NSgBfM=   293   293   293   293   293 MxSgAt=    19 MxSgA2=    19.
 Leave Link  302 at Tue Nov 22 19:10:17 2022, MaxMem= 16106127360 cpu:               6.5 elap:               0.2
 (Enter /opt/ap/G16/B01/g16/l303.exe)
 DipDrv:  MaxL=1.
 Leave Link  303 at Tue Nov 22 19:10:17 2022, MaxMem= 16106127360 cpu:               1.3 elap:               0.0
 (Enter /opt/ap/G16/B01/g16/l401.exe)
 ExpMin= 3.60D-02 ExpMax= 8.59D+03 ExpMxC= 1.30D+03 IAcc=3 IRadAn=         5 AccDes= 0.00D+00
 Harris functional with IExCor= 4639 and IRadAn=       5 diagonalized for initial guess.
 HarFok:  IExCor= 4639 AccDes= 0.00D+00 IRadAn=         5 IDoV= 1 UseB2=F ITyADJ=14
 ICtDFT=  3500011 ScaDFX=  1.000000  1.000000  1.000000  1.000000
 FoFCou: FMM=F IPFlag=           0 FMFlag=      100000 FMFlg1=           0
         NFxFlg=           0 DoJE=T BraDBF=F KetDBF=T FulRan=T
         wScrn=  0.000000 ICntrl=       500 IOpCl=  0 I1Cent=   200000004 NGrid=           0
         NMat0=    1 NMatS0=      1 NMatT0=    0 NMatD0=    1 NMtDS0=    0 NMtDT0=    0
 Petite list used in FoFCou.
 Harris En= -420.982482356143    
 JPrj=0 DoOrth=F DoCkMO=F.
 Leave Link  401 at Tue Nov 22 19:10:18 2022, MaxMem= 16106127360 cpu:              15.4 elap:               0.5
 (Enter /opt/ap/G16/B01/g16/l502.exe)
 Integral symmetry usage will be decided dynamically.
 Closed shell SCF:
 Using DIIS extrapolation, IDIIS=  1040.
 NGot= 16106127360 LenX= 16105943385 LenY= 16105857095
 Requested convergence on RMS density matrix=1.00D-08 within 512 cycles.
 Requested convergence on MAX density matrix=1.00D-06.
 Requested convergence on             energy=1.00D-06.
 No special actions if energy rises.
 Fock matrices will be formed incrementally for  20 cycles.

 Cycle   1  Pass 1  IDiag  1:
 FoFJK:  IHMeth= 1 ICntrl=       0 DoSepK=T KAlg= 0 I1Cent=           0 FoldK=F
 IRaf=         1 NMat=       1 IRICut=       1 DoRegI=T DoRafI=F ISym2E= 0 IDoP0=0 IntGTp=1.
 FoFCou: FMM=F IPFlag=           0 FMFlag=      100000 FMFlg1=           0
         NFxFlg=           0 DoJE=T BraDBF=F KetDBF=F FulRan=T
         wScrn=  0.000000 ICntrl=       500 IOpCl=  0 I1Cent=           0 NGrid=           0
         NMat0=    1 NMatS0=      1 NMatT0=    0 NMatD0=    1 NMtDS0=    0 NMtDT0=    0
 Symmetry not used in FoFCou.
 E= -439.995965098428    
 DIIS: error= 6.43D-02 at cycle   1 NSaved=   1.
 NSaved= 1 IEnMin= 1 EnMin= -439.995965098428     IErMin= 1 ErrMin= 6.43D-02
 ErrMax= 6.43D-02  0.00D+00 EMaxC= 1.00D-01 BMatC= 9.36D-01 BMatP= 9.36D-01
 IDIUse=3 WtCom= 3.57D-01 WtEn= 6.43D-01
 Coeff-Com:  0.100D+01
 Coeff-En:   0.100D+01
 Coeff:      0.100D+01
 Gap=     0.465 Goal=   None    Shift=    0.000
 GapD=    0.465 DampG=2.000 DampE=0.500 DampFc=1.0000 IDamp=-1.
 RMSDP=7.66D-03 MaxDP=4.71D-01              OVMax= 1.32D-01

 Cycle   2  Pass 1  IDiag  1:
 RMSU=  5.24D-03    CP:  7.57D-01
 E= -440.076753799208     Delta-E=       -0.080788700780 Rises=F Damp=F
 DIIS: error= 1.23D-02 at cycle   2 NSaved=   2.
 NSaved= 2 IEnMin= 2 EnMin= -440.076753799208     IErMin= 2 ErrMin= 1.23D-02
 ErrMax= 1.23D-02  0.00D+00 EMaxC= 1.00D-01 BMatC= 7.44D-02 BMatP= 9.36D-01
 IDIUse=3 WtCom= 8.77D-01 WtEn= 1.23D-01
 Coeff-Com:  0.148D+00 0.852D+00
 Coeff-En:   0.193D+00 0.807D+00
 Coeff:      0.154D+00 0.846D+00
 Gap=     0.432 Goal=   None    Shift=    0.000
 RMSDP=4.19D-03 MaxDP=2.38D-01 DE=-8.08D-02 OVMax= 1.08D-01

 Cycle   3  Pass 1  IDiag  1:
 RMSU=  3.73D-03    CP:  6.78D-01  8.86D-01
 E= -440.105768915407     Delta-E=       -0.029015116199 Rises=F Damp=F
 DIIS: error= 1.05D-02 at cycle   3 NSaved=   3.
 NSaved= 3 IEnMin= 3 EnMin= -440.105768915407     IErMin= 3 ErrMin= 1.05D-02
 ErrMax= 1.05D-02  0.00D+00 EMaxC= 1.00D-01 BMatC= 3.95D-02 BMatP= 7.44D-02
 IDIUse=3 WtCom= 8.95D-01 WtEn= 1.05D-01
 Coeff-Com:  0.265D-01 0.426D+00 0.548D+00
 Coeff-En:   0.000D+00 0.353D+00 0.647D+00
 Coeff:      0.237D-01 0.418D+00 0.558D+00
 Gap=     0.383 Goal=   None    Shift=    0.000
 RMSDP=1.69D-03 MaxDP=6.55D-02 DE=-2.90D-02 OVMax= 6.41D-02

 Cycle   4  Pass 1  IDiag  1:
 RMSU=  7.32D-04    CP:  6.85D-01  9.67D-01  6.11D-01
 E= -440.140607175003     Delta-E=       -0.034838259595 Rises=F Damp=F
 DIIS: error= 2.59D-03 at cycle   4 NSaved=   4.
 NSaved= 4 IEnMin= 4 EnMin= -440.140607175003     IErMin= 4 ErrMin= 2.59D-03
 ErrMax= 2.59D-03  0.00D+00 EMaxC= 1.00D-01 BMatC= 1.61D-03 BMatP= 3.95D-02
 IDIUse=3 WtCom= 9.74D-01 WtEn= 2.59D-02
 Coeff-Com:  0.975D-02 0.197D+00 0.294D+00 0.499D+00
 Coeff-En:   0.000D+00 0.000D+00 0.000D+00 0.100D+01
 Coeff:      0.949D-02 0.192D+00 0.286D+00 0.512D+00
 Gap=     0.357 Goal=   None    Shift=    0.000
 RMSDP=2.66D-04 MaxDP=1.34D-02 DE=-3.48D-02 OVMax= 1.00D-02

 Cycle   5  Pass 1  IDiag  1:
 RMSU=  1.89D-04    CP:  6.81D-01  9.67D-01  6.35D-01  8.28D-01
 E= -440.141842196691     Delta-E=       -0.001235021689 Rises=F Damp=F
 DIIS: error= 5.35D-04 at cycle   5 NSaved=   5.
 NSaved= 5 IEnMin= 5 EnMin= -440.141842196691     IErMin= 5 ErrMin= 5.35D-04
 ErrMax= 5.35D-04  0.00D+00 EMaxC= 1.00D-01 BMatC= 5.91D-05 BMatP= 1.61D-03
 IDIUse=3 WtCom= 9.95D-01 WtEn= 5.35D-03
 Coeff-Com:  0.118D-02 0.263D-01 0.493D-01 0.178D+00 0.745D+00
 Coeff-En:   0.000D+00 0.000D+00 0.000D+00 0.000D+00 0.100D+01
 Coeff:      0.118D-02 0.261D-01 0.491D-01 0.177D+00 0.746D+00
 Gap=     0.356 Goal=   None    Shift=    0.000
 RMSDP=1.19D-04 MaxDP=4.23D-03 DE=-1.24D-03 OVMax= 2.66D-03

 Cycle   6  Pass 1  IDiag  1:
 RMSU=  9.29D-05    CP:  6.80D-01  9.75D-01  6.51D-01  8.54D-01  9.57D-01
 E= -440.141881381603     Delta-E=       -0.000039184912 Rises=F Damp=F
 DIIS: error= 2.84D-04 at cycle   6 NSaved=   6.
 NSaved= 6 IEnMin= 6 EnMin= -440.141881381603     IErMin= 6 ErrMin= 2.84D-04
 ErrMax= 2.84D-04  0.00D+00 EMaxC= 1.00D-01 BMatC= 1.70D-05 BMatP= 5.91D-05
 IDIUse=3 WtCom= 9.97D-01 WtEn= 2.84D-03
 Coeff-Com: -0.106D-02-0.189D-01-0.210D-01 0.901D-02 0.399D+00 0.633D+00
 Coeff-En:   0.000D+00 0.000D+00 0.000D+00 0.000D+00 0.564D-01 0.944D+00
 Coeff:     -0.106D-02-0.188D-01-0.209D-01 0.898D-02 0.398D+00 0.634D+00
 Gap=     0.357 Goal=   None    Shift=    0.000
 RMSDP=4.30D-05 MaxDP=1.27D-03 DE=-3.92D-05 OVMax= 1.27D-03

 Cycle   7  Pass 1  IDiag  1:
 RMSU=  2.44D-05    CP:  6.79D-01  9.75D-01  6.53D-01  8.76D-01  1.07D+00
                    CP:  1.09D+00
 E= -440.141895839218     Delta-E=       -0.000014457616 Rises=F Damp=F
 DIIS: error= 9.49D-05 at cycle   7 NSaved=   7.
 NSaved= 7 IEnMin= 7 EnMin= -440.141895839218     IErMin= 7 ErrMin= 9.49D-05
 ErrMax= 9.49D-05  0.00D+00 EMaxC= 1.00D-01 BMatC= 4.38D-07 BMatP= 1.70D-05
 IDIUse=1 WtCom= 1.00D+00 WtEn= 0.00D+00
 Coeff-Com: -0.302D-03-0.580D-02-0.677D-02-0.122D-01 0.264D-01 0.114D+00
 Coeff-Com:  0.885D+00
 Coeff:     -0.302D-03-0.580D-02-0.677D-02-0.122D-01 0.264D-01 0.114D+00
 Coeff:      0.885D+00
 Gap=     0.357 Goal=   None    Shift=    0.000
 RMSDP=1.41D-05 MaxDP=4.07D-04 DE=-1.45D-05 OVMax= 3.96D-04

 Cycle   8  Pass 1  IDiag  1:
 RMSU=  7.02D-06    CP:  6.79D-01  9.75D-01  6.54D-01  8.82D-01  1.11D+00
                    CP:  1.16D+00  1.10D+00
 E= -440.141896715433     Delta-E=       -0.000000876214 Rises=F Damp=F
 DIIS: error= 1.66D-05 at cycle   8 NSaved=   8.
 NSaved= 8 IEnMin= 8 EnMin= -440.141896715433     IErMin= 8 ErrMin= 1.66D-05
 ErrMax= 1.66D-05  0.00D+00 EMaxC= 1.00D-01 BMatC= 8.71D-08 BMatP= 4.38D-07
 IDIUse=1 WtCom= 1.00D+00 WtEn= 0.00D+00
 Coeff-Com:  0.628D-04 0.813D-03 0.105D-02-0.640D-02-0.556D-01-0.673D-01
 Coeff-Com:  0.275D+00 0.853D+00
 Coeff:      0.628D-04 0.813D-03 0.105D-02-0.640D-02-0.556D-01-0.673D-01
 Coeff:      0.275D+00 0.853D+00
 Gap=     0.357 Goal=   None    Shift=    0.000
 RMSDP=5.83D-06 MaxDP=1.41D-04 DE=-8.76D-07 OVMax= 2.77D-04

 Cycle   9  Pass 1  IDiag  1:
 RMSU=  2.50D-06    CP:  6.79D-01  9.75D-01  6.55D-01  8.82D-01  1.12D+00
                    CP:  1.20D+00  1.20D+00  1.14D+00
 E= -440.141896878628     Delta-E=       -0.000000163196 Rises=F Damp=F
 DIIS: error= 1.45D-05 at cycle   9 NSaved=   9.
 NSaved= 9 IEnMin= 9 EnMin= -440.141896878628     IErMin= 9 ErrMin= 1.45D-05
 ErrMax= 1.45D-05  0.00D+00 EMaxC= 1.00D-01 BMatC= 7.52D-09 BMatP= 8.71D-08
 IDIUse=1 WtCom= 1.00D+00 WtEn= 0.00D+00
 Coeff-Com:  0.485D-04 0.842D-03 0.111D-02-0.588D-03-0.179D-01-0.300D-01
 Coeff-Com: -0.113D-02 0.239D+00 0.809D+00
 Coeff:      0.485D-04 0.842D-03 0.111D-02-0.588D-03-0.179D-01-0.300D-01
 Coeff:     -0.113D-02 0.239D+00 0.809D+00
 Gap=     0.357 Goal=   None    Shift=    0.000
 RMSDP=1.46D-06 MaxDP=4.27D-05 DE=-1.63D-07 OVMax= 6.16D-05

 Cycle  10  Pass 1  IDiag  1:
 RMSU=  8.43D-07    CP:  6.79D-01  9.75D-01  6.55D-01  8.81D-01  1.12D+00
                    CP:  1.20D+00  1.21D+00  1.18D+00  1.27D+00
 E= -440.141896893618     Delta-E=       -0.000000014989 Rises=F Damp=F
 DIIS: error= 1.83D-06 at cycle  10 NSaved=  10.
 NSaved=10 IEnMin=10 EnMin= -440.141896893618     IErMin=10 ErrMin= 1.83D-06
 ErrMax= 1.83D-06  0.00D+00 EMaxC= 1.00D-01 BMatC= 1.20D-09 BMatP= 7.52D-09
 IDIUse=1 WtCom= 1.00D+00 WtEn= 0.00D+00
 Coeff-Com:  0.454D-05 0.132D-03 0.197D-03 0.737D-03 0.320D-02 0.118D-02
 Coeff-Com: -0.380D-01-0.737D-01 0.227D+00 0.880D+00
 Coeff:      0.454D-05 0.132D-03 0.197D-03 0.737D-03 0.320D-02 0.118D-02
 Coeff:     -0.380D-01-0.737D-01 0.227D+00 0.880D+00
 Gap=     0.357 Goal=   None    Shift=    0.000
 RMSDP=6.75D-07 MaxDP=4.09D-05 DE=-1.50D-08 OVMax= 3.61D-05

 Cycle  11  Pass 1  IDiag  1:
 RMSU=  3.52D-07    CP:  6.79D-01  9.75D-01  6.55D-01  8.81D-01  1.12D+00
                    CP:  1.20D+00  1.21D+00  1.20D+00  1.43D+00  1.17D+00
 E= -440.141896896149     Delta-E=       -0.000000002531 Rises=F Damp=F
 DIIS: error= 1.26D-06 at cycle  11 NSaved=  11.
 NSaved=11 IEnMin=11 EnMin= -440.141896896149     IErMin=11 ErrMin= 1.26D-06
 ErrMax= 1.26D-06  0.00D+00 EMaxC= 1.00D-01 BMatC= 1.06D-10 BMatP= 1.20D-09
 IDIUse=1 WtCom= 1.00D+00 WtEn= 0.00D+00
 Coeff-Com: -0.354D-05-0.535D-04-0.588D-04 0.280D-03 0.284D-02 0.351D-02
 Coeff-Com: -0.905D-02-0.485D-01-0.313D-01 0.209D+00 0.873D+00
 Coeff:     -0.354D-05-0.535D-04-0.588D-04 0.280D-03 0.284D-02 0.351D-02
 Coeff:     -0.905D-02-0.485D-01-0.313D-01 0.209D+00 0.873D+00
 Gap=     0.357 Goal=   None    Shift=    0.000
 RMSDP=2.20D-07 MaxDP=1.41D-05 DE=-2.53D-09 OVMax= 8.28D-06

 Cycle  12  Pass 1  IDiag  1:
 RMSU=  8.78D-08    CP:  6.79D-01  9.75D-01  6.55D-01  8.81D-01  1.12D+00
                    CP:  1.20D+00  1.21D+00  1.19D+00  1.47D+00  1.27D+00
                    CP:  1.26D+00
 E= -440.141896896389     Delta-E=       -0.000000000241 Rises=F Damp=F
 DIIS: error= 1.95D-07 at cycle  12 NSaved=  12.
 NSaved=12 IEnMin=12 EnMin= -440.141896896389     IErMin=12 ErrMin= 1.95D-07
 ErrMax= 1.95D-07  0.00D+00 EMaxC= 1.00D-01 BMatC= 9.68D-12 BMatP= 1.06D-10
 IDIUse=1 WtCom= 1.00D+00 WtEn= 0.00D+00
 Coeff-Com: -0.922D-06-0.212D-04-0.284D-04-0.219D-04-0.281D-04 0.323D-03
 Coeff-Com:  0.309D-02 0.983D-03-0.251D-01-0.564D-01 0.132D+00 0.945D+00
 Coeff:     -0.922D-06-0.212D-04-0.284D-04-0.219D-04-0.281D-04 0.323D-03
 Coeff:      0.309D-02 0.983D-03-0.251D-01-0.564D-01 0.132D+00 0.945D+00
 Gap=     0.357 Goal=   None    Shift=    0.000
 RMSDP=9.18D-08 MaxDP=3.78D-06 DE=-2.41D-10 OVMax= 3.05D-06

 Cycle  13  Pass 1  IDiag  1:
 RMSU=  3.24D-08    CP:  6.79D-01  9.75D-01  6.55D-01  8.81D-01  1.12D+00
                    CP:  1.20D+00  1.21D+00  1.19D+00  1.48D+00  1.29D+00
                    CP:  1.37D+00  1.27D+00
 E= -440.141896896413     Delta-E=       -0.000000000023 Rises=F Damp=F
 DIIS: error= 7.32D-08 at cycle  13 NSaved=  13.
 NSaved=13 IEnMin=13 EnMin= -440.141896896413     IErMin=13 ErrMin= 7.32D-08
 ErrMax= 7.32D-08  0.00D+00 EMaxC= 1.00D-01 BMatC= 1.91D-12 BMatP= 9.68D-12
 IDIUse=1 WtCom= 1.00D+00 WtEn= 0.00D+00
 Coeff-Com:  0.931D-07-0.282D-06-0.196D-05-0.337D-04-0.361D-03-0.303D-03
 Coeff-Com:  0.201D-02 0.597D-02-0.435D-02-0.431D-01-0.741D-01 0.291D+00
 Coeff-Com:  0.823D+00
 Coeff:      0.931D-07-0.282D-06-0.196D-05-0.337D-04-0.361D-03-0.303D-03
 Coeff:      0.201D-02 0.597D-02-0.435D-02-0.431D-01-0.741D-01 0.291D+00
 Coeff:      0.823D+00
 Gap=     0.357 Goal=   None    Shift=    0.000
 RMSDP=3.20D-08 MaxDP=1.35D-06 DE=-2.33D-11 OVMax= 1.02D-06

 Cycle  14  Pass 1  IDiag  1:
 RMSU=  1.31D-08    CP:  6.79D-01  9.75D-01  6.55D-01  8.81D-01  1.12D+00
                    CP:  1.20D+00  1.21D+00  1.19D+00  1.48D+00  1.30D+00
                    CP:  1.41D+00  1.32D+00  1.22D+00
 E= -440.141896896419     Delta-E=       -0.000000000006 Rises=F Damp=F
 DIIS: error= 2.53D-08 at cycle  14 NSaved=  14.
 NSaved=14 IEnMin=14 EnMin= -440.141896896419     IErMin=14 ErrMin= 2.53D-08
 ErrMax= 2.53D-08  0.00D+00 EMaxC= 1.00D-01 BMatC= 1.41D-13 BMatP= 1.91D-12
 IDIUse=1 WtCom= 1.00D+00 WtEn= 0.00D+00
 Coeff-Com:  0.990D-07 0.177D-05 0.198D-05-0.432D-05-0.739D-04-0.832D-04
 Coeff-Com:  0.103D-03 0.107D-02 0.155D-02-0.211D-02-0.312D-01-0.368D-01
 Coeff-Com:  0.176D+00 0.892D+00
 Coeff:      0.990D-07 0.177D-05 0.198D-05-0.432D-05-0.739D-04-0.832D-04
 Coeff:      0.103D-03 0.107D-02 0.155D-02-0.211D-02-0.312D-01-0.368D-01
 Coeff:      0.176D+00 0.892D+00
 Gap=     0.357 Goal=   None    Shift=    0.000
 RMSDP=7.48D-09 MaxDP=2.54D-07 DE=-5.80D-12 OVMax= 3.23D-07

 SCF Done:  E(RwB97XD) =  -440.141896896     A.U. after   14 cycles
            NFock= 14  Conv=0.75D-08     -V/T= 2.0003
 KE= 4.400188455370D+02 PE=-2.008169271725D+03 EE= 6.371482906376D+02
 Leave Link  502 at Tue Nov 22 19:10:38 2022, MaxMem= 16106127360 cpu:             631.0 elap:              20.0
 (Enter /opt/ap/G16/B01/g16/l601.exe)
 Copying SCF densities to generalized density rwf, IOpCl= 0 IROHF=0.

 **********************************************************************

            Population analysis using the SCF Density.

 **********************************************************************

 Orbital symmetries:
       Occupied  (A) (A) (A) (A) (A) (A) (A) (A) (A) (A) (A) (A)
                 (A) (A) (A) (A) (A) (A) (A) (A) (A) (A) (A) (A)
                 (A) (A) (A) (A) (A) (A) (A) (A) (A) (A) (A) (A)
       Virtual   (A) (A) (A) (A) (A) (A) (A) (A) (A) (A) (A) (A)
                 (A) (A) (A) (A) (A) (A) (A) (A) (A) (A) (A) (A)
                 (A) (A) (A) (A) (A) (A) (A) (A) (A) (A) (A) (A)
                 (A) (A) (A) (A) (A) (A) (A) (A) (A) (A) (A) (A)
                 (A) (A) (A) (A) (A) (A) (A) (A) (A) (A) (A) (A)
                 (A) (A) (A) (A) (A) (A) (A) (A) (A) (A) (A) (A)
                 (A) (A) (A) (A) (A) (A) (A) (A) (A) (A) (A) (A)
                 (A) (A) (A) (A) (A) (A) (A) (A) (A) (A) (A) (A)
                 (A) (A) (A) (A) (A) (A) (A) (A) (A) (A) (A) (A)
                 (A) (A) (A) (A) (A) (A) (A) (A) (A) (A) (A) (A)
                 (A) (A) (A) (A) (A) (A) (A) (A) (A) (A) (A) (A)
                 (A) (A) (A) (A) (A) (A) (A) (A) (A) (A) (A) (A)
                 (A) (A) (A) (A) (A) (A) (A) (A) (A) (A) (A) (A)
                 (A) (A) (A) (A) (A) (A) (A) (A) (A) (A) (A) (A)
                 (A) (A) (A) (A) (A) (A) (A) (A) (A) (A) (A) (A)
                 (A) (A) (A) (A) (A) (A) (A) (A) (A) (A) (A) (A)
                 (A) (A) (A) (A) (A) (A) (A) (A) (A) (A) (A) (A)
                 (A) (A) (A) (A) (A) (A) (A) (A) (A) (A) (A) (A)
                 (A) (A) (A) (A) (A) (A) (A) (A) (A) (A) (A) (A)
                 (A) (A) (A) (A) (A) (A) (A) (A) (A) (A) (A) (A)
                 (A) (A) (A) (A) (A) (A)
 The electronic state is 1-A.
 Alpha  occ. eigenvalues --  -19.20737 -14.46069 -10.39329 -10.33536 -10.28402
 Alpha  occ. eigenvalues --  -10.28231 -10.28132 -10.28095 -10.28055 -10.25977
 Alpha  occ. eigenvalues --   -1.13857  -1.05612  -0.96535  -0.88310  -0.86763
 Alpha  occ. eigenvalues --   -0.84685  -0.74173  -0.73037  -0.69821  -0.65824
 Alpha  occ. eigenvalues --   -0.61603  -0.58347  -0.56535  -0.55357  -0.54443
 Alpha  occ. eigenvalues --   -0.53190  -0.51427  -0.49429  -0.47591  -0.46075
 Alpha  occ. eigenvalues --   -0.45686  -0.44370  -0.36961  -0.34367  -0.33438
 Alpha  occ. eigenvalues --   -0.32218
 Alpha virt. eigenvalues --    0.03445   0.04417   0.04526   0.04819   0.05218
 Alpha virt. eigenvalues --    0.06167   0.06710   0.06885   0.08566   0.09146
 Alpha virt. eigenvalues --    0.10144   0.10400   0.11453   0.12730   0.13369
 Alpha virt. eigenvalues --    0.13777   0.14736   0.15511   0.16107   0.16453
 Alpha virt. eigenvalues --    0.16783   0.17433   0.17762   0.17950   0.18469
 Alpha virt. eigenvalues --    0.18758   0.19274   0.19486   0.20058   0.20568
 Alpha virt. eigenvalues --    0.20950   0.21417   0.22429   0.23011   0.23835
 Alpha virt. eigenvalues --    0.24074   0.24591   0.25130   0.25797   0.26276
 Alpha virt. eigenvalues --    0.27577   0.28331   0.28687   0.28961   0.29560
 Alpha virt. eigenvalues --    0.30037   0.31226   0.31655   0.32853   0.34190
 Alpha virt. eigenvalues --    0.34493   0.35284   0.36384   0.37229   0.37980
 Alpha virt. eigenvalues --    0.38392   0.38780   0.39718   0.40259   0.41014
 Alpha virt. eigenvalues --    0.42187   0.43513   0.44283   0.44789   0.45334
 Alpha virt. eigenvalues --    0.46399   0.47799   0.49988   0.54082   0.55388
 Alpha virt. eigenvalues --    0.56986   0.58420   0.59319   0.62544   0.63165
 Alpha virt. eigenvalues --    0.64020   0.65145   0.65729   0.65955   0.66517
 Alpha virt. eigenvalues --    0.68566   0.69402   0.70469   0.72889   0.73584
 Alpha virt. eigenvalues --    0.74133   0.74757   0.76322   0.77595   0.78730
 Alpha virt. eigenvalues --    0.79556   0.80825   0.82243   0.83155   0.84269
 Alpha virt. eigenvalues --    0.86575   0.88323   0.89265   0.92393   0.93143
 Alpha virt. eigenvalues --    0.94167   0.94537   0.95146   0.96492   0.97320
 Alpha virt. eigenvalues --    0.98114   0.99614   1.00151   1.02025   1.05106
 Alpha virt. eigenvalues --    1.07460   1.09948   1.11421   1.13085   1.15416
 Alpha virt. eigenvalues --    1.16583   1.17034   1.18771   1.22735   1.24239
 Alpha virt. eigenvalues --    1.25673   1.28515   1.32033   1.35678   1.37721
 Alpha virt. eigenvalues --    1.42334   1.43294   1.47042   1.53691   1.55373
 Alpha virt. eigenvalues --    1.56303   1.61118   1.62086   1.62448   1.65863
 Alpha virt. eigenvalues --    1.66517   1.67407   1.68013   1.68464   1.69787
 Alpha virt. eigenvalues --    1.71333   1.71565   1.74851   1.76383   1.79122
 Alpha virt. eigenvalues --    1.81370   1.84593   1.86965   1.88882   1.90720
 Alpha virt. eigenvalues --    1.92762   1.93950   1.96942   1.97161   1.98336
 Alpha virt. eigenvalues --    2.01686   2.02359   2.04368   2.06628   2.07388
 Alpha virt. eigenvalues --    2.08810   2.10063   2.12211   2.13734   2.15389
 Alpha virt. eigenvalues --    2.21941   2.25132   2.27897   2.31250   2.35521
 Alpha virt. eigenvalues --    2.38240   2.42245   2.45957   2.49557   2.52375
 Alpha virt. eigenvalues --    2.53320   2.54973   2.59881   2.61415   2.63640
 Alpha virt. eigenvalues --    2.66132   2.67864   2.72617   2.74612   2.76303
 Alpha virt. eigenvalues --    2.80200   2.81609   2.83178   2.83403   2.84557
 Alpha virt. eigenvalues --    2.86723   2.89385   2.90835   2.92188   2.93631
 Alpha virt. eigenvalues --    2.94299   2.95234   2.97873   3.01154   3.01863
 Alpha virt. eigenvalues --    3.03212   3.04376   3.05250   3.12050   3.14301
 Alpha virt. eigenvalues --    3.20228   3.21448   3.22667   3.25397   3.29430
 Alpha virt. eigenvalues --    3.42299   3.44815   3.45777   3.48553   3.51528
 Alpha virt. eigenvalues --    3.62673   3.68314   3.71192   3.73848   3.90670
 Alpha virt. eigenvalues --    4.00230   4.06659   4.08848   4.13480   4.17626
 Alpha virt. eigenvalues --    4.30454   4.34286   4.38599   4.39318   4.44129
 Alpha virt. eigenvalues --    4.95599   5.16870   5.20160   5.20826   5.37941
 Alpha virt. eigenvalues --    5.90224  23.88597  23.98711  24.14969  24.22549
 Alpha virt. eigenvalues --   24.29918  24.32914  24.38295  24.42408  35.88272
 Alpha virt. eigenvalues --   50.16821
          Condensed to atoms (all electrons):
               1          2          3          4          5          6
     1  C    6.795542   0.159566  -0.066859  -0.307149  -0.121241  -0.061091
     2  C    0.159566   6.749356  -1.447953   0.306075   0.543349  -0.153321
     3  C   -0.066859  -1.447953   7.294914   0.382013  -0.078356  -0.039570
     4  C   -0.307149   0.306075   0.382013   5.325532  -0.023403   0.023844
     5  H   -0.121241   0.543349  -0.078356  -0.023403   0.477567  -0.006834
     6  N   -0.061091  -0.153321  -0.039570   0.023844  -0.006834   7.596007
     7  C   -0.315651   0.364463   0.139586  -0.176109   0.020107  -0.061462
     8  H   -0.101088  -0.063707   0.607376   0.036311  -0.003474  -0.008064
     9  C    0.108513  -0.243952  -0.454819   0.397456   0.022515   0.036745
    10  H    0.028535  -0.107219   0.046055   0.428862  -0.013747  -0.004007
    11  C   -0.205866   0.097138  -0.235221  -0.075713  -0.004289  -0.014556
    12  H   -0.026574   0.021898  -0.061980  -0.004142   0.000338   0.344428
    13  H    0.021451   0.023217  -0.086902  -0.009764   0.001267  -0.004778
    14  H    0.019592  -0.021005  -0.005548  -0.047195   0.000248   0.002331
    15  C    0.019654  -0.042672   0.030772  -0.019110  -0.003447  -0.438220
    16  O    0.092188  -0.104462   0.030831  -0.049982  -0.007717  -0.155900
    17  H    0.009125   0.008002  -0.015567  -0.001749  -0.000260   0.001692
    18  H   -0.006817  -0.002691   0.002156   0.000386  -0.000794   0.003196
    19  H    0.014490   0.008778  -0.000821   0.002396   0.001134   0.020882
               7          8          9         10         11         12
     1  C   -0.315651  -0.101088   0.108513   0.028535  -0.205866  -0.026574
     2  C    0.364463  -0.063707  -0.243952  -0.107219   0.097138   0.021898
     3  C    0.139586   0.607376  -0.454819   0.046055  -0.235221  -0.061980
     4  C   -0.176109   0.036311   0.397456   0.428862  -0.075713  -0.004142
     5  H    0.020107  -0.003474   0.022515  -0.013747  -0.004289   0.000338
     6  N   -0.061462  -0.008064   0.036745  -0.004007  -0.014556   0.344428
     7  C    5.437939  -0.098500   0.514649  -0.008540   0.002238  -0.011295
     8  H   -0.098500   0.510963  -0.015881   0.001985  -0.016577   0.000409
     9  C    0.514649  -0.015881   5.585988  -0.056449   0.029212   0.011370
    10  H   -0.008540   0.001985  -0.056449   0.486609  -0.000939   0.000026
    11  C    0.002238  -0.016577   0.029212  -0.000939   5.998422   0.060638
    12  H   -0.011295   0.000409   0.011370   0.000026   0.060638   0.363041
    13  H    0.426868  -0.013276  -0.042429  -0.000958   0.000209  -0.000084
    14  H   -0.060455  -0.000962   0.465545  -0.009071  -0.001478   0.000390
    15  C    0.041336  -0.007161  -0.007599  -0.000199  -0.129915  -0.017994
    16  O    0.017387  -0.004423  -0.000084  -0.000015   0.498290   0.007531
    17  H   -0.000276  -0.000264   0.000052   0.000009  -0.034868  -0.000411
    18  H   -0.000679  -0.000229   0.000039  -0.000002  -0.030285   0.001424
    19  H    0.000878   0.001472  -0.001150   0.000001  -0.096318  -0.008888
              13         14         15         16         17         18
     1  C    0.021451   0.019592   0.019654   0.092188   0.009125  -0.006817
     2  C    0.023217  -0.021005  -0.042672  -0.104462   0.008002  -0.002691
     3  C   -0.086902  -0.005548   0.030772   0.030831  -0.015567   0.002156
     4  C   -0.009764  -0.047195  -0.019110  -0.049982  -0.001749   0.000386
     5  H    0.001267   0.000248  -0.003447  -0.007717  -0.000260  -0.000794
     6  N   -0.004778   0.002331  -0.438220  -0.155900   0.001692   0.003196
     7  C    0.426868  -0.060455   0.041336   0.017387  -0.000276  -0.000679
     8  H   -0.013276  -0.000962  -0.007161  -0.004423  -0.000264  -0.000229
     9  C   -0.042429   0.465545  -0.007599  -0.000084   0.000052   0.000039
    10  H   -0.000958  -0.009071  -0.000199  -0.000015   0.000009  -0.000002
    11  C    0.000209  -0.001478  -0.129915   0.498290  -0.034868  -0.030285
    12  H   -0.000084   0.000390  -0.017994   0.007531  -0.000411   0.001424
    13  H    0.487339  -0.007708   0.000478   0.000314  -0.000031   0.000001
    14  H   -0.007708   0.489469  -0.000298  -0.000288  -0.000004  -0.000007
    15  C    0.000478  -0.000298   5.899723  -0.016503   0.407869   0.421050
    16  O    0.000314  -0.000288  -0.016503   8.053720  -0.008804  -0.006338
    17  H   -0.000031  -0.000004   0.407869  -0.008804   0.499920  -0.027032
    18  H    0.000001  -0.000007   0.421050  -0.006338  -0.027032   0.494171
    19  H    0.000041  -0.000024   0.401298   0.009540  -0.033404  -0.037132
              19
     1  C    0.014490
     2  C    0.008778
     3  C   -0.000821
     4  C    0.002396
     5  H    0.001134
     6  N    0.020882
     7  C    0.000878
     8  H    0.001472
     9  C   -0.001150
    10  H    0.000001
    11  C   -0.096318
    12  H   -0.008888
    13  H    0.000041
    14  H   -0.000024
    15  C    0.401298
    16  O    0.009540
    17  H   -0.033404
    18  H   -0.037132
    19  H    0.606846
 Mulliken charges:
               1
     1  C   -0.056321
     2  C   -0.094861
     3  C   -0.040107
     4  C   -0.188558
     5  H    0.197035
     6  N   -0.081320
     7  C   -0.232483
     8  H    0.175089
     9  C   -0.349722
    10  H    0.209062
    11  C    0.159879
    12  H    0.319878
    13  H    0.204745
    14  H    0.176467
    15  C   -0.539062
    16  O   -0.355285
    17  H    0.196001
    18  H    0.189583
    19  H    0.109980
 Sum of Mulliken charges =  -0.00000
 Mulliken charges with hydrogens summed into heavy atoms:
               1
     1  C   -0.056321
     2  C    0.102174
     3  C    0.134982
     4  C    0.020504
     6  N    0.238558
     7  C   -0.027739
     9  C   -0.173255
    11  C    0.159879
    15  C   -0.043499
    16  O   -0.355285
 Electronic spatial extent (au):  <R**2>=           1662.2931
 Charge=             -0.0000 electrons
 Dipole moment (field-independent basis, Debye):
    X=             -0.3501    Y=             -2.7828    Z=             -2.5576  Tot=              3.7958
 Quadrupole moment (field-independent basis, Debye-Ang):
   XX=            -49.7030   YY=            -55.5125   ZZ=            -62.1656
   XY=             -6.5675   XZ=             -6.7219   YZ=             -3.4661
 Traceless Quadrupole moment (field-independent basis, Debye-Ang):
   XX=              6.0907   YY=              0.2811   ZZ=             -6.3719
   XY=             -6.5675   XZ=             -6.7219   YZ=             -3.4661
 Octapole moment (field-independent basis, Debye-Ang**2):
  XXX=             15.8167  YYY=             -2.9122  ZZZ=             -2.1899  XYY=             -6.1842
  XXY=             -9.8508  XXZ=             -2.7556  XZZ=              7.2827  YZZ=             -4.5088
  YYZ=             -5.2012  XYZ=             -1.2503
 Hexadecapole moment (field-independent basis, Debye-Ang**3):
 XXXX=          -1552.4600 YYYY=           -330.7319 ZZZZ=           -146.9001 XXXY=            -28.4747
 XXXZ=            -42.1769 YYYX=             -9.3108 YYYZ=             -9.0080 ZZZX=             -5.5274
 ZZZY=              3.0373 XXYY=           -336.4922 XXZZ=           -329.6288 YYZZ=            -83.6173
 XXYZ=            -20.2835 YYXZ=            -11.5615 ZZXY=             -8.9566
 N-N= 4.908602386536D+02 E-N=-2.008169270423D+03  KE= 4.400188455370D+02
 No NMR shielding tensors so no spin-rotation constants.
 Leave Link  601 at Tue Nov 22 19:10:38 2022, MaxMem= 16106127360 cpu:               3.9 elap:               0.1
 (Enter /opt/ap/G16/B01/g16/l9999.exe)
 1\1\GINC-N34\SP\RwB97XD\6-311++G(d,p)\C8H9N1O1\ROOT\22-Nov-2022\0\\#P 
 wB97XD/6-311++G(d,p) scf=maxcycle=512\\_conf012.gjf nmol_natom 1_19\\0
 ,1\C\C,1,1.39447505\C,1,1.39873503,2,119.56697224\C,2,1.39066123,1,119
 .42697207,3,2.53915756,0\H,2,0.96213008,1,119.8046163,3,-177.79870417,
 0\N,1,1.41693372,2,123.72220125,4,-177.74604849,0\C,3,1.38667133,1,120
 .18759987,2,-2.5020857,0\H,3,0.95673174,1,118.82085988,2,177.96737168,
 0\C,4,1.38268572,2,121.03929493,1,-0.41221113,0\H,4,0.9858595,2,118.57
 91267,1,178.77373233,0\C,6,1.35500692,1,127.62132737,2,60.,0\H,6,0.896
 09466,1,115.10511997,2,-120.,0\H,7,0.98847198,3,119.08117704,1,-179.64
 585354,0\H,9,0.98451201,4,120.53755637,2,177.22743544,0\C,11,1.5027456
 1,6,115.46861532,1,175.89235465,0\O,11,1.23496495,6,123.15099888,1,-3.
 40672617,0\H,15,0.98719837,11,107.47091875,6,-116.36962839,0\H,15,0.99
 976021,11,109.69443261,6,128.85346087,0\H,15,0.97696155,11,114.3700887
 1,6,6.05302844,0\\Version=ES64L-G16RevB.01\State=1-A\HF=-440.1418969\R
 MSD=7.480e-09\Dipole=0.2834771,-1.2520514,-0.7630307\Quadrupole=2.7510
 088,-7.4000324,4.6490236,4.3218152,4.0297918,0.2553105\PG=C01 [X(C8H9N
 1O1)]\\@


 THERE IS SOMETHING FASCINATING ABOUT SCIENCE.
 ONE GETS SUCH WHOLESALE CONJECTURE OUT OF SUCH TRIFLING INVESTMENTS.

                                                       -- MARK TWAIN
 Job cpu time:       0 days  0 hours 11 minutes  8.3 seconds.
 Elapsed time:       0 days  0 hours  0 minutes 21.2 seconds.
 File lengths (MBytes):  RWF=     46 Int=      0 D2E=      0 Chk=      6 Scr=      1
 Normal termination of Gaussian 16 at Tue Nov 22 19:10:38 2022.
