 Entering Gaussian System, Link 0=g16
 Input=_conf026.gjf
 Output=_conf026.log
 Initial command:
 /opt/ap/G16/B01/g16/l1.exe "/tmp2/scr/Gau-8603.inp" -scrdir="/tmp2/scr/"
 Entering Link 1 = /opt/ap/G16/B01/g16/l1.exe PID=      8604.
  
 Copyright (c) 1988-2017, Gaussian, Inc.  All Rights Reserved.
  
 This is part of the Gaussian(R) 16 program.  It is based on
 the Gaussian(R) 09 system (copyright 2009, Gaussian, Inc.),
 the Gaussian(R) 03 system (copyright 2003, Gaussian, Inc.),
 the Gaussian(R) 98 system (copyright 1998, Gaussian, Inc.),
 the Gaussian(R) 94 system (copyright 1995, Gaussian, Inc.),
 the Gaussian 92(TM) system (copyright 1992, Gaussian, Inc.),
 the Gaussian 90(TM) system (copyright 1990, Gaussian, Inc.),
 the Gaussian 88(TM) system (copyright 1988, Gaussian, Inc.),
 the Gaussian 86(TM) system (copyright 1986, Carnegie Mellon
 University), and the Gaussian 82(TM) system (copyright 1983,
 Carnegie Mellon University). Gaussian is a federally registered
 trademark of Gaussian, Inc.
  
 This software contains proprietary and confidential information,
 including trade secrets, belonging to Gaussian, Inc.
  
 This software is provided under written license and may be
 used, copied, transmitted, or stored only in accord with that
 written license.
  
 The following legend is applicable only to US Government
 contracts under FAR:
  
                    RESTRICTED RIGHTS LEGEND
  
 Use, reproduction and disclosure by the US Government is
 subject to restrictions as set forth in subparagraphs (a)
 and (c) of the Commercial Computer Software - Restricted
 Rights clause in FAR 52.227-19.
  
 Gaussian, Inc.
 340 Quinnipiac St., Bldg. 40, Wallingford CT 06492
  
  
 ---------------------------------------------------------------
 Warning -- This program may not be used in any manner that
 competes with the business of Gaussian, Inc. or will provide
 assistance to any competitor of Gaussian, Inc.  The licensee
 of this program is prohibited from giving any competitor of
 Gaussian, Inc. access to this program.  By using this program,
 the user acknowledges that Gaussian, Inc. is engaged in the
 business of creating and licensing software in the field of
 computational chemistry and represents and warrants to the
 licensee that it is not a competitor of Gaussian, Inc. and that
 it will not use this program in any manner prohibited above.
 ---------------------------------------------------------------
  

 Cite this work as:
 Gaussian 16, Revision B.01,
 M. J. Frisch, G. W. Trucks, H. B. Schlegel, G. E. Scuseria, 
 M. A. Robb, J. R. Cheeseman, G. Scalmani, V. Barone, 
 G. A. Petersson, H. Nakatsuji, X. Li, M. Caricato, A. V. Marenich, 
 J. Bloino, B. G. Janesko, R. Gomperts, B. Mennucci, H. P. Hratchian, 
 J. V. Ortiz, A. F. Izmaylov, J. L. Sonnenberg, D. Williams-Young, 
 F. Ding, F. Lipparini, F. Egidi, J. Goings, B. Peng, A. Petrone, 
 T. Henderson, D. Ranasinghe, V. G. Zakrzewski, J. Gao, N. Rega, 
 G. Zheng, W. Liang, M. Hada, M. Ehara, K. Toyota, R. Fukuda, 
 J. Hasegawa, M. Ishida, T. Nakajima, Y. Honda, O. Kitao, H. Nakai, 
 T. Vreven, K. Throssell, J. A. Montgomery, Jr., J. E. Peralta, 
 F. Ogliaro, M. J. Bearpark, J. J. Heyd, E. N. Brothers, K. N. Kudin, 
 V. N. Staroverov, T. A. Keith, R. Kobayashi, J. Normand, 
 K. Raghavachari, A. P. Rendell, J. C. Burant, S. S. Iyengar, 
 J. Tomasi, M. Cossi, J. M. Millam, M. Klene, C. Adamo, R. Cammi, 
 J. W. Ochterski, R. L. Martin, K. Morokuma, O. Farkas, 
 J. B. Foresman, and D. J. Fox, Gaussian, Inc., Wallingford CT, 2016.
 
 ******************************************
 Gaussian 16:  ES64L-G16RevB.01 20-Dec-2017
                22-Nov-2022 
 ******************************************
 %nprocshared=32
 Will use up to   32 processors via shared memory.
 %mem=120GB
 %chk=_conf026.chk
 ----------------------------------------
 #P wB97XD/6-311++G(d,p) scf=maxcycle=512
 ----------------------------------------
 1/38=1,172=1/1;
 2/12=2,17=6,18=5,40=1/2;
 3/5=4,6=6,7=1111,11=2,25=1,30=1,74=-58/1,2,3;
 4//1;
 5/5=2,7=512,38=5/2;
 6/7=2,8=2,9=2,10=2,28=1/1;
 99/5=1,9=1/99;
 Leave Link    1 at Tue Nov 22 19:11:15 2022, MaxMem= 16106127360 cpu:               1.8 elap:               0.1
 (Enter /opt/ap/G16/B01/g16/l101.exe)
 ----------------------------
 _conf026.gjf nmol_natom 1_19
 ----------------------------
 Symbolic Z-matrix:
 Charge =  0 Multiplicity = 1
 C
 C                    1     1.39448 
 C                    1     1.39874  2     119.56697 
 C                    2     1.39066  1     119.42697  3     2.53916  0
 H                    2     0.96213  1     119.80462  3    -177.7987  0
 N                    1     1.41693  2     123.7222  4    -177.74605  0
 C                    3     1.38667  1     120.1876  2    -2.50209  0
 H                    3     0.95673  1     118.82086  2     177.96737  0
 C                    4     1.38269  2     121.03929  1    -0.41221  0
 H                    4     0.98586  2     118.57913  1     178.77373  0
 C                    6     1.35501  1     127.62133  2     130.     0
 H                    6     0.89609  1     115.10512  2    -50.      0
 H                    7     0.98847  3     119.08118  1    -179.64585  0
 H                    9     0.98451  4     120.53756  2     177.22744  0
 C                    11    1.50275  6     115.46862  1     175.89235  0
 O                    11    1.23496  6     123.151  1    -3.40673  0
 H                    15    0.9872   11    107.47092  6    -116.36963  0
 H                    15    0.99976  11    109.69443  6     128.85346  0
 H                    15    0.97696  11    114.37009  6     6.05303  0
 
 ITRead=  0  0  0  0  0  0  0  0  0  0  0  0  0  0  0  0  0  0  0
 MicOpt= -1 -1 -1 -1 -1 -1 -1 -1 -1 -1 -1 -1 -1 -1 -1 -1 -1 -1 -1
 NAtoms=     19 NQM=       19 NQMF=       0 NMMI=      0 NMMIF=      0
                NMic=       0 NMicF=      0.
                    Isotopes and Nuclear Properties:
 (Nuclear quadrupole moments (NQMom) in fm**2, nuclear magnetic moments (NMagM)
  in nuclear magnetons)

  Atom         1           2           3           4           5           6           7           8           9          10
 IAtWgt=          12          12          12          12           1          14          12           1          12           1
 AtmWgt=  12.0000000  12.0000000  12.0000000  12.0000000   1.0078250  14.0030740  12.0000000   1.0078250  12.0000000   1.0078250
 NucSpn=           0           0           0           0           1           2           0           1           0           1
 AtZEff=  -0.0000000  -0.0000000  -0.0000000  -0.0000000  -0.0000000  -0.0000000  -0.0000000  -0.0000000  -0.0000000  -0.0000000
 NQMom=    0.0000000   0.0000000   0.0000000   0.0000000   0.0000000   2.0440000   0.0000000   0.0000000   0.0000000   0.0000000
 NMagM=    0.0000000   0.0000000   0.0000000   0.0000000   2.7928460   0.4037610   0.0000000   2.7928460   0.0000000   2.7928460
 AtZNuc=   6.0000000   6.0000000   6.0000000   6.0000000   1.0000000   7.0000000   6.0000000   1.0000000   6.0000000   1.0000000

  Atom        11          12          13          14          15          16          17          18          19
 IAtWgt=          12           1           1           1          12          16           1           1           1
 AtmWgt=  12.0000000   1.0078250   1.0078250   1.0078250  12.0000000  15.9949146   1.0078250   1.0078250   1.0078250
 NucSpn=           0           1           1           1           0           0           1           1           1
 AtZEff=  -0.0000000  -0.0000000  -0.0000000  -0.0000000  -0.0000000  -0.0000000  -0.0000000  -0.0000000  -0.0000000
 NQMom=    0.0000000   0.0000000   0.0000000   0.0000000   0.0000000   0.0000000   0.0000000   0.0000000   0.0000000
 NMagM=    0.0000000   2.7928460   2.7928460   2.7928460   0.0000000   0.0000000   2.7928460   2.7928460   2.7928460
 AtZNuc=   6.0000000   1.0000000   1.0000000   1.0000000   6.0000000   8.0000000   1.0000000   1.0000000   1.0000000
 Leave Link  101 at Tue Nov 22 19:11:16 2022, MaxMem= 16106127360 cpu:               5.1 elap:               0.2
 (Enter /opt/ap/G16/B01/g16/l202.exe)
                          Input orientation:                          
 ---------------------------------------------------------------------
 Center     Atomic      Atomic             Coordinates (Angstroms)
 Number     Number       Type             X           Y           Z
 ---------------------------------------------------------------------
      1          6           0        0.000000    0.000000    0.000000
      2          6           0        0.000000    0.000000    1.394475
      3          6           0        1.216591    0.000000   -0.690193
      4          6           0        1.210053    0.053661    2.077726
      5          1           0       -0.834249   -0.032067    1.872696
      6          7           0       -1.178505   -0.005866   -0.786634
      7          6           0        2.413939    0.052326    0.007287
      8          1           0        1.204393   -0.029731   -1.646384
      9          6           0        2.412261    0.098442    1.396177
     10          1           0        1.194755    0.071528    3.063305
     11          6           0       -1.487573    0.814763   -1.819634
     12          1           0       -1.781193   -0.630474   -0.563884
     13          1           0        3.263999    0.056828   -0.497149
     14          1           0        3.262484    0.177260    1.886251
     15          6           0       -2.776437    0.505163   -2.527603
     16          8           0       -0.765563    1.750273   -2.178328
     17          1           0       -2.552039    0.255112   -3.455871
     18          1           0       -3.332551    1.333438   -2.592560
     19          1           0       -3.306102   -0.201576   -2.109957
 ---------------------------------------------------------------------
                    Distance matrix (angstroms):
                    1          2          3          4          5
     1  C    0.000000
     2  C    1.394475   0.000000
     3  C    1.398735   2.413697   0.000000
     4  C    2.405006   1.390661   2.768447   0.000000
     5  H    2.050363   0.962130   3.282586   2.056345   0.000000
     6  N    1.416934   2.479142   2.397044   3.730055   2.681648
     7  C    2.414517   2.784624   1.386671   2.395008   3.746678
     8  H    2.040105   3.270821   0.956732   3.725048   4.066939
     9  C    2.788908   2.414270   2.406711   1.382686   3.283889
    10  H    3.288829   2.053668   3.754243   0.985860   2.354812
    11  C    2.487525   3.634173   3.041706   4.800612   3.844120
    12  H    1.971829   2.721271   3.065968   4.048913   2.681737
    13  H    3.302132   3.772951   2.057273   3.293734   4.734944
    14  H    3.772687   3.304099   3.294718   2.065046   4.102100
    15  C    3.788479   4.831821   4.424426   6.107783   4.839768
    16  O    2.897353   4.051476   3.034293   4.989543   4.426313
    17  H    4.303607   5.486697   4.681520   6.694372   5.605970
    18  H    4.427790   5.364737   5.108009   6.639627   5.295718
    19  H    3.927195   4.822031   4.744588   6.164210   4.690449
                    6          7          8          9         10
     6  N    0.000000
     7  C    3.679585   0.000000
     8  H    2.533365   2.050454   0.000000
     9  C    4.203468   1.389657   3.276058   0.000000
    10  H    4.523316   3.290292   4.710788   2.064548   0.000000
    11  C    1.355007   4.375013   2.826635   5.105219   5.620532
    12  H    0.896095   4.288541   3.232092   4.685959   4.744004
    13  H    4.452366   0.988472   2.360129   2.076505   4.118108
    14  H    5.186544   2.065465   4.093666   0.984512   2.381625
    15  C    2.417750   5.794026   4.112137   6.517981   6.871439
    16  O    2.278455   4.215349   2.707786   5.060059   5.842580
    17  H    3.013226   6.057683   4.179253   6.943428   7.521425
    18  H    3.113683   6.436039   4.830874   7.101979   7.353756
    19  H    2.513196   6.104593   4.537510   6.714363   6.862575
                   11         12         13         14         15
    11  C    0.000000
    12  H    1.936964   0.000000
    13  H    4.990077   5.092229   0.000000
    14  H    6.058303   5.665181   2.386441   0.000000
    15  C    1.502746   2.477172   6.388319   7.487203   0.000000
    16  O    1.234965   3.050555   4.683106   5.934672   2.390796
    17  H    2.030657   3.121227   6.528373   7.896392   0.987198
    18  H    2.066491   3.221675   7.038107   8.055494   0.999760
    19  H    2.103397   2.213514   6.770092   7.698021   0.976962
                   16         17         18         19
    16  O    0.000000
    17  H    2.656900   0.000000
    18  H    2.633395   1.586598   0.000000
    19  H    3.204485   1.608931   1.609308   0.000000
 Stoichiometry    C8H9NO
 Framework group  C1[X(C8H9NO)]
 Deg. of freedom    51
 Full point group                 C1      NOp   1
 Largest Abelian subgroup         C1      NOp   1
 Largest concise Abelian subgroup C1      NOp   1
                         Standard orientation:                         
 ---------------------------------------------------------------------
 Center     Atomic      Atomic             Coordinates (Angstroms)
 Number     Number       Type             X           Y           Z
 ---------------------------------------------------------------------
      1          6           0        0.296759   -0.358164   -0.215674
      2          6           0        1.218794   -1.333409    0.162889
      3          6           0        0.736937    0.943625   -0.476535
      4          6           0        2.554741   -0.983680    0.326822
      5          1           0        0.924723   -2.237229    0.312306
      6          7           0       -1.091013   -0.602880   -0.363670
      7          6           0        2.073117    1.274530   -0.309254
      8          1           0        0.099887    1.597003   -0.763937
      9          6           0        2.983742    0.313128    0.112191
     10          1           0        3.192627   -1.678969    0.612467
     11          6           0       -2.117120    0.108426    0.162821
     12          1           0       -1.300091   -1.314339   -0.866758
     13          1           0        2.365380    2.200713   -0.493221
     14          1           0        3.923256    0.561734    0.269582
     15          6           0       -3.491523   -0.338503   -0.248902
     16          8           0       -1.953689    1.069910    0.920434
     17          1           0       -3.904795    0.401762   -0.754644
     18          1           0       -4.060683   -0.468705    0.562655
     19          1           0       -3.506379   -1.156813   -0.782383
 ---------------------------------------------------------------------
 Rotational constants (GHZ):           3.7167205           0.7840903           0.6939675
 Leave Link  202 at Tue Nov 22 19:11:16 2022, MaxMem= 16106127360 cpu:               0.3 elap:               0.0
 (Enter /opt/ap/G16/B01/g16/l301.exe)
 Standard basis: 6-311++G(d,p) (5D, 7F)
 Ernie: Thresh=  0.10000D-02 Tol=  0.10000D-05 Strict=F.
 There are   293 symmetry adapted cartesian basis functions of A   symmetry.
 There are   283 symmetry adapted basis functions of A   symmetry.
   283 basis functions,   441 primitive gaussians,   293 cartesian basis functions
    36 alpha electrons       36 beta electrons
       nuclear repulsion energy       492.1633987737 Hartrees.
 IExCor= 4639 DFT=T Ex+Corr=wB97XD ExCW=0 ScaHFX=  1.000000
 ScaDFX=  1.000000  1.000000  1.000000  1.000000 ScalE2=  1.000000  1.000000
 IRadAn=      5 IRanWt=     -1 IRanGd=            0 ICorTp=0 IEmpDi=121
 HFx  wShort=  0.000000 wLong=  0.200000 cFull=  0.222036 cShort=  0.000000 cLong=  0.777964
 DFx  wShort=  0.000000 wLong=  0.200000 cFull=  0.000000 cShort=  0.000000 cLong=  1.000000
 NAtoms=   19 NActive=   19 NUniq=   19 SFac= 1.00D+00 NAtFMM=   60 NAOKFM=F Big=F
 Integral buffers will be    131072 words long.
 Raffenetti 2 integral format.
 Two-electron integral symmetry is turned on.
 R6Disp:  Grimme-D2 Dispersion energy=       -0.0092006537 Hartrees.
 Nuclear repulsion after empirical dispersion term =      492.1541981200 Hartrees.
 Leave Link  301 at Tue Nov 22 19:11:16 2022, MaxMem= 16106127360 cpu:               1.3 elap:               0.0
 (Enter /opt/ap/G16/B01/g16/l302.exe)
 NPDir=0 NMtPBC=     1 NCelOv=     1 NCel=       1 NClECP=     1 NCelD=      1
         NCelK=      1 NCelE2=     1 NClLst=     1 CellRange=     0.0.
 One-electron integrals computed using PRISM.
 One-electron integral symmetry used in STVInt
 NBasis=   283 RedAO= T EigKep=  3.12D-06  NBF=   283
 NBsUse=   282 1.00D-06 EigRej=  8.78D-07 NBFU=   282
 Precomputing XC quadrature grid using
 IXCGrd= 4 IRadAn=           5 IRanWt=          -1 IRanGd=           0 AccXCQ= 0.00D+00.
 Generated NRdTot=       0 NPtTot=           0 NUsed=           0 NTot=          32
 NSgBfM=   293   293   293   293   293 MxSgAt=    19 MxSgA2=    19.
 Leave Link  302 at Tue Nov 22 19:11:16 2022, MaxMem= 16106127360 cpu:               6.2 elap:               0.2
 (Enter /opt/ap/G16/B01/g16/l303.exe)
 DipDrv:  MaxL=1.
 Leave Link  303 at Tue Nov 22 19:11:16 2022, MaxMem= 16106127360 cpu:               1.4 elap:               0.0
 (Enter /opt/ap/G16/B01/g16/l401.exe)
 ExpMin= 3.60D-02 ExpMax= 8.59D+03 ExpMxC= 1.30D+03 IAcc=3 IRadAn=         5 AccDes= 0.00D+00
 Harris functional with IExCor= 4639 and IRadAn=       5 diagonalized for initial guess.
 HarFok:  IExCor= 4639 AccDes= 0.00D+00 IRadAn=         5 IDoV= 1 UseB2=F ITyADJ=14
 ICtDFT=  3500011 ScaDFX=  1.000000  1.000000  1.000000  1.000000
 FoFCou: FMM=F IPFlag=           0 FMFlag=      100000 FMFlg1=           0
         NFxFlg=           0 DoJE=T BraDBF=F KetDBF=T FulRan=T
         wScrn=  0.000000 ICntrl=       500 IOpCl=  0 I1Cent=   200000004 NGrid=           0
         NMat0=    1 NMatS0=      1 NMatT0=    0 NMatD0=    1 NMtDS0=    0 NMtDT0=    0
 Petite list used in FoFCou.
 Harris En= -420.983781904918    
 JPrj=0 DoOrth=F DoCkMO=F.
 Leave Link  401 at Tue Nov 22 19:11:16 2022, MaxMem= 16106127360 cpu:              15.1 elap:               0.5
 (Enter /opt/ap/G16/B01/g16/l502.exe)
 Integral symmetry usage will be decided dynamically.
 Closed shell SCF:
 Using DIIS extrapolation, IDIIS=  1040.
 NGot= 16106127360 LenX= 16105943385 LenY= 16105857095
 Requested convergence on RMS density matrix=1.00D-08 within 512 cycles.
 Requested convergence on MAX density matrix=1.00D-06.
 Requested convergence on             energy=1.00D-06.
 No special actions if energy rises.
 Fock matrices will be formed incrementally for  20 cycles.

 Cycle   1  Pass 1  IDiag  1:
 FoFJK:  IHMeth= 1 ICntrl=       0 DoSepK=T KAlg= 0 I1Cent=           0 FoldK=F
 IRaf=         1 NMat=       1 IRICut=       1 DoRegI=T DoRafI=F ISym2E= 0 IDoP0=0 IntGTp=1.
 FoFCou: FMM=F IPFlag=           0 FMFlag=      100000 FMFlg1=           0
         NFxFlg=           0 DoJE=T BraDBF=F KetDBF=F FulRan=T
         wScrn=  0.000000 ICntrl=       500 IOpCl=  0 I1Cent=           0 NGrid=           0
         NMat0=    1 NMatS0=      1 NMatT0=    0 NMatD0=    1 NMtDS0=    0 NMtDT0=    0
 Symmetry not used in FoFCou.
 E= -439.992528151371    
 DIIS: error= 6.06D-02 at cycle   1 NSaved=   1.
 NSaved= 1 IEnMin= 1 EnMin= -439.992528151371     IErMin= 1 ErrMin= 6.06D-02
 ErrMax= 6.06D-02  0.00D+00 EMaxC= 1.00D-01 BMatC= 9.39D-01 BMatP= 9.39D-01
 IDIUse=3 WtCom= 3.94D-01 WtEn= 6.06D-01
 Coeff-Com:  0.100D+01
 Coeff-En:   0.100D+01
 Coeff:      0.100D+01
 Gap=     0.457 Goal=   None    Shift=    0.000
 GapD=    0.457 DampG=2.000 DampE=0.500 DampFc=1.0000 IDamp=-1.
 RMSDP=7.95D-03 MaxDP=6.60D-01              OVMax= 1.36D-01

 Cycle   2  Pass 1  IDiag  1:
 RMSU=  5.00D-03    CP:  7.50D-01
 E= -440.073179300854     Delta-E=       -0.080651149482 Rises=F Damp=F
 DIIS: error= 1.37D-02 at cycle   2 NSaved=   2.
 NSaved= 2 IEnMin= 2 EnMin= -440.073179300854     IErMin= 2 ErrMin= 1.37D-02
 ErrMax= 1.37D-02  0.00D+00 EMaxC= 1.00D-01 BMatC= 7.86D-02 BMatP= 9.39D-01
 IDIUse=3 WtCom= 8.63D-01 WtEn= 1.37D-01
 Coeff-Com:  0.153D+00 0.847D+00
 Coeff-En:   0.210D+00 0.790D+00
 Coeff:      0.160D+00 0.840D+00
 Gap=     0.444 Goal=   None    Shift=    0.000
 RMSDP=4.89D-03 MaxDP=3.55D-01 DE=-8.07D-02 OVMax= 1.07D-01

 Cycle   3  Pass 1  IDiag  1:
 RMSU=  3.76D-03    CP:  6.27D-01  8.56D-01
 E= -440.105237457981     Delta-E=       -0.032058157127 Rises=F Damp=F
 DIIS: error= 1.05D-02 at cycle   3 NSaved=   3.
 NSaved= 3 IEnMin= 3 EnMin= -440.105237457981     IErMin= 3 ErrMin= 1.05D-02
 ErrMax= 1.05D-02  0.00D+00 EMaxC= 1.00D-01 BMatC= 4.03D-02 BMatP= 7.86D-02
 IDIUse=3 WtCom= 8.95D-01 WtEn= 1.05D-01
 Coeff-Com:  0.265D-01 0.421D+00 0.552D+00
 Coeff-En:   0.000D+00 0.345D+00 0.655D+00
 Coeff:      0.237D-01 0.413D+00 0.563D+00
 Gap=     0.375 Goal=   None    Shift=    0.000
 RMSDP=1.76D-03 MaxDP=1.13D-01 DE=-3.21D-02 OVMax= 6.66D-02

 Cycle   4  Pass 1  IDiag  1:
 RMSU=  6.64D-04    CP:  6.58D-01  9.47D-01  6.39D-01
 E= -440.140905147123     Delta-E=       -0.035667689142 Rises=F Damp=F
 DIIS: error= 2.49D-03 at cycle   4 NSaved=   4.
 NSaved= 4 IEnMin= 4 EnMin= -440.140905147123     IErMin= 4 ErrMin= 2.49D-03
 ErrMax= 2.49D-03  0.00D+00 EMaxC= 1.00D-01 BMatC= 1.64D-03 BMatP= 4.03D-02
 IDIUse=3 WtCom= 9.75D-01 WtEn= 2.49D-02
 Coeff-Com:  0.966D-02 0.194D+00 0.295D+00 0.501D+00
 Coeff-En:   0.000D+00 0.000D+00 0.000D+00 0.100D+01
 Coeff:      0.942D-02 0.189D+00 0.288D+00 0.514D+00
 Gap=     0.350 Goal=   None    Shift=    0.000
 RMSDP=3.10D-04 MaxDP=1.89D-02 DE=-3.57D-02 OVMax= 1.02D-02

 Cycle   5  Pass 1  IDiag  1:
 RMSU=  2.07D-04    CP:  6.52D-01  9.48D-01  6.60D-01  7.79D-01
 E= -440.142173488705     Delta-E=       -0.001268341582 Rises=F Damp=F
 DIIS: error= 4.69D-04 at cycle   5 NSaved=   5.
 NSaved= 5 IEnMin= 5 EnMin= -440.142173488705     IErMin= 5 ErrMin= 4.69D-04
 ErrMax= 4.69D-04  0.00D+00 EMaxC= 1.00D-01 BMatC= 6.27D-05 BMatP= 1.64D-03
 IDIUse=3 WtCom= 9.95D-01 WtEn= 4.69D-03
 Coeff-Com:  0.112D-02 0.249D-01 0.485D-01 0.180D+00 0.746D+00
 Coeff-En:   0.000D+00 0.000D+00 0.000D+00 0.000D+00 0.100D+01
 Coeff:      0.111D-02 0.248D-01 0.483D-01 0.179D+00 0.747D+00
 Gap=     0.350 Goal=   None    Shift=    0.000
 RMSDP=1.31D-04 MaxDP=4.64D-03 DE=-1.27D-03 OVMax= 2.65D-03

 Cycle   6  Pass 1  IDiag  1:
 RMSU=  9.13D-05    CP:  6.50D-01  9.53D-01  6.78D-01  8.31D-01  9.95D-01
 E= -440.142215555922     Delta-E=       -0.000042067218 Rises=F Damp=F
 DIIS: error= 2.94D-04 at cycle   6 NSaved=   6.
 NSaved= 6 IEnMin= 6 EnMin= -440.142215555922     IErMin= 6 ErrMin= 2.94D-04
 ErrMax= 2.94D-04  0.00D+00 EMaxC= 1.00D-01 BMatC= 1.80D-05 BMatP= 6.27D-05
 IDIUse=3 WtCom= 9.97D-01 WtEn= 2.94D-03
 Coeff-Com: -0.108D-02-0.191D-01-0.215D-01 0.103D-01 0.401D+00 0.630D+00
 Coeff-En:   0.000D+00 0.000D+00 0.000D+00 0.000D+00 0.461D-01 0.954D+00
 Coeff:     -0.108D-02-0.190D-01-0.215D-01 0.103D-01 0.400D+00 0.631D+00
 Gap=     0.350 Goal=   None    Shift=    0.000
 RMSDP=4.41D-05 MaxDP=1.54D-03 DE=-4.21D-05 OVMax= 1.35D-03

 Cycle   7  Pass 1  IDiag  1:
 RMSU=  2.34D-05    CP:  6.49D-01  9.54D-01  6.80D-01  8.55D-01  1.10D+00
                    CP:  1.06D+00
 E= -440.142231063128     Delta-E=       -0.000015507206 Rises=F Damp=F
 DIIS: error= 9.09D-05 at cycle   7 NSaved=   7.
 NSaved= 7 IEnMin= 7 EnMin= -440.142231063128     IErMin= 7 ErrMin= 9.09D-05
 ErrMax= 9.09D-05  0.00D+00 EMaxC= 1.00D-01 BMatC= 4.58D-07 BMatP= 1.80D-05
 IDIUse=1 WtCom= 1.00D+00 WtEn= 0.00D+00
 Coeff-Com: -0.299D-03-0.570D-02-0.677D-02-0.120D-01 0.227D-01 0.109D+00
 Coeff-Com:  0.893D+00
 Coeff:     -0.299D-03-0.570D-02-0.677D-02-0.120D-01 0.227D-01 0.109D+00
 Coeff:      0.893D+00
 Gap=     0.350 Goal=   None    Shift=    0.000
 RMSDP=1.57D-05 MaxDP=4.20D-04 DE=-1.55D-05 OVMax= 4.57D-04

 Cycle   8  Pass 1  IDiag  1:
 RMSU=  7.74D-06    CP:  6.49D-01  9.53D-01  6.82D-01  8.62D-01  1.14D+00
                    CP:  1.15D+00  1.11D+00
 E= -440.142232035245     Delta-E=       -0.000000972117 Rises=F Damp=F
 DIIS: error= 1.38D-05 at cycle   8 NSaved=   8.
 NSaved= 8 IEnMin= 8 EnMin= -440.142232035245     IErMin= 8 ErrMin= 1.38D-05
 ErrMax= 1.38D-05  0.00D+00 EMaxC= 1.00D-01 BMatC= 9.22D-08 BMatP= 4.58D-07
 IDIUse=1 WtCom= 1.00D+00 WtEn= 0.00D+00
 Coeff-Com:  0.657D-04 0.850D-03 0.108D-02-0.643D-02-0.569D-01-0.682D-01
 Coeff-Com:  0.278D+00 0.852D+00
 Coeff:      0.657D-04 0.850D-03 0.108D-02-0.643D-02-0.569D-01-0.682D-01
 Coeff:      0.278D+00 0.852D+00
 Gap=     0.350 Goal=   None    Shift=    0.000
 RMSDP=7.36D-06 MaxDP=2.58D-04 DE=-9.72D-07 OVMax= 3.00D-04

 Cycle   9  Pass 1  IDiag  1:
 RMSU=  2.88D-06    CP:  6.49D-01  9.53D-01  6.83D-01  8.63D-01  1.15D+00
                    CP:  1.19D+00  1.22D+00  1.10D+00
 E= -440.142232216617     Delta-E=       -0.000000181372 Rises=F Damp=F
 DIIS: error= 1.44D-05 at cycle   9 NSaved=   9.
 NSaved= 9 IEnMin= 9 EnMin= -440.142232216617     IErMin= 8 ErrMin= 1.38D-05
 ErrMax= 1.44D-05  0.00D+00 EMaxC= 1.00D-01 BMatC= 8.48D-09 BMatP= 9.22D-08
 IDIUse=1 WtCom= 1.00D+00 WtEn= 0.00D+00
 Coeff-Com:  0.502D-04 0.864D-03 0.115D-02-0.551D-03-0.183D-01-0.304D-01
 Coeff-Com: -0.176D-02 0.246D+00 0.803D+00
 Coeff:      0.502D-04 0.864D-03 0.115D-02-0.551D-03-0.183D-01-0.304D-01
 Coeff:     -0.176D-02 0.246D+00 0.803D+00
 Gap=     0.350 Goal=   None    Shift=    0.000
 RMSDP=2.21D-06 MaxDP=1.58D-04 DE=-1.81D-07 OVMax= 7.14D-05

 Cycle  10  Pass 1  IDiag  1:
 RMSU=  9.89D-07    CP:  6.49D-01  9.53D-01  6.83D-01  8.62D-01  1.15D+00
                    CP:  1.19D+00  1.24D+00  1.11D+00  1.33D+00
 E= -440.142232234149     Delta-E=       -0.000000017532 Rises=F Damp=F
 DIIS: error= 1.90D-06 at cycle  10 NSaved=  10.
 NSaved=10 IEnMin=10 EnMin= -440.142232234149     IErMin=10 ErrMin= 1.90D-06
 ErrMax= 1.90D-06  0.00D+00 EMaxC= 1.00D-01 BMatC= 1.32D-09 BMatP= 8.48D-09
 IDIUse=1 WtCom= 1.00D+00 WtEn= 0.00D+00
 Coeff-Com:  0.399D-05 0.125D-03 0.191D-03 0.808D-03 0.362D-02 0.170D-02
 Coeff-Com: -0.402D-01-0.766D-01 0.219D+00 0.892D+00
 Coeff:      0.399D-05 0.125D-03 0.191D-03 0.808D-03 0.362D-02 0.170D-02
 Coeff:     -0.402D-01-0.766D-01 0.219D+00 0.892D+00
 Gap=     0.350 Goal=   None    Shift=    0.000
 RMSDP=7.82D-07 MaxDP=4.95D-05 DE=-1.75D-08 OVMax= 4.08D-05

 Cycle  11  Pass 1  IDiag  1:
 RMSU=  3.51D-07    CP:  6.49D-01  9.53D-01  6.83D-01  8.62D-01  1.15D+00
                    CP:  1.19D+00  1.24D+00  1.12D+00  1.51D+00  1.18D+00
 E= -440.142232237332     Delta-E=       -0.000000003183 Rises=F Damp=F
 DIIS: error= 1.20D-06 at cycle  11 NSaved=  11.
 NSaved=11 IEnMin=11 EnMin= -440.142232237332     IErMin=11 ErrMin= 1.20D-06
 ErrMax= 1.20D-06  0.00D+00 EMaxC= 1.00D-01 BMatC= 1.26D-10 BMatP= 1.32D-09
 IDIUse=1 WtCom= 1.00D+00 WtEn= 0.00D+00
 Coeff-Com: -0.421D-05-0.657D-04-0.761D-04 0.289D-03 0.302D-02 0.383D-02
 Coeff-Com: -0.872D-02-0.496D-01-0.437D-01 0.197D+00 0.898D+00
 Coeff:     -0.421D-05-0.657D-04-0.761D-04 0.289D-03 0.302D-02 0.383D-02
 Coeff:     -0.872D-02-0.496D-01-0.437D-01 0.197D+00 0.898D+00
 Gap=     0.350 Goal=   None    Shift=    0.000
 RMSDP=2.70D-07 MaxDP=1.83D-05 DE=-3.18D-09 OVMax= 1.11D-05

 Cycle  12  Pass 1  IDiag  1:
 RMSU=  1.04D-07    CP:  6.49D-01  9.53D-01  6.83D-01  8.62D-01  1.15D+00
                    CP:  1.19D+00  1.24D+00  1.12D+00  1.55D+00  1.28D+00
                    CP:  1.29D+00
 E= -440.142232237678     Delta-E=       -0.000000000345 Rises=F Damp=F
 DIIS: error= 1.78D-07 at cycle  12 NSaved=  12.
 NSaved=12 IEnMin=12 EnMin= -440.142232237678     IErMin=12 ErrMin= 1.78D-07
 ErrMax= 1.78D-07  0.00D+00 EMaxC= 1.00D-01 BMatC= 1.27D-11 BMatP= 1.26D-10
 IDIUse=1 WtCom= 1.00D+00 WtEn= 0.00D+00
 Coeff-Com: -0.901D-06-0.219D-04-0.311D-04-0.410D-04-0.193D-03 0.178D-03
 Coeff-Com:  0.402D-02 0.388D-02-0.269D-01-0.738D-01 0.106D+00 0.987D+00
 Coeff:     -0.901D-06-0.219D-04-0.311D-04-0.410D-04-0.193D-03 0.178D-03
 Coeff:      0.402D-02 0.388D-02-0.269D-01-0.738D-01 0.106D+00 0.987D+00
 Gap=     0.350 Goal=   None    Shift=    0.000
 RMSDP=9.61D-08 MaxDP=3.66D-06 DE=-3.45D-10 OVMax= 4.22D-06

 Cycle  13  Pass 1  IDiag  1:
 RMSU=  3.74D-08    CP:  6.49D-01  9.53D-01  6.83D-01  8.62D-01  1.15D+00
                    CP:  1.19D+00  1.24D+00  1.11D+00  1.56D+00  1.30D+00
                    CP:  1.41D+00  1.32D+00
 E= -440.142232237722     Delta-E=       -0.000000000044 Rises=F Damp=F
 DIIS: error= 8.34D-08 at cycle  13 NSaved=  13.
 NSaved=13 IEnMin=13 EnMin= -440.142232237722     IErMin=13 ErrMin= 8.34D-08
 ErrMax= 8.34D-08  0.00D+00 EMaxC= 1.00D-01 BMatC= 2.10D-12 BMatP= 1.27D-11
 IDIUse=1 WtCom= 1.00D+00 WtEn= 0.00D+00
 Coeff-Com:  0.153D-06 0.850D-06-0.988D-06-0.377D-04-0.398D-03-0.356D-03
 Coeff-Com:  0.202D-02 0.648D-02-0.327D-02-0.434D-01-0.800D-01 0.262D+00
 Coeff-Com:  0.857D+00
 Coeff:      0.153D-06 0.850D-06-0.988D-06-0.377D-04-0.398D-03-0.356D-03
 Coeff:      0.202D-02 0.648D-02-0.327D-02-0.434D-01-0.800D-01 0.262D+00
 Coeff:      0.857D+00
 Gap=     0.350 Goal=   None    Shift=    0.000
 RMSDP=2.97D-08 MaxDP=1.02D-06 DE=-4.41D-11 OVMax= 1.58D-06

 Cycle  14  Pass 1  IDiag  1:
 RMSU=  1.49D-08    CP:  6.49D-01  9.53D-01  6.83D-01  8.62D-01  1.15D+00
                    CP:  1.19D+00  1.24D+00  1.11D+00  1.55D+00  1.30D+00
                    CP:  1.45D+00  1.39D+00  1.25D+00
 E= -440.142232237721     Delta-E=        0.000000000001 Rises=F Damp=F
 DIIS: error= 3.60D-08 at cycle  14 NSaved=  14.
 NSaved=14 IEnMin=13 EnMin= -440.142232237722     IErMin=14 ErrMin= 3.60D-08
 ErrMax= 3.60D-08  0.00D+00 EMaxC= 1.00D-01 BMatC= 2.33D-13 BMatP= 2.10D-12
 IDIUse=1 WtCom= 1.00D+00 WtEn= 0.00D+00
 Coeff-Com:  0.113D-06 0.223D-05 0.257D-05-0.283D-05-0.567D-04-0.781D-04
 Coeff-Com: -0.640D-04 0.812D-03 0.232D-02 0.902D-03-0.291D-01-0.656D-01
 Coeff-Com:  0.199D+00 0.891D+00
 Coeff:      0.113D-06 0.223D-05 0.257D-05-0.283D-05-0.567D-04-0.781D-04
 Coeff:     -0.640D-04 0.812D-03 0.232D-02 0.902D-03-0.291D-01-0.656D-01
 Coeff:      0.199D+00 0.891D+00
 Gap=     0.350 Goal=   None    Shift=    0.000
 RMSDP=1.29D-08 MaxDP=9.67D-07 DE= 9.09D-13 OVMax= 5.54D-07

 Cycle  15  Pass 1  IDiag  1:
 RMSU=  5.37D-09    CP:  6.49D-01  9.53D-01  6.83D-01  8.62D-01  1.15D+00
                    CP:  1.19D+00  1.24D+00  1.11D+00  1.55D+00  1.30D+00
                    CP:  1.45D+00  1.42D+00  1.36D+00  1.26D+00
 E= -440.142232237730     Delta-E=       -0.000000000009 Rises=F Damp=F
 DIIS: error= 1.60D-08 at cycle  15 NSaved=  15.
 NSaved=15 IEnMin=15 EnMin= -440.142232237730     IErMin=15 ErrMin= 1.60D-08
 ErrMax= 1.60D-08  0.00D+00 EMaxC= 1.00D-01 BMatC= 2.92D-14 BMatP= 2.33D-13
 IDIUse=1 WtCom= 1.00D+00 WtEn= 0.00D+00
 Coeff-Com: -0.132D-09 0.345D-06 0.625D-06 0.484D-05 0.425D-04 0.356D-04
 Coeff-Com: -0.287D-03-0.689D-03 0.874D-03 0.604D-02 0.565D-02-0.500D-01
 Coeff-Com: -0.737D-01 0.144D+00 0.968D+00
 Coeff:     -0.132D-09 0.345D-06 0.625D-06 0.484D-05 0.425D-04 0.356D-04
 Coeff:     -0.287D-03-0.689D-03 0.874D-03 0.604D-02 0.565D-02-0.500D-01
 Coeff:     -0.737D-01 0.144D+00 0.968D+00
 Gap=     0.350 Goal=   None    Shift=    0.000
 RMSDP=5.60D-09 MaxDP=3.63D-07 DE=-8.98D-12 OVMax= 2.67D-07

 SCF Done:  E(RwB97XD) =  -440.142232238     A.U. after   15 cycles
            NFock= 15  Conv=0.56D-08     -V/T= 2.0003
 KE= 4.400180122248D+02 PE=-2.010758195543D+03 EE= 6.384437529605D+02
 Leave Link  502 at Tue Nov 22 19:11:35 2022, MaxMem= 16106127360 cpu:             584.6 elap:              18.3
 (Enter /opt/ap/G16/B01/g16/l601.exe)
 Copying SCF densities to generalized density rwf, IOpCl= 0 IROHF=0.

 **********************************************************************

            Population analysis using the SCF Density.

 **********************************************************************

 Orbital symmetries:
       Occupied  (A) (A) (A) (A) (A) (A) (A) (A) (A) (A) (A) (A)
                 (A) (A) (A) (A) (A) (A) (A) (A) (A) (A) (A) (A)
                 (A) (A) (A) (A) (A) (A) (A) (A) (A) (A) (A) (A)
       Virtual   (A) (A) (A) (A) (A) (A) (A) (A) (A) (A) (A) (A)
                 (A) (A) (A) (A) (A) (A) (A) (A) (A) (A) (A) (A)
                 (A) (A) (A) (A) (A) (A) (A) (A) (A) (A) (A) (A)
                 (A) (A) (A) (A) (A) (A) (A) (A) (A) (A) (A) (A)
                 (A) (A) (A) (A) (A) (A) (A) (A) (A) (A) (A) (A)
                 (A) (A) (A) (A) (A) (A) (A) (A) (A) (A) (A) (A)
                 (A) (A) (A) (A) (A) (A) (A) (A) (A) (A) (A) (A)
                 (A) (A) (A) (A) (A) (A) (A) (A) (A) (A) (A) (A)
                 (A) (A) (A) (A) (A) (A) (A) (A) (A) (A) (A) (A)
                 (A) (A) (A) (A) (A) (A) (A) (A) (A) (A) (A) (A)
                 (A) (A) (A) (A) (A) (A) (A) (A) (A) (A) (A) (A)
                 (A) (A) (A) (A) (A) (A) (A) (A) (A) (A) (A) (A)
                 (A) (A) (A) (A) (A) (A) (A) (A) (A) (A) (A) (A)
                 (A) (A) (A) (A) (A) (A) (A) (A) (A) (A) (A) (A)
                 (A) (A) (A) (A) (A) (A) (A) (A) (A) (A) (A) (A)
                 (A) (A) (A) (A) (A) (A) (A) (A) (A) (A) (A) (A)
                 (A) (A) (A) (A) (A) (A) (A) (A) (A) (A) (A) (A)
                 (A) (A) (A) (A) (A) (A) (A) (A) (A) (A) (A) (A)
                 (A) (A) (A) (A) (A) (A) (A) (A) (A) (A) (A) (A)
                 (A) (A) (A) (A) (A) (A) (A) (A) (A) (A) (A) (A)
                 (A) (A) (A) (A) (A) (A)
 The electronic state is 1-A.
 Alpha  occ. eigenvalues --  -19.20942 -14.46311 -10.39545 -10.33541 -10.28387
 Alpha  occ. eigenvalues --  -10.28267 -10.28016 -10.27821 -10.27527 -10.26112
 Alpha  occ. eigenvalues --   -1.14100  -1.05739  -0.96423  -0.88370  -0.86622
 Alpha  occ. eigenvalues --   -0.84652  -0.74105  -0.73246  -0.69698  -0.65756
 Alpha  occ. eigenvalues --   -0.61380  -0.58503  -0.56551  -0.55236  -0.54327
 Alpha  occ. eigenvalues --   -0.53009  -0.51557  -0.49572  -0.47947  -0.45734
 Alpha  occ. eigenvalues --   -0.45566  -0.44460  -0.37669  -0.34561  -0.33291
 Alpha  occ. eigenvalues --   -0.31587
 Alpha virt. eigenvalues --    0.03427   0.04388   0.04560   0.04970   0.05239
 Alpha virt. eigenvalues --    0.06214   0.06734   0.07112   0.08645   0.09126
 Alpha virt. eigenvalues --    0.10334   0.10493   0.11578   0.12586   0.13361
 Alpha virt. eigenvalues --    0.13892   0.14685   0.15529   0.15956   0.16435
 Alpha virt. eigenvalues --    0.16829   0.17380   0.17816   0.18195   0.18539
 Alpha virt. eigenvalues --    0.18971   0.19313   0.19899   0.20240   0.20451
 Alpha virt. eigenvalues --    0.20782   0.21498   0.22727   0.23036   0.23874
 Alpha virt. eigenvalues --    0.24124   0.24968   0.25589   0.25861   0.26649
 Alpha virt. eigenvalues --    0.27582   0.28056   0.28516   0.29322   0.29644
 Alpha virt. eigenvalues --    0.30137   0.31232   0.31628   0.32332   0.33908
 Alpha virt. eigenvalues --    0.34498   0.34661   0.36279   0.37195   0.37436
 Alpha virt. eigenvalues --    0.38388   0.38819   0.39900   0.40119   0.40701
 Alpha virt. eigenvalues --    0.42530   0.43791   0.44120   0.44510   0.45925
 Alpha virt. eigenvalues --    0.46401   0.47243   0.50254   0.53900   0.55485
 Alpha virt. eigenvalues --    0.57523   0.57948   0.59149   0.62825   0.63180
 Alpha virt. eigenvalues --    0.64234   0.65462   0.65881   0.66068   0.66499
 Alpha virt. eigenvalues --    0.68805   0.69202   0.70487   0.72733   0.73947
 Alpha virt. eigenvalues --    0.74539   0.75433   0.76497   0.76761   0.78906
 Alpha virt. eigenvalues --    0.79548   0.80966   0.82318   0.82885   0.84904
 Alpha virt. eigenvalues --    0.86142   0.88541   0.88826   0.92474   0.93247
 Alpha virt. eigenvalues --    0.93479   0.94431   0.95092   0.96673   0.97139
 Alpha virt. eigenvalues --    0.98413   0.99524   1.00219   1.02295   1.05598
 Alpha virt. eigenvalues --    1.08163   1.10664   1.11445   1.13262   1.14235
 Alpha virt. eigenvalues --    1.16481   1.17524   1.18950   1.23159   1.24074
 Alpha virt. eigenvalues --    1.25017   1.28691   1.32462   1.35215   1.38706
 Alpha virt. eigenvalues --    1.41171   1.43286   1.45891   1.52957   1.55560
 Alpha virt. eigenvalues --    1.57371   1.60994   1.62274   1.62630   1.65400
 Alpha virt. eigenvalues --    1.66759   1.67313   1.67967   1.68465   1.68736
 Alpha virt. eigenvalues --    1.71812   1.72467   1.75397   1.76967   1.78893
 Alpha virt. eigenvalues --    1.81561   1.85068   1.87109   1.88985   1.90780
 Alpha virt. eigenvalues --    1.92935   1.94162   1.96315   1.97348   1.98884
 Alpha virt. eigenvalues --    2.02205   2.02676   2.04600   2.06240   2.08065
 Alpha virt. eigenvalues --    2.08740   2.10771   2.12145   2.14249   2.15097
 Alpha virt. eigenvalues --    2.21727   2.25263   2.27506   2.30985   2.35820
 Alpha virt. eigenvalues --    2.39402   2.42418   2.45644   2.50646   2.51312
 Alpha virt. eigenvalues --    2.53469   2.55416   2.59184   2.60876   2.63908
 Alpha virt. eigenvalues --    2.66128   2.68755   2.72457   2.74111   2.75151
 Alpha virt. eigenvalues --    2.79542   2.81426   2.82645   2.83194   2.84624
 Alpha virt. eigenvalues --    2.87004   2.89939   2.91169   2.92022   2.93919
 Alpha virt. eigenvalues --    2.94805   2.95202   2.97965   2.99931   3.02715
 Alpha virt. eigenvalues --    3.03272   3.04548   3.05802   3.10760   3.14712
 Alpha virt. eigenvalues --    3.20150   3.21640   3.23524   3.26224   3.30131
 Alpha virt. eigenvalues --    3.42533   3.44557   3.46140   3.48928   3.50817
 Alpha virt. eigenvalues --    3.62457   3.68241   3.71078   3.74029   3.91154
 Alpha virt. eigenvalues --    4.00255   4.04572   4.09013   4.13302   4.17608
 Alpha virt. eigenvalues --    4.30606   4.34509   4.38569   4.39537   4.44534
 Alpha virt. eigenvalues --    4.95682   5.17824   5.20554   5.20697   5.37488
 Alpha virt. eigenvalues --    5.90279  23.88742  23.99053  24.14978  24.22856
 Alpha virt. eigenvalues --   24.29930  24.33327  24.38140  24.42691  35.87929
 Alpha virt. eigenvalues --   50.16756
          Condensed to atoms (all electrons):
               1          2          3          4          5          6
     1  C    6.792915   0.043599   0.061320  -0.230981  -0.148737   0.155837
     2  C    0.043599   7.306875  -1.574747   0.192821   0.637899  -0.113978
     3  C    0.061320  -1.574747   6.753983   0.311380  -0.096416  -0.182568
     4  C   -0.230981   0.192821   0.311380   5.227210  -0.059337  -0.038305
     5  H   -0.148737   0.637899  -0.096416  -0.059337   0.508244   0.000908
     6  N    0.155837  -0.113978  -0.182568  -0.038305   0.000908   7.486713
     7  C   -0.441241   0.476285   0.279264  -0.171193   0.039385  -0.042600
     8  H   -0.134406  -0.105879   0.581392   0.018322  -0.003696  -0.026594
     9  C    0.047610  -0.500761  -0.088139   0.553339  -0.014614   0.039784
    10  H    0.029014  -0.105288   0.028766   0.428337  -0.013685  -0.004745
    11  C   -0.062314  -0.146560  -0.058632   0.001516  -0.017561  -0.076754
    12  H   -0.011955  -0.054610   0.018124  -0.006817  -0.000503   0.343463
    13  H    0.036396   0.052591  -0.100566  -0.010022   0.002429  -0.003954
    14  H    0.018533  -0.008676  -0.015447  -0.058344  -0.000841   0.002469
    15  C   -0.076505  -0.055625   0.090974   0.015791  -0.002551  -0.339736
    16  O    0.022282   0.002282  -0.037324   0.016125  -0.004459  -0.155736
    17  H   -0.002792   0.005524  -0.005508  -0.000091  -0.000230   0.003118
    18  H   -0.001333  -0.006012   0.001575   0.000544  -0.000379   0.002901
    19  H    0.007954  -0.009683   0.020894  -0.000948   0.001733   0.029996
               7          8          9         10         11         12
     1  C   -0.441241  -0.134406   0.047610   0.029014  -0.062314  -0.011955
     2  C    0.476285  -0.105879  -0.500761  -0.105288  -0.146560  -0.054610
     3  C    0.279264   0.581392  -0.088139   0.028766  -0.058632   0.018124
     4  C   -0.171193   0.018322   0.553339   0.428337   0.001516  -0.006817
     5  H    0.039385  -0.003696  -0.014614  -0.013685  -0.017561  -0.000503
     6  N   -0.042600  -0.026594   0.039784  -0.004745  -0.076754   0.343463
     7  C    5.531805  -0.034944   0.401952  -0.016897  -0.122139  -0.011920
     8  H   -0.034944   0.490228   0.029527   0.001087   0.012161  -0.000537
     9  C    0.401952   0.029527   5.522426  -0.030768   0.016408   0.008322
    10  H   -0.016897   0.001087  -0.030768   0.488470   0.000490   0.000204
    11  C   -0.122139   0.012161   0.016408   0.000490   6.075096   0.055545
    12  H   -0.011920  -0.000537   0.008322   0.000204   0.055545   0.371197
    13  H    0.422375  -0.013544  -0.070022  -0.001083  -0.001724   0.000035
    14  H   -0.051045   0.000497   0.464510  -0.007877  -0.001530   0.000225
    15  C    0.027914  -0.001127  -0.004940   0.000156  -0.115935  -0.026416
    16  O   -0.022082  -0.008174  -0.003122   0.000457   0.482697   0.007000
    17  H   -0.000014  -0.003171  -0.000021  -0.000004  -0.034790   0.002801
    18  H   -0.002583  -0.000179   0.000005  -0.000000  -0.040076   0.001555
    19  H    0.004629   0.002320  -0.000532  -0.000020  -0.103581  -0.012989
              13         14         15         16         17         18
     1  C    0.036396   0.018533  -0.076505   0.022282  -0.002792  -0.001333
     2  C    0.052591  -0.008676  -0.055625   0.002282   0.005524  -0.006012
     3  C   -0.100566  -0.015447   0.090974  -0.037324  -0.005508   0.001575
     4  C   -0.010022  -0.058344   0.015791   0.016125  -0.000091   0.000544
     5  H    0.002429  -0.000841  -0.002551  -0.004459  -0.000230  -0.000379
     6  N   -0.003954   0.002469  -0.339736  -0.155736   0.003118   0.002901
     7  C    0.422375  -0.051045   0.027914  -0.022082  -0.000014  -0.002583
     8  H   -0.013544   0.000497  -0.001127  -0.008174  -0.003171  -0.000179
     9  C   -0.070022   0.464510  -0.004940  -0.003122  -0.000021   0.000005
    10  H   -0.001083  -0.007877   0.000156   0.000457  -0.000004  -0.000000
    11  C   -0.001724  -0.001530  -0.115935   0.482697  -0.034790  -0.040076
    12  H    0.000035   0.000225  -0.026416   0.007000   0.002801   0.001555
    13  H    0.488587  -0.009776  -0.000691   0.000142   0.000045  -0.000001
    14  H   -0.009776   0.492240  -0.000218  -0.000514  -0.000013  -0.000010
    15  C   -0.000691  -0.000218   5.777032  -0.012551   0.408285   0.434571
    16  O    0.000142  -0.000514  -0.012551   8.068956  -0.005072  -0.010046
    17  H    0.000045  -0.000013   0.408285  -0.005072   0.508841  -0.029121
    18  H   -0.000001  -0.000010   0.434571  -0.010046  -0.029121   0.490818
    19  H   -0.000036   0.000006   0.399769   0.009288  -0.038184  -0.034553
              19
     1  C    0.007954
     2  C   -0.009683
     3  C    0.020894
     4  C   -0.000948
     5  H    0.001733
     6  N    0.029996
     7  C    0.004629
     8  H    0.002320
     9  C   -0.000532
    10  H   -0.000020
    11  C   -0.103581
    12  H   -0.012989
    13  H   -0.000036
    14  H    0.000006
    15  C    0.399769
    16  O    0.009288
    17  H   -0.038184
    18  H   -0.034553
    19  H    0.613358
 Mulliken charges:
               1
     1  C   -0.105196
     2  C   -0.036057
     3  C    0.011677
     4  C   -0.189347
     5  H    0.172411
     6  N   -0.080221
     7  C   -0.266951
     8  H    0.196716
     9  C   -0.370965
    10  H    0.203389
    11  C    0.137683
    12  H    0.317277
    13  H    0.208817
    14  H    0.175812
    15  C   -0.518197
    16  O   -0.350150
    17  H    0.190397
    18  H    0.192324
    19  H    0.110579
 Sum of Mulliken charges =  -0.00000
 Mulliken charges with hydrogens summed into heavy atoms:
               1
     1  C   -0.105196
     2  C    0.136354
     3  C    0.208393
     4  C    0.014042
     6  N    0.237056
     7  C   -0.058134
     9  C   -0.195153
    11  C    0.137683
    15  C   -0.024896
    16  O   -0.350150
 Electronic spatial extent (au):  <R**2>=           1649.2028
 Charge=             -0.0000 electrons
 Dipole moment (field-independent basis, Debye):
    X=              0.0803    Y=             -2.8611    Z=             -2.3987  Tot=              3.7344
 Quadrupole moment (field-independent basis, Debye-Ang):
   XX=            -49.3816   YY=            -55.1249   ZZ=            -62.5579
   XY=              6.3586   XZ=              6.2870   YZ=             -3.3678
 Traceless Quadrupole moment (field-independent basis, Debye-Ang):
   XX=              6.3065   YY=              0.5632   ZZ=             -6.8698
   XY=              6.3586   XZ=              6.2870   YZ=             -3.3678
 Octapole moment (field-independent basis, Debye-Ang**2):
  XXX=            -17.8322  YYY=             -4.7026  ZZZ=             -0.6502  XYY=              5.5878
  XXY=             -9.5270  XXZ=             -2.9610  XZZ=             -7.7931  YZZ=             -3.3407
  YYZ=             -5.8017  XYZ=              1.1147
 Hexadecapole moment (field-independent basis, Debye-Ang**3):
 XXXX=          -1537.1897 YYYY=           -333.7094 ZZZZ=           -138.4604 XXXY=             27.4339
 XXXZ=             36.4281 YYYX=             11.7307 YYYZ=             -7.3292 ZZZX=              3.6381
 ZZZY=              2.1059 XXYY=           -335.0161 XXZZ=           -325.1299 YYZZ=            -83.6427
 XXYZ=            -19.1692 YYXZ=             12.7438 ZZXY=              6.1373
 N-N= 4.921541981200D+02 E-N=-2.010758195122D+03  KE= 4.400180122248D+02
 No NMR shielding tensors so no spin-rotation constants.
 Leave Link  601 at Tue Nov 22 19:11:35 2022, MaxMem= 16106127360 cpu:               4.2 elap:               0.2
 (Enter /opt/ap/G16/B01/g16/l9999.exe)
 1\1\GINC-N36\SP\RwB97XD\6-311++G(d,p)\C8H9N1O1\ROOT\22-Nov-2022\0\\#P 
 wB97XD/6-311++G(d,p) scf=maxcycle=512\\_conf026.gjf nmol_natom 1_19\\0
 ,1\C\C,1,1.39447505\C,1,1.39873503,2,119.56697224\C,2,1.39066123,1,119
 .42697207,3,2.53915756,0\H,2,0.96213008,1,119.8046163,3,-177.79870417,
 0\N,1,1.41693372,2,123.72220125,4,-177.74604849,0\C,3,1.38667133,1,120
 .18759987,2,-2.5020857,0\H,3,0.95673174,1,118.82085988,2,177.96737168,
 0\C,4,1.38268572,2,121.03929493,1,-0.41221113,0\H,4,0.9858595,2,118.57
 91267,1,178.77373233,0\C,6,1.35500692,1,127.62132737,2,130.,0\H,6,0.89
 609466,1,115.10511997,2,-50.,0\H,7,0.98847198,3,119.08117704,1,-179.64
 585354,0\H,9,0.98451201,4,120.53755637,2,177.22743544,0\C,11,1.5027456
 1,6,115.46861532,1,175.89235465,0\O,11,1.23496495,6,123.15099888,1,-3.
 40672617,0\H,15,0.98719837,11,107.47091875,6,-116.36962839,0\H,15,0.99
 976021,11,109.69443261,6,128.85346087,0\H,15,0.97696155,11,114.3700887
 1,6,6.05302844,0\\Version=ES64L-G16RevB.01\State=1-A\HF=-440.1422322\R
 MSD=5.600e-09\Dipole=-0.6775594,-1.1810816,0.5519174\Quadrupole=7.1960
 159,-7.3309443,0.1349284,2.0326244,2.0242897,3.6862584\PG=C01 [X(C8H9N
 1O1)]\\@


 IMAGINATION WILL OFTEN CARRY US TO WORLDS THAT NEVER WERE.
 BUT WITHOUT IT, WE GO NOWHERE. -- CARL SAGAN (COSMOS)
 Job cpu time:       0 days  0 hours 10 minutes 21.6 seconds.
 Elapsed time:       0 days  0 hours  0 minutes 19.5 seconds.
 File lengths (MBytes):  RWF=     46 Int=      0 D2E=      0 Chk=      6 Scr=      1
 Normal termination of Gaussian 16 at Tue Nov 22 19:11:35 2022.
