 Entering Gaussian System, Link 0=g16
 Input=_conf046.gjf
 Output=_conf046.log
 Initial command:
 /opt/ap/G16/B01/g16/l1.exe "/tmp2/scr/Gau-10187.inp" -scrdir="/tmp2/scr/"
 Entering Link 1 = /opt/ap/G16/B01/g16/l1.exe PID=     10188.
  
 Copyright (c) 1988-2017, Gaussian, Inc.  All Rights Reserved.
  
 This is part of the Gaussian(R) 16 program.  It is based on
 the Gaussian(R) 09 system (copyright 2009, Gaussian, Inc.),
 the Gaussian(R) 03 system (copyright 2003, Gaussian, Inc.),
 the Gaussian(R) 98 system (copyright 1998, Gaussian, Inc.),
 the Gaussian(R) 94 system (copyright 1995, Gaussian, Inc.),
 the Gaussian 92(TM) system (copyright 1992, Gaussian, Inc.),
 the Gaussian 90(TM) system (copyright 1990, Gaussian, Inc.),
 the Gaussian 88(TM) system (copyright 1988, Gaussian, Inc.),
 the Gaussian 86(TM) system (copyright 1986, Carnegie Mellon
 University), and the Gaussian 82(TM) system (copyright 1983,
 Carnegie Mellon University). Gaussian is a federally registered
 trademark of Gaussian, Inc.
  
 This software contains proprietary and confidential information,
 including trade secrets, belonging to Gaussian, Inc.
  
 This software is provided under written license and may be
 used, copied, transmitted, or stored only in accord with that
 written license.
  
 The following legend is applicable only to US Government
 contracts under FAR:
  
                    RESTRICTED RIGHTS LEGEND
  
 Use, reproduction and disclosure by the US Government is
 subject to restrictions as set forth in subparagraphs (a)
 and (c) of the Commercial Computer Software - Restricted
 Rights clause in FAR 52.227-19.
  
 Gaussian, Inc.
 340 Quinnipiac St., Bldg. 40, Wallingford CT 06492
  
  
 ---------------------------------------------------------------
 Warning -- This program may not be used in any manner that
 competes with the business of Gaussian, Inc. or will provide
 assistance to any competitor of Gaussian, Inc.  The licensee
 of this program is prohibited from giving any competitor of
 Gaussian, Inc. access to this program.  By using this program,
 the user acknowledges that Gaussian, Inc. is engaged in the
 business of creating and licensing software in the field of
 computational chemistry and represents and warrants to the
 licensee that it is not a competitor of Gaussian, Inc. and that
 it will not use this program in any manner prohibited above.
 ---------------------------------------------------------------
  

 Cite this work as:
 Gaussian 16, Revision B.01,
 M. J. Frisch, G. W. Trucks, H. B. Schlegel, G. E. Scuseria, 
 M. A. Robb, J. R. Cheeseman, G. Scalmani, V. Barone, 
 G. A. Petersson, H. Nakatsuji, X. Li, M. Caricato, A. V. Marenich, 
 J. Bloino, B. G. Janesko, R. Gomperts, B. Mennucci, H. P. Hratchian, 
 J. V. Ortiz, A. F. Izmaylov, J. L. Sonnenberg, D. Williams-Young, 
 F. Ding, F. Lipparini, F. Egidi, J. Goings, B. Peng, A. Petrone, 
 T. Henderson, D. Ranasinghe, V. G. Zakrzewski, J. Gao, N. Rega, 
 G. Zheng, W. Liang, M. Hada, M. Ehara, K. Toyota, R. Fukuda, 
 J. Hasegawa, M. Ishida, T. Nakajima, Y. Honda, O. Kitao, H. Nakai, 
 T. Vreven, K. Throssell, J. A. Montgomery, Jr., J. E. Peralta, 
 F. Ogliaro, M. J. Bearpark, J. J. Heyd, E. N. Brothers, K. N. Kudin, 
 V. N. Staroverov, T. A. Keith, R. Kobayashi, J. Normand, 
 K. Raghavachari, A. P. Rendell, J. C. Burant, S. S. Iyengar, 
 J. Tomasi, M. Cossi, J. M. Millam, M. Klene, C. Adamo, R. Cammi, 
 J. W. Ochterski, R. L. Martin, K. Morokuma, O. Farkas, 
 J. B. Foresman, and D. J. Fox, Gaussian, Inc., Wallingford CT, 2016.
 
 ******************************************
 Gaussian 16:  ES64L-G16RevB.01 20-Dec-2017
                22-Nov-2022 
 ******************************************
 %nprocshared=32
 Will use up to   32 processors via shared memory.
 %mem=120GB
 %chk=_conf046.chk
 ----------------------------------------
 #P wB97XD/6-311++G(d,p) scf=maxcycle=512
 ----------------------------------------
 1/38=1,172=1/1;
 2/12=2,17=6,18=5,40=1/2;
 3/5=4,6=6,7=1111,11=2,25=1,30=1,74=-58/1,2,3;
 4//1;
 5/5=2,7=512,38=5/2;
 6/7=2,8=2,9=2,10=2,28=1/1;
 99/5=1,9=1/99;
 Leave Link    1 at Tue Nov 22 19:12:58 2022, MaxMem= 16106127360 cpu:               1.8 elap:               0.1
 (Enter /opt/ap/G16/B01/g16/l101.exe)
 ----------------------------
 _conf046.gjf nmol_natom 1_19
 ----------------------------
 Symbolic Z-matrix:
 Charge =  0 Multiplicity = 1
 C
 C                    1     1.39448 
 C                    1     1.39874  2     119.56697 
 C                    2     1.39066  1     119.42697  3     2.53916  0
 H                    2     0.96213  1     119.80462  3    -177.7987  0
 N                    1     1.41693  2     123.7222  4    -177.74605  0
 C                    3     1.38667  1     120.1876  2    -2.50209  0
 H                    3     0.95673  1     118.82086  2     177.96737  0
 C                    4     1.38269  2     121.03929  1    -0.41221  0
 H                    4     0.98586  2     118.57913  1     178.77373  0
 C                    6     1.35501  1     127.62133  2    -130.     0
 H                    6     0.89609  1     115.10512  2     50.      0
 H                    7     0.98847  3     119.08118  1    -179.64585  0
 H                    9     0.98451  4     120.53756  2     177.22744  0
 C                    11    1.50275  6     115.46862  1     175.89235  0
 O                    11    1.23496  6     123.151  1    -3.40673  0
 H                    15    0.9872   11    107.47092  6    -116.36963  0
 H                    15    0.99976  11    109.69443  6     128.85346  0
 H                    15    0.97696  11    114.37009  6     6.05303  0
 
 ITRead=  0  0  0  0  0  0  0  0  0  0  0  0  0  0  0  0  0  0  0
 MicOpt= -1 -1 -1 -1 -1 -1 -1 -1 -1 -1 -1 -1 -1 -1 -1 -1 -1 -1 -1
 NAtoms=     19 NQM=       19 NQMF=       0 NMMI=      0 NMMIF=      0
                NMic=       0 NMicF=      0.
                    Isotopes and Nuclear Properties:
 (Nuclear quadrupole moments (NQMom) in fm**2, nuclear magnetic moments (NMagM)
  in nuclear magnetons)

  Atom         1           2           3           4           5           6           7           8           9          10
 IAtWgt=          12          12          12          12           1          14          12           1          12           1
 AtmWgt=  12.0000000  12.0000000  12.0000000  12.0000000   1.0078250  14.0030740  12.0000000   1.0078250  12.0000000   1.0078250
 NucSpn=           0           0           0           0           1           2           0           1           0           1
 AtZEff=  -0.0000000  -0.0000000  -0.0000000  -0.0000000  -0.0000000  -0.0000000  -0.0000000  -0.0000000  -0.0000000  -0.0000000
 NQMom=    0.0000000   0.0000000   0.0000000   0.0000000   0.0000000   2.0440000   0.0000000   0.0000000   0.0000000   0.0000000
 NMagM=    0.0000000   0.0000000   0.0000000   0.0000000   2.7928460   0.4037610   0.0000000   2.7928460   0.0000000   2.7928460
 AtZNuc=   6.0000000   6.0000000   6.0000000   6.0000000   1.0000000   7.0000000   6.0000000   1.0000000   6.0000000   1.0000000

  Atom        11          12          13          14          15          16          17          18          19
 IAtWgt=          12           1           1           1          12          16           1           1           1
 AtmWgt=  12.0000000   1.0078250   1.0078250   1.0078250  12.0000000  15.9949146   1.0078250   1.0078250   1.0078250
 NucSpn=           0           1           1           1           0           0           1           1           1
 AtZEff=  -0.0000000  -0.0000000  -0.0000000  -0.0000000  -0.0000000  -0.0000000  -0.0000000  -0.0000000  -0.0000000
 NQMom=    0.0000000   0.0000000   0.0000000   0.0000000   0.0000000   0.0000000   0.0000000   0.0000000   0.0000000
 NMagM=    0.0000000   2.7928460   2.7928460   2.7928460   0.0000000   0.0000000   2.7928460   2.7928460   2.7928460
 AtZNuc=   6.0000000   1.0000000   1.0000000   1.0000000   6.0000000   8.0000000   1.0000000   1.0000000   1.0000000
 Leave Link  101 at Tue Nov 22 19:12:58 2022, MaxMem= 16106127360 cpu:               5.2 elap:               0.2
 (Enter /opt/ap/G16/B01/g16/l202.exe)
                          Input orientation:                          
 ---------------------------------------------------------------------
 Center     Atomic      Atomic             Coordinates (Angstroms)
 Number     Number       Type             X           Y           Z
 ---------------------------------------------------------------------
      1          6           0        0.000000    0.000000    0.000000
      2          6           0        0.000000    0.000000    1.394475
      3          6           0        1.216591    0.000000   -0.690193
      4          6           0        1.210053    0.053661    2.077726
      5          1           0       -0.834249   -0.032067    1.872696
      6          7           0       -1.178505   -0.005866   -0.786634
      7          6           0        2.413939    0.052326    0.007287
      8          1           0        1.204393   -0.029731   -1.646384
      9          6           0        2.412261    0.098442    1.396177
     10          1           0        1.194755    0.071528    3.063305
     11          6           0       -1.479388   -0.829532   -1.819634
     12          1           0       -1.787381    0.612711   -0.563884
     13          1           0        3.263999    0.056828   -0.497149
     14          1           0        3.262484    0.177260    1.886251
     15          6           0       -2.853307   -0.658124   -2.403765
     16          8           0       -0.696235   -1.678561   -2.256622
     17          1           0       -3.347078   -1.499328   -2.251691
     18          1           0       -2.786992   -0.553518   -3.395823
     19          1           0       -3.355987    0.095249   -2.037435
 ---------------------------------------------------------------------
                    Distance matrix (angstroms):
                    1          2          3          4          5
     1  C    0.000000
     2  C    1.394475   0.000000
     3  C    1.398735   2.413697   0.000000
     4  C    2.405006   1.390661   2.768447   0.000000
     5  H    2.050363   0.962130   3.282586   2.056345   0.000000
     6  N    1.416934   2.479142   2.397044   3.730055   2.681648
     7  C    2.414517   2.784624   1.386671   2.395008   3.746678
     8  H    2.040105   3.270821   0.956732   3.725048   4.066939
     9  C    2.788908   2.414270   2.406711   1.382686   3.283889
    10  H    3.288829   2.053668   3.754243   0.985860   2.354812
    11  C    2.487525   3.634173   3.038431   4.816901   3.832161
    12  H    1.971829   2.721271   3.068422   4.034259   2.694647
    13  H    3.302132   3.772951   2.057273   3.293734   4.734944
    14  H    3.772687   3.304099   3.294718   2.065046   4.102100
    15  C    3.788479   4.795948   4.464698   6.091083   4.770394
    16  O    2.897353   4.078335   2.988339   5.041934   4.447612
    17  H    4.303607   5.171600   5.051073   6.474803   5.047547
    18  H    4.427790   5.569620   4.863691   6.804761   5.642908
    19  H    3.927195   4.801013   4.767872   6.146950   4.654514
                    6          7          8          9         10
     6  N    0.000000
     7  C    3.679585   0.000000
     8  H    2.533365   2.050454   0.000000
     9  C    4.203468   1.389657   3.276058   0.000000
    10  H    4.523316   3.290292   4.710788   2.064548   0.000000
    11  C    1.355007   4.390137   2.805775   5.132983   5.639685
    12  H    0.896095   4.276839   3.245805   4.662972   4.726787
    13  H    4.452366   0.988472   2.360129   2.076505   4.118108
    14  H    5.186544   2.065465   4.093666   0.984512   2.381625
    15  C    2.417750   5.836248   4.175336   6.537443   6.841641
    16  O    2.278455   4.218345   2.589096   5.115020   5.911030
    17  H    3.013226   6.379650   4.820996   7.002129   7.165544
    18  H    3.113683   6.244829   4.389310   7.100743   7.613497
    19  H    2.513196   6.121664   4.578821   6.712852   6.835742
                   11         12         13         14         15
    11  C    0.000000
    12  H    1.936964   0.000000
    13  H    5.003430   5.082312   0.000000
    14  H    6.101850   5.629735   2.386441   0.000000
    15  C    1.502746   2.477172   6.447307   7.516981   0.000000
    16  O    1.234965   3.050555   4.668058   6.023199   2.390796
    17  H    2.030657   3.121227   7.014726   7.976204   0.987198
    18  H    2.066491   3.221675   6.737160   8.064150   0.999760
    19  H    2.103397   2.213514   6.796923   7.694556   0.976962
                   16         17         18         19
    16  O    0.000000
    17  H    2.656900   0.000000
    18  H    2.633395   1.586598   0.000000
    19  H    3.204485   1.608931   1.609308   0.000000
 Stoichiometry    C8H9NO
 Framework group  C1[X(C8H9NO)]
 Deg. of freedom    51
 Full point group                 C1      NOp   1
 Largest Abelian subgroup         C1      NOp   1
 Largest concise Abelian subgroup C1      NOp   1
                         Standard orientation:                         
 ---------------------------------------------------------------------
 Center     Atomic      Atomic             Coordinates (Angstroms)
 Number     Number       Type             X           Y           Z
 ---------------------------------------------------------------------
      1          6           0       -0.296487   -0.339583   -0.192013
      2          6           0       -1.201968   -1.327428    0.193769
      3          6           0       -0.747840    0.968349   -0.397085
      4          6           0       -2.549863   -1.008226    0.317173
      5          1           0       -0.889961   -2.221008    0.366572
      6          7           0        1.086704   -0.574448   -0.390310
      7          6           0       -2.095342    1.269203   -0.268314
      8          1           0       -0.112641    1.643809   -0.632905
      9          6           0       -3.004166    0.274403    0.071629
     10          1           0       -3.181703   -1.720496    0.572842
     11          6           0        2.126553    0.129468    0.118866
     12          1           0        1.282139   -1.273329   -0.916005
     13          1           0       -2.397111    2.197843   -0.422065
     14          1           0       -3.965052    0.482882    0.121597
     15          6           0        3.491180   -0.418001   -0.191483
     16          8           0        1.982396    1.146313    0.804710
     17          1           0        3.907259   -0.679721    0.664637
     18          1           0        4.067705    0.307230   -0.567222
     19          1           0        3.490870   -1.175691   -0.808215
 ---------------------------------------------------------------------
 Rotational constants (GHZ):           3.7527271           0.7847113           0.6864556
 Leave Link  202 at Tue Nov 22 19:12:58 2022, MaxMem= 16106127360 cpu:               0.3 elap:               0.0
 (Enter /opt/ap/G16/B01/g16/l301.exe)
 Standard basis: 6-311++G(d,p) (5D, 7F)
 Ernie: Thresh=  0.10000D-02 Tol=  0.10000D-05 Strict=F.
 There are   293 symmetry adapted cartesian basis functions of A   symmetry.
 There are   283 symmetry adapted basis functions of A   symmetry.
   283 basis functions,   441 primitive gaussians,   293 cartesian basis functions
    36 alpha electrons       36 beta electrons
       nuclear repulsion energy       492.1003999555 Hartrees.
 IExCor= 4639 DFT=T Ex+Corr=wB97XD ExCW=0 ScaHFX=  1.000000
 ScaDFX=  1.000000  1.000000  1.000000  1.000000 ScalE2=  1.000000  1.000000
 IRadAn=      5 IRanWt=     -1 IRanGd=            0 ICorTp=0 IEmpDi=121
 HFx  wShort=  0.000000 wLong=  0.200000 cFull=  0.222036 cShort=  0.000000 cLong=  0.777964
 DFx  wShort=  0.000000 wLong=  0.200000 cFull=  0.000000 cShort=  0.000000 cLong=  1.000000
 NAtoms=   19 NActive=   19 NUniq=   19 SFac= 1.00D+00 NAtFMM=   60 NAOKFM=F Big=F
 Integral buffers will be    131072 words long.
 Raffenetti 2 integral format.
 Two-electron integral symmetry is turned on.
 R6Disp:  Grimme-D2 Dispersion energy=       -0.0091659565 Hartrees.
 Nuclear repulsion after empirical dispersion term =      492.0912339990 Hartrees.
 Leave Link  301 at Tue Nov 22 19:12:58 2022, MaxMem= 16106127360 cpu:               1.2 elap:               0.0
 (Enter /opt/ap/G16/B01/g16/l302.exe)
 NPDir=0 NMtPBC=     1 NCelOv=     1 NCel=       1 NClECP=     1 NCelD=      1
         NCelK=      1 NCelE2=     1 NClLst=     1 CellRange=     0.0.
 One-electron integrals computed using PRISM.
 One-electron integral symmetry used in STVInt
 NBasis=   283 RedAO= T EigKep=  3.51D-06  NBF=   283
 NBsUse=   282 1.00D-06 EigRej=  9.05D-07 NBFU=   282
 Precomputing XC quadrature grid using
 IXCGrd= 4 IRadAn=           5 IRanWt=          -1 IRanGd=           0 AccXCQ= 0.00D+00.
 Generated NRdTot=       0 NPtTot=           0 NUsed=           0 NTot=          32
 NSgBfM=   293   293   293   293   293 MxSgAt=    19 MxSgA2=    19.
 Leave Link  302 at Tue Nov 22 19:12:58 2022, MaxMem= 16106127360 cpu:               7.1 elap:               0.2
 (Enter /opt/ap/G16/B01/g16/l303.exe)
 DipDrv:  MaxL=1.
 Leave Link  303 at Tue Nov 22 19:12:58 2022, MaxMem= 16106127360 cpu:               1.5 elap:               0.1
 (Enter /opt/ap/G16/B01/g16/l401.exe)
 ExpMin= 3.60D-02 ExpMax= 8.59D+03 ExpMxC= 1.30D+03 IAcc=3 IRadAn=         5 AccDes= 0.00D+00
 Harris functional with IExCor= 4639 and IRadAn=       5 diagonalized for initial guess.
 HarFok:  IExCor= 4639 AccDes= 0.00D+00 IRadAn=         5 IDoV= 1 UseB2=F ITyADJ=14
 ICtDFT=  3500011 ScaDFX=  1.000000  1.000000  1.000000  1.000000
 FoFCou: FMM=F IPFlag=           0 FMFlag=      100000 FMFlg1=           0
         NFxFlg=           0 DoJE=T BraDBF=F KetDBF=T FulRan=T
         wScrn=  0.000000 ICntrl=       500 IOpCl=  0 I1Cent=   200000004 NGrid=           0
         NMat0=    1 NMatS0=      1 NMatT0=    0 NMatD0=    1 NMtDS0=    0 NMtDT0=    0
 Petite list used in FoFCou.
 Harris En= -420.983846926212    
 JPrj=0 DoOrth=F DoCkMO=F.
 Leave Link  401 at Tue Nov 22 19:12:59 2022, MaxMem= 16106127360 cpu:              15.2 elap:               0.5
 (Enter /opt/ap/G16/B01/g16/l502.exe)
 Integral symmetry usage will be decided dynamically.
 Closed shell SCF:
 Using DIIS extrapolation, IDIIS=  1040.
 NGot= 16106127360 LenX= 16105943385 LenY= 16105857095
 Requested convergence on RMS density matrix=1.00D-08 within 512 cycles.
 Requested convergence on MAX density matrix=1.00D-06.
 Requested convergence on             energy=1.00D-06.
 No special actions if energy rises.
 Fock matrices will be formed incrementally for  20 cycles.

 Cycle   1  Pass 1  IDiag  1:
 FoFJK:  IHMeth= 1 ICntrl=       0 DoSepK=T KAlg= 0 I1Cent=           0 FoldK=F
 IRaf=         1 NMat=       1 IRICut=       1 DoRegI=T DoRafI=F ISym2E= 0 IDoP0=0 IntGTp=1.
 FoFCou: FMM=F IPFlag=           0 FMFlag=      100000 FMFlg1=           0
         NFxFlg=           0 DoJE=T BraDBF=F KetDBF=F FulRan=T
         wScrn=  0.000000 ICntrl=       500 IOpCl=  0 I1Cent=           0 NGrid=           0
         NMat0=    1 NMatS0=      1 NMatT0=    0 NMatD0=    1 NMtDS0=    0 NMtDT0=    0
 Symmetry not used in FoFCou.
 E= -439.992615872293    
 DIIS: error= 5.25D-02 at cycle   1 NSaved=   1.
 NSaved= 1 IEnMin= 1 EnMin= -439.992615872293     IErMin= 1 ErrMin= 5.25D-02
 ErrMax= 5.25D-02  0.00D+00 EMaxC= 1.00D-01 BMatC= 9.40D-01 BMatP= 9.40D-01
 IDIUse=3 WtCom= 4.75D-01 WtEn= 5.25D-01
 Coeff-Com:  0.100D+01
 Coeff-En:   0.100D+01
 Coeff:      0.100D+01
 Gap=     0.459 Goal=   None    Shift=    0.000
 GapD=    0.459 DampG=2.000 DampE=0.500 DampFc=1.0000 IDamp=-1.
 RMSDP=7.44D-03 MaxDP=6.40D-01              OVMax= 1.36D-01

 Cycle   2  Pass 1  IDiag  1:
 RMSU=  4.88D-03    CP:  7.66D-01
 E= -440.073512485814     Delta-E=       -0.080896613521 Rises=F Damp=F
 DIIS: error= 1.19D-02 at cycle   2 NSaved=   2.
 NSaved= 2 IEnMin= 2 EnMin= -440.073512485814     IErMin= 2 ErrMin= 1.19D-02
 ErrMax= 1.19D-02  0.00D+00 EMaxC= 1.00D-01 BMatC= 7.87D-02 BMatP= 9.40D-01
 IDIUse=3 WtCom= 8.81D-01 WtEn= 1.19D-01
 Coeff-Com:  0.153D+00 0.847D+00
 Coeff-En:   0.209D+00 0.791D+00
 Coeff:      0.160D+00 0.840D+00
 Gap=     0.449 Goal=   None    Shift=    0.000
 RMSDP=4.88D-03 MaxDP=3.64D-01 DE=-8.09D-02 OVMax= 1.07D-01

 Cycle   3  Pass 1  IDiag  1:
 RMSU=  3.81D-03    CP:  6.44D-01  8.19D-01
 E= -440.105663445603     Delta-E=       -0.032150959789 Rises=F Damp=F
 DIIS: error= 9.64D-03 at cycle   3 NSaved=   3.
 NSaved= 3 IEnMin= 3 EnMin= -440.105663445603     IErMin= 3 ErrMin= 9.64D-03
 ErrMax= 9.64D-03  0.00D+00 EMaxC= 1.00D-01 BMatC= 4.02D-02 BMatP= 7.87D-02
 IDIUse=3 WtCom= 9.04D-01 WtEn= 9.64D-02
 Coeff-Com:  0.264D-01 0.421D+00 0.553D+00
 Coeff-En:   0.000D+00 0.344D+00 0.656D+00
 Coeff:      0.238D-01 0.414D+00 0.563D+00
 Gap=     0.372 Goal=   None    Shift=    0.000
 RMSDP=1.70D-03 MaxDP=1.07D-01 DE=-3.22D-02 OVMax= 6.65D-02

 Cycle   4  Pass 1  IDiag  1:
 RMSU=  7.14D-04    CP:  6.70D-01  9.18D-01  6.53D-01
 E= -440.141304703759     Delta-E=       -0.035641258156 Rises=F Damp=F
 DIIS: error= 2.21D-03 at cycle   4 NSaved=   4.
 NSaved= 4 IEnMin= 4 EnMin= -440.141304703759     IErMin= 4 ErrMin= 2.21D-03
 ErrMax= 2.21D-03  0.00D+00 EMaxC= 1.00D-01 BMatC= 1.59D-03 BMatP= 4.02D-02
 IDIUse=3 WtCom= 9.78D-01 WtEn= 2.21D-02
 Coeff-Com:  0.962D-02 0.194D+00 0.294D+00 0.503D+00
 Coeff-En:   0.000D+00 0.000D+00 0.000D+00 0.100D+01
 Coeff:      0.941D-02 0.190D+00 0.287D+00 0.514D+00
 Gap=     0.351 Goal=   None    Shift=    0.000
 RMSDP=2.81D-04 MaxDP=1.53D-02 DE=-3.56D-02 OVMax= 1.00D-02

 Cycle   5  Pass 1  IDiag  1:
 RMSU=  1.97D-04    CP:  6.65D-01  9.21D-01  6.67D-01  7.77D-01
 E= -440.142539968249     Delta-E=       -0.001235264490 Rises=F Damp=F
 DIIS: error= 4.70D-04 at cycle   5 NSaved=   5.
 NSaved= 5 IEnMin= 5 EnMin= -440.142539968249     IErMin= 5 ErrMin= 4.70D-04
 ErrMax= 4.70D-04  0.00D+00 EMaxC= 1.00D-01 BMatC= 6.04D-05 BMatP= 1.59D-03
 IDIUse=3 WtCom= 9.95D-01 WtEn= 4.70D-03
 Coeff-Com:  0.107D-02 0.240D-01 0.471D-01 0.177D+00 0.751D+00
 Coeff-En:   0.000D+00 0.000D+00 0.000D+00 0.000D+00 0.100D+01
 Coeff:      0.106D-02 0.239D-01 0.469D-01 0.176D+00 0.752D+00
 Gap=     0.350 Goal=   None    Shift=    0.000
 RMSDP=1.32D-04 MaxDP=4.66D-03 DE=-1.24D-03 OVMax= 2.65D-03

 Cycle   6  Pass 1  IDiag  1:
 RMSU=  8.48D-05    CP:  6.63D-01  9.24D-01  6.85D-01  8.37D-01  9.93D-01
 E= -440.142580499416     Delta-E=       -0.000040531167 Rises=F Damp=F
 DIIS: error= 2.93D-04 at cycle   6 NSaved=   6.
 NSaved= 6 IEnMin= 6 EnMin= -440.142580499416     IErMin= 6 ErrMin= 2.93D-04
 ErrMax= 2.93D-04  0.00D+00 EMaxC= 1.00D-01 BMatC= 1.81D-05 BMatP= 6.04D-05
 IDIUse=3 WtCom= 9.97D-01 WtEn= 2.93D-03
 Coeff-Com: -0.108D-02-0.191D-01-0.215D-01 0.991D-02 0.405D+00 0.626D+00
 Coeff-En:   0.000D+00 0.000D+00 0.000D+00 0.000D+00 0.497D-01 0.950D+00
 Coeff:     -0.108D-02-0.190D-01-0.214D-01 0.988D-02 0.404D+00 0.627D+00
 Gap=     0.351 Goal=   None    Shift=    0.000
 RMSDP=4.80D-05 MaxDP=2.08D-03 DE=-4.05D-05 OVMax= 1.32D-03

 Cycle   7  Pass 1  IDiag  1:
 RMSU=  2.34D-05    CP:  6.62D-01  9.24D-01  6.88D-01  8.63D-01  1.10D+00
                    CP:  1.07D+00
 E= -440.142595999839     Delta-E=       -0.000015500423 Rises=F Damp=F
 DIIS: error= 8.21D-05 at cycle   7 NSaved=   7.
 NSaved= 7 IEnMin= 7 EnMin= -440.142595999839     IErMin= 7 ErrMin= 8.21D-05
 ErrMax= 8.21D-05  0.00D+00 EMaxC= 1.00D-01 BMatC= 4.55D-07 BMatP= 1.81D-05
 IDIUse=1 WtCom= 1.00D+00 WtEn= 0.00D+00
 Coeff-Com: -0.294D-03-0.562D-02-0.665D-02-0.122D-01 0.211D-01 0.106D+00
 Coeff-Com:  0.898D+00
 Coeff:     -0.294D-03-0.562D-02-0.665D-02-0.122D-01 0.211D-01 0.106D+00
 Coeff:      0.898D+00
 Gap=     0.351 Goal=   None    Shift=    0.000
 DSYEVD-2 returned Info=       60278 IAlg= 4 N=   282 NDim=   282 NE2=    57112967 trying  DSYEV.
 RMSDP=1.62D-05 MaxDP=4.83D-04 DE=-1.55D-05 OVMax= 4.63D-04

 Cycle   8  Pass 1  IDiag  1:
 RMSU=  7.45D-06    CP:  6.62D-01  9.24D-01  6.90D-01  8.70D-01  1.14D+00
                    CP:  1.15D+00  1.10D+00
 E= -440.142596979134     Delta-E=       -0.000000979295 Rises=F Damp=F
 DIIS: error= 1.61D-05 at cycle   8 NSaved=   8.
 NSaved= 8 IEnMin= 8 EnMin= -440.142596979134     IErMin= 8 ErrMin= 1.61D-05
 ErrMax= 1.61D-05  0.00D+00 EMaxC= 1.00D-01 BMatC= 9.23D-08 BMatP= 4.55D-07
 IDIUse=1 WtCom= 1.00D+00 WtEn= 0.00D+00
 Coeff-Com:  0.649D-04 0.838D-03 0.106D-02-0.641D-02-0.572D-01-0.673D-01
 Coeff-Com:  0.281D+00 0.848D+00
 Coeff:      0.649D-04 0.838D-03 0.106D-02-0.641D-02-0.572D-01-0.673D-01
 Coeff:      0.281D+00 0.848D+00
 Gap=     0.351 Goal=   None    Shift=    0.000
 RMSDP=7.77D-06 MaxDP=3.26D-04 DE=-9.79D-07 OVMax= 2.98D-04

 Cycle   9  Pass 1  IDiag  1:
 RMSU=  2.89D-06    CP:  6.61D-01  9.23D-01  6.91D-01  8.72D-01  1.15D+00
                    CP:  1.18D+00  1.21D+00  1.12D+00
 E= -440.142597161246     Delta-E=       -0.000000182112 Rises=F Damp=F
 DIIS: error= 1.35D-05 at cycle   9 NSaved=   9.
 NSaved= 9 IEnMin= 9 EnMin= -440.142597161246     IErMin= 9 ErrMin= 1.35D-05
 ErrMax= 1.35D-05  0.00D+00 EMaxC= 1.00D-01 BMatC= 8.58D-09 BMatP= 9.23D-08
 IDIUse=1 WtCom= 1.00D+00 WtEn= 0.00D+00
 Coeff-Com:  0.502D-04 0.866D-03 0.114D-02-0.490D-03-0.182D-01-0.300D-01
 Coeff-Com: -0.473D-02 0.243D+00 0.808D+00
 Coeff:      0.502D-04 0.866D-03 0.114D-02-0.490D-03-0.182D-01-0.300D-01
 Coeff:     -0.473D-02 0.243D+00 0.808D+00
 Gap=     0.351 Goal=   None    Shift=    0.000
 RMSDP=2.26D-06 MaxDP=1.63D-04 DE=-1.82D-07 OVMax= 7.39D-05

 Cycle  10  Pass 1  IDiag  1:
 RMSU=  1.01D-06    CP:  6.61D-01  9.23D-01  6.91D-01  8.72D-01  1.16D+00
                    CP:  1.19D+00  1.23D+00  1.14D+00  1.34D+00
 E= -440.142597179382     Delta-E=       -0.000000018136 Rises=F Damp=F
 DIIS: error= 1.71D-06 at cycle  10 NSaved=  10.
 NSaved=10 IEnMin=10 EnMin= -440.142597179382     IErMin=10 ErrMin= 1.71D-06
 ErrMax= 1.71D-06  0.00D+00 EMaxC= 1.00D-01 BMatC= 1.32D-09 BMatP= 8.58D-09
 IDIUse=1 WtCom= 1.00D+00 WtEn= 0.00D+00
 Coeff-Com:  0.425D-05 0.129D-03 0.196D-03 0.807D-03 0.356D-02 0.149D-02
 Coeff-Com: -0.406D-01-0.745D-01 0.218D+00 0.891D+00
 Coeff:      0.425D-05 0.129D-03 0.196D-03 0.807D-03 0.356D-02 0.149D-02
 Coeff:     -0.406D-01-0.745D-01 0.218D+00 0.891D+00
 Gap=     0.351 Goal=   None    Shift=    0.000
 RMSDP=7.79D-07 MaxDP=5.52D-05 DE=-1.81D-08 OVMax= 4.06D-05

 Cycle  11  Pass 1  IDiag  1:
 RMSU=  3.80D-07    CP:  6.61D-01  9.23D-01  6.91D-01  8.71D-01  1.16D+00
                    CP:  1.19D+00  1.23D+00  1.16D+00  1.51D+00  1.20D+00
 E= -440.142597182624     Delta-E=       -0.000000003243 Rises=F Damp=F
 DIIS: error= 1.10D-06 at cycle  11 NSaved=  11.
 NSaved=11 IEnMin=11 EnMin= -440.142597182624     IErMin=11 ErrMin= 1.10D-06
 ErrMax= 1.10D-06  0.00D+00 EMaxC= 1.00D-01 BMatC= 1.32D-10 BMatP= 1.32D-09
 IDIUse=1 WtCom= 1.00D+00 WtEn= 0.00D+00
 Coeff-Com: -0.430D-05-0.669D-04-0.775D-04 0.292D-03 0.311D-02 0.387D-02
 Coeff-Com: -0.889D-02-0.503D-01-0.451D-01 0.205D+00 0.892D+00
 Coeff:     -0.430D-05-0.669D-04-0.775D-04 0.292D-03 0.311D-02 0.387D-02
 Coeff:     -0.889D-02-0.503D-01-0.451D-01 0.205D+00 0.892D+00
 Gap=     0.351 Goal=   None    Shift=    0.000
 RMSDP=2.80D-07 MaxDP=1.92D-05 DE=-3.24D-09 OVMax= 1.17D-05

 Cycle  12  Pass 1  IDiag  1:
 RMSU=  1.13D-07    CP:  6.61D-01  9.23D-01  6.91D-01  8.71D-01  1.16D+00
                    CP:  1.19D+00  1.23D+00  1.15D+00  1.55D+00  1.31D+00
                    CP:  1.31D+00
 E= -440.142597182990     Delta-E=       -0.000000000365 Rises=F Damp=F
 DIIS: error= 2.48D-07 at cycle  12 NSaved=  12.
 NSaved=12 IEnMin=12 EnMin= -440.142597182990     IErMin=12 ErrMin= 2.48D-07
 ErrMax= 2.48D-07  0.00D+00 EMaxC= 1.00D-01 BMatC= 1.31D-11 BMatP= 1.32D-10
 IDIUse=1 WtCom= 1.00D+00 WtEn= 0.00D+00
 Coeff-Com: -0.894D-06-0.221D-04-0.317D-04-0.434D-04-0.214D-03 0.165D-03
 Coeff-Com:  0.411D-02 0.419D-02-0.265D-01-0.759D-01 0.943D-01 0.100D+01
 Coeff:     -0.894D-06-0.221D-04-0.317D-04-0.434D-04-0.214D-03 0.165D-03
 Coeff:      0.411D-02 0.419D-02-0.265D-01-0.759D-01 0.943D-01 0.100D+01
 Gap=     0.351 Goal=   None    Shift=    0.000
 RMSDP=1.05D-07 MaxDP=3.16D-06 DE=-3.65D-10 OVMax= 4.30D-06

 Cycle  13  Pass 1  IDiag  1:
 RMSU=  3.81D-08    CP:  6.61D-01  9.23D-01  6.91D-01  8.71D-01  1.16D+00
                    CP:  1.19D+00  1.23D+00  1.15D+00  1.55D+00  1.33D+00
                    CP:  1.44D+00  1.33D+00
 E= -440.142597183037     Delta-E=       -0.000000000048 Rises=F Damp=F
 DIIS: error= 9.27D-08 at cycle  13 NSaved=  13.
 NSaved=13 IEnMin=13 EnMin= -440.142597183037     IErMin=13 ErrMin= 9.27D-08
 ErrMax= 9.27D-08  0.00D+00 EMaxC= 1.00D-01 BMatC= 2.15D-12 BMatP= 1.31D-11
 IDIUse=1 WtCom= 1.00D+00 WtEn= 0.00D+00
 Coeff-Com:  0.154D-06 0.808D-06-0.113D-05-0.381D-04-0.409D-03-0.356D-03
 Coeff-Com:  0.205D-02 0.660D-02-0.313D-02-0.448D-01-0.795D-01 0.269D+00
 Coeff-Com:  0.851D+00
 Coeff:      0.154D-06 0.808D-06-0.113D-05-0.381D-04-0.409D-03-0.356D-03
 Coeff:      0.205D-02 0.660D-02-0.313D-02-0.448D-01-0.795D-01 0.269D+00
 Coeff:      0.851D+00
 Gap=     0.351 Goal=   None    Shift=    0.000
 RMSDP=3.16D-08 MaxDP=9.71D-07 DE=-4.75D-11 OVMax= 1.61D-06

 Cycle  14  Pass 1  IDiag  1:
 RMSU=  1.53D-08    CP:  6.61D-01  9.23D-01  6.91D-01  8.71D-01  1.16D+00
                    CP:  1.19D+00  1.23D+00  1.15D+00  1.55D+00  1.33D+00
                    CP:  1.48D+00  1.40D+00  1.25D+00
 E= -440.142597183040     Delta-E=       -0.000000000003 Rises=F Damp=F
 DIIS: error= 3.76D-08 at cycle  14 NSaved=  14.
 NSaved=14 IEnMin=14 EnMin= -440.142597183040     IErMin=14 ErrMin= 3.76D-08
 ErrMax= 3.76D-08  0.00D+00 EMaxC= 1.00D-01 BMatC= 2.50D-13 BMatP= 2.15D-12
 IDIUse=1 WtCom= 1.00D+00 WtEn= 0.00D+00
 Coeff-Com:  0.116D-06 0.237D-05 0.276D-05-0.228D-05-0.529D-04-0.758D-04
 Coeff-Com: -0.108D-03 0.750D-03 0.246D-02 0.149D-02-0.278D-01-0.741D-01
 Coeff-Com:  0.196D+00 0.901D+00
 Coeff:      0.116D-06 0.237D-05 0.276D-05-0.228D-05-0.529D-04-0.758D-04
 Coeff:     -0.108D-03 0.750D-03 0.246D-02 0.149D-02-0.278D-01-0.741D-01
 Coeff:      0.196D+00 0.901D+00
 Gap=     0.351 Goal=   None    Shift=    0.000
 RMSDP=1.30D-08 MaxDP=1.03D-06 DE=-2.96D-12 OVMax= 5.73D-07

 Cycle  15  Pass 1  IDiag  1:
 RMSU=  5.28D-09    CP:  6.61D-01  9.23D-01  6.91D-01  8.71D-01  1.16D+00
                    CP:  1.19D+00  1.23D+00  1.15D+00  1.55D+00  1.33D+00
                    CP:  1.47D+00  1.43D+00  1.38D+00  1.28D+00
 E= -440.142597183042     Delta-E=       -0.000000000002 Rises=F Damp=F
 DIIS: error= 1.77D-08 at cycle  15 NSaved=  15.
 NSaved=15 IEnMin=15 EnMin= -440.142597183042     IErMin=15 ErrMin= 1.77D-08
 ErrMax= 1.77D-08  0.00D+00 EMaxC= 1.00D-01 BMatC= 3.05D-14 BMatP= 2.50D-13
 IDIUse=1 WtCom= 1.00D+00 WtEn= 0.00D+00
 Coeff-Com: -0.355D-09 0.342D-06 0.626D-06 0.493D-05 0.448D-04 0.363D-04
 Coeff-Com: -0.298D-03-0.708D-03 0.880D-03 0.625D-02 0.593D-02-0.516D-01
 Coeff-Com: -0.721D-01 0.142D+00 0.970D+00
 Coeff:     -0.355D-09 0.342D-06 0.626D-06 0.493D-05 0.448D-04 0.363D-04
 Coeff:     -0.298D-03-0.708D-03 0.880D-03 0.625D-02 0.593D-02-0.516D-01
 Coeff:     -0.721D-01 0.142D+00 0.970D+00
 Gap=     0.351 Goal=   None    Shift=    0.000
 RMSDP=6.00D-09 MaxDP=3.95D-07 DE=-1.82D-12 OVMax= 2.74D-07

 SCF Done:  E(RwB97XD) =  -440.142597183     A.U. after   15 cycles
            NFock= 15  Conv=0.60D-08     -V/T= 2.0003
 KE= 4.400214074075D+02 PE=-2.010635967501D+03 EE= 6.383807289117D+02
 Leave Link  502 at Tue Nov 22 19:13:17 2022, MaxMem= 16106127360 cpu:             588.7 elap:              18.5
 (Enter /opt/ap/G16/B01/g16/l601.exe)
 Copying SCF densities to generalized density rwf, IOpCl= 0 IROHF=0.

 **********************************************************************

            Population analysis using the SCF Density.

 **********************************************************************

 Orbital symmetries:
       Occupied  (A) (A) (A) (A) (A) (A) (A) (A) (A) (A) (A) (A)
                 (A) (A) (A) (A) (A) (A) (A) (A) (A) (A) (A) (A)
                 (A) (A) (A) (A) (A) (A) (A) (A) (A) (A) (A) (A)
       Virtual   (A) (A) (A) (A) (A) (A) (A) (A) (A) (A) (A) (A)
                 (A) (A) (A) (A) (A) (A) (A) (A) (A) (A) (A) (A)
                 (A) (A) (A) (A) (A) (A) (A) (A) (A) (A) (A) (A)
                 (A) (A) (A) (A) (A) (A) (A) (A) (A) (A) (A) (A)
                 (A) (A) (A) (A) (A) (A) (A) (A) (A) (A) (A) (A)
                 (A) (A) (A) (A) (A) (A) (A) (A) (A) (A) (A) (A)
                 (A) (A) (A) (A) (A) (A) (A) (A) (A) (A) (A) (A)
                 (A) (A) (A) (A) (A) (A) (A) (A) (A) (A) (A) (A)
                 (A) (A) (A) (A) (A) (A) (A) (A) (A) (A) (A) (A)
                 (A) (A) (A) (A) (A) (A) (A) (A) (A) (A) (A) (A)
                 (A) (A) (A) (A) (A) (A) (A) (A) (A) (A) (A) (A)
                 (A) (A) (A) (A) (A) (A) (A) (A) (A) (A) (A) (A)
                 (A) (A) (A) (A) (A) (A) (A) (A) (A) (A) (A) (A)
                 (A) (A) (A) (A) (A) (A) (A) (A) (A) (A) (A) (A)
                 (A) (A) (A) (A) (A) (A) (A) (A) (A) (A) (A) (A)
                 (A) (A) (A) (A) (A) (A) (A) (A) (A) (A) (A) (A)
                 (A) (A) (A) (A) (A) (A) (A) (A) (A) (A) (A) (A)
                 (A) (A) (A) (A) (A) (A) (A) (A) (A) (A) (A) (A)
                 (A) (A) (A) (A) (A) (A) (A) (A) (A) (A) (A) (A)
                 (A) (A) (A) (A) (A) (A) (A) (A) (A) (A) (A) (A)
                 (A) (A) (A) (A) (A) (A)
 The electronic state is 1-A.
 Alpha  occ. eigenvalues --  -19.21003 -14.46339 -10.39583 -10.33518 -10.28386
 Alpha  occ. eigenvalues --  -10.28252 -10.27978 -10.27812 -10.27421 -10.26128
 Alpha  occ. eigenvalues --   -1.14167  -1.05764  -0.96410  -0.88386  -0.86586
 Alpha  occ. eigenvalues --   -0.84635  -0.74087  -0.73216  -0.69716  -0.65762
 Alpha  occ. eigenvalues --   -0.61276  -0.58619  -0.56422  -0.55310  -0.54314
 Alpha  occ. eigenvalues --   -0.52982  -0.51467  -0.49702  -0.47916  -0.46071
 Alpha  occ. eigenvalues --   -0.45320  -0.44419  -0.37644  -0.34600  -0.33286
 Alpha  occ. eigenvalues --   -0.31627
 Alpha virt. eigenvalues --    0.03440   0.04387   0.04555   0.05024   0.05294
 Alpha virt. eigenvalues --    0.06238   0.06834   0.06950   0.08572   0.09110
 Alpha virt. eigenvalues --    0.10330   0.10528   0.11463   0.12584   0.13424
 Alpha virt. eigenvalues --    0.13872   0.14616   0.15716   0.16015   0.16364
 Alpha virt. eigenvalues --    0.16776   0.17463   0.17929   0.18096   0.18578
 Alpha virt. eigenvalues --    0.19084   0.19279   0.19813   0.20376   0.20620
 Alpha virt. eigenvalues --    0.20782   0.21490   0.22610   0.22932   0.23664
 Alpha virt. eigenvalues --    0.23950   0.24838   0.25290   0.26199   0.26764
 Alpha virt. eigenvalues --    0.27355   0.28021   0.28541   0.29267   0.29651
 Alpha virt. eigenvalues --    0.30394   0.31163   0.31768   0.32703   0.33950
 Alpha virt. eigenvalues --    0.34330   0.34859   0.36409   0.37207   0.37700
 Alpha virt. eigenvalues --    0.38440   0.38643   0.39830   0.40194   0.40496
 Alpha virt. eigenvalues --    0.42497   0.43528   0.44029   0.44563   0.45565
 Alpha virt. eigenvalues --    0.46408   0.46997   0.50077   0.54120   0.55089
 Alpha virt. eigenvalues --    0.57851   0.58035   0.59253   0.62763   0.63231
 Alpha virt. eigenvalues --    0.64271   0.65369   0.65917   0.66072   0.66663
 Alpha virt. eigenvalues --    0.68598   0.69561   0.70189   0.72710   0.73792
 Alpha virt. eigenvalues --    0.74091   0.75565   0.76545   0.77334   0.78862
 Alpha virt. eigenvalues --    0.79416   0.81295   0.82580   0.83246   0.84571
 Alpha virt. eigenvalues --    0.86166   0.88355   0.88814   0.92162   0.93423
 Alpha virt. eigenvalues --    0.94202   0.94383   0.95102   0.96377   0.97159
 Alpha virt. eigenvalues --    0.98672   1.00021   1.00104   1.02797   1.05470
 Alpha virt. eigenvalues --    1.08005   1.10257   1.10911   1.13632   1.14431
 Alpha virt. eigenvalues --    1.17092   1.17721   1.18674   1.22348   1.24106
 Alpha virt. eigenvalues --    1.24613   1.28981   1.32541   1.35319   1.38686
 Alpha virt. eigenvalues --    1.42070   1.43419   1.46192   1.53485   1.54896
 Alpha virt. eigenvalues --    1.56778   1.60939   1.62179   1.62483   1.65097
 Alpha virt. eigenvalues --    1.66962   1.67285   1.68098   1.68699   1.69603
 Alpha virt. eigenvalues --    1.70773   1.71456   1.75205   1.76983   1.79770
 Alpha virt. eigenvalues --    1.81528   1.84899   1.87299   1.88938   1.90815
 Alpha virt. eigenvalues --    1.92657   1.94356   1.96527   1.97352   1.99021
 Alpha virt. eigenvalues --    2.01841   2.02274   2.04546   2.06709   2.07321
 Alpha virt. eigenvalues --    2.09492   2.11039   2.12592   2.14295   2.14818
 Alpha virt. eigenvalues --    2.21221   2.25494   2.27301   2.31260   2.35843
 Alpha virt. eigenvalues --    2.39115   2.42482   2.46115   2.50208   2.51992
 Alpha virt. eigenvalues --    2.53085   2.55212   2.59186   2.61255   2.64440
 Alpha virt. eigenvalues --    2.65880   2.68668   2.71970   2.74158   2.75267
 Alpha virt. eigenvalues --    2.80361   2.80949   2.82580   2.83406   2.84432
 Alpha virt. eigenvalues --    2.86918   2.90153   2.91217   2.92061   2.93968
 Alpha virt. eigenvalues --    2.94597   2.94859   2.98294   3.00726   3.02548
 Alpha virt. eigenvalues --    3.03619   3.04543   3.05241   3.10225   3.14726
 Alpha virt. eigenvalues --    3.20239   3.21796   3.23179   3.26535   3.30376
 Alpha virt. eigenvalues --    3.43014   3.44601   3.45524   3.48956   3.50907
 Alpha virt. eigenvalues --    3.62459   3.68180   3.71151   3.74373   3.91322
 Alpha virt. eigenvalues --    4.00749   4.03984   4.09077   4.13183   4.17516
 Alpha virt. eigenvalues --    4.30624   4.34539   4.38419   4.39550   4.44995
 Alpha virt. eigenvalues --    4.95740   5.17640   5.20341   5.20623   5.37572
 Alpha virt. eigenvalues --    5.90296  23.88757  23.98918  24.14976  24.22866
 Alpha virt. eigenvalues --   24.29962  24.33340  24.38152  24.42740  35.87975
 Alpha virt. eigenvalues --   50.16662
          Condensed to atoms (all electrons):
               1          2          3          4          5          6
     1  C    6.621090   0.006075   0.125538  -0.200064  -0.147973   0.161372
     2  C    0.006075   7.317051  -1.474166   0.071555   0.646654  -0.144012
     3  C    0.125538  -1.474166   6.648731   0.400058  -0.097316  -0.136227
     4  C   -0.200064   0.071555   0.400058   5.283117  -0.067089  -0.052073
     5  H   -0.147973   0.646654  -0.097316  -0.067089   0.508283  -0.001789
     6  N    0.161372  -0.144012  -0.136227  -0.052073  -0.001789   7.470694
     7  C   -0.346710   0.553236   0.192611  -0.201612   0.037843  -0.030557
     8  H   -0.126326  -0.091822   0.561434   0.020519  -0.003314  -0.021016
     9  C    0.088606  -0.444788  -0.216933   0.499758  -0.015231   0.040347
    10  H    0.029091  -0.112139   0.031459   0.434920  -0.013625  -0.004816
    11  C   -0.197499  -0.201550   0.055663   0.023221  -0.016099  -0.012995
    12  H   -0.021905  -0.048795   0.014142  -0.008157  -0.000976   0.354012
    13  H    0.026609   0.046340  -0.095217  -0.007851   0.002321  -0.003974
    14  H    0.017886  -0.002511  -0.021592  -0.061715  -0.000633   0.002282
    15  C   -0.006759  -0.037008   0.036779   0.025861  -0.004166  -0.412023
    16  O    0.017346  -0.003741  -0.024439   0.016221  -0.003938  -0.151567
    17  H    0.005972  -0.008891   0.002249  -0.000205  -0.000170   0.002487
    18  H   -0.010639   0.002059   0.001264  -0.000683  -0.000105   0.004902
    19  H    0.014826  -0.008545   0.016597   0.000347   0.001770   0.020348
               7          8          9         10         11         12
     1  C   -0.346710  -0.126326   0.088606   0.029091  -0.197499  -0.021905
     2  C    0.553236  -0.091822  -0.444788  -0.112139  -0.201550  -0.048795
     3  C    0.192611   0.561434  -0.216933   0.031459   0.055663   0.014142
     4  C   -0.201612   0.020519   0.499758   0.434920   0.023221  -0.008157
     5  H    0.037843  -0.003314  -0.015231  -0.013625  -0.016099  -0.000976
     6  N   -0.030557  -0.021016   0.040347  -0.004816  -0.012995   0.354012
     7  C    5.495678  -0.033709   0.425691  -0.017911  -0.124227  -0.007269
     8  H   -0.033709   0.477095   0.019424   0.001193   0.018544  -0.000784
     9  C    0.425691   0.019424   5.582811  -0.031345   0.004502   0.012376
    10  H   -0.017911   0.001193  -0.031345   0.487377   0.001227  -0.000120
    11  C   -0.124227   0.018544   0.004502   0.001227   6.034339   0.050137
    12  H   -0.007269  -0.000784   0.012376  -0.000120   0.050137   0.366724
    13  H    0.425687  -0.012283  -0.066303  -0.001079  -0.000937  -0.000059
    14  H   -0.048090   0.000594   0.466647  -0.008312  -0.002202   0.000336
    15  C    0.006024   0.001447  -0.013244   0.000750  -0.121483  -0.026569
    16  O   -0.031181  -0.009387  -0.003516   0.000391   0.478833   0.005329
    17  H   -0.002235  -0.000339  -0.000160  -0.000022  -0.039127  -0.000449
    18  H    0.001671  -0.001765   0.000119  -0.000006  -0.028533   0.002418
    19  H    0.002156   0.001515  -0.001434   0.000051  -0.088246  -0.009392
              13         14         15         16         17         18
     1  C    0.026609   0.017886  -0.006759   0.017346   0.005972  -0.010639
     2  C    0.046340  -0.002511  -0.037008  -0.003741  -0.008891   0.002059
     3  C   -0.095217  -0.021592   0.036779  -0.024439   0.002249   0.001264
     4  C   -0.007851  -0.061715   0.025861   0.016221  -0.000205  -0.000683
     5  H    0.002321  -0.000633  -0.004166  -0.003938  -0.000170  -0.000105
     6  N   -0.003974   0.002282  -0.412023  -0.151567   0.002487   0.004902
     7  C    0.425687  -0.048090   0.006024  -0.031181  -0.002235   0.001671
     8  H   -0.012283   0.000594   0.001447  -0.009387  -0.000339  -0.001765
     9  C   -0.066303   0.466647  -0.013244  -0.003516  -0.000160   0.000119
    10  H   -0.001079  -0.008312   0.000750   0.000391  -0.000022  -0.000006
    11  C   -0.000937  -0.002202  -0.121483   0.478833  -0.039127  -0.028533
    12  H   -0.000059   0.000336  -0.026569   0.005329  -0.000449   0.002418
    13  H    0.486392  -0.009840  -0.000071   0.000039   0.000031   0.000004
    14  H   -0.009840   0.493700  -0.000462  -0.000351  -0.000010  -0.000007
    15  C   -0.000071  -0.000462   5.882299  -0.013403   0.412759   0.415917
    16  O    0.000039  -0.000351  -0.013403   8.082676  -0.008010  -0.005577
    17  H    0.000031  -0.000010   0.412759  -0.008010   0.498835  -0.027935
    18  H    0.000004  -0.000007   0.415917  -0.005577  -0.027935   0.497870
    19  H    0.000030  -0.000020   0.393407   0.008603  -0.030797  -0.039403
              19
     1  C    0.014826
     2  C   -0.008545
     3  C    0.016597
     4  C    0.000347
     5  H    0.001770
     6  N    0.020348
     7  C    0.002156
     8  H    0.001515
     9  C   -0.001434
    10  H    0.000051
    11  C   -0.088246
    12  H   -0.009392
    13  H    0.000030
    14  H   -0.000020
    15  C    0.393407
    16  O    0.008603
    17  H   -0.030797
    18  H   -0.039403
    19  H    0.607473
 Mulliken charges:
               1
     1  C   -0.056536
     2  C   -0.065002
     3  C   -0.020635
     4  C   -0.176127
     5  H    0.175552
     6  N   -0.085397
     7  C   -0.297096
     8  H    0.198979
     9  C   -0.347326
    10  H    0.202916
    11  C    0.166432
    12  H    0.318999
    13  H    0.210163
    14  H    0.174298
    15  C   -0.540056
    16  O   -0.354328
    17  H    0.196016
    18  H    0.188430
    19  H    0.110715
 Sum of Mulliken charges =  -0.00000
 Mulliken charges with hydrogens summed into heavy atoms:
               1
     1  C   -0.056536
     2  C    0.110550
     3  C    0.178345
     4  C    0.026789
     6  N    0.233602
     7  C   -0.086932
     9  C   -0.173028
    11  C    0.166432
    15  C   -0.044895
    16  O   -0.354328
 Electronic spatial extent (au):  <R**2>=           1655.1925
 Charge=             -0.0000 electrons
 Dipole moment (field-independent basis, Debye):
    X=             -0.1227    Y=             -3.0455    Z=             -2.1985  Tot=              3.7581
 Quadrupole moment (field-independent basis, Debye-Ang):
   XX=            -49.5213   YY=            -55.6672   ZZ=            -62.0569
   XY=             -6.7966   XZ=             -5.3504   YZ=             -3.0851
 Traceless Quadrupole moment (field-independent basis, Debye-Ang):
   XX=              6.2272   YY=              0.0813   ZZ=             -6.3085
   XY=             -6.7966   XZ=             -5.3504   YZ=             -3.0851
 Octapole moment (field-independent basis, Debye-Ang**2):
  XXX=             16.3600  YYY=             -4.5417  ZZZ=             -0.5682  XYY=             -6.6760
  XXY=            -11.3067  XXZ=             -4.3956  XZZ=              9.3926  YZZ=             -3.6220
  YYZ=             -5.2705  XYZ=             -0.7987
 Hexadecapole moment (field-independent basis, Debye-Ang**3):
 XXXX=          -1543.2306 YYYY=           -344.1635 ZZZZ=           -124.8244 XXXY=            -27.9769
 XXXZ=            -27.4526 YYYX=            -12.4573 YYYZ=             -7.4197 ZZZX=             -1.7231
 ZZZY=              3.2255 XXYY=           -341.1732 XXZZ=           -324.3798 YYZZ=            -83.1307
 XXYZ=            -19.3837 YYXZ=            -12.4542 ZZXY=             -6.3387
 N-N= 4.920912339990D+02 E-N=-2.010635966925D+03  KE= 4.400214074075D+02
 No NMR shielding tensors so no spin-rotation constants.
 Leave Link  601 at Tue Nov 22 19:13:17 2022, MaxMem= 16106127360 cpu:               3.9 elap:               0.1
 (Enter /opt/ap/G16/B01/g16/l9999.exe)
 1\1\GINC-N36\SP\RwB97XD\6-311++G(d,p)\C8H9N1O1\ROOT\22-Nov-2022\0\\#P 
 wB97XD/6-311++G(d,p) scf=maxcycle=512\\_conf046.gjf nmol_natom 1_19\\0
 ,1\C\C,1,1.39447505\C,1,1.39873503,2,119.56697224\C,2,1.39066123,1,119
 .42697207,3,2.53915756,0\H,2,0.96213008,1,119.8046163,3,-177.79870417,
 0\N,1,1.41693372,2,123.72220125,4,-177.74604849,0\C,3,1.38667133,1,120
 .18759987,2,-2.5020857,0\H,3,0.95673174,1,118.82085988,2,177.96737168,
 0\C,4,1.38268572,2,121.03929493,1,-0.41221113,0\H,4,0.9858595,2,118.57
 91267,1,178.77373233,0\C,6,1.35500692,1,127.62132737,2,-130.,0\H,6,0.8
 9609466,1,115.10511997,2,50.,0\H,7,0.98847198,3,119.08117704,1,-179.64
 585354,0\H,9,0.98451201,4,120.53755637,2,177.22743544,0\C,11,1.5027456
 1,6,115.46861532,1,175.89235465,0\O,11,1.23496495,6,123.15099888,1,-3.
 40672617,0\H,15,0.98719837,11,107.47091875,6,-116.36962839,0\H,15,0.99
 976021,11,109.69443261,6,128.85346087,0\H,15,0.97696155,11,114.3700887
 1,6,6.05302844,0\\Version=ES64L-G16RevB.01\State=1-A\HF=-440.1425972\R
 MSD=5.999e-09\Dipole=-0.7608598,1.093843,0.6408479\Quadrupole=7.555544
 4,-6.8584598,-0.6970846,-0.9948133,2.1088279,-3.2549104\PG=C01 [X(C8H9
 N1O1)]\\@


 A SCIENTIST IS SOMEONE WHOSE CURIOSITY SURVIVES
 EDUCATION'S ASSAULTS ON IT.
                          - SIR HERMANN BONDI
 Job cpu time:       0 days  0 hours 10 minutes 27.5 seconds.
 Elapsed time:       0 days  0 hours  0 minutes 19.8 seconds.
 File lengths (MBytes):  RWF=     46 Int=      0 D2E=      0 Chk=      6 Scr=      1
 Normal termination of Gaussian 16 at Tue Nov 22 19:13:17 2022.
