 Entering Gaussian System, Link 0=g16
 Input=_conf067.gjf
 Output=_conf067.log
 Initial command:
 /opt/ap/G16/B01/g16/l1.exe "/tmp2/scr/Gau-2163.inp" -scrdir="/tmp2/scr/"
 Entering Link 1 = /opt/ap/G16/B01/g16/l1.exe PID=      2164.
  
 Copyright (c) 1988-2017, Gaussian, Inc.  All Rights Reserved.
  
 This is part of the Gaussian(R) 16 program.  It is based on
 the Gaussian(R) 09 system (copyright 2009, Gaussian, Inc.),
 the Gaussian(R) 03 system (copyright 2003, Gaussian, Inc.),
 the Gaussian(R) 98 system (copyright 1998, Gaussian, Inc.),
 the Gaussian(R) 94 system (copyright 1995, Gaussian, Inc.),
 the Gaussian 92(TM) system (copyright 1992, Gaussian, Inc.),
 the Gaussian 90(TM) system (copyright 1990, Gaussian, Inc.),
 the Gaussian 88(TM) system (copyright 1988, Gaussian, Inc.),
 the Gaussian 86(TM) system (copyright 1986, Carnegie Mellon
 University), and the Gaussian 82(TM) system (copyright 1983,
 Carnegie Mellon University). Gaussian is a federally registered
 trademark of Gaussian, Inc.
  
 This software contains proprietary and confidential information,
 including trade secrets, belonging to Gaussian, Inc.
  
 This software is provided under written license and may be
 used, copied, transmitted, or stored only in accord with that
 written license.
  
 The following legend is applicable only to US Government
 contracts under FAR:
  
                    RESTRICTED RIGHTS LEGEND
  
 Use, reproduction and disclosure by the US Government is
 subject to restrictions as set forth in subparagraphs (a)
 and (c) of the Commercial Computer Software - Restricted
 Rights clause in FAR 52.227-19.
  
 Gaussian, Inc.
 340 Quinnipiac St., Bldg. 40, Wallingford CT 06492
  
  
 ---------------------------------------------------------------
 Warning -- This program may not be used in any manner that
 competes with the business of Gaussian, Inc. or will provide
 assistance to any competitor of Gaussian, Inc.  The licensee
 of this program is prohibited from giving any competitor of
 Gaussian, Inc. access to this program.  By using this program,
 the user acknowledges that Gaussian, Inc. is engaged in the
 business of creating and licensing software in the field of
 computational chemistry and represents and warrants to the
 licensee that it is not a competitor of Gaussian, Inc. and that
 it will not use this program in any manner prohibited above.
 ---------------------------------------------------------------
  

 Cite this work as:
 Gaussian 16, Revision B.01,
 M. J. Frisch, G. W. Trucks, H. B. Schlegel, G. E. Scuseria, 
 M. A. Robb, J. R. Cheeseman, G. Scalmani, V. Barone, 
 G. A. Petersson, H. Nakatsuji, X. Li, M. Caricato, A. V. Marenich, 
 J. Bloino, B. G. Janesko, R. Gomperts, B. Mennucci, H. P. Hratchian, 
 J. V. Ortiz, A. F. Izmaylov, J. L. Sonnenberg, D. Williams-Young, 
 F. Ding, F. Lipparini, F. Egidi, J. Goings, B. Peng, A. Petrone, 
 T. Henderson, D. Ranasinghe, V. G. Zakrzewski, J. Gao, N. Rega, 
 G. Zheng, W. Liang, M. Hada, M. Ehara, K. Toyota, R. Fukuda, 
 J. Hasegawa, M. Ishida, T. Nakajima, Y. Honda, O. Kitao, H. Nakai, 
 T. Vreven, K. Throssell, J. A. Montgomery, Jr., J. E. Peralta, 
 F. Ogliaro, M. J. Bearpark, J. J. Heyd, E. N. Brothers, K. N. Kudin, 
 V. N. Staroverov, T. A. Keith, R. Kobayashi, J. Normand, 
 K. Raghavachari, A. P. Rendell, J. C. Burant, S. S. Iyengar, 
 J. Tomasi, M. Cossi, J. M. Millam, M. Klene, C. Adamo, R. Cammi, 
 J. W. Ochterski, R. L. Martin, K. Morokuma, O. Farkas, 
 J. B. Foresman, and D. J. Fox, Gaussian, Inc., Wallingford CT, 2016.
 
 ******************************************
 Gaussian 16:  ES64L-G16RevB.01 20-Dec-2017
                22-Nov-2022 
 ******************************************
 %nprocshared=32
 Will use up to   32 processors via shared memory.
 %mem=120GB
 %chk=_conf067.chk
 ----------------------------------------
 #P wB97XD/6-311++G(d,p) scf=maxcycle=512
 ----------------------------------------
 1/38=1,172=1/1;
 2/12=2,17=6,18=5,40=1/2;
 3/5=4,6=6,7=1111,11=2,25=1,30=1,74=-58/1,2,3;
 4//1;
 5/5=2,7=512,38=5/2;
 6/7=2,8=2,9=2,10=2,28=1/1;
 99/5=1,9=1/99;
 Leave Link    1 at Tue Nov 22 19:14:31 2022, MaxMem= 16106127360 cpu:               1.8 elap:               0.1
 (Enter /opt/ap/G16/B01/g16/l101.exe)
 ----------------------------
 _conf067.gjf nmol_natom 1_19
 ----------------------------
 Symbolic Z-matrix:
 Charge =  0 Multiplicity = 1
 C
 C                    1     1.39448 
 C                    1     1.39874  2     119.56697 
 C                    2     1.39066  1     119.42697  3     2.53916  0
 H                    2     0.96213  1     119.80462  3    -177.7987  0
 N                    1     1.41693  2     123.7222  4    -177.74605  0
 C                    3     1.38667  1     120.1876  2    -2.50209  0
 H                    3     0.95673  1     118.82086  2     177.96737  0
 C                    4     1.38269  2     121.03929  1    -0.41221  0
 H                    4     0.98586  2     118.57913  1     178.77373  0
 C                    6     1.35501  1     127.62133  2    -25.      0
 H                    6     0.89609  1     115.10512  2     155.     0
 H                    7     0.98847  3     119.08118  1    -179.64585  0
 H                    9     0.98451  4     120.53756  2     177.22744  0
 C                    11    1.50275  6     115.46862  1     175.89235  0
 O                    11    1.23496  6     123.151  1    -3.40673  0
 H                    15    0.9872   11    107.47092  6    -116.36963  0
 H                    15    0.99976  11    109.69443  6     128.85346  0
 H                    15    0.97696  11    114.37009  6     6.05303  0
 
 ITRead=  0  0  0  0  0  0  0  0  0  0  0  0  0  0  0  0  0  0  0
 MicOpt= -1 -1 -1 -1 -1 -1 -1 -1 -1 -1 -1 -1 -1 -1 -1 -1 -1 -1 -1
 NAtoms=     19 NQM=       19 NQMF=       0 NMMI=      0 NMMIF=      0
                NMic=       0 NMicF=      0.
                    Isotopes and Nuclear Properties:
 (Nuclear quadrupole moments (NQMom) in fm**2, nuclear magnetic moments (NMagM)
  in nuclear magnetons)

  Atom         1           2           3           4           5           6           7           8           9          10
 IAtWgt=          12          12          12          12           1          14          12           1          12           1
 AtmWgt=  12.0000000  12.0000000  12.0000000  12.0000000   1.0078250  14.0030740  12.0000000   1.0078250  12.0000000   1.0078250
 NucSpn=           0           0           0           0           1           2           0           1           0           1
 AtZEff=  -0.0000000  -0.0000000  -0.0000000  -0.0000000  -0.0000000  -0.0000000  -0.0000000  -0.0000000  -0.0000000  -0.0000000
 NQMom=    0.0000000   0.0000000   0.0000000   0.0000000   0.0000000   2.0440000   0.0000000   0.0000000   0.0000000   0.0000000
 NMagM=    0.0000000   0.0000000   0.0000000   0.0000000   2.7928460   0.4037610   0.0000000   2.7928460   0.0000000   2.7928460
 AtZNuc=   6.0000000   6.0000000   6.0000000   6.0000000   1.0000000   7.0000000   6.0000000   1.0000000   6.0000000   1.0000000

  Atom        11          12          13          14          15          16          17          18          19
 IAtWgt=          12           1           1           1          12          16           1           1           1
 AtmWgt=  12.0000000   1.0078250   1.0078250   1.0078250  12.0000000  15.9949146   1.0078250   1.0078250   1.0078250
 NucSpn=           0           1           1           1           0           0           1           1           1
 AtZEff=  -0.0000000  -0.0000000  -0.0000000  -0.0000000  -0.0000000  -0.0000000  -0.0000000  -0.0000000  -0.0000000
 NQMom=    0.0000000   0.0000000   0.0000000   0.0000000   0.0000000   0.0000000   0.0000000   0.0000000   0.0000000
 NMagM=    0.0000000   2.7928460   2.7928460   2.7928460   0.0000000   0.0000000   2.7928460   2.7928460   2.7928460
 AtZNuc=   6.0000000   1.0000000   1.0000000   1.0000000   6.0000000   8.0000000   1.0000000   1.0000000   1.0000000
 Leave Link  101 at Tue Nov 22 19:14:31 2022, MaxMem= 16106127360 cpu:               5.1 elap:               0.2
 (Enter /opt/ap/G16/B01/g16/l202.exe)
                          Input orientation:                          
 ---------------------------------------------------------------------
 Center     Atomic      Atomic             Coordinates (Angstroms)
 Number     Number       Type             X           Y           Z
 ---------------------------------------------------------------------
      1          6           0        0.000000    0.000000    0.000000
      2          6           0        0.000000    0.000000    1.394475
      3          6           0        1.216591    0.000000   -0.690193
      4          6           0        1.210053    0.053661    2.077726
      5          1           0       -0.834249   -0.032067    1.872696
      6          7           0       -1.178505   -0.005866   -0.786634
      7          6           0        2.413939    0.052326    0.007287
      8          1           0        1.204393   -0.029731   -1.646384
      9          6           0        2.412261    0.098442    1.396177
     10          1           0        1.194755    0.071528    3.063305
     11          6           0       -2.404213   -0.465548   -0.436813
     12          1           0       -1.088158    0.337518   -1.609380
     13          1           0        3.263999    0.056828   -0.497149
     14          1           0        3.262484    0.177260    1.886251
     15          6           0       -3.489582   -0.250073   -1.453567
     16          8           0       -2.636152   -1.014728    0.644735
     17          1           0       -4.158725    0.352886   -1.049527
     18          1           0       -3.965123   -1.112298   -1.626627
     19          1           0       -3.178492    0.117703   -2.303518
 ---------------------------------------------------------------------
                    Distance matrix (angstroms):
                    1          2          3          4          5
     1  C    0.000000
     2  C    1.394475   0.000000
     3  C    1.398735   2.413697   0.000000
     4  C    2.405006   1.390661   2.768447   0.000000
     5  H    2.050363   0.962130   3.282586   2.056345   0.000000
     6  N    1.416934   2.479142   2.397044   3.730055   2.681648
     7  C    2.414517   2.784624   1.386671   2.395008   3.746678
     8  H    2.040105   3.270821   0.956732   3.725048   4.066939
     9  C    2.788908   2.414270   2.406711   1.382686   3.283889
    10  H    3.288829   2.053668   3.754243   0.985860   2.354812
    11  C    2.487525   3.057873   3.659393   4.433441   2.826044
    12  H    1.971829   3.212655   2.504135   4.353975   3.510829
    13  H    3.302132   3.772951   2.057273   3.293734   4.734944
    14  H    3.772687   3.304099   3.294718   2.065046   4.102100
    15  C    3.788479   4.511215   4.774237   5.886327   4.261730
    16  O    2.897353   2.922513   4.201825   4.241251   2.391729
    17  H    4.303607   4.836597   5.398858   6.220371   4.442940
    18  H    4.427790   5.107491   5.381847   6.470250   4.818146
    19  H    3.927195   4.877686   4.683314   6.201510   4.791521
                    6          7          8          9         10
     6  N    0.000000
     7  C    3.679585   0.000000
     8  H    2.533365   2.050454   0.000000
     9  C    4.203468   1.389657   3.276058   0.000000
    10  H    4.523316   3.290292   4.710788   2.064548   0.000000
    11  C    1.355007   4.866210   3.830801   5.184241   5.048945
    12  H    0.896095   3.867768   2.322074   4.619899   5.207344
    13  H    4.452366   0.988472   2.360129   2.076505   4.118108
    14  H    5.186544   2.065465   4.093666   0.984512   2.381625
    15  C    2.417750   6.089097   4.703098   6.563098   6.515257
    16  O    2.278455   5.200804   4.579218   5.224011   4.658893
    17  H    3.013226   6.663865   5.409775   7.015987   6.756797
    18  H    3.113683   6.687186   5.281689   7.160605   7.072570
    19  H    2.513196   6.051395   4.434325   6.704076   6.923165
                   11         12         13         14         15
    11  C    0.000000
    12  H    1.936964   0.000000
    13  H    5.692551   4.500790   0.000000
    14  H    6.158026   5.583297   2.386441   0.000000
    15  C    1.502746   2.477172   6.827867   7.545025   0.000000
    16  O    1.234965   3.050555   6.104417   6.144600   2.390796
    17  H    2.030657   3.121227   7.449134   7.982731   0.987198
    18  H    2.066491   3.221675   7.409640   8.138893   0.999760
    19  H    2.103397   2.213514   6.691215   7.684002   0.976962
                   16         17         18         19
    16  O    0.000000
    17  H    2.656900   0.000000
    18  H    2.633395   1.586598   0.000000
    19  H    3.204485   1.608931   1.609308   0.000000
 Stoichiometry    C8H9NO
 Framework group  C1[X(C8H9NO)]
 Deg. of freedom    51
 Full point group                 C1      NOp   1
 Largest Abelian subgroup         C1      NOp   1
 Largest concise Abelian subgroup C1      NOp   1
                         Standard orientation:                         
 ---------------------------------------------------------------------
 Center     Atomic      Atomic             Coordinates (Angstroms)
 Number     Number       Type             X           Y           Z
 ---------------------------------------------------------------------
      1          6           0        0.294821   -0.283352   -0.090555
      2          6           0        0.755182    1.025911   -0.226420
      3          6           0        1.209194   -1.315733    0.143048
      4          6           0        2.122070    1.277781   -0.180425
      5          1           0        0.126672    1.742860   -0.355477
      6          7           0       -1.071913   -0.648784   -0.169279
      7          6           0        2.568721   -1.046308    0.187234
      8          1           0        0.879170   -2.205580    0.263851
      9          6           0        3.030164    0.251941    0.006224
     10          1           0        2.434823    2.205526   -0.296157
     11          6           0       -2.152079    0.129707    0.082190
     12          1           0       -1.225188   -1.496711   -0.415273
     13          1           0        3.200731   -1.789098    0.348182
     14          1           0        3.997899    0.432685   -0.002964
     15          6           0       -3.485737   -0.511447   -0.179577
     16          8           0       -2.066390    1.293470    0.486482
     17          1           0       -3.921743   -0.003066   -0.904841
     18          1           0       -4.073499   -0.405897    0.622244
     19          1           0       -3.438363   -1.457990   -0.416782
 ---------------------------------------------------------------------
 Rotational constants (GHZ):           3.8034012           0.7872831           0.6666383
 Leave Link  202 at Tue Nov 22 19:14:31 2022, MaxMem= 16106127360 cpu:               1.0 elap:               0.0
 (Enter /opt/ap/G16/B01/g16/l301.exe)
 Standard basis: 6-311++G(d,p) (5D, 7F)
 Ernie: Thresh=  0.10000D-02 Tol=  0.10000D-05 Strict=F.
 There are   293 symmetry adapted cartesian basis functions of A   symmetry.
 There are   283 symmetry adapted basis functions of A   symmetry.
   283 basis functions,   441 primitive gaussians,   293 cartesian basis functions
    36 alpha electrons       36 beta electrons
       nuclear repulsion energy       491.6777032490 Hartrees.
 IExCor= 4639 DFT=T Ex+Corr=wB97XD ExCW=0 ScaHFX=  1.000000
 ScaDFX=  1.000000  1.000000  1.000000  1.000000 ScalE2=  1.000000  1.000000
 IRadAn=      5 IRanWt=     -1 IRanGd=            0 ICorTp=0 IEmpDi=121
 HFx  wShort=  0.000000 wLong=  0.200000 cFull=  0.222036 cShort=  0.000000 cLong=  0.777964
 DFx  wShort=  0.000000 wLong=  0.200000 cFull=  0.000000 cShort=  0.000000 cLong=  1.000000
 NAtoms=   19 NActive=   19 NUniq=   19 SFac= 1.00D+00 NAtFMM=   60 NAOKFM=F Big=F
 Integral buffers will be    131072 words long.
 Raffenetti 2 integral format.
 Two-electron integral symmetry is turned on.
 R6Disp:  Grimme-D2 Dispersion energy=       -0.0090702994 Hartrees.
 Nuclear repulsion after empirical dispersion term =      491.6686329497 Hartrees.
 Leave Link  301 at Tue Nov 22 19:14:31 2022, MaxMem= 16106127360 cpu:               1.2 elap:               0.0
 (Enter /opt/ap/G16/B01/g16/l302.exe)
 NPDir=0 NMtPBC=     1 NCelOv=     1 NCel=       1 NClECP=     1 NCelD=      1
         NCelK=      1 NCelE2=     1 NClLst=     1 CellRange=     0.0.
 One-electron integrals computed using PRISM.
 One-electron integral symmetry used in STVInt
 NBasis=   283 RedAO= T EigKep=  3.28D-06  NBF=   283
 NBsUse=   282 1.00D-06 EigRej=  9.30D-07 NBFU=   282
 Precomputing XC quadrature grid using
 IXCGrd= 4 IRadAn=           5 IRanWt=          -1 IRanGd=           0 AccXCQ= 0.00D+00.
 Generated NRdTot=       0 NPtTot=           0 NUsed=           0 NTot=          32
 NSgBfM=   293   293   293   293   293 MxSgAt=    19 MxSgA2=    19.
 Leave Link  302 at Tue Nov 22 19:14:31 2022, MaxMem= 16106127360 cpu:               6.3 elap:               0.2
 (Enter /opt/ap/G16/B01/g16/l303.exe)
 DipDrv:  MaxL=1.
 Leave Link  303 at Tue Nov 22 19:14:31 2022, MaxMem= 16106127360 cpu:               1.3 elap:               0.0
 (Enter /opt/ap/G16/B01/g16/l401.exe)
 ExpMin= 3.60D-02 ExpMax= 8.59D+03 ExpMxC= 1.30D+03 IAcc=3 IRadAn=         5 AccDes= 0.00D+00
 Harris functional with IExCor= 4639 and IRadAn=       5 diagonalized for initial guess.
 HarFok:  IExCor= 4639 AccDes= 0.00D+00 IRadAn=         5 IDoV= 1 UseB2=F ITyADJ=14
 ICtDFT=  3500011 ScaDFX=  1.000000  1.000000  1.000000  1.000000
 FoFCou: FMM=F IPFlag=           0 FMFlag=      100000 FMFlg1=           0
         NFxFlg=           0 DoJE=T BraDBF=F KetDBF=T FulRan=T
         wScrn=  0.000000 ICntrl=       500 IOpCl=  0 I1Cent=   200000004 NGrid=           0
         NMat0=    1 NMatS0=      1 NMatT0=    0 NMatD0=    1 NMtDS0=    0 NMtDT0=    0
 Petite list used in FoFCou.
 Harris En= -420.989205943060    
 JPrj=0 DoOrth=F DoCkMO=F.
 Leave Link  401 at Tue Nov 22 19:14:32 2022, MaxMem= 16106127360 cpu:              15.2 elap:               0.5
 (Enter /opt/ap/G16/B01/g16/l502.exe)
 Integral symmetry usage will be decided dynamically.
 Closed shell SCF:
 Using DIIS extrapolation, IDIIS=  1040.
 NGot= 16106127360 LenX= 16105943385 LenY= 16105857095
 Requested convergence on RMS density matrix=1.00D-08 within 512 cycles.
 Requested convergence on MAX density matrix=1.00D-06.
 Requested convergence on             energy=1.00D-06.
 No special actions if energy rises.
 Fock matrices will be formed incrementally for  20 cycles.

 Cycle   1  Pass 1  IDiag  1:
 FoFJK:  IHMeth= 1 ICntrl=       0 DoSepK=T KAlg= 0 I1Cent=           0 FoldK=F
 IRaf=         1 NMat=       1 IRICut=       1 DoRegI=T DoRafI=F ISym2E= 0 IDoP0=0 IntGTp=1.
 FoFCou: FMM=F IPFlag=           0 FMFlag=      100000 FMFlg1=           0
         NFxFlg=           0 DoJE=T BraDBF=F KetDBF=F FulRan=T
         wScrn=  0.000000 ICntrl=       500 IOpCl=  0 I1Cent=           0 NGrid=           0
         NMat0=    1 NMatS0=      1 NMatT0=    0 NMatD0=    1 NMtDS0=    0 NMtDT0=    0
 Symmetry not used in FoFCou.
 E= -439.989661158017    
 DIIS: error= 4.46D-02 at cycle   1 NSaved=   1.
 NSaved= 1 IEnMin= 1 EnMin= -439.989661158017     IErMin= 1 ErrMin= 4.46D-02
 ErrMax= 4.46D-02  0.00D+00 EMaxC= 1.00D-01 BMatC= 9.45D-01 BMatP= 9.45D-01
 IDIUse=3 WtCom= 5.54D-01 WtEn= 4.46D-01
 Coeff-Com:  0.100D+01
 Coeff-En:   0.100D+01
 Coeff:      0.100D+01
 Gap=     0.443 Goal=   None    Shift=    0.000
 GapD=    0.443 DampG=2.000 DampE=0.500 DampFc=1.0000 IDamp=-1.
 RMSDP=7.68D-03 MaxDP=6.21D-01              OVMax= 1.56D-01

 Cycle   2  Pass 1  IDiag  1:
 RMSU=  6.05D-03    CP:  8.02D-01
 E= -440.069388993558     Delta-E=       -0.079727835542 Rises=F Damp=F
 DIIS: error= 1.33D-02 at cycle   2 NSaved=   2.
 NSaved= 2 IEnMin= 2 EnMin= -440.069388993558     IErMin= 2 ErrMin= 1.33D-02
 ErrMax= 1.33D-02  0.00D+00 EMaxC= 1.00D-01 BMatC= 8.71D-02 BMatP= 9.45D-01
 IDIUse=3 WtCom= 8.67D-01 WtEn= 1.33D-01
 Coeff-Com:  0.162D+00 0.838D+00
 Coeff-En:   0.241D+00 0.759D+00
 Coeff:      0.172D+00 0.828D+00
 Gap=     0.454 Goal=   None    Shift=    0.000
 RMSDP=6.28D-03 MaxDP=2.50D-01 DE=-7.97D-02 OVMax= 1.24D-01

 Cycle   3  Pass 1  IDiag  1:
 RMSU=  4.84D-03    CP:  6.80D-01  5.45D-01
 E= -440.107819274947     Delta-E=       -0.038430281388 Rises=F Damp=F
 DIIS: error= 1.00D-02 at cycle   3 NSaved=   3.
 NSaved= 3 IEnMin= 3 EnMin= -440.107819274947     IErMin= 3 ErrMin= 1.00D-02
 ErrMax= 1.00D-02  0.00D+00 EMaxC= 1.00D-01 BMatC= 4.17D-02 BMatP= 8.71D-02
 IDIUse=3 WtCom= 9.00D-01 WtEn= 1.00D-01
 Coeff-Com:  0.261D-01 0.413D+00 0.561D+00
 Coeff-En:   0.000D+00 0.328D+00 0.672D+00
 Coeff:      0.235D-01 0.404D+00 0.572D+00
 Gap=     0.361 Goal=   None    Shift=    0.000
 RMSDP=2.45D-03 MaxDP=9.80D-02 DE=-3.84D-02 OVMax= 7.12D-02

 Cycle   4  Pass 1  IDiag  1:
 RMSU=  1.00D-03    CP:  6.89D-01  7.53D-01  6.22D-01
 E= -440.144987859338     Delta-E=       -0.037168584391 Rises=F Damp=F
 DIIS: error= 2.04D-03 at cycle   4 NSaved=   4.
 NSaved= 4 IEnMin= 4 EnMin= -440.144987859338     IErMin= 4 ErrMin= 2.04D-03
 ErrMax= 2.04D-03  0.00D+00 EMaxC= 1.00D-01 BMatC= 1.55D-03 BMatP= 4.17D-02
 IDIUse=3 WtCom= 9.80D-01 WtEn= 2.04D-02
 Coeff-Com:  0.937D-02 0.187D+00 0.294D+00 0.510D+00
 Coeff-En:   0.000D+00 0.000D+00 0.000D+00 0.100D+01
 Coeff:      0.918D-02 0.183D+00 0.288D+00 0.520D+00
 Gap=     0.341 Goal=   None    Shift=    0.000
 RMSDP=3.17D-04 MaxDP=1.01D-02 DE=-3.72D-02 OVMax= 1.02D-02

 Cycle   5  Pass 1  IDiag  1:
 RMSU=  2.20D-04    CP:  6.89D-01  7.42D-01  6.47D-01  8.20D-01
 E= -440.146197225091     Delta-E=       -0.001209365754 Rises=F Damp=F
 DIIS: error= 4.56D-04 at cycle   5 NSaved=   5.
 NSaved= 5 IEnMin= 5 EnMin= -440.146197225091     IErMin= 5 ErrMin= 4.56D-04
 ErrMax= 4.56D-04  0.00D+00 EMaxC= 1.00D-01 BMatC= 6.58D-05 BMatP= 1.55D-03
 IDIUse=3 WtCom= 9.95D-01 WtEn= 4.56D-03
 Coeff-Com:  0.824D-03 0.192D-01 0.421D-01 0.180D+00 0.758D+00
 Coeff-En:   0.000D+00 0.000D+00 0.000D+00 0.000D+00 0.100D+01
 Coeff:      0.820D-03 0.191D-01 0.419D-01 0.179D+00 0.759D+00
 Gap=     0.341 Goal=   None    Shift=    0.000
 RMSDP=1.52D-04 MaxDP=5.64D-03 DE=-1.21D-03 OVMax= 2.68D-03

 Cycle   6  Pass 1  IDiag  1:
 RMSU=  9.84D-05    CP:  6.87D-01  7.41D-01  6.66D-01  8.48D-01  9.05D-01
 E= -440.146242309864     Delta-E=       -0.000045084772 Rises=F Damp=F
 DIIS: error= 2.65D-04 at cycle   6 NSaved=   6.
 NSaved= 6 IEnMin= 6 EnMin= -440.146242309864     IErMin= 6 ErrMin= 2.65D-04
 ErrMax= 2.65D-04  0.00D+00 EMaxC= 1.00D-01 BMatC= 1.97D-05 BMatP= 6.58D-05
 IDIUse=3 WtCom= 9.97D-01 WtEn= 2.65D-03
 Coeff-Com: -0.110D-02-0.191D-01-0.219D-01 0.154D-01 0.411D+00 0.615D+00
 Coeff-En:   0.000D+00 0.000D+00 0.000D+00 0.000D+00 0.318D-01 0.968D+00
 Coeff:     -0.110D-02-0.191D-01-0.218D-01 0.153D-01 0.410D+00 0.616D+00
 Gap=     0.341 Goal=   None    Shift=    0.000
 RMSDP=4.43D-05 MaxDP=1.40D-03 DE=-4.51D-05 OVMax= 1.43D-03

 Cycle   7  Pass 1  IDiag  1:
 RMSU=  2.76D-05    CP:  6.86D-01  7.39D-01  6.69D-01  8.58D-01  9.75D-01
                    CP:  1.12D+00
 E= -440.146259075224     Delta-E=       -0.000016765361 Rises=F Damp=F
 DIIS: error= 7.00D-05 at cycle   7 NSaved=   7.
 NSaved= 7 IEnMin= 7 EnMin= -440.146259075224     IErMin= 7 ErrMin= 7.00D-05
 ErrMax= 7.00D-05  0.00D+00 EMaxC= 1.00D-01 BMatC= 4.98D-07 BMatP= 1.97D-05
 IDIUse=1 WtCom= 1.00D+00 WtEn= 0.00D+00
 Coeff-Com: -0.289D-03-0.543D-02-0.659D-02-0.114D-01 0.200D-01 0.107D+00
 Coeff-Com:  0.897D+00
 Coeff:     -0.289D-03-0.543D-02-0.659D-02-0.114D-01 0.200D-01 0.107D+00
 Coeff:      0.897D+00
 Gap=     0.341 Goal=   None    Shift=    0.000
 RMSDP=2.00D-05 MaxDP=6.29D-04 DE=-1.68D-05 OVMax= 5.17D-04

 Cycle   8  Pass 1  IDiag  1:
 RMSU=  8.84D-06    CP:  6.86D-01  7.38D-01  6.71D-01  8.61D-01  1.01D+00
                    CP:  1.21D+00  1.13D+00
 E= -440.146260144250     Delta-E=       -0.000001069026 Rises=F Damp=F
 DIIS: error= 1.55D-05 at cycle   8 NSaved=   8.
 NSaved= 8 IEnMin= 8 EnMin= -440.146260144250     IErMin= 8 ErrMin= 1.55D-05
 ErrMax= 1.55D-05  0.00D+00 EMaxC= 1.00D-01 BMatC= 1.03D-07 BMatP= 4.98D-07
 IDIUse=1 WtCom= 1.00D+00 WtEn= 0.00D+00
 Coeff-Com:  0.605D-04 0.750D-03 0.933D-03-0.702D-02-0.578D-01-0.611D-01
 Coeff-Com:  0.297D+00 0.827D+00
 Coeff:      0.605D-04 0.750D-03 0.933D-03-0.702D-02-0.578D-01-0.611D-01
 Coeff:      0.297D+00 0.827D+00
 Gap=     0.341 Goal=   None    Shift=    0.000
 RMSDP=8.65D-06 MaxDP=2.66D-04 DE=-1.07D-06 OVMax= 3.33D-04

 Cycle   9  Pass 1  IDiag  1:
 RMSU=  3.13D-06    CP:  6.85D-01  7.38D-01  6.72D-01  8.61D-01  1.01D+00
                    CP:  1.25D+00  1.23D+00  1.27D+00
 E= -440.146260341580     Delta-E=       -0.000000197329 Rises=F Damp=F
 DIIS: error= 1.13D-05 at cycle   9 NSaved=   9.
 NSaved= 9 IEnMin= 9 EnMin= -440.146260341580     IErMin= 9 ErrMin= 1.13D-05
 ErrMax= 1.13D-05  0.00D+00 EMaxC= 1.00D-01 BMatC= 9.54D-09 BMatP= 1.03D-07
 IDIUse=1 WtCom= 1.00D+00 WtEn= 0.00D+00
 Coeff-Com:  0.505D-04 0.850D-03 0.114D-02-0.641D-03-0.191D-01-0.289D-01
 Coeff-Com: -0.190D-02 0.241D+00 0.807D+00
 Coeff:      0.505D-04 0.850D-03 0.114D-02-0.641D-03-0.191D-01-0.289D-01
 Coeff:     -0.190D-02 0.241D+00 0.807D+00
 Gap=     0.341 Goal=   None    Shift=    0.000
 RMSDP=2.50D-06 MaxDP=1.08D-04 DE=-1.97D-07 OVMax= 7.85D-05

 Cycle  10  Pass 1  IDiag  1:
 RMSU=  1.02D-06    CP:  6.85D-01  7.38D-01  6.72D-01  8.60D-01  1.01D+00
                    CP:  1.26D+00  1.25D+00  1.35D+00  1.27D+00
 E= -440.146260361691     Delta-E=       -0.000000020111 Rises=F Damp=F
 DIIS: error= 2.24D-06 at cycle  10 NSaved=  10.
 NSaved=10 IEnMin=10 EnMin= -440.146260361691     IErMin=10 ErrMin= 2.24D-06
 ErrMax= 2.24D-06  0.00D+00 EMaxC= 1.00D-01 BMatC= 1.30D-09 BMatP= 9.54D-09
 IDIUse=1 WtCom= 1.00D+00 WtEn= 0.00D+00
 Coeff-Com:  0.407D-05 0.122D-03 0.199D-03 0.860D-03 0.331D-02 0.128D-02
 Coeff-Com: -0.393D-01-0.696D-01 0.195D+00 0.908D+00
 Coeff:      0.407D-05 0.122D-03 0.199D-03 0.860D-03 0.331D-02 0.128D-02
 Coeff:     -0.393D-01-0.696D-01 0.195D+00 0.908D+00
 Gap=     0.341 Goal=   None    Shift=    0.000
 RMSDP=8.41D-07 MaxDP=3.95D-05 DE=-2.01D-08 OVMax= 4.57D-05

 Cycle  11  Pass 1  IDiag  1:
 RMSU=  4.32D-07    CP:  6.85D-01  7.38D-01  6.72D-01  8.60D-01  1.01D+00
                    CP:  1.26D+00  1.25D+00  1.39D+00  1.39D+00  1.20D+00
 E= -440.146260365183     Delta-E=       -0.000000003493 Rises=F Damp=F
 DIIS: error= 1.05D-06 at cycle  11 NSaved=  11.
 NSaved=11 IEnMin=11 EnMin= -440.146260365183     IErMin=11 ErrMin= 1.05D-06
 ErrMax= 1.05D-06  0.00D+00 EMaxC= 1.00D-01 BMatC= 1.70D-10 BMatP= 1.30D-09
 IDIUse=1 WtCom= 1.00D+00 WtEn= 0.00D+00
 Coeff-Com: -0.481D-05-0.725D-04-0.816D-04 0.367D-03 0.342D-02 0.405D-02
 Coeff-Com: -0.978D-02-0.529D-01-0.573D-01 0.229D+00 0.883D+00
 Coeff:     -0.481D-05-0.725D-04-0.816D-04 0.367D-03 0.342D-02 0.405D-02
 Coeff:     -0.978D-02-0.529D-01-0.573D-01 0.229D+00 0.883D+00
 Gap=     0.341 Goal=   None    Shift=    0.000
 RMSDP=2.93D-07 MaxDP=1.23D-05 DE=-3.49D-09 OVMax= 1.38D-05

 Cycle  12  Pass 1  IDiag  1:
 RMSU=  1.43D-07    CP:  6.85D-01  7.38D-01  6.72D-01  8.60D-01  1.01D+00
                    CP:  1.26D+00  1.25D+00  1.40D+00  1.43D+00  1.31D+00
                    CP:  1.33D+00
 E= -440.146260365640     Delta-E=       -0.000000000456 Rises=F Damp=F
 DIIS: error= 2.62D-07 at cycle  12 NSaved=  12.
 NSaved=12 IEnMin=12 EnMin= -440.146260365640     IErMin=12 ErrMin= 2.62D-07
 ErrMax= 2.62D-07  0.00D+00 EMaxC= 1.00D-01 BMatC= 1.50D-11 BMatP= 1.70D-10
 IDIUse=1 WtCom= 1.00D+00 WtEn= 0.00D+00
 Coeff-Com: -0.925D-06-0.234D-04-0.345D-04-0.492D-04-0.223D-03 0.164D-03
 Coeff-Com:  0.426D-02 0.440D-02-0.264D-01-0.833D-01 0.788D-01 0.102D+01
 Coeff:     -0.925D-06-0.234D-04-0.345D-04-0.492D-04-0.223D-03 0.164D-03
 Coeff:      0.426D-02 0.440D-02-0.264D-01-0.833D-01 0.788D-01 0.102D+01
 Gap=     0.341 Goal=   None    Shift=    0.000
 RMSDP=1.28D-07 MaxDP=4.39D-06 DE=-4.56D-10 OVMax= 4.93D-06

 Cycle  13  Pass 1  IDiag  1:
 RMSU=  4.53D-08    CP:  6.85D-01  7.38D-01  6.72D-01  8.60D-01  1.01D+00
                    CP:  1.26D+00  1.25D+00  1.39D+00  1.42D+00  1.34D+00
                    CP:  1.48D+00  1.25D+00
 E= -440.146260365687     Delta-E=       -0.000000000047 Rises=F Damp=F
 DIIS: error= 9.77D-08 at cycle  13 NSaved=  13.
 NSaved=13 IEnMin=13 EnMin= -440.146260365687     IErMin=13 ErrMin= 9.77D-08
 ErrMax= 9.77D-08  0.00D+00 EMaxC= 1.00D-01 BMatC= 2.45D-12 BMatP= 1.50D-11
 IDIUse=1 WtCom= 1.00D+00 WtEn= 0.00D+00
 Coeff-Com:  0.855D-07-0.810D-06-0.361D-05-0.438D-04-0.401D-03-0.312D-03
 Coeff-Com:  0.221D-02 0.636D-02-0.307D-02-0.486D-01-0.664D-01 0.311D+00
 Coeff-Com:  0.799D+00
 Coeff:      0.855D-07-0.810D-06-0.361D-05-0.438D-04-0.401D-03-0.312D-03
 Coeff:      0.221D-02 0.636D-02-0.307D-02-0.486D-01-0.664D-01 0.311D+00
 Coeff:      0.799D+00
 Gap=     0.341 Goal=   None    Shift=    0.000
 RMSDP=3.83D-08 MaxDP=1.27D-06 DE=-4.73D-11 OVMax= 1.54D-06

 Cycle  14  Pass 1  IDiag  1:
 RMSU=  2.18D-08    CP:  6.85D-01  7.38D-01  6.72D-01  8.60D-01  1.01D+00
                    CP:  1.26D+00  1.25D+00  1.39D+00  1.42D+00  1.34D+00
                    CP:  1.51D+00  1.31D+00  1.21D+00
 E= -440.146260365696     Delta-E=       -0.000000000009 Rises=F Damp=F
 DIIS: error= 3.72D-08 at cycle  14 NSaved=  14.
 NSaved=14 IEnMin=14 EnMin= -440.146260365696     IErMin=14 ErrMin= 3.72D-08
 ErrMax= 3.72D-08  0.00D+00 EMaxC= 1.00D-01 BMatC= 2.64D-13 BMatP= 2.45D-12
 IDIUse=1 WtCom= 1.00D+00 WtEn= 0.00D+00
 Coeff-Com:  0.104D-06 0.225D-05 0.268D-05-0.292D-05-0.530D-04-0.748D-04
 Coeff-Com: -0.959D-04 0.698D-03 0.245D-02 0.101D-02-0.244D-01-0.688D-01
 Coeff-Com:  0.191D+00 0.899D+00
 Coeff:      0.104D-06 0.225D-05 0.268D-05-0.292D-05-0.530D-04-0.748D-04
 Coeff:     -0.959D-04 0.698D-03 0.245D-02 0.101D-02-0.244D-01-0.688D-01
 Coeff:      0.191D+00 0.899D+00
 Gap=     0.341 Goal=   None    Shift=    0.000
 RMSDP=2.05D-08 MaxDP=1.03D-06 DE=-8.98D-12 OVMax= 5.89D-07

 Cycle  15  Pass 1  IDiag  1:
 RMSU=  6.07D-09    CP:  6.85D-01  7.38D-01  6.72D-01  8.60D-01  1.01D+00
                    CP:  1.26D+00  1.25D+00  1.39D+00  1.42D+00  1.33D+00
                    CP:  1.50D+00  1.35D+00  1.36D+00  1.33D+00
 E= -440.146260365697     Delta-E=       -0.000000000001 Rises=F Damp=F
 DIIS: error= 1.58D-08 at cycle  15 NSaved=  15.
 NSaved=15 IEnMin=15 EnMin= -440.146260365697     IErMin=15 ErrMin= 1.58D-08
 ErrMax= 1.58D-08  0.00D+00 EMaxC= 1.00D-01 BMatC= 2.94D-14 BMatP= 2.64D-13
 IDIUse=1 WtCom= 1.00D+00 WtEn= 0.00D+00
 Coeff-Com: -0.300D-08 0.241D-06 0.541D-06 0.535D-05 0.463D-04 0.351D-04
 Coeff-Com: -0.297D-03-0.678D-03 0.718D-03 0.632D-02 0.569D-02-0.490D-01
 Coeff-Com: -0.646D-01 0.997D-01 0.100D+01
 Coeff:     -0.300D-08 0.241D-06 0.541D-06 0.535D-05 0.463D-04 0.351D-04
 Coeff:     -0.297D-03-0.678D-03 0.718D-03 0.632D-02 0.569D-02-0.490D-01
 Coeff:     -0.646D-01 0.997D-01 0.100D+01
 Gap=     0.341 Goal=   None    Shift=    0.000
 RMSDP=8.34D-09 MaxDP=3.91D-07 DE=-9.09D-13 OVMax= 3.06D-07

 SCF Done:  E(RwB97XD) =  -440.146260366     A.U. after   15 cycles
            NFock= 15  Conv=0.83D-08     -V/T= 2.0003
 KE= 4.400155533594D+02 PE=-2.009712677528D+03 EE= 6.378822308535D+02
 Leave Link  502 at Tue Nov 22 19:14:50 2022, MaxMem= 16106127360 cpu:             586.8 elap:              18.4
 (Enter /opt/ap/G16/B01/g16/l601.exe)
 Copying SCF densities to generalized density rwf, IOpCl= 0 IROHF=0.

 **********************************************************************

            Population analysis using the SCF Density.

 **********************************************************************

 Orbital symmetries:
       Occupied  (A) (A) (A) (A) (A) (A) (A) (A) (A) (A) (A) (A)
                 (A) (A) (A) (A) (A) (A) (A) (A) (A) (A) (A) (A)
                 (A) (A) (A) (A) (A) (A) (A) (A) (A) (A) (A) (A)
       Virtual   (A) (A) (A) (A) (A) (A) (A) (A) (A) (A) (A) (A)
                 (A) (A) (A) (A) (A) (A) (A) (A) (A) (A) (A) (A)
                 (A) (A) (A) (A) (A) (A) (A) (A) (A) (A) (A) (A)
                 (A) (A) (A) (A) (A) (A) (A) (A) (A) (A) (A) (A)
                 (A) (A) (A) (A) (A) (A) (A) (A) (A) (A) (A) (A)
                 (A) (A) (A) (A) (A) (A) (A) (A) (A) (A) (A) (A)
                 (A) (A) (A) (A) (A) (A) (A) (A) (A) (A) (A) (A)
                 (A) (A) (A) (A) (A) (A) (A) (A) (A) (A) (A) (A)
                 (A) (A) (A) (A) (A) (A) (A) (A) (A) (A) (A) (A)
                 (A) (A) (A) (A) (A) (A) (A) (A) (A) (A) (A) (A)
                 (A) (A) (A) (A) (A) (A) (A) (A) (A) (A) (A) (A)
                 (A) (A) (A) (A) (A) (A) (A) (A) (A) (A) (A) (A)
                 (A) (A) (A) (A) (A) (A) (A) (A) (A) (A) (A) (A)
                 (A) (A) (A) (A) (A) (A) (A) (A) (A) (A) (A) (A)
                 (A) (A) (A) (A) (A) (A) (A) (A) (A) (A) (A) (A)
                 (A) (A) (A) (A) (A) (A) (A) (A) (A) (A) (A) (A)
                 (A) (A) (A) (A) (A) (A) (A) (A) (A) (A) (A) (A)
                 (A) (A) (A) (A) (A) (A) (A) (A) (A) (A) (A) (A)
                 (A) (A) (A) (A) (A) (A) (A) (A) (A) (A) (A) (A)
                 (A) (A) (A) (A) (A) (A) (A) (A) (A) (A) (A) (A)
                 (A) (A) (A) (A) (A) (A)
 The electronic state is 1-A.
 Alpha  occ. eigenvalues --  -19.21351 -14.46933 -10.39806 -10.33859 -10.28276
 Alpha  occ. eigenvalues --  -10.28036 -10.27901 -10.27519 -10.27389 -10.26284
 Alpha  occ. eigenvalues --   -1.14532  -1.06200  -0.96383  -0.88557  -0.86534
 Alpha  occ. eigenvalues --   -0.84678  -0.74743  -0.73121  -0.69295  -0.65805
 Alpha  occ. eigenvalues --   -0.61317  -0.58880  -0.56374  -0.55179  -0.54069
 Alpha  occ. eigenvalues --   -0.52879  -0.51616  -0.49991  -0.49109  -0.45898
 Alpha  occ. eigenvalues --   -0.45228  -0.44555  -0.38980  -0.34610  -0.33420
 Alpha  occ. eigenvalues --   -0.30781
 Alpha virt. eigenvalues --    0.03332   0.04317   0.04553   0.05020   0.05291
 Alpha virt. eigenvalues --    0.06289   0.06939   0.07446   0.08714   0.09269
 Alpha virt. eigenvalues --    0.10642   0.10820   0.11521   0.12224   0.13283
 Alpha virt. eigenvalues --    0.14295   0.14957   0.15564   0.15744   0.16232
 Alpha virt. eigenvalues --    0.16872   0.17484   0.17802   0.18054   0.18665
 Alpha virt. eigenvalues --    0.19046   0.19574   0.19900   0.20388   0.20852
 Alpha virt. eigenvalues --    0.21263   0.22067   0.22229   0.23078   0.23943
 Alpha virt. eigenvalues --    0.24206   0.25393   0.25917   0.26303   0.26375
 Alpha virt. eigenvalues --    0.27005   0.27995   0.28264   0.29701   0.29837
 Alpha virt. eigenvalues --    0.30478   0.30904   0.32159   0.32850   0.33328
 Alpha virt. eigenvalues --    0.33886   0.34373   0.36124   0.36958   0.37525
 Alpha virt. eigenvalues --    0.38375   0.38538   0.39088   0.39868   0.41440
 Alpha virt. eigenvalues --    0.42369   0.42992   0.44105   0.44627   0.44914
 Alpha virt. eigenvalues --    0.46521   0.47138   0.50646   0.53095   0.54869
 Alpha virt. eigenvalues --    0.57834   0.58741   0.59395   0.62768   0.63323
 Alpha virt. eigenvalues --    0.64283   0.65011   0.65969   0.66248   0.66894
 Alpha virt. eigenvalues --    0.68670   0.69323   0.70867   0.72365   0.73202
 Alpha virt. eigenvalues --    0.74547   0.75858   0.76698   0.77722   0.79327
 Alpha virt. eigenvalues --    0.81044   0.81443   0.82454   0.83712   0.85098
 Alpha virt. eigenvalues --    0.85440   0.87946   0.90113   0.92537   0.93188
 Alpha virt. eigenvalues --    0.94075   0.95143   0.95389   0.96976   0.97189
 Alpha virt. eigenvalues --    0.98092   1.00269   1.01017   1.02392   1.05792
 Alpha virt. eigenvalues --    1.07920   1.09793   1.10732   1.12025   1.13604
 Alpha virt. eigenvalues --    1.16253   1.17462   1.18369   1.22373   1.23875
 Alpha virt. eigenvalues --    1.24594   1.29715   1.33186   1.35830   1.37654
 Alpha virt. eigenvalues --    1.38656   1.45349   1.45888   1.52906   1.54998
 Alpha virt. eigenvalues --    1.57402   1.60875   1.61920   1.63188   1.65305
 Alpha virt. eigenvalues --    1.66571   1.67319   1.68105   1.68189   1.68621
 Alpha virt. eigenvalues --    1.69908   1.70944   1.75397   1.76429   1.78930
 Alpha virt. eigenvalues --    1.80537   1.86012   1.87118   1.88987   1.91097
 Alpha virt. eigenvalues --    1.92856   1.94301   1.96057   1.97583   1.98873
 Alpha virt. eigenvalues --    2.01075   2.02004   2.04545   2.06364   2.07625
 Alpha virt. eigenvalues --    2.09153   2.10532   2.12115   2.13542   2.14486
 Alpha virt. eigenvalues --    2.22085   2.25794   2.28760   2.33545   2.35858
 Alpha virt. eigenvalues --    2.39369   2.41945   2.45508   2.51336   2.52005
 Alpha virt. eigenvalues --    2.53175   2.55793   2.60136   2.60500   2.63126
 Alpha virt. eigenvalues --    2.64932   2.68615   2.69482   2.73443   2.76319
 Alpha virt. eigenvalues --    2.79196   2.81643   2.82563   2.82813   2.84792
 Alpha virt. eigenvalues --    2.86415   2.90590   2.91844   2.92890   2.93497
 Alpha virt. eigenvalues --    2.94870   2.95471   2.98167   2.98632   3.02240
 Alpha virt. eigenvalues --    3.03346   3.04082   3.05355   3.07032   3.14225
 Alpha virt. eigenvalues --    3.19812   3.22197   3.23801   3.26617   3.32665
 Alpha virt. eigenvalues --    3.43040   3.44763   3.46057   3.48884   3.53269
 Alpha virt. eigenvalues --    3.62275   3.67910   3.71560   3.76764   3.91629
 Alpha virt. eigenvalues --    3.99990   4.03518   4.05040   4.12488   4.17971
 Alpha virt. eigenvalues --    4.30823   4.34589   4.38283   4.40533   4.45075
 Alpha virt. eigenvalues --    4.95970   5.18543   5.19673   5.23021   5.37545
 Alpha virt. eigenvalues --    5.90843  23.88563  23.98971  24.14840  24.22829
 Alpha virt. eigenvalues --   24.30469  24.33320  24.38135  24.42902  35.87837
 Alpha virt. eigenvalues --   50.16227
          Condensed to atoms (all electrons):
               1          2          3          4          5          6
     1  C    7.090675  -0.010424   0.236443  -0.612434  -0.091043   0.080901
     2  C   -0.010424   7.079054  -1.571754   0.208116   0.504409  -0.061342
     3  C    0.236443  -1.571754   7.261790   0.313538  -0.062292  -0.115960
     4  C   -0.612434   0.208116   0.313538   5.849769  -0.038995  -0.019957
     5  H   -0.091043   0.504409  -0.062292  -0.038995   0.455297  -0.022744
     6  N    0.080901  -0.061342  -0.115960  -0.019957  -0.022744   7.345736
     7  C   -0.393008   0.112993   0.352786  -0.267644   0.013562  -0.023207
     8  H   -0.106823  -0.024324   0.542136   0.042096  -0.002794   0.002452
     9  C   -0.084285  -0.320060  -0.363902   0.595208   0.029187   0.034678
    10  H    0.018585  -0.068994   0.026661   0.417483  -0.011380  -0.002957
    11  C   -0.236886   0.050239  -0.155658  -0.089086   0.008076   0.037749
    12  H   -0.017770  -0.043987   0.027078  -0.011801   0.000020   0.350624
    13  H    0.028260   0.026628  -0.115241  -0.024328   0.000703  -0.004904
    14  H    0.013575  -0.020476  -0.001286  -0.049131   0.001261   0.001387
    15  C    0.014056  -0.056745   0.010148  -0.020950   0.004884  -0.404804
    16  O   -0.118150   0.084688  -0.034187   0.004214   0.001040  -0.124965
    17  H   -0.003297  -0.002523   0.004933   0.000378  -0.001217   0.005051
    18  H   -0.010995   0.007399  -0.007894  -0.001431  -0.000255   0.007855
    19  H    0.006796   0.018346  -0.009046   0.002173   0.000570   0.019348
               7          8          9         10         11         12
     1  C   -0.393008  -0.106823  -0.084285   0.018585  -0.236886  -0.017770
     2  C    0.112993  -0.024324  -0.320060  -0.068994   0.050239  -0.043987
     3  C    0.352786   0.542136  -0.363902   0.026661  -0.155658   0.027078
     4  C   -0.267644   0.042096   0.595208   0.417483  -0.089086  -0.011801
     5  H    0.013562  -0.002794   0.029187  -0.011380   0.008076   0.000020
     6  N   -0.023207   0.002452   0.034678  -0.002957   0.037749   0.350624
     7  C    5.570356  -0.084393   0.546548  -0.005611  -0.023315  -0.006860
     8  H   -0.084393   0.539922  -0.023010   0.002000  -0.009822  -0.003741
     9  C    0.546548  -0.023010   5.581075  -0.058599   0.001684   0.003986
    10  H   -0.005611   0.002000  -0.058599   0.483521   0.001778   0.000096
    11  C   -0.023315  -0.009822   0.001684   0.001778   5.913435   0.041248
    12  H   -0.006860  -0.003741   0.003986   0.000096   0.041248   0.386321
    13  H    0.441759  -0.017666  -0.026317  -0.000973   0.001094   0.001319
    14  H   -0.056377  -0.000876   0.466926  -0.010643  -0.001522   0.000028
    15  C    0.029124  -0.002070  -0.015588   0.000396  -0.068380  -0.022945
    16  O    0.003843  -0.002121  -0.001302  -0.000328   0.474631   0.005906
    17  H    0.000053  -0.000028  -0.000066  -0.000005  -0.024619   0.000232
    18  H    0.000106  -0.000104   0.000011   0.000001  -0.073874  -0.000484
    19  H    0.000995   0.001889   0.000089  -0.000018  -0.059627  -0.010349
              13         14         15         16         17         18
     1  C    0.028260   0.013575   0.014056  -0.118150  -0.003297  -0.010995
     2  C    0.026628  -0.020476  -0.056745   0.084688  -0.002523   0.007399
     3  C   -0.115241  -0.001286   0.010148  -0.034187   0.004933  -0.007894
     4  C   -0.024328  -0.049131  -0.020950   0.004214   0.000378  -0.001431
     5  H    0.000703   0.001261   0.004884   0.001040  -0.001217  -0.000255
     6  N   -0.004904   0.001387  -0.404804  -0.124965   0.005051   0.007855
     7  C    0.441759  -0.056377   0.029124   0.003843   0.000053   0.000106
     8  H   -0.017666  -0.000876  -0.002070  -0.002121  -0.000028  -0.000104
     9  C   -0.026317   0.466926  -0.015588  -0.001302  -0.000066   0.000011
    10  H   -0.000973  -0.010643   0.000396  -0.000328  -0.000005   0.000001
    11  C    0.001094  -0.001522  -0.068380   0.474631  -0.024619  -0.073874
    12  H    0.001319   0.000028  -0.022945   0.005906   0.000232  -0.000484
    13  H    0.492121  -0.008077   0.000657   0.000176  -0.000002  -0.000010
    14  H   -0.008077   0.494257  -0.000407  -0.000089  -0.000007  -0.000007
    15  C    0.000657  -0.000407   5.889706  -0.022946   0.397031   0.464274
    16  O    0.000176  -0.000089  -0.022946   8.099138  -0.005495  -0.008788
    17  H   -0.000002  -0.000007   0.397031  -0.005495   0.502650  -0.030178
    18  H   -0.000010  -0.000007   0.464274  -0.008788  -0.030178   0.491979
    19  H   -0.000078   0.000010   0.365062   0.007442  -0.033975  -0.030585
              19
     1  C    0.006796
     2  C    0.018346
     3  C   -0.009046
     4  C    0.002173
     5  H    0.000570
     6  N    0.019348
     7  C    0.000995
     8  H    0.001889
     9  C    0.000089
    10  H   -0.000018
    11  C   -0.059627
    12  H   -0.010349
    13  H   -0.000078
    14  H    0.000010
    15  C    0.365062
    16  O    0.007442
    17  H   -0.033975
    18  H   -0.030585
    19  H    0.606213
 Mulliken charges:
               1
     1  C    0.195823
     2  C    0.088757
     3  C   -0.338290
     4  C   -0.297218
     5  H    0.211711
     6  N   -0.104943
     7  C   -0.211708
     8  H    0.147276
     9  C   -0.366265
    10  H    0.208988
    11  C    0.212855
    12  H    0.301077
    13  H    0.204880
    14  H    0.171454
    15  C   -0.560503
    16  O   -0.362705
    17  H    0.191084
    18  H    0.192981
    19  H    0.114746
 Sum of Mulliken charges =  -0.00000
 Mulliken charges with hydrogens summed into heavy atoms:
               1
     1  C    0.195823
     2  C    0.300468
     3  C   -0.191014
     4  C   -0.088230
     6  N    0.196134
     7  C   -0.006829
     9  C   -0.194811
    11  C    0.212855
    15  C   -0.061693
    16  O   -0.362705
 Electronic spatial extent (au):  <R**2>=           1672.4535
 Charge=              0.0000 electrons
 Dipole moment (field-independent basis, Debye):
    X=              0.0541    Y=             -3.5035    Z=             -1.3373  Tot=              3.7504
 Quadrupole moment (field-independent basis, Debye-Ang):
   XX=            -50.3121   YY=            -55.7123   ZZ=            -62.0685
   XY=              7.9503   XZ=              3.1904   YZ=             -2.2699
 Traceless Quadrupole moment (field-independent basis, Debye-Ang):
   XX=              5.7189   YY=              0.3186   ZZ=             -6.0375
   XY=              7.9503   XZ=              3.1904   YZ=             -2.2699
 Octapole moment (field-independent basis, Debye-Ang**2):
  XXX=            -15.7320  YYY=             -8.6276  ZZZ=              0.7728  XYY=              8.3834
  XXY=            -15.3687  XXZ=             -4.1443  XZZ=            -11.7128  YZZ=             -0.2848
  YYZ=             -3.8609  XYZ=              0.7973
 Hexadecapole moment (field-independent basis, Debye-Ang**3):
 XXXX=          -1571.6282 YYYY=           -367.1924 ZZZZ=            -91.7055 XXXY=             33.5237
 XXXZ=             14.6253 YYYX=             20.6201 YYYZ=             -5.3259 ZZZX=             -0.4202
 ZZZY=              1.6509 XXYY=           -355.1450 XXZZ=           -320.6774 YYZZ=            -85.7865
 XXYZ=            -14.7393 YYXZ=              8.8403 ZZXY=              0.4193
 N-N= 4.916686329497D+02 E-N=-2.009712676172D+03  KE= 4.400155533594D+02
 No NMR shielding tensors so no spin-rotation constants.
 Leave Link  601 at Tue Nov 22 19:14:50 2022, MaxMem= 16106127360 cpu:               3.8 elap:               0.1
 (Enter /opt/ap/G16/B01/g16/l9999.exe)
 1\1\GINC-N37\SP\RwB97XD\6-311++G(d,p)\C8H9N1O1\ROOT\22-Nov-2022\0\\#P 
 wB97XD/6-311++G(d,p) scf=maxcycle=512\\_conf067.gjf nmol_natom 1_19\\0
 ,1\C\C,1,1.39447505\C,1,1.39873503,2,119.56697224\C,2,1.39066123,1,119
 .42697207,3,2.53915756,0\H,2,0.96213008,1,119.8046163,3,-177.79870417,
 0\N,1,1.41693372,2,123.72220125,4,-177.74604849,0\C,3,1.38667133,1,120
 .18759987,2,-2.5020857,0\H,3,0.95673174,1,118.82085988,2,177.96737168,
 0\C,4,1.38268572,2,121.03929493,1,-0.41221113,0\H,4,0.9858595,2,118.57
 91267,1,178.77373233,0\C,6,1.35500692,1,127.62132737,2,-25.,0\H,6,0.89
 609466,1,115.10511997,2,155.,0\H,7,0.98847198,3,119.08117704,1,-179.64
 585354,0\H,9,0.98451201,4,120.53755637,2,177.22743544,0\C,11,1.5027456
 1,6,115.46861532,1,175.89235465,0\O,11,1.23496495,6,123.15099888,1,-3.
 40672617,0\H,15,0.98719837,11,107.47091875,6,-116.36962839,0\H,15,0.99
 976021,11,109.69443261,6,128.85346087,0\H,15,0.97696155,11,114.3700887
 1,6,6.05302844,0\\Version=ES64L-G16RevB.01\State=1-A\HF=-440.1462604\R
 MSD=8.342e-09\Dipole=0.3835195,0.7090529,-1.2358679\Quadrupole=0.93592
 4,-5.3859372,4.4500132,-2.5933368,5.5228227,0.6955702\PG=C01 [X(C8H9N1
 O1)]\\@


 GETTING A SIMPLE ANSWER FROM A PROFESSOR IS LIKE
 GETTING A THIMBLE OF WATER FROM A FIRE HYDRANT.
     -- PROF. LEN SHAPIRO, NDSU
 Job cpu time:       0 days  0 hours 10 minutes 24.2 seconds.
 Elapsed time:       0 days  0 hours  0 minutes 19.6 seconds.
 File lengths (MBytes):  RWF=     46 Int=      0 D2E=      0 Chk=      6 Scr=      1
 Normal termination of Gaussian 16 at Tue Nov 22 19:14:50 2022.
