 Entering Gaussian System, Link 0=g16
 Input=_conf014.gjf
 Output=_conf014.log
 Initial command:
 /opt/ap/G16/B01/g16/l1.exe "/tmp2/scr/Gau-7637.inp" -scrdir="/tmp2/scr/"
 Entering Link 1 = /opt/ap/G16/B01/g16/l1.exe PID=      7638.
  
 Copyright (c) 1988-2017, Gaussian, Inc.  All Rights Reserved.
  
 This is part of the Gaussian(R) 16 program.  It is based on
 the Gaussian(R) 09 system (copyright 2009, Gaussian, Inc.),
 the Gaussian(R) 03 system (copyright 2003, Gaussian, Inc.),
 the Gaussian(R) 98 system (copyright 1998, Gaussian, Inc.),
 the Gaussian(R) 94 system (copyright 1995, Gaussian, Inc.),
 the Gaussian 92(TM) system (copyright 1992, Gaussian, Inc.),
 the Gaussian 90(TM) system (copyright 1990, Gaussian, Inc.),
 the Gaussian 88(TM) system (copyright 1988, Gaussian, Inc.),
 the Gaussian 86(TM) system (copyright 1986, Carnegie Mellon
 University), and the Gaussian 82(TM) system (copyright 1983,
 Carnegie Mellon University). Gaussian is a federally registered
 trademark of Gaussian, Inc.
  
 This software contains proprietary and confidential information,
 including trade secrets, belonging to Gaussian, Inc.
  
 This software is provided under written license and may be
 used, copied, transmitted, or stored only in accord with that
 written license.
  
 The following legend is applicable only to US Government
 contracts under FAR:
  
                    RESTRICTED RIGHTS LEGEND
  
 Use, reproduction and disclosure by the US Government is
 subject to restrictions as set forth in subparagraphs (a)
 and (c) of the Commercial Computer Software - Restricted
 Rights clause in FAR 52.227-19.
  
 Gaussian, Inc.
 340 Quinnipiac St., Bldg. 40, Wallingford CT 06492
  
  
 ---------------------------------------------------------------
 Warning -- This program may not be used in any manner that
 competes with the business of Gaussian, Inc. or will provide
 assistance to any competitor of Gaussian, Inc.  The licensee
 of this program is prohibited from giving any competitor of
 Gaussian, Inc. access to this program.  By using this program,
 the user acknowledges that Gaussian, Inc. is engaged in the
 business of creating and licensing software in the field of
 computational chemistry and represents and warrants to the
 licensee that it is not a competitor of Gaussian, Inc. and that
 it will not use this program in any manner prohibited above.
 ---------------------------------------------------------------
  

 Cite this work as:
 Gaussian 16, Revision B.01,
 M. J. Frisch, G. W. Trucks, H. B. Schlegel, G. E. Scuseria, 
 M. A. Robb, J. R. Cheeseman, G. Scalmani, V. Barone, 
 G. A. Petersson, H. Nakatsuji, X. Li, M. Caricato, A. V. Marenich, 
 J. Bloino, B. G. Janesko, R. Gomperts, B. Mennucci, H. P. Hratchian, 
 J. V. Ortiz, A. F. Izmaylov, J. L. Sonnenberg, D. Williams-Young, 
 F. Ding, F. Lipparini, F. Egidi, J. Goings, B. Peng, A. Petrone, 
 T. Henderson, D. Ranasinghe, V. G. Zakrzewski, J. Gao, N. Rega, 
 G. Zheng, W. Liang, M. Hada, M. Ehara, K. Toyota, R. Fukuda, 
 J. Hasegawa, M. Ishida, T. Nakajima, Y. Honda, O. Kitao, H. Nakai, 
 T. Vreven, K. Throssell, J. A. Montgomery, Jr., J. E. Peralta, 
 F. Ogliaro, M. J. Bearpark, J. J. Heyd, E. N. Brothers, K. N. Kudin, 
 V. N. Staroverov, T. A. Keith, R. Kobayashi, J. Normand, 
 K. Raghavachari, A. P. Rendell, J. C. Burant, S. S. Iyengar, 
 J. Tomasi, M. Cossi, J. M. Millam, M. Klene, C. Adamo, R. Cammi, 
 J. W. Ochterski, R. L. Martin, K. Morokuma, O. Farkas, 
 J. B. Foresman, and D. J. Fox, Gaussian, Inc., Wallingford CT, 2016.
 
 ******************************************
 Gaussian 16:  ES64L-G16RevB.01 20-Dec-2017
                22-Nov-2022 
 ******************************************
 %nprocshared=32
 Will use up to   32 processors via shared memory.
 %mem=120GB
 %chk=_conf014.chk
 ----------------------------------------
 #P wB97XD/6-311++G(d,p) scf=maxcycle=512
 ----------------------------------------
 1/38=1,172=1/1;
 2/12=2,17=6,18=5,40=1/2;
 3/5=4,6=6,7=1111,11=2,25=1,30=1,74=-58/1,2,3;
 4//1;
 5/5=2,7=512,38=5/2;
 6/7=2,8=2,9=2,10=2,28=1/1;
 99/5=1,9=1/99;
 Leave Link    1 at Tue Nov 22 19:10:14 2022, MaxMem= 16106127360 cpu:               1.8 elap:               0.1
 (Enter /opt/ap/G16/B01/g16/l101.exe)
 ----------------------------
 _conf014.gjf nmol_natom 1_19
 ----------------------------
 Symbolic Z-matrix:
 Charge =  0 Multiplicity = 1
 C
 C                    1     1.39448 
 C                    1     1.39874  2     119.56697 
 C                    2     1.39066  1     119.42697  3     2.53916  0
 H                    2     0.96213  1     119.80462  3    -177.7987  0
 N                    1     1.41693  2     123.7222  4    -177.74605  0
 C                    3     1.38667  1     120.1876  2    -2.50209  0
 H                    3     0.95673  1     118.82086  2     177.96737  0
 C                    4     1.38269  2     121.03929  1    -0.41221  0
 H                    4     0.98586  2     118.57913  1     178.77373  0
 C                    6     1.35501  1     127.62133  2     70.      0
 H                    6     0.89609  1     115.10512  2    -110.     0
 H                    7     0.98847  3     119.08118  1    -179.64585  0
 H                    9     0.98451  4     120.53756  2     177.22744  0
 C                    11    1.50275  6     115.46862  1     175.89235  0
 O                    11    1.23496  6     123.151  1    -3.40673  0
 H                    15    0.9872   11    107.47092  6    -116.36963  0
 H                    15    0.99976  11    109.69443  6     128.85346  0
 H                    15    0.97696  11    114.37009  6     6.05303  0
 
 ITRead=  0  0  0  0  0  0  0  0  0  0  0  0  0  0  0  0  0  0  0
 MicOpt= -1 -1 -1 -1 -1 -1 -1 -1 -1 -1 -1 -1 -1 -1 -1 -1 -1 -1 -1
 NAtoms=     19 NQM=       19 NQMF=       0 NMMI=      0 NMMIF=      0
                NMic=       0 NMicF=      0.
                    Isotopes and Nuclear Properties:
 (Nuclear quadrupole moments (NQMom) in fm**2, nuclear magnetic moments (NMagM)
  in nuclear magnetons)

  Atom         1           2           3           4           5           6           7           8           9          10
 IAtWgt=          12          12          12          12           1          14          12           1          12           1
 AtmWgt=  12.0000000  12.0000000  12.0000000  12.0000000   1.0078250  14.0030740  12.0000000   1.0078250  12.0000000   1.0078250
 NucSpn=           0           0           0           0           1           2           0           1           0           1
 AtZEff=  -0.0000000  -0.0000000  -0.0000000  -0.0000000  -0.0000000  -0.0000000  -0.0000000  -0.0000000  -0.0000000  -0.0000000
 NQMom=    0.0000000   0.0000000   0.0000000   0.0000000   0.0000000   2.0440000   0.0000000   0.0000000   0.0000000   0.0000000
 NMagM=    0.0000000   0.0000000   0.0000000   0.0000000   2.7928460   0.4037610   0.0000000   2.7928460   0.0000000   2.7928460
 AtZNuc=   6.0000000   6.0000000   6.0000000   6.0000000   1.0000000   7.0000000   6.0000000   1.0000000   6.0000000   1.0000000

  Atom        11          12          13          14          15          16          17          18          19
 IAtWgt=          12           1           1           1          12          16           1           1           1
 AtmWgt=  12.0000000   1.0078250   1.0078250   1.0078250  12.0000000  15.9949146   1.0078250   1.0078250   1.0078250
 NucSpn=           0           1           1           1           0           0           1           1           1
 AtZEff=  -0.0000000  -0.0000000  -0.0000000  -0.0000000  -0.0000000  -0.0000000  -0.0000000  -0.0000000  -0.0000000
 NQMom=    0.0000000   0.0000000   0.0000000   0.0000000   0.0000000   0.0000000   0.0000000   0.0000000   0.0000000
 NMagM=    0.0000000   2.7928460   2.7928460   2.7928460   0.0000000   0.0000000   2.7928460   2.7928460   2.7928460
 AtZNuc=   6.0000000   1.0000000   1.0000000   1.0000000   6.0000000   8.0000000   1.0000000   1.0000000   1.0000000
 Leave Link  101 at Tue Nov 22 19:10:15 2022, MaxMem= 16106127360 cpu:               5.1 elap:               0.2
 (Enter /opt/ap/G16/B01/g16/l202.exe)
                          Input orientation:                          
 ---------------------------------------------------------------------
 Center     Atomic      Atomic             Coordinates (Angstroms)
 Number     Number       Type             X           Y           Z
 ---------------------------------------------------------------------
      1          6           0        0.000000    0.000000    0.000000
      2          6           0        0.000000    0.000000    1.394475
      3          6           0        1.216591    0.000000   -0.690193
      4          6           0        1.210053    0.053661    2.077726
      5          1           0       -0.834249   -0.032067    1.872696
      6          7           0       -1.178505   -0.005866   -0.786634
      7          6           0        2.413939    0.052326    0.007287
      8          1           0        1.204393   -0.029731   -1.646384
      9          6           0        2.412261    0.098442    1.396177
     10          1           0        1.194755    0.071528    3.063305
     11          6           0       -2.075274    0.998207   -0.940532
     12          1           0       -1.336855   -0.769170   -1.228538
     13          1           0        3.263999    0.056828   -0.497149
     14          1           0        3.262484    0.177260    1.886251
     15          6           0       -3.183179    0.730650   -1.919922
     16          8           0       -1.996807    2.072302   -0.336129
     17          1           0       -3.091213    1.381459   -2.656502
     18          1           0       -4.065616    0.923177   -1.491252
     19          1           0       -3.194718   -0.178645   -2.276999
 ---------------------------------------------------------------------
                    Distance matrix (angstroms):
                    1          2          3          4          5
     1  C    0.000000
     2  C    1.394475   0.000000
     3  C    1.398735   2.413697   0.000000
     4  C    2.405006   1.390661   2.768447   0.000000
     5  H    2.050363   0.962130   3.282586   2.056345   0.000000
     6  N    1.416934   2.479142   2.397044   3.730055   2.681648
     7  C    2.414517   2.784624   1.386671   2.395008   3.746678
     8  H    2.040105   3.270821   0.956732   3.725048   4.066939
     9  C    2.788908   2.414270   2.406711   1.382686   3.283889
    10  H    3.288829   2.053668   3.754243   0.985860   2.354812
    11  C    2.487525   3.279548   3.448980   4.560199   3.242817
    12  H    1.971829   3.042861   2.720575   4.253842   3.227009
    13  H    3.302132   3.772951   2.057273   3.293734   4.734944
    14  H    3.772687   3.304099   3.294718   2.065046   4.102100
    15  C    3.788479   4.653139   4.626452   5.978293   4.525832
    16  O    2.897353   3.358074   3.840016   4.492834   3.264784
    17  H    4.303607   5.279625   4.932745   6.532752   5.254101
    18  H    4.427790   5.070395   5.421777   6.428557   4.761341
    19  H    3.927195   4.870098   4.691430   6.198354   4.776323
                    6          7          8          9         10
     6  N    0.000000
     7  C    3.679585   0.000000
     8  H    2.533365   2.050454   0.000000
     9  C    4.203468   1.389657   3.276058   0.000000
    10  H    4.523316   3.290292   4.710788   2.064548   0.000000
    11  C    1.355007   4.684665   3.508718   5.138848   5.251908
    12  H    0.896095   4.033680   2.679423   4.658085   5.053290
    13  H    4.452366   0.988472   2.360129   2.076505   4.118108
    14  H    5.186544   2.065465   4.093666   0.984512   2.381625
    15  C    2.417750   5.958354   4.461366   6.534918   6.665831
    16  O    2.278455   4.863426   4.047590   5.131948   5.073984
    17  H    3.013226   6.258519   4.632928   6.954033   7.266473
    18  H    3.113683   6.707356   5.357713   7.140051   7.010050
    19  H    2.513196   6.060391   4.446575   6.708742   6.917290
                   11         12         13         14         15
    11  C    0.000000
    12  H    1.936964   0.000000
    13  H    5.439726   4.731285   0.000000
    14  H    6.095598   5.634853   2.386441   0.000000
    15  C    1.502746   2.477172   6.636597   7.505982   0.000000
    16  O    1.234965   3.050555   5.635968   6.015837   2.390796
    17  H    2.030657   3.121227   6.841503   7.902922   0.987198
    18  H    2.066491   3.221675   7.447285   8.103393   0.999760
    19  H    2.103397   2.213514   6.703606   7.691214   0.976962
                   16         17         18         19
    16  O    0.000000
    17  H    2.656900   0.000000
    18  H    2.633395   1.586598   0.000000
    19  H    3.204485   1.608931   1.609308   0.000000
 Stoichiometry    C8H9NO
 Framework group  C1[X(C8H9NO)]
 Deg. of freedom    51
 Full point group                 C1      NOp   1
 Largest Abelian subgroup         C1      NOp   1
 Largest concise Abelian subgroup C1      NOp   1
                         Standard orientation:                         
 ---------------------------------------------------------------------
 Center     Atomic      Atomic             Coordinates (Angstroms)
 Number     Number       Type             X           Y           Z
 ---------------------------------------------------------------------
      1          6           0        0.287537    0.150836   -0.340073
      2          6           0        0.930576   -1.072992   -0.522570
      3          6           0        1.025480    1.262383    0.079883
      4          6           0        2.286344   -1.182336   -0.232958
      5          1           0        0.432706   -1.831892   -0.841773
      6          7           0       -1.097280    0.352626   -0.562028
      7          6           0        2.377024    1.135588    0.362920
      8          1           0        0.579410    2.103583    0.173364
      9          6           0        3.007575   -0.095038    0.224676
     10          1           0        2.724271   -2.057929   -0.349048
     11          6           0       -2.130924   -0.124688    0.172679
     12          1           0       -1.298561    0.856711   -1.275029
     13          1           0        2.881588    1.930644    0.663548
     14          1           0        3.957254   -0.190451    0.466068
     15          6           0       -3.495346    0.338053   -0.254485
     16          8           0       -1.981054   -0.878742    1.139157
     17          1           0       -3.874508    0.867473    0.487479
     18          1           0       -4.099087   -0.450975   -0.366073
     19          1           0       -3.503281    0.863558   -1.078035
 ---------------------------------------------------------------------
 Rotational constants (GHZ):           3.6633812           0.7649970           0.7001707
 Leave Link  202 at Tue Nov 22 19:10:15 2022, MaxMem= 16106127360 cpu:               2.2 elap:               0.1
 (Enter /opt/ap/G16/B01/g16/l301.exe)
 Standard basis: 6-311++G(d,p) (5D, 7F)
 Ernie: Thresh=  0.10000D-02 Tol=  0.10000D-05 Strict=F.
 There are   293 symmetry adapted cartesian basis functions of A   symmetry.
 There are   283 symmetry adapted basis functions of A   symmetry.
   283 basis functions,   441 primitive gaussians,   293 cartesian basis functions
    36 alpha electrons       36 beta electrons
       nuclear repulsion energy       490.7087855456 Hartrees.
 IExCor= 4639 DFT=T Ex+Corr=wB97XD ExCW=0 ScaHFX=  1.000000
 ScaDFX=  1.000000  1.000000  1.000000  1.000000 ScalE2=  1.000000  1.000000
 IRadAn=      5 IRanWt=     -1 IRanGd=            0 ICorTp=0 IEmpDi=121
 HFx  wShort=  0.000000 wLong=  0.200000 cFull=  0.222036 cShort=  0.000000 cLong=  0.777964
 DFx  wShort=  0.000000 wLong=  0.200000 cFull=  0.000000 cShort=  0.000000 cLong=  1.000000
 NAtoms=   19 NActive=   19 NUniq=   19 SFac= 1.00D+00 NAtFMM=   60 NAOKFM=F Big=F
 Integral buffers will be    131072 words long.
 Raffenetti 2 integral format.
 Two-electron integral symmetry is turned on.
 R6Disp:  Grimme-D2 Dispersion energy=       -0.0091851869 Hartrees.
 Nuclear repulsion after empirical dispersion term =      490.6996003587 Hartrees.
 Leave Link  301 at Tue Nov 22 19:10:15 2022, MaxMem= 16106127360 cpu:               1.3 elap:               0.0
 (Enter /opt/ap/G16/B01/g16/l302.exe)
 NPDir=0 NMtPBC=     1 NCelOv=     1 NCel=       1 NClECP=     1 NCelD=      1
         NCelK=      1 NCelE2=     1 NClLst=     1 CellRange=     0.0.
 One-electron integrals computed using PRISM.
 One-electron integral symmetry used in STVInt
 NBasis=   283 RedAO= T EigKep=  3.18D-06  NBF=   283
 NBsUse=   282 1.00D-06 EigRej=  9.04D-07 NBFU=   282
 Precomputing XC quadrature grid using
 IXCGrd= 4 IRadAn=           5 IRanWt=          -1 IRanGd=           0 AccXCQ= 0.00D+00.
 Generated NRdTot=       0 NPtTot=           0 NUsed=           0 NTot=          32
 NSgBfM=   293   293   293   293   293 MxSgAt=    19 MxSgA2=    19.
 Leave Link  302 at Tue Nov 22 19:10:15 2022, MaxMem= 16106127360 cpu:               6.7 elap:               0.2
 (Enter /opt/ap/G16/B01/g16/l303.exe)
 DipDrv:  MaxL=1.
 Leave Link  303 at Tue Nov 22 19:10:15 2022, MaxMem= 16106127360 cpu:               1.3 elap:               0.0
 (Enter /opt/ap/G16/B01/g16/l401.exe)
 ExpMin= 3.60D-02 ExpMax= 8.59D+03 ExpMxC= 1.30D+03 IAcc=3 IRadAn=         5 AccDes= 0.00D+00
 Harris functional with IExCor= 4639 and IRadAn=       5 diagonalized for initial guess.
 HarFok:  IExCor= 4639 AccDes= 0.00D+00 IRadAn=         5 IDoV= 1 UseB2=F ITyADJ=14
 ICtDFT=  3500011 ScaDFX=  1.000000  1.000000  1.000000  1.000000
 FoFCou: FMM=F IPFlag=           0 FMFlag=      100000 FMFlg1=           0
         NFxFlg=           0 DoJE=T BraDBF=F KetDBF=T FulRan=T
         wScrn=  0.000000 ICntrl=       500 IOpCl=  0 I1Cent=   200000004 NGrid=           0
         NMat0=    1 NMatS0=      1 NMatT0=    0 NMatD0=    1 NMtDS0=    0 NMtDT0=    0
 Petite list used in FoFCou.
 Harris En= -420.980884957962    
 JPrj=0 DoOrth=F DoCkMO=F.
 Leave Link  401 at Tue Nov 22 19:10:15 2022, MaxMem= 16106127360 cpu:              15.5 elap:               0.5
 (Enter /opt/ap/G16/B01/g16/l502.exe)
 Integral symmetry usage will be decided dynamically.
 Closed shell SCF:
 Using DIIS extrapolation, IDIIS=  1040.
 NGot= 16106127360 LenX= 16105943385 LenY= 16105857095
 Requested convergence on RMS density matrix=1.00D-08 within 512 cycles.
 Requested convergence on MAX density matrix=1.00D-06.
 Requested convergence on             energy=1.00D-06.
 No special actions if energy rises.
 Fock matrices will be formed incrementally for  20 cycles.

 Cycle   1  Pass 1  IDiag  1:
 FoFJK:  IHMeth= 1 ICntrl=       0 DoSepK=T KAlg= 0 I1Cent=           0 FoldK=F
 IRaf=         1 NMat=       1 IRICut=       1 DoRegI=T DoRafI=F ISym2E= 0 IDoP0=0 IntGTp=1.
 FoFCou: FMM=F IPFlag=           0 FMFlag=      100000 FMFlg1=           0
         NFxFlg=           0 DoJE=T BraDBF=F KetDBF=F FulRan=T
         wScrn=  0.000000 ICntrl=       500 IOpCl=  0 I1Cent=           0 NGrid=           0
         NMat0=    1 NMatS0=      1 NMatT0=    0 NMatD0=    1 NMtDS0=    0 NMtDT0=    0
 Symmetry not used in FoFCou.
 E= -439.997235616187    
 DIIS: error= 4.76D-02 at cycle   1 NSaved=   1.
 NSaved= 1 IEnMin= 1 EnMin= -439.997235616187     IErMin= 1 ErrMin= 4.76D-02
 ErrMax= 4.76D-02  0.00D+00 EMaxC= 1.00D-01 BMatC= 9.34D-01 BMatP= 9.34D-01
 IDIUse=3 WtCom= 5.24D-01 WtEn= 4.76D-01
 Coeff-Com:  0.100D+01
 Coeff-En:   0.100D+01
 Coeff:      0.100D+01
 Gap=     0.473 Goal=   None    Shift=    0.000
 GapD=    0.473 DampG=2.000 DampE=0.500 DampFc=1.0000 IDamp=-1.
 RMSDP=9.36D-03 MaxDP=6.92D-01              OVMax= 1.25D-01

 Cycle   2  Pass 1  IDiag  1:
 RMSU=  5.80D-03    CP:  7.39D-01
 E= -440.078400762626     Delta-E=       -0.081165146439 Rises=F Damp=F
 DIIS: error= 1.31D-02 at cycle   2 NSaved=   2.
 NSaved= 2 IEnMin= 2 EnMin= -440.078400762626     IErMin= 2 ErrMin= 1.31D-02
 ErrMax= 1.31D-02  0.00D+00 EMaxC= 1.00D-01 BMatC= 7.14D-02 BMatP= 9.34D-01
 IDIUse=3 WtCom= 8.69D-01 WtEn= 1.31D-01
 Coeff-Com:  0.145D+00 0.855D+00
 Coeff-En:   0.179D+00 0.821D+00
 Coeff:      0.149D+00 0.851D+00
 Gap=     0.404 Goal=   None    Shift=    0.000
 RMSDP=3.85D-03 MaxDP=2.59D-01 DE=-8.12D-02 OVMax= 1.13D-01

 Cycle   3  Pass 1  IDiag  1:
 RMSU=  3.29D-03    CP:  6.82D-01  7.92D-01
 E= -440.105565887266     Delta-E=       -0.027165124640 Rises=F Damp=F
 DIIS: error= 1.14D-02 at cycle   3 NSaved=   3.
 NSaved= 3 IEnMin= 3 EnMin= -440.105565887266     IErMin= 3 ErrMin= 1.14D-02
 ErrMax= 1.14D-02  0.00D+00 EMaxC= 1.00D-01 BMatC= 3.86D-02 BMatP= 7.14D-02
 IDIUse=3 WtCom= 8.86D-01 WtEn= 1.14D-01
 Coeff-Com:  0.265D-01 0.428D+00 0.546D+00
 Coeff-En:   0.000D+00 0.357D+00 0.643D+00
 Coeff:      0.235D-01 0.420D+00 0.557D+00
 Gap=     0.390 Goal=   None    Shift=    0.000
 RMSDP=1.66D-03 MaxDP=1.02D-01 DE=-2.72D-02 OVMax= 6.18D-02

 Cycle   4  Pass 1  IDiag  1:
 RMSU=  6.33D-04    CP:  6.94D-01  9.26D-01  6.11D-01
 E= -440.139520344503     Delta-E=       -0.033954457237 Rises=F Damp=F
 DIIS: error= 2.64D-03 at cycle   4 NSaved=   4.
 NSaved= 4 IEnMin= 4 EnMin= -440.139520344503     IErMin= 4 ErrMin= 2.64D-03
 ErrMax= 2.64D-03  0.00D+00 EMaxC= 1.00D-01 BMatC= 1.60D-03 BMatP= 3.86D-02
 IDIUse=3 WtCom= 9.74D-01 WtEn= 2.64D-02
 Coeff-Com:  0.980D-02 0.199D+00 0.294D+00 0.497D+00
 Coeff-En:   0.000D+00 0.000D+00 0.000D+00 0.100D+01
 Coeff:      0.954D-02 0.194D+00 0.287D+00 0.510D+00
 Gap=     0.373 Goal=   None    Shift=    0.000
 RMSDP=3.34D-04 MaxDP=2.74D-02 DE=-3.40D-02 OVMax= 1.00D-02

 Cycle   5  Pass 1  IDiag  1:
 RMSU=  2.04D-04    CP:  6.86D-01  9.22D-01  6.34D-01  8.00D-01
 E= -440.140753910835     Delta-E=       -0.001233566333 Rises=F Damp=F
 DIIS: error= 5.87D-04 at cycle   5 NSaved=   5.
 NSaved= 5 IEnMin= 5 EnMin= -440.140753910835     IErMin= 5 ErrMin= 5.87D-04
 ErrMax= 5.87D-04  0.00D+00 EMaxC= 1.00D-01 BMatC= 5.65D-05 BMatP= 1.60D-03
 IDIUse=3 WtCom= 9.94D-01 WtEn= 5.87D-03
 Coeff-Com:  0.124D-02 0.274D-01 0.505D-01 0.177D+00 0.744D+00
 Coeff-En:   0.000D+00 0.000D+00 0.000D+00 0.000D+00 0.100D+01
 Coeff:      0.123D-02 0.272D-01 0.502D-01 0.176D+00 0.746D+00
 Gap=     0.363 Goal=   None    Shift=    0.000
 RMSDP=1.21D-04 MaxDP=6.53D-03 DE=-1.23D-03 OVMax= 2.69D-03

 Cycle   6  Pass 1  IDiag  1:
 RMSU=  8.98D-05    CP:  6.87D-01  9.29D-01  6.45D-01  8.89D-01  9.68D-01
 E= -440.140790870126     Delta-E=       -0.000036959290 Rises=F Damp=F
 DIIS: error= 2.84D-04 at cycle   6 NSaved=   6.
 NSaved= 6 IEnMin= 6 EnMin= -440.140790870126     IErMin= 6 ErrMin= 2.84D-04
 ErrMax= 2.84D-04  0.00D+00 EMaxC= 1.00D-01 BMatC= 1.63D-05 BMatP= 5.65D-05
 IDIUse=3 WtCom= 9.97D-01 WtEn= 2.84D-03
 Coeff-Com: -0.105D-02-0.187D-01-0.207D-01 0.778D-02 0.399D+00 0.634D+00
 Coeff-En:   0.000D+00 0.000D+00 0.000D+00 0.000D+00 0.669D-01 0.933D+00
 Coeff:     -0.104D-02-0.186D-01-0.207D-01 0.775D-02 0.398D+00 0.635D+00
 Gap=     0.363 Goal=   None    Shift=    0.000
 RMSDP=4.35D-05 MaxDP=1.60D-03 DE=-3.70D-05 OVMax= 1.16D-03

 Cycle   7  Pass 1  IDiag  1:
 RMSU=  2.52D-05    CP:  6.86D-01  9.29D-01  6.46D-01  9.20D-01  1.08D+00
                    CP:  1.05D+00
 E= -440.140804664812     Delta-E=       -0.000013794686 Rises=F Damp=F
 DIIS: error= 9.34D-05 at cycle   7 NSaved=   7.
 NSaved= 7 IEnMin= 7 EnMin= -440.140804664812     IErMin= 7 ErrMin= 9.34D-05
 ErrMax= 9.34D-05  0.00D+00 EMaxC= 1.00D-01 BMatC= 4.19D-07 BMatP= 1.63D-05
 IDIUse=1 WtCom= 1.00D+00 WtEn= 0.00D+00
 Coeff-Com: -0.305D-03-0.587D-02-0.683D-02-0.123D-01 0.289D-01 0.116D+00
 Coeff-Com:  0.880D+00
 Coeff:     -0.305D-03-0.587D-02-0.683D-02-0.123D-01 0.289D-01 0.116D+00
 Coeff:      0.880D+00
 Gap=     0.363 Goal=   None    Shift=    0.000
 RMSDP=1.63D-05 MaxDP=1.10D-03 DE=-1.38D-05 OVMax= 4.01D-04

 Cycle   8  Pass 1  IDiag  1:
 RMSU=  7.72D-06    CP:  6.86D-01  9.29D-01  6.47D-01  9.32D-01  1.13D+00
                    CP:  1.13D+00  1.13D+00
 E= -440.140805473099     Delta-E=       -0.000000808288 Rises=F Damp=F
 DIIS: error= 1.37D-05 at cycle   8 NSaved=   8.
 NSaved= 8 IEnMin= 8 EnMin= -440.140805473099     IErMin= 8 ErrMin= 1.37D-05
 ErrMax= 1.37D-05  0.00D+00 EMaxC= 1.00D-01 BMatC= 8.20D-08 BMatP= 4.19D-07
 IDIUse=1 WtCom= 1.00D+00 WtEn= 0.00D+00
 Coeff-Com:  0.616D-04 0.798D-03 0.102D-02-0.626D-02-0.546D-01-0.675D-01
 Coeff-Com:  0.269D+00 0.858D+00
 Coeff:      0.616D-04 0.798D-03 0.102D-02-0.626D-02-0.546D-01-0.675D-01
 Coeff:      0.269D+00 0.858D+00
 Gap=     0.363 Goal=   None    Shift=    0.000
 RMSDP=6.33D-06 MaxDP=3.52D-04 DE=-8.08D-07 OVMax= 2.47D-04

 Cycle   9  Pass 1  IDiag  1:
 RMSU=  2.38D-06    CP:  6.86D-01  9.29D-01  6.47D-01  9.35D-01  1.14D+00
                    CP:  1.16D+00  1.25D+00  1.16D+00
 E= -440.140805623008     Delta-E=       -0.000000149909 Rises=F Damp=F
 DIIS: error= 1.37D-05 at cycle   9 NSaved=   9.
 NSaved= 9 IEnMin= 9 EnMin= -440.140805623008     IErMin= 8 ErrMin= 1.37D-05
 ErrMax= 1.37D-05  0.00D+00 EMaxC= 1.00D-01 BMatC= 7.01D-09 BMatP= 8.20D-08
 IDIUse=1 WtCom= 1.00D+00 WtEn= 0.00D+00
 Coeff-Com:  0.473D-04 0.825D-03 0.108D-02-0.596D-03-0.175D-01-0.299D-01
 Coeff-Com: -0.107D-02 0.239D+00 0.808D+00
 Coeff:      0.473D-04 0.825D-03 0.108D-02-0.596D-03-0.175D-01-0.299D-01
 Coeff:     -0.107D-02 0.239D+00 0.808D+00
 Gap=     0.363 Goal=   None    Shift=    0.000
 RMSDP=1.28D-06 MaxDP=3.25D-05 DE=-1.50D-07 OVMax= 5.90D-05

 Cycle  10  Pass 1  IDiag  1:
 RMSU=  7.96D-07    CP:  6.86D-01  9.29D-01  6.47D-01  9.35D-01  1.14D+00
                    CP:  1.17D+00  1.26D+00  1.20D+00  1.25D+00
 E= -440.140805636516     Delta-E=       -0.000000013508 Rises=F Damp=F
 DIIS: error= 1.94D-06 at cycle  10 NSaved=  10.
 NSaved=10 IEnMin=10 EnMin= -440.140805636516     IErMin=10 ErrMin= 1.94D-06
 ErrMax= 1.94D-06  0.00D+00 EMaxC= 1.00D-01 BMatC= 1.15D-09 BMatP= 7.01D-09
 IDIUse=1 WtCom= 1.00D+00 WtEn= 0.00D+00
 Coeff-Com:  0.459D-05 0.133D-03 0.196D-03 0.698D-03 0.313D-02 0.104D-02
 Coeff-Com: -0.375D-01-0.739D-01 0.233D+00 0.873D+00
 Coeff:      0.459D-05 0.133D-03 0.196D-03 0.698D-03 0.313D-02 0.104D-02
 Coeff:     -0.375D-01-0.739D-01 0.233D+00 0.873D+00
 Gap=     0.363 Goal=   None    Shift=    0.000
 RMSDP=7.04D-07 MaxDP=4.39D-05 DE=-1.35D-08 OVMax= 3.24D-05

 Cycle  11  Pass 1  IDiag  1:
 RMSU=  3.47D-07    CP:  6.86D-01  9.29D-01  6.47D-01  9.34D-01  1.14D+00
                    CP:  1.16D+00  1.26D+00  1.21D+00  1.40D+00  1.16D+00
 E= -440.140805638777     Delta-E=       -0.000000002260 Rises=F Damp=F
 DIIS: error= 1.15D-06 at cycle  11 NSaved=  11.
 NSaved=11 IEnMin=11 EnMin= -440.140805638777     IErMin=11 ErrMin= 1.15D-06
 ErrMax= 1.15D-06  0.00D+00 EMaxC= 1.00D-01 BMatC= 9.14D-11 BMatP= 1.15D-09
 IDIUse=1 WtCom= 1.00D+00 WtEn= 0.00D+00
 Coeff-Com: -0.318D-05-0.476D-04-0.514D-04 0.260D-03 0.269D-02 0.330D-02
 Coeff-Com: -0.891D-02-0.474D-01-0.244D-01 0.207D+00 0.868D+00
 Coeff:     -0.318D-05-0.476D-04-0.514D-04 0.260D-03 0.269D-02 0.330D-02
 Coeff:     -0.891D-02-0.474D-01-0.244D-01 0.207D+00 0.868D+00
 Gap=     0.363 Goal=   None    Shift=    0.000
 RMSDP=2.56D-07 MaxDP=2.20D-05 DE=-2.26D-09 OVMax= 6.57D-06

 Cycle  12  Pass 1  IDiag  1:
 RMSU=  8.00D-08    CP:  6.86D-01  9.29D-01  6.47D-01  9.34D-01  1.14D+00
                    CP:  1.16D+00  1.26D+00  1.21D+00  1.44D+00  1.26D+00
                    CP:  1.25D+00
 E= -440.140805638969     Delta-E=       -0.000000000192 Rises=F Damp=F
 DIIS: error= 1.71D-07 at cycle  12 NSaved=  12.
 NSaved=12 IEnMin=12 EnMin= -440.140805638969     IErMin=12 ErrMin= 1.71D-07
 ErrMax= 1.71D-07  0.00D+00 EMaxC= 1.00D-01 BMatC= 8.22D-12 BMatP= 9.14D-11
 IDIUse=1 WtCom= 1.00D+00 WtEn= 0.00D+00
 Coeff-Com: -0.903D-06-0.203D-04-0.266D-04-0.146D-04 0.359D-04 0.368D-03
 Coeff-Com:  0.271D-02-0.214D-03-0.240D-01-0.489D-01 0.148D+00 0.922D+00
 Coeff:     -0.903D-06-0.203D-04-0.266D-04-0.146D-04 0.359D-04 0.368D-03
 Coeff:      0.271D-02-0.214D-03-0.240D-01-0.489D-01 0.148D+00 0.922D+00
 Gap=     0.363 Goal=   None    Shift=    0.000
 RMSDP=1.03D-07 MaxDP=7.96D-06 DE=-1.92D-10 OVMax= 2.63D-06

 Cycle  13  Pass 1  IDiag  1:
 RMSU=  3.09D-08    CP:  6.86D-01  9.29D-01  6.47D-01  9.34D-01  1.14D+00
                    CP:  1.16D+00  1.26D+00  1.20D+00  1.44D+00  1.28D+00
                    CP:  1.36D+00  1.27D+00
 E= -440.140805638987     Delta-E=       -0.000000000019 Rises=F Damp=F
 DIIS: error= 7.02D-08 at cycle  13 NSaved=  13.
 NSaved=13 IEnMin=13 EnMin= -440.140805638987     IErMin=13 ErrMin= 7.02D-08
 ErrMax= 7.02D-08  0.00D+00 EMaxC= 1.00D-01 BMatC= 1.63D-12 BMatP= 8.22D-12
 IDIUse=1 WtCom= 1.00D+00 WtEn= 0.00D+00
 Coeff-Com:  0.819D-07-0.313D-06-0.178D-05-0.301D-04-0.335D-03-0.280D-03
 Coeff-Com:  0.189D-02 0.558D-02-0.450D-02-0.407D-01-0.715D-01 0.283D+00
 Coeff-Com:  0.827D+00
 Coeff:      0.819D-07-0.313D-06-0.178D-05-0.301D-04-0.335D-03-0.280D-03
 Coeff:      0.189D-02 0.558D-02-0.450D-02-0.407D-01-0.715D-01 0.283D+00
 Coeff:      0.827D+00
 Gap=     0.363 Goal=   None    Shift=    0.000
 RMSDP=3.83D-08 MaxDP=2.74D-06 DE=-1.86D-11 OVMax= 8.29D-07

 Cycle  14  Pass 1  IDiag  1:
 RMSU=  1.12D-08    CP:  6.86D-01  9.29D-01  6.47D-01  9.34D-01  1.14D+00
                    CP:  1.16D+00  1.26D+00  1.20D+00  1.44D+00  1.29D+00
                    CP:  1.41D+00  1.34D+00  1.21D+00
 E= -440.140805638991     Delta-E=       -0.000000000003 Rises=F Damp=F
 DIIS: error= 2.20D-08 at cycle  14 NSaved=  14.
 NSaved=14 IEnMin=14 EnMin= -440.140805638991     IErMin=14 ErrMin= 2.20D-08
 ErrMax= 2.20D-08  0.00D+00 EMaxC= 1.00D-01 BMatC= 1.11D-13 BMatP= 1.63D-12
 IDIUse=1 WtCom= 1.00D+00 WtEn= 0.00D+00
 Coeff-Com:  0.934D-07 0.159D-05 0.176D-05-0.451D-05-0.765D-04-0.824D-04
 Coeff-Com:  0.149D-03 0.113D-02 0.127D-02-0.285D-02-0.323D-01-0.282D-01
 Coeff-Com:  0.172D+00 0.889D+00
 Coeff:      0.934D-07 0.159D-05 0.176D-05-0.451D-05-0.765D-04-0.824D-04
 Coeff:      0.149D-03 0.113D-02 0.127D-02-0.285D-02-0.323D-01-0.282D-01
 Coeff:      0.172D+00 0.889D+00
 Gap=     0.363 Goal=   None    Shift=    0.000
 RMSDP=7.43D-09 MaxDP=2.08D-07 DE=-3.41D-12 OVMax= 2.56D-07

 SCF Done:  E(RwB97XD) =  -440.140805639     A.U. after   14 cycles
            NFock= 14  Conv=0.74D-08     -V/T= 2.0003
 KE= 4.400218369074D+02 PE=-2.007865692439D+03 EE= 6.370034495337D+02
 Leave Link  502 at Tue Nov 22 19:10:37 2022, MaxMem= 16106127360 cpu:             669.0 elap:              21.3
 (Enter /opt/ap/G16/B01/g16/l601.exe)
 Copying SCF densities to generalized density rwf, IOpCl= 0 IROHF=0.

 **********************************************************************

            Population analysis using the SCF Density.

 **********************************************************************

 Orbital symmetries:
       Occupied  (A) (A) (A) (A) (A) (A) (A) (A) (A) (A) (A) (A)
                 (A) (A) (A) (A) (A) (A) (A) (A) (A) (A) (A) (A)
                 (A) (A) (A) (A) (A) (A) (A) (A) (A) (A) (A) (A)
       Virtual   (A) (A) (A) (A) (A) (A) (A) (A) (A) (A) (A) (A)
                 (A) (A) (A) (A) (A) (A) (A) (A) (A) (A) (A) (A)
                 (A) (A) (A) (A) (A) (A) (A) (A) (A) (A) (A) (A)
                 (A) (A) (A) (A) (A) (A) (A) (A) (A) (A) (A) (A)
                 (A) (A) (A) (A) (A) (A) (A) (A) (A) (A) (A) (A)
                 (A) (A) (A) (A) (A) (A) (A) (A) (A) (A) (A) (A)
                 (A) (A) (A) (A) (A) (A) (A) (A) (A) (A) (A) (A)
                 (A) (A) (A) (A) (A) (A) (A) (A) (A) (A) (A) (A)
                 (A) (A) (A) (A) (A) (A) (A) (A) (A) (A) (A) (A)
                 (A) (A) (A) (A) (A) (A) (A) (A) (A) (A) (A) (A)
                 (A) (A) (A) (A) (A) (A) (A) (A) (A) (A) (A) (A)
                 (A) (A) (A) (A) (A) (A) (A) (A) (A) (A) (A) (A)
                 (A) (A) (A) (A) (A) (A) (A) (A) (A) (A) (A) (A)
                 (A) (A) (A) (A) (A) (A) (A) (A) (A) (A) (A) (A)
                 (A) (A) (A) (A) (A) (A) (A) (A) (A) (A) (A) (A)
                 (A) (A) (A) (A) (A) (A) (A) (A) (A) (A) (A) (A)
                 (A) (A) (A) (A) (A) (A) (A) (A) (A) (A) (A) (A)
                 (A) (A) (A) (A) (A) (A) (A) (A) (A) (A) (A) (A)
                 (A) (A) (A) (A) (A) (A) (A) (A) (A) (A) (A) (A)
                 (A) (A) (A) (A) (A) (A) (A) (A) (A) (A) (A) (A)
                 (A) (A) (A) (A) (A) (A)
 The electronic state is 1-A.
 Alpha  occ. eigenvalues --  -19.20600 -14.45866 -10.39217 -10.33465 -10.28430
 Alpha  occ. eigenvalues --  -10.28330 -10.28241 -10.28191 -10.28141 -10.25899
 Alpha  occ. eigenvalues --   -1.13708  -1.05475  -0.96577  -0.88254  -0.86822
 Alpha  occ. eigenvalues --   -0.84685  -0.74029  -0.73029  -0.69946  -0.65834
 Alpha  occ. eigenvalues --   -0.61648  -0.58226  -0.56660  -0.55387  -0.54431
 Alpha  occ. eigenvalues --   -0.53255  -0.51394  -0.49302  -0.47243  -0.46279
 Alpha  occ. eigenvalues --   -0.45724  -0.44275  -0.36226  -0.34226  -0.33510
 Alpha  occ. eigenvalues --   -0.32847
 Alpha virt. eigenvalues --    0.03481   0.04448   0.04515   0.04759   0.05165
 Alpha virt. eigenvalues --    0.06147   0.06655   0.06833   0.08528   0.09078
 Alpha virt. eigenvalues --    0.10076   0.10343   0.11475   0.12732   0.13362
 Alpha virt. eigenvalues --    0.13791   0.14838   0.15391   0.16204   0.16490
 Alpha virt. eigenvalues --    0.16770   0.17451   0.17650   0.17983   0.18368
 Alpha virt. eigenvalues --    0.18769   0.19124   0.19485   0.19917   0.20412
 Alpha virt. eigenvalues --    0.21148   0.21361   0.22315   0.23221   0.23914
 Alpha virt. eigenvalues --    0.24073   0.24567   0.25008   0.25559   0.26426
 Alpha virt. eigenvalues --    0.27552   0.28459   0.28643   0.28889   0.29601
 Alpha virt. eigenvalues --    0.29808   0.31030   0.31729   0.33075   0.34145
 Alpha virt. eigenvalues --    0.34700   0.35768   0.36545   0.37153   0.38222
 Alpha virt. eigenvalues --    0.38579   0.39013   0.39298   0.40184   0.41667
 Alpha virt. eigenvalues --    0.42172   0.43561   0.44435   0.44984   0.45333
 Alpha virt. eigenvalues --    0.46652   0.48353   0.50554   0.53987   0.55343
 Alpha virt. eigenvalues --    0.56724   0.58326   0.59266   0.62517   0.63143
 Alpha virt. eigenvalues --    0.63907   0.65057   0.65490   0.65877   0.66568
 Alpha virt. eigenvalues --    0.68147   0.69334   0.70490   0.73080   0.73715
 Alpha virt. eigenvalues --    0.74122   0.74668   0.76151   0.77534   0.78357
 Alpha virt. eigenvalues --    0.79359   0.81264   0.82102   0.83043   0.84115
 Alpha virt. eigenvalues --    0.87099   0.88085   0.89658   0.92592   0.93311
 Alpha virt. eigenvalues --    0.94089   0.94809   0.95833   0.96528   0.97564
 Alpha virt. eigenvalues --    0.98394   0.99196   1.00190   1.01903   1.04894
 Alpha virt. eigenvalues --    1.07475   1.09753   1.11464   1.13109   1.15659
 Alpha virt. eigenvalues --    1.16377   1.16569   1.19139   1.22535   1.24979
 Alpha virt. eigenvalues --    1.25768   1.28232   1.31566   1.36076   1.37880
 Alpha virt. eigenvalues --    1.42592   1.43369   1.47498   1.53715   1.55568
 Alpha virt. eigenvalues --    1.56198   1.60984   1.61804   1.62569   1.66000
 Alpha virt. eigenvalues --    1.66893   1.67540   1.67930   1.68708   1.69960
 Alpha virt. eigenvalues --    1.70970   1.71695   1.74839   1.76076   1.78262
 Alpha virt. eigenvalues --    1.82806   1.83997   1.87170   1.88954   1.90926
 Alpha virt. eigenvalues --    1.92779   1.93554   1.96934   1.97336   1.98286
 Alpha virt. eigenvalues --    2.01366   2.02493   2.04348   2.06583   2.06992
 Alpha virt. eigenvalues --    2.08709   2.11054   2.12873   2.13966   2.16078
 Alpha virt. eigenvalues --    2.22007   2.24949   2.27125   2.30975   2.35590
 Alpha virt. eigenvalues --    2.37984   2.42102   2.46005   2.49288   2.52629
 Alpha virt. eigenvalues --    2.53484   2.54977   2.60103   2.61138   2.63802
 Alpha virt. eigenvalues --    2.65871   2.67499   2.72524   2.74306   2.78353
 Alpha virt. eigenvalues --    2.81123   2.81697   2.83184   2.83375   2.84595
 Alpha virt. eigenvalues --    2.87078   2.88285   2.90519   2.92117   2.93354
 Alpha virt. eigenvalues --    2.94424   2.95526   2.97837   3.00571   3.01618
 Alpha virt. eigenvalues --    3.02920   3.04556   3.05733   3.12916   3.14981
 Alpha virt. eigenvalues --    3.20601   3.21370   3.22514   3.24792   3.28039
 Alpha virt. eigenvalues --    3.42046   3.44832   3.46035   3.48126   3.51578
 Alpha virt. eigenvalues --    3.62991   3.68211   3.71245   3.73540   3.90568
 Alpha virt. eigenvalues --    4.00223   4.07386   4.09666   4.13834   4.17705
 Alpha virt. eigenvalues --    4.30388   4.34240   4.38888   4.38944   4.44044
 Alpha virt. eigenvalues --    4.95504   5.16034   5.20303   5.21027   5.38358
 Alpha virt. eigenvalues --    5.90507  23.88454  23.98888  24.15014  24.22460
 Alpha virt. eigenvalues --   24.29819  24.32811  24.38373  24.42351  35.88404
 Alpha virt. eigenvalues --   50.16973
          Condensed to atoms (all electrons):
               1          2          3          4          5          6
     1  C    7.754928  -0.030975  -0.404320  -0.549800  -0.148421  -0.264660
     2  C   -0.030975   7.704671  -2.307043   0.424800   0.579127  -0.139729
     3  C   -0.404320  -2.307043   8.384188   0.309143  -0.094212   0.001373
     4  C   -0.549800   0.424800   0.309143   5.428716  -0.013400   0.057239
     5  H   -0.148421   0.579127  -0.094212  -0.013400   0.488082  -0.000676
     6  N   -0.264660  -0.139729   0.001373   0.057239  -0.000676   7.717612
     7  C   -0.328639   0.320556   0.269705  -0.124576   0.023010  -0.055372
     8  H   -0.098482  -0.062571   0.596826   0.032004  -0.003298  -0.013212
     9  C    0.097852  -0.155121  -0.500461   0.388117   0.020759   0.030066
    10  H    0.034492  -0.122410   0.054474   0.429662  -0.015292  -0.003974
    11  C   -0.034818  -0.000044  -0.227615  -0.096653  -0.018194  -0.043910
    12  H   -0.031174   0.021796  -0.066225  -0.000164  -0.000037   0.348785
    13  H    0.011656   0.017457  -0.083510  -0.003647   0.001322  -0.004061
    14  H    0.022299  -0.014569  -0.012640  -0.052787  -0.000017   0.001974
    15  C    0.048455  -0.052194   0.027221  -0.019813  -0.003608  -0.449150
    16  O    0.148777  -0.129993   0.020121  -0.052157  -0.004494  -0.154426
    17  H    0.012409   0.004653  -0.014222  -0.002326  -0.000238  -0.000938
    18  H   -0.004022  -0.002886   0.000829   0.000007  -0.000705   0.003158
    19  H    0.008631   0.000987   0.009093   0.001812   0.001274   0.019897
               7          8          9         10         11         12
     1  C   -0.328639  -0.098482   0.097852   0.034492  -0.034818  -0.031174
     2  C    0.320556  -0.062571  -0.155121  -0.122410  -0.000044   0.021796
     3  C    0.269705   0.596826  -0.500461   0.054474  -0.227615  -0.066225
     4  C   -0.124576   0.032004   0.388117   0.429662  -0.096653  -0.000164
     5  H    0.023010  -0.003298   0.020759  -0.015292  -0.018194  -0.000037
     6  N   -0.055372  -0.013212   0.030066  -0.003974  -0.043910   0.348785
     7  C    5.335575  -0.086708   0.483465  -0.010108  -0.018304  -0.016013
     8  H   -0.086708   0.505012  -0.009552   0.001812  -0.016165   0.000470
     9  C    0.483465  -0.009552   5.589864  -0.056039   0.033907   0.009631
    10  H   -0.010108   0.001812  -0.056039   0.487898  -0.000420   0.000196
    11  C   -0.018304  -0.016165   0.033907  -0.000420   6.007218   0.068382
    12  H   -0.016013   0.000470   0.009631   0.000196   0.068382   0.364225
    13  H    0.430195  -0.013524  -0.041539  -0.000890  -0.000275   0.000164
    14  H   -0.057838  -0.001004   0.468375  -0.009099  -0.000973   0.000336
    15  C    0.034521  -0.005610  -0.001786  -0.000499  -0.133242  -0.018921
    16  O    0.012533  -0.003455   0.005476  -0.000453   0.494453   0.006643
    17  H   -0.000098  -0.000541   0.000361  -0.000014  -0.034001   0.000001
    18  H   -0.000984  -0.000142   0.000079  -0.000005  -0.031654   0.000892
    19  H    0.001847   0.001381  -0.001106  -0.000002  -0.099249  -0.007930
              13         14         15         16         17         18
     1  C    0.011656   0.022299   0.048455   0.148777   0.012409  -0.004022
     2  C    0.017457  -0.014569  -0.052194  -0.129993   0.004653  -0.002886
     3  C   -0.083510  -0.012640   0.027221   0.020121  -0.014222   0.000829
     4  C   -0.003647  -0.052787  -0.019813  -0.052157  -0.002326   0.000007
     5  H    0.001322  -0.000017  -0.003608  -0.004494  -0.000238  -0.000705
     6  N   -0.004061   0.001974  -0.449150  -0.154426  -0.000938   0.003158
     7  C    0.430195  -0.057838   0.034521   0.012533  -0.000098  -0.000984
     8  H   -0.013524  -0.001004  -0.005610  -0.003455  -0.000541  -0.000142
     9  C   -0.041539   0.468375  -0.001786   0.005476   0.000361   0.000079
    10  H   -0.000890  -0.009099  -0.000499  -0.000453  -0.000014  -0.000005
    11  C   -0.000275  -0.000973  -0.133242   0.494453  -0.034001  -0.031654
    12  H    0.000164   0.000336  -0.018921   0.006643   0.000001   0.000892
    13  H    0.487592  -0.008154  -0.000058   0.000047  -0.000048  -0.000006
    14  H   -0.008154   0.488854  -0.000070  -0.000053   0.000007  -0.000004
    15  C   -0.000058  -0.000070   5.885924  -0.022522   0.409463   0.423251
    16  O    0.000047  -0.000053  -0.022522   8.034813  -0.009910  -0.007520
    17  H   -0.000048   0.000007   0.409463  -0.009910   0.500480  -0.025713
    18  H   -0.000006  -0.000004   0.423251  -0.007520  -0.025713   0.492318
    19  H    0.000019  -0.000028   0.409219   0.010852  -0.034455  -0.036133
              19
     1  C    0.008631
     2  C    0.000987
     3  C    0.009093
     4  C    0.001812
     5  H    0.001274
     6  N    0.019897
     7  C    0.001847
     8  H    0.001381
     9  C   -0.001106
    10  H   -0.000002
    11  C   -0.099249
    12  H   -0.007930
    13  H    0.000019
    14  H   -0.000028
    15  C    0.409219
    16  O    0.010852
    17  H   -0.034455
    18  H   -0.036133
    19  H    0.603836
 Mulliken charges:
               1
     1  C   -0.244188
     2  C   -0.056512
     3  C    0.037274
     4  C   -0.156177
     5  H    0.189018
     6  N   -0.049996
     7  C   -0.212768
     8  H    0.176759
     9  C   -0.362346
    10  H    0.210672
    11  C    0.151556
    12  H    0.318943
    13  H    0.207260
    14  H    0.175391
    15  C   -0.530582
    16  O   -0.348731
    17  H    0.195130
    18  H    0.189240
    19  H    0.110056
 Sum of Mulliken charges =  -0.00000
 Mulliken charges with hydrogens summed into heavy atoms:
               1
     1  C   -0.244188
     2  C    0.132506
     3  C    0.214033
     4  C    0.054495
     6  N    0.268947
     7  C   -0.005507
     9  C   -0.186955
    11  C    0.151556
    15  C   -0.036155
    16  O   -0.348731
 Electronic spatial extent (au):  <R**2>=           1660.0439
 Charge=              0.0000 electrons
 Dipole moment (field-independent basis, Debye):
    X=              0.4313    Y=              2.2972    Z=             -3.0284  Tot=              3.8255
 Quadrupole moment (field-independent basis, Debye-Ang):
   XX=            -49.5108   YY=            -54.9698   ZZ=            -62.7152
   XY=             -5.4780   XZ=              7.7810   YZ=              3.4771
 Traceless Quadrupole moment (field-independent basis, Debye-Ang):
   XX=              6.2211   YY=              0.7622   ZZ=             -6.9833
   XY=             -5.4780   XZ=              7.7810   YZ=              3.4771
 Octapole moment (field-independent basis, Debye-Ang**2):
  XXX=            -15.4851  YYY=              0.8269  ZZZ=             -5.0842  XYY=              4.8108
  XXY=              7.6011  XXZ=             -4.0228  XZZ=             -5.4710  YZZ=              5.3279
  YYZ=             -3.6618  XYZ=             -1.2168
 Hexadecapole moment (field-independent basis, Debye-Ang**3):
 XXXX=          -1547.6197 YYYY=           -311.6078 ZZZZ=           -166.8259 XXXY=            -23.8940
 XXXZ=             46.5597 YYYX=             -5.0245 YYYZ=              9.5359 ZZZX=             11.6493
 ZZZY=             -3.0607 XXYY=           -328.2314 XXZZ=           -336.0749 YYZZ=            -84.3906
 XXYZ=             19.5560 YYXZ=              8.8012 ZZXY=            -10.3841
 N-N= 4.906996003587D+02 E-N=-2.007865690936D+03  KE= 4.400218369074D+02
 No NMR shielding tensors so no spin-rotation constants.
 Leave Link  601 at Tue Nov 22 19:10:37 2022, MaxMem= 16106127360 cpu:               3.9 elap:               0.1
 (Enter /opt/ap/G16/B01/g16/l9999.exe)
 1\1\GINC-N36\SP\RwB97XD\6-311++G(d,p)\C8H9N1O1\ROOT\22-Nov-2022\0\\#P 
 wB97XD/6-311++G(d,p) scf=maxcycle=512\\_conf014.gjf nmol_natom 1_19\\0
 ,1\C\C,1,1.39447505\C,1,1.39873503,2,119.56697224\C,2,1.39066123,1,119
 .42697207,3,2.53915756,0\H,2,0.96213008,1,119.8046163,3,-177.79870417,
 0\N,1,1.41693372,2,123.72220125,4,-177.74604849,0\C,3,1.38667133,1,120
 .18759987,2,-2.5020857,0\H,3,0.95673174,1,118.82085988,2,177.96737168,
 0\C,4,1.38268572,2,121.03929493,1,-0.41221113,0\H,4,0.9858595,2,118.57
 91267,1,178.77373233,0\C,6,1.35500692,1,127.62132737,2,70.,0\H,6,0.896
 09466,1,115.10511997,2,-110.,0\H,7,0.98847198,3,119.08117704,1,-179.64
 585354,0\H,9,0.98451201,4,120.53755637,2,177.22743544,0\C,11,1.5027456
 1,6,115.46861532,1,175.89235465,0\O,11,1.23496495,6,123.15099888,1,-3.
 40672617,0\H,15,0.98719837,11,107.47091875,6,-116.36962839,0\H,15,0.99
 976021,11,109.69443261,6,128.85346087,0\H,15,0.97696155,11,114.3700887
 1,6,6.05302844,0\\Version=ES64L-G16RevB.01\State=1-A\HF=-440.1408056\R
 MSD=7.432e-09\Dipole=0.2002498,-1.3829786,-0.5590102\Quadrupole=3.5668
 26,-8.0899736,4.5231476,4.380074,3.4614823,0.7680547\PG=C01 [X(C8H9N1O
 1)]\\@


 WE THE UNWILLING
 LED BY THE UNQUALIFIED
 HAVE BEEN DOING THE UNBELIEVABLE SO LONG WITH SO LITTLE
 THAT WE NOW ATTEMPT THE IMPOSSIBLE WITH NOTHING.

                                    -- ANONYMOUS
 Job cpu time:       0 days  0 hours 11 minutes 48.6 seconds.
 Elapsed time:       0 days  0 hours  0 minutes 22.6 seconds.
 File lengths (MBytes):  RWF=     46 Int=      0 D2E=      0 Chk=      6 Scr=      1
 Normal termination of Gaussian 16 at Tue Nov 22 19:10:37 2022.
