 Entering Gaussian System, Link 0=g16
 Input=_conf048.gjf
 Output=_conf048.log
 Initial command:
 /opt/ap/G16/B01/g16/l1.exe "/tmp2/scr/Gau-7077.inp" -scrdir="/tmp2/scr/"
 Entering Link 1 = /opt/ap/G16/B01/g16/l1.exe PID=      7078.
  
 Copyright (c) 1988-2017, Gaussian, Inc.  All Rights Reserved.
  
 This is part of the Gaussian(R) 16 program.  It is based on
 the Gaussian(R) 09 system (copyright 2009, Gaussian, Inc.),
 the Gaussian(R) 03 system (copyright 2003, Gaussian, Inc.),
 the Gaussian(R) 98 system (copyright 1998, Gaussian, Inc.),
 the Gaussian(R) 94 system (copyright 1995, Gaussian, Inc.),
 the Gaussian 92(TM) system (copyright 1992, Gaussian, Inc.),
 the Gaussian 90(TM) system (copyright 1990, Gaussian, Inc.),
 the Gaussian 88(TM) system (copyright 1988, Gaussian, Inc.),
 the Gaussian 86(TM) system (copyright 1986, Carnegie Mellon
 University), and the Gaussian 82(TM) system (copyright 1983,
 Carnegie Mellon University). Gaussian is a federally registered
 trademark of Gaussian, Inc.
  
 This software contains proprietary and confidential information,
 including trade secrets, belonging to Gaussian, Inc.
  
 This software is provided under written license and may be
 used, copied, transmitted, or stored only in accord with that
 written license.
  
 The following legend is applicable only to US Government
 contracts under FAR:
  
                    RESTRICTED RIGHTS LEGEND
  
 Use, reproduction and disclosure by the US Government is
 subject to restrictions as set forth in subparagraphs (a)
 and (c) of the Commercial Computer Software - Restricted
 Rights clause in FAR 52.227-19.
  
 Gaussian, Inc.
 340 Quinnipiac St., Bldg. 40, Wallingford CT 06492
  
  
 ---------------------------------------------------------------
 Warning -- This program may not be used in any manner that
 competes with the business of Gaussian, Inc. or will provide
 assistance to any competitor of Gaussian, Inc.  The licensee
 of this program is prohibited from giving any competitor of
 Gaussian, Inc. access to this program.  By using this program,
 the user acknowledges that Gaussian, Inc. is engaged in the
 business of creating and licensing software in the field of
 computational chemistry and represents and warrants to the
 licensee that it is not a competitor of Gaussian, Inc. and that
 it will not use this program in any manner prohibited above.
 ---------------------------------------------------------------
  

 Cite this work as:
 Gaussian 16, Revision B.01,
 M. J. Frisch, G. W. Trucks, H. B. Schlegel, G. E. Scuseria, 
 M. A. Robb, J. R. Cheeseman, G. Scalmani, V. Barone, 
 G. A. Petersson, H. Nakatsuji, X. Li, M. Caricato, A. V. Marenich, 
 J. Bloino, B. G. Janesko, R. Gomperts, B. Mennucci, H. P. Hratchian, 
 J. V. Ortiz, A. F. Izmaylov, J. L. Sonnenberg, D. Williams-Young, 
 F. Ding, F. Lipparini, F. Egidi, J. Goings, B. Peng, A. Petrone, 
 T. Henderson, D. Ranasinghe, V. G. Zakrzewski, J. Gao, N. Rega, 
 G. Zheng, W. Liang, M. Hada, M. Ehara, K. Toyota, R. Fukuda, 
 J. Hasegawa, M. Ishida, T. Nakajima, Y. Honda, O. Kitao, H. Nakai, 
 T. Vreven, K. Throssell, J. A. Montgomery, Jr., J. E. Peralta, 
 F. Ogliaro, M. J. Bearpark, J. J. Heyd, E. N. Brothers, K. N. Kudin, 
 V. N. Staroverov, T. A. Keith, R. Kobayashi, J. Normand, 
 K. Raghavachari, A. P. Rendell, J. C. Burant, S. S. Iyengar, 
 J. Tomasi, M. Cossi, J. M. Millam, M. Klene, C. Adamo, R. Cammi, 
 J. W. Ochterski, R. L. Martin, K. Morokuma, O. Farkas, 
 J. B. Foresman, and D. J. Fox, Gaussian, Inc., Wallingford CT, 2016.
 
 ******************************************
 Gaussian 16:  ES64L-G16RevB.01 20-Dec-2017
                22-Nov-2022 
 ******************************************
 %nprocshared=32
 Will use up to   32 processors via shared memory.
 %mem=120GB
 %chk=_conf048.chk
 ----------------------------------------
 #P wB97XD/6-311++G(d,p) scf=maxcycle=512
 ----------------------------------------
 1/38=1,172=1/1;
 2/12=2,17=6,18=5,40=1/2;
 3/5=4,6=6,7=1111,11=2,25=1,30=1,74=-58/1,2,3;
 4//1;
 5/5=2,7=512,38=5/2;
 6/7=2,8=2,9=2,10=2,28=1/1;
 99/5=1,9=1/99;
 Leave Link    1 at Tue Nov 22 19:13:24 2022, MaxMem= 16106127360 cpu:               1.5 elap:               0.1
 (Enter /opt/ap/G16/B01/g16/l101.exe)
 ----------------------------
 _conf048.gjf nmol_natom 1_19
 ----------------------------
 Symbolic Z-matrix:
 Charge =  0 Multiplicity = 1
 C
 C                    1     1.39448 
 C                    1     1.39874  2     119.56697 
 C                    2     1.39066  1     119.42697  3     2.53916  0
 H                    2     0.96213  1     119.80462  3    -177.7987  0
 N                    1     1.41693  2     123.7222  4    -177.74605  0
 C                    3     1.38667  1     120.1876  2    -2.50209  0
 H                    3     0.95673  1     118.82086  2     177.96737  0
 C                    4     1.38269  2     121.03929  1    -0.41221  0
 H                    4     0.98586  2     118.57913  1     178.77373  0
 C                    6     1.35501  1     127.62133  2    -120.     0
 H                    6     0.89609  1     115.10512  2     60.      0
 H                    7     0.98847  3     119.08118  1    -179.64585  0
 H                    9     0.98451  4     120.53756  2     177.22744  0
 C                    11    1.50275  6     115.46862  1     175.89235  0
 O                    11    1.23496  6     123.151  1    -3.40673  0
 H                    15    0.9872   11    107.47092  6    -116.36963  0
 H                    15    0.99976  11    109.69443  6     128.85346  0
 H                    15    0.97696  11    114.37009  6     6.05303  0
 
 ITRead=  0  0  0  0  0  0  0  0  0  0  0  0  0  0  0  0  0  0  0
 MicOpt= -1 -1 -1 -1 -1 -1 -1 -1 -1 -1 -1 -1 -1 -1 -1 -1 -1 -1 -1
 NAtoms=     19 NQM=       19 NQMF=       0 NMMI=      0 NMMIF=      0
                NMic=       0 NMicF=      0.
                    Isotopes and Nuclear Properties:
 (Nuclear quadrupole moments (NQMom) in fm**2, nuclear magnetic moments (NMagM)
  in nuclear magnetons)

  Atom         1           2           3           4           5           6           7           8           9          10
 IAtWgt=          12          12          12          12           1          14          12           1          12           1
 AtmWgt=  12.0000000  12.0000000  12.0000000  12.0000000   1.0078250  14.0030740  12.0000000   1.0078250  12.0000000   1.0078250
 NucSpn=           0           0           0           0           1           2           0           1           0           1
 AtZEff=  -0.0000000  -0.0000000  -0.0000000  -0.0000000  -0.0000000  -0.0000000  -0.0000000  -0.0000000  -0.0000000  -0.0000000
 NQMom=    0.0000000   0.0000000   0.0000000   0.0000000   0.0000000   2.0440000   0.0000000   0.0000000   0.0000000   0.0000000
 NMagM=    0.0000000   0.0000000   0.0000000   0.0000000   2.7928460   0.4037610   0.0000000   2.7928460   0.0000000   2.7928460
 AtZNuc=   6.0000000   6.0000000   6.0000000   6.0000000   1.0000000   7.0000000   6.0000000   1.0000000   6.0000000   1.0000000

  Atom        11          12          13          14          15          16          17          18          19
 IAtWgt=          12           1           1           1          12          16           1           1           1
 AtmWgt=  12.0000000   1.0078250   1.0078250   1.0078250  12.0000000  15.9949146   1.0078250   1.0078250   1.0078250
 NucSpn=           0           1           1           1           0           0           1           1           1
 AtZEff=  -0.0000000  -0.0000000  -0.0000000  -0.0000000  -0.0000000  -0.0000000  -0.0000000  -0.0000000  -0.0000000
 NQMom=    0.0000000   0.0000000   0.0000000   0.0000000   0.0000000   0.0000000   0.0000000   0.0000000   0.0000000
 NMagM=    0.0000000   2.7928460   2.7928460   2.7928460   0.0000000   0.0000000   2.7928460   2.7928460   2.7928460
 AtZNuc=   6.0000000   1.0000000   1.0000000   1.0000000   6.0000000   8.0000000   1.0000000   1.0000000   1.0000000
 Leave Link  101 at Tue Nov 22 19:13:24 2022, MaxMem= 16106127360 cpu:               5.2 elap:               0.2
 (Enter /opt/ap/G16/B01/g16/l202.exe)
                          Input orientation:                          
 ---------------------------------------------------------------------
 Center     Atomic      Atomic             Coordinates (Angstroms)
 Number     Number       Type             X           Y           Z
 ---------------------------------------------------------------------
      1          6           0        0.000000    0.000000    0.000000
      2          6           0        0.000000    0.000000    1.394475
      3          6           0        1.216591    0.000000   -0.690193
      4          6           0        1.210053    0.053661    2.077726
      5          1           0       -0.834249   -0.032067    1.872696
      6          7           0       -1.178505   -0.005866   -0.786634
      7          6           0        2.413939    0.052326    0.007287
      8          1           0        1.204393   -0.029731   -1.646384
      9          6           0        2.412261    0.098442    1.396177
     10          1           0        1.194755    0.071528    3.063305
     11          6           0       -1.563930   -0.937258   -1.692173
     12          1           0       -1.723462    0.694158   -0.660253
     13          1           0        3.263999    0.056828   -0.497149
     14          1           0        3.262484    0.177260    1.886251
     15          6           0       -2.918560   -0.720461   -2.305540
     16          8           0       -0.869089   -1.911976   -1.995917
     17          1           0       -3.490201   -1.479341   -2.037420
     18          1           0       -2.848711   -0.767149   -3.301764
     19          1           0       -3.343912    0.122822   -2.055730
 ---------------------------------------------------------------------
                    Distance matrix (angstroms):
                    1          2          3          4          5
     1  C    0.000000
     2  C    1.394475   0.000000
     3  C    1.398735   2.413697   0.000000
     4  C    2.405006   1.390661   2.768447   0.000000
     5  H    2.050363   0.962130   3.282586   2.056345   0.000000
     6  N    1.416934   2.479142   2.397044   3.730055   2.681648
     7  C    2.414517   2.784624   1.386671   2.395008   3.746678
     8  H    2.040105   3.270821   0.956732   3.725048   4.066939
     9  C    2.788908   2.414270   2.406711   1.382686   3.283889
    10  H    3.288829   2.053668   3.754243   0.985860   2.354812
    11  C    2.487525   3.584930   3.100599   4.784249   3.749679
    12  H    1.971829   2.770213   3.021037   4.063529   2.780995
    13  H    3.302132   3.772951   2.057273   3.293734   4.734944
    14  H    3.772687   3.304099   3.294718   2.065046   4.102100
    15  C    3.788479   4.767302   4.497543   6.071057   4.719735
    16  O    2.897353   3.988198   3.116189   4.978065   4.301329
    17  H    4.303607   5.113497   5.114427   6.432488   4.943449
    18  H    4.427790   5.546020   4.892393   6.788682   5.601200
    19  H    3.927195   4.806324   4.762139   6.150515   4.664218
                    6          7          8          9         10
     6  N    0.000000
     7  C    3.679585   0.000000
     8  H    2.533365   2.050454   0.000000
     9  C    4.203468   1.389657   3.276058   0.000000
    10  H    4.523316   3.290292   4.710788   2.064548   0.000000
    11  C    1.355007   4.437441   2.913643   5.140105   5.589505
    12  H    0.896095   4.239769   3.173138   4.657036   4.771639
    13  H    4.452366   0.988472   2.360129   2.076505   4.118108
    14  H    5.186544   2.065465   4.093666   0.984512   2.381625
    15  C    2.417750   5.863610   4.232061   6.541481   6.809634
    16  O    2.278455   4.318517   2.822118   5.129849   5.812871
    17  H    3.013226   6.433171   4.928843   7.008427   7.097281
    18  H    3.113683   6.270315   4.439789   7.106176   7.587299
    19  H    2.513196   6.116687   4.569236   6.711914   6.841539
                   11         12         13         14         15
    11  C    0.000000
    12  H    1.936964   0.000000
    13  H    5.072000   5.030661   0.000000
    14  H    6.110773   5.622413   2.386441   0.000000
    15  C    1.502746   2.477172   6.488335   7.522123   0.000000
    16  O    1.234965   3.050555   4.817148   6.042023   2.390796
    17  H    2.030657   3.121227   7.095876   7.983625   0.987198
    18  H    2.066491   3.221675   6.775694   8.071811   0.999760
    19  H    2.103397   2.213514   6.789552   7.693286   0.976962
                   16         17         18         19
    16  O    0.000000
    17  H    2.656900   0.000000
    18  H    2.633395   1.586598   0.000000
    19  H    3.204485   1.608931   1.609308   0.000000
 Stoichiometry    C8H9NO
 Framework group  C1[X(C8H9NO)]
 Deg. of freedom    51
 Full point group                 C1      NOp   1
 Largest Abelian subgroup         C1      NOp   1
 Largest concise Abelian subgroup C1      NOp   1
                         Standard orientation:                         
 ---------------------------------------------------------------------
 Center     Atomic      Atomic             Coordinates (Angstroms)
 Number     Number       Type             X           Y           Z
 ---------------------------------------------------------------------
      1          6           0       -0.293597   -0.302421   -0.233482
      2          6           0       -1.157930   -1.310791    0.191582
      3          6           0       -0.789647    0.988247   -0.444598
      4          6           0       -2.510931   -1.029981    0.348016
      5          1           0       -0.814489   -2.191972    0.368396
      6          7           0        1.090069   -0.499028   -0.466969
      7          6           0       -2.141556    1.250812   -0.282548
      8          1           0       -0.181828    1.678643   -0.707741
      9          6           0       -3.010279    0.234697    0.096894
     10          1           0       -3.113738   -1.756766    0.631433
     11          6           0        2.128348    0.120945    0.144304
     12          1           0        1.287029   -1.107292   -1.094828
     13          1           0       -2.475299    2.167628   -0.441108
     14          1           0       -3.975277    0.415241    0.170700
     15          6           0        3.494300   -0.367175   -0.248329
     16          8           0        1.981866    1.018671    0.979630
     17          1           0        3.912382   -0.757053    0.556508
     18          1           0        4.067984    0.409485   -0.507573
     19          1           0        3.495580   -1.020084   -0.975077
 ---------------------------------------------------------------------
 Rotational constants (GHZ):           3.7326838           0.7746655           0.6929389
 Leave Link  202 at Tue Nov 22 19:13:24 2022, MaxMem= 16106127360 cpu:               0.4 elap:               0.0
 (Enter /opt/ap/G16/B01/g16/l301.exe)
 Standard basis: 6-311++G(d,p) (5D, 7F)
 Ernie: Thresh=  0.10000D-02 Tol=  0.10000D-05 Strict=F.
 There are   293 symmetry adapted cartesian basis functions of A   symmetry.
 There are   283 symmetry adapted basis functions of A   symmetry.
   283 basis functions,   441 primitive gaussians,   293 cartesian basis functions
    36 alpha electrons       36 beta electrons
       nuclear repulsion energy       491.5470810036 Hartrees.
 IExCor= 4639 DFT=T Ex+Corr=wB97XD ExCW=0 ScaHFX=  1.000000
 ScaDFX=  1.000000  1.000000  1.000000  1.000000 ScalE2=  1.000000  1.000000
 IRadAn=      5 IRanWt=     -1 IRanGd=            0 ICorTp=0 IEmpDi=121
 HFx  wShort=  0.000000 wLong=  0.200000 cFull=  0.222036 cShort=  0.000000 cLong=  0.777964
 DFx  wShort=  0.000000 wLong=  0.200000 cFull=  0.000000 cShort=  0.000000 cLong=  1.000000
 NAtoms=   19 NActive=   19 NUniq=   19 SFac= 1.00D+00 NAtFMM=   60 NAOKFM=F Big=F
 Integral buffers will be    131072 words long.
 Raffenetti 2 integral format.
 Two-electron integral symmetry is turned on.
 R6Disp:  Grimme-D2 Dispersion energy=       -0.0092056221 Hartrees.
 Nuclear repulsion after empirical dispersion term =      491.5378753815 Hartrees.
 Leave Link  301 at Tue Nov 22 19:13:24 2022, MaxMem= 16106127360 cpu:               1.2 elap:               0.0
 (Enter /opt/ap/G16/B01/g16/l302.exe)
 NPDir=0 NMtPBC=     1 NCelOv=     1 NCel=       1 NClECP=     1 NCelD=      1
         NCelK=      1 NCelE2=     1 NClLst=     1 CellRange=     0.0.
 One-electron integrals computed using PRISM.
 One-electron integral symmetry used in STVInt
 NBasis=   283 RedAO= T EigKep=  3.57D-06  NBF=   283
 NBsUse=   282 1.00D-06 EigRej=  9.04D-07 NBFU=   282
 Precomputing XC quadrature grid using
 IXCGrd= 4 IRadAn=           5 IRanWt=          -1 IRanGd=           0 AccXCQ= 0.00D+00.
 Generated NRdTot=       0 NPtTot=           0 NUsed=           0 NTot=          32
 NSgBfM=   293   293   293   293   293 MxSgAt=    19 MxSgA2=    19.
 Leave Link  302 at Tue Nov 22 19:13:24 2022, MaxMem= 16106127360 cpu:               6.4 elap:               0.2
 (Enter /opt/ap/G16/B01/g16/l303.exe)
 DipDrv:  MaxL=1.
 Leave Link  303 at Tue Nov 22 19:13:24 2022, MaxMem= 16106127360 cpu:               1.6 elap:               0.1
 (Enter /opt/ap/G16/B01/g16/l401.exe)
 ExpMin= 3.60D-02 ExpMax= 8.59D+03 ExpMxC= 1.30D+03 IAcc=3 IRadAn=         5 AccDes= 0.00D+00
 Harris functional with IExCor= 4639 and IRadAn=       5 diagonalized for initial guess.
 HarFok:  IExCor= 4639 AccDes= 0.00D+00 IRadAn=         5 IDoV= 1 UseB2=F ITyADJ=14
 ICtDFT=  3500011 ScaDFX=  1.000000  1.000000  1.000000  1.000000
 FoFCou: FMM=F IPFlag=           0 FMFlag=      100000 FMFlg1=           0
         NFxFlg=           0 DoJE=T BraDBF=F KetDBF=T FulRan=T
         wScrn=  0.000000 ICntrl=       500 IOpCl=  0 I1Cent=   200000004 NGrid=           0
         NMat0=    1 NMatS0=      1 NMatT0=    0 NMatD0=    1 NMtDS0=    0 NMtDT0=    0
 Petite list used in FoFCou.
 Harris En= -420.982179665013    
 JPrj=0 DoOrth=F DoCkMO=F.
 Leave Link  401 at Tue Nov 22 19:13:25 2022, MaxMem= 16106127360 cpu:              15.3 elap:               0.5
 (Enter /opt/ap/G16/B01/g16/l502.exe)
 Integral symmetry usage will be decided dynamically.
 Closed shell SCF:
 Using DIIS extrapolation, IDIIS=  1040.
 NGot= 16106127360 LenX= 16105943385 LenY= 16105857095
 Requested convergence on RMS density matrix=1.00D-08 within 512 cycles.
 Requested convergence on MAX density matrix=1.00D-06.
 Requested convergence on             energy=1.00D-06.
 No special actions if energy rises.
 Fock matrices will be formed incrementally for  20 cycles.

 Cycle   1  Pass 1  IDiag  1:
 FoFJK:  IHMeth= 1 ICntrl=       0 DoSepK=T KAlg= 0 I1Cent=           0 FoldK=F
 IRaf=         1 NMat=       1 IRICut=       1 DoRegI=T DoRafI=F ISym2E= 0 IDoP0=0 IntGTp=1.
 FoFCou: FMM=F IPFlag=           0 FMFlag=      100000 FMFlg1=           0
         NFxFlg=           0 DoJE=T BraDBF=F KetDBF=F FulRan=T
         wScrn=  0.000000 ICntrl=       500 IOpCl=  0 I1Cent=           0 NGrid=           0
         NMat0=    1 NMatS0=      1 NMatT0=    0 NMatD0=    1 NMtDS0=    0 NMtDT0=    0
 Symmetry not used in FoFCou.
 E= -439.995047343729    
 DIIS: error= 5.55D-02 at cycle   1 NSaved=   1.
 NSaved= 1 IEnMin= 1 EnMin= -439.995047343729     IErMin= 1 ErrMin= 5.55D-02
 ErrMax= 5.55D-02  0.00D+00 EMaxC= 1.00D-01 BMatC= 9.37D-01 BMatP= 9.37D-01
 IDIUse=3 WtCom= 4.45D-01 WtEn= 5.55D-01
 Coeff-Com:  0.100D+01
 Coeff-En:   0.100D+01
 Coeff:      0.100D+01
 Gap=     0.467 Goal=   None    Shift=    0.000
 GapD=    0.467 DampG=2.000 DampE=0.500 DampFc=1.0000 IDamp=-1.
 RMSDP=9.18D-03 MaxDP=8.22D-01              OVMax= 1.30D-01

 Cycle   2  Pass 1  IDiag  1:
 RMSU=  5.08D-03    CP:  7.20D-01
 E= -440.076171285468     Delta-E=       -0.081123941739 Rises=F Damp=F
 DIIS: error= 1.33D-02 at cycle   2 NSaved=   2.
 NSaved= 2 IEnMin= 2 EnMin= -440.076171285468     IErMin= 2 ErrMin= 1.33D-02
 ErrMax= 1.33D-02  0.00D+00 EMaxC= 1.00D-01 BMatC= 7.48D-02 BMatP= 9.37D-01
 IDIUse=3 WtCom= 8.67D-01 WtEn= 1.33D-01
 Coeff-Com:  0.149D+00 0.851D+00
 Coeff-En:   0.194D+00 0.806D+00
 Coeff:      0.155D+00 0.845D+00
 Gap=     0.437 Goal=   None    Shift=    0.000
 RMSDP=4.07D-03 MaxDP=2.78D-01 DE=-8.11D-02 OVMax= 1.08D-01

 Cycle   3  Pass 1  IDiag  1:
 RMSU=  3.51D-03    CP:  6.52D-01  8.18D-01
 E= -440.105735258894     Delta-E=       -0.029563973426 Rises=F Damp=F
 DIIS: error= 1.12D-02 at cycle   3 NSaved=   3.
 NSaved= 3 IEnMin= 3 EnMin= -440.105735258894     IErMin= 3 ErrMin= 1.12D-02
 ErrMax= 1.12D-02  0.00D+00 EMaxC= 1.00D-01 BMatC= 3.92D-02 BMatP= 7.48D-02
 IDIUse=3 WtCom= 8.88D-01 WtEn= 1.12D-01
 Coeff-Com:  0.264D-01 0.424D+00 0.549D+00
 Coeff-En:   0.000D+00 0.350D+00 0.650D+00
 Coeff:      0.235D-01 0.416D+00 0.561D+00
 Gap=     0.384 Goal=   None    Shift=    0.000
 RMSDP=1.66D-03 MaxDP=9.78D-02 DE=-2.96D-02 OVMax= 6.38D-02

 Cycle   4  Pass 1  IDiag  1:
 RMSU=  6.40D-04    CP:  6.67D-01  9.32D-01  6.13D-01
 E= -440.140355016000     Delta-E=       -0.034619757107 Rises=F Damp=F
 DIIS: error= 2.68D-03 at cycle   4 NSaved=   4.
 NSaved= 4 IEnMin= 4 EnMin= -440.140355016000     IErMin= 4 ErrMin= 2.68D-03
 ErrMax= 2.68D-03  0.00D+00 EMaxC= 1.00D-01 BMatC= 1.62D-03 BMatP= 3.92D-02
 IDIUse=3 WtCom= 9.73D-01 WtEn= 2.68D-02
 Coeff-Com:  0.972D-02 0.196D+00 0.295D+00 0.499D+00
 Coeff-En:   0.000D+00 0.000D+00 0.000D+00 0.100D+01
 Coeff:      0.946D-02 0.191D+00 0.287D+00 0.512D+00
 Gap=     0.357 Goal=   None    Shift=    0.000
 RMSDP=3.28D-04 MaxDP=2.58D-02 DE=-3.46D-02 OVMax= 1.01D-02

 Cycle   5  Pass 1  IDiag  1:
 RMSU=  2.01D-04    CP:  6.59D-01  9.36D-01  6.28D-01  7.65D-01
 E= -440.141604700965     Delta-E=       -0.001249684965 Rises=F Damp=F
 DIIS: error= 5.17D-04 at cycle   5 NSaved=   5.
 NSaved= 5 IEnMin= 5 EnMin= -440.141604700965     IErMin= 5 ErrMin= 5.17D-04
 ErrMax= 5.17D-04  0.00D+00 EMaxC= 1.00D-01 BMatC= 5.95D-05 BMatP= 1.62D-03
 IDIUse=3 WtCom= 9.95D-01 WtEn= 5.17D-03
 Coeff-Com:  0.116D-02 0.258D-01 0.491D-01 0.178D+00 0.746D+00
 Coeff-En:   0.000D+00 0.000D+00 0.000D+00 0.000D+00 0.100D+01
 Coeff:      0.116D-02 0.257D-01 0.489D-01 0.177D+00 0.747D+00
 Gap=     0.356 Goal=   None    Shift=    0.000
 RMSDP=1.12D-04 MaxDP=3.99D-03 DE=-1.25D-03 OVMax= 2.68D-03

 Cycle   6  Pass 1  IDiag  1:
 RMSU=  8.64D-05    CP:  6.59D-01  9.41D-01  6.41D-01  8.41D-01  9.94D-01
 E= -440.141644110012     Delta-E=       -0.000039409047 Rises=F Damp=F
 DIIS: error= 2.82D-04 at cycle   6 NSaved=   6.
 NSaved= 6 IEnMin= 6 EnMin= -440.141644110012     IErMin= 6 ErrMin= 2.82D-04
 ErrMax= 2.82D-04  0.00D+00 EMaxC= 1.00D-01 BMatC= 1.72D-05 BMatP= 5.95D-05
 IDIUse=3 WtCom= 9.97D-01 WtEn= 2.82D-03
 Coeff-Com: -0.107D-02-0.189D-01-0.212D-01 0.965D-02 0.401D+00 0.630D+00
 Coeff-En:   0.000D+00 0.000D+00 0.000D+00 0.000D+00 0.559D-01 0.944D+00
 Coeff:     -0.106D-02-0.188D-01-0.211D-01 0.962D-02 0.400D+00 0.631D+00
 Gap=     0.357 Goal=   None    Shift=    0.000
 RMSDP=4.42D-05 MaxDP=1.52D-03 DE=-3.94D-05 OVMax= 1.23D-03

 Cycle   7  Pass 1  IDiag  1:
 RMSU=  2.30D-05    CP:  6.58D-01  9.42D-01  6.42D-01  8.67D-01  1.11D+00
                    CP:  1.02D+00
 E= -440.141658761969     Delta-E=       -0.000014651957 Rises=F Damp=F
 DIIS: error= 9.49D-05 at cycle   7 NSaved=   7.
 NSaved= 7 IEnMin= 7 EnMin= -440.141658761969     IErMin= 7 ErrMin= 9.49D-05
 ErrMax= 9.49D-05  0.00D+00 EMaxC= 1.00D-01 BMatC= 4.34D-07 BMatP= 1.72D-05
 IDIUse=1 WtCom= 1.00D+00 WtEn= 0.00D+00
 Coeff-Com: -0.298D-03-0.572D-02-0.674D-02-0.123D-01 0.239D-01 0.109D+00
 Coeff-Com:  0.892D+00
 Coeff:     -0.298D-03-0.572D-02-0.674D-02-0.123D-01 0.239D-01 0.109D+00
 Coeff:      0.892D+00
 Gap=     0.357 Goal=   None    Shift=    0.000
 RMSDP=1.49D-05 MaxDP=6.38D-04 DE=-1.47D-05 OVMax= 4.10D-04

 Cycle   8  Pass 1  IDiag  1:
 RMSU=  7.65D-06    CP:  6.58D-01  9.42D-01  6.43D-01  8.76D-01  1.15D+00
                    CP:  1.09D+00  1.09D+00
 E= -440.141659658987     Delta-E=       -0.000000897018 Rises=F Damp=F
 DIIS: error= 1.57D-05 at cycle   8 NSaved=   8.
 NSaved= 8 IEnMin= 8 EnMin= -440.141659658987     IErMin= 8 ErrMin= 1.57D-05
 ErrMax= 1.57D-05  0.00D+00 EMaxC= 1.00D-01 BMatC= 8.63D-08 BMatP= 4.34D-07
 IDIUse=1 WtCom= 1.00D+00 WtEn= 0.00D+00
 Coeff-Com:  0.639D-04 0.829D-03 0.105D-02-0.642D-02-0.558D-01-0.679D-01
 Coeff-Com:  0.274D+00 0.855D+00
 Coeff:      0.639D-04 0.829D-03 0.105D-02-0.642D-02-0.558D-01-0.679D-01
 Coeff:      0.274D+00 0.855D+00
 Gap=     0.357 Goal=   None    Shift=    0.000
 RMSDP=5.71D-06 MaxDP=1.36D-04 DE=-8.97D-07 OVMax= 2.72D-04

 Cycle   9  Pass 1  IDiag  1:
 RMSU=  2.52D-06    CP:  6.58D-01  9.42D-01  6.43D-01  8.79D-01  1.16D+00
                    CP:  1.13D+00  1.20D+00  1.12D+00
 E= -440.141659825601     Delta-E=       -0.000000166614 Rises=F Damp=F
 DIIS: error= 1.48D-05 at cycle   9 NSaved=   9.
 NSaved= 9 IEnMin= 9 EnMin= -440.141659825601     IErMin= 9 ErrMin= 1.48D-05
 ErrMax= 1.48D-05  0.00D+00 EMaxC= 1.00D-01 BMatC= 7.84D-09 BMatP= 8.63D-08
 IDIUse=1 WtCom= 1.00D+00 WtEn= 0.00D+00
 Coeff-Com:  0.489D-04 0.849D-03 0.112D-02-0.564D-03-0.177D-01-0.300D-01
 Coeff-Com: -0.409D-02 0.243D+00 0.808D+00
 Coeff:      0.489D-04 0.849D-03 0.112D-02-0.564D-03-0.177D-01-0.300D-01
 Coeff:     -0.409D-02 0.243D+00 0.808D+00
 Gap=     0.357 Goal=   None    Shift=    0.000
 RMSDP=1.75D-06 MaxDP=1.20D-04 DE=-1.67D-07 OVMax= 6.66D-05

 Cycle  10  Pass 1  IDiag  1:
 RMSU=  9.51D-07    CP:  6.58D-01  9.42D-01  6.43D-01  8.78D-01  1.16D+00
                    CP:  1.13D+00  1.21D+00  1.13D+00  1.31D+00
 E= -440.141659841669     Delta-E=       -0.000000016068 Rises=F Damp=F
 DIIS: error= 2.26D-06 at cycle  10 NSaved=  10.
 NSaved=10 IEnMin=10 EnMin= -440.141659841669     IErMin=10 ErrMin= 2.26D-06
 ErrMax= 2.26D-06  0.00D+00 EMaxC= 1.00D-01 BMatC= 1.25D-09 BMatP= 7.84D-09
 IDIUse=1 WtCom= 1.00D+00 WtEn= 0.00D+00
 Coeff-Com:  0.440D-05 0.132D-03 0.196D-03 0.766D-03 0.342D-02 0.133D-02
 Coeff-Com: -0.397D-01-0.748D-01 0.226D+00 0.883D+00
 Coeff:      0.440D-05 0.132D-03 0.196D-03 0.766D-03 0.342D-02 0.133D-02
 Coeff:     -0.397D-01-0.748D-01 0.226D+00 0.883D+00
 Gap=     0.357 Goal=   None    Shift=    0.000
 RMSDP=8.38D-07 MaxDP=6.20D-05 DE=-1.61D-08 OVMax= 3.66D-05

 Cycle  11  Pass 1  IDiag  1:
 RMSU=  3.53D-07    CP:  6.58D-01  9.42D-01  6.43D-01  8.77D-01  1.16D+00
                    CP:  1.13D+00  1.22D+00  1.14D+00  1.49D+00  1.24D+00
 E= -440.141659844508     Delta-E=       -0.000000002839 Rises=F Damp=F
 DIIS: error= 1.18D-06 at cycle  11 NSaved=  11.
 NSaved=11 IEnMin=11 EnMin= -440.141659844508     IErMin=11 ErrMin= 1.18D-06
 ErrMax= 1.18D-06  0.00D+00 EMaxC= 1.00D-01 BMatC= 1.13D-10 BMatP= 1.25D-09
 IDIUse=1 WtCom= 1.00D+00 WtEn= 0.00D+00
 Coeff-Com: -0.387D-05-0.599D-04-0.687D-04 0.279D-03 0.292D-02 0.365D-02
 Coeff-Com: -0.871D-02-0.490D-01-0.374D-01 0.202D+00 0.887D+00
 Coeff:     -0.387D-05-0.599D-04-0.687D-04 0.279D-03 0.292D-02 0.365D-02
 Coeff:     -0.871D-02-0.490D-01-0.374D-01 0.202D+00 0.887D+00
 Gap=     0.357 Goal=   None    Shift=    0.000
 RMSDP=3.14D-07 MaxDP=2.62D-05 DE=-2.84D-09 OVMax= 9.72D-06

 Cycle  12  Pass 1  IDiag  1:
 RMSU=  1.03D-07    CP:  6.58D-01  9.42D-01  6.43D-01  8.77D-01  1.16D+00
                    CP:  1.12D+00  1.22D+00  1.13D+00  1.54D+00  1.36D+00
                    CP:  1.25D+00
 E= -440.141659844802     Delta-E=       -0.000000000294 Rises=F Damp=F
 DIIS: error= 2.49D-07 at cycle  12 NSaved=  12.
 NSaved=12 IEnMin=12 EnMin= -440.141659844802     IErMin=12 ErrMin= 2.49D-07
 ErrMax= 2.49D-07  0.00D+00 EMaxC= 1.00D-01 BMatC= 1.11D-11 BMatP= 1.13D-10
 IDIUse=1 WtCom= 1.00D+00 WtEn= 0.00D+00
 Coeff-Com: -0.909D-06-0.217D-04-0.302D-04-0.337D-04-0.125D-03 0.238D-03
 Coeff-Com:  0.366D-02 0.276D-02-0.262D-01-0.669D-01 0.114D+00 0.973D+00
 Coeff:     -0.909D-06-0.217D-04-0.302D-04-0.337D-04-0.125D-03 0.238D-03
 Coeff:      0.366D-02 0.276D-02-0.262D-01-0.669D-01 0.114D+00 0.973D+00
 Gap=     0.357 Goal=   None    Shift=    0.000
 RMSDP=1.09D-07 MaxDP=6.53D-06 DE=-2.94D-10 OVMax= 3.71D-06

 Cycle  13  Pass 1  IDiag  1:
 RMSU=  3.50D-08    CP:  6.58D-01  9.42D-01  6.43D-01  8.77D-01  1.16D+00
                    CP:  1.12D+00  1.22D+00  1.12D+00  1.54D+00  1.38D+00
                    CP:  1.35D+00  1.35D+00
 E= -440.141659844842     Delta-E=       -0.000000000040 Rises=F Damp=F
 DIIS: error= 9.71D-08 at cycle  13 NSaved=  13.
 NSaved=13 IEnMin=13 EnMin= -440.141659844842     IErMin=13 ErrMin= 9.71D-08
 ErrMax= 9.71D-08  0.00D+00 EMaxC= 1.00D-01 BMatC= 2.02D-12 BMatP= 1.11D-11
 IDIUse=1 WtCom= 1.00D+00 WtEn= 0.00D+00
 Coeff-Com:  0.146D-06 0.703D-06-0.103D-05-0.370D-04-0.395D-03-0.349D-03
 Coeff-Com:  0.203D-02 0.655D-02-0.364D-02-0.443D-01-0.823D-01 0.271D+00
 Coeff-Com:  0.851D+00
 Coeff:      0.146D-06 0.703D-06-0.103D-05-0.370D-04-0.395D-03-0.349D-03
 Coeff:      0.203D-02 0.655D-02-0.364D-02-0.443D-01-0.823D-01 0.271D+00
 Coeff:      0.851D+00
 Gap=     0.357 Goal=   None    Shift=    0.000
 RMSDP=3.34D-08 MaxDP=1.65D-06 DE=-3.96D-11 OVMax= 1.48D-06

 Cycle  14  Pass 1  IDiag  1:
 RMSU=  1.33D-08    CP:  6.58D-01  9.42D-01  6.43D-01  8.77D-01  1.16D+00
                    CP:  1.12D+00  1.22D+00  1.12D+00  1.54D+00  1.39D+00
                    CP:  1.39D+00  1.43D+00  1.24D+00
 E= -440.141659844847     Delta-E=       -0.000000000005 Rises=F Damp=F
 DIIS: error= 5.10D-08 at cycle  14 NSaved=  14.
 NSaved=14 IEnMin=14 EnMin= -440.141659844847     IErMin=14 ErrMin= 5.10D-08
 ErrMax= 5.10D-08  0.00D+00 EMaxC= 1.00D-01 BMatC= 2.11D-13 BMatP= 2.02D-12
 IDIUse=1 WtCom= 1.00D+00 WtEn= 0.00D+00
 Coeff-Com:  0.115D-06 0.223D-05 0.257D-05-0.311D-05-0.610D-04-0.805D-04
 Coeff-Com: -0.416D-04 0.897D-03 0.221D-02 0.401D-03-0.305D-01-0.657D-01
 Coeff-Com:  0.185D+00 0.908D+00
 Coeff:      0.115D-06 0.223D-05 0.257D-05-0.311D-05-0.610D-04-0.805D-04
 Coeff:     -0.416D-04 0.897D-03 0.221D-02 0.401D-03-0.305D-01-0.657D-01
 Coeff:      0.185D+00 0.908D+00
 Gap=     0.357 Goal=   None    Shift=    0.000
 RMSDP=1.14D-08 MaxDP=9.71D-07 DE=-4.89D-12 OVMax= 5.21D-07

 Cycle  15  Pass 1  IDiag  1:
 RMSU=  4.97D-09    CP:  6.58D-01  9.42D-01  6.43D-01  8.77D-01  1.16D+00
                    CP:  1.12D+00  1.22D+00  1.12D+00  1.54D+00  1.39D+00
                    CP:  1.38D+00  1.46D+00  1.34D+00  1.27D+00
 E= -440.141659844844     Delta-E=        0.000000000003 Rises=F Damp=F
 DIIS: error= 1.93D-08 at cycle  15 NSaved=  15.
 NSaved=15 IEnMin=14 EnMin= -440.141659844847     IErMin=15 ErrMin= 1.93D-08
 ErrMax= 1.93D-08  0.00D+00 EMaxC= 1.00D-01 BMatC= 2.74D-14 BMatP= 2.11D-13
 IDIUse=1 WtCom= 1.00D+00 WtEn= 0.00D+00
 Coeff-Com:  0.258D-08 0.385D-06 0.659D-06 0.459D-05 0.392D-04 0.329D-04
 Coeff-Com: -0.277D-03-0.658D-03 0.912D-03 0.600D-02 0.533D-02-0.503D-01
 Coeff-Com: -0.740D-01 0.155D+00 0.958D+00
 Coeff:      0.258D-08 0.385D-06 0.659D-06 0.459D-05 0.392D-04 0.329D-04
 Coeff:     -0.277D-03-0.658D-03 0.912D-03 0.600D-02 0.533D-02-0.503D-01
 Coeff:     -0.740D-01 0.155D+00 0.958D+00
 Gap=     0.357 Goal=   None    Shift=    0.000
 RMSDP=5.70D-09 MaxDP=4.35D-07 DE= 2.96D-12 OVMax= 2.48D-07

 SCF Done:  E(RwB97XD) =  -440.141659845     A.U. after   15 cycles
            NFock= 15  Conv=0.57D-08     -V/T= 2.0003
 KE= 4.400213348100D+02 PE=-2.009538698035D+03 EE= 6.378378279991D+02
 Leave Link  502 at Tue Nov 22 19:13:43 2022, MaxMem= 16106127360 cpu:             586.0 elap:              18.4
 (Enter /opt/ap/G16/B01/g16/l601.exe)
 Copying SCF densities to generalized density rwf, IOpCl= 0 IROHF=0.

 **********************************************************************

            Population analysis using the SCF Density.

 **********************************************************************

 Orbital symmetries:
       Occupied  (A) (A) (A) (A) (A) (A) (A) (A) (A) (A) (A) (A)
                 (A) (A) (A) (A) (A) (A) (A) (A) (A) (A) (A) (A)
                 (A) (A) (A) (A) (A) (A) (A) (A) (A) (A) (A) (A)
       Virtual   (A) (A) (A) (A) (A) (A) (A) (A) (A) (A) (A) (A)
                 (A) (A) (A) (A) (A) (A) (A) (A) (A) (A) (A) (A)
                 (A) (A) (A) (A) (A) (A) (A) (A) (A) (A) (A) (A)
                 (A) (A) (A) (A) (A) (A) (A) (A) (A) (A) (A) (A)
                 (A) (A) (A) (A) (A) (A) (A) (A) (A) (A) (A) (A)
                 (A) (A) (A) (A) (A) (A) (A) (A) (A) (A) (A) (A)
                 (A) (A) (A) (A) (A) (A) (A) (A) (A) (A) (A) (A)
                 (A) (A) (A) (A) (A) (A) (A) (A) (A) (A) (A) (A)
                 (A) (A) (A) (A) (A) (A) (A) (A) (A) (A) (A) (A)
                 (A) (A) (A) (A) (A) (A) (A) (A) (A) (A) (A) (A)
                 (A) (A) (A) (A) (A) (A) (A) (A) (A) (A) (A) (A)
                 (A) (A) (A) (A) (A) (A) (A) (A) (A) (A) (A) (A)
                 (A) (A) (A) (A) (A) (A) (A) (A) (A) (A) (A) (A)
                 (A) (A) (A) (A) (A) (A) (A) (A) (A) (A) (A) (A)
                 (A) (A) (A) (A) (A) (A) (A) (A) (A) (A) (A) (A)
                 (A) (A) (A) (A) (A) (A) (A) (A) (A) (A) (A) (A)
                 (A) (A) (A) (A) (A) (A) (A) (A) (A) (A) (A) (A)
                 (A) (A) (A) (A) (A) (A) (A) (A) (A) (A) (A) (A)
                 (A) (A) (A) (A) (A) (A) (A) (A) (A) (A) (A) (A)
                 (A) (A) (A) (A) (A) (A) (A) (A) (A) (A) (A) (A)
                 (A) (A) (A) (A) (A) (A)
 The electronic state is 1-A.
 Alpha  occ. eigenvalues --  -19.20821 -14.46083 -10.39417 -10.33462 -10.28451
 Alpha  occ. eigenvalues --  -10.28332 -10.28123 -10.28005 -10.27652 -10.26021
 Alpha  occ. eigenvalues --   -1.13950  -1.05600  -0.96486  -0.88315  -0.86694
 Alpha  occ. eigenvalues --   -0.84656  -0.73950  -0.73201  -0.69861  -0.65801
 Alpha  occ. eigenvalues --   -0.61403  -0.58442  -0.56526  -0.55367  -0.54375
 Alpha  occ. eigenvalues --   -0.53101  -0.51437  -0.49520  -0.47515  -0.46174
 Alpha  occ. eigenvalues --   -0.45514  -0.44342  -0.36968  -0.34445  -0.33394
 Alpha  occ. eigenvalues --   -0.32184
 Alpha virt. eigenvalues --    0.03483   0.04392   0.04543   0.04922   0.05236
 Alpha virt. eigenvalues --    0.06206   0.06728   0.06885   0.08534   0.09083
 Alpha virt. eigenvalues --    0.10191   0.10417   0.11475   0.12667   0.13390
 Alpha virt. eigenvalues --    0.13879   0.14660   0.15628   0.16098   0.16384
 Alpha virt. eigenvalues --    0.16721   0.17423   0.17935   0.18051   0.18438
 Alpha virt. eigenvalues --    0.18933   0.19289   0.19583   0.20268   0.20460
 Alpha virt. eigenvalues --    0.20872   0.21448   0.22486   0.22996   0.23547
 Alpha virt. eigenvalues --    0.23937   0.24721   0.24939   0.25895   0.26758
 Alpha virt. eigenvalues --    0.27541   0.28250   0.28563   0.29354   0.29547
 Alpha virt. eigenvalues --    0.30068   0.30906   0.31916   0.32749   0.33925
 Alpha virt. eigenvalues --    0.34644   0.35437   0.36443   0.37181   0.37959
 Alpha virt. eigenvalues --    0.38544   0.38790   0.39682   0.39930   0.40830
 Alpha virt. eigenvalues --    0.42452   0.43700   0.44144   0.44770   0.45606
 Alpha virt. eigenvalues --    0.46103   0.47618   0.49922   0.54105   0.55304
 Alpha virt. eigenvalues --    0.57549   0.57985   0.59250   0.62611   0.63176
 Alpha virt. eigenvalues --    0.64187   0.65328   0.65701   0.65845   0.66617
 Alpha virt. eigenvalues --    0.68693   0.69192   0.70107   0.72805   0.73733
 Alpha virt. eigenvalues --    0.74158   0.74818   0.76389   0.77338   0.78922
 Alpha virt. eigenvalues --    0.79341   0.80859   0.82225   0.83075   0.84325
 Alpha virt. eigenvalues --    0.86522   0.88485   0.88721   0.92414   0.93350
 Alpha virt. eigenvalues --    0.94056   0.94451   0.95237   0.96437   0.97157
 Alpha virt. eigenvalues --    0.98941   0.99960   1.00723   1.02475   1.05217
 Alpha virt. eigenvalues --    1.08067   1.09800   1.11057   1.13956   1.14776
 Alpha virt. eigenvalues --    1.16808   1.17374   1.18932   1.21908   1.23979
 Alpha virt. eigenvalues --    1.25359   1.28651   1.31903   1.35385   1.38590
 Alpha virt. eigenvalues --    1.42622   1.43010   1.46868   1.53486   1.55044
 Alpha virt. eigenvalues --    1.56665   1.60916   1.62033   1.62504   1.65213
 Alpha virt. eigenvalues --    1.67051   1.67282   1.67962   1.68690   1.69799
 Alpha virt. eigenvalues --    1.71510   1.71962   1.75225   1.76808   1.80029
 Alpha virt. eigenvalues --    1.80882   1.84401   1.87493   1.88839   1.90747
 Alpha virt. eigenvalues --    1.93125   1.94014   1.96653   1.97365   1.98824
 Alpha virt. eigenvalues --    2.01588   2.02311   2.04560   2.06568   2.08021
 Alpha virt. eigenvalues --    2.08400   2.11152   2.12464   2.14442   2.15724
 Alpha virt. eigenvalues --    2.21143   2.25110   2.26747   2.30543   2.35884
 Alpha virt. eigenvalues --    2.38509   2.42359   2.46370   2.50055   2.52069
 Alpha virt. eigenvalues --    2.53235   2.55120   2.59157   2.61120   2.64746
 Alpha virt. eigenvalues --    2.65691   2.68165   2.72511   2.73834   2.77113
 Alpha virt. eigenvalues --    2.80593   2.81101   2.82381   2.83684   2.84246
 Alpha virt. eigenvalues --    2.87018   2.89524   2.90748   2.91771   2.93966
 Alpha virt. eigenvalues --    2.94675   2.94832   2.97993   3.00745   3.02019
 Alpha virt. eigenvalues --    3.03475   3.04782   3.05088   3.11591   3.14953
 Alpha virt. eigenvalues --    3.20304   3.21381   3.22973   3.26054   3.29162
 Alpha virt. eigenvalues --    3.42517   3.44609   3.45680   3.48672   3.50870
 Alpha virt. eigenvalues --    3.62679   3.68248   3.71195   3.73838   3.90943
 Alpha virt. eigenvalues --    4.00435   4.05188   4.10023   4.13621   4.17558
 Alpha virt. eigenvalues --    4.30520   4.34405   4.38516   4.39248   4.44605
 Alpha virt. eigenvalues --    4.95631   5.16891   5.20354   5.20791   5.37976
 Alpha virt. eigenvalues --    5.90157  23.88741  23.98862  24.15012  24.22712
 Alpha virt. eigenvalues --   24.29827  24.33149  24.38239  24.42546  35.88119
 Alpha virt. eigenvalues --   50.16776
          Condensed to atoms (all electrons):
               1          2          3          4          5          6
     1  C    7.098325  -0.290991   0.133143  -0.238329  -0.149643   0.068185
     2  C   -0.290991   7.966389  -1.994278   0.238441   0.644496  -0.093412
     3  C    0.133143  -1.994278   7.147026   0.328862  -0.101473  -0.175515
     4  C   -0.238329   0.238441   0.328862   5.235589  -0.059414  -0.046280
     5  H   -0.149643   0.644496  -0.101473  -0.059414   0.500877  -0.003326
     6  N    0.068185  -0.093412  -0.175515  -0.046280  -0.003326   7.550989
     7  C   -0.396030   0.546703   0.249967  -0.174707   0.036980  -0.028031
     8  H   -0.138482  -0.097703   0.582875   0.020552  -0.003482  -0.008882
     9  C    0.102850  -0.548951  -0.094010   0.463907  -0.008816   0.034537
    10  H    0.022431  -0.101274   0.026475   0.433349  -0.013085  -0.004617
    11  C   -0.119334  -0.204289   0.013702   0.010581  -0.016359  -0.033156
    12  H   -0.010288  -0.074510   0.030275  -0.013821   0.000360   0.350167
    13  H    0.032077   0.054973  -0.111226  -0.007031   0.002190  -0.004542
    14  H    0.019388  -0.010321  -0.017534  -0.061481  -0.000707   0.002393
    15  C   -0.006686  -0.045216   0.052620   0.022894  -0.004097  -0.417174
    16  O    0.064859  -0.009483  -0.048870   0.015120  -0.004334  -0.159988
    17  H    0.008036  -0.008338   0.000884  -0.000019  -0.000378  -0.000238
    18  H   -0.009351   0.001820   0.000246  -0.000810  -0.000054   0.005064
    19  H    0.011704  -0.000046   0.009270   0.001257   0.001495   0.022401
               7          8          9         10         11         12
     1  C   -0.396030  -0.138482   0.102850   0.022431  -0.119334  -0.010288
     2  C    0.546703  -0.097703  -0.548951  -0.101274  -0.204289  -0.074510
     3  C    0.249967   0.582875  -0.094010   0.026475   0.013702   0.030275
     4  C   -0.174707   0.020552   0.463907   0.433349   0.010581  -0.013821
     5  H    0.036980  -0.003482  -0.008816  -0.013085  -0.016359   0.000360
     6  N   -0.028031  -0.008882   0.034537  -0.004617  -0.033156   0.350167
     7  C    5.456810  -0.030660   0.384396  -0.012886  -0.111009  -0.006958
     8  H   -0.030660   0.484850   0.019686   0.001345   0.002173  -0.000066
     9  C    0.384396   0.019686   5.619809  -0.035199   0.006166   0.011673
    10  H   -0.012886   0.001345  -0.035199   0.486160   0.001276  -0.000254
    11  C   -0.111009   0.002173   0.006166   0.001276   6.040132   0.054669
    12  H   -0.006958  -0.000066   0.011673  -0.000254   0.054669   0.361546
    13  H    0.427345  -0.013794  -0.068117  -0.000960   0.000215  -0.000033
    14  H   -0.049152   0.000362   0.470415  -0.008408  -0.002242   0.000420
    15  C    0.009365  -0.002554  -0.009946   0.000626  -0.129136  -0.024839
    16  O   -0.033967  -0.010902   0.000982   0.000352   0.492899   0.006110
    17  H   -0.002464  -0.000481   0.000055  -0.000021  -0.034232   0.000264
    18  H    0.001348  -0.001676   0.000130  -0.000012  -0.029750   0.001841
    19  H    0.002249   0.001998  -0.001672   0.000072  -0.096288  -0.008481
              13         14         15         16         17         18
     1  C    0.032077   0.019388  -0.006686   0.064859   0.008036  -0.009351
     2  C    0.054973  -0.010321  -0.045216  -0.009483  -0.008338   0.001820
     3  C   -0.111226  -0.017534   0.052620  -0.048870   0.000884   0.000246
     4  C   -0.007031  -0.061481   0.022894   0.015120  -0.000019  -0.000810
     5  H    0.002190  -0.000707  -0.004097  -0.004334  -0.000378  -0.000054
     6  N   -0.004542   0.002393  -0.417174  -0.159988  -0.000238   0.005064
     7  C    0.427345  -0.049152   0.009365  -0.033967  -0.002464   0.001348
     8  H   -0.013794   0.000362  -0.002554  -0.010902  -0.000481  -0.001676
     9  C   -0.068117   0.470415  -0.009946   0.000982   0.000055   0.000130
    10  H   -0.000960  -0.008408   0.000626   0.000352  -0.000021  -0.000012
    11  C    0.000215  -0.002242  -0.129136   0.492899  -0.034232  -0.029750
    12  H   -0.000033   0.000420  -0.024839   0.006110   0.000264   0.001841
    13  H    0.487945  -0.009768  -0.000113  -0.000104   0.000017   0.000003
    14  H   -0.009768   0.492623  -0.000359  -0.000282  -0.000007  -0.000006
    15  C   -0.000113  -0.000359   5.867298  -0.015859   0.411187   0.417835
    16  O   -0.000104  -0.000282  -0.015859   8.061806  -0.009055  -0.005878
    17  H    0.000017  -0.000007   0.411187  -0.009055   0.498638  -0.026984
    18  H    0.000003  -0.000006   0.417835  -0.005878  -0.026984   0.496945
    19  H    0.000031  -0.000029   0.401275   0.009337  -0.032521  -0.038720
              19
     1  C    0.011704
     2  C   -0.000046
     3  C    0.009270
     4  C    0.001257
     5  H    0.001495
     6  N    0.022401
     7  C    0.002249
     8  H    0.001998
     9  C   -0.001672
    10  H    0.000072
    11  C   -0.096288
    12  H   -0.008481
    13  H    0.000031
    14  H   -0.000029
    15  C    0.401275
    16  O    0.009337
    17  H   -0.032521
    18  H   -0.038720
    19  H    0.607473
 Mulliken charges:
               1
     1  C   -0.201863
     2  C    0.025991
     3  C   -0.032439
     4  C   -0.168659
     5  H    0.178771
     6  N   -0.058577
     7  C   -0.269299
     8  H    0.194844
     9  C   -0.347893
    10  H    0.204628
    11  C    0.153985
    12  H    0.321924
    13  H    0.210892
    14  H    0.174698
    15  C   -0.527122
    16  O   -0.352743
    17  H    0.195656
    18  H    0.188010
    19  H    0.109196
 Sum of Mulliken charges =  -0.00000
 Mulliken charges with hydrogens summed into heavy atoms:
               1
     1  C   -0.201863
     2  C    0.204761
     3  C    0.162404
     4  C    0.035969
     6  N    0.263347
     7  C   -0.058407
     9  C   -0.173196
    11  C    0.153985
    15  C   -0.034259
    16  O   -0.352743
 Electronic spatial extent (au):  <R**2>=           1657.1690
 Charge=             -0.0000 electrons
 Dipole moment (field-independent basis, Debye):
    X=             -0.2781    Y=             -2.7006    Z=             -2.6618  Tot=              3.8021
 Quadrupole moment (field-independent basis, Debye-Ang):
   XX=            -49.4173   YY=            -55.3560   ZZ=            -62.3919
   XY=             -6.0690   XZ=             -6.4457   YZ=             -3.4144
 Traceless Quadrupole moment (field-independent basis, Debye-Ang):
   XX=              6.3045   YY=              0.3657   ZZ=             -6.6702
   XY=             -6.0690   XZ=             -6.4457   YZ=             -3.4144
 Octapole moment (field-independent basis, Debye-Ang**2):
  XXX=             15.2685  YYY=             -2.3590  ZZZ=             -2.5238  XYY=             -5.6196
  XXY=             -9.5735  XXZ=             -5.5841  XZZ=              7.7055  YZZ=             -4.9488
  YYZ=             -4.6069  XYZ=             -0.9693
 Hexadecapole moment (field-independent basis, Debye-Ang**3):
 XXXX=          -1543.4410 YYYY=           -327.4905 ZZZZ=           -144.5531 XXXY=            -25.6690
 XXXZ=            -32.8762 YYYX=             -8.2046 YYYZ=             -8.7704 ZZZX=             -5.9660
 ZZZY=              3.5231 XXYY=           -335.2304 XXZZ=           -330.8525 YYZZ=            -82.9257
 XXYZ=            -20.7357 YYXZ=            -11.3717 ZZXY=             -8.6264
 N-N= 4.915378753815D+02 E-N=-2.009538697671D+03  KE= 4.400213348100D+02
 No NMR shielding tensors so no spin-rotation constants.
 Leave Link  601 at Tue Nov 22 19:13:43 2022, MaxMem= 16106127360 cpu:               3.6 elap:               0.1
 (Enter /opt/ap/G16/B01/g16/l9999.exe)
 1\1\GINC-N34\SP\RwB97XD\6-311++G(d,p)\C8H9N1O1\ROOT\22-Nov-2022\0\\#P 
 wB97XD/6-311++G(d,p) scf=maxcycle=512\\_conf048.gjf nmol_natom 1_19\\0
 ,1\C\C,1,1.39447505\C,1,1.39873503,2,119.56697224\C,2,1.39066123,1,119
 .42697207,3,2.53915756,0\H,2,0.96213008,1,119.8046163,3,-177.79870417,
 0\N,1,1.41693372,2,123.72220125,4,-177.74604849,0\C,3,1.38667133,1,120
 .18759987,2,-2.5020857,0\H,3,0.95673174,1,118.82085988,2,177.96737168,
 0\C,4,1.38268572,2,121.03929493,1,-0.41221113,0\H,4,0.9858595,2,118.57
 91267,1,178.77373233,0\C,6,1.35500692,1,127.62132737,2,-120.,0\H,6,0.8
 9609466,1,115.10511997,2,60.,0\H,7,0.98847198,3,119.08117704,1,-179.64
 585354,0\H,9,0.98451201,4,120.53755637,2,177.22743544,0\C,11,1.5027456
 1,6,115.46861532,1,175.89235465,0\O,11,1.23496495,6,123.15099888,1,-3.
 40672617,0\H,15,0.98719837,11,107.47091875,6,-116.36962839,0\H,15,0.99
 976021,11,109.69443261,6,128.85346087,0\H,15,0.97696155,11,114.3700887
 1,6,6.05302844,0\\Version=ES64L-G16RevB.01\State=1-A\HF=-440.1416598\R
 MSD=5.705e-09\Dipole=-0.6075855,1.2653884,0.5169089\Quadrupole=7.27445
 5,-7.6417379,0.3672829,-1.4466319,2.0240893,-3.3426872\PG=C01 [X(C8H9N
 1O1)]\\@


 SCIENCE AT ITS BEST PROVIDES US WITH BETTER QUESTIONS, 
 NOT ABSOLUTE ANSWERS

                                    -- NORMAN COUSINS, 1976
 Job cpu time:       0 days  0 hours 10 minutes 23.1 seconds.
 Elapsed time:       0 days  0 hours  0 minutes 19.6 seconds.
 File lengths (MBytes):  RWF=     46 Int=      0 D2E=      0 Chk=      6 Scr=      1
 Normal termination of Gaussian 16 at Tue Nov 22 19:13:43 2022.
