 Entering Gaussian System, Link 0=g16
 Input=_conf041.gjf
 Output=_conf041.log
 Initial command:
 /opt/ap/G16/B01/g16/l1.exe "/tmp2/scr/Gau-17839.inp" -scrdir="/tmp2/scr/"
 Entering Link 1 = /opt/ap/G16/B01/g16/l1.exe PID=     17840.
  
 Copyright (c) 1988-2017, Gaussian, Inc.  All Rights Reserved.
  
 This is part of the Gaussian(R) 16 program.  It is based on
 the Gaussian(R) 09 system (copyright 2009, Gaussian, Inc.),
 the Gaussian(R) 03 system (copyright 2003, Gaussian, Inc.),
 the Gaussian(R) 98 system (copyright 1998, Gaussian, Inc.),
 the Gaussian(R) 94 system (copyright 1995, Gaussian, Inc.),
 the Gaussian 92(TM) system (copyright 1992, Gaussian, Inc.),
 the Gaussian 90(TM) system (copyright 1990, Gaussian, Inc.),
 the Gaussian 88(TM) system (copyright 1988, Gaussian, Inc.),
 the Gaussian 86(TM) system (copyright 1986, Carnegie Mellon
 University), and the Gaussian 82(TM) system (copyright 1983,
 Carnegie Mellon University). Gaussian is a federally registered
 trademark of Gaussian, Inc.
  
 This software contains proprietary and confidential information,
 including trade secrets, belonging to Gaussian, Inc.
  
 This software is provided under written license and may be
 used, copied, transmitted, or stored only in accord with that
 written license.
  
 The following legend is applicable only to US Government
 contracts under FAR:
  
                    RESTRICTED RIGHTS LEGEND
  
 Use, reproduction and disclosure by the US Government is
 subject to restrictions as set forth in subparagraphs (a)
 and (c) of the Commercial Computer Software - Restricted
 Rights clause in FAR 52.227-19.
  
 Gaussian, Inc.
 340 Quinnipiac St., Bldg. 40, Wallingford CT 06492
  
  
 ---------------------------------------------------------------
 Warning -- This program may not be used in any manner that
 competes with the business of Gaussian, Inc. or will provide
 assistance to any competitor of Gaussian, Inc.  The licensee
 of this program is prohibited from giving any competitor of
 Gaussian, Inc. access to this program.  By using this program,
 the user acknowledges that Gaussian, Inc. is engaged in the
 business of creating and licensing software in the field of
 computational chemistry and represents and warrants to the
 licensee that it is not a competitor of Gaussian, Inc. and that
 it will not use this program in any manner prohibited above.
 ---------------------------------------------------------------
  

 Cite this work as:
 Gaussian 16, Revision B.01,
 M. J. Frisch, G. W. Trucks, H. B. Schlegel, G. E. Scuseria, 
 M. A. Robb, J. R. Cheeseman, G. Scalmani, V. Barone, 
 G. A. Petersson, H. Nakatsuji, X. Li, M. Caricato, A. V. Marenich, 
 J. Bloino, B. G. Janesko, R. Gomperts, B. Mennucci, H. P. Hratchian, 
 J. V. Ortiz, A. F. Izmaylov, J. L. Sonnenberg, D. Williams-Young, 
 F. Ding, F. Lipparini, F. Egidi, J. Goings, B. Peng, A. Petrone, 
 T. Henderson, D. Ranasinghe, V. G. Zakrzewski, J. Gao, N. Rega, 
 G. Zheng, W. Liang, M. Hada, M. Ehara, K. Toyota, R. Fukuda, 
 J. Hasegawa, M. Ishida, T. Nakajima, Y. Honda, O. Kitao, H. Nakai, 
 T. Vreven, K. Throssell, J. A. Montgomery, Jr., J. E. Peralta, 
 F. Ogliaro, M. J. Bearpark, J. J. Heyd, E. N. Brothers, K. N. Kudin, 
 V. N. Staroverov, T. A. Keith, R. Kobayashi, J. Normand, 
 K. Raghavachari, A. P. Rendell, J. C. Burant, S. S. Iyengar, 
 J. Tomasi, M. Cossi, J. M. Millam, M. Klene, C. Adamo, R. Cammi, 
 J. W. Ochterski, R. L. Martin, K. Morokuma, O. Farkas, 
 J. B. Foresman, and D. J. Fox, Gaussian, Inc., Wallingford CT, 2016.
 
 ******************************************
 Gaussian 16:  ES64L-G16RevB.01 20-Dec-2017
                22-Nov-2022 
 ******************************************
 %nprocshared=32
 Will use up to   32 processors via shared memory.
 %mem=120GB
 %chk=_conf041.chk
 ----------------------------------------
 #P wB97XD/6-311++G(d,p) scf=maxcycle=512
 ----------------------------------------
 1/38=1,172=1/1;
 2/12=2,17=6,18=5,40=1/2;
 3/5=4,6=6,7=1111,11=2,25=1,30=1,74=-58/1,2,3;
 4//1;
 5/5=2,7=512,38=5/2;
 6/7=2,8=2,9=2,10=2,28=1/1;
 99/5=1,9=1/99;
 Leave Link    1 at Tue Nov 22 19:12:25 2022, MaxMem= 16106127360 cpu:               1.8 elap:               0.1
 (Enter /opt/ap/G16/B01/g16/l101.exe)
 ----------------------------
 _conf041.gjf nmol_natom 1_19
 ----------------------------
 Symbolic Z-matrix:
 Charge =  0 Multiplicity = 1
 C
 C                    1     1.39448 
 C                    1     1.39874  2     119.56697 
 C                    2     1.39066  1     119.42697  3     2.53916  0
 H                    2     0.96213  1     119.80462  3    -177.7987  0
 N                    1     1.41693  2     123.7222  4    -177.74605  0
 C                    3     1.38667  1     120.1876  2    -2.50209  0
 H                    3     0.95673  1     118.82086  2     177.96737  0
 C                    4     1.38269  2     121.03929  1    -0.41221  0
 H                    4     0.98586  2     118.57913  1     178.77373  0
 C                    6     1.35501  1     127.62133  2    -155.     0
 H                    6     0.89609  1     115.10512  2     25.      0
 H                    7     0.98847  3     119.08118  1    -179.64585  0
 H                    9     0.98451  4     120.53756  2     177.22744  0
 C                    11    1.50275  6     115.46862  1     175.89235  0
 O                    11    1.23496  6     123.151  1    -3.40673  0
 H                    15    0.9872   11    107.47092  6    -116.36963  0
 H                    15    0.99976  11    109.69443  6     128.85346  0
 H                    15    0.97696  11    114.37009  6     6.05303  0
 
 ITRead=  0  0  0  0  0  0  0  0  0  0  0  0  0  0  0  0  0  0  0
 MicOpt= -1 -1 -1 -1 -1 -1 -1 -1 -1 -1 -1 -1 -1 -1 -1 -1 -1 -1 -1
 NAtoms=     19 NQM=       19 NQMF=       0 NMMI=      0 NMMIF=      0
                NMic=       0 NMicF=      0.
                    Isotopes and Nuclear Properties:
 (Nuclear quadrupole moments (NQMom) in fm**2, nuclear magnetic moments (NMagM)
  in nuclear magnetons)

  Atom         1           2           3           4           5           6           7           8           9          10
 IAtWgt=          12          12          12          12           1          14          12           1          12           1
 AtmWgt=  12.0000000  12.0000000  12.0000000  12.0000000   1.0078250  14.0030740  12.0000000   1.0078250  12.0000000   1.0078250
 NucSpn=           0           0           0           0           1           2           0           1           0           1
 AtZEff=  -0.0000000  -0.0000000  -0.0000000  -0.0000000  -0.0000000  -0.0000000  -0.0000000  -0.0000000  -0.0000000  -0.0000000
 NQMom=    0.0000000   0.0000000   0.0000000   0.0000000   0.0000000   2.0440000   0.0000000   0.0000000   0.0000000   0.0000000
 NMagM=    0.0000000   0.0000000   0.0000000   0.0000000   2.7928460   0.4037610   0.0000000   2.7928460   0.0000000   2.7928460
 AtZNuc=   6.0000000   6.0000000   6.0000000   6.0000000   1.0000000   7.0000000   6.0000000   1.0000000   6.0000000   1.0000000

  Atom        11          12          13          14          15          16          17          18          19
 IAtWgt=          12           1           1           1          12          16           1           1           1
 AtmWgt=  12.0000000   1.0078250   1.0078250   1.0078250  12.0000000  15.9949146   1.0078250   1.0078250   1.0078250
 NucSpn=           0           1           1           1           0           0           1           1           1
 AtZEff=  -0.0000000  -0.0000000  -0.0000000  -0.0000000  -0.0000000  -0.0000000  -0.0000000  -0.0000000  -0.0000000
 NQMom=    0.0000000   0.0000000   0.0000000   0.0000000   0.0000000   0.0000000   0.0000000   0.0000000   0.0000000
 NMagM=    0.0000000   2.7928460   2.7928460   2.7928460   0.0000000   0.0000000   2.7928460   2.7928460   2.7928460
 AtZNuc=   6.0000000   1.0000000   1.0000000   1.0000000   6.0000000   8.0000000   1.0000000   1.0000000   1.0000000
 Leave Link  101 at Tue Nov 22 19:12:25 2022, MaxMem= 16106127360 cpu:               5.1 elap:               0.2
 (Enter /opt/ap/G16/B01/g16/l202.exe)
                          Input orientation:                          
 ---------------------------------------------------------------------
 Center     Atomic      Atomic             Coordinates (Angstroms)
 Number     Number       Type             X           Y           Z
 ---------------------------------------------------------------------
      1          6           0        0.000000    0.000000    0.000000
      2          6           0        0.000000    0.000000    1.394475
      3          6           0        1.216591    0.000000   -0.690193
      4          6           0        1.210053    0.053661    2.077726
      5          1           0       -0.834249   -0.032067    1.872696
      6          7           0       -1.178505   -0.005866   -0.786634
      7          6           0        2.413939    0.052326    0.007287
      8          1           0        1.204393   -0.029731   -1.646384
      9          6           0        2.412261    0.098442    1.396177
     10          1           0        1.194755    0.071528    3.063305
     11          6           0       -1.324210   -0.460172   -2.054869
     12          1           0       -1.904704    0.333453   -0.386032
     13          1           0        3.263999    0.056828   -0.497149
     14          1           0        3.262484    0.177260    1.886251
     15          6           0       -2.724907   -0.422423   -2.597886
     16          8           0       -0.384415   -0.892148   -2.729643
     17          1           0       -3.000478   -1.354245   -2.772035
     18          1           0       -2.729670    0.036462   -3.486100
     19          1           0       -3.373097    0.013576   -2.011193
 ---------------------------------------------------------------------
                    Distance matrix (angstroms):
                    1          2          3          4          5
     1  C    0.000000
     2  C    1.394475   0.000000
     3  C    1.398735   2.413697   0.000000
     4  C    2.405006   1.390661   2.768447   0.000000
     5  H    2.050363   0.962130   3.282586   2.056345   0.000000
     6  N    1.416934   2.479142   2.397044   3.730055   2.681648
     7  C    2.414517   2.784624   1.386671   2.395008   3.746678
     8  H    2.040105   3.270821   0.956732   3.725048   4.066939
     9  C    2.788908   2.414270   2.406711   1.382686   3.283889
    10  H    3.288829   2.053668   3.754243   0.985860   2.354812
    11  C    2.487525   3.723341   2.920578   4.874921   3.981093
    12  H    1.971829   2.628554   3.153758   3.981218   2.526130
    13  H    3.302132   3.772951   2.057273   3.293734   4.734944
    14  H    3.772687   3.304099   3.294718   2.065046   4.102100
    15  C    3.788479   4.852063   4.399221   6.129594   4.869607
    16  O    2.897353   4.236986   2.741989   5.152444   4.703574
    17  H    4.303607   5.310053   4.894050   6.575025   5.292847
    18  H    4.427790   5.592177   4.836466   6.817468   5.684541
    19  H    3.927195   4.793385   4.776030   6.142159   4.640304
                    6          7          8          9         10
     6  N    0.000000
     7  C    3.679585   0.000000
     8  H    2.533365   2.050454   0.000000
     9  C    4.203468   1.389657   3.276058   0.000000
    10  H    4.523316   3.290292   4.710788   2.064548   0.000000
    11  C    1.355007   4.299872   2.597301   5.116932   5.729189
    12  H    0.896095   4.345620   3.374444   4.676291   4.644694
    13  H    4.452366   0.988472   2.360129   2.076505   4.118108
    14  H    5.186544   2.065465   4.093666   0.984512   2.381625
    15  C    2.417750   5.781008   4.061892   6.527966   6.903393
    16  O    2.278455   4.026611   2.107492   5.081836   6.081175
    17  H    3.013226   6.246518   4.549986   6.984415   7.326937
    18  H    3.113683   6.217774   4.343476   7.090834   7.635250
    19  H    2.513196   6.129073   4.592208   6.714740   6.827822
                   11         12         13         14         15
    11  C    0.000000
    12  H    1.936964   0.000000
    13  H    4.872930   5.177292   0.000000
    14  H    6.080832   5.646902   2.386441   0.000000
    15  C    1.502746   2.477172   6.364729   7.504397   0.000000
    16  O    1.234965   3.050555   4.381268   5.979129   2.390796
    17  H    2.030657   3.121227   6.812482   7.954234   0.987198
    18  H    2.066491   3.221675   6.697635   8.049093   0.999760
    19  H    2.103397   2.213514   6.807733   7.697259   0.976962
                   16         17         18         19
    16  O    0.000000
    17  H    2.656900   0.000000
    18  H    2.633395   1.586598   0.000000
    19  H    3.204485   1.608931   1.609308   0.000000
 Stoichiometry    C8H9NO
 Framework group  C1[X(C8H9NO)]
 Deg. of freedom    51
 Full point group                 C1      NOp   1
 Largest Abelian subgroup         C1      NOp   1
 Largest concise Abelian subgroup C1      NOp   1
                         Standard orientation:                         
 ---------------------------------------------------------------------
 Center     Atomic      Atomic             Coordinates (Angstroms)
 Number     Number       Type             X           Y           Z
 ---------------------------------------------------------------------
      1          6           0       -0.303419   -0.395670   -0.091918
      2          6           0       -1.285968   -1.362010    0.121025
      3          6           0       -0.670311    0.949877   -0.198474
      4          6           0       -2.621811   -0.978672    0.171176
      5          1           0       -1.034390   -2.284652    0.226538
      6          7           0        1.077972   -0.690026   -0.205120
      7          6           0       -2.007125    1.314441   -0.144820
      8          1           0        0.015195    1.607005   -0.315095
      9          6           0       -2.989552    0.345806    0.021698
     10          1           0       -3.307457   -1.674487    0.304035
     11          6           0        2.122911    0.133923    0.050331
     12          1           0        1.268282   -1.521879   -0.478593
     13          1           0       -2.248338    2.269492   -0.227108
     14          1           0       -3.939654    0.603791    0.017830
     15          6           0        3.483754   -0.492347   -0.068562
     16          8           0        1.986011    1.318020    0.373304
     17          1           0        3.900539   -0.467692    0.826001
     18          1           0        4.063282    0.070318   -0.657694
     19          1           0        3.477775   -1.407966   -0.409238
 ---------------------------------------------------------------------
 Rotational constants (GHZ):           3.8027025           0.8043809           0.6746848
 Leave Link  202 at Tue Nov 22 19:12:25 2022, MaxMem= 16106127360 cpu:               0.3 elap:               0.0
 (Enter /opt/ap/G16/B01/g16/l301.exe)
 Standard basis: 6-311++G(d,p) (5D, 7F)
 Ernie: Thresh=  0.10000D-02 Tol=  0.10000D-05 Strict=F.
 There are   293 symmetry adapted cartesian basis functions of A   symmetry.
 There are   283 symmetry adapted basis functions of A   symmetry.
   283 basis functions,   441 primitive gaussians,   293 cartesian basis functions
    36 alpha electrons       36 beta electrons
       nuclear repulsion energy       493.5365972720 Hartrees.
 IExCor= 4639 DFT=T Ex+Corr=wB97XD ExCW=0 ScaHFX=  1.000000
 ScaDFX=  1.000000  1.000000  1.000000  1.000000 ScalE2=  1.000000  1.000000
 IRadAn=      5 IRanWt=     -1 IRanGd=            0 ICorTp=0 IEmpDi=121
 HFx  wShort=  0.000000 wLong=  0.200000 cFull=  0.222036 cShort=  0.000000 cLong=  0.777964
 DFx  wShort=  0.000000 wLong=  0.200000 cFull=  0.000000 cShort=  0.000000 cLong=  1.000000
 NAtoms=   19 NActive=   19 NUniq=   19 SFac= 1.00D+00 NAtFMM=   60 NAOKFM=F Big=F
 Integral buffers will be    131072 words long.
 Raffenetti 2 integral format.
 Two-electron integral symmetry is turned on.
 R6Disp:  Grimme-D2 Dispersion energy=       -0.0089879704 Hartrees.
 Nuclear repulsion after empirical dispersion term =      493.5276093017 Hartrees.
 Leave Link  301 at Tue Nov 22 19:12:25 2022, MaxMem= 16106127360 cpu:               1.2 elap:               0.0
 (Enter /opt/ap/G16/B01/g16/l302.exe)
 NPDir=0 NMtPBC=     1 NCelOv=     1 NCel=       1 NClECP=     1 NCelD=      1
         NCelK=      1 NCelE2=     1 NClLst=     1 CellRange=     0.0.
 One-electron integrals computed using PRISM.
 One-electron integral symmetry used in STVInt
 NBasis=   283 RedAO= T EigKep=  3.11D-06  NBF=   283
 NBsUse=   282 1.00D-06 EigRej=  8.33D-07 NBFU=   282
 Precomputing XC quadrature grid using
 IXCGrd= 4 IRadAn=           5 IRanWt=          -1 IRanGd=           0 AccXCQ= 0.00D+00.
 Generated NRdTot=       0 NPtTot=           0 NUsed=           0 NTot=          32
 NSgBfM=   293   293   293   293   293 MxSgAt=    19 MxSgA2=    19.
 Leave Link  302 at Tue Nov 22 19:12:25 2022, MaxMem= 16106127360 cpu:               6.3 elap:               0.2
 (Enter /opt/ap/G16/B01/g16/l303.exe)
 DipDrv:  MaxL=1.
 Leave Link  303 at Tue Nov 22 19:12:25 2022, MaxMem= 16106127360 cpu:               1.4 elap:               0.1
 (Enter /opt/ap/G16/B01/g16/l401.exe)
 ExpMin= 3.60D-02 ExpMax= 8.59D+03 ExpMxC= 1.30D+03 IAcc=3 IRadAn=         5 AccDes= 0.00D+00
 Harris functional with IExCor= 4639 and IRadAn=       5 diagonalized for initial guess.
 HarFok:  IExCor= 4639 AccDes= 0.00D+00 IRadAn=         5 IDoV= 1 UseB2=F ITyADJ=14
 ICtDFT=  3500011 ScaDFX=  1.000000  1.000000  1.000000  1.000000
 FoFCou: FMM=F IPFlag=           0 FMFlag=      100000 FMFlg1=           0
         NFxFlg=           0 DoJE=T BraDBF=F KetDBF=T FulRan=T
         wScrn=  0.000000 ICntrl=       500 IOpCl=  0 I1Cent=   200000004 NGrid=           0
         NMat0=    1 NMatS0=      1 NMatT0=    0 NMatD0=    1 NMtDS0=    0 NMtDT0=    0
 Petite list used in FoFCou.
 Harris En= -420.986168258917    
 JPrj=0 DoOrth=F DoCkMO=F.
 Leave Link  401 at Tue Nov 22 19:12:26 2022, MaxMem= 16106127360 cpu:              15.3 elap:               0.5
 (Enter /opt/ap/G16/B01/g16/l502.exe)
 Integral symmetry usage will be decided dynamically.
 Closed shell SCF:
 Using DIIS extrapolation, IDIIS=  1040.
 NGot= 16106127360 LenX= 16105943385 LenY= 16105857095
 Requested convergence on RMS density matrix=1.00D-08 within 512 cycles.
 Requested convergence on MAX density matrix=1.00D-06.
 Requested convergence on             energy=1.00D-06.
 No special actions if energy rises.
 Fock matrices will be formed incrementally for  20 cycles.

 Cycle   1  Pass 1  IDiag  1:
 FoFJK:  IHMeth= 1 ICntrl=       0 DoSepK=T KAlg= 0 I1Cent=           0 FoldK=F
 IRaf=         1 NMat=       1 IRICut=       1 DoRegI=T DoRafI=F ISym2E= 0 IDoP0=0 IntGTp=1.
 FoFCou: FMM=F IPFlag=           0 FMFlag=      100000 FMFlg1=           0
         NFxFlg=           0 DoJE=T BraDBF=F KetDBF=F FulRan=T
         wScrn=  0.000000 ICntrl=       500 IOpCl=  0 I1Cent=           0 NGrid=           0
         NMat0=    1 NMatS0=      1 NMatT0=    0 NMatD0=    1 NMtDS0=    0 NMtDT0=    0
 Symmetry not used in FoFCou.
 E= -439.983932782171    
 DIIS: error= 4.95D-02 at cycle   1 NSaved=   1.
 NSaved= 1 IEnMin= 1 EnMin= -439.983932782171     IErMin= 1 ErrMin= 4.95D-02
 ErrMax= 4.95D-02  0.00D+00 EMaxC= 1.00D-01 BMatC= 9.47D-01 BMatP= 9.47D-01
 IDIUse=3 WtCom= 5.05D-01 WtEn= 4.95D-01
 Coeff-Com:  0.100D+01
 Coeff-En:   0.100D+01
 Coeff:      0.100D+01
 Gap=     0.448 Goal=   None    Shift=    0.000
 GapD=    0.448 DampG=2.000 DampE=0.500 DampFc=1.0000 IDamp=-1.
 RMSDP=8.44D-03 MaxDP=6.95D-01              OVMax= 1.49D-01

 Cycle   2  Pass 1  IDiag  1:
 RMSU=  7.10D-03    CP:  8.25D-01
 E= -440.064602603938     Delta-E=       -0.080669821767 Rises=F Damp=F
 DIIS: error= 1.16D-02 at cycle   2 NSaved=   2.
 NSaved= 2 IEnMin= 2 EnMin= -440.064602603938     IErMin= 2 ErrMin= 1.16D-02
 ErrMax= 1.16D-02  0.00D+00 EMaxC= 1.00D-01 BMatC= 8.91D-02 BMatP= 9.47D-01
 IDIUse=3 WtCom= 8.84D-01 WtEn= 1.16D-01
 Coeff-Com:  0.164D+00 0.836D+00
 Coeff-En:   0.244D+00 0.756D+00
 Coeff:      0.173D+00 0.827D+00
 Gap=     0.451 Goal=   None    Shift=    0.000
 RMSDP=8.24D-03 MaxDP=4.13D-01 DE=-8.07D-02 OVMax= 1.26D-01

 Cycle   3  Pass 1  IDiag  1:
 RMSU=  5.16D-03    CP:  6.34D-01  4.29D-01
 E= -440.104393993367     Delta-E=       -0.039791389429 Rises=F Damp=F
 DIIS: error= 9.68D-03 at cycle   3 NSaved=   3.
 NSaved= 3 IEnMin= 3 EnMin= -440.104393993367     IErMin= 3 ErrMin= 9.68D-03
 ErrMax= 9.68D-03  0.00D+00 EMaxC= 1.00D-01 BMatC= 4.21D-02 BMatP= 8.91D-02
 IDIUse=3 WtCom= 9.03D-01 WtEn= 9.68D-02
 Coeff-Com:  0.261D-01 0.411D+00 0.563D+00
 Coeff-En:   0.000D+00 0.325D+00 0.675D+00
 Coeff:      0.236D-01 0.403D+00 0.574D+00
 Gap=     0.355 Goal=   None    Shift=    0.000
 RMSDP=2.80D-03 MaxDP=1.05D-01 DE=-3.98D-02 OVMax= 7.15D-02

 Cycle   4  Pass 1  IDiag  1:
 RMSU=  8.47D-04    CP:  6.83D-01  6.50D-01  6.64D-01
 E= -440.141887254639     Delta-E=       -0.037493261272 Rises=F Damp=F
 DIIS: error= 2.06D-03 at cycle   4 NSaved=   4.
 NSaved= 4 IEnMin= 4 EnMin= -440.141887254639     IErMin= 4 ErrMin= 2.06D-03
 ErrMax= 2.06D-03  0.00D+00 EMaxC= 1.00D-01 BMatC= 1.57D-03 BMatP= 4.21D-02
 IDIUse=3 WtCom= 9.79D-01 WtEn= 2.06D-02
 Coeff-Com:  0.931D-02 0.186D+00 0.294D+00 0.511D+00
 Coeff-En:   0.000D+00 0.000D+00 0.000D+00 0.100D+01
 Coeff:      0.912D-02 0.182D+00 0.288D+00 0.521D+00
 Gap=     0.340 Goal=   None    Shift=    0.000
 RMSDP=3.54D-04 MaxDP=1.21D-02 DE=-3.75D-02 OVMax= 1.03D-02

 Cycle   5  Pass 1  IDiag  1:
 RMSU=  2.76D-04    CP:  6.81D-01  6.37D-01  6.77D-01  7.89D-01
 E= -440.143120404366     Delta-E=       -0.001233149728 Rises=F Damp=F
 DIIS: error= 4.62D-04 at cycle   5 NSaved=   5.
 NSaved= 5 IEnMin= 5 EnMin= -440.143120404366     IErMin= 5 ErrMin= 4.62D-04
 ErrMax= 4.62D-04  0.00D+00 EMaxC= 1.00D-01 BMatC= 6.64D-05 BMatP= 1.57D-03
 IDIUse=3 WtCom= 9.95D-01 WtEn= 4.62D-03
 Coeff-Com:  0.769D-03 0.183D-01 0.409D-01 0.179D+00 0.761D+00
 Coeff-En:   0.000D+00 0.000D+00 0.000D+00 0.000D+00 0.100D+01
 Coeff:      0.766D-03 0.182D-01 0.407D-01 0.178D+00 0.762D+00
 Gap=     0.340 Goal=   None    Shift=    0.000
 RMSDP=1.79D-04 MaxDP=8.53D-03 DE=-1.23D-03 OVMax= 2.71D-03

 Cycle   6  Pass 1  IDiag  1:
 RMSU=  9.92D-05    CP:  6.77D-01  6.35D-01  6.98D-01  8.28D-01  8.58D-01
 E= -440.143166278925     Delta-E=       -0.000045874559 Rises=F Damp=F
 DIIS: error= 2.66D-04 at cycle   6 NSaved=   6.
 NSaved= 6 IEnMin= 6 EnMin= -440.143166278925     IErMin= 6 ErrMin= 2.66D-04
 ErrMax= 2.66D-04  0.00D+00 EMaxC= 1.00D-01 BMatC= 2.02D-05 BMatP= 6.64D-05
 IDIUse=3 WtCom= 9.97D-01 WtEn= 2.66D-03
 Coeff-Com: -0.110D-02-0.191D-01-0.220D-01 0.162D-01 0.414D+00 0.612D+00
 Coeff-En:   0.000D+00 0.000D+00 0.000D+00 0.000D+00 0.246D-01 0.975D+00
 Coeff:     -0.110D-02-0.191D-01-0.219D-01 0.161D-01 0.413D+00 0.613D+00
 Gap=     0.340 Goal=   None    Shift=    0.000
 RMSDP=5.18D-05 MaxDP=1.73D-03 DE=-4.59D-05 OVMax= 1.43D-03

 Cycle   7  Pass 1  IDiag  1:
 RMSU=  2.99D-05    CP:  6.76D-01  6.32D-01  7.01D-01  8.40D-01  9.14D-01
                    CP:  1.12D+00
 E= -440.143183497752     Delta-E=       -0.000017218827 Rises=F Damp=F
 DIIS: error= 7.06D-05 at cycle   7 NSaved=   7.
 NSaved= 7 IEnMin= 7 EnMin= -440.143183497752     IErMin= 7 ErrMin= 7.06D-05
 ErrMax= 7.06D-05  0.00D+00 EMaxC= 1.00D-01 BMatC= 5.10D-07 BMatP= 2.02D-05
 IDIUse=1 WtCom= 1.00D+00 WtEn= 0.00D+00
 Coeff-Com: -0.280D-03-0.530D-02-0.649D-02-0.117D-01 0.147D-01 0.996D-01
 Coeff-Com:  0.909D+00
 Coeff:     -0.280D-03-0.530D-02-0.649D-02-0.117D-01 0.147D-01 0.996D-01
 Coeff:      0.909D+00
 Gap=     0.341 Goal=   None    Shift=    0.000
 RMSDP=2.06D-05 MaxDP=7.44D-04 DE=-1.72D-05 OVMax= 5.68D-04

 Cycle   8  Pass 1  IDiag  1:
 RMSU=  9.77D-06    CP:  6.76D-01  6.31D-01  7.03D-01  8.42D-01  9.34D-01
                    CP:  1.22D+00  1.12D+00
 E= -440.143184667263     Delta-E=       -0.000001169511 Rises=F Damp=F
 DIIS: error= 2.30D-05 at cycle   8 NSaved=   8.
 NSaved= 8 IEnMin= 8 EnMin= -440.143184667263     IErMin= 8 ErrMin= 2.30D-05
 ErrMax= 2.30D-05  0.00D+00 EMaxC= 1.00D-01 BMatC= 1.06D-07 BMatP= 5.10D-07
 IDIUse=1 WtCom= 1.00D+00 WtEn= 0.00D+00
 Coeff-Com:  0.652D-04 0.824D-03 0.101D-02-0.706D-02-0.602D-01-0.636D-01
 Coeff-Com:  0.295D+00 0.834D+00
 Coeff:      0.652D-04 0.824D-03 0.101D-02-0.706D-02-0.602D-01-0.636D-01
 Coeff:      0.295D+00 0.834D+00
 Gap=     0.341 Goal=   None    Shift=    0.000
 RMSDP=1.04D-05 MaxDP=4.62D-04 DE=-1.17D-06 OVMax= 3.49D-04

 Cycle   9  Pass 1  IDiag  1:
 RMSU=  3.60D-06    CP:  6.76D-01  6.30D-01  7.04D-01  8.42D-01  9.36D-01
                    CP:  1.26D+00  1.23D+00  1.25D+00
 E= -440.143184886862     Delta-E=       -0.000000219599 Rises=F Damp=F
 DIIS: error= 1.18D-05 at cycle   9 NSaved=   9.
 NSaved= 9 IEnMin= 9 EnMin= -440.143184886862     IErMin= 9 ErrMin= 1.18D-05
 ErrMax= 1.18D-05  0.00D+00 EMaxC= 1.00D-01 BMatC= 1.07D-08 BMatP= 1.06D-07
 IDIUse=1 WtCom= 1.00D+00 WtEn= 0.00D+00
 Coeff-Com:  0.521D-04 0.884D-03 0.119D-02-0.503D-03-0.191D-01-0.291D-01
 Coeff-Com: -0.100D-01 0.245D+00 0.812D+00
 Coeff:      0.521D-04 0.884D-03 0.119D-02-0.503D-03-0.191D-01-0.291D-01
 Coeff:     -0.100D-01 0.245D+00 0.812D+00
 Gap=     0.341 Goal=   None    Shift=    0.000
 RMSDP=3.32D-06 MaxDP=1.96D-04 DE=-2.20D-07 OVMax= 9.04D-05

 Cycle  10  Pass 1  IDiag  1:
 RMSU=  1.08D-06    CP:  6.76D-01  6.30D-01  7.04D-01  8.42D-01  9.34D-01
                    CP:  1.27D+00  1.24D+00  1.34D+00  1.28D+00
 E= -440.143184911315     Delta-E=       -0.000000024453 Rises=F Damp=F
 DIIS: error= 3.00D-06 at cycle  10 NSaved=  10.
 NSaved=10 IEnMin=10 EnMin= -440.143184911315     IErMin=10 ErrMin= 3.00D-06
 ErrMax= 3.00D-06  0.00D+00 EMaxC= 1.00D-01 BMatC= 1.52D-09 BMatP= 1.07D-08
 IDIUse=1 WtCom= 1.00D+00 WtEn= 0.00D+00
 Coeff-Com:  0.354D-05 0.118D-03 0.190D-03 0.956D-03 0.398D-02 0.188D-02
 Coeff-Com: -0.438D-01-0.738D-01 0.199D+00 0.912D+00
 Coeff:      0.354D-05 0.118D-03 0.190D-03 0.956D-03 0.398D-02 0.188D-02
 Coeff:     -0.438D-01-0.738D-01 0.199D+00 0.912D+00
 Gap=     0.341 Goal=   None    Shift=    0.000
 RMSDP=8.95D-07 MaxDP=4.73D-05 DE=-2.45D-08 OVMax= 5.01D-05

 Cycle  11  Pass 1  IDiag  1:
 RMSU=  4.96D-07    CP:  6.76D-01  6.30D-01  7.04D-01  8.42D-01  9.33D-01
                    CP:  1.27D+00  1.24D+00  1.39D+00  1.41D+00  1.11D+00
 E= -440.143184915825     Delta-E=       -0.000000004510 Rises=F Damp=F
 DIIS: error= 9.13D-07 at cycle  11 NSaved=  11.
 NSaved=11 IEnMin=11 EnMin= -440.143184915825     IErMin=11 ErrMin= 9.13D-07
 ErrMax= 9.13D-07  0.00D+00 EMaxC= 1.00D-01 BMatC= 1.96D-10 BMatP= 1.52D-09
 IDIUse=1 WtCom= 1.00D+00 WtEn= 0.00D+00
 Coeff-Com: -0.550D-05-0.854D-04-0.102D-03 0.368D-03 0.367D-02 0.435D-02
 Coeff-Com: -0.941D-02-0.541D-01-0.633D-01 0.218D+00 0.901D+00
 Coeff:     -0.550D-05-0.854D-04-0.102D-03 0.368D-03 0.367D-02 0.435D-02
 Coeff:     -0.941D-02-0.541D-01-0.633D-01 0.218D+00 0.901D+00
 Gap=     0.341 Goal=   None    Shift=    0.000
 RMSDP=3.79D-07 MaxDP=1.13D-05 DE=-4.51D-09 OVMax= 1.69D-05

 Cycle  12  Pass 1  IDiag  1:
 RMSU=  1.80D-07    CP:  6.76D-01  6.30D-01  7.04D-01  8.41D-01  9.33D-01
                    CP:  1.27D+00  1.24D+00  1.39D+00  1.45D+00  1.17D+00
                    CP:  1.38D+00
 E= -440.143184916437     Delta-E=       -0.000000000612 Rises=F Damp=F
 DIIS: error= 4.00D-07 at cycle  12 NSaved=  12.
 NSaved=12 IEnMin=12 EnMin= -440.143184916437     IErMin=12 ErrMin= 4.00D-07
 ErrMax= 4.00D-07  0.00D+00 EMaxC= 1.00D-01 BMatC= 1.87D-11 BMatP= 1.96D-10
 IDIUse=1 WtCom= 1.00D+00 WtEn= 0.00D+00
 Coeff-Com: -0.842D-06-0.231D-04-0.362D-04-0.737D-04-0.406D-03-0.330D-05
 Coeff-Com:  0.517D-02 0.716D-02-0.261D-01-0.979D-01 0.575D-01 0.105D+01
 Coeff:     -0.842D-06-0.231D-04-0.362D-04-0.737D-04-0.406D-03-0.330D-05
 Coeff:      0.517D-02 0.716D-02-0.261D-01-0.979D-01 0.575D-01 0.105D+01
 Gap=     0.341 Goal=   None    Shift=    0.000
 RMSDP=1.57D-07 MaxDP=3.67D-06 DE=-6.12D-10 OVMax= 6.17D-06

 Cycle  13  Pass 1  IDiag  1:
 RMSU=  5.85D-08    CP:  6.76D-01  6.30D-01  7.04D-01  8.42D-01  9.33D-01
                    CP:  1.27D+00  1.24D+00  1.39D+00  1.44D+00  1.18D+00
                    CP:  1.55D+00  1.26D+00
 E= -440.143184916513     Delta-E=       -0.000000000076 Rises=F Damp=F
 DIIS: error= 1.32D-07 at cycle  13 NSaved=  13.
 NSaved=13 IEnMin=13 EnMin= -440.143184916513     IErMin=13 ErrMin= 1.32D-07
 ErrMax= 1.32D-07  0.00D+00 EMaxC= 1.00D-01 BMatC= 2.27D-12 BMatP= 1.87D-11
 IDIUse=1 WtCom= 1.00D+00 WtEn= 0.00D+00
 Coeff-Com:  0.162D-06 0.111D-05-0.123D-05-0.447D-04-0.415D-03-0.350D-03
 Coeff-Com:  0.200D-02 0.638D-02-0.157D-02-0.441D-01-0.669D-01 0.247D+00
 Coeff-Com:  0.858D+00
 Coeff:      0.162D-06 0.111D-05-0.123D-05-0.447D-04-0.415D-03-0.350D-03
 Coeff:      0.200D-02 0.638D-02-0.157D-02-0.441D-01-0.669D-01 0.247D+00
 Coeff:      0.858D+00
 Gap=     0.341 Goal=   None    Shift=    0.000
 RMSDP=5.02D-08 MaxDP=2.28D-06 DE=-7.58D-11 OVMax= 1.91D-06

 Cycle  14  Pass 1  IDiag  1:
 RMSU=  2.66D-08    CP:  6.76D-01  6.30D-01  7.04D-01  8.42D-01  9.33D-01
                    CP:  1.27D+00  1.24D+00  1.39D+00  1.44D+00  1.17D+00
                    CP:  1.58D+00  1.32D+00  1.41D+00
 E= -440.143184916524     Delta-E=       -0.000000000012 Rises=F Damp=F
 DIIS: error= 5.19D-08 at cycle  14 NSaved=  14.
 NSaved=14 IEnMin=14 EnMin= -440.143184916524     IErMin=14 ErrMin= 5.19D-08
 ErrMax= 5.19D-08  0.00D+00 EMaxC= 1.00D-01 BMatC= 3.87D-13 BMatP= 2.27D-12
 IDIUse=1 WtCom= 1.00D+00 WtEn= 0.00D+00
 Coeff-Com:  0.122D-06 0.285D-05 0.358D-05-0.257D-06-0.247D-04-0.623D-04
 Coeff-Com: -0.339D-03 0.320D-03 0.322D-02 0.495D-02-0.221D-01-0.105D+00
 Coeff-Com:  0.226D+00 0.893D+00
 Coeff:      0.122D-06 0.285D-05 0.358D-05-0.257D-06-0.247D-04-0.623D-04
 Coeff:     -0.339D-03 0.320D-03 0.322D-02 0.495D-02-0.221D-01-0.105D+00
 Coeff:      0.226D+00 0.893D+00
 Gap=     0.341 Goal=   None    Shift=    0.000
 RMSDP=2.49D-08 MaxDP=1.42D-06 DE=-1.16D-11 OVMax= 7.87D-07

 Cycle  15  Pass 1  IDiag  1:
 RMSU=  6.96D-09    CP:  6.76D-01  6.30D-01  7.04D-01  8.42D-01  9.33D-01
                    CP:  1.27D+00  1.24D+00  1.39D+00  1.44D+00  1.17D+00
                    CP:  1.57D+00  1.35D+00  1.62D+00  1.30D+00
 E= -440.143184916521     Delta-E=        0.000000000003 Rises=F Damp=F
 DIIS: error= 2.12D-08 at cycle  15 NSaved=  15.
 NSaved=15 IEnMin=14 EnMin= -440.143184916524     IErMin=15 ErrMin= 2.12D-08
 ErrMax= 2.12D-08  0.00D+00 EMaxC= 1.00D-01 BMatC= 4.17D-14 BMatP= 3.87D-13
 IDIUse=1 WtCom= 1.00D+00 WtEn= 0.00D+00
 Coeff-Com: -0.956D-08 0.141D-06 0.440D-06 0.638D-05 0.609D-04 0.465D-04
 Coeff-Com: -0.347D-03-0.836D-03 0.715D-03 0.691D-02 0.772D-02-0.518D-01
 Coeff-Com: -0.847D-01 0.956D-01 0.103D+01
 Coeff:     -0.956D-08 0.141D-06 0.440D-06 0.638D-05 0.609D-04 0.465D-04
 Coeff:     -0.347D-03-0.836D-03 0.715D-03 0.691D-02 0.772D-02-0.518D-01
 Coeff:     -0.847D-01 0.956D-01 0.103D+01
 Gap=     0.341 Goal=   None    Shift=    0.000
 RMSDP=1.16D-08 MaxDP=7.61D-07 DE= 3.41D-12 OVMax= 3.58D-07

 Cycle  16  Pass 1  IDiag  1:
 RMSU=  2.99D-09    CP:  6.76D-01  6.30D-01  7.04D-01  8.42D-01  9.33D-01
                    CP:  1.27D+00  1.24D+00  1.39D+00  1.44D+00  1.17D+00
                    CP:  1.57D+00  1.35D+00  1.69D+00  1.44D+00  1.46D+00
 E= -440.143184916526     Delta-E=       -0.000000000005 Rises=F Damp=F
 DIIS: error= 7.09D-09 at cycle  16 NSaved=  16.
 NSaved=16 IEnMin=16 EnMin= -440.143184916526     IErMin=16 ErrMin= 7.09D-09
 ErrMax= 7.09D-09  0.00D+00 EMaxC= 1.00D-01 BMatC= 6.75D-15 BMatP= 4.17D-14
 IDIUse=1 WtCom= 1.00D+00 WtEn= 0.00D+00
 Coeff-Com: -0.135D-07-0.223D-06-0.254D-06 0.113D-05 0.142D-04 0.137D-04
 Coeff-Com: -0.329D-04-0.164D-03-0.228D-03 0.411D-03 0.431D-02 0.251D-02
 Coeff-Com: -0.452D-01-0.104D+00 0.240D+00 0.903D+00
 Coeff:     -0.135D-07-0.223D-06-0.254D-06 0.113D-05 0.142D-04 0.137D-04
 Coeff:     -0.329D-04-0.164D-03-0.228D-03 0.411D-03 0.431D-02 0.251D-02
 Coeff:     -0.452D-01-0.104D+00 0.240D+00 0.903D+00
 Gap=     0.341 Goal=   None    Shift=    0.000
 RMSDP=3.69D-09 MaxDP=1.54D-07 DE=-5.34D-12 OVMax= 1.21D-07

 SCF Done:  E(RwB97XD) =  -440.143184917     A.U. after   16 cycles
            NFock= 16  Conv=0.37D-08     -V/T= 2.0002
 KE= 4.400426313877D+02 PE=-2.013507742153D+03 EE= 6.397943165471D+02
 Leave Link  502 at Tue Nov 22 19:12:48 2022, MaxMem= 16106127360 cpu:             697.2 elap:              22.0
 (Enter /opt/ap/G16/B01/g16/l601.exe)
 Copying SCF densities to generalized density rwf, IOpCl= 0 IROHF=0.

 **********************************************************************

            Population analysis using the SCF Density.

 **********************************************************************

 Orbital symmetries:
       Occupied  (A) (A) (A) (A) (A) (A) (A) (A) (A) (A) (A) (A)
                 (A) (A) (A) (A) (A) (A) (A) (A) (A) (A) (A) (A)
                 (A) (A) (A) (A) (A) (A) (A) (A) (A) (A) (A) (A)
       Virtual   (A) (A) (A) (A) (A) (A) (A) (A) (A) (A) (A) (A)
                 (A) (A) (A) (A) (A) (A) (A) (A) (A) (A) (A) (A)
                 (A) (A) (A) (A) (A) (A) (A) (A) (A) (A) (A) (A)
                 (A) (A) (A) (A) (A) (A) (A) (A) (A) (A) (A) (A)
                 (A) (A) (A) (A) (A) (A) (A) (A) (A) (A) (A) (A)
                 (A) (A) (A) (A) (A) (A) (A) (A) (A) (A) (A) (A)
                 (A) (A) (A) (A) (A) (A) (A) (A) (A) (A) (A) (A)
                 (A) (A) (A) (A) (A) (A) (A) (A) (A) (A) (A) (A)
                 (A) (A) (A) (A) (A) (A) (A) (A) (A) (A) (A) (A)
                 (A) (A) (A) (A) (A) (A) (A) (A) (A) (A) (A) (A)
                 (A) (A) (A) (A) (A) (A) (A) (A) (A) (A) (A) (A)
                 (A) (A) (A) (A) (A) (A) (A) (A) (A) (A) (A) (A)
                 (A) (A) (A) (A) (A) (A) (A) (A) (A) (A) (A) (A)
                 (A) (A) (A) (A) (A) (A) (A) (A) (A) (A) (A) (A)
                 (A) (A) (A) (A) (A) (A) (A) (A) (A) (A) (A) (A)
                 (A) (A) (A) (A) (A) (A) (A) (A) (A) (A) (A) (A)
                 (A) (A) (A) (A) (A) (A) (A) (A) (A) (A) (A) (A)
                 (A) (A) (A) (A) (A) (A) (A) (A) (A) (A) (A) (A)
                 (A) (A) (A) (A) (A) (A) (A) (A) (A) (A) (A) (A)
                 (A) (A) (A) (A) (A) (A) (A) (A) (A) (A) (A) (A)
                 (A) (A) (A) (A) (A) (A)
 The electronic state is 1-A.
 Alpha  occ. eigenvalues --  -19.21423 -14.47007 -10.39993 -10.33668 -10.28224
 Alpha  occ. eigenvalues --  -10.28070 -10.27600 -10.27333 -10.26579 -10.26372
 Alpha  occ. eigenvalues --   -1.14763  -1.06199  -0.96216  -0.88577  -0.86294
 Alpha  occ. eigenvalues --   -0.84556  -0.74451  -0.73203  -0.69375  -0.65667
 Alpha  occ. eigenvalues --   -0.60925  -0.59123  -0.56358  -0.55141  -0.53860
 Alpha  occ. eigenvalues --   -0.52719  -0.51411  -0.50204  -0.49127  -0.45868
 Alpha  occ. eigenvalues --   -0.44957  -0.44398  -0.38977  -0.34560  -0.33158
 Alpha  occ. eigenvalues --   -0.30728
 Alpha virt. eigenvalues --    0.03326   0.04416   0.04591   0.05261   0.05406
 Alpha virt. eigenvalues --    0.06326   0.07073   0.07331   0.08621   0.09116
 Alpha virt. eigenvalues --    0.10654   0.10965   0.11557   0.12238   0.13426
 Alpha virt. eigenvalues --    0.14145   0.14695   0.15711   0.15795   0.16317
 Alpha virt. eigenvalues --    0.16894   0.17526   0.17800   0.18248   0.18927
 Alpha virt. eigenvalues --    0.19202   0.19656   0.19844   0.20422   0.20915
 Alpha virt. eigenvalues --    0.21284   0.21948   0.22445   0.23434   0.23902
 Alpha virt. eigenvalues --    0.24347   0.25090   0.26076   0.26277   0.26686
 Alpha virt. eigenvalues --    0.26936   0.27942   0.28345   0.29385   0.30191
 Alpha virt. eigenvalues --    0.30555   0.31564   0.32657   0.33466   0.33476
 Alpha virt. eigenvalues --    0.34138   0.34503   0.36679   0.36979   0.37858
 Alpha virt. eigenvalues --    0.38215   0.38658   0.39171   0.39886   0.41670
 Alpha virt. eigenvalues --    0.42235   0.42699   0.44128   0.44761   0.45793
 Alpha virt. eigenvalues --    0.46791   0.47769   0.51111   0.53873   0.54119
 Alpha virt. eigenvalues --    0.58391   0.58626   0.59558   0.62760   0.63693
 Alpha virt. eigenvalues --    0.64476   0.65411   0.66008   0.66647   0.67148
 Alpha virt. eigenvalues --    0.67991   0.69325   0.71177   0.72335   0.73516
 Alpha virt. eigenvalues --    0.74488   0.76126   0.77062   0.77966   0.79305
 Alpha virt. eigenvalues --    0.81593   0.81701   0.83056   0.84081   0.85562
 Alpha virt. eigenvalues --    0.86432   0.88611   0.90464   0.92420   0.93294
 Alpha virt. eigenvalues --    0.94024   0.95586   0.95850   0.97009   0.97210
 Alpha virt. eigenvalues --    0.98202   0.99694   1.01783   1.03163   1.05883
 Alpha virt. eigenvalues --    1.08171   1.09738   1.11141   1.11747   1.13413
 Alpha virt. eigenvalues --    1.16183   1.17770   1.18993   1.22186   1.23170
 Alpha virt. eigenvalues --    1.24241   1.30040   1.34103   1.36545   1.38542
 Alpha virt. eigenvalues --    1.39676   1.43857   1.45179   1.53223   1.54079
 Alpha virt. eigenvalues --    1.57325   1.60838   1.62377   1.63023   1.65765
 Alpha virt. eigenvalues --    1.66820   1.67566   1.67973   1.68467   1.68983
 Alpha virt. eigenvalues --    1.69617   1.71216   1.75659   1.76636   1.79814
 Alpha virt. eigenvalues --    1.81401   1.85611   1.86580   1.89142   1.90105
 Alpha virt. eigenvalues --    1.94131   1.94923   1.96556   1.97476   2.00219
 Alpha virt. eigenvalues --    2.01372   2.02369   2.04648   2.06851   2.07285
 Alpha virt. eigenvalues --    2.09520   2.10347   2.12304   2.13277   2.15942
 Alpha virt. eigenvalues --    2.21380   2.26796   2.28130   2.33660   2.36299
 Alpha virt. eigenvalues --    2.38805   2.42644   2.45122   2.51438   2.52793
 Alpha virt. eigenvalues --    2.53334   2.55856   2.59774   2.60955   2.62047
 Alpha virt. eigenvalues --    2.66150   2.68237   2.69633   2.73642   2.76884
 Alpha virt. eigenvalues --    2.79125   2.81530   2.82105   2.82951   2.85179
 Alpha virt. eigenvalues --    2.87181   2.90728   2.92028   2.93075   2.93599
 Alpha virt. eigenvalues --    2.94881   2.96775   2.97741   2.98689   3.02277
 Alpha virt. eigenvalues --    3.04033   3.04241   3.06703   3.07840   3.14865
 Alpha virt. eigenvalues --    3.20173   3.22547   3.23887   3.27504   3.32762
 Alpha virt. eigenvalues --    3.43068   3.45042   3.45250   3.49345   3.52370
 Alpha virt. eigenvalues --    3.62686   3.68686   3.71739   3.76116   3.92895
 Alpha virt. eigenvalues --    4.00928   4.02341   4.06705   4.12417   4.18037
 Alpha virt. eigenvalues --    4.31161   4.34872   4.39094   4.40321   4.46271
 Alpha virt. eigenvalues --    4.96321   5.18722   5.19839   5.21849   5.39497
 Alpha virt. eigenvalues --    5.91660  23.88594  23.98954  24.14968  24.23319
 Alpha virt. eigenvalues --   24.30374  24.33851  24.38053  24.43277  35.87776
 Alpha virt. eigenvalues --   50.16247
          Condensed to atoms (all electrons):
               1          2          3          4          5          6
     1  C    7.229032   0.143722  -0.048569  -0.133578  -0.133846   0.024956
     2  C    0.143722   7.633436  -1.767170   0.194774   0.569490  -0.279171
     3  C   -0.048569  -1.767170   7.222403   0.204947  -0.058449   0.135662
     4  C   -0.133578   0.194774   0.204947   5.414111  -0.059162  -0.062523
     5  H   -0.133846   0.569490  -0.058449  -0.059162   0.526150   0.000919
     6  N    0.024956  -0.279171   0.135662  -0.062523   0.000919   7.305784
     7  C   -0.797243   0.613819  -0.116474  -0.346127   0.040384   0.043809
     8  H   -0.121279  -0.082720   0.562752   0.014798  -0.002665  -0.010068
     9  C   -0.130691  -0.398491  -0.213223   0.531961  -0.014781   0.059940
    10  H    0.038393  -0.119743   0.029961   0.445622  -0.016493  -0.005174
    11  C   -0.175736  -0.154992   0.060616   0.037086  -0.008525   0.134668
    12  H   -0.037316   0.019349  -0.028271  -0.007637  -0.002739   0.363784
    13  H    0.032218   0.035930  -0.073704  -0.004231   0.001966  -0.005906
    14  H    0.008035  -0.001653  -0.017377  -0.058959  -0.000375   0.002275
    15  C    0.138056   0.019902  -0.192097   0.036742  -0.002528  -0.504392
    16  O   -0.053502  -0.019542   0.026052   0.005719  -0.001286  -0.110898
    17  H   -0.010625  -0.009467   0.009166  -0.000713   0.000089   0.006034
    18  H   -0.010046   0.002659   0.002459  -0.000616   0.000055   0.002955
    19  H    0.016842  -0.010573   0.014972   0.001488   0.001727   0.012498
               7          8          9         10         11         12
     1  C   -0.797243  -0.121279  -0.130691   0.038393  -0.175736  -0.037316
     2  C    0.613819  -0.082720  -0.398491  -0.119743  -0.154992   0.019349
     3  C   -0.116474   0.562752  -0.213223   0.029961   0.060616  -0.028271
     4  C   -0.346127   0.014798   0.531961   0.445622   0.037086  -0.007637
     5  H    0.040384  -0.002665  -0.014781  -0.016493  -0.008525  -0.002739
     6  N    0.043809  -0.010068   0.059940  -0.005174   0.134668   0.363784
     7  C    6.220174  -0.041875   0.638063  -0.032571  -0.218000  -0.000809
     8  H   -0.041875   0.473072   0.032116   0.000680  -0.013527  -0.000266
     9  C    0.638063   0.032116   5.541632  -0.027790  -0.035148   0.005291
    10  H   -0.032571   0.000680  -0.027790   0.492607   0.001970   0.000835
    11  C   -0.218000  -0.013527  -0.035148   0.001970   5.958907   0.031637
    12  H   -0.000809  -0.000266   0.005291   0.000835   0.031637   0.379253
    13  H    0.407671  -0.014259  -0.074529  -0.000918   0.006919   0.000009
    14  H   -0.045481   0.001733   0.467339  -0.009085  -0.003296   0.000093
    15  C   -0.069729  -0.006098  -0.027705   0.001023  -0.215502  -0.026691
    16  O   -0.038425  -0.010793  -0.009754   0.000159   0.482417   0.004989
    17  H   -0.001094  -0.000556  -0.000052  -0.000041  -0.058807  -0.000971
    18  H    0.001612  -0.001731  -0.000017  -0.000005  -0.011544   0.001895
    19  H   -0.001602   0.001219  -0.000033  -0.000078  -0.043347  -0.008848
              13         14         15         16         17         18
     1  C    0.032218   0.008035   0.138056  -0.053502  -0.010625  -0.010046
     2  C    0.035930  -0.001653   0.019902  -0.019542  -0.009467   0.002659
     3  C   -0.073704  -0.017377  -0.192097   0.026052   0.009166   0.002459
     4  C   -0.004231  -0.058959   0.036742   0.005719  -0.000713  -0.000616
     5  H    0.001966  -0.000375  -0.002528  -0.001286   0.000089   0.000055
     6  N   -0.005906   0.002275  -0.504392  -0.110898   0.006034   0.002955
     7  C    0.407671  -0.045481  -0.069729  -0.038425  -0.001094   0.001612
     8  H   -0.014259   0.001733  -0.006098  -0.010793  -0.000556  -0.001731
     9  C   -0.074529   0.467339  -0.027705  -0.009754  -0.000052  -0.000017
    10  H   -0.000918  -0.009085   0.001023   0.000159  -0.000041  -0.000005
    11  C    0.006919  -0.003296  -0.215502   0.482417  -0.058807  -0.011544
    12  H    0.000009   0.000093  -0.026691   0.004989  -0.000971   0.001895
    13  H    0.488708  -0.011546   0.001869   0.001133   0.000030   0.000049
    14  H   -0.011546   0.496916  -0.000855  -0.000200   0.000001  -0.000003
    15  C    0.001869  -0.000855   6.264980  -0.020913   0.435707   0.399832
    16  O    0.001133  -0.000200  -0.020913   8.107120  -0.006986  -0.007789
    17  H    0.000030   0.000001   0.435707  -0.006986   0.499274  -0.029249
    18  H    0.000049  -0.000003   0.399832  -0.007789  -0.029249   0.498102
    19  H   -0.000043   0.000005   0.355491   0.008235  -0.027690  -0.037887
              19
     1  C    0.016842
     2  C   -0.010573
     3  C    0.014972
     4  C    0.001488
     5  H    0.001727
     6  N    0.012498
     7  C   -0.001602
     8  H    0.001219
     9  C   -0.000033
    10  H   -0.000078
    11  C   -0.043347
    12  H   -0.008848
    13  H   -0.000043
    14  H    0.000005
    15  C    0.355491
    16  O    0.008235
    17  H   -0.027690
    18  H   -0.037887
    19  H    0.600751
 Mulliken charges:
               1
     1  C    0.021175
     2  C   -0.389559
     3  C    0.246342
     4  C   -0.213702
     5  H    0.160067
     6  N   -0.115154
     7  C   -0.256101
     8  H    0.219467
     9  C   -0.344128
    10  H    0.200647
    11  C    0.224205
    12  H    0.306412
    13  H    0.208634
    14  H    0.172432
    15  C   -0.587094
    16  O   -0.355736
    17  H    0.195953
    18  H    0.189268
    19  H    0.116872
 Sum of Mulliken charges =  -0.00000
 Mulliken charges with hydrogens summed into heavy atoms:
               1
     1  C    0.021175
     2  C   -0.229491
     3  C    0.465809
     4  C   -0.013055
     6  N    0.191258
     7  C   -0.047467
     9  C   -0.171696
    11  C    0.224205
    15  C   -0.085001
    16  O   -0.355736
 Electronic spatial extent (au):  <R**2>=           1650.9997
 Charge=             -0.0000 electrons
 Dipole moment (field-independent basis, Debye):
    X=              0.2429    Y=             -3.5369    Z=             -1.0541  Tot=              3.6986
 Quadrupole moment (field-independent basis, Debye-Ang):
   XX=            -49.8165   YY=            -55.8736   ZZ=            -61.7868
   XY=             -7.7334   XZ=             -2.5151   YZ=             -1.5078
 Traceless Quadrupole moment (field-independent basis, Debye-Ang):
   XX=              6.0092   YY=             -0.0480   ZZ=             -5.9612
   XY=             -7.7334   XZ=             -2.5151   YZ=             -1.5078
 Octapole moment (field-independent basis, Debye-Ang**2):
  XXX=             18.6814  YYY=             -8.9746  ZZZ=              0.9738  XYY=             -8.2844
  XXY=            -14.3785  XXZ=             -2.1735  XZZ=             12.5160  YZZ=             -0.2500
  YYZ=             -3.7546  XYZ=             -0.1943
 Hexadecapole moment (field-independent basis, Debye-Ang**3):
 XXXX=          -1543.7601 YYYY=           -372.2415 ZZZZ=            -85.6424 XXXY=            -30.0474
 XXXZ=            -12.1880 YYYX=            -20.6224 YYYZ=             -2.8907 ZZZX=              2.4352
 ZZZY=              1.8347 XXYY=           -350.6622 XXZZ=           -314.0828 YYZZ=            -85.4560
 XXYZ=            -10.9349 YYXZ=             -8.9434 ZZXY=             -0.6825
 N-N= 4.935276093017D+02 E-N=-2.013507743048D+03  KE= 4.400426313877D+02
 No NMR shielding tensors so no spin-rotation constants.
 Leave Link  601 at Tue Nov 22 19:12:48 2022, MaxMem= 16106127360 cpu:               3.9 elap:               0.1
 (Enter /opt/ap/G16/B01/g16/l9999.exe)
 1\1\GINC-N35\SP\RwB97XD\6-311++G(d,p)\C8H9N1O1\ROOT\22-Nov-2022\0\\#P 
 wB97XD/6-311++G(d,p) scf=maxcycle=512\\_conf041.gjf nmol_natom 1_19\\0
 ,1\C\C,1,1.39447505\C,1,1.39873503,2,119.56697224\C,2,1.39066123,1,119
 .42697207,3,2.53915756,0\H,2,0.96213008,1,119.8046163,3,-177.79870417,
 0\N,1,1.41693372,2,123.72220125,4,-177.74604849,0\C,3,1.38667133,1,120
 .18759987,2,-2.5020857,0\H,3,0.95673174,1,118.82085988,2,177.96737168,
 0\C,4,1.38268572,2,121.03929493,1,-0.41221113,0\H,4,0.9858595,2,118.57
 91267,1,178.77373233,0\C,6,1.35500692,1,127.62132737,2,-155.,0\H,6,0.8
 9609466,1,115.10511997,2,25.,0\H,7,0.98847198,3,119.08117704,1,-179.64
 585354,0\H,9,0.98451201,4,120.53755637,2,177.22743544,0\C,11,1.5027456
 1,6,115.46861532,1,175.89235465,0\O,11,1.23496495,6,123.15099888,1,-3.
 40672617,0\H,15,0.98719837,11,107.47091875,6,-116.36962839,0\H,15,0.99
 976021,11,109.69443261,6,128.85346087,0\H,15,0.97696155,11,114.3700887
 1,6,6.05302844,0\\Version=ES64L-G16RevB.01\State=1-A\HF=-440.1431849\R
 MSD=3.689e-09\Dipole=-1.0585881,0.5494782,0.8336377\Quadrupole=7.92703
 66,-5.0495221,-2.8775145,-0.1600656,2.395818,-1.8814025\PG=C01 [X(C8H9
 N1O1)]\\@


 ONLY A FOOL KNOWS EVERYTHING.

               -- THE CHEMIST ANALYST, SEPTEMBER 1946
 Job cpu time:       0 days  0 hours 12 minutes 14.4 seconds.
 Elapsed time:       0 days  0 hours  0 minutes 23.3 seconds.
 File lengths (MBytes):  RWF=     46 Int=      0 D2E=      0 Chk=      6 Scr=      1
 Normal termination of Gaussian 16 at Tue Nov 22 19:12:48 2022.
