 Entering Gaussian System, Link 0=g16
 Input=_conf062.gjf
 Output=_conf062.log
 Initial command:
 /opt/ap/G16/B01/g16/l1.exe "/tmp2/scr/Gau-11453.inp" -scrdir="/tmp2/scr/"
 Entering Link 1 = /opt/ap/G16/B01/g16/l1.exe PID=     11454.
  
 Copyright (c) 1988-2017, Gaussian, Inc.  All Rights Reserved.
  
 This is part of the Gaussian(R) 16 program.  It is based on
 the Gaussian(R) 09 system (copyright 2009, Gaussian, Inc.),
 the Gaussian(R) 03 system (copyright 2003, Gaussian, Inc.),
 the Gaussian(R) 98 system (copyright 1998, Gaussian, Inc.),
 the Gaussian(R) 94 system (copyright 1995, Gaussian, Inc.),
 the Gaussian 92(TM) system (copyright 1992, Gaussian, Inc.),
 the Gaussian 90(TM) system (copyright 1990, Gaussian, Inc.),
 the Gaussian 88(TM) system (copyright 1988, Gaussian, Inc.),
 the Gaussian 86(TM) system (copyright 1986, Carnegie Mellon
 University), and the Gaussian 82(TM) system (copyright 1983,
 Carnegie Mellon University). Gaussian is a federally registered
 trademark of Gaussian, Inc.
  
 This software contains proprietary and confidential information,
 including trade secrets, belonging to Gaussian, Inc.
  
 This software is provided under written license and may be
 used, copied, transmitted, or stored only in accord with that
 written license.
  
 The following legend is applicable only to US Government
 contracts under FAR:
  
                    RESTRICTED RIGHTS LEGEND
  
 Use, reproduction and disclosure by the US Government is
 subject to restrictions as set forth in subparagraphs (a)
 and (c) of the Commercial Computer Software - Restricted
 Rights clause in FAR 52.227-19.
  
 Gaussian, Inc.
 340 Quinnipiac St., Bldg. 40, Wallingford CT 06492
  
  
 ---------------------------------------------------------------
 Warning -- This program may not be used in any manner that
 competes with the business of Gaussian, Inc. or will provide
 assistance to any competitor of Gaussian, Inc.  The licensee
 of this program is prohibited from giving any competitor of
 Gaussian, Inc. access to this program.  By using this program,
 the user acknowledges that Gaussian, Inc. is engaged in the
 business of creating and licensing software in the field of
 computational chemistry and represents and warrants to the
 licensee that it is not a competitor of Gaussian, Inc. and that
 it will not use this program in any manner prohibited above.
 ---------------------------------------------------------------
  

 Cite this work as:
 Gaussian 16, Revision B.01,
 M. J. Frisch, G. W. Trucks, H. B. Schlegel, G. E. Scuseria, 
 M. A. Robb, J. R. Cheeseman, G. Scalmani, V. Barone, 
 G. A. Petersson, H. Nakatsuji, X. Li, M. Caricato, A. V. Marenich, 
 J. Bloino, B. G. Janesko, R. Gomperts, B. Mennucci, H. P. Hratchian, 
 J. V. Ortiz, A. F. Izmaylov, J. L. Sonnenberg, D. Williams-Young, 
 F. Ding, F. Lipparini, F. Egidi, J. Goings, B. Peng, A. Petrone, 
 T. Henderson, D. Ranasinghe, V. G. Zakrzewski, J. Gao, N. Rega, 
 G. Zheng, W. Liang, M. Hada, M. Ehara, K. Toyota, R. Fukuda, 
 J. Hasegawa, M. Ishida, T. Nakajima, Y. Honda, O. Kitao, H. Nakai, 
 T. Vreven, K. Throssell, J. A. Montgomery, Jr., J. E. Peralta, 
 F. Ogliaro, M. J. Bearpark, J. J. Heyd, E. N. Brothers, K. N. Kudin, 
 V. N. Staroverov, T. A. Keith, R. Kobayashi, J. Normand, 
 K. Raghavachari, A. P. Rendell, J. C. Burant, S. S. Iyengar, 
 J. Tomasi, M. Cossi, J. M. Millam, M. Klene, C. Adamo, R. Cammi, 
 J. W. Ochterski, R. L. Martin, K. Morokuma, O. Farkas, 
 J. B. Foresman, and D. J. Fox, Gaussian, Inc., Wallingford CT, 2016.
 
 ******************************************
 Gaussian 16:  ES64L-G16RevB.01 20-Dec-2017
                22-Nov-2022 
 ******************************************
 %nprocshared=32
 Will use up to   32 processors via shared memory.
 %mem=120GB
 %chk=_conf062.chk
 ----------------------------------------
 #P wB97XD/6-311++G(d,p) scf=maxcycle=512
 ----------------------------------------
 1/38=1,172=1/1;
 2/12=2,17=6,18=5,40=1/2;
 3/5=4,6=6,7=1111,11=2,25=1,30=1,74=-58/1,2,3;
 4//1;
 5/5=2,7=512,38=5/2;
 6/7=2,8=2,9=2,10=2,28=1/1;
 99/5=1,9=1/99;
 Leave Link    1 at Tue Nov 22 19:14:15 2022, MaxMem= 16106127360 cpu:               2.0 elap:               0.1
 (Enter /opt/ap/G16/B01/g16/l101.exe)
 ----------------------------
 _conf062.gjf nmol_natom 1_19
 ----------------------------
 Symbolic Z-matrix:
 Charge =  0 Multiplicity = 1
 C
 C                    1     1.39448 
 C                    1     1.39874  2     119.56697 
 C                    2     1.39066  1     119.42697  3     2.53916  0
 H                    2     0.96213  1     119.80462  3    -177.7987  0
 N                    1     1.41693  2     123.7222  4    -177.74605  0
 C                    3     1.38667  1     120.1876  2    -2.50209  0
 H                    3     0.95673  1     118.82086  2     177.96737  0
 C                    4     1.38269  2     121.03929  1    -0.41221  0
 H                    4     0.98586  2     118.57913  1     178.77373  0
 C                    6     1.35501  1     127.62133  2    -50.      0
 H                    6     0.89609  1     115.10512  2     130.     0
 H                    7     0.98847  3     119.08118  1    -179.64585  0
 H                    9     0.98451  4     120.53756  2     177.22744  0
 C                    11    1.50275  6     115.46862  1     175.89235  0
 O                    11    1.23496  6     123.151  1    -3.40673  0
 H                    15    0.9872   11    107.47092  6    -116.36963  0
 H                    15    0.99976  11    109.69443  6     128.85346  0
 H                    15    0.97696  11    114.37009  6     6.05303  0
 
 ITRead=  0  0  0  0  0  0  0  0  0  0  0  0  0  0  0  0  0  0  0
 MicOpt= -1 -1 -1 -1 -1 -1 -1 -1 -1 -1 -1 -1 -1 -1 -1 -1 -1 -1 -1
 NAtoms=     19 NQM=       19 NQMF=       0 NMMI=      0 NMMIF=      0
                NMic=       0 NMicF=      0.
                    Isotopes and Nuclear Properties:
 (Nuclear quadrupole moments (NQMom) in fm**2, nuclear magnetic moments (NMagM)
  in nuclear magnetons)

  Atom         1           2           3           4           5           6           7           8           9          10
 IAtWgt=          12          12          12          12           1          14          12           1          12           1
 AtmWgt=  12.0000000  12.0000000  12.0000000  12.0000000   1.0078250  14.0030740  12.0000000   1.0078250  12.0000000   1.0078250
 NucSpn=           0           0           0           0           1           2           0           1           0           1
 AtZEff=  -0.0000000  -0.0000000  -0.0000000  -0.0000000  -0.0000000  -0.0000000  -0.0000000  -0.0000000  -0.0000000  -0.0000000
 NQMom=    0.0000000   0.0000000   0.0000000   0.0000000   0.0000000   2.0440000   0.0000000   0.0000000   0.0000000   0.0000000
 NMagM=    0.0000000   0.0000000   0.0000000   0.0000000   2.7928460   0.4037610   0.0000000   2.7928460   0.0000000   2.7928460
 AtZNuc=   6.0000000   6.0000000   6.0000000   6.0000000   1.0000000   7.0000000   6.0000000   1.0000000   6.0000000   1.0000000

  Atom        11          12          13          14          15          16          17          18          19
 IAtWgt=          12           1           1           1          12          16           1           1           1
 AtmWgt=  12.0000000   1.0078250   1.0078250   1.0078250  12.0000000  15.9949146   1.0078250   1.0078250   1.0078250
 NucSpn=           0           1           1           1           0           0           1           1           1
 AtZEff=  -0.0000000  -0.0000000  -0.0000000  -0.0000000  -0.0000000  -0.0000000  -0.0000000  -0.0000000  -0.0000000
 NQMom=    0.0000000   0.0000000   0.0000000   0.0000000   0.0000000   0.0000000   0.0000000   0.0000000   0.0000000
 NMagM=    0.0000000   2.7928460   2.7928460   2.7928460   0.0000000   0.0000000   2.7928460   2.7928460   2.7928460
 AtZNuc=   6.0000000   1.0000000   1.0000000   1.0000000   6.0000000   8.0000000   1.0000000   1.0000000   1.0000000
 Leave Link  101 at Tue Nov 22 19:14:15 2022, MaxMem= 16106127360 cpu:               5.4 elap:               0.2
 (Enter /opt/ap/G16/B01/g16/l202.exe)
                          Input orientation:                          
 ---------------------------------------------------------------------
 Center     Atomic      Atomic             Coordinates (Angstroms)
 Number     Number       Type             X           Y           Z
 ---------------------------------------------------------------------
      1          6           0        0.000000    0.000000    0.000000
      2          6           0        0.000000    0.000000    1.394475
      3          6           0        1.216591    0.000000   -0.690193
      4          6           0        1.210053    0.053661    2.077726
      5          1           0       -0.834249   -0.032067    1.872696
      6          7           0       -1.178505   -0.005866   -0.786634
      7          6           0        2.413939    0.052326    0.007287
      8          1           0        1.204393   -0.029731   -1.646384
      9          6           0        2.412261    0.098442    1.396177
     10          1           0        1.194755    0.071528    3.063305
     11          6           0       -2.245366   -0.833345   -0.672048
     12          1           0       -1.208255    0.615593   -1.431528
     13          1           0        3.263999    0.056828   -0.497149
     14          1           0        3.262484    0.177260    1.886251
     15          6           0       -3.395643   -0.535887   -1.592170
     16          8           0       -2.293252   -1.765499    0.136614
     17          1           0       -4.168550   -0.288566   -1.030024
     18          1           0       -3.663221   -1.368262   -2.077016
     19          1           0       -3.217966    0.169100   -2.244763
 ---------------------------------------------------------------------
                    Distance matrix (angstroms):
                    1          2          3          4          5
     1  C    0.000000
     2  C    1.394475   0.000000
     3  C    1.398735   2.413697   0.000000
     4  C    2.405006   1.390661   2.768447   0.000000
     5  H    2.050363   0.962130   3.282586   2.056345   0.000000
     6  N    1.416934   2.479142   2.397044   3.730055   2.681648
     7  C    2.414517   2.784624   1.386671   2.395008   3.746678
     8  H    2.040105   3.270821   0.956732   3.725048   4.066939
     9  C    2.788908   2.414270   2.406711   1.382686   3.283889
    10  H    3.288829   2.053668   3.754243   0.985860   2.354812
    11  C    2.487525   3.163329   3.560890   4.504215   3.018115
    12  H    1.971829   3.134507   2.609294   4.298703   3.387808
    13  H    3.302132   3.772951   2.057273   3.293734   4.734944
    14  H    3.772687   3.304099   3.294718   2.065046   4.102100
    15  C    3.788479   4.553857   4.730058   5.918458   4.338188
    16  O    2.897353   3.155662   4.014921   4.398909   2.854375
    17  H    4.303607   4.830970   5.403564   6.221302   4.428221
    18  H    4.427790   5.229013   5.254330   6.559919   5.038722
    19  H    3.927195   4.860859   4.702189   6.189070   4.761937
                    6          7          8          9         10
     6  N    0.000000
     7  C    3.679585   0.000000
     8  H    2.533365   2.050454   0.000000
     9  C    4.203468   1.389657   3.276058   0.000000
    10  H    4.523316   3.290292   4.710788   2.064548   0.000000
    11  C    1.355007   4.791141   3.673686   5.180663   5.158109
    12  H    0.896095   3.937988   2.506687   4.622933   5.125817
    13  H    4.452366   0.988472   2.360129   2.076505   4.118108
    14  H    5.186544   2.065465   4.093666   0.984512   2.381625
    15  C    2.417750   6.054379   4.628117   6.562343   6.566138
    16  O    2.278455   5.047659   4.292493   5.215614   4.909825
    17  H    3.013226   6.672435   5.414371   7.024479   6.756483
    18  H    3.113683   6.579837   5.066633   7.150229   7.217744
    19  H    2.513196   6.066607   4.467085   6.705289   6.903421
                   11         12         13         14         15
    11  C    0.000000
    12  H    1.936964   0.000000
    13  H    5.583556   4.602862   0.000000
    14  H    6.156511   5.584560   2.386441   0.000000
    15  C    1.502746   2.477172   6.775044   7.545771   0.000000
    16  O    1.234965   3.050555   5.882649   6.140175   2.390796
    17  H    2.030657   3.121227   7.459627   7.996370   0.987198
    18  H    2.066491   3.221675   7.246601   8.127823   0.999760
    19  H    2.103397   2.213514   6.714360   7.685153   0.976962
                   16         17         18         19
    16  O    0.000000
    17  H    2.656900   0.000000
    18  H    2.633395   1.586598   0.000000
    19  H    3.204485   1.608931   1.609308   0.000000
 Stoichiometry    C8H9NO
 Framework group  C1[X(C8H9NO)]
 Deg. of freedom    51
 Full point group                 C1      NOp   1
 Largest Abelian subgroup         C1      NOp   1
 Largest concise Abelian subgroup C1      NOp   1
                         Standard orientation:                         
 ---------------------------------------------------------------------
 Center     Atomic      Atomic             Coordinates (Angstroms)
 Number     Number       Type             X           Y           Z
 ---------------------------------------------------------------------
      1          6           0        0.290721   -0.232326   -0.208999
      2          6           0        0.826341    1.038935   -0.412879
      3          6           0        1.129517   -1.279356    0.186740
      4          6           0        2.195907    1.234125   -0.270996
      5          1           0        0.247579    1.768652   -0.654213
      6          7           0       -1.081769   -0.543389   -0.373961
      7          6           0        2.492791   -1.066531    0.324744
      8          1           0        0.746098   -2.140160    0.352100
      9          6           0        3.032617    0.189805    0.077044
     10          1           0        2.563639    2.133839   -0.435936
     11          6           0       -2.147058    0.114273    0.144386
     12          1           0       -1.250376   -1.261375   -0.882933
     13          1           0        3.071125   -1.819353    0.600181
     14          1           0        4.005778    0.326786    0.135840
     15          6           0       -3.493426   -0.396651   -0.285141
     16          8           0       -2.039033    1.078358    0.908591
     17          1           0       -3.936597    0.325438   -0.791845
     18          1           0       -4.064547   -0.558855    0.519241
     19          1           0       -3.462517   -1.211751   -0.822831
 ---------------------------------------------------------------------
 Rotational constants (GHZ):           3.7559012           0.7705317           0.6824377
 Leave Link  202 at Tue Nov 22 19:14:15 2022, MaxMem= 16106127360 cpu:               1.6 elap:               0.1
 (Enter /opt/ap/G16/B01/g16/l301.exe)
 Standard basis: 6-311++G(d,p) (5D, 7F)
 Ernie: Thresh=  0.10000D-02 Tol=  0.10000D-05 Strict=F.
 There are   293 symmetry adapted cartesian basis functions of A   symmetry.
 There are   283 symmetry adapted basis functions of A   symmetry.
   283 basis functions,   441 primitive gaussians,   293 cartesian basis functions
    36 alpha electrons       36 beta electrons
       nuclear repulsion energy       490.8584995853 Hartrees.
 IExCor= 4639 DFT=T Ex+Corr=wB97XD ExCW=0 ScaHFX=  1.000000
 ScaDFX=  1.000000  1.000000  1.000000  1.000000 ScalE2=  1.000000  1.000000
 IRadAn=      5 IRanWt=     -1 IRanGd=            0 ICorTp=0 IEmpDi=121
 HFx  wShort=  0.000000 wLong=  0.200000 cFull=  0.222036 cShort=  0.000000 cLong=  0.777964
 DFx  wShort=  0.000000 wLong=  0.200000 cFull=  0.000000 cShort=  0.000000 cLong=  1.000000
 NAtoms=   19 NActive=   19 NUniq=   19 SFac= 1.00D+00 NAtFMM=   60 NAOKFM=F Big=F
 Integral buffers will be    131072 words long.
 Raffenetti 2 integral format.
 Two-electron integral symmetry is turned on.
 R6Disp:  Grimme-D2 Dispersion energy=       -0.0091927048 Hartrees.
 Nuclear repulsion after empirical dispersion term =      490.8493068805 Hartrees.
 Leave Link  301 at Tue Nov 22 19:14:15 2022, MaxMem= 16106127360 cpu:               1.2 elap:               0.0
 (Enter /opt/ap/G16/B01/g16/l302.exe)
 NPDir=0 NMtPBC=     1 NCelOv=     1 NCel=       1 NClECP=     1 NCelD=      1
         NCelK=      1 NCelE2=     1 NClLst=     1 CellRange=     0.0.
 One-electron integrals computed using PRISM.
 One-electron integral symmetry used in STVInt
 NBasis=   283 RedAO= T EigKep=  3.47D-06  NBF=   283
 NBsUse=   282 1.00D-06 EigRej=  9.30D-07 NBFU=   282
 Precomputing XC quadrature grid using
 IXCGrd= 4 IRadAn=           5 IRanWt=          -1 IRanGd=           0 AccXCQ= 0.00D+00.
 Generated NRdTot=       0 NPtTot=           0 NUsed=           0 NTot=          32
 NSgBfM=   293   293   293   293   293 MxSgAt=    19 MxSgA2=    19.
 Leave Link  302 at Tue Nov 22 19:14:15 2022, MaxMem= 16106127360 cpu:               6.3 elap:               0.2
 (Enter /opt/ap/G16/B01/g16/l303.exe)
 DipDrv:  MaxL=1.
 Leave Link  303 at Tue Nov 22 19:14:15 2022, MaxMem= 16106127360 cpu:               1.3 elap:               0.0
 (Enter /opt/ap/G16/B01/g16/l401.exe)
 ExpMin= 3.60D-02 ExpMax= 8.59D+03 ExpMxC= 1.30D+03 IAcc=3 IRadAn=         5 AccDes= 0.00D+00
 Harris functional with IExCor= 4639 and IRadAn=       5 diagonalized for initial guess.
 HarFok:  IExCor= 4639 AccDes= 0.00D+00 IRadAn=         5 IDoV= 1 UseB2=F ITyADJ=14
 ICtDFT=  3500011 ScaDFX=  1.000000  1.000000  1.000000  1.000000
 FoFCou: FMM=F IPFlag=           0 FMFlag=      100000 FMFlg1=           0
         NFxFlg=           0 DoJE=T BraDBF=F KetDBF=T FulRan=T
         wScrn=  0.000000 ICntrl=       500 IOpCl=  0 I1Cent=   200000004 NGrid=           0
         NMat0=    1 NMatS0=      1 NMatT0=    0 NMatD0=    1 NMtDS0=    0 NMtDT0=    0
 Petite list used in FoFCou.
 Harris En= -420.984546444677    
 JPrj=0 DoOrth=F DoCkMO=F.
 Leave Link  401 at Tue Nov 22 19:14:16 2022, MaxMem= 16106127360 cpu:              15.2 elap:               0.5
 (Enter /opt/ap/G16/B01/g16/l502.exe)
 Integral symmetry usage will be decided dynamically.
 Closed shell SCF:
 Using DIIS extrapolation, IDIIS=  1040.
 NGot= 16106127360 LenX= 16105943385 LenY= 16105857095
 Requested convergence on RMS density matrix=1.00D-08 within 512 cycles.
 Requested convergence on MAX density matrix=1.00D-06.
 Requested convergence on             energy=1.00D-06.
 No special actions if energy rises.
 Fock matrices will be formed incrementally for  20 cycles.

 Cycle   1  Pass 1  IDiag  1:
 FoFJK:  IHMeth= 1 ICntrl=       0 DoSepK=T KAlg= 0 I1Cent=           0 FoldK=F
 IRaf=         1 NMat=       1 IRICut=       1 DoRegI=T DoRafI=F ISym2E= 0 IDoP0=0 IntGTp=1.
 FoFCou: FMM=F IPFlag=           0 FMFlag=      100000 FMFlg1=           0
         NFxFlg=           0 DoJE=T BraDBF=F KetDBF=F FulRan=T
         wScrn=  0.000000 ICntrl=       500 IOpCl=  0 I1Cent=           0 NGrid=           0
         NMat0=    1 NMatS0=      1 NMatT0=    0 NMatD0=    1 NMtDS0=    0 NMtDT0=    0
 Symmetry not used in FoFCou.
 E= -439.994580400986    
 DIIS: error= 5.81D-02 at cycle   1 NSaved=   1.
 NSaved= 1 IEnMin= 1 EnMin= -439.994580400986     IErMin= 1 ErrMin= 5.81D-02
 ErrMax= 5.81D-02  0.00D+00 EMaxC= 1.00D-01 BMatC= 9.39D-01 BMatP= 9.39D-01
 IDIUse=3 WtCom= 4.19D-01 WtEn= 5.81D-01
 Coeff-Com:  0.100D+01
 Coeff-En:   0.100D+01
 Coeff:      0.100D+01
 Gap=     0.456 Goal=   None    Shift=    0.000
 GapD=    0.456 DampG=2.000 DampE=0.500 DampFc=1.0000 IDamp=-1.
 RMSDP=6.17D-03 MaxDP=2.84D-01              OVMax= 1.39D-01

 Cycle   2  Pass 1  IDiag  1:
 RMSU=  5.18D-03    CP:  8.38D-01
 E= -440.075006043450     Delta-E=       -0.080425642464 Rises=F Damp=F
 DIIS: error= 1.41D-02 at cycle   2 NSaved=   2.
 NSaved= 2 IEnMin= 2 EnMin= -440.075006043450     IErMin= 2 ErrMin= 1.41D-02
 ErrMax= 1.41D-02  0.00D+00 EMaxC= 1.00D-01 BMatC= 7.78D-02 BMatP= 9.39D-01
 IDIUse=3 WtCom= 8.59D-01 WtEn= 1.41D-01
 Coeff-Com:  0.152D+00 0.848D+00
 Coeff-En:   0.207D+00 0.793D+00
 Coeff:      0.160D+00 0.840D+00
 Gap=     0.449 Goal=   None    Shift=    0.000
 RMSDP=4.96D-03 MaxDP=3.22D-01 DE=-8.04D-02 OVMax= 1.06D-01

 Cycle   3  Pass 1  IDiag  1:
 RMSU=  4.11D-03    CP:  7.21D-01  7.45D-01
 E= -440.106687494586     Delta-E=       -0.031681451136 Rises=F Damp=F
 DIIS: error= 9.96D-03 at cycle   3 NSaved=   3.
 NSaved= 3 IEnMin= 3 EnMin= -440.106687494586     IErMin= 3 ErrMin= 9.96D-03
 ErrMax= 9.96D-03  0.00D+00 EMaxC= 1.00D-01 BMatC= 3.99D-02 BMatP= 7.78D-02
 IDIUse=3 WtCom= 9.00D-01 WtEn= 9.96D-02
 Coeff-Com:  0.263D-01 0.421D+00 0.552D+00
 Coeff-En:   0.000D+00 0.345D+00 0.655D+00
 Coeff:      0.237D-01 0.414D+00 0.563D+00
 Gap=     0.377 Goal=   None    Shift=    0.000
 RMSDP=1.79D-03 MaxDP=7.09D-02 DE=-3.17D-02 OVMax= 6.63D-02

 Cycle   4  Pass 1  IDiag  1:
 RMSU=  9.37D-04    CP:  7.37D-01  8.29D-01  6.53D-01
 E= -440.142014699858     Delta-E=       -0.035327205272 Rises=F Damp=F
 DIIS: error= 2.29D-03 at cycle   4 NSaved=   4.
 NSaved= 4 IEnMin= 4 EnMin= -440.142014699858     IErMin= 4 ErrMin= 2.29D-03
 ErrMax= 2.29D-03  0.00D+00 EMaxC= 1.00D-01 BMatC= 1.57D-03 BMatP= 3.99D-02
 IDIUse=3 WtCom= 9.77D-01 WtEn= 2.29D-02
 Coeff-Com:  0.964D-02 0.194D+00 0.294D+00 0.502D+00
 Coeff-En:   0.000D+00 0.000D+00 0.000D+00 0.100D+01
 Coeff:      0.942D-02 0.190D+00 0.287D+00 0.514D+00
 Gap=     0.351 Goal=   None    Shift=    0.000
 RMSDP=2.71D-04 MaxDP=9.23D-03 DE=-3.53D-02 OVMax= 9.96D-03

 Cycle   5  Pass 1  IDiag  1:
 RMSU=  1.93D-04    CP:  7.33D-01  8.32D-01  6.74D-01  8.38D-01
 E= -440.143230604474     Delta-E=       -0.001215904617 Rises=F Damp=F
 DIIS: error= 4.58D-04 at cycle   5 NSaved=   5.
 NSaved= 5 IEnMin= 5 EnMin= -440.143230604474     IErMin= 5 ErrMin= 4.58D-04
 ErrMax= 4.58D-04  0.00D+00 EMaxC= 1.00D-01 BMatC= 6.01D-05 BMatP= 1.57D-03
 IDIUse=3 WtCom= 9.95D-01 WtEn= 4.58D-03
 Coeff-Com:  0.109D-02 0.243D-01 0.474D-01 0.178D+00 0.749D+00
 Coeff-En:   0.000D+00 0.000D+00 0.000D+00 0.000D+00 0.100D+01
 Coeff:      0.108D-02 0.242D-01 0.472D-01 0.177D+00 0.750D+00
 Gap=     0.351 Goal=   None    Shift=    0.000
 RMSDP=1.19D-04 MaxDP=4.57D-03 DE=-1.22D-03 OVMax= 2.63D-03

 Cycle   6  Pass 1  IDiag  1:
 RMSU=  9.18D-05    CP:  7.33D-01  8.36D-01  6.91D-01  8.59D-01  9.54D-01
 E= -440.143270834877     Delta-E=       -0.000040230402 Rises=F Damp=F
 DIIS: error= 2.99D-04 at cycle   6 NSaved=   6.
 NSaved= 6 IEnMin= 6 EnMin= -440.143270834877     IErMin= 6 ErrMin= 2.99D-04
 ErrMax= 2.99D-04  0.00D+00 EMaxC= 1.00D-01 BMatC= 1.77D-05 BMatP= 6.01D-05
 IDIUse=3 WtCom= 9.97D-01 WtEn= 2.99D-03
 Coeff-Com: -0.108D-02-0.190D-01-0.214D-01 0.101D-01 0.403D+00 0.628D+00
 Coeff-En:   0.000D+00 0.000D+00 0.000D+00 0.000D+00 0.508D-01 0.949D+00
 Coeff:     -0.107D-02-0.190D-01-0.213D-01 0.101D-01 0.402D+00 0.629D+00
 Gap=     0.351 Goal=   None    Shift=    0.000
 RMSDP=4.43D-05 MaxDP=1.53D-03 DE=-4.02D-05 OVMax= 1.35D-03

 Cycle   7  Pass 1  IDiag  1:
 RMSU=  2.40D-05    CP:  7.32D-01  8.35D-01  6.94D-01  8.78D-01  1.05D+00
                    CP:  1.10D+00
 E= -440.143285968119     Delta-E=       -0.000015133243 Rises=F Damp=F
 DIIS: error= 8.40D-05 at cycle   7 NSaved=   7.
 NSaved= 7 IEnMin= 7 EnMin= -440.143285968119     IErMin= 7 ErrMin= 8.40D-05
 ErrMax= 8.40D-05  0.00D+00 EMaxC= 1.00D-01 BMatC= 4.53D-07 BMatP= 1.77D-05
 IDIUse=1 WtCom= 1.00D+00 WtEn= 0.00D+00
 Coeff-Com: -0.299D-03-0.569D-02-0.671D-02-0.120D-01 0.243D-01 0.112D+00
 Coeff-Com:  0.889D+00
 Coeff:     -0.299D-03-0.569D-02-0.671D-02-0.120D-01 0.243D-01 0.112D+00
 Coeff:      0.889D+00
 Gap=     0.351 Goal=   None    Shift=    0.000
 RMSDP=1.61D-05 MaxDP=3.91D-04 DE=-1.51D-05 OVMax= 4.42D-04

 Cycle   8  Pass 1  IDiag  1:
 RMSU=  6.86D-06    CP:  7.31D-01  8.34D-01  6.96D-01  8.82D-01  1.09D+00
                    CP:  1.18D+00  1.11D+00
 E= -440.143286900383     Delta-E=       -0.000000932264 Rises=F Damp=F
 DIIS: error= 1.71D-05 at cycle   8 NSaved=   8.
 NSaved= 8 IEnMin= 8 EnMin= -440.143286900383     IErMin= 8 ErrMin= 1.71D-05
 ErrMax= 1.71D-05  0.00D+00 EMaxC= 1.00D-01 BMatC= 9.11D-08 BMatP= 4.53D-07
 IDIUse=1 WtCom= 1.00D+00 WtEn= 0.00D+00
 Coeff-Com:  0.628D-04 0.809D-03 0.104D-02-0.645D-02-0.564D-01-0.657D-01
 Coeff-Com:  0.281D+00 0.846D+00
 Coeff:      0.628D-04 0.809D-03 0.104D-02-0.645D-02-0.564D-01-0.657D-01
 Coeff:      0.281D+00 0.846D+00
 Gap=     0.351 Goal=   None    Shift=    0.000
 RMSDP=6.56D-06 MaxDP=1.92D-04 DE=-9.32D-07 OVMax= 2.99D-04

 Cycle   9  Pass 1  IDiag  1:
 RMSU=  2.62D-06    CP:  7.31D-01  8.34D-01  6.97D-01  8.83D-01  1.10D+00
                    CP:  1.21D+00  1.21D+00  1.17D+00
 E= -440.143287072551     Delta-E=       -0.000000172168 Rises=F Damp=F
 DIIS: error= 1.36D-05 at cycle   9 NSaved=   9.
 NSaved= 9 IEnMin= 9 EnMin= -440.143287072551     IErMin= 9 ErrMin= 1.36D-05
 ErrMax= 1.36D-05  0.00D+00 EMaxC= 1.00D-01 BMatC= 8.05D-09 BMatP= 9.11D-08
 IDIUse=1 WtCom= 1.00D+00 WtEn= 0.00D+00
 Coeff-Com:  0.496D-04 0.851D-03 0.113D-02-0.589D-03-0.185D-01-0.300D-01
 Coeff-Com:  0.157D-03 0.242D+00 0.805D+00
 Coeff:      0.496D-04 0.851D-03 0.113D-02-0.589D-03-0.185D-01-0.300D-01
 Coeff:      0.157D-03 0.242D+00 0.805D+00
 Gap=     0.351 Goal=   None    Shift=    0.000
 RMSDP=1.79D-06 MaxDP=5.75D-05 DE=-1.72D-07 OVMax= 6.68D-05

 Cycle  10  Pass 1  IDiag  1:
 RMSU=  9.10D-07    CP:  7.31D-01  8.34D-01  6.97D-01  8.82D-01  1.10D+00
                    CP:  1.21D+00  1.22D+00  1.21D+00  1.30D+00
 E= -440.143287088676     Delta-E=       -0.000000016125 Rises=F Damp=F
 DIIS: error= 1.76D-06 at cycle  10 NSaved=  10.
 NSaved=10 IEnMin=10 EnMin= -440.143287088676     IErMin=10 ErrMin= 1.76D-06
 ErrMax= 1.76D-06  0.00D+00 EMaxC= 1.00D-01 BMatC= 1.20D-09 BMatP= 8.05D-09
 IDIUse=1 WtCom= 1.00D+00 WtEn= 0.00D+00
 Coeff-Com:  0.447D-05 0.130D-03 0.199D-03 0.760D-03 0.318D-02 0.117D-02
 Coeff-Com: -0.378D-01-0.723D-01 0.215D+00 0.889D+00
 Coeff:      0.447D-05 0.130D-03 0.199D-03 0.760D-03 0.318D-02 0.117D-02
 Coeff:     -0.378D-01-0.723D-01 0.215D+00 0.889D+00
 Gap=     0.351 Goal=   None    Shift=    0.000
 RMSDP=7.19D-07 MaxDP=4.57D-05 DE=-1.61D-08 OVMax= 3.93D-05

 Cycle  11  Pass 1  IDiag  1:
 RMSU=  3.66D-07    CP:  7.31D-01  8.34D-01  6.97D-01  8.81D-01  1.10D+00
                    CP:  1.21D+00  1.22D+00  1.24D+00  1.47D+00  1.17D+00
 E= -440.143287091384     Delta-E=       -0.000000002708 Rises=F Damp=F
 DIIS: error= 1.21D-06 at cycle  11 NSaved=  11.
 NSaved=11 IEnMin=11 EnMin= -440.143287091384     IErMin=11 ErrMin= 1.21D-06
 ErrMax= 1.21D-06  0.00D+00 EMaxC= 1.00D-01 BMatC= 1.20D-10 BMatP= 1.20D-09
 IDIUse=1 WtCom= 1.00D+00 WtEn= 0.00D+00
 Coeff-Com: -0.383D-05-0.577D-04-0.634D-04 0.296D-03 0.296D-02 0.364D-02
 Coeff-Com: -0.911D-02-0.494D-01-0.387D-01 0.215D+00 0.875D+00
 Coeff:     -0.383D-05-0.577D-04-0.634D-04 0.296D-03 0.296D-02 0.364D-02
 Coeff:     -0.911D-02-0.494D-01-0.387D-01 0.215D+00 0.875D+00
 Gap=     0.351 Goal=   None    Shift=    0.000
 RMSDP=2.43D-07 MaxDP=1.47D-05 DE=-2.71D-09 OVMax= 9.44D-06

 Cycle  12  Pass 1  IDiag  1:
 RMSU=  9.64D-08    CP:  7.31D-01  8.34D-01  6.97D-01  8.81D-01  1.10D+00
                    CP:  1.21D+00  1.22D+00  1.24D+00  1.51D+00  1.27D+00
                    CP:  1.31D+00
 E= -440.143287091665     Delta-E=       -0.000000000281 Rises=F Damp=F
 DIIS: error= 2.08D-07 at cycle  12 NSaved=  12.
 NSaved=12 IEnMin=12 EnMin= -440.143287091665     IErMin=12 ErrMin= 2.08D-07
 ErrMax= 2.08D-07  0.00D+00 EMaxC= 1.00D-01 BMatC= 1.06D-11 BMatP= 1.20D-10
 IDIUse=1 WtCom= 1.00D+00 WtEn= 0.00D+00
 Coeff-Com: -0.918D-06-0.216D-04-0.295D-04-0.273D-04-0.826D-04 0.284D-03
 Coeff-Com:  0.337D-02 0.186D-02-0.256D-01-0.624D-01 0.116D+00 0.967D+00
 Coeff:     -0.918D-06-0.216D-04-0.295D-04-0.273D-04-0.826D-04 0.284D-03
 Coeff:      0.337D-02 0.186D-02-0.256D-01-0.624D-01 0.116D+00 0.967D+00
 Gap=     0.351 Goal=   None    Shift=    0.000
 RMSDP=9.54D-08 MaxDP=3.20D-06 DE=-2.81D-10 OVMax= 3.44D-06

 Cycle  13  Pass 1  IDiag  1:
 RMSU=  3.40D-08    CP:  7.31D-01  8.34D-01  6.97D-01  8.81D-01  1.10D+00
                    CP:  1.21D+00  1.22D+00  1.23D+00  1.51D+00  1.30D+00
                    CP:  1.44D+00  1.27D+00
 E= -440.143287091690     Delta-E=       -0.000000000025 Rises=F Damp=F
 DIIS: error= 6.69D-08 at cycle  13 NSaved=  13.
 NSaved=13 IEnMin=13 EnMin= -440.143287091690     IErMin=13 ErrMin= 6.69D-08
 ErrMax= 6.69D-08  0.00D+00 EMaxC= 1.00D-01 BMatC= 2.00D-12 BMatP= 1.06D-11
 IDIUse=1 WtCom= 1.00D+00 WtEn= 0.00D+00
 Coeff-Com:  0.909D-07-0.451D-06-0.235D-05-0.351D-04-0.371D-03-0.300D-03
 Coeff-Com:  0.206D-02 0.601D-02-0.409D-02-0.443D-01-0.716D-01 0.301D+00
 Coeff-Com:  0.812D+00
 Coeff:      0.909D-07-0.451D-06-0.235D-05-0.351D-04-0.371D-03-0.300D-03
 Coeff:      0.206D-02 0.601D-02-0.409D-02-0.443D-01-0.716D-01 0.301D+00
 Coeff:      0.812D+00
 Gap=     0.351 Goal=   None    Shift=    0.000
 RMSDP=2.93D-08 MaxDP=8.66D-07 DE=-2.49D-11 OVMax= 1.07D-06

 Cycle  14  Pass 1  IDiag  1:
 RMSU=  1.42D-08    CP:  7.31D-01  8.34D-01  6.97D-01  8.81D-01  1.10D+00
                    CP:  1.21D+00  1.22D+00  1.23D+00  1.51D+00  1.30D+00
                    CP:  1.47D+00  1.32D+00  1.17D+00
 E= -440.143287091696     Delta-E=       -0.000000000006 Rises=F Damp=F
 DIIS: error= 1.95D-08 at cycle  14 NSaved=  14.
 NSaved=14 IEnMin=14 EnMin= -440.143287091696     IErMin=14 ErrMin= 1.95D-08
 ErrMax= 1.95D-08  0.00D+00 EMaxC= 1.00D-01 BMatC= 1.47D-13 BMatP= 2.00D-12
 IDIUse=1 WtCom= 1.00D+00 WtEn= 0.00D+00
 Coeff-Com:  0.952D-07 0.174D-05 0.195D-05-0.426D-05-0.731D-04-0.813D-04
 Coeff-Com:  0.103D-03 0.102D-02 0.155D-02-0.216D-02-0.290D-01-0.340D-01
 Coeff-Com:  0.183D+00 0.880D+00
 Coeff:      0.952D-07 0.174D-05 0.195D-05-0.426D-05-0.731D-04-0.813D-04
 Coeff:      0.103D-03 0.102D-02 0.155D-02-0.216D-02-0.290D-01-0.340D-01
 Coeff:      0.183D+00 0.880D+00
 Gap=     0.351 Goal=   None    Shift=    0.000
 RMSDP=8.79D-09 MaxDP=2.75D-07 DE=-6.37D-12 OVMax= 3.30D-07

 SCF Done:  E(RwB97XD) =  -440.143287092     A.U. after   14 cycles
            NFock= 14  Conv=0.88D-08     -V/T= 2.0003
 KE= 4.400157430727D+02 PE=-2.008114038394D+03 EE= 6.371057013495D+02
 Leave Link  502 at Tue Nov 22 19:14:33 2022, MaxMem= 16106127360 cpu:             547.5 elap:              17.2
 (Enter /opt/ap/G16/B01/g16/l601.exe)
 Copying SCF densities to generalized density rwf, IOpCl= 0 IROHF=0.

 **********************************************************************

            Population analysis using the SCF Density.

 **********************************************************************

 Orbital symmetries:
       Occupied  (A) (A) (A) (A) (A) (A) (A) (A) (A) (A) (A) (A)
                 (A) (A) (A) (A) (A) (A) (A) (A) (A) (A) (A) (A)
                 (A) (A) (A) (A) (A) (A) (A) (A) (A) (A) (A) (A)
       Virtual   (A) (A) (A) (A) (A) (A) (A) (A) (A) (A) (A) (A)
                 (A) (A) (A) (A) (A) (A) (A) (A) (A) (A) (A) (A)
                 (A) (A) (A) (A) (A) (A) (A) (A) (A) (A) (A) (A)
                 (A) (A) (A) (A) (A) (A) (A) (A) (A) (A) (A) (A)
                 (A) (A) (A) (A) (A) (A) (A) (A) (A) (A) (A) (A)
                 (A) (A) (A) (A) (A) (A) (A) (A) (A) (A) (A) (A)
                 (A) (A) (A) (A) (A) (A) (A) (A) (A) (A) (A) (A)
                 (A) (A) (A) (A) (A) (A) (A) (A) (A) (A) (A) (A)
                 (A) (A) (A) (A) (A) (A) (A) (A) (A) (A) (A) (A)
                 (A) (A) (A) (A) (A) (A) (A) (A) (A) (A) (A) (A)
                 (A) (A) (A) (A) (A) (A) (A) (A) (A) (A) (A) (A)
                 (A) (A) (A) (A) (A) (A) (A) (A) (A) (A) (A) (A)
                 (A) (A) (A) (A) (A) (A) (A) (A) (A) (A) (A) (A)
                 (A) (A) (A) (A) (A) (A) (A) (A) (A) (A) (A) (A)
                 (A) (A) (A) (A) (A) (A) (A) (A) (A) (A) (A) (A)
                 (A) (A) (A) (A) (A) (A) (A) (A) (A) (A) (A) (A)
                 (A) (A) (A) (A) (A) (A) (A) (A) (A) (A) (A) (A)
                 (A) (A) (A) (A) (A) (A) (A) (A) (A) (A) (A) (A)
                 (A) (A) (A) (A) (A) (A) (A) (A) (A) (A) (A) (A)
                 (A) (A) (A) (A) (A) (A) (A) (A) (A) (A) (A) (A)
                 (A) (A) (A) (A) (A) (A)
 The electronic state is 1-A.
 Alpha  occ. eigenvalues --  -19.20929 -14.46310 -10.39464 -10.33646 -10.28369
 Alpha  occ. eigenvalues --  -10.28185 -10.28088 -10.27981 -10.27922 -10.26067
 Alpha  occ. eigenvalues --   -1.14049  -1.05781  -0.96510  -0.88386  -0.86723
 Alpha  occ. eigenvalues --   -0.84701  -0.74357  -0.73080  -0.69671  -0.65853
 Alpha  occ. eigenvalues --   -0.61533  -0.58468  -0.56530  -0.55361  -0.54331
 Alpha  occ. eigenvalues --   -0.53131  -0.51545  -0.49586  -0.47961  -0.45940
 Alpha  occ. eigenvalues --   -0.45617  -0.44486  -0.37688  -0.34478  -0.33457
 Alpha  occ. eigenvalues --   -0.31684
 Alpha virt. eigenvalues --    0.03436   0.04312   0.04529   0.04841   0.05208
 Alpha virt. eigenvalues --    0.06225   0.06752   0.07056   0.08639   0.09205
 Alpha virt. eigenvalues --    0.10194   0.10506   0.11482   0.12607   0.13352
 Alpha virt. eigenvalues --    0.13976   0.14805   0.15654   0.15810   0.16309
 Alpha virt. eigenvalues --    0.16785   0.17405   0.17864   0.17913   0.18467
 Alpha virt. eigenvalues --    0.18962   0.19300   0.19768   0.20434   0.20445
 Alpha virt. eigenvalues --    0.20772   0.21597   0.22450   0.22784   0.23507
 Alpha virt. eigenvalues --    0.23953   0.24993   0.25675   0.25856   0.26627
 Alpha virt. eigenvalues --    0.27308   0.28003   0.28538   0.29310   0.29748
 Alpha virt. eigenvalues --    0.30130   0.31211   0.31352   0.32565   0.34145
 Alpha virt. eigenvalues --    0.34391   0.34702   0.36163   0.37248   0.37526
 Alpha virt. eigenvalues --    0.38146   0.38729   0.39854   0.40206   0.40623
 Alpha virt. eigenvalues --    0.42357   0.43541   0.44047   0.44840   0.45383
 Alpha virt. eigenvalues --    0.46173   0.47089   0.49668   0.54140   0.55362
 Alpha virt. eigenvalues --    0.57532   0.57821   0.59309   0.62692   0.63163
 Alpha virt. eigenvalues --    0.64047   0.65159   0.65634   0.66189   0.66565
 Alpha virt. eigenvalues --    0.68244   0.69464   0.70678   0.72661   0.73622
 Alpha virt. eigenvalues --    0.74254   0.75506   0.76432   0.76930   0.78680
 Alpha virt. eigenvalues --    0.79055   0.80999   0.82240   0.83146   0.84740
 Alpha virt. eigenvalues --    0.85716   0.88405   0.88670   0.92272   0.93726
 Alpha virt. eigenvalues --    0.94035   0.94306   0.94742   0.96466   0.97205
 Alpha virt. eigenvalues --    0.98279   0.98985   1.00297   1.02499   1.05018
 Alpha virt. eigenvalues --    1.07808   1.10576   1.10991   1.14048   1.14316
 Alpha virt. eigenvalues --    1.16589   1.17362   1.18591   1.21802   1.24408
 Alpha virt. eigenvalues --    1.25438   1.28959   1.31869   1.35241   1.37779
 Alpha virt. eigenvalues --    1.41437   1.43881   1.47111   1.53136   1.55296
 Alpha virt. eigenvalues --    1.56691   1.61030   1.62242   1.62479   1.65552
 Alpha virt. eigenvalues --    1.66327   1.67001   1.68053   1.68256   1.68530
 Alpha virt. eigenvalues --    1.71380   1.71932   1.75040   1.76701   1.79635
 Alpha virt. eigenvalues --    1.80342   1.85294   1.86792   1.88845   1.90780
 Alpha virt. eigenvalues --    1.92431   1.94041   1.96556   1.97649   1.98928
 Alpha virt. eigenvalues --    2.01809   2.02055   2.04631   2.06538   2.07983
 Alpha virt. eigenvalues --    2.08357   2.09934   2.12203   2.12929   2.14626
 Alpha virt. eigenvalues --    2.22170   2.25300   2.28074   2.31373   2.35962
 Alpha virt. eigenvalues --    2.38976   2.41986   2.46016   2.50253   2.51484
 Alpha virt. eigenvalues --    2.53009   2.55641   2.59636   2.60603   2.63760
 Alpha virt. eigenvalues --    2.65448   2.68786   2.72634   2.74456   2.74918
 Alpha virt. eigenvalues --    2.80479   2.81488   2.82689   2.82924   2.84652
 Alpha virt. eigenvalues --    2.86704   2.90166   2.91552   2.92144   2.93508
 Alpha virt. eigenvalues --    2.94256   2.94984   2.97962   3.00721   3.02533
 Alpha virt. eigenvalues --    3.02930   3.04275   3.05212   3.10899   3.14157
 Alpha virt. eigenvalues --    3.19959   3.21642   3.23050   3.25738   3.30387
 Alpha virt. eigenvalues --    3.41911   3.45112   3.46145   3.48720   3.51680
 Alpha virt. eigenvalues --    3.62338   3.68156   3.71165   3.74457   3.90782
 Alpha virt. eigenvalues --    3.99728   4.05652   4.08094   4.13062   4.17695
 Alpha virt. eigenvalues --    4.30500   4.34322   4.38225   4.39725   4.44304
 Alpha virt. eigenvalues --    4.95642   5.17822   5.20200   5.20902   5.37424
 Alpha virt. eigenvalues --    5.90042  23.88683  23.98811  24.14931  24.22605
 Alpha virt. eigenvalues --   24.30030  24.33015  24.38184  24.42510  35.88139
 Alpha virt. eigenvalues --   50.16613
          Condensed to atoms (all electrons):
               1          2          3          4          5          6
     1  C    6.653514   0.150508  -0.014311  -0.290941  -0.117748   0.018321
     2  C    0.150508   6.590204  -1.319595   0.348388   0.527414  -0.177759
     3  C   -0.014311  -1.319595   7.105680   0.394406  -0.075348  -0.000283
     4  C   -0.290941   0.348388   0.394406   5.336073  -0.024376  -0.018163
     5  H   -0.117748   0.527414  -0.075348  -0.024376   0.474035  -0.018339
     6  N    0.018321  -0.177759  -0.000283  -0.018163  -0.018339   7.500349
     7  C   -0.336608   0.347625   0.114882  -0.158909   0.020796  -0.044092
     8  H   -0.124681  -0.063473   0.625241   0.039404  -0.003359   0.000102
     9  C    0.101675  -0.283106  -0.396212   0.385279   0.023580   0.021597
    10  H    0.023919  -0.088693   0.040266   0.427375  -0.011923  -0.002019
    11  C   -0.184060   0.065777  -0.210622  -0.066391   0.011971  -0.037794
    12  H   -0.011239  -0.000117  -0.037968  -0.012698  -0.000862   0.340299
    13  H    0.028364   0.028451  -0.106089  -0.014009   0.001089  -0.004900
    14  H    0.016475  -0.021135  -0.001605  -0.048570   0.000574   0.001768
    15  C   -0.035763   0.021139  -0.011102   0.001965   0.000316  -0.371145
    16  O    0.030949  -0.048965   0.004656  -0.024558  -0.007264  -0.152236
    17  H   -0.004236  -0.000475   0.001491   0.000393  -0.001840   0.004865
    18  H   -0.001011   0.008474  -0.012403  -0.001593  -0.000209   0.003603
    19  H    0.006252   0.011773  -0.000854   0.003760   0.001556   0.026967
               7          8          9         10         11         12
     1  C   -0.336608  -0.124681   0.101675   0.023919  -0.184060  -0.011239
     2  C    0.347625  -0.063473  -0.283106  -0.088693   0.065777  -0.000117
     3  C    0.114882   0.625241  -0.396212   0.040266  -0.210622  -0.037968
     4  C   -0.158909   0.039404   0.385279   0.427375  -0.066391  -0.012698
     5  H    0.020796  -0.003359   0.023580  -0.011923   0.011971  -0.000862
     6  N   -0.044092   0.000102   0.021597  -0.002019  -0.037794   0.340299
     7  C    5.426572  -0.089058   0.540931  -0.010353  -0.013070  -0.005862
     8  H   -0.089058   0.513813  -0.027706   0.002526  -0.018612  -0.000977
     9  C    0.540931  -0.027706   5.608747  -0.062297   0.020615   0.012514
    10  H   -0.010353   0.002526  -0.062297   0.485301  -0.001525  -0.000113
    11  C   -0.013070  -0.018612   0.020615  -0.001525   5.975713   0.053749
    12  H   -0.005862  -0.000977   0.012514  -0.000113   0.053749   0.368752
    13  H    0.429897  -0.013519  -0.036785  -0.001097   0.001680   0.000036
    14  H   -0.057515  -0.001257   0.464081  -0.009308  -0.001505   0.000362
    15  C    0.029027  -0.004617  -0.008503  -0.000238  -0.075217  -0.019609
    16  O    0.013159  -0.004824   0.001358  -0.000433   0.481961   0.006995
    17  H   -0.000551  -0.000258   0.000128  -0.000012  -0.034583   0.001556
    18  H    0.000064  -0.000258   0.000205  -0.000017  -0.040253   0.000788
    19  H    0.000756   0.001663  -0.001363   0.000034  -0.094365  -0.010590
              13         14         15         16         17         18
     1  C    0.028364   0.016475  -0.035763   0.030949  -0.004236  -0.001011
     2  C    0.028451  -0.021135   0.021139  -0.048965  -0.000475   0.008474
     3  C   -0.106089  -0.001605  -0.011102   0.004656   0.001491  -0.012403
     4  C   -0.014009  -0.048570   0.001965  -0.024558   0.000393  -0.001593
     5  H    0.001089   0.000574   0.000316  -0.007264  -0.001840  -0.000209
     6  N   -0.004900   0.001768  -0.371145  -0.152236   0.004865   0.003603
     7  C    0.429897  -0.057515   0.029027   0.013159  -0.000551   0.000064
     8  H   -0.013519  -0.001257  -0.004617  -0.004824  -0.000258  -0.000258
     9  C   -0.036785   0.464081  -0.008503   0.001358   0.000128   0.000205
    10  H   -0.001097  -0.009308  -0.000238  -0.000433  -0.000012  -0.000017
    11  C    0.001680  -0.001505  -0.075217   0.481961  -0.034583  -0.040253
    12  H    0.000036   0.000362  -0.019609   0.006995   0.001556   0.000788
    13  H    0.488809  -0.007561   0.000583   0.000398   0.000002  -0.000016
    14  H   -0.007561   0.491175  -0.000270  -0.000210  -0.000008  -0.000004
    15  C    0.000583  -0.000270   5.779120  -0.012309   0.406918   0.431816
    16  O    0.000398  -0.000210  -0.012309   8.077660  -0.005046  -0.009596
    17  H    0.000002  -0.000008   0.406918  -0.005046   0.505004  -0.028830
    18  H   -0.000016  -0.000004   0.431816  -0.009596  -0.028830   0.492275
    19  H    0.000056  -0.000021   0.394269   0.008478  -0.035752  -0.035483
              19
     1  C    0.006252
     2  C    0.011773
     3  C   -0.000854
     4  C    0.003760
     5  H    0.001556
     6  N    0.026967
     7  C    0.000756
     8  H    0.001663
     9  C   -0.001363
    10  H    0.000034
    11  C   -0.094365
    12  H   -0.010590
    13  H    0.000056
    14  H   -0.000021
    15  C    0.394269
    16  O    0.008478
    17  H   -0.035752
    18  H   -0.035483
    19  H    0.612599
 Mulliken charges:
               1
     1  C    0.090623
     2  C   -0.096437
     3  C   -0.100229
     4  C   -0.276836
     5  H    0.199936
     6  N   -0.091142
     7  C   -0.207691
     8  H    0.169851
     9  C   -0.364739
    10  H    0.208608
    11  C    0.166531
    12  H    0.314984
    13  H    0.204612
    14  H    0.174535
    15  C   -0.526379
    16  O   -0.360174
    17  H    0.191235
    18  H    0.192448
    19  H    0.110263
 Sum of Mulliken charges =  -0.00000
 Mulliken charges with hydrogens summed into heavy atoms:
               1
     1  C    0.090623
     2  C    0.103500
     3  C    0.069621
     4  C   -0.068228
     6  N    0.223843
     7  C   -0.003079
     9  C   -0.190204
    11  C    0.166531
    15  C   -0.032433
    16  O   -0.360174
 Electronic spatial extent (au):  <R**2>=           1670.4225
 Charge=             -0.0000 electrons
 Dipole moment (field-independent basis, Debye):
    X=              0.3188    Y=             -2.8990    Z=             -2.4696  Tot=              3.8216
 Quadrupole moment (field-independent basis, Debye-Ang):
   XX=            -49.8918   YY=            -55.1997   ZZ=            -62.6098
   XY=              6.6624   XZ=              6.0016   YZ=             -3.4227
 Traceless Quadrupole moment (field-independent basis, Debye-Ang):
   XX=              6.0087   YY=              0.7007   ZZ=             -6.7093
   XY=              6.6624   XZ=              6.0016   YZ=             -3.4227
 Octapole moment (field-independent basis, Debye-Ang**2):
  XXX=            -14.2554  YYY=             -4.0098  ZZZ=             -0.9113  XYY=              5.8147
  XXY=            -11.4170  XXZ=             -6.2447  XZZ=             -7.9453  YZZ=             -3.6868
  YYZ=             -5.3524  XYZ=              1.0955
 Hexadecapole moment (field-independent basis, Debye-Ang**3):
 XXXX=          -1563.1762 YYYY=           -334.4473 ZZZZ=           -135.0255 XXXY=             29.1467
 XXXZ=             30.6111 YYYX=             11.9294 YYYZ=             -7.9153 ZZZX=              3.3098
 ZZZY=              2.3845 XXYY=           -341.8603 XXZZ=           -331.8806 YYZZ=            -83.2446
 XXYZ=            -21.8522 YYXZ=             12.4981 ZZXY=              6.0470
 N-N= 4.908493068805D+02 E-N=-2.008114037472D+03  KE= 4.400157430727D+02
 No NMR shielding tensors so no spin-rotation constants.
 Leave Link  601 at Tue Nov 22 19:14:33 2022, MaxMem= 16106127360 cpu:               3.8 elap:               0.1
 (Enter /opt/ap/G16/B01/g16/l9999.exe)
 1\1\GINC-N36\SP\RwB97XD\6-311++G(d,p)\C8H9N1O1\ROOT\22-Nov-2022\0\\#P 
 wB97XD/6-311++G(d,p) scf=maxcycle=512\\_conf062.gjf nmol_natom 1_19\\0
 ,1\C\C,1,1.39447505\C,1,1.39873503,2,119.56697224\C,2,1.39066123,1,119
 .42697207,3,2.53915756,0\H,2,0.96213008,1,119.8046163,3,-177.79870417,
 0\N,1,1.41693372,2,123.72220125,4,-177.74604849,0\C,3,1.38667133,1,120
 .18759987,2,-2.5020857,0\H,3,0.95673174,1,118.82085988,2,177.96737168,
 0\C,4,1.38268572,2,121.03929493,1,-0.41221113,0\H,4,0.9858595,2,118.57
 91267,1,178.77373233,0\C,6,1.35500692,1,127.62132737,2,-50.,0\H,6,0.89
 609466,1,115.10511997,2,130.,0\H,7,0.98847198,3,119.08117704,1,-179.64
 585354,0\H,9,0.98451201,4,120.53755637,2,177.22743544,0\C,11,1.5027456
 1,6,115.46861532,1,175.89235465,0\O,11,1.23496495,6,123.15099888,1,-3.
 40672617,0\H,15,0.98719837,11,107.47091875,6,-116.36962839,0\H,15,0.99
 976021,11,109.69443261,6,128.85346087,0\H,15,0.97696155,11,114.3700887
 1,6,6.05302844,0\\Version=ES64L-G16RevB.01\State=1-A\HF=-440.1432871\R
 MSD=8.790e-09\Dipole=0.2700575,1.2107601,-0.849532\Quadrupole=2.745270
 3,-7.3768204,4.6315501,-3.8107932,4.1479701,0.2134924\PG=C01 [X(C8H9N1
 O1)]\\@


 NOTHING MAKES A PERSON MORE PRODUCTIVE THAN THE LAST MINUTE.
 Job cpu time:       0 days  0 hours  9 minutes 46.1 seconds.
 Elapsed time:       0 days  0 hours  0 minutes 18.4 seconds.
 File lengths (MBytes):  RWF=     46 Int=      0 D2E=      0 Chk=      6 Scr=      1
 Normal termination of Gaussian 16 at Tue Nov 22 19:14:33 2022.
