LAMMPS Description

76 atoms
80 bonds
124 angles
184 dihedrals
28 impropers

19 atom types
4 bond types
4 angle types
2 dihedral types
1 improper types

-50.00000  50.00000 xlo xhi
-50.00000  50.00000 ylo yhi
-50.00000  50.00000 zlo zhi

Masses

1  12.01000 # CA0
2  12.01000 # CA1
3  12.01000 # CA2
4  12.01000 # CA3
5  12.01000 # CA4
6  12.01000 # CA5
7  12.01000 # CA6
8  16.00000 # OH
9  12.01000 # CA7
10   1.00800 # HA0
11  12.01000 # CA8
12   1.00800 # HA1
13  12.01000 # CA9
14   1.00800 # HA2
15   1.00800 # HA3
16   1.00800 # HO
17   1.00800 # HA4
18   1.00800 # HA5
19   1.00800 # HA6

Atoms

1 1 1  -0.00255   2.31399  -0.00665   3.30014
2 1 2   0.23875   0.99688  -0.07947   2.73956
3 1 3   0.29089   3.28038   0.83066   2.69842
4 1 4  -0.35656   0.68327   0.71602   1.63478
5 1 5  -0.29279   0.06358  -0.93406   3.33402
6 1 6  -0.08106   2.57319  -0.79503   4.43479
7 1 7  -0.33265   2.88058   1.65148   1.64533
8 1 8  -0.62276   4.38687   1.19856   3.37292
9 1 9  -0.02117   1.61247   1.58545   1.09543
10 1 10   0.16132  -0.31619   0.69256   1.22033
11 1 11  -0.00488   0.36597  -1.70706   4.44116
12 1 12   0.14803  -0.93074  -1.01669   2.91036
13 1 13  -0.17201   1.62578  -1.63606   4.99697
14 1 14   0.14827   3.56483  -0.79133   4.87343
15 1 15   0.14273   3.55390   2.41824   1.28233
16 1 16   0.44535   4.57032   2.11660   3.14537
17 1 17   0.09969   1.33526   2.24976   0.28524
18 1 18   0.08659  -0.37212  -2.38417   4.84942
19 1 19   0.12480   1.87656  -2.25744   5.84800
20 2 1  -0.00255   7.84407   2.37393   2.62032
21 2 2   0.23875   9.16297   2.30369   3.17697
22 2 3   0.29089   6.87838   3.21058   3.22414
23 2 4  -0.35656   9.47878   3.10056   4.28012
24 2 5  -0.29279  10.09559   1.44955   2.58097
25 2 6  -0.08106   7.58241   1.58338   1.48770
26 2 7  -0.33265   7.27967   4.03158   4.27658
27 2 8  -0.62276   5.77079   3.57861   2.55149
28 2 9  -0.02117   8.54950   3.96781   4.82278
29 2 10   0.16132  10.48008   3.08065   4.69021
30 2 11  -0.00488   9.79042   0.67328   1.47702
31 2 12   0.14803  11.09129   1.36892   3.00173
32 2 13  -0.17201   8.52876   0.74149   0.92498
33 2 14   0.14827   6.58951   1.58528   1.05186
34 2 15   0.14273   6.60660   4.79806   4.64069
35 2 16   0.44535   5.58793   4.49660   2.77957
36 2 17   0.09969   8.82885   4.63433   5.63054
37 2 18   0.08659  10.52759  -0.00525   1.06976
38 2 19   0.12480   8.27534   0.11635   0.07751
39 3 1  -0.00255   4.80434   0.02342   8.51786
40 3 2   0.23875   6.12250   0.09492   9.07614
41 3 3   0.29089   3.83840  -0.81365   9.12068
42 3 4  -0.35656   6.43749  -0.70173  10.17971
43 3 5  -0.29279   7.05530   0.94943   8.48070
44 3 6  -0.08106   4.54367   0.81282   7.38428
45 3 7  -0.33265   4.23953  -1.63573  10.17228
46 3 8  -0.62276   2.73030  -1.17998   8.44794
47 3 9  -0.02117   5.50869  -1.57107  10.71992
48 3 10   0.16132   7.43766  -0.67934  10.59245
49 3 11  -0.00488   6.75155   1.72328   7.37451
50 3 12   0.14803   8.05020   1.03172   8.90309
51 3 13  -0.17201   5.49071   1.65347   6.82089
52 3 14   0.14827   3.55113   0.81044   6.94766
53 3 15   0.14273   3.56637  -2.40244  10.53570
54 3 16   0.44535   2.54619  -2.09800   8.67502
55 3 17   0.09969   5.78701  -2.23648  11.52882
56 3 18   0.08659   7.48918   2.40060   6.96570
57 3 19   0.12480   5.23869   2.27596   5.97105
58 4 1  -0.00255  -0.72495   2.40734   9.19618
59 4 2   0.23875  -2.04282   2.47910   8.63731
60 4 3   0.29089   0.24119   1.57075   8.59308
61 4 4  -0.35656  -2.35751   1.68317   7.53316
62 4 5  -0.29279  -2.97573   3.33356   9.23234
63 4 6  -0.08106  -0.46473   3.19636  10.33022
64 4 7  -0.33265  -0.15925   0.75012   7.54001
65 4 8  -0.62276   1.34851   1.20307   9.26634
66 4 9  -0.02117  -1.42821   0.81508   6.99187
67 4 10   0.16132  -3.35799   1.70465   7.12108
68 4 11  -0.00488  -2.67193   4.10836  10.33771
69 4 12   0.14803  -3.97068   3.41518   8.81004
70 4 13  -0.17201  -1.41144   4.03833  10.89215
71 4 14   0.14827   0.52715   3.19269  10.76831
72 4 15   0.14273   0.51374  -0.01680   7.17675
73 4 16   0.44535   1.53232   0.28532   9.03800
74 4 17   0.09969  -1.70682   0.14920   6.18333
75 4 18   0.08659  -3.40948   4.78658  10.74474
76 4 19   0.12480  -1.15937   4.66155  11.74143

Bonds

1 4 1 2
2 4 1 3
3 4 1 6
4 4 2 4
5 4 2 5
6 4 3 7
7 2 3 8
8 4 4 9
9 3 4 10
10 4 5 11
11 3 5 12
12 4 6 13
13 3 6 14
14 4 7 9
15 3 7 15
16 1 8 16
17 3 9 17
18 4 11 13
19 3 11 18
20 3 13 19
1 4 20 21
2 4 20 22
3 4 20 25
4 4 21 23
5 4 21 24
6 4 22 26
7 2 22 27
8 4 23 28
9 3 23 29
10 4 24 30
11 3 24 31
12 4 25 32
13 3 25 33
14 4 26 28
15 3 26 34
16 1 27 35
17 3 28 36
18 4 30 32
19 3 30 37
20 3 32 38
1 4 39 40
2 4 39 41
3 4 39 44
4 4 40 42
5 4 40 43
6 4 41 45
7 2 41 46
8 4 42 47
9 3 42 48
10 4 43 49
11 3 43 50
12 4 44 51
13 3 44 52
14 4 45 47
15 3 45 53
16 1 46 54
17 3 47 55
18 4 49 51
19 3 49 56
20 3 51 57
1 4 58 59
2 4 58 60
3 4 58 63
4 4 59 61
5 4 59 62
6 4 60 64
7 2 60 65
8 4 61 66
9 3 61 67
10 4 62 68
11 3 62 69
12 4 63 70
13 3 63 71
14 4 64 66
15 3 64 72
16 1 65 73
17 3 66 74
18 4 68 70
19 3 68 75
20 3 70 76

Angles

1 3 1 2 4
2 3 1 2 5
3 3 1 3 7
4 3 1 6 13
5 3 2 1 3
6 3 2 1 6
7 3 2 4 9
8 3 2 5 11
9 3 3 1 6
10 3 3 7 9
11 3 4 2 5
12 3 4 9 7
13 3 5 11 13
14 3 6 13 11
15 2 1 6 14
16 2 2 4 10
17 2 2 5 12
18 2 3 7 15
19 2 4 9 17
20 2 5 11 18
21 2 6 13 19
22 2 7 9 17
23 2 9 4 10
24 2 9 7 15
25 2 11 5 12
26 2 11 13 19
27 2 13 6 14
28 2 13 11 18
29 1 1 3 8
30 1 7 3 8
31 4 3 8 16
1 3 20 21 23
2 3 20 21 24
3 3 20 22 26
4 3 20 25 32
5 3 21 20 22
6 3 21 20 25
7 3 21 23 28
8 3 21 24 30
9 3 22 20 25
10 3 22 26 28
11 3 23 21 24
12 3 23 28 26
13 3 24 30 32
14 3 25 32 30
15 2 20 25 33
16 2 21 23 29
17 2 21 24 31
18 2 22 26 34
19 2 23 28 36
20 2 24 30 37
21 2 25 32 38
22 2 26 28 36
23 2 28 23 29
24 2 28 26 34
25 2 30 24 31
26 2 30 32 38
27 2 32 25 33
28 2 32 30 37
29 1 20 22 27
30 1 26 22 27
31 4 22 27 35
1 3 39 40 42
2 3 39 40 43
3 3 39 41 45
4 3 39 44 51
5 3 40 39 41
6 3 40 39 44
7 3 40 42 47
8 3 40 43 49
9 3 41 39 44
10 3 41 45 47
11 3 42 40 43
12 3 42 47 45
13 3 43 49 51
14 3 44 51 49
15 2 39 44 52
16 2 40 42 48
17 2 40 43 50
18 2 41 45 53
19 2 42 47 55
20 2 43 49 56
21 2 44 51 57
22 2 45 47 55
23 2 47 42 48
24 2 47 45 53
25 2 49 43 50
26 2 49 51 57
27 2 51 44 52
28 2 51 49 56
29 1 39 41 46
30 1 45 41 46
31 4 41 46 54
1 3 58 59 61
2 3 58 59 62
3 3 58 60 64
4 3 58 63 70
5 3 59 58 60
6 3 59 58 63
7 3 59 61 66
8 3 59 62 68
9 3 60 58 63
10 3 60 64 66
11 3 61 59 62
12 3 61 66 64
13 3 62 68 70
14 3 63 70 68
15 2 58 63 71
16 2 59 61 67
17 2 59 62 69
18 2 60 64 72
19 2 61 66 74
20 2 62 68 75
21 2 63 70 76
22 2 64 66 74
23 2 66 61 67
24 2 66 64 72
25 2 68 62 69
26 2 68 70 76
27 2 70 63 71
28 2 70 68 75
29 1 58 60 65
30 1 64 60 65
31 4 60 65 73

Dihedrals

1 1 1 2 4 9
2 1 1 2 5 11
3 1 1 3 7 9
4 1 1 6 13 11
5 1 2 1 3 7
6 1 2 1 6 13
7 1 2 4 9 7
8 1 2 5 11 13
9 1 3 1 2 4
10 1 3 1 2 5
11 1 3 1 6 13
12 1 3 7 9 4
13 1 4 2 1 6
14 1 4 2 5 11
15 1 5 2 1 6
16 1 5 2 4 9
17 1 5 11 13 6
18 1 6 1 3 7
19 1 1 2 4 10
20 1 1 2 5 12
21 1 1 3 7 15
22 1 1 6 13 19
23 1 2 1 6 14
24 1 2 4 9 17
25 1 2 5 11 18
26 1 3 1 6 14
27 1 3 7 9 17
28 1 4 2 5 12
29 1 4 9 7 15
30 1 5 2 4 10
31 1 5 11 13 19
32 1 6 13 11 18
33 1 7 9 4 10
34 1 11 13 6 14
35 1 12 5 11 13
36 1 2 1 3 8
37 1 6 1 3 8
38 1 8 3 7 9
39 1 8 3 7 15
40 1 10 4 9 17
41 1 12 5 11 18
42 1 14 6 13 19
43 1 15 7 9 17
44 1 18 11 13 19
45 2 1 3 8 16
46 2 7 3 8 16
1 1 20 21 23 28
2 1 20 21 24 30
3 1 20 22 26 28
4 1 20 25 32 30
5 1 21 20 22 26
6 1 21 20 25 32
7 1 21 23 28 26
8 1 21 24 30 32
9 1 22 20 21 23
10 1 22 20 21 24
11 1 22 20 25 32
12 1 22 26 28 23
13 1 23 21 20 25
14 1 23 21 24 30
15 1 24 21 20 25
16 1 24 21 23 28
17 1 24 30 32 25
18 1 25 20 22 26
19 1 20 21 23 29
20 1 20 21 24 31
21 1 20 22 26 34
22 1 20 25 32 38
23 1 21 20 25 33
24 1 21 23 28 36
25 1 21 24 30 37
26 1 22 20 25 33
27 1 22 26 28 36
28 1 23 21 24 31
29 1 23 28 26 34
30 1 24 21 23 29
31 1 24 30 32 38
32 1 25 32 30 37
33 1 26 28 23 29
34 1 30 32 25 33
35 1 31 24 30 32
36 1 21 20 22 27
37 1 25 20 22 27
38 1 27 22 26 28
39 1 27 22 26 34
40 1 29 23 28 36
41 1 31 24 30 37
42 1 33 25 32 38
43 1 34 26 28 36
44 1 37 30 32 38
45 2 20 22 27 35
46 2 26 22 27 35
1 1 39 40 42 47
2 1 39 40 43 49
3 1 39 41 45 47
4 1 39 44 51 49
5 1 40 39 41 45
6 1 40 39 44 51
7 1 40 42 47 45
8 1 40 43 49 51
9 1 41 39 40 42
10 1 41 39 40 43
11 1 41 39 44 51
12 1 41 45 47 42
13 1 42 40 39 44
14 1 42 40 43 49
15 1 43 40 39 44
16 1 43 40 42 47
17 1 43 49 51 44
18 1 44 39 41 45
19 1 39 40 42 48
20 1 39 40 43 50
21 1 39 41 45 53
22 1 39 44 51 57
23 1 40 39 44 52
24 1 40 42 47 55
25 1 40 43 49 56
26 1 41 39 44 52
27 1 41 45 47 55
28 1 42 40 43 50
29 1 42 47 45 53
30 1 43 40 42 48
31 1 43 49 51 57
32 1 44 51 49 56
33 1 45 47 42 48
34 1 49 51 44 52
35 1 50 43 49 51
36 1 40 39 41 46
37 1 44 39 41 46
38 1 46 41 45 47
39 1 46 41 45 53
40 1 48 42 47 55
41 1 50 43 49 56
42 1 52 44 51 57
43 1 53 45 47 55
44 1 56 49 51 57
45 2 39 41 46 54
46 2 45 41 46 54
1 1 58 59 61 66
2 1 58 59 62 68
3 1 58 60 64 66
4 1 58 63 70 68
5 1 59 58 60 64
6 1 59 58 63 70
7 1 59 61 66 64
8 1 59 62 68 70
9 1 60 58 59 61
10 1 60 58 59 62
11 1 60 58 63 70
12 1 60 64 66 61
13 1 61 59 58 63
14 1 61 59 62 68
15 1 62 59 58 63
16 1 62 59 61 66
17 1 62 68 70 63
18 1 63 58 60 64
19 1 58 59 61 67
20 1 58 59 62 69
21 1 58 60 64 72
22 1 58 63 70 76
23 1 59 58 63 71
24 1 59 61 66 74
25 1 59 62 68 75
26 1 60 58 63 71
27 1 60 64 66 74
28 1 61 59 62 69
29 1 61 66 64 72
30 1 62 59 61 67
31 1 62 68 70 76
32 1 63 70 68 75
33 1 64 66 61 67
34 1 68 70 63 71
35 1 69 62 68 70
36 1 59 58 60 65
37 1 63 58 60 65
38 1 65 60 64 66
39 1 65 60 64 72
40 1 67 61 66 74
41 1 69 62 68 75
42 1 71 63 70 76
43 1 72 64 66 74
44 1 75 68 70 76
45 2 58 60 65 73
46 2 64 60 65 73

Impropers

1 1 1 13 6 14
2 1 2 9 4 10
3 1 2 11 5 12
4 1 3 9 7 15
5 1 4 7 9 17
6 1 5 13 11 18
7 1 6 11 13 19
1 1 20 32 25 33
2 1 21 28 23 29
3 1 21 30 24 31
4 1 22 28 26 34
5 1 23 26 28 36
6 1 24 32 30 37
7 1 25 30 32 38
1 1 39 51 44 52
2 1 40 47 42 48
3 1 40 49 43 50
4 1 41 47 45 53
5 1 42 45 47 55
6 1 43 51 49 56
7 1 44 49 51 57
1 1 58 70 63 71
2 1 59 66 61 67
3 1 59 68 62 69
4 1 60 66 64 72
5 1 61 64 66 74
6 1 62 70 68 75
7 1 63 68 70 76

