LAMMPS Description

42 atoms
45 bonds
69 angles
108 dihedrals
18 impropers

10 atom types
4 bond types
6 angle types
3 dihedral types
1 improper types

-50.00000  50.00000 xlo xhi
-50.00000  50.00000 ylo yhi
-50.00000  50.00000 zlo zhi

Masses

1  12.01000 # CP0
2  12.01000 # CA0
3   1.00800 # HA0
4  12.01000 # CP1
5  12.01000 # CA1
6  12.01000 # CA2
7  12.01000 # CA3
8   1.00800 # HA1
9   1.00800 # HA2
10   1.00800 # HA3

Atoms

1 1 1   0.04231  -1.25118  -0.65939  -0.03578
2 1 2  -0.16358  -0.05306  -1.36888   0.00011
3 1 2  -0.16358  -1.15852   0.73042  -0.03368
4 1 1   0.04231   1.19638  -0.75427   0.03600
5 1 3   0.09080  -0.09499  -2.45054   0.00013
6 1 4   0.11652  -2.56156  -1.34994  -0.07566
7 1 1   0.04231   0.05480   1.41390   0.00008
8 1 3   0.09080  -2.07397   1.30735  -0.06265
9 1 2  -0.16358   1.21158   0.63854   0.03384
10 1 4   0.11652   2.44938  -1.54417   0.07589
11 1 5  -0.15998  -2.75846  -2.52812  -0.80518
12 1 5  -0.15998  -3.68042  -0.86598   0.61180
13 1 4   0.11652   0.11221   2.89473   0.00006
14 1 3   0.09080   2.16894   1.14288   0.06282
15 1 5  -0.15998   2.55446  -2.73411   0.80534
16 1 5  -0.15998   3.60239  -1.14821  -0.61147
17 1 6  -0.07151  -3.98629  -3.19356  -0.85730
18 1 8   0.10679  -1.94299  -2.96363  -1.36468
19 1 6  -0.07151  -4.92337  -1.50452   0.58493
20 1 8   0.10679  -3.60830   0.03831   1.19876
21 1 5  -0.15998  -0.82297   3.67586   0.68875
22 1 5  -0.15998   1.10507   3.60111  -0.68863
23 1 6  -0.07151   3.72710  -3.49259   0.85748
24 1 8   0.10679   1.70769  -3.10524   1.36475
25 1 6  -0.07151   4.79219  -1.88104  -0.58457
26 1 8   0.10679   3.60051  -0.24100  -1.19836
27 1 7  -0.11162  -5.07875  -2.67797  -0.15644
28 1 9   0.09073  -4.09000  -4.09810  -1.43847
29 1 9   0.09073  -5.75734  -1.09348   1.13449
30 1 6  -0.07151  -0.78457   5.07288   0.70098
31 1 8   0.10679  -1.61969   3.20464   1.24615
32 1 6  -0.07151   1.17495   4.99690  -0.70088
33 1 8   0.10679   1.86292   3.06960  -1.24602
34 1 7  -0.11162   4.85624  -3.06304   0.15673
35 1 9   0.09073   3.76045  -4.40248   1.43858
36 1 9   0.09073   5.65551  -1.53573  -1.13404
37 1 10   0.09350  -6.03371  -3.18106  -0.18803
38 1 7  -0.11162   0.22252   5.73996   0.00005
39 1 9   0.09073  -1.52758   5.63211   1.25035
40 1 9   0.09073   1.95902   5.49692  -1.25026
41 1 10   0.09350   5.76939  -3.63853   0.18833
42 1 10   0.09350   0.26436   6.81898   0.00005

Bonds

1 2 1 2
2 2 1 3
3 4 1 6
4 2 2 4
5 1 2 5
6 2 3 7
7 1 3 8
8 2 4 9
9 4 4 10
10 2 6 11
11 2 6 12
12 2 7 9
13 4 7 13
14 1 9 14
15 2 10 15
16 2 10 16
17 3 11 17
18 1 11 18
19 3 12 19
20 1 12 20
21 2 13 21
22 2 13 22
23 3 15 23
24 1 15 24
25 3 16 25
26 1 16 26
27 3 17 27
28 1 17 28
29 3 19 27
30 1 19 29
31 3 21 30
32 1 21 31
33 3 22 32
34 1 22 33
35 3 23 34
36 1 23 35
37 3 25 34
38 1 25 36
39 1 27 37
40 3 30 38
41 1 30 39
42 3 32 38
43 1 32 40
44 1 34 41
45 1 38 42

Angles

1 1 11 17 27
2 1 12 19 27
3 1 15 23 34
4 1 16 25 34
5 1 17 27 19
6 1 21 30 38
7 1 22 32 38
8 1 23 34 25
9 1 30 38 32
10 5 6 11 17
11 5 6 12 19
12 5 10 15 23
13 5 10 16 25
14 5 13 21 30
15 5 13 22 32
16 6 11 17 28
17 6 12 19 29
18 6 15 23 35
19 6 16 25 36
20 6 17 11 18
21 6 17 27 37
22 6 19 12 20
23 6 19 27 37
24 6 21 30 39
25 6 22 32 40
26 6 23 15 24
27 6 23 34 41
28 6 25 16 26
29 6 25 34 41
30 6 27 17 28
31 6 27 19 29
32 6 30 21 31
33 6 30 38 42
34 6 32 22 33
35 6 32 38 42
36 6 34 23 35
37 6 34 25 36
38 6 38 30 39
39 6 38 32 40
40 2 1 2 5
41 2 1 3 8
42 2 4 2 5
43 2 4 9 14
44 2 6 11 18
45 2 6 12 20
46 2 7 3 8
47 2 7 9 14
48 2 10 15 24
49 2 10 16 26
50 2 13 21 31
51 2 13 22 33
52 3 2 1 3
53 3 2 4 9
54 3 3 7 9
55 3 11 6 12
56 3 15 10 16
57 3 21 13 22
58 4 2 1 6
59 4 2 4 10
60 4 3 1 6
61 4 3 7 13
62 4 9 4 10
63 4 9 7 13
64 4 1 6 11
65 4 1 6 12
66 4 4 10 15
67 4 4 10 16
68 4 7 13 21
69 4 7 13 22

Dihedrals

1 1 6 11 17 27
2 1 6 12 19 27
3 1 10 15 23 34
4 1 10 16 25 34
5 1 13 21 30 38
6 1 13 22 32 38
7 1 6 11 17 28
8 1 6 12 19 29
9 1 10 15 23 35
10 1 10 16 25 36
11 1 13 21 30 39
12 1 13 22 32 40
13 1 11 17 27 19
14 1 12 19 27 17
15 1 15 23 34 25
16 1 16 25 34 23
17 1 21 30 38 32
18 1 22 32 38 30
19 1 11 17 27 37
20 1 12 19 27 37
21 1 15 23 34 41
22 1 16 25 34 41
23 1 17 27 19 29
24 1 19 27 17 28
25 1 21 30 38 42
26 1 22 32 38 42
27 1 23 34 25 36
28 1 25 34 23 35
29 1 18 11 17 27
30 1 20 12 19 27
31 1 30 38 32 40
32 1 32 38 30 39
33 1 24 15 23 34
34 1 26 16 25 34
35 1 31 21 30 38
36 1 33 22 32 38
37 1 18 11 17 28
38 1 20 12 19 29
39 1 24 15 23 35
40 1 26 16 25 36
41 1 28 17 27 37
42 1 29 19 27 37
43 1 31 21 30 39
44 1 33 22 32 40
45 1 35 23 34 41
46 1 36 25 34 41
47 1 39 30 38 42
48 1 40 32 38 42
49 2 1 2 4 9
50 2 1 3 7 9
51 2 3 1 2 4
52 2 3 7 9 4
53 2 2 1 3 7
54 2 2 4 9 7
55 2 1 2 4 10
56 2 1 3 7 13
57 2 4 2 1 6
58 2 4 9 7 13
59 2 6 1 3 7
60 2 7 9 4 10
61 2 3 1 2 5
62 2 5 2 4 9
63 2 2 1 3 8
64 2 8 3 7 9
65 2 2 4 9 14
66 2 3 7 9 14
67 2 12 6 11 18
68 2 11 6 12 20
69 2 16 10 15 24
70 2 15 10 16 26
71 2 22 13 21 31
72 2 21 13 22 33
73 2 5 2 1 6
74 2 5 2 4 10
75 2 6 1 3 8
76 2 8 3 7 13
77 2 10 4 9 14
78 2 13 7 9 14
79 2 1 6 11 18
80 2 1 6 12 20
81 2 4 10 15 24
82 2 4 10 16 26
83 2 7 13 21 31
84 2 7 13 22 33
85 2 1 6 11 17
86 2 1 6 12 19
87 2 4 10 15 23
88 2 4 10 16 25
89 2 7 13 21 30
90 2 7 13 22 32
91 2 12 6 11 17
92 2 11 6 12 19
93 2 16 10 15 23
94 2 15 10 16 25
95 2 22 13 21 30
96 2 21 13 22 32
97 3 2 1 6 11
98 3 2 1 6 12
99 3 2 4 10 15
100 3 2 4 10 16
101 3 3 1 6 11
102 3 3 1 6 12
103 3 3 7 13 21
104 3 3 7 13 22
105 3 9 4 10 15
106 3 9 4 10 16
107 3 9 7 13 21
108 3 9 7 13 22

Impropers

1 1 1 4 2 5
2 1 1 7 3 8
3 1 4 7 9 14
4 1 6 17 11 18
5 1 6 19 12 20
6 1 10 23 15 24
7 1 10 25 16 26
8 1 13 30 21 31
9 1 13 32 22 33
10 1 11 27 17 28
11 1 12 27 19 29
12 1 15 34 23 35
13 1 16 34 25 36
14 1 17 19 27 37
15 1 21 38 30 39
16 1 22 38 32 40
17 1 23 25 34 41
18 1 30 32 38 42

