LAMMPS Description

42 atoms
45 bonds
69 angles
108 dihedrals
18 impropers

10 atom types
4 bond types
6 angle types
3 dihedral types
1 improper types

-50.00000  50.00000 xlo xhi
-50.00000  50.00000 ylo yhi
-50.00000  50.00000 zlo zhi

Masses

1  12.01000 # CP0
2  12.01000 # CA0
3   1.00800 # HA0
4  12.01000 # CP1
5  12.01000 # CA1
6  12.01000 # CA2
7  12.01000 # CA3
8   1.00800 # HA1
9   1.00800 # HA2
10   1.00800 # HA3

Atoms

1 1 1   0.04231  -1.26660  -0.67183  -0.01561
2 1 2  -0.16358  -0.05429  -1.39984  -0.00014
3 1 2  -0.16358  -1.18121   0.73966  -0.00603
4 1 1   0.04231   1.21074  -0.76787   0.01535
5 1 3   0.09080  -0.09642  -2.48643  -0.00011
6 1 4   0.11652  -2.60196  -1.37376  -0.05631
7 1 1   0.04231   0.05525   1.42589  -0.00013
8 1 3   0.09080  -2.10073   1.31926  -0.03721
9 1 2  -0.16358   1.23486   0.64600   0.00576
10 1 4   0.11652   2.48776  -1.57104   0.05628
11 1 5  -0.15998  -2.76434  -2.58321  -0.77942
12 1 5  -0.15998  -3.72756  -0.83551   0.61823
13 1 4   0.11652   0.11373   2.93411  -0.00004
14 1 3   0.09080   2.19649   1.15268   0.03701
15 1 5  -0.15998   2.55593  -2.78939   0.77947
16 1 5  -0.15998   3.65178  -1.12151  -0.61801
17 1 6  -0.07151  -4.00843  -3.22233  -0.82380
18 1 8   0.10679  -1.93290  -3.02324  -1.32481
19 1 6  -0.07151  -4.96378  -1.48948   0.56960
20 1 8   0.10679  -3.64610   0.08328   1.19393
21 1 5  -0.15998  -0.86408   3.69928   0.68578
22 1 5  -0.15998   1.14790   3.62134  -0.68573
23 1 6  -0.07151   3.74685  -3.52282   0.82419
24 1 8   0.10679   1.69282  -3.16375   1.32470
25 1 6  -0.07151   4.83370  -1.86914  -0.56904
26 1 8   0.10679   3.64177  -0.19920  -1.19375
27 1 7  -0.11162  -5.10525  -2.67857  -0.15039
28 1 9   0.09073  -4.12253  -4.14487  -1.38827
29 1 9   0.09073  -5.81821  -1.06998   1.09543
30 1 6  -0.07151  -0.80162   5.09727   0.68361
31 1 8   0.10679  -1.66678   3.21477   1.23637
32 1 6  -0.07151   1.19396   5.01997  -0.68327
33 1 8   0.10679   1.91065   3.07620  -1.23641
34 1 7  -0.11162   4.88261  -3.06556   0.15104
35 1 9   0.09073   3.78912  -4.45138   1.38874
36 1 9   0.09073   5.71815  -1.51701  -1.09467
37 1 10   0.09350  -6.06916  -3.18028  -0.18746
38 1 7  -0.11162   0.22326   5.75664   0.00024
39 1 9   0.09073  -1.55359   5.67276   1.21837
40 1 9   0.09073   1.98828   5.53557  -1.21790
41 1 10   0.09350   5.80482  -3.64031   0.18839
42 1 10   0.09350   0.26542   6.84310   0.00037

Bonds

1 2 1 2
2 2 1 3
3 4 1 6
4 2 2 4
5 1 2 5
6 2 3 7
7 1 3 8
8 2 4 9
9 4 4 10
10 2 6 11
11 2 6 12
12 2 7 9
13 4 7 13
14 1 9 14
15 2 10 15
16 2 10 16
17 3 11 17
18 1 11 18
19 3 12 19
20 1 12 20
21 2 13 21
22 2 13 22
23 3 15 23
24 1 15 24
25 3 16 25
26 1 16 26
27 3 17 27
28 1 17 28
29 3 19 27
30 1 19 29
31 3 21 30
32 1 21 31
33 3 22 32
34 1 22 33
35 3 23 34
36 1 23 35
37 3 25 34
38 1 25 36
39 1 27 37
40 3 30 38
41 1 30 39
42 3 32 38
43 1 32 40
44 1 34 41
45 1 38 42

Angles

1 1 11 17 27
2 1 12 19 27
3 1 15 23 34
4 1 16 25 34
5 1 17 27 19
6 1 21 30 38
7 1 22 32 38
8 1 23 34 25
9 1 30 38 32
10 5 6 11 17
11 5 6 12 19
12 5 10 15 23
13 5 10 16 25
14 5 13 21 30
15 5 13 22 32
16 6 11 17 28
17 6 12 19 29
18 6 15 23 35
19 6 16 25 36
20 6 17 11 18
21 6 17 27 37
22 6 19 12 20
23 6 19 27 37
24 6 21 30 39
25 6 22 32 40
26 6 23 15 24
27 6 23 34 41
28 6 25 16 26
29 6 25 34 41
30 6 27 17 28
31 6 27 19 29
32 6 30 21 31
33 6 30 38 42
34 6 32 22 33
35 6 32 38 42
36 6 34 23 35
37 6 34 25 36
38 6 38 30 39
39 6 38 32 40
40 2 1 2 5
41 2 1 3 8
42 2 4 2 5
43 2 4 9 14
44 2 6 11 18
45 2 6 12 20
46 2 7 3 8
47 2 7 9 14
48 2 10 15 24
49 2 10 16 26
50 2 13 21 31
51 2 13 22 33
52 3 2 1 3
53 3 2 4 9
54 3 3 7 9
55 3 11 6 12
56 3 15 10 16
57 3 21 13 22
58 4 2 1 6
59 4 2 4 10
60 4 3 1 6
61 4 3 7 13
62 4 9 4 10
63 4 9 7 13
64 4 1 6 11
65 4 1 6 12
66 4 4 10 15
67 4 4 10 16
68 4 7 13 21
69 4 7 13 22

Dihedrals

1 1 6 11 17 27
2 1 6 12 19 27
3 1 10 15 23 34
4 1 10 16 25 34
5 1 13 21 30 38
6 1 13 22 32 38
7 1 6 11 17 28
8 1 6 12 19 29
9 1 10 15 23 35
10 1 10 16 25 36
11 1 13 21 30 39
12 1 13 22 32 40
13 1 11 17 27 19
14 1 12 19 27 17
15 1 15 23 34 25
16 1 16 25 34 23
17 1 21 30 38 32
18 1 22 32 38 30
19 1 11 17 27 37
20 1 12 19 27 37
21 1 15 23 34 41
22 1 16 25 34 41
23 1 17 27 19 29
24 1 19 27 17 28
25 1 21 30 38 42
26 1 22 32 38 42
27 1 23 34 25 36
28 1 25 34 23 35
29 1 18 11 17 27
30 1 20 12 19 27
31 1 30 38 32 40
32 1 32 38 30 39
33 1 24 15 23 34
34 1 26 16 25 34
35 1 31 21 30 38
36 1 33 22 32 38
37 1 18 11 17 28
38 1 20 12 19 29
39 1 24 15 23 35
40 1 26 16 25 36
41 1 28 17 27 37
42 1 29 19 27 37
43 1 31 21 30 39
44 1 33 22 32 40
45 1 35 23 34 41
46 1 36 25 34 41
47 1 39 30 38 42
48 1 40 32 38 42
49 2 1 2 4 9
50 2 1 3 7 9
51 2 3 1 2 4
52 2 3 7 9 4
53 2 2 1 3 7
54 2 2 4 9 7
55 2 1 2 4 10
56 2 1 3 7 13
57 2 4 2 1 6
58 2 4 9 7 13
59 2 6 1 3 7
60 2 7 9 4 10
61 2 3 1 2 5
62 2 5 2 4 9
63 2 2 1 3 8
64 2 8 3 7 9
65 2 2 4 9 14
66 2 3 7 9 14
67 2 12 6 11 18
68 2 11 6 12 20
69 2 16 10 15 24
70 2 15 10 16 26
71 2 22 13 21 31
72 2 21 13 22 33
73 2 5 2 1 6
74 2 5 2 4 10
75 2 6 1 3 8
76 2 8 3 7 13
77 2 10 4 9 14
78 2 13 7 9 14
79 2 1 6 11 18
80 2 1 6 12 20
81 2 4 10 15 24
82 2 4 10 16 26
83 2 7 13 21 31
84 2 7 13 22 33
85 2 1 6 11 17
86 2 1 6 12 19
87 2 4 10 15 23
88 2 4 10 16 25
89 2 7 13 21 30
90 2 7 13 22 32
91 2 12 6 11 17
92 2 11 6 12 19
93 2 16 10 15 23
94 2 15 10 16 25
95 2 22 13 21 30
96 2 21 13 22 32
97 3 2 1 6 11
98 3 2 1 6 12
99 3 2 4 10 15
100 3 2 4 10 16
101 3 3 1 6 11
102 3 3 1 6 12
103 3 3 7 13 21
104 3 3 7 13 22
105 3 9 4 10 15
106 3 9 4 10 16
107 3 9 7 13 21
108 3 9 7 13 22

Impropers

1 1 1 4 2 5
2 1 1 7 3 8
3 1 4 7 9 14
4 1 6 17 11 18
5 1 6 19 12 20
6 1 10 23 15 24
7 1 10 25 16 26
8 1 13 30 21 31
9 1 13 32 22 33
10 1 11 27 17 28
11 1 12 27 19 29
12 1 15 34 23 35
13 1 16 34 25 36
14 1 17 19 27 37
15 1 21 38 30 39
16 1 22 38 32 40
17 1 23 25 34 41
18 1 30 32 38 42

