LAMMPS Description

19 atoms
20 bonds
31 angles
46 dihedrals
7 impropers

19 atom types
4 bond types
4 angle types
2 dihedral types
1 improper types

-50.00000  50.00000 xlo xhi
-50.00000  50.00000 ylo yhi
-50.00000  50.00000 zlo zhi

Masses

1  12.01000 # CA0
2  12.01000 # CA1
3  12.01000 # CA2
4  12.01000 # CA3
5  12.01000 # CA4
6  12.01000 # CA5
7  12.01000 # CA6
8  16.00000 # OH
9  12.01000 # CA7
10   1.00800 # HA0
11  12.01000 # CA8
12   1.00800 # HA1
13  12.01000 # CA9
14   1.00800 # HA2
15   1.00800 # HA3
16   1.00800 # HO
17   1.00800 # HA4
18   1.00800 # HA5
19   1.00800 # HA6

Atoms

1 1 1  -0.00263   0.02684   0.46397   0.00007
2 1 2   0.23873   0.39272  -0.92180  -0.00006
3 1 3   0.29110  -1.34391   0.80732   0.00093
4 1 4  -0.35651  -0.61311  -1.89726  -0.00006
5 1 5  -0.29280   1.75280  -1.25556  -0.00005
6 1 6  -0.08136   1.06853   1.40903  -0.00013
7 1 7  -0.33244  -2.30616  -0.20177   0.00027
8 1 8  -0.62229  -1.76599   2.08682   0.00053
9 1 9  -0.02115  -1.95319  -1.54262  -0.00005
10 1 10   0.16146  -0.34833  -2.94891  -0.00008
11 1 11  -0.00488   2.75157  -0.29486  -0.00005
12 1 12   0.14796   2.04950  -2.29830   0.00005
13 1 13  -0.17224   2.40836   1.04355  -0.00014
14 1 14   0.14787   0.83272   2.46828  -0.00002
15 1 15   0.14292  -3.35919   0.05716   0.00005
16 1 16   0.44535  -2.72366   2.07354  -0.00137
17 1 17   0.09971  -2.72212  -2.30767  -0.00016
18 1 18   0.08668   3.79379  -0.59235   0.00006
19 1 19   0.12452   3.18447   1.80069  -0.00009

Bonds

1 4 1 2
2 4 1 3
3 4 1 6
4 4 2 4
5 4 2 5
6 4 3 7
7 2 3 8
8 4 4 9
9 3 4 10
10 4 5 11
11 3 5 12
12 4 6 13
13 3 6 14
14 4 7 9
15 3 7 15
16 1 8 16
17 3 9 17
18 4 11 13
19 3 11 18
20 3 13 19

Angles

1 3 1 2 4
2 3 1 2 5
3 3 1 3 7
4 3 1 6 13
5 3 2 1 3
6 3 2 1 6
7 3 2 4 9
8 3 2 5 11
9 3 3 1 6
10 3 3 7 9
11 3 4 2 5
12 3 4 9 7
13 3 5 11 13
14 3 6 13 11
15 2 1 6 14
16 2 2 4 10
17 2 2 5 12
18 2 3 7 15
19 2 4 9 17
20 2 5 11 18
21 2 6 13 19
22 2 7 9 17
23 2 9 4 10
24 2 9 7 15
25 2 11 5 12
26 2 11 13 19
27 2 13 6 14
28 2 13 11 18
29 1 1 3 8
30 1 7 3 8
31 4 3 8 16

Dihedrals

1 1 1 2 4 9
2 1 1 2 5 11
3 1 1 3 7 9
4 1 1 6 13 11
5 1 2 1 3 7
6 1 2 1 6 13
7 1 2 4 9 7
8 1 2 5 11 13
9 1 3 1 2 4
10 1 3 1 2 5
11 1 3 1 6 13
12 1 3 7 9 4
13 1 4 2 1 6
14 1 4 2 5 11
15 1 5 2 1 6
16 1 5 2 4 9
17 1 5 11 13 6
18 1 6 1 3 7
19 1 1 2 4 10
20 1 1 2 5 12
21 1 1 3 7 15
22 1 1 6 13 19
23 1 2 1 6 14
24 1 2 4 9 17
25 1 2 5 11 18
26 1 3 1 6 14
27 1 3 7 9 17
28 1 4 2 5 12
29 1 4 9 7 15
30 1 5 2 4 10
31 1 5 11 13 19
32 1 6 13 11 18
33 1 7 9 4 10
34 1 11 13 6 14
35 1 12 5 11 13
36 1 2 1 3 8
37 1 6 1 3 8
38 1 8 3 7 9
39 1 8 3 7 15
40 1 10 4 9 17
41 1 12 5 11 18
42 1 14 6 13 19
43 1 15 7 9 17
44 1 18 11 13 19
45 2 1 3 8 16
46 2 7 3 8 16

Impropers

1 1 1 13 6 14
2 1 2 9 4 10
3 1 2 11 5 12
4 1 3 9 7 15
5 1 4 7 9 17
6 1 5 13 11 18
7 1 6 11 13 19

