 Entering Gaussian System, Link 0=g16
 Input=_conf003.gjf
 Output=_conf003.log
 Initial command:
 /opt/ap/G16/B01/g16/l1.exe "/tmp2/scr/Gau-9994.inp" -scrdir="/tmp2/scr/"
 Entering Link 1 = /opt/ap/G16/B01/g16/l1.exe PID=      9995.
  
 Copyright (c) 1988-2017, Gaussian, Inc.  All Rights Reserved.
  
 This is part of the Gaussian(R) 16 program.  It is based on
 the Gaussian(R) 09 system (copyright 2009, Gaussian, Inc.),
 the Gaussian(R) 03 system (copyright 2003, Gaussian, Inc.),
 the Gaussian(R) 98 system (copyright 1998, Gaussian, Inc.),
 the Gaussian(R) 94 system (copyright 1995, Gaussian, Inc.),
 the Gaussian 92(TM) system (copyright 1992, Gaussian, Inc.),
 the Gaussian 90(TM) system (copyright 1990, Gaussian, Inc.),
 the Gaussian 88(TM) system (copyright 1988, Gaussian, Inc.),
 the Gaussian 86(TM) system (copyright 1986, Carnegie Mellon
 University), and the Gaussian 82(TM) system (copyright 1983,
 Carnegie Mellon University). Gaussian is a federally registered
 trademark of Gaussian, Inc.
  
 This software contains proprietary and confidential information,
 including trade secrets, belonging to Gaussian, Inc.
  
 This software is provided under written license and may be
 used, copied, transmitted, or stored only in accord with that
 written license.
  
 The following legend is applicable only to US Government
 contracts under FAR:
  
                    RESTRICTED RIGHTS LEGEND
  
 Use, reproduction and disclosure by the US Government is
 subject to restrictions as set forth in subparagraphs (a)
 and (c) of the Commercial Computer Software - Restricted
 Rights clause in FAR 52.227-19.
  
 Gaussian, Inc.
 340 Quinnipiac St., Bldg. 40, Wallingford CT 06492
  
  
 ---------------------------------------------------------------
 Warning -- This program may not be used in any manner that
 competes with the business of Gaussian, Inc. or will provide
 assistance to any competitor of Gaussian, Inc.  The licensee
 of this program is prohibited from giving any competitor of
 Gaussian, Inc. access to this program.  By using this program,
 the user acknowledges that Gaussian, Inc. is engaged in the
 business of creating and licensing software in the field of
 computational chemistry and represents and warrants to the
 licensee that it is not a competitor of Gaussian, Inc. and that
 it will not use this program in any manner prohibited above.
 ---------------------------------------------------------------
  

 Cite this work as:
 Gaussian 16, Revision B.01,
 M. J. Frisch, G. W. Trucks, H. B. Schlegel, G. E. Scuseria, 
 M. A. Robb, J. R. Cheeseman, G. Scalmani, V. Barone, 
 G. A. Petersson, H. Nakatsuji, X. Li, M. Caricato, A. V. Marenich, 
 J. Bloino, B. G. Janesko, R. Gomperts, B. Mennucci, H. P. Hratchian, 
 J. V. Ortiz, A. F. Izmaylov, J. L. Sonnenberg, D. Williams-Young, 
 F. Ding, F. Lipparini, F. Egidi, J. Goings, B. Peng, A. Petrone, 
 T. Henderson, D. Ranasinghe, V. G. Zakrzewski, J. Gao, N. Rega, 
 G. Zheng, W. Liang, M. Hada, M. Ehara, K. Toyota, R. Fukuda, 
 J. Hasegawa, M. Ishida, T. Nakajima, Y. Honda, O. Kitao, H. Nakai, 
 T. Vreven, K. Throssell, J. A. Montgomery, Jr., J. E. Peralta, 
 F. Ogliaro, M. J. Bearpark, J. J. Heyd, E. N. Brothers, K. N. Kudin, 
 V. N. Staroverov, T. A. Keith, R. Kobayashi, J. Normand, 
 K. Raghavachari, A. P. Rendell, J. C. Burant, S. S. Iyengar, 
 J. Tomasi, M. Cossi, J. M. Millam, M. Klene, C. Adamo, R. Cammi, 
 J. W. Ochterski, R. L. Martin, K. Morokuma, O. Farkas, 
 J. B. Foresman, and D. J. Fox, Gaussian, Inc., Wallingford CT, 2016.
 
 ******************************************
 Gaussian 16:  ES64L-G16RevB.01 20-Dec-2017
                20-Nov-2022 
 ******************************************
 %nprocshared=32
 Will use up to   32 processors via shared memory.
 %mem=120GB
 %chk=_conf003.chk
 ----------------------------------------
 #P wB97XD/6-311++G(d,p) scf=maxcycle=512
 ----------------------------------------
 1/38=1,172=1/1;
 2/12=2,17=6,18=5,40=1/2;
 3/5=4,6=6,7=1111,11=2,25=1,30=1,74=-58/1,2,3;
 4//1;
 5/5=2,7=512,38=5/2;
 6/7=2,8=2,9=2,10=2,28=1/1;
 99/5=1,9=1/99;
 Leave Link    1 at Sun Nov 20 17:25:38 2022, MaxMem= 16106127360 cpu:               2.4 elap:               0.1
 (Enter /opt/ap/G16/B01/g16/l101.exe)
 ----------------------------
 _conf003.gjf nmol_natom 1_15
 ----------------------------
 Symbolic Z-matrix:
 Charge =  0 Multiplicity = 1
 C
 C                    1     1.39016 
 C                    1     1.39195  2     119.89594 
 C                    2     1.38669  1     119.88076  3     0.70826  0
 H                    2     0.98744  1     119.71654  3    -179.90726  0
 C                    1     1.48429  2     119.93615  4    -179.87772  0
 C                    3     1.40101  1     119.72365  2    -0.26267  0
 H                    3     0.99022  1     119.18862  2     178.85398  0
 C                    4     1.37899  2     120.45786  1    -0.48041  0
 H                    4     0.98347  2     120.30443  1     179.36167  0
 O                    6     1.2746   1     118.00615  2    -1.25977  0
 O                    6     1.26363  1     118.77715  2     179.20604  0
 H                    7     0.98977  3     119.37862  1    -178.93546  0
 H                    9     0.99498  4     119.46723  2    -178.58827  0
 H                    11    0.8968   6     118.15824  1    -255.     0
 
 ITRead=  0  0  0  0  0  0  0  0  0  0  0  0  0  0  0
 MicOpt= -1 -1 -1 -1 -1 -1 -1 -1 -1 -1 -1 -1 -1 -1 -1
 NAtoms=     15 NQM=       15 NQMF=       0 NMMI=      0 NMMIF=      0
                NMic=       0 NMicF=      0.
                    Isotopes and Nuclear Properties:
 (Nuclear quadrupole moments (NQMom) in fm**2, nuclear magnetic moments (NMagM)
  in nuclear magnetons)

  Atom         1           2           3           4           5           6           7           8           9          10
 IAtWgt=          12          12          12          12           1          12          12           1          12           1
 AtmWgt=  12.0000000  12.0000000  12.0000000  12.0000000   1.0078250  12.0000000  12.0000000   1.0078250  12.0000000   1.0078250
 NucSpn=           0           0           0           0           1           0           0           1           0           1
 AtZEff=  -0.0000000  -0.0000000  -0.0000000  -0.0000000  -0.0000000  -0.0000000  -0.0000000  -0.0000000  -0.0000000  -0.0000000
 NQMom=    0.0000000   0.0000000   0.0000000   0.0000000   0.0000000   0.0000000   0.0000000   0.0000000   0.0000000   0.0000000
 NMagM=    0.0000000   0.0000000   0.0000000   0.0000000   2.7928460   0.0000000   0.0000000   2.7928460   0.0000000   2.7928460
 AtZNuc=   6.0000000   6.0000000   6.0000000   6.0000000   1.0000000   6.0000000   6.0000000   1.0000000   6.0000000   1.0000000

  Atom        11          12          13          14          15
 IAtWgt=          16          16           1           1           1
 AtmWgt=  15.9949146  15.9949146   1.0078250   1.0078250   1.0078250
 NucSpn=           0           0           1           1           1
 AtZEff=  -0.0000000  -0.0000000  -0.0000000  -0.0000000  -0.0000000
 NQMom=    0.0000000   0.0000000   0.0000000   0.0000000   0.0000000
 NMagM=    0.0000000   0.0000000   2.7928460   2.7928460   2.7928460
 AtZNuc=   8.0000000   8.0000000   1.0000000   1.0000000   1.0000000
 Leave Link  101 at Sun Nov 20 17:25:38 2022, MaxMem= 16106127360 cpu:               6.1 elap:               0.2
 (Enter /opt/ap/G16/B01/g16/l202.exe)
                          Input orientation:                          
 ---------------------------------------------------------------------
 Center     Atomic      Atomic             Coordinates (Angstroms)
 Number     Number       Type             X           Y           Z
 ---------------------------------------------------------------------
      1          6           0        0.000000    0.000000    0.000000
      2          6           0        0.000000    0.000000    1.390162
      3          6           0        1.206722    0.000000   -0.693782
      4          6           0        1.202258    0.014862    2.081006
      5          1           0       -0.857581   -0.001388    1.879646
      6          6           0       -1.286190   -0.013155   -0.740711
      7          6           0        2.415349    0.005578    0.014752
      8          1           0        1.194584   -0.017290   -1.683772
      9          6           0        2.400563    0.019708    1.398617
     10          1           0        1.209438    0.024411    3.064408
     11          8           0       -2.365984   -0.048941   -0.064425
     12          8           0       -1.260842    0.002453   -2.003986
     13          1           0        3.270315    0.021574   -0.483669
     14          1           0        3.254554    0.009066    1.909081
     15          1           0       -2.849344    0.703592    0.001261
 ---------------------------------------------------------------------
                    Distance matrix (angstroms):
                    1          2          3          4          5
     1  C    0.000000
     2  C    1.390162   0.000000
     3  C    1.391945   2.408112   0.000000
     4  C    2.403379   1.386690   2.774832   0.000000
     5  H    2.066039   0.987443   3.299073   2.069721   0.000000
     6  C    1.484288   2.488991   2.493388   3.762345   2.655206
     7  C    2.415401   2.779513   1.401011   2.396056   3.766955
     8  H    2.064563   3.297939   0.990215   3.764924   4.112127
     9  C    2.778349   2.400659   2.409104   1.378990   3.293530
    10  H    3.294530   2.065535   3.758270   0.983474   2.382624
    11  O    2.367367   2.777786   3.628045   4.164047   2.461088
    12  O    2.367633   3.620769   2.793834   4.770133   3.904515
    13  H    3.305958   3.769173   2.074374   3.294611   4.756607
    14  H    3.773167   3.295676   3.311886   2.059493   4.112253
    15  H    2.934928   3.246975   4.174901   4.605992   2.827091
                    6          7          8          9         10
     6  C    0.000000
     7  C    3.777892   0.000000
     8  H    2.653982   2.091836   0.000000
     9  C    4.262622   1.384016   3.310118   0.000000
    10  H    4.550659   3.279477   4.748386   2.047842   0.000000
    11  O    1.274598   4.782299   3.911641   4.986499   4.751696
    12  O    1.263626   4.194007   2.476296   4.998389   5.638384
    13  H    4.563881   0.989771   2.398003   2.073517   4.103177
    14  H    5.257398   2.071897   4.141589   0.994981   2.348938
    15  H    1.872885   5.310781   4.439860   5.475566   5.130094
                   11         12         13         14         15
    11  O    0.000000
    12  O    2.232908   0.000000
    13  H    5.652309   4.779447   0.000000
    14  H    5.957225   5.975025   2.392834   0.000000
    15  H    0.896804   2.652537   6.176611   6.432706   0.000000
 Stoichiometry    C7H6O2
 Framework group  C1[X(C7H6O2)]
 Deg. of freedom    39
 Full point group                 C1      NOp   1
 Largest Abelian subgroup         C1      NOp   1
 Largest concise Abelian subgroup C1      NOp   1
                         Standard orientation:                         
 ---------------------------------------------------------------------
 Center     Atomic      Atomic             Coordinates (Angstroms)
 Number     Number       Type             X           Y           Z
 ---------------------------------------------------------------------
      1          6           0       -0.228423    0.033527   -0.008256
      2          6           0        0.433087   -1.189118   -0.018011
      3          6           0        0.502782    1.217895    0.002770
      4          6           0        1.819225   -1.224777   -0.001862
      5          1           0       -0.088254   -2.027665   -0.027209
      6          6           0       -1.712112    0.073092   -0.022776
      7          6           0        1.902950    1.169788    0.009542
      8          1           0        0.021038    2.082963   -0.007635
      9          6           0        2.548443   -0.054476    0.013887
     10          1           0        2.293482   -2.086342    0.000823
     11          8           0       -2.339966   -1.035186   -0.068816
     12          8           0       -2.290967    1.196066    0.001825
     13          1           0        2.417722    2.014825    0.033398
     14          1           0        3.542466   -0.096985    0.004020
     15          1           0       -2.734701   -1.329423    0.680762
 ---------------------------------------------------------------------
 Rotational constants (GHZ):           3.9299539           1.2464288           0.9482275
 Leave Link  202 at Sun Nov 20 17:25:38 2022, MaxMem= 16106127360 cpu:               0.9 elap:               0.0
 (Enter /opt/ap/G16/B01/g16/l301.exe)
 Standard basis: 6-311++G(d,p) (5D, 7F)
 Ernie: Thresh=  0.10000D-02 Tol=  0.10000D-05 Strict=F.
 There are   249 symmetry adapted cartesian basis functions of A   symmetry.
 There are   240 symmetry adapted basis functions of A   symmetry.
   240 basis functions,   378 primitive gaussians,   249 cartesian basis functions
    32 alpha electrons       32 beta electrons
       nuclear repulsion energy       409.8027598769 Hartrees.
 IExCor= 4639 DFT=T Ex+Corr=wB97XD ExCW=0 ScaHFX=  1.000000
 ScaDFX=  1.000000  1.000000  1.000000  1.000000 ScalE2=  1.000000  1.000000
 IRadAn=      5 IRanWt=     -1 IRanGd=            0 ICorTp=0 IEmpDi=121
 HFx  wShort=  0.000000 wLong=  0.200000 cFull=  0.222036 cShort=  0.000000 cLong=  0.777964
 DFx  wShort=  0.000000 wLong=  0.200000 cFull=  0.000000 cShort=  0.000000 cLong=  1.000000
 NAtoms=   15 NActive=   15 NUniq=   15 SFac= 1.00D+00 NAtFMM=   60 NAOKFM=F Big=F
 Integral buffers will be    131072 words long.
 Raffenetti 2 integral format.
 Two-electron integral symmetry is turned on.
 R6Disp:  Grimme-D2 Dispersion energy=       -0.0065256132 Hartrees.
 Nuclear repulsion after empirical dispersion term =      409.7962342637 Hartrees.
 Leave Link  301 at Sun Nov 20 17:25:38 2022, MaxMem= 16106127360 cpu:               1.3 elap:               0.0
 (Enter /opt/ap/G16/B01/g16/l302.exe)
 NPDir=0 NMtPBC=     1 NCelOv=     1 NCel=       1 NClECP=     1 NCelD=      1
         NCelK=      1 NCelE2=     1 NClLst=     1 CellRange=     0.0.
 One-electron integrals computed using PRISM.
 One-electron integral symmetry used in STVInt
 NBasis=   240 RedAO= T EigKep=  1.19D-06  NBF=   240
 NBsUse=   240 1.00D-06 EigRej= -1.00D+00 NBFU=   240
 Precomputing XC quadrature grid using
 IXCGrd= 4 IRadAn=           5 IRanWt=          -1 IRanGd=           0 AccXCQ= 0.00D+00.
 Generated NRdTot=       0 NPtTot=           0 NUsed=           0 NTot=          32
 NSgBfM=   249   249   249   249   249 MxSgAt=    15 MxSgA2=    15.
 Leave Link  302 at Sun Nov 20 17:25:38 2022, MaxMem= 16106127360 cpu:               6.2 elap:               0.2
 (Enter /opt/ap/G16/B01/g16/l303.exe)
 DipDrv:  MaxL=1.
 Leave Link  303 at Sun Nov 20 17:25:38 2022, MaxMem= 16106127360 cpu:               1.3 elap:               0.1
 (Enter /opt/ap/G16/B01/g16/l401.exe)
 ExpMin= 3.60D-02 ExpMax= 8.59D+03 ExpMxC= 1.30D+03 IAcc=3 IRadAn=         5 AccDes= 0.00D+00
 Harris functional with IExCor= 4639 and IRadAn=       5 diagonalized for initial guess.
 HarFok:  IExCor= 4639 AccDes= 0.00D+00 IRadAn=         5 IDoV= 1 UseB2=F ITyADJ=14
 ICtDFT=  3500011 ScaDFX=  1.000000  1.000000  1.000000  1.000000
 FoFCou: FMM=F IPFlag=           0 FMFlag=      100000 FMFlg1=           0
         NFxFlg=           0 DoJE=T BraDBF=F KetDBF=T FulRan=T
         wScrn=  0.000000 ICntrl=       500 IOpCl=  0 I1Cent=   200000004 NGrid=           0
         NMat0=    1 NMatS0=      1 NMatT0=    0 NMatD0=    1 NMtDS0=    0 NMtDT0=    0
 Petite list used in FoFCou.
 Harris En= -403.239235046758    
 JPrj=0 DoOrth=F DoCkMO=F.
 Leave Link  401 at Sun Nov 20 17:25:39 2022, MaxMem= 16106127360 cpu:              12.6 elap:               0.4
 (Enter /opt/ap/G16/B01/g16/l502.exe)
 Integral symmetry usage will be decided dynamically.
 Closed shell SCF:
 Using DIIS extrapolation, IDIIS=  1040.
 NGot= 16106127360 LenX= 16105992971 LenY= 16105930529
 Requested convergence on RMS density matrix=1.00D-08 within 512 cycles.
 Requested convergence on MAX density matrix=1.00D-06.
 Requested convergence on             energy=1.00D-06.
 No special actions if energy rises.
 Fock matrices will be formed incrementally for  20 cycles.

 Cycle   1  Pass 1  IDiag  1:
 FoFJK:  IHMeth= 1 ICntrl=       0 DoSepK=T KAlg= 0 I1Cent=           0 FoldK=F
 IRaf=         1 NMat=       1 IRICut=       1 DoRegI=T DoRafI=F ISym2E= 0 IDoP0=0 IntGTp=1.
 FoFCou: FMM=F IPFlag=           0 FMFlag=      100000 FMFlg1=           0
         NFxFlg=           0 DoJE=T BraDBF=F KetDBF=F FulRan=T
         wScrn=  0.000000 ICntrl=       500 IOpCl=  0 I1Cent=           0 NGrid=           0
         NMat0=    1 NMatS0=      1 NMatT0=    0 NMatD0=    1 NMtDS0=    0 NMtDT0=    0
 Symmetry not used in FoFCou.
 E= -420.617540152982    
 DIIS: error= 5.23D-02 at cycle   1 NSaved=   1.
 NSaved= 1 IEnMin= 1 EnMin= -420.617540152982     IErMin= 1 ErrMin= 5.23D-02
 ErrMax= 5.23D-02  0.00D+00 EMaxC= 1.00D-01 BMatC= 8.57D-01 BMatP= 8.57D-01
 IDIUse=3 WtCom= 4.77D-01 WtEn= 5.23D-01
 Coeff-Com:  0.100D+01
 Coeff-En:   0.100D+01
 Coeff:      0.100D+01
 Gap=     0.424 Goal=   None    Shift=    0.000
 GapD=    0.424 DampG=2.000 DampE=0.500 DampFc=1.0000 IDamp=-1.
 RMSDP=3.14D-02 MaxDP=2.05D+00              OVMax= 1.06D-01

 Cycle   2  Pass 1  IDiag  1:
 RMSU=  1.46D-02    CP:  6.51D-01
 E= -420.691379858263     Delta-E=       -0.073839705281 Rises=F Damp=F
 DIIS: error= 1.03D-02 at cycle   2 NSaved=   2.
 NSaved= 2 IEnMin= 2 EnMin= -420.691379858263     IErMin= 2 ErrMin= 1.03D-02
 ErrMax= 1.03D-02  0.00D+00 EMaxC= 1.00D-01 BMatC= 4.63D-02 BMatP= 8.57D-01
 IDIUse=3 WtCom= 8.97D-01 WtEn= 1.03D-01
 Coeff-Com:  0.123D+00 0.877D+00
 Coeff-En:   0.233D-01 0.977D+00
 Coeff:      0.113D+00 0.887D+00
 Gap=     0.421 Goal=   None    Shift=    0.000
 RMSDP=8.14D-03 MaxDP=5.90D-01 DE=-7.38D-02 OVMax= 7.75D-02

 Cycle   3  Pass 1  IDiag  1:
 RMSU=  5.95D-03    CP:  6.10D-01  6.93D-01
 E= -420.708674244388     Delta-E=       -0.017294386125 Rises=F Damp=F
 DIIS: error= 8.65D-03 at cycle   3 NSaved=   3.
 NSaved= 3 IEnMin= 3 EnMin= -420.708674244388     IErMin= 3 ErrMin= 8.65D-03
 ErrMax= 8.65D-03  0.00D+00 EMaxC= 1.00D-01 BMatC= 2.39D-02 BMatP= 4.63D-02
 IDIUse=3 WtCom= 9.14D-01 WtEn= 8.65D-02
 Coeff-Com:  0.232D-01 0.426D+00 0.551D+00
 Coeff-En:   0.000D+00 0.338D+00 0.662D+00
 Coeff:      0.212D-01 0.419D+00 0.560D+00
 Gap=     0.360 Goal=   None    Shift=    0.000
 RMSDP=3.55D-03 MaxDP=2.60D-01 DE=-1.73D-02 OVMax= 3.22D-02

 Cycle   4  Pass 1  IDiag  1:
 RMSU=  1.27D-03    CP:  6.01D-01  8.60D-01  6.40D-01
 E= -420.728218499570     Delta-E=       -0.019544255183 Rises=F Damp=F
 DIIS: error= 1.41D-03 at cycle   4 NSaved=   4.
 NSaved= 4 IEnMin= 4 EnMin= -420.728218499570     IErMin= 4 ErrMin= 1.41D-03
 ErrMax= 1.41D-03  0.00D+00 EMaxC= 1.00D-01 BMatC= 7.60D-04 BMatP= 2.39D-02
 IDIUse=3 WtCom= 9.86D-01 WtEn= 1.41D-02
 Coeff-Com:  0.946D-02 0.205D+00 0.293D+00 0.493D+00
 Coeff-En:   0.000D+00 0.000D+00 0.000D+00 0.100D+01
 Coeff:      0.933D-02 0.202D+00 0.289D+00 0.500D+00
 Gap=     0.342 Goal=   None    Shift=    0.000
 RMSDP=8.02D-04 MaxDP=5.81D-02 DE=-1.95D-02 OVMax= 6.82D-03

 Cycle   5  Pass 1  IDiag  1:
 RMSU=  5.42D-04    CP:  5.96D-01  8.48D-01  6.75D-01  8.03D-01
 E= -420.728743196501     Delta-E=       -0.000524696930 Rises=F Damp=F
 DIIS: error= 4.10D-04 at cycle   5 NSaved=   5.
 NSaved= 5 IEnMin= 5 EnMin= -420.728743196501     IErMin= 5 ErrMin= 4.10D-04
 ErrMax= 4.10D-04  0.00D+00 EMaxC= 1.00D-01 BMatC= 5.12D-05 BMatP= 7.60D-04
 IDIUse=3 WtCom= 9.96D-01 WtEn= 4.10D-03
 Coeff-Com:  0.902D-04 0.101D-01 0.244D-01 0.205D+00 0.760D+00
 Coeff-En:   0.000D+00 0.000D+00 0.000D+00 0.000D+00 0.100D+01
 Coeff:      0.898D-04 0.100D-01 0.243D-01 0.205D+00 0.761D+00
 Gap=     0.342 Goal=   None    Shift=    0.000
 RMSDP=2.19D-04 MaxDP=1.30D-02 DE=-5.25D-04 OVMax= 2.16D-03

 Cycle   6  Pass 1  IDiag  1:
 RMSU=  1.23D-04    CP:  5.94D-01  8.50D-01  6.92D-01  8.23D-01  1.04D+00
 E= -420.728782972862     Delta-E=       -0.000039776362 Rises=F Damp=F
 DIIS: error= 1.54D-04 at cycle   6 NSaved=   6.
 NSaved= 6 IEnMin= 6 EnMin= -420.728782972862     IErMin= 6 ErrMin= 1.54D-04
 ErrMax= 1.54D-04  0.00D+00 EMaxC= 1.00D-01 BMatC= 7.36D-06 BMatP= 5.12D-05
 IDIUse=3 WtCom= 9.98D-01 WtEn= 1.54D-03
 Coeff-Com: -0.102D-02-0.182D-01-0.209D-01 0.345D-01 0.353D+00 0.652D+00
 Coeff-En:   0.000D+00 0.000D+00 0.000D+00 0.000D+00 0.000D+00 0.100D+01
 Coeff:     -0.102D-02-0.182D-01-0.209D-01 0.344D-01 0.353D+00 0.653D+00
 Gap=     0.342 Goal=   None    Shift=    0.000
 RMSDP=1.54D-04 MaxDP=1.23D-02 DE=-3.98D-05 OVMax= 8.11D-04

 Cycle   7  Pass 1  IDiag  1:
 RMSU=  3.99D-05    CP:  5.92D-01  8.48D-01  7.01D-01  8.37D-01  1.15D+00
                    CP:  1.04D+00
 E= -420.728789877215     Delta-E=       -0.000006904352 Rises=F Damp=F
 DIIS: error= 7.49D-05 at cycle   7 NSaved=   7.
 NSaved= 7 IEnMin= 7 EnMin= -420.728789877215     IErMin= 7 ErrMin= 7.49D-05
 ErrMax= 7.49D-05  0.00D+00 EMaxC= 1.00D-01 BMatC= 3.06D-07 BMatP= 7.36D-06
 IDIUse=1 WtCom= 1.00D+00 WtEn= 0.00D+00
 Coeff-Com: -0.279D-03-0.632D-02-0.838D-02-0.147D-01 0.204D-01 0.155D+00
 Coeff-Com:  0.854D+00
 Coeff:     -0.279D-03-0.632D-02-0.838D-02-0.147D-01 0.204D-01 0.155D+00
 Coeff:      0.854D+00
 Gap=     0.342 Goal=   None    Shift=    0.000
 RMSDP=3.66D-05 MaxDP=1.89D-03 DE=-6.90D-06 OVMax= 3.70D-04

 Cycle   8  Pass 1  IDiag  1:
 RMSU=  1.15D-05    CP:  5.92D-01  8.48D-01  7.03D-01  8.40D-01  1.19D+00
                    CP:  1.09D+00  1.09D+00
 E= -420.728790447149     Delta-E=       -0.000000569934 Rises=F Damp=F
 DIIS: error= 1.70D-05 at cycle   8 NSaved=   8.
 NSaved= 8 IEnMin= 8 EnMin= -420.728790447149     IErMin= 8 ErrMin= 1.70D-05
 ErrMax= 1.70D-05  0.00D+00 EMaxC= 1.00D-01 BMatC= 4.87D-08 BMatP= 3.06D-07
 IDIUse=1 WtCom= 1.00D+00 WtEn= 0.00D+00
 Coeff-Com:  0.157D-04-0.944D-04-0.476D-03-0.975D-02-0.334D-01-0.282D-01
 Coeff-Com:  0.276D+00 0.795D+00
 Coeff:      0.157D-04-0.944D-04-0.476D-03-0.975D-02-0.334D-01-0.282D-01
 Coeff:      0.276D+00 0.795D+00
 Gap=     0.342 Goal=   None    Shift=    0.000
 RMSDP=1.29D-05 MaxDP=7.23D-04 DE=-5.70D-07 OVMax= 1.36D-04

 Cycle   9  Pass 1  IDiag  1:
 RMSU=  6.27D-06    CP:  5.92D-01  8.48D-01  7.03D-01  8.39D-01  1.21D+00
                    CP:  1.11D+00  1.14D+00  1.17D+00
 E= -420.728790527064     Delta-E=       -0.000000079915 Rises=F Damp=F
 DIIS: error= 9.86D-06 at cycle   9 NSaved=   9.
 NSaved= 9 IEnMin= 9 EnMin= -420.728790527064     IErMin= 9 ErrMin= 9.86D-06
 ErrMax= 9.86D-06  0.00D+00 EMaxC= 1.00D-01 BMatC= 6.50D-09 BMatP= 4.87D-08
 IDIUse=1 WtCom= 1.00D+00 WtEn= 0.00D+00
 Coeff-Com:  0.421D-04 0.804D-03 0.915D-03-0.167D-02-0.130D-01-0.314D-01
 Coeff-Com: -0.981D-02 0.277D+00 0.777D+00
 Coeff:      0.421D-04 0.804D-03 0.915D-03-0.167D-02-0.130D-01-0.314D-01
 Coeff:     -0.981D-02 0.277D+00 0.777D+00
 Gap=     0.342 Goal=   None    Shift=    0.000
 RMSDP=4.69D-06 MaxDP=2.14D-04 DE=-7.99D-08 OVMax= 5.17D-05

 Cycle  10  Pass 1  IDiag  1:
 RMSU=  1.97D-06    CP:  5.92D-01  8.48D-01  7.03D-01  8.37D-01  1.22D+00
                    CP:  1.12D+00  1.15D+00  1.26D+00  1.23D+00
 E= -420.728790536571     Delta-E=       -0.000000009507 Rises=F Damp=F
 DIIS: error= 1.34D-06 at cycle  10 NSaved=  10.
 NSaved=10 IEnMin=10 EnMin= -420.728790536571     IErMin=10 ErrMin= 1.34D-06
 ErrMax= 1.34D-06  0.00D+00 EMaxC= 1.00D-01 BMatC= 7.43D-10 BMatP= 6.50D-09
 IDIUse=1 WtCom= 1.00D+00 WtEn= 0.00D+00
 Coeff-Com:  0.100D-04 0.213D-03 0.258D-03 0.397D-03 0.336D-03-0.680D-02
 Coeff-Com: -0.293D-01-0.602D-02 0.240D+00 0.801D+00
 Coeff:      0.100D-04 0.213D-03 0.258D-03 0.397D-03 0.336D-03-0.680D-02
 Coeff:     -0.293D-01-0.602D-02 0.240D+00 0.801D+00
 Gap=     0.342 Goal=   None    Shift=    0.000
 RMSDP=1.91D-06 MaxDP=1.52D-04 DE=-9.51D-09 OVMax= 1.28D-05

 Cycle  11  Pass 1  IDiag  1:
 RMSU=  6.08D-07    CP:  5.92D-01  8.48D-01  7.03D-01  8.37D-01  1.22D+00
                    CP:  1.12D+00  1.15D+00  1.31D+00  1.36D+00  1.21D+00
 E= -420.728790537637     Delta-E=       -0.000000001065 Rises=F Damp=F
 DIIS: error= 5.39D-07 at cycle  11 NSaved=  11.
 NSaved=11 IEnMin=11 EnMin= -420.728790537637     IErMin=11 ErrMin= 5.39D-07
 ErrMax= 5.39D-07  0.00D+00 EMaxC= 1.00D-01 BMatC= 9.09D-11 BMatP= 7.43D-10
 IDIUse=1 WtCom= 1.00D+00 WtEn= 0.00D+00
 Coeff-Com: -0.185D-05-0.184D-04-0.143D-04 0.366D-03 0.192D-02 0.121D-02
 Coeff-Com: -0.781D-02-0.412D-01-0.267D-01 0.250D+00 0.822D+00
 Coeff:     -0.185D-05-0.184D-04-0.143D-04 0.366D-03 0.192D-02 0.121D-02
 Coeff:     -0.781D-02-0.412D-01-0.267D-01 0.250D+00 0.822D+00
 Gap=     0.342 Goal=   None    Shift=    0.000
 RMSDP=7.26D-07 MaxDP=4.83D-05 DE=-1.07D-09 OVMax= 6.28D-06

 Cycle  12  Pass 1  IDiag  1:
 RMSU=  1.79D-07    CP:  5.92D-01  8.48D-01  7.03D-01  8.37D-01  1.22D+00
                    CP:  1.11D+00  1.14D+00  1.31D+00  1.41D+00  1.36D+00
                    CP:  1.29D+00
 E= -420.728790537783     Delta-E=       -0.000000000146 Rises=F Damp=F
 DIIS: error= 1.87D-07 at cycle  12 NSaved=  12.
 NSaved=12 IEnMin=12 EnMin= -420.728790537783     IErMin=12 ErrMin= 1.87D-07
 ErrMax= 1.87D-07  0.00D+00 EMaxC= 1.00D-01 BMatC= 8.18D-12 BMatP= 9.09D-11
 IDIUse=1 WtCom= 1.00D+00 WtEn= 0.00D+00
 Coeff-Com: -0.120D-05-0.196D-04-0.215D-04 0.749D-04 0.516D-03 0.671D-03
 Coeff-Com:  0.548D-03-0.107D-01-0.250D-01 0.707D-02 0.232D+00 0.795D+00
 Coeff:     -0.120D-05-0.196D-04-0.215D-04 0.749D-04 0.516D-03 0.671D-03
 Coeff:      0.548D-03-0.107D-01-0.250D-01 0.707D-02 0.232D+00 0.795D+00
 Gap=     0.342 Goal=   None    Shift=    0.000
 RMSDP=1.25D-07 MaxDP=6.89D-06 DE=-1.46D-10 OVMax= 2.71D-06

 Cycle  13  Pass 1  IDiag  1:
 RMSU=  5.05D-08    CP:  5.92D-01  8.48D-01  7.03D-01  8.37D-01  1.22D+00
                    CP:  1.11D+00  1.14D+00  1.31D+00  1.42D+00  1.38D+00
                    CP:  1.36D+00  1.09D+00
 E= -420.728790537802     Delta-E=       -0.000000000019 Rises=F Damp=F
 DIIS: error= 7.49D-08 at cycle  13 NSaved=  13.
 NSaved=13 IEnMin=13 EnMin= -420.728790537802     IErMin=13 ErrMin= 7.49D-08
 ErrMax= 7.49D-08  0.00D+00 EMaxC= 1.00D-01 BMatC= 1.16D-12 BMatP= 8.18D-12
 IDIUse=1 WtCom= 1.00D+00 WtEn= 0.00D+00
 Coeff-Com:  0.636D-07-0.305D-05-0.557D-05-0.529D-04-0.237D-03-0.119D-03
 Coeff-Com:  0.167D-02 0.511D-02-0.721D-03-0.452D-01-0.106D+00 0.138D+00
 Coeff-Com:  0.101D+01
 Coeff:      0.636D-07-0.305D-05-0.557D-05-0.529D-04-0.237D-03-0.119D-03
 Coeff:      0.167D-02 0.511D-02-0.721D-03-0.452D-01-0.106D+00 0.138D+00
 Coeff:      0.101D+01
 Gap=     0.342 Goal=   None    Shift=    0.000
 RMSDP=6.94D-08 MaxDP=4.94D-06 DE=-1.94D-11 OVMax= 2.19D-06

 Cycle  14  Pass 1  IDiag  1:
 RMSU=  2.36D-08    CP:  5.92D-01  8.48D-01  7.03D-01  8.37D-01  1.22D+00
                    CP:  1.11D+00  1.14D+00  1.31D+00  1.42D+00  1.39D+00
                    CP:  1.43D+00  1.22D+00  1.27D+00
 E= -420.728790537812     Delta-E=       -0.000000000009 Rises=F Damp=F
 DIIS: error= 3.98D-08 at cycle  14 NSaved=  14.
 NSaved=14 IEnMin=14 EnMin= -420.728790537812     IErMin=14 ErrMin= 3.98D-08
 ErrMax= 3.98D-08  0.00D+00 EMaxC= 1.00D-01 BMatC= 1.44D-13 BMatP= 1.16D-12
 IDIUse=1 WtCom= 1.00D+00 WtEn= 0.00D+00
 Coeff-Com:  0.125D-06 0.219D-05 0.238D-05-0.118D-04-0.794D-04-0.732D-04
 Coeff-Com:  0.560D-04 0.159D-02 0.260D-02-0.463D-02-0.309D-01-0.862D-01
 Coeff-Com:  0.601D-01 0.106D+01
 Coeff:      0.125D-06 0.219D-05 0.238D-05-0.118D-04-0.794D-04-0.732D-04
 Coeff:      0.560D-04 0.159D-02 0.260D-02-0.463D-02-0.309D-01-0.862D-01
 Coeff:      0.601D-01 0.106D+01
 Gap=     0.342 Goal=   None    Shift=    0.000
 RMSDP=1.81D-08 MaxDP=6.54D-07 DE=-9.32D-12 OVMax= 9.92D-07

 Cycle  15  Pass 1  IDiag  1:
 RMSU=  9.22D-09    CP:  5.92D-01  8.48D-01  7.03D-01  8.37D-01  1.22D+00
                    CP:  1.11D+00  1.14D+00  1.31D+00  1.42D+00  1.39D+00
                    CP:  1.43D+00  1.22D+00  1.43D+00  1.36D+00
 E= -420.728790537812     Delta-E=       -0.000000000001 Rises=F Damp=F
 DIIS: error= 1.96D-08 at cycle  15 NSaved=  15.
 NSaved=15 IEnMin=15 EnMin= -420.728790537812     IErMin=15 ErrMin= 1.96D-08
 ErrMax= 1.96D-08  0.00D+00 EMaxC= 1.00D-01 BMatC= 4.29D-14 BMatP= 1.44D-13
 IDIUse=1 WtCom= 1.00D+00 WtEn= 0.00D+00
 Coeff-Com:  0.269D-07 0.130D-05 0.190D-05 0.599D-05 0.170D-04 0.684D-05
 Coeff-Com: -0.301D-03-0.394D-03 0.958D-03 0.708D-02 0.103D-01-0.538D-01
 Coeff-Com: -0.179D+00 0.367D+00 0.848D+00
 Coeff:      0.269D-07 0.130D-05 0.190D-05 0.599D-05 0.170D-04 0.684D-05
 Coeff:     -0.301D-03-0.394D-03 0.958D-03 0.708D-02 0.103D-01-0.538D-01
 Coeff:     -0.179D+00 0.367D+00 0.848D+00
 Gap=     0.342 Goal=   None    Shift=    0.000
 RMSDP=1.00D-08 MaxDP=4.31D-07 DE=-5.68D-13 OVMax= 3.98D-07

 Cycle  16  Pass 1  IDiag  1:
 RMSU=  4.12D-09    CP:  5.92D-01  8.48D-01  7.03D-01  8.37D-01  1.22D+00
                    CP:  1.11D+00  1.14D+00  1.31D+00  1.42D+00  1.39D+00
                    CP:  1.43D+00  1.21D+00  1.46D+00  1.58D+00  1.31D+00
 E= -420.728790537811     Delta-E=        0.000000000001 Rises=F Damp=F
 DIIS: error= 8.38D-09 at cycle  16 NSaved=  16.
 NSaved=16 IEnMin=15 EnMin= -420.728790537812     IErMin=16 ErrMin= 8.38D-09
 ErrMax= 8.38D-09  0.00D+00 EMaxC= 1.00D-01 BMatC= 5.59D-15 BMatP= 4.29D-14
 IDIUse=1 WtCom= 1.00D+00 WtEn= 0.00D+00
 Coeff-Com: -0.971D-08 0.427D-07 0.214D-06 0.384D-05 0.182D-04 0.174D-04
 Coeff-Com: -0.113D-03-0.402D-03-0.212D-03 0.323D-02 0.865D-02-0.122D-02
 Coeff-Com: -0.712D-01-0.560D-01 0.272D+00 0.845D+00
 Coeff:     -0.971D-08 0.427D-07 0.214D-06 0.384D-05 0.182D-04 0.174D-04
 Coeff:     -0.113D-03-0.402D-03-0.212D-03 0.323D-02 0.865D-02-0.122D-02
 Coeff:     -0.712D-01-0.560D-01 0.272D+00 0.845D+00
 Gap=     0.342 Goal=   None    Shift=    0.000
 RMSDP=5.19D-09 MaxDP=4.27D-07 DE= 1.48D-12 OVMax= 1.26D-07

 SCF Done:  E(RwB97XD) =  -420.728790538     A.U. after   16 cycles
            NFock= 16  Conv=0.52D-08     -V/T= 2.0014
 KE= 4.201514563468D+02 PE=-1.803103567445D+03 EE= 5.524270862967D+02
 Leave Link  502 at Sun Nov 20 17:25:53 2022, MaxMem= 16106127360 cpu:             436.3 elap:              13.7
 (Enter /opt/ap/G16/B01/g16/l601.exe)
 Copying SCF densities to generalized density rwf, IOpCl= 0 IROHF=0.

 **********************************************************************

            Population analysis using the SCF Density.

 **********************************************************************

 Orbital symmetries:
       Occupied  (A) (A) (A) (A) (A) (A) (A) (A) (A) (A) (A) (A)
                 (A) (A) (A) (A) (A) (A) (A) (A) (A) (A) (A) (A)
                 (A) (A) (A) (A) (A) (A) (A) (A)
       Virtual   (A) (A) (A) (A) (A) (A) (A) (A) (A) (A) (A) (A)
                 (A) (A) (A) (A) (A) (A) (A) (A) (A) (A) (A) (A)
                 (A) (A) (A) (A) (A) (A) (A) (A) (A) (A) (A) (A)
                 (A) (A) (A) (A) (A) (A) (A) (A) (A) (A) (A) (A)
                 (A) (A) (A) (A) (A) (A) (A) (A) (A) (A) (A) (A)
                 (A) (A) (A) (A) (A) (A) (A) (A) (A) (A) (A) (A)
                 (A) (A) (A) (A) (A) (A) (A) (A) (A) (A) (A) (A)
                 (A) (A) (A) (A) (A) (A) (A) (A) (A) (A) (A) (A)
                 (A) (A) (A) (A) (A) (A) (A) (A) (A) (A) (A) (A)
                 (A) (A) (A) (A) (A) (A) (A) (A) (A) (A) (A) (A)
                 (A) (A) (A) (A) (A) (A) (A) (A) (A) (A) (A) (A)
                 (A) (A) (A) (A) (A) (A) (A) (A) (A) (A) (A) (A)
                 (A) (A) (A) (A) (A) (A) (A) (A) (A) (A) (A) (A)
                 (A) (A) (A) (A) (A) (A) (A) (A) (A) (A) (A) (A)
                 (A) (A) (A) (A) (A) (A) (A) (A) (A) (A) (A) (A)
                 (A) (A) (A) (A) (A) (A) (A) (A) (A) (A) (A) (A)
                 (A) (A) (A) (A) (A) (A) (A) (A) (A) (A) (A) (A)
                 (A) (A) (A) (A)
 The electronic state is 1-A.
 Alpha  occ. eigenvalues --  -19.30061 -19.23498 -10.43213 -10.30918 -10.29553
 Alpha  occ. eigenvalues --  -10.29411 -10.29400 -10.29161 -10.28953  -1.24997
 Alpha  occ. eigenvalues --   -1.10962  -0.98206  -0.88710  -0.87195  -0.79695
 Alpha  occ. eigenvalues --   -0.73589  -0.72555  -0.66459  -0.61337  -0.58311
 Alpha  occ. eigenvalues --   -0.56861  -0.56146  -0.53769  -0.53673  -0.48120
 Alpha  occ. eigenvalues --   -0.47237  -0.45307  -0.43601  -0.42155  -0.36262
 Alpha  occ. eigenvalues --   -0.34842  -0.34480
 Alpha virt. eigenvalues --   -0.00255   0.03389   0.04056   0.04423   0.05217
 Alpha virt. eigenvalues --    0.06528   0.07783   0.08738   0.10034   0.10528
 Alpha virt. eigenvalues --    0.11704   0.12894   0.13215   0.13959   0.14423
 Alpha virt. eigenvalues --    0.15931   0.16299   0.16915   0.17219   0.17860
 Alpha virt. eigenvalues --    0.18221   0.19055   0.19867   0.19935   0.20417
 Alpha virt. eigenvalues --    0.21079   0.21405   0.21896   0.23058   0.24188
 Alpha virt. eigenvalues --    0.25340   0.26003   0.26594   0.27310   0.27810
 Alpha virt. eigenvalues --    0.29647   0.29920   0.30562   0.31114   0.32365
 Alpha virt. eigenvalues --    0.32526   0.34458   0.35316   0.35373   0.36121
 Alpha virt. eigenvalues --    0.36913   0.37436   0.38473   0.39285   0.40272
 Alpha virt. eigenvalues --    0.41458   0.41998   0.42640   0.43898   0.46507
 Alpha virt. eigenvalues --    0.47188   0.49724   0.53776   0.54757   0.57939
 Alpha virt. eigenvalues --    0.58858   0.60329   0.61799   0.62955   0.63745
 Alpha virt. eigenvalues --    0.64241   0.64905   0.66071   0.66780   0.69344
 Alpha virt. eigenvalues --    0.70677   0.73796   0.73955   0.74101   0.76275
 Alpha virt. eigenvalues --    0.76513   0.81014   0.82446   0.83841   0.86097
 Alpha virt. eigenvalues --    0.88467   0.90477   0.92594   0.93564   0.94653
 Alpha virt. eigenvalues --    0.96111   0.96420   0.97966   0.99795   1.00445
 Alpha virt. eigenvalues --    1.03108   1.06181   1.07991   1.09952   1.10209
 Alpha virt. eigenvalues --    1.14355   1.14713   1.16372   1.16851   1.18970
 Alpha virt. eigenvalues --    1.21207   1.22092   1.24596   1.28985   1.29364
 Alpha virt. eigenvalues --    1.34598   1.41995   1.44242   1.46632   1.51143
 Alpha virt. eigenvalues --    1.56841   1.59243   1.60382   1.60854   1.62121
 Alpha virt. eigenvalues --    1.63135   1.66718   1.66973   1.69775   1.74206
 Alpha virt. eigenvalues --    1.74839   1.76168   1.81052   1.83909   1.85585
 Alpha virt. eigenvalues --    1.87933   1.89124   1.91513   1.92706   1.99907
 Alpha virt. eigenvalues --    2.00163   2.01571   2.03137   2.04270   2.04768
 Alpha virt. eigenvalues --    2.08037   2.09321   2.16171   2.17829   2.20534
 Alpha virt. eigenvalues --    2.22892   2.24898   2.29483   2.42744   2.46076
 Alpha virt. eigenvalues --    2.51474   2.52360   2.54314   2.58087   2.64306
 Alpha virt. eigenvalues --    2.70279   2.72490   2.75987   2.78331   2.81397
 Alpha virt. eigenvalues --    2.81595   2.83406   2.88159   2.89813   2.90262
 Alpha virt. eigenvalues --    2.90482   2.91695   2.96009   2.99480   2.99882
 Alpha virt. eigenvalues --    3.02850   3.05120   3.06439   3.16954   3.18546
 Alpha virt. eigenvalues --    3.18722   3.21965   3.27628   3.31937   3.40744
 Alpha virt. eigenvalues --    3.43465   3.46660   3.49035   3.52530   3.63305
 Alpha virt. eigenvalues --    3.66404   3.68399   3.73617   3.84422   3.87967
 Alpha virt. eigenvalues --    3.95422   4.18370   4.28616   4.30556   4.36848
 Alpha virt. eigenvalues --    4.40619   4.44956   4.94805   5.15500   5.19660
 Alpha virt. eigenvalues --    5.30298   5.44504   5.81735   6.07991  23.83816
 Alpha virt. eigenvalues --   23.95454  24.14073  24.21190  24.28221  24.30229
 Alpha virt. eigenvalues --   24.41640  50.05101  50.16516
          Condensed to atoms (all electrons):
               1          2          3          4          5          6
     1  C   10.177036  -2.342699  -2.455664   1.710357  -0.043727  -1.847043
     2  C   -2.342699  14.653055  -1.421145  -4.425692   0.630408  -0.390845
     3  C   -2.455664  -1.421145  14.042385  -0.543025  -0.068854  -0.205392
     4  C    1.710357  -4.425692  -0.543025   8.768888  -0.097123  -0.299358
     5  H   -0.043727   0.630408  -0.068854  -0.097123   0.487133  -0.083298
     6  C   -1.847043  -0.390845  -0.205392  -0.299358  -0.083298   7.899477
     7  C    1.299317  -0.543817  -4.425216   1.021855   0.027059  -0.030115
     8  H   -0.058605   0.010002   0.557184  -0.007193  -0.000684  -0.036630
     9  C   -1.290189   1.105399   1.355764  -0.736944   0.008526   0.106857
    10  H    0.029336  -0.113853   0.019473   0.432888  -0.010483   0.007662
    11  O   -0.235911  -0.193373   0.034304   0.071776  -0.024577   0.360696
    12  O   -0.199787  -0.058431  -0.097864   0.054637  -0.004375   0.575543
    13  H    0.032087   0.013646  -0.135551   0.000838   0.000694   0.006525
    14  H    0.013372   0.007552   0.008977  -0.049987   0.000076  -0.007016
    15  H   -0.018580  -0.011768  -0.000797  -0.009817  -0.005112   0.037555
               7          8          9         10         11         12
     1  C    1.299317  -0.058605  -1.290189   0.029336  -0.235911  -0.199787
     2  C   -0.543817   0.010002   1.105399  -0.113853  -0.193373  -0.058431
     3  C   -4.425216   0.557184   1.355764   0.019473   0.034304  -0.097864
     4  C    1.021855  -0.007193  -0.736944   0.432888   0.071776   0.054637
     5  H    0.027059  -0.000684   0.008526  -0.010483  -0.024577  -0.004375
     6  C   -0.030115  -0.036630   0.106857   0.007662   0.360696   0.575543
     7  C    9.079437  -0.111202  -0.907653  -0.005790   0.044193   0.138926
     8  H   -0.111202   0.429870   0.017626   0.000623  -0.003217  -0.005867
     9  C   -0.907653   0.017626   6.521870  -0.038219  -0.023871  -0.021400
    10  H   -0.005790   0.000623  -0.038219   0.471622   0.003104   0.000566
    11  O    0.044193  -0.003217  -0.023871   0.003104   7.972598  -0.113025
    12  O    0.138926  -0.005867  -0.021400   0.000566  -0.113025   8.020729
    13  H    0.449873  -0.008072  -0.034345  -0.001020   0.000921   0.001991
    14  H   -0.041419   0.000207   0.425184  -0.006867  -0.000466  -0.000363
    15  H    0.008097  -0.000381  -0.003000   0.000102   0.323537   0.003161
              13         14         15
     1  C    0.032087   0.013372  -0.018580
     2  C    0.013646   0.007552  -0.011768
     3  C   -0.135551   0.008977  -0.000797
     4  C    0.000838  -0.049987  -0.009817
     5  H    0.000694   0.000076  -0.005112
     6  C    0.006525  -0.007016   0.037555
     7  C    0.449873  -0.041419   0.008097
     8  H   -0.008072   0.000207  -0.000381
     9  C   -0.034345   0.425184  -0.003000
    10  H   -0.001020  -0.006867   0.000102
    11  O    0.000921  -0.000466   0.323537
    12  O    0.001991  -0.000363   0.003161
    13  H    0.463791  -0.006200   0.000077
    14  H   -0.006200   0.469260  -0.000070
    15  H    0.000077  -0.000070   0.351723
 Mulliken charges:
               1
     1  C    1.230700
     2  C   -0.918439
     3  C   -0.664579
     4  C    0.107899
     5  H    0.184337
     6  C   -0.094616
     7  C   -0.003543
     8  H    0.216340
     9  C   -0.485605
    10  H    0.210854
    11  O   -0.216689
    12  O   -0.294439
    13  H    0.214745
    14  H    0.187762
    15  H    0.325273
 Sum of Mulliken charges =  -0.00000
 Mulliken charges with hydrogens summed into heavy atoms:
               1
     1  C    1.230700
     2  C   -0.734102
     3  C   -0.448238
     4  C    0.318753
     6  C   -0.094616
     7  C    0.211202
     9  C   -0.297844
    11  O    0.108583
    12  O   -0.294439
 Electronic spatial extent (au):  <R**2>=           1154.3281
 Charge=             -0.0000 electrons
 Dipole moment (field-independent basis, Debye):
    X=              2.3166    Y=             -2.5536    Z=              1.3563  Tot=              3.7050
 Quadrupole moment (field-independent basis, Debye-Ang):
   XX=            -49.6196   YY=            -48.3525   ZZ=            -52.8390
   XY=              7.9396   XZ=             -4.2141   YZ=             -2.2405
 Traceless Quadrupole moment (field-independent basis, Debye-Ang):
   XX=              0.6507   YY=              1.9179   ZZ=             -2.5686
   XY=              7.9396   XZ=             -4.2141   YZ=             -2.2405
 Octapole moment (field-independent basis, Debye-Ang**2):
  XXX=              9.5076  YYY=             -6.6390  ZZZ=              1.1613  XYY=              4.0504
  XXY=            -22.4563  XXZ=             12.3354  XZZ=            -14.5127  YZZ=             -1.9091
  YYZ=              3.1916  XYZ=              6.6269
 Hexadecapole moment (field-independent basis, Debye-Ang**3):
 XXXX=           -989.9352 YYYY=           -355.7646 ZZZZ=            -58.6589 XXXY=             66.6092
 XXXZ=            -36.5260 YYYX=             22.3979 YYYZ=             -5.2119 ZZZX=             -4.3417
 ZZZY=             -2.3321 XXYY=           -227.5587 XXZZ=           -184.2701 YYZZ=            -77.0629
 XXYZ=            -18.0571 YYXZ=             -9.0508 ZZXY=              5.9766
 N-N= 4.097962342637D+02 E-N=-1.803103566996D+03  KE= 4.201514563468D+02
 No NMR shielding tensors so no spin-rotation constants.
 Leave Link  601 at Sun Nov 20 17:25:53 2022, MaxMem= 16106127360 cpu:               3.4 elap:               0.1
 (Enter /opt/ap/G16/B01/g16/l9999.exe)
 1\1\GINC-N07\SP\RwB97XD\6-311++G(d,p)\C7H6O2\ROOT\20-Nov-2022\0\\#P wB
 97XD/6-311++G(d,p) scf=maxcycle=512\\_conf003.gjf nmol_natom 1_15\\0,1
 \C\C,1,1.39016191\C,1,1.39194539,2,119.895942\C,2,1.38669027,1,119.880
 75721,3,0.70825972,0\H,2,0.98744251,1,119.71654057,3,-179.90726164,0\C
 ,1,1.48428757,2,119.93615286,4,-179.87772406,0\C,3,1.40101108,1,119.72
 36454,2,-0.26266839,0\H,3,0.9902154,1,119.1886159,2,178.85397616,0\C,4
 ,1.37899003,2,120.45785903,1,-0.48041454,0\H,4,0.9834739,2,120.3044270
 6,1,179.36166981,0\O,6,1.27459751,1,118.00615353,2,-1.25976832,0\O,6,1
 .26362572,1,118.77715367,2,179.20603801,0\H,7,0.98977053,3,119.3786157
 8,1,-178.93545741,0\H,9,0.99498061,4,119.46722635,2,-178.58826714,0\H,
 11,0.89680392,6,118.15823763,1,-255.,0\\Version=ES64L-G16RevB.01\State
 =1-A\HF=-420.7287905\RMSD=5.193e-09\Dipole=0.3263043,0.541181,1.313550
 1\Quadrupole=5.6015807,-1.8735063,-3.7280744,-3.6119207,-3.5990105,-0.
 0202293\PG=C01 [X(C7H6O2)]\\@


 IBM COMPATIBILITY IS LIKE PREGNANCY. YOU ARE OR
 OR YOU ARE NOT. -- ADAM OSBORNE
 Job cpu time:       0 days  0 hours  7 minutes 52.5 seconds.
 Elapsed time:       0 days  0 hours  0 minutes 14.9 seconds.
 File lengths (MBytes):  RWF=     35 Int=      0 D2E=      0 Chk=      4 Scr=      1
 Normal termination of Gaussian 16 at Sun Nov 20 17:25:53 2022.
