 Entering Gaussian System, Link 0=g16
 Input=_conf013.gjf
 Output=_conf013.log
 Initial command:
 /opt/ap/G16/B01/g16/l1.exe "/tmp2/scr/Gau-16907.inp" -scrdir="/tmp2/scr/"
 Entering Link 1 = /opt/ap/G16/B01/g16/l1.exe PID=     16908.
  
 Copyright (c) 1988-2017, Gaussian, Inc.  All Rights Reserved.
  
 This is part of the Gaussian(R) 16 program.  It is based on
 the Gaussian(R) 09 system (copyright 2009, Gaussian, Inc.),
 the Gaussian(R) 03 system (copyright 2003, Gaussian, Inc.),
 the Gaussian(R) 98 system (copyright 1998, Gaussian, Inc.),
 the Gaussian(R) 94 system (copyright 1995, Gaussian, Inc.),
 the Gaussian 92(TM) system (copyright 1992, Gaussian, Inc.),
 the Gaussian 90(TM) system (copyright 1990, Gaussian, Inc.),
 the Gaussian 88(TM) system (copyright 1988, Gaussian, Inc.),
 the Gaussian 86(TM) system (copyright 1986, Carnegie Mellon
 University), and the Gaussian 82(TM) system (copyright 1983,
 Carnegie Mellon University). Gaussian is a federally registered
 trademark of Gaussian, Inc.
  
 This software contains proprietary and confidential information,
 including trade secrets, belonging to Gaussian, Inc.
  
 This software is provided under written license and may be
 used, copied, transmitted, or stored only in accord with that
 written license.
  
 The following legend is applicable only to US Government
 contracts under FAR:
  
                    RESTRICTED RIGHTS LEGEND
  
 Use, reproduction and disclosure by the US Government is
 subject to restrictions as set forth in subparagraphs (a)
 and (c) of the Commercial Computer Software - Restricted
 Rights clause in FAR 52.227-19.
  
 Gaussian, Inc.
 340 Quinnipiac St., Bldg. 40, Wallingford CT 06492
  
  
 ---------------------------------------------------------------
 Warning -- This program may not be used in any manner that
 competes with the business of Gaussian, Inc. or will provide
 assistance to any competitor of Gaussian, Inc.  The licensee
 of this program is prohibited from giving any competitor of
 Gaussian, Inc. access to this program.  By using this program,
 the user acknowledges that Gaussian, Inc. is engaged in the
 business of creating and licensing software in the field of
 computational chemistry and represents and warrants to the
 licensee that it is not a competitor of Gaussian, Inc. and that
 it will not use this program in any manner prohibited above.
 ---------------------------------------------------------------
  

 Cite this work as:
 Gaussian 16, Revision B.01,
 M. J. Frisch, G. W. Trucks, H. B. Schlegel, G. E. Scuseria, 
 M. A. Robb, J. R. Cheeseman, G. Scalmani, V. Barone, 
 G. A. Petersson, H. Nakatsuji, X. Li, M. Caricato, A. V. Marenich, 
 J. Bloino, B. G. Janesko, R. Gomperts, B. Mennucci, H. P. Hratchian, 
 J. V. Ortiz, A. F. Izmaylov, J. L. Sonnenberg, D. Williams-Young, 
 F. Ding, F. Lipparini, F. Egidi, J. Goings, B. Peng, A. Petrone, 
 T. Henderson, D. Ranasinghe, V. G. Zakrzewski, J. Gao, N. Rega, 
 G. Zheng, W. Liang, M. Hada, M. Ehara, K. Toyota, R. Fukuda, 
 J. Hasegawa, M. Ishida, T. Nakajima, Y. Honda, O. Kitao, H. Nakai, 
 T. Vreven, K. Throssell, J. A. Montgomery, Jr., J. E. Peralta, 
 F. Ogliaro, M. J. Bearpark, J. J. Heyd, E. N. Brothers, K. N. Kudin, 
 V. N. Staroverov, T. A. Keith, R. Kobayashi, J. Normand, 
 K. Raghavachari, A. P. Rendell, J. C. Burant, S. S. Iyengar, 
 J. Tomasi, M. Cossi, J. M. Millam, M. Klene, C. Adamo, R. Cammi, 
 J. W. Ochterski, R. L. Martin, K. Morokuma, O. Farkas, 
 J. B. Foresman, and D. J. Fox, Gaussian, Inc., Wallingford CT, 2016.
 
 ******************************************
 Gaussian 16:  ES64L-G16RevB.01 20-Dec-2017
                20-Nov-2022 
 ******************************************
 %nprocshared=32
 Will use up to   32 processors via shared memory.
 %mem=120GB
 %chk=_conf013.chk
 ----------------------------------------
 #P wB97XD/6-311++G(d,p) scf=maxcycle=512
 ----------------------------------------
 1/38=1,172=1/1;
 2/12=2,17=6,18=5,40=1/2;
 3/5=4,6=6,7=1111,11=2,25=1,30=1,74=-58/1,2,3;
 4//1;
 5/5=2,7=512,38=5/2;
 6/7=2,8=2,9=2,10=2,28=1/1;
 99/5=1,9=1/99;
 Leave Link    1 at Sun Nov 20 17:26:22 2022, MaxMem= 16106127360 cpu:               1.5 elap:               0.1
 (Enter /opt/ap/G16/B01/g16/l101.exe)
 ----------------------------
 _conf013.gjf nmol_natom 1_15
 ----------------------------
 Symbolic Z-matrix:
 Charge =  0 Multiplicity = 1
 C
 C                    1     1.39016 
 C                    1     1.39195  2     119.89594 
 C                    2     1.38669  1     119.88076  3     0.70826  0
 H                    2     0.98744  1     119.71654  3    -179.90726  0
 C                    1     1.48429  2     119.93615  4    -179.87772  0
 C                    3     1.40101  1     119.72365  2    -0.26267  0
 H                    3     0.99022  1     119.18862  2     178.85398  0
 C                    4     1.37899  2     120.45786  1    -0.48041  0
 H                    4     0.98347  2     120.30443  1     179.36167  0
 O                    6     1.2746   1     118.00615  2    -1.25977  0
 O                    6     1.26363  1     118.77715  2     179.20604  0
 H                    7     0.98977  3     119.37862  1    -178.93546  0
 H                    9     0.99498  4     119.46723  2    -178.58827  0
 H                    11    0.8968   6     118.15824  1    -205.     0
 
 ITRead=  0  0  0  0  0  0  0  0  0  0  0  0  0  0  0
 MicOpt= -1 -1 -1 -1 -1 -1 -1 -1 -1 -1 -1 -1 -1 -1 -1
 NAtoms=     15 NQM=       15 NQMF=       0 NMMI=      0 NMMIF=      0
                NMic=       0 NMicF=      0.
                    Isotopes and Nuclear Properties:
 (Nuclear quadrupole moments (NQMom) in fm**2, nuclear magnetic moments (NMagM)
  in nuclear magnetons)

  Atom         1           2           3           4           5           6           7           8           9          10
 IAtWgt=          12          12          12          12           1          12          12           1          12           1
 AtmWgt=  12.0000000  12.0000000  12.0000000  12.0000000   1.0078250  12.0000000  12.0000000   1.0078250  12.0000000   1.0078250
 NucSpn=           0           0           0           0           1           0           0           1           0           1
 AtZEff=  -0.0000000  -0.0000000  -0.0000000  -0.0000000  -0.0000000  -0.0000000  -0.0000000  -0.0000000  -0.0000000  -0.0000000
 NQMom=    0.0000000   0.0000000   0.0000000   0.0000000   0.0000000   0.0000000   0.0000000   0.0000000   0.0000000   0.0000000
 NMagM=    0.0000000   0.0000000   0.0000000   0.0000000   2.7928460   0.0000000   0.0000000   2.7928460   0.0000000   2.7928460
 AtZNuc=   6.0000000   6.0000000   6.0000000   6.0000000   1.0000000   6.0000000   6.0000000   1.0000000   6.0000000   1.0000000

  Atom        11          12          13          14          15
 IAtWgt=          16          16           1           1           1
 AtmWgt=  15.9949146  15.9949146   1.0078250   1.0078250   1.0078250
 NucSpn=           0           0           1           1           1
 AtZEff=  -0.0000000  -0.0000000  -0.0000000  -0.0000000  -0.0000000
 NQMom=    0.0000000   0.0000000   0.0000000   0.0000000   0.0000000
 NMagM=    0.0000000   0.0000000   2.7928460   2.7928460   2.7928460
 AtZNuc=   8.0000000   8.0000000   1.0000000   1.0000000   1.0000000
 Leave Link  101 at Sun Nov 20 17:26:22 2022, MaxMem= 16106127360 cpu:               5.2 elap:               0.2
 (Enter /opt/ap/G16/B01/g16/l202.exe)
                          Input orientation:                          
 ---------------------------------------------------------------------
 Center     Atomic      Atomic             Coordinates (Angstroms)
 Number     Number       Type             X           Y           Z
 ---------------------------------------------------------------------
      1          6           0        0.000000    0.000000    0.000000
      2          6           0        0.000000    0.000000    1.390162
      3          6           0        1.206722    0.000000   -0.693782
      4          6           0        1.202258    0.014862    2.081006
      5          1           0       -0.857581   -0.001388    1.879646
      6          6           0       -1.286190   -0.013155   -0.740711
      7          6           0        2.415349    0.005578    0.014752
      8          1           0        1.194584   -0.017290   -1.683772
      9          6           0        2.400563    0.019708    1.398617
     10          1           0        1.209438    0.024411    3.064408
     11          8           0       -2.365984   -0.048941   -0.064425
     12          8           0       -1.260842    0.002453   -2.003986
     13          1           0        3.270315    0.021574   -0.483669
     14          1           0        3.254554    0.009066    1.909081
     15          1           0       -3.112035    0.276698   -0.440755
 ---------------------------------------------------------------------
                    Distance matrix (angstroms):
                    1          2          3          4          5
     1  C    0.000000
     2  C    1.390162   0.000000
     3  C    1.391945   2.408112   0.000000
     4  C    2.403379   1.386690   2.774832   0.000000
     5  H    2.066039   0.987443   3.299073   2.069721   0.000000
     6  C    1.484288   2.488991   2.493388   3.762345   2.655206
     7  C    2.415401   2.779513   1.401011   2.396056   3.766955
     8  H    2.064563   3.297939   0.990215   3.764924   4.112127
     9  C    2.778349   2.400659   2.409104   1.378990   3.293530
    10  H    3.294530   2.065535   3.758270   0.983474   2.382624
    11  O    2.367367   2.777786   3.628045   4.164047   2.461088
    12  O    2.367633   3.620769   2.793834   4.770133   3.904515
    13  H    3.305958   3.769173   2.074374   3.294611   4.756607
    14  H    3.773167   3.295676   3.311886   2.059493   4.112253
    15  H    3.155248   3.621268   4.335002   5.004094   3.247177
                    6          7          8          9         10
     6  C    0.000000
     7  C    3.777892   0.000000
     8  H    2.653982   2.091836   0.000000
     9  C    4.262622   1.384016   3.310118   0.000000
    10  H    4.550659   3.279477   4.748386   2.047842   0.000000
    11  O    1.274598   4.782299   3.911641   4.986499   4.751696
    12  O    1.263626   4.194007   2.476296   4.998389   5.638384
    13  H    4.563881   0.989771   2.398003   2.073517   4.103177
    14  H    5.257398   2.071897   4.141589   0.994981   2.348938
    15  H    1.872885   5.552744   4.492047   5.817050   5.570004
                   11         12         13         14         15
    11  O    0.000000
    12  O    2.232908   0.000000
    13  H    5.652309   4.779447   0.000000
    14  H    5.957225   5.975025   2.392834   0.000000
    15  H    0.896804   2.438405   6.387591   6.791672   0.000000
 Stoichiometry    C7H6O2
 Framework group  C1[X(C7H6O2)]
 Deg. of freedom    39
 Full point group                 C1      NOp   1
 Largest Abelian subgroup         C1      NOp   1
 Largest concise Abelian subgroup C1      NOp   1
                         Standard orientation:                         
 ---------------------------------------------------------------------
 Center     Atomic      Atomic             Coordinates (Angstroms)
 Number     Number       Type             X           Y           Z
 ---------------------------------------------------------------------
      1          6           0       -0.221590    0.028955   -0.000817
      2          6           0        0.441999   -1.192599   -0.002994
      3          6           0        0.507591    1.214619   -0.003659
      4          6           0        1.828258   -1.225754    0.006872
      5          1           0       -0.077915   -2.032082   -0.002357
      6          6           0       -1.705399    0.065864   -0.008624
      7          6           0        1.907857    1.168958   -0.003126
      8          1           0        0.024294    2.078740   -0.019359
      9          6           0        2.555499   -0.054118    0.008886
     10          1           0        2.304026   -2.086452    0.014858
     11          8           0       -2.331528   -1.043844   -0.041954
     12          8           0       -2.286089    1.188023    0.008879
     13          1           0        2.421260    2.015048    0.010868
     14          1           0        3.549537   -0.095019   -0.005337
     15          1           0       -3.165554   -1.069226    0.286701
 ---------------------------------------------------------------------
 Rotational constants (GHZ):           3.9631124           1.2397882           0.9447585
 Leave Link  202 at Sun Nov 20 17:26:22 2022, MaxMem= 16106127360 cpu:               0.3 elap:               0.0
 (Enter /opt/ap/G16/B01/g16/l301.exe)
 Standard basis: 6-311++G(d,p) (5D, 7F)
 Ernie: Thresh=  0.10000D-02 Tol=  0.10000D-05 Strict=F.
 There are   249 symmetry adapted cartesian basis functions of A   symmetry.
 There are   240 symmetry adapted basis functions of A   symmetry.
   240 basis functions,   378 primitive gaussians,   249 cartesian basis functions
    32 alpha electrons       32 beta electrons
       nuclear repulsion energy       409.5823598211 Hartrees.
 IExCor= 4639 DFT=T Ex+Corr=wB97XD ExCW=0 ScaHFX=  1.000000
 ScaDFX=  1.000000  1.000000  1.000000  1.000000 ScalE2=  1.000000  1.000000
 IRadAn=      5 IRanWt=     -1 IRanGd=            0 ICorTp=0 IEmpDi=121
 HFx  wShort=  0.000000 wLong=  0.200000 cFull=  0.222036 cShort=  0.000000 cLong=  0.777964
 DFx  wShort=  0.000000 wLong=  0.200000 cFull=  0.000000 cShort=  0.000000 cLong=  1.000000
 NAtoms=   15 NActive=   15 NUniq=   15 SFac= 1.00D+00 NAtFMM=   60 NAOKFM=F Big=F
 Integral buffers will be    131072 words long.
 Raffenetti 2 integral format.
 Two-electron integral symmetry is turned on.
 R6Disp:  Grimme-D2 Dispersion energy=       -0.0063489039 Hartrees.
 Nuclear repulsion after empirical dispersion term =      409.5760109173 Hartrees.
 Leave Link  301 at Sun Nov 20 17:26:22 2022, MaxMem= 16106127360 cpu:               1.7 elap:               0.1
 (Enter /opt/ap/G16/B01/g16/l302.exe)
 NPDir=0 NMtPBC=     1 NCelOv=     1 NCel=       1 NClECP=     1 NCelD=      1
         NCelK=      1 NCelE2=     1 NClLst=     1 CellRange=     0.0.
 One-electron integrals computed using PRISM.
 One-electron integral symmetry used in STVInt
 NBasis=   240 RedAO= T EigKep=  1.22D-06  NBF=   240
 NBsUse=   240 1.00D-06 EigRej= -1.00D+00 NBFU=   240
 Precomputing XC quadrature grid using
 IXCGrd= 4 IRadAn=           5 IRanWt=          -1 IRanGd=           0 AccXCQ= 0.00D+00.
 Generated NRdTot=       0 NPtTot=           0 NUsed=           0 NTot=          32
 NSgBfM=   249   249   249   249   249 MxSgAt=    15 MxSgA2=    15.
 Leave Link  302 at Sun Nov 20 17:26:22 2022, MaxMem= 16106127360 cpu:               5.4 elap:               0.2
 (Enter /opt/ap/G16/B01/g16/l303.exe)
 DipDrv:  MaxL=1.
 Leave Link  303 at Sun Nov 20 17:26:22 2022, MaxMem= 16106127360 cpu:               1.3 elap:               0.1
 (Enter /opt/ap/G16/B01/g16/l401.exe)
 ExpMin= 3.60D-02 ExpMax= 8.59D+03 ExpMxC= 1.30D+03 IAcc=3 IRadAn=         5 AccDes= 0.00D+00
 Harris functional with IExCor= 4639 and IRadAn=       5 diagonalized for initial guess.
 HarFok:  IExCor= 4639 AccDes= 0.00D+00 IRadAn=         5 IDoV= 1 UseB2=F ITyADJ=14
 ICtDFT=  3500011 ScaDFX=  1.000000  1.000000  1.000000  1.000000
 FoFCou: FMM=F IPFlag=           0 FMFlag=      100000 FMFlg1=           0
         NFxFlg=           0 DoJE=T BraDBF=F KetDBF=T FulRan=T
         wScrn=  0.000000 ICntrl=       500 IOpCl=  0 I1Cent=   200000004 NGrid=           0
         NMat0=    1 NMatS0=      1 NMatT0=    0 NMatD0=    1 NMtDS0=    0 NMtDT0=    0
 Petite list used in FoFCou.
 Harris En= -403.252054788863    
 JPrj=0 DoOrth=F DoCkMO=F.
 Leave Link  401 at Sun Nov 20 17:26:23 2022, MaxMem= 16106127360 cpu:              28.2 elap:               0.9
 (Enter /opt/ap/G16/B01/g16/l502.exe)
 Integral symmetry usage will be decided dynamically.
 Closed shell SCF:
 Using DIIS extrapolation, IDIIS=  1040.
 NGot= 16106127360 LenX= 16105992971 LenY= 16105930529
 Requested convergence on RMS density matrix=1.00D-08 within 512 cycles.
 Requested convergence on MAX density matrix=1.00D-06.
 Requested convergence on             energy=1.00D-06.
 No special actions if energy rises.
 Fock matrices will be formed incrementally for  20 cycles.

 Cycle   1  Pass 1  IDiag  1:
 FoFJK:  IHMeth= 1 ICntrl=       0 DoSepK=T KAlg= 0 I1Cent=           0 FoldK=F
 IRaf=         1 NMat=       1 IRICut=       1 DoRegI=T DoRafI=F ISym2E= 0 IDoP0=0 IntGTp=1.
 FoFCou: FMM=F IPFlag=           0 FMFlag=      100000 FMFlg1=           0
         NFxFlg=           0 DoJE=T BraDBF=F KetDBF=F FulRan=T
         wScrn=  0.000000 ICntrl=       500 IOpCl=  0 I1Cent=           0 NGrid=           0
         NMat0=    1 NMatS0=      1 NMatT0=    0 NMatD0=    1 NMtDS0=    0 NMtDT0=    0
 Symmetry not used in FoFCou.
 E= -420.630302000909    
 DIIS: error= 7.96D-02 at cycle   1 NSaved=   1.
 NSaved= 1 IEnMin= 1 EnMin= -420.630302000909     IErMin= 1 ErrMin= 7.96D-02
 ErrMax= 7.96D-02  0.00D+00 EMaxC= 1.00D-01 BMatC= 8.60D-01 BMatP= 8.60D-01
 IDIUse=3 WtCom= 2.04D-01 WtEn= 7.96D-01
 Coeff-Com:  0.100D+01
 Coeff-En:   0.100D+01
 Coeff:      0.100D+01
 Gap=     0.426 Goal=   None    Shift=    0.000
 GapD=    0.426 DampG=2.000 DampE=0.500 DampFc=1.0000 IDamp=-1.
 RMSDP=3.12D-02 MaxDP=2.59D+00              OVMax= 1.02D-01

 Cycle   2  Pass 1  IDiag  1:
 RMSU=  1.48D-02    CP:  6.71D-01
 E= -420.701689914381     Delta-E=       -0.071387913472 Rises=F Damp=F
 DIIS: error= 1.28D-02 at cycle   2 NSaved=   2.
 NSaved= 2 IEnMin= 2 EnMin= -420.701689914381     IErMin= 2 ErrMin= 1.28D-02
 ErrMax= 1.28D-02  0.00D+00 EMaxC= 1.00D-01 BMatC= 5.50D-02 BMatP= 8.60D-01
 IDIUse=3 WtCom= 8.72D-01 WtEn= 1.28D-01
 Coeff-Com:  0.133D+00 0.867D+00
 Coeff-En:   0.847D-01 0.915D+00
 Coeff:      0.127D+00 0.873D+00
 Gap=     0.423 Goal=   None    Shift=    0.000
 RMSDP=7.60D-03 MaxDP=4.21D-01 DE=-7.14D-02 OVMax= 7.26D-02

 Cycle   3  Pass 1  IDiag  1:
 RMSU=  6.60D-03    CP:  6.57D-01  7.59D-01
 E= -420.718114589132     Delta-E=       -0.016424674751 Rises=F Damp=F
 DIIS: error= 1.32D-02 at cycle   3 NSaved=   3.
 NSaved= 3 IEnMin= 3 EnMin= -420.718114589132     IErMin= 2 ErrMin= 1.28D-02
 ErrMax= 1.32D-02  0.00D+00 EMaxC= 1.00D-01 BMatC= 3.35D-02 BMatP= 5.50D-02
 IDIUse=3 WtCom= 8.68D-01 WtEn= 1.32D-01
 Coeff-Com:  0.269D-01 0.444D+00 0.529D+00
 Coeff-En:   0.000D+00 0.376D+00 0.624D+00
 Coeff:      0.233D-01 0.435D+00 0.542D+00
 Gap=     0.359 Goal=   None    Shift=    0.000
 RMSDP=3.65D-03 MaxDP=2.41D-01 DE=-1.64D-02 OVMax= 5.05D-02

 Cycle   4  Pass 1  IDiag  1:
 RMSU=  1.79D-03    CP:  6.37D-01  8.74D-01  6.81D-01
 E= -420.742833028272     Delta-E=       -0.024718439140 Rises=F Damp=F
 DIIS: error= 2.60D-03 at cycle   4 NSaved=   4.
 NSaved= 4 IEnMin= 4 EnMin= -420.742833028272     IErMin= 4 ErrMin= 2.60D-03
 ErrMax= 2.60D-03  0.00D+00 EMaxC= 1.00D-01 BMatC= 1.76D-03 BMatP= 3.35D-02
 IDIUse=3 WtCom= 9.74D-01 WtEn= 2.60D-02
 Coeff-Com:  0.104D-01 0.221D+00 0.305D+00 0.463D+00
 Coeff-En:   0.000D+00 0.000D+00 0.000D+00 0.100D+01
 Coeff:      0.102D-01 0.216D+00 0.297D+00 0.477D+00
 Gap=     0.349 Goal=   None    Shift=    0.000
 RMSDP=9.86D-04 MaxDP=4.62D-02 DE=-2.47D-02 OVMax= 1.17D-02

 Cycle   5  Pass 1  IDiag  1:
 RMSU=  7.16D-04    CP:  6.33D-01  8.57D-01  7.34D-01  7.82D-01
 E= -420.744023174853     Delta-E=       -0.001190146581 Rises=F Damp=F
 DIIS: error= 5.06D-04 at cycle   5 NSaved=   5.
 NSaved= 5 IEnMin= 5 EnMin= -420.744023174853     IErMin= 5 ErrMin= 5.06D-04
 ErrMax= 5.06D-04  0.00D+00 EMaxC= 1.00D-01 BMatC= 5.00D-05 BMatP= 1.76D-03
 IDIUse=3 WtCom= 9.95D-01 WtEn= 5.06D-03
 Coeff-Com:  0.292D-03 0.147D-01 0.296D-01 0.154D+00 0.801D+00
 Coeff-En:   0.000D+00 0.000D+00 0.000D+00 0.000D+00 0.100D+01
 Coeff:      0.290D-03 0.146D-01 0.295D-01 0.153D+00 0.802D+00
 Gap=     0.348 Goal=   None    Shift=    0.000
 RMSDP=2.32D-04 MaxDP=1.21D-02 DE=-1.19D-03 OVMax= 2.47D-03

 Cycle   6  Pass 1  IDiag  1:
 RMSU=  1.24D-04    CP:  6.31D-01  8.60D-01  7.49D-01  8.00D-01  1.02D+00
 E= -420.744062270449     Delta-E=       -0.000039095596 Rises=F Damp=F
 DIIS: error= 1.98D-04 at cycle   6 NSaved=   6.
 NSaved= 6 IEnMin= 6 EnMin= -420.744062270449     IErMin= 6 ErrMin= 1.98D-04
 ErrMax= 1.98D-04  0.00D+00 EMaxC= 1.00D-01 BMatC= 7.25D-06 BMatP= 5.00D-05
 IDIUse=3 WtCom= 9.98D-01 WtEn= 1.98D-03
 Coeff-Com: -0.974D-03-0.169D-01-0.184D-01 0.147D-01 0.349D+00 0.673D+00
 Coeff-En:   0.000D+00 0.000D+00 0.000D+00 0.000D+00 0.000D+00 0.100D+01
 Coeff:     -0.973D-03-0.168D-01-0.184D-01 0.147D-01 0.348D+00 0.674D+00
 Gap=     0.348 Goal=   None    Shift=    0.000
 RMSDP=1.73D-04 MaxDP=1.53D-02 DE=-3.91D-05 OVMax= 8.11D-04

 Cycle   7  Pass 1  IDiag  1:
 RMSU=  4.55D-05    CP:  6.29D-01  8.58D-01  7.60D-01  8.08D-01  1.10D+00
                    CP:  1.10D+00
 E= -420.744069313608     Delta-E=       -0.000007043159 Rises=F Damp=F
 DIIS: error= 6.87D-05 at cycle   7 NSaved=   7.
 NSaved= 7 IEnMin= 7 EnMin= -420.744069313608     IErMin= 7 ErrMin= 6.87D-05
 ErrMax= 6.87D-05  0.00D+00 EMaxC= 1.00D-01 BMatC= 3.08D-07 BMatP= 7.25D-06
 IDIUse=1 WtCom= 1.00D+00 WtEn= 0.00D+00
 Coeff-Com: -0.241D-03-0.558D-02-0.703D-02-0.137D-01 0.181D-02 0.137D+00
 Coeff-Com:  0.887D+00
 Coeff:     -0.241D-03-0.558D-02-0.703D-02-0.137D-01 0.181D-02 0.137D+00
 Coeff:      0.887D+00
 Gap=     0.348 Goal=   None    Shift=    0.000
 RMSDP=4.76D-05 MaxDP=2.80D-03 DE=-7.04D-06 OVMax= 3.23D-04

 Cycle   8  Pass 1  IDiag  1:
 RMSU=  1.55D-05    CP:  6.29D-01  8.58D-01  7.63D-01  8.07D-01  1.14D+00
                    CP:  1.13D+00  1.09D+00
 E= -420.744069884582     Delta-E=       -0.000000570975 Rises=F Damp=F
 DIIS: error= 1.54D-05 at cycle   8 NSaved=   8.
 NSaved= 8 IEnMin= 8 EnMin= -420.744069884582     IErMin= 8 ErrMin= 1.54D-05
 ErrMax= 1.54D-05  0.00D+00 EMaxC= 1.00D-01 BMatC= 4.12D-08 BMatP= 3.08D-07
 IDIUse=1 WtCom= 1.00D+00 WtEn= 0.00D+00
 Coeff-Com:  0.304D-04 0.252D-03 0.123D-03-0.601D-02-0.374D-01-0.372D-01
 Coeff-Com:  0.241D+00 0.839D+00
 Coeff:      0.304D-04 0.252D-03 0.123D-03-0.601D-02-0.374D-01-0.372D-01
 Coeff:      0.241D+00 0.839D+00
 Gap=     0.348 Goal=   None    Shift=    0.000
 RMSDP=1.51D-05 MaxDP=7.76D-04 DE=-5.71D-07 OVMax= 1.22D-04

 Cycle   9  Pass 1  IDiag  1:
 RMSU=  4.75D-06    CP:  6.29D-01  8.57D-01  7.64D-01  8.04D-01  1.16D+00
                    CP:  1.16D+00  1.17D+00  1.21D+00
 E= -420.744069957298     Delta-E=       -0.000000072716 Rises=F Damp=F
 DIIS: error= 1.07D-05 at cycle   9 NSaved=   9.
 NSaved= 9 IEnMin= 9 EnMin= -420.744069957298     IErMin= 9 ErrMin= 1.07D-05
 ErrMax= 1.07D-05  0.00D+00 EMaxC= 1.00D-01 BMatC= 4.93D-09 BMatP= 4.12D-08
 IDIUse=1 WtCom= 1.00D+00 WtEn= 0.00D+00
 Coeff-Com:  0.380D-04 0.726D-03 0.877D-03-0.405D-03-0.106D-01-0.274D-01
 Coeff-Com: -0.255D-01 0.256D+00 0.806D+00
 Coeff:      0.380D-04 0.726D-03 0.877D-03-0.405D-03-0.106D-01-0.274D-01
 Coeff:     -0.255D-01 0.256D+00 0.806D+00
 Gap=     0.348 Goal=   None    Shift=    0.000
 RMSDP=5.07D-06 MaxDP=3.10D-04 DE=-7.27D-08 OVMax= 5.01D-05

 Cycle  10  Pass 1  IDiag  1:
 RMSU=  1.56D-06    CP:  6.29D-01  8.57D-01  7.64D-01  8.02D-01  1.16D+00
                    CP:  1.16D+00  1.19D+00  1.31D+00  1.28D+00
 E= -420.744069965820     Delta-E=       -0.000000008522 Rises=F Damp=F
 DIIS: error= 1.45D-06 at cycle  10 NSaved=  10.
 NSaved=10 IEnMin=10 EnMin= -420.744069965820     IErMin=10 ErrMin= 1.45D-06
 ErrMax= 1.45D-06  0.00D+00 EMaxC= 1.00D-01 BMatC= 6.38D-10 BMatP= 4.93D-09
 IDIUse=1 WtCom= 1.00D+00 WtEn= 0.00D+00
 Coeff-Com:  0.726D-05 0.160D-03 0.217D-03 0.410D-03 0.115D-02-0.443D-02
 Coeff-Com: -0.309D-01-0.209D-01 0.239D+00 0.816D+00
 Coeff:      0.726D-05 0.160D-03 0.217D-03 0.410D-03 0.115D-02-0.443D-02
 Coeff:     -0.309D-01-0.209D-01 0.239D+00 0.816D+00
 Gap=     0.348 Goal=   None    Shift=    0.000
 RMSDP=1.68D-06 MaxDP=1.07D-04 DE=-8.52D-09 OVMax= 1.31D-05

 Cycle  11  Pass 1  IDiag  1:
 RMSU=  3.70D-07    CP:  6.29D-01  8.57D-01  7.64D-01  8.02D-01  1.16D+00
                    CP:  1.16D+00  1.20D+00  1.36D+00  1.41D+00  1.16D+00
 E= -420.744069966824     Delta-E=       -0.000000001004 Rises=F Damp=F
 DIIS: error= 9.47D-07 at cycle  11 NSaved=  11.
 NSaved=11 IEnMin=11 EnMin= -420.744069966824     IErMin=11 ErrMin= 9.47D-07
 ErrMax= 9.47D-07  0.00D+00 EMaxC= 1.00D-01 BMatC= 1.09D-10 BMatP= 6.38D-10
 IDIUse=1 WtCom= 1.00D+00 WtEn= 0.00D+00
 Coeff-Com: -0.160D-05-0.132D-04-0.152D-05 0.248D-03 0.195D-02 0.140D-02
 Coeff-Com: -0.861D-02-0.465D-01-0.145D-01 0.322D+00 0.744D+00
 Coeff:     -0.160D-05-0.132D-04-0.152D-05 0.248D-03 0.195D-02 0.140D-02
 Coeff:     -0.861D-02-0.465D-01-0.145D-01 0.322D+00 0.744D+00
 Gap=     0.348 Goal=   None    Shift=    0.000
 RMSDP=6.83D-07 MaxDP=4.12D-05 DE=-1.00D-09 OVMax= 6.67D-06

 Cycle  12  Pass 1  IDiag  1:
 RMSU=  2.46D-07    CP:  6.29D-01  8.57D-01  7.63D-01  8.01D-01  1.16D+00
                    CP:  1.16D+00  1.20D+00  1.36D+00  1.46D+00  1.29D+00
                    CP:  1.06D+00
 E= -420.744069966982     Delta-E=       -0.000000000158 Rises=F Damp=F
 DIIS: error= 1.73D-07 at cycle  12 NSaved=  12.
 NSaved=12 IEnMin=12 EnMin= -420.744069966982     IErMin=12 ErrMin= 1.73D-07
 ErrMax= 1.73D-07  0.00D+00 EMaxC= 1.00D-01 BMatC= 8.45D-12 BMatP= 1.09D-10
 IDIUse=1 WtCom= 1.00D+00 WtEn= 0.00D+00
 Coeff-Com: -0.105D-05-0.168D-04-0.176D-04 0.376D-04 0.462D-03 0.637D-03
 Coeff-Com:  0.743D-03-0.115D-01-0.239D-01 0.180D-01 0.201D+00 0.815D+00
 Coeff:     -0.105D-05-0.168D-04-0.176D-04 0.376D-04 0.462D-03 0.637D-03
 Coeff:      0.743D-03-0.115D-01-0.239D-01 0.180D-01 0.201D+00 0.815D+00
 Gap=     0.348 Goal=   None    Shift=    0.000
 RMSDP=1.42D-07 MaxDP=9.64D-06 DE=-1.58D-10 OVMax= 2.36D-06

 Cycle  13  Pass 1  IDiag  1:
 RMSU=  6.40D-08    CP:  6.29D-01  8.57D-01  7.63D-01  8.01D-01  1.16D+00
                    CP:  1.16D+00  1.20D+00  1.36D+00  1.47D+00  1.31D+00
                    CP:  1.13D+00  1.00D+00
 E= -420.744069967001     Delta-E=       -0.000000000019 Rises=F Damp=F
 DIIS: error= 1.14D-07 at cycle  13 NSaved=  13.
 NSaved=13 IEnMin=13 EnMin= -420.744069967001     IErMin=13 ErrMin= 1.14D-07
 ErrMax= 1.14D-07  0.00D+00 EMaxC= 1.00D-01 BMatC= 1.41D-12 BMatP= 8.45D-12
 IDIUse=1 WtCom= 1.00D+00 WtEn= 0.00D+00
 Coeff-Com:  0.166D-07-0.396D-05-0.702D-05-0.377D-04-0.237D-03-0.111D-03
 Coeff-Com:  0.194D-02 0.515D-02-0.328D-02-0.551D-01-0.948D-01 0.213D+00
 Coeff-Com:  0.933D+00
 Coeff:      0.166D-07-0.396D-05-0.702D-05-0.377D-04-0.237D-03-0.111D-03
 Coeff:      0.194D-02 0.515D-02-0.328D-02-0.551D-01-0.948D-01 0.213D+00
 Coeff:      0.933D+00
 Gap=     0.348 Goal=   None    Shift=    0.000
 RMSDP=7.99D-08 MaxDP=7.40D-06 DE=-1.88D-11 OVMax= 1.63D-06

 Cycle  14  Pass 1  IDiag  1:
 RMSU=  2.42D-08    CP:  6.29D-01  8.57D-01  7.63D-01  8.01D-01  1.16D+00
                    CP:  1.16D+00  1.20D+00  1.36D+00  1.47D+00  1.32D+00
                    CP:  1.17D+00  1.10D+00  1.31D+00
 E= -420.744069967001     Delta-E=        0.000000000000 Rises=F Damp=F
 DIIS: error= 4.84D-08 at cycle  14 NSaved=  14.
 NSaved=14 IEnMin=13 EnMin= -420.744069967001     IErMin=14 ErrMin= 4.84D-08
 ErrMax= 4.84D-08  0.00D+00 EMaxC= 1.00D-01 BMatC= 1.33D-13 BMatP= 1.41D-12
 IDIUse=1 WtCom= 1.00D+00 WtEn= 0.00D+00
 Coeff-Com:  0.730D-07 0.131D-05 0.143D-05-0.448D-05-0.637D-04-0.477D-04
 Coeff-Com:  0.634D-05 0.132D-02 0.222D-02-0.507D-02-0.241D-01-0.738D-01
 Coeff-Com:  0.360D-01 0.106D+01
 Coeff:      0.730D-07 0.131D-05 0.143D-05-0.448D-05-0.637D-04-0.477D-04
 Coeff:      0.634D-05 0.132D-02 0.222D-02-0.507D-02-0.241D-01-0.738D-01
 Coeff:      0.360D-01 0.106D+01
 Gap=     0.348 Goal=   None    Shift=    0.000
 RMSDP=2.94D-08 MaxDP=2.41D-06 DE= 1.14D-13 OVMax= 7.12D-07

 Cycle  15  Pass 1  IDiag  1:
 RMSU=  7.53D-09    CP:  6.29D-01  8.57D-01  7.63D-01  8.01D-01  1.16D+00
                    CP:  1.16D+00  1.20D+00  1.36D+00  1.47D+00  1.32D+00
                    CP:  1.17D+00  1.09D+00  1.49D+00  1.29D+00
 E= -420.744069967006     Delta-E=       -0.000000000005 Rises=F Damp=F
 DIIS: error= 2.81D-08 at cycle  15 NSaved=  15.
 NSaved=15 IEnMin=15 EnMin= -420.744069967006     IErMin=15 ErrMin= 2.81D-08
 ErrMax= 2.81D-08  0.00D+00 EMaxC= 1.00D-01 BMatC= 3.55D-14 BMatP= 1.33D-13
 IDIUse=1 WtCom= 1.00D+00 WtEn= 0.00D+00
 Coeff-Com:  0.185D-07 0.106D-05 0.165D-05 0.474D-05 0.154D-04 0.835D-05
 Coeff-Com: -0.310D-03-0.346D-03 0.136D-02 0.727D-02 0.730D-02-0.552D-01
 Coeff-Com: -0.139D+00 0.370D+00 0.808D+00
 Coeff:      0.185D-07 0.106D-05 0.165D-05 0.474D-05 0.154D-04 0.835D-05
 Coeff:     -0.310D-03-0.346D-03 0.136D-02 0.727D-02 0.730D-02-0.552D-01
 Coeff:     -0.139D+00 0.370D+00 0.808D+00
 Gap=     0.348 Goal=   None    Shift=    0.000
 RMSDP=7.77D-09 MaxDP=3.84D-07 DE=-5.34D-12 OVMax= 2.42D-07

 SCF Done:  E(RwB97XD) =  -420.744069967     A.U. after   15 cycles
            NFock= 15  Conv=0.78D-08     -V/T= 2.0015
 KE= 4.201264563279D+02 PE=-1.802673774202D+03 EE= 5.522272369895D+02
 Leave Link  502 at Sun Nov 20 17:26:36 2022, MaxMem= 16106127360 cpu:             406.9 elap:              12.8
 (Enter /opt/ap/G16/B01/g16/l601.exe)
 Copying SCF densities to generalized density rwf, IOpCl= 0 IROHF=0.

 **********************************************************************

            Population analysis using the SCF Density.

 **********************************************************************

 Orbital symmetries:
       Occupied  (A) (A) (A) (A) (A) (A) (A) (A) (A) (A) (A) (A)
                 (A) (A) (A) (A) (A) (A) (A) (A) (A) (A) (A) (A)
                 (A) (A) (A) (A) (A) (A) (A) (A)
       Virtual   (A) (A) (A) (A) (A) (A) (A) (A) (A) (A) (A) (A)
                 (A) (A) (A) (A) (A) (A) (A) (A) (A) (A) (A) (A)
                 (A) (A) (A) (A) (A) (A) (A) (A) (A) (A) (A) (A)
                 (A) (A) (A) (A) (A) (A) (A) (A) (A) (A) (A) (A)
                 (A) (A) (A) (A) (A) (A) (A) (A) (A) (A) (A) (A)
                 (A) (A) (A) (A) (A) (A) (A) (A) (A) (A) (A) (A)
                 (A) (A) (A) (A) (A) (A) (A) (A) (A) (A) (A) (A)
                 (A) (A) (A) (A) (A) (A) (A) (A) (A) (A) (A) (A)
                 (A) (A) (A) (A) (A) (A) (A) (A) (A) (A) (A) (A)
                 (A) (A) (A) (A) (A) (A) (A) (A) (A) (A) (A) (A)
                 (A) (A) (A) (A) (A) (A) (A) (A) (A) (A) (A) (A)
                 (A) (A) (A) (A) (A) (A) (A) (A) (A) (A) (A) (A)
                 (A) (A) (A) (A) (A) (A) (A) (A) (A) (A) (A) (A)
                 (A) (A) (A) (A) (A) (A) (A) (A) (A) (A) (A) (A)
                 (A) (A) (A) (A) (A) (A) (A) (A) (A) (A) (A) (A)
                 (A) (A) (A) (A) (A) (A) (A) (A) (A) (A) (A) (A)
                 (A) (A) (A) (A) (A) (A) (A) (A) (A) (A) (A) (A)
                 (A) (A) (A) (A)
 The electronic state is 1-A.
 Alpha  occ. eigenvalues --  -19.31384 -19.22867 -10.43156 -10.31007 -10.29326
 Alpha  occ. eigenvalues --  -10.29309 -10.29202 -10.29001 -10.28745  -1.25649
 Alpha  occ. eigenvalues --   -1.10642  -0.98077  -0.88873  -0.87020  -0.80434
 Alpha  occ. eigenvalues --   -0.73386  -0.71965  -0.65889  -0.60787  -0.58636
 Alpha  occ. eigenvalues --   -0.56728  -0.56090  -0.54348  -0.53479  -0.48659
 Alpha  occ. eigenvalues --   -0.47402  -0.45465  -0.44656  -0.41169  -0.36125
 Alpha  occ. eigenvalues --   -0.34670  -0.34315
 Alpha virt. eigenvalues --    0.00517   0.03707   0.04287   0.04521   0.05284
 Alpha virt. eigenvalues --    0.06478   0.07822   0.08696   0.10197   0.11219
 Alpha virt. eigenvalues --    0.11890   0.12939   0.13378   0.14336   0.14606
 Alpha virt. eigenvalues --    0.16007   0.16344   0.16928   0.17469   0.17965
 Alpha virt. eigenvalues --    0.18073   0.19533   0.20083   0.20163   0.20472
 Alpha virt. eigenvalues --    0.21169   0.21597   0.21704   0.23425   0.23693
 Alpha virt. eigenvalues --    0.25490   0.26346   0.26857   0.27912   0.28574
 Alpha virt. eigenvalues --    0.29589   0.29894   0.30553   0.31069   0.31914
 Alpha virt. eigenvalues --    0.32070   0.33575   0.34385   0.35319   0.36031
 Alpha virt. eigenvalues --    0.36474   0.37101   0.37996   0.39833   0.40190
 Alpha virt. eigenvalues --    0.41671   0.42131   0.42599   0.44163   0.45833
 Alpha virt. eigenvalues --    0.46599   0.50343   0.53534   0.54687   0.57687
 Alpha virt. eigenvalues --    0.59771   0.60458   0.61912   0.63749   0.64194
 Alpha virt. eigenvalues --    0.64634   0.64957   0.65905   0.66772   0.69008
 Alpha virt. eigenvalues --    0.69721   0.72134   0.73689   0.74142   0.75255
 Alpha virt. eigenvalues --    0.76739   0.81166   0.82534   0.83730   0.86322
 Alpha virt. eigenvalues --    0.88530   0.90515   0.93006   0.93738   0.94637
 Alpha virt. eigenvalues --    0.96321   0.97053   0.97720   0.99833   1.00561
 Alpha virt. eigenvalues --    1.04027   1.07413   1.07861   1.09785   1.11308
 Alpha virt. eigenvalues --    1.14353   1.15119   1.16221   1.16491   1.18139
 Alpha virt. eigenvalues --    1.21142   1.21392   1.24174   1.28447   1.29233
 Alpha virt. eigenvalues --    1.34998   1.39371   1.43831   1.45649   1.55454
 Alpha virt. eigenvalues --    1.58481   1.59105   1.60508   1.61021   1.62148
 Alpha virt. eigenvalues --    1.62489   1.66234   1.67048   1.67568   1.74770
 Alpha virt. eigenvalues --    1.75140   1.77426   1.79683   1.82942   1.87643
 Alpha virt. eigenvalues --    1.88236   1.91348   1.91692   1.95582   2.00341
 Alpha virt. eigenvalues --    2.00450   2.01934   2.03586   2.04552   2.05512
 Alpha virt. eigenvalues --    2.06944   2.11338   2.15299   2.17930   2.19518
 Alpha virt. eigenvalues --    2.23184   2.29117   2.30098   2.42674   2.45945
 Alpha virt. eigenvalues --    2.51963   2.54272   2.54550   2.57855   2.60276
 Alpha virt. eigenvalues --    2.71485   2.73196   2.74687   2.77028   2.81181
 Alpha virt. eigenvalues --    2.81746   2.83139   2.88252   2.89363   2.90543
 Alpha virt. eigenvalues --    2.90665   2.91815   2.95970   2.99673   3.00534
 Alpha virt. eigenvalues --    3.03807   3.06065   3.06563   3.15368   3.18579
 Alpha virt. eigenvalues --    3.18852   3.23389   3.27947   3.31901   3.36460
 Alpha virt. eigenvalues --    3.40111   3.45070   3.48395   3.50023   3.63892
 Alpha virt. eigenvalues --    3.66255   3.69217   3.74283   3.84318   3.87701
 Alpha virt. eigenvalues --    4.06653   4.16994   4.28409   4.30773   4.36745
 Alpha virt. eigenvalues --    4.40604   4.45478   4.94964   5.07976   5.15420
 Alpha virt. eigenvalues --    5.30516   5.48596   5.82839   6.08573  23.84120
 Alpha virt. eigenvalues --   23.94461  24.14121  24.21356  24.28334  24.30414
 Alpha virt. eigenvalues --   24.41822  50.04230  50.16562
          Condensed to atoms (all electrons):
               1          2          3          4          5          6
     1  C   10.596796  -3.137950  -1.561896   2.304231  -0.066210  -2.395840
     2  C   -3.137950  17.687532  -2.068395  -6.226422   0.805622  -0.881643
     3  C   -1.561896  -2.068395  12.615558   0.284131  -0.056668  -0.783204
     4  C    2.304231  -6.226422   0.284131   9.420065  -0.230292  -0.019622
     5  H   -0.066210   0.805622  -0.056668  -0.230292   0.484883  -0.129790
     6  C   -2.395840  -0.881643  -0.783204  -0.019622  -0.129790   8.881450
     7  C    0.862358  -0.655710  -3.153249   0.891594  -0.003792   0.472432
     8  H   -0.018474   0.040762   0.541643  -0.022436   0.000793  -0.083415
     9  C   -1.194428   1.786997   0.997179  -1.034132   0.047865  -0.226100
    10  H    0.051880  -0.189946   0.027220   0.482569  -0.014816   0.020167
    11  O   -0.206003  -0.254970  -0.053049   0.092651  -0.043483   0.464407
    12  O   -0.216698  -0.120731  -0.036931   0.068661  -0.007215   0.615165
    13  H    0.028899  -0.004935  -0.123660   0.008388  -0.000042   0.021996
    14  H    0.006032   0.032126   0.009546  -0.068864   0.001734  -0.016661
    15  H   -0.065567   0.001704   0.004887  -0.023094   0.001688   0.070667
               7          8          9         10         11         12
     1  C    0.862358  -0.018474  -1.194428   0.051880  -0.206003  -0.216698
     2  C   -0.655710   0.040762   1.786997  -0.189946  -0.254970  -0.120731
     3  C   -3.153249   0.541643   0.997179   0.027220  -0.053049  -0.036931
     4  C    0.891594  -0.022436  -1.034132   0.482569   0.092651   0.068661
     5  H   -0.003792   0.000793   0.047865  -0.014816  -0.043483  -0.007215
     6  C    0.472432  -0.083415  -0.226100   0.020167   0.464407   0.615165
     7  C    7.886796  -0.118347  -0.772290  -0.000643   0.075119   0.115725
     8  H   -0.118347   0.433551   0.033162   0.000039  -0.006585  -0.009141
     9  C   -0.772290   0.033162   6.555463  -0.054530  -0.041538  -0.025932
    10  H   -0.000643   0.000039  -0.054530   0.475229   0.003584   0.000833
    11  O    0.075119  -0.006585  -0.041538   0.003584   7.996979  -0.130465
    12  O    0.115725  -0.009141  -0.025932   0.000833  -0.130465   8.078661
    13  H    0.448576  -0.010125  -0.044266  -0.000704   0.001316   0.002042
    14  H   -0.048917   0.000988   0.441994  -0.008433  -0.000673  -0.000474
    15  H    0.011921  -0.000546  -0.003828  -0.000062   0.275960  -0.003625
              13         14         15
     1  C    0.028899   0.006032  -0.065567
     2  C   -0.004935   0.032126   0.001704
     3  C   -0.123660   0.009546   0.004887
     4  C    0.008388  -0.068864  -0.023094
     5  H   -0.000042   0.001734   0.001688
     6  C    0.021996  -0.016661   0.070667
     7  C    0.448576  -0.048917   0.011921
     8  H   -0.010125   0.000988  -0.000546
     9  C   -0.044266   0.441994  -0.003828
    10  H   -0.000704  -0.008433  -0.000062
    11  O    0.001316  -0.000673   0.275960
    12  O    0.002042  -0.000474  -0.003625
    13  H    0.466122  -0.007319   0.000175
    14  H   -0.007319   0.471738  -0.000135
    15  H    0.000175  -0.000135   0.404140
 Mulliken charges:
               1
     1  C    1.012869
     2  C   -0.814040
     3  C   -0.643113
     4  C    0.072571
     5  H    0.209723
     6  C   -0.010011
     7  C   -0.011571
     8  H    0.218133
     9  C   -0.465616
    10  H    0.207611
    11  O   -0.173251
    12  O   -0.329875
    13  H    0.213538
    14  H    0.187317
    15  H    0.325717
 Sum of Mulliken charges =  -0.00000
 Mulliken charges with hydrogens summed into heavy atoms:
               1
     1  C    1.012869
     2  C   -0.604318
     3  C   -0.424980
     4  C    0.280182
     6  C   -0.010011
     7  C    0.201966
     9  C   -0.278299
    11  O    0.152466
    12  O   -0.329875
 Electronic spatial extent (au):  <R**2>=           1157.7385
 Charge=              0.0000 electrons
 Dipole moment (field-independent basis, Debye):
    X=              1.4677    Y=             -2.3320    Z=              0.5507  Tot=              2.8099
 Quadrupole moment (field-independent basis, Debye-Ang):
   XX=            -44.2287   YY=            -49.7555   ZZ=            -53.9153
   XY=              8.0903   XZ=             -2.0339   YZ=             -0.8552
 Traceless Quadrupole moment (field-independent basis, Debye-Ang):
   XX=              5.0711   YY=             -0.4556   ZZ=             -4.6155
   XY=              8.0903   XZ=             -2.0339   YZ=             -0.8552
 Octapole moment (field-independent basis, Debye-Ang**2):
  XXX=            -16.9283  YYY=             -4.3815  ZZZ=              0.1702  XYY=              6.9300
  XXY=            -26.2222  XXZ=              6.8797  XZZ=            -11.9189  YZZ=             -0.6122
  YYZ=              0.7884  XYZ=              2.7208
 Hexadecapole moment (field-independent basis, Debye-Ang**3):
 XXXX=           -890.9366 YYYY=           -358.7039 ZZZZ=            -58.6092 XXXY=             88.4633
 XXXZ=            -23.6188 YYYX=             16.8905 YYYZ=             -1.5355 ZZZX=             -1.1904
 ZZZY=             -0.4293 XXYY=           -233.0524 XXZZ=           -192.5892 YYZZ=            -78.7411
 XXYZ=             -8.5664 YYXZ=             -2.6152 ZZXY=              2.5962
 N-N= 4.095760109173D+02 E-N=-1.802673774522D+03  KE= 4.201264563279D+02
 No NMR shielding tensors so no spin-rotation constants.
 Leave Link  601 at Sun Nov 20 17:26:36 2022, MaxMem= 16106127360 cpu:               3.3 elap:               0.1
 (Enter /opt/ap/G16/B01/g16/l9999.exe)
 1\1\GINC-N04\SP\RwB97XD\6-311++G(d,p)\C7H6O2\ROOT\20-Nov-2022\0\\#P wB
 97XD/6-311++G(d,p) scf=maxcycle=512\\_conf013.gjf nmol_natom 1_15\\0,1
 \C\C,1,1.39016191\C,1,1.39194539,2,119.895942\C,2,1.38669027,1,119.880
 75721,3,0.70825972,0\H,2,0.98744251,1,119.71654057,3,-179.90726164,0\C
 ,1,1.48428757,2,119.93615286,4,-179.87772406,0\C,3,1.40101108,1,119.72
 36454,2,-0.26266839,0\H,3,0.9902154,1,119.1886159,2,178.85397616,0\C,4
 ,1.37899003,2,120.45785903,1,-0.48041454,0\H,4,0.9834739,2,120.3044270
 6,1,179.36166981,0\O,6,1.27459751,1,118.00615353,2,-1.25976832,0\O,6,1
 .26362572,1,118.77715367,2,179.20603801,0\H,7,0.98977053,3,119.3786157
 8,1,-178.93545741,0\H,9,0.99498061,4,119.46722635,2,-178.58826714,0\H,
 11,0.89680392,6,118.15823763,1,-205.,0\\Version=ES64L-G16RevB.01\State
 =1-A\HF=-420.74407\RMSD=7.771e-09\Dipole=0.0687325,0.2185739,1.0814866
 \Quadrupole=7.8904299,-3.4425345,-4.4478954,-1.5978066,-1.547154,-0.16
 97324\PG=C01 [X(C7H6O2)]\\@


 We find comfort among those who agree with us -- growth among those who don't.
 -- Frank A. Clark
 Job cpu time:       0 days  0 hours  7 minutes 35.4 seconds.
 Elapsed time:       0 days  0 hours  0 minutes 14.4 seconds.
 File lengths (MBytes):  RWF=     35 Int=      0 D2E=      0 Chk=      4 Scr=      1
 Normal termination of Gaussian 16 at Sun Nov 20 17:26:36 2022.
