 Entering Gaussian System, Link 0=g16
 Input=_conf028.gjf
 Output=_conf028.log
 Initial command:
 /opt/ap/G16/B01/g16/l1.exe "/tmp2/scr/Gau-7528.inp" -scrdir="/tmp2/scr/"
 Entering Link 1 = /opt/ap/G16/B01/g16/l1.exe PID=      7529.
  
 Copyright (c) 1988-2017, Gaussian, Inc.  All Rights Reserved.
  
 This is part of the Gaussian(R) 16 program.  It is based on
 the Gaussian(R) 09 system (copyright 2009, Gaussian, Inc.),
 the Gaussian(R) 03 system (copyright 2003, Gaussian, Inc.),
 the Gaussian(R) 98 system (copyright 1998, Gaussian, Inc.),
 the Gaussian(R) 94 system (copyright 1995, Gaussian, Inc.),
 the Gaussian 92(TM) system (copyright 1992, Gaussian, Inc.),
 the Gaussian 90(TM) system (copyright 1990, Gaussian, Inc.),
 the Gaussian 88(TM) system (copyright 1988, Gaussian, Inc.),
 the Gaussian 86(TM) system (copyright 1986, Carnegie Mellon
 University), and the Gaussian 82(TM) system (copyright 1983,
 Carnegie Mellon University). Gaussian is a federally registered
 trademark of Gaussian, Inc.
  
 This software contains proprietary and confidential information,
 including trade secrets, belonging to Gaussian, Inc.
  
 This software is provided under written license and may be
 used, copied, transmitted, or stored only in accord with that
 written license.
  
 The following legend is applicable only to US Government
 contracts under FAR:
  
                    RESTRICTED RIGHTS LEGEND
  
 Use, reproduction and disclosure by the US Government is
 subject to restrictions as set forth in subparagraphs (a)
 and (c) of the Commercial Computer Software - Restricted
 Rights clause in FAR 52.227-19.
  
 Gaussian, Inc.
 340 Quinnipiac St., Bldg. 40, Wallingford CT 06492
  
  
 ---------------------------------------------------------------
 Warning -- This program may not be used in any manner that
 competes with the business of Gaussian, Inc. or will provide
 assistance to any competitor of Gaussian, Inc.  The licensee
 of this program is prohibited from giving any competitor of
 Gaussian, Inc. access to this program.  By using this program,
 the user acknowledges that Gaussian, Inc. is engaged in the
 business of creating and licensing software in the field of
 computational chemistry and represents and warrants to the
 licensee that it is not a competitor of Gaussian, Inc. and that
 it will not use this program in any manner prohibited above.
 ---------------------------------------------------------------
  

 Cite this work as:
 Gaussian 16, Revision B.01,
 M. J. Frisch, G. W. Trucks, H. B. Schlegel, G. E. Scuseria, 
 M. A. Robb, J. R. Cheeseman, G. Scalmani, V. Barone, 
 G. A. Petersson, H. Nakatsuji, X. Li, M. Caricato, A. V. Marenich, 
 J. Bloino, B. G. Janesko, R. Gomperts, B. Mennucci, H. P. Hratchian, 
 J. V. Ortiz, A. F. Izmaylov, J. L. Sonnenberg, D. Williams-Young, 
 F. Ding, F. Lipparini, F. Egidi, J. Goings, B. Peng, A. Petrone, 
 T. Henderson, D. Ranasinghe, V. G. Zakrzewski, J. Gao, N. Rega, 
 G. Zheng, W. Liang, M. Hada, M. Ehara, K. Toyota, R. Fukuda, 
 J. Hasegawa, M. Ishida, T. Nakajima, Y. Honda, O. Kitao, H. Nakai, 
 T. Vreven, K. Throssell, J. A. Montgomery, Jr., J. E. Peralta, 
 F. Ogliaro, M. J. Bearpark, J. J. Heyd, E. N. Brothers, K. N. Kudin, 
 V. N. Staroverov, T. A. Keith, R. Kobayashi, J. Normand, 
 K. Raghavachari, A. P. Rendell, J. C. Burant, S. S. Iyengar, 
 J. Tomasi, M. Cossi, J. M. Millam, M. Klene, C. Adamo, R. Cammi, 
 J. W. Ochterski, R. L. Martin, K. Morokuma, O. Farkas, 
 J. B. Foresman, and D. J. Fox, Gaussian, Inc., Wallingford CT, 2016.
 
 ******************************************
 Gaussian 16:  ES64L-G16RevB.01 20-Dec-2017
                20-Nov-2022 
 ******************************************
 %nprocshared=32
 Will use up to   32 processors via shared memory.
 %mem=120GB
 %chk=_conf028.chk
 ----------------------------------------
 #P wB97XD/6-311++G(d,p) scf=maxcycle=512
 ----------------------------------------
 1/38=1,172=1/1;
 2/12=2,17=6,18=5,40=1/2;
 3/5=4,6=6,7=1111,11=2,25=1,30=1,74=-58/1,2,3;
 4//1;
 5/5=2,7=512,38=5/2;
 6/7=2,8=2,9=2,10=2,28=1/1;
 99/5=1,9=1/99;
 Leave Link    1 at Sun Nov 20 17:27:24 2022, MaxMem= 16106127360 cpu:               1.9 elap:               0.1
 (Enter /opt/ap/G16/B01/g16/l101.exe)
 ----------------------------
 _conf028.gjf nmol_natom 1_15
 ----------------------------
 Symbolic Z-matrix:
 Charge =  0 Multiplicity = 1
 C
 C                    1     1.39016 
 C                    1     1.39195  2     119.89594 
 C                    2     1.38669  1     119.88076  3     0.70826  0
 H                    2     0.98744  1     119.71654  3    -179.90726  0
 C                    1     1.48429  2     119.93615  4    -179.87772  0
 C                    3     1.40101  1     119.72365  2    -0.26267  0
 H                    3     0.99022  1     119.18862  2     178.85398  0
 C                    4     1.37899  2     120.45786  1    -0.48041  0
 H                    4     0.98347  2     120.30443  1     179.36167  0
 O                    6     1.2746   1     118.00615  2    -1.25977  0
 O                    6     1.26363  1     118.77715  2     179.20604  0
 H                    7     0.98977  3     119.37862  1    -178.93546  0
 H                    9     0.99498  4     119.46723  2    -178.58827  0
 H                    11    0.8968   6     118.15824  1    -130.     0
 
 ITRead=  0  0  0  0  0  0  0  0  0  0  0  0  0  0  0
 MicOpt= -1 -1 -1 -1 -1 -1 -1 -1 -1 -1 -1 -1 -1 -1 -1
 NAtoms=     15 NQM=       15 NQMF=       0 NMMI=      0 NMMIF=      0
                NMic=       0 NMicF=      0.
                    Isotopes and Nuclear Properties:
 (Nuclear quadrupole moments (NQMom) in fm**2, nuclear magnetic moments (NMagM)
  in nuclear magnetons)

  Atom         1           2           3           4           5           6           7           8           9          10
 IAtWgt=          12          12          12          12           1          12          12           1          12           1
 AtmWgt=  12.0000000  12.0000000  12.0000000  12.0000000   1.0078250  12.0000000  12.0000000   1.0078250  12.0000000   1.0078250
 NucSpn=           0           0           0           0           1           0           0           1           0           1
 AtZEff=  -0.0000000  -0.0000000  -0.0000000  -0.0000000  -0.0000000  -0.0000000  -0.0000000  -0.0000000  -0.0000000  -0.0000000
 NQMom=    0.0000000   0.0000000   0.0000000   0.0000000   0.0000000   0.0000000   0.0000000   0.0000000   0.0000000   0.0000000
 NMagM=    0.0000000   0.0000000   0.0000000   0.0000000   2.7928460   0.0000000   0.0000000   2.7928460   0.0000000   2.7928460
 AtZNuc=   6.0000000   6.0000000   6.0000000   6.0000000   1.0000000   6.0000000   6.0000000   1.0000000   6.0000000   1.0000000

  Atom        11          12          13          14          15
 IAtWgt=          16          16           1           1           1
 AtmWgt=  15.9949146  15.9949146   1.0078250   1.0078250   1.0078250
 NucSpn=           0           0           1           1           1
 AtZEff=  -0.0000000  -0.0000000  -0.0000000  -0.0000000  -0.0000000
 NQMom=    0.0000000   0.0000000   0.0000000   0.0000000   0.0000000
 NMagM=    0.0000000   0.0000000   2.7928460   2.7928460   2.7928460
 AtZNuc=   8.0000000   8.0000000   1.0000000   1.0000000   1.0000000
 Leave Link  101 at Sun Nov 20 17:27:24 2022, MaxMem= 16106127360 cpu:               5.1 elap:               0.2
 (Enter /opt/ap/G16/B01/g16/l202.exe)
                          Input orientation:                          
 ---------------------------------------------------------------------
 Center     Atomic      Atomic             Coordinates (Angstroms)
 Number     Number       Type             X           Y           Z
 ---------------------------------------------------------------------
      1          6           0        0.000000    0.000000    0.000000
      2          6           0        0.000000    0.000000    1.390162
      3          6           0        1.206722    0.000000   -0.693782
      4          6           0        1.202258    0.014862    2.081006
      5          1           0       -0.857581   -0.001388    1.879646
      6          6           0       -1.286190   -0.013155   -0.740711
      7          6           0        2.415349    0.005578    0.014752
      8          1           0        1.194584   -0.017290   -1.683772
      9          6           0        2.400563    0.019708    1.398617
     10          1           0        1.209438    0.024411    3.064408
     11          8           0       -2.365984   -0.048941   -0.064425
     12          8           0       -1.260842    0.002453   -2.003986
     13          1           0        3.270315    0.021574   -0.483669
     14          1           0        3.254554    0.009066    1.909081
     15          1           0       -2.981497   -0.663774   -0.282096
 ---------------------------------------------------------------------
                    Distance matrix (angstroms):
                    1          2          3          4          5
     1  C    0.000000
     2  C    1.390162   0.000000
     3  C    1.391945   2.408112   0.000000
     4  C    2.403379   1.386690   2.774832   0.000000
     5  H    2.066039   0.987443   3.299073   2.069721   0.000000
     6  C    1.484288   2.488991   2.493388   3.762345   2.655206
     7  C    2.415401   2.779513   1.401011   2.396056   3.766955
     8  H    2.064563   3.297939   0.990215   3.764924   4.112127
     9  C    2.778349   2.400659   2.409104   1.378990   3.293530
    10  H    3.294530   2.065535   3.758270   0.983474   2.382624
    11  O    2.367367   2.777786   3.628045   4.164047   2.461088
    12  O    2.367633   3.620769   2.793834   4.770133   3.904515
    13  H    3.305958   3.769173   2.074374   3.294611   4.756607
    14  H    3.773167   3.295676   3.311886   2.059493   4.112253
    15  H    3.067490   3.482293   4.260429   4.852690   3.102081
                    6          7          8          9         10
     6  C    0.000000
     7  C    3.777892   0.000000
     8  H    2.653982   2.091836   0.000000
     9  C    4.262622   1.384016   3.310118   0.000000
    10  H    4.550659   3.279477   4.748386   2.047842   0.000000
    11  O    1.274598   4.782299   3.911641   4.986499   4.751696
    12  O    1.263626   4.194007   2.476296   4.998389   5.638384
    13  H    4.563881   0.989771   2.398003   2.073517   4.103177
    14  H    5.257398   2.071897   4.141589   0.994981   2.348938
    15  H    1.872885   5.446292   4.452223   5.679658   5.407090
                   11         12         13         14         15
    11  O    0.000000
    12  O    2.232908   0.000000
    13  H    5.652309   4.779447   0.000000
    14  H    5.957225   5.975025   2.392834   0.000000
    15  H    0.896804   2.523770   6.292494   6.643967   0.000000
 Stoichiometry    C7H6O2
 Framework group  C1[X(C7H6O2)]
 Deg. of freedom    39
 Full point group                 C1      NOp   1
 Largest Abelian subgroup         C1      NOp   1
 Largest concise Abelian subgroup C1      NOp   1
                         Standard orientation:                         
 ---------------------------------------------------------------------
 Center     Atomic      Atomic             Coordinates (Angstroms)
 Number     Number       Type             X           Y           Z
 ---------------------------------------------------------------------
      1          6           0        0.224304    0.030472   -0.016376
      2          6           0       -0.438833   -1.191310   -0.023328
      3          6           0       -0.505135    1.215610    0.013243
      4          6           0       -1.825093   -1.224999   -0.015589
      5          1           0        0.081281   -2.030440   -0.042971
      6          6           0        1.708076    0.067991   -0.027391
      7          6           0       -1.905276    1.169275    0.030313
      8          1           0       -0.021935    2.079648    0.035217
      9          6           0       -2.552651   -0.053815    0.008945
     10          1           0       -2.300665   -2.085723   -0.029898
     11          8           0        2.334921   -1.041776   -0.018394
     12          8           0        2.288151    1.190572   -0.036127
     13          1           0       -2.419072    2.015226    0.035340
     14          1           0       -3.546406   -0.095407    0.035538
     15          1           0        2.989870   -1.153015    0.584038
 ---------------------------------------------------------------------
 Rotational constants (GHZ):           3.9482521           1.2422944           0.9463892
 Leave Link  202 at Sun Nov 20 17:27:24 2022, MaxMem= 16106127360 cpu:               1.3 elap:               0.0
 (Enter /opt/ap/G16/B01/g16/l301.exe)
 Standard basis: 6-311++G(d,p) (5D, 7F)
 Ernie: Thresh=  0.10000D-02 Tol=  0.10000D-05 Strict=F.
 There are   249 symmetry adapted cartesian basis functions of A   symmetry.
 There are   240 symmetry adapted basis functions of A   symmetry.
   240 basis functions,   378 primitive gaussians,   249 cartesian basis functions
    32 alpha electrons       32 beta electrons
       nuclear repulsion energy       409.6589344506 Hartrees.
 IExCor= 4639 DFT=T Ex+Corr=wB97XD ExCW=0 ScaHFX=  1.000000
 ScaDFX=  1.000000  1.000000  1.000000  1.000000 ScalE2=  1.000000  1.000000
 IRadAn=      5 IRanWt=     -1 IRanGd=            0 ICorTp=0 IEmpDi=121
 HFx  wShort=  0.000000 wLong=  0.200000 cFull=  0.222036 cShort=  0.000000 cLong=  0.777964
 DFx  wShort=  0.000000 wLong=  0.200000 cFull=  0.000000 cShort=  0.000000 cLong=  1.000000
 NAtoms=   15 NActive=   15 NUniq=   15 SFac= 1.00D+00 NAtFMM=   60 NAOKFM=F Big=F
 Integral buffers will be    131072 words long.
 Raffenetti 2 integral format.
 Two-electron integral symmetry is turned on.
 R6Disp:  Grimme-D2 Dispersion energy=       -0.0064137372 Hartrees.
 Nuclear repulsion after empirical dispersion term =      409.6525207134 Hartrees.
 Leave Link  301 at Sun Nov 20 17:27:25 2022, MaxMem= 16106127360 cpu:               1.5 elap:               0.1
 (Enter /opt/ap/G16/B01/g16/l302.exe)
 NPDir=0 NMtPBC=     1 NCelOv=     1 NCel=       1 NClECP=     1 NCelD=      1
         NCelK=      1 NCelE2=     1 NClLst=     1 CellRange=     0.0.
 One-electron integrals computed using PRISM.
 One-electron integral symmetry used in STVInt
 NBasis=   240 RedAO= T EigKep=  1.22D-06  NBF=   240
 NBsUse=   240 1.00D-06 EigRej= -1.00D+00 NBFU=   240
 Precomputing XC quadrature grid using
 IXCGrd= 4 IRadAn=           5 IRanWt=          -1 IRanGd=           0 AccXCQ= 0.00D+00.
 Generated NRdTot=       0 NPtTot=           0 NUsed=           0 NTot=          32
 NSgBfM=   249   249   249   249   249 MxSgAt=    15 MxSgA2=    15.
 Leave Link  302 at Sun Nov 20 17:27:25 2022, MaxMem= 16106127360 cpu:               5.4 elap:               0.2
 (Enter /opt/ap/G16/B01/g16/l303.exe)
 DipDrv:  MaxL=1.
 Leave Link  303 at Sun Nov 20 17:27:25 2022, MaxMem= 16106127360 cpu:               1.2 elap:               0.0
 (Enter /opt/ap/G16/B01/g16/l401.exe)
 ExpMin= 3.60D-02 ExpMax= 8.59D+03 ExpMxC= 1.30D+03 IAcc=3 IRadAn=         5 AccDes= 0.00D+00
 Harris functional with IExCor= 4639 and IRadAn=       5 diagonalized for initial guess.
 HarFok:  IExCor= 4639 AccDes= 0.00D+00 IRadAn=         5 IDoV= 1 UseB2=F ITyADJ=14
 ICtDFT=  3500011 ScaDFX=  1.000000  1.000000  1.000000  1.000000
 FoFCou: FMM=F IPFlag=           0 FMFlag=      100000 FMFlg1=           0
         NFxFlg=           0 DoJE=T BraDBF=F KetDBF=T FulRan=T
         wScrn=  0.000000 ICntrl=       500 IOpCl=  0 I1Cent=   200000004 NGrid=           0
         NMat0=    1 NMatS0=      1 NMatT0=    0 NMatD0=    1 NMtDS0=    0 NMtDT0=    0
 Petite list used in FoFCou.
 Harris En= -403.245334792187    
 JPrj=0 DoOrth=F DoCkMO=F.
 Leave Link  401 at Sun Nov 20 17:27:25 2022, MaxMem= 16106127360 cpu:              11.8 elap:               0.4
 (Enter /opt/ap/G16/B01/g16/l502.exe)
 Integral symmetry usage will be decided dynamically.
 Closed shell SCF:
 Using DIIS extrapolation, IDIIS=  1040.
 NGot= 16106127360 LenX= 16105992971 LenY= 16105930529
 Requested convergence on RMS density matrix=1.00D-08 within 512 cycles.
 Requested convergence on MAX density matrix=1.00D-06.
 Requested convergence on             energy=1.00D-06.
 No special actions if energy rises.
 Fock matrices will be formed incrementally for  20 cycles.

 Cycle   1  Pass 1  IDiag  1:
 FoFJK:  IHMeth= 1 ICntrl=       0 DoSepK=T KAlg= 0 I1Cent=           0 FoldK=F
 IRaf=         1 NMat=       1 IRICut=       1 DoRegI=T DoRafI=F ISym2E= 0 IDoP0=0 IntGTp=1.
 FoFCou: FMM=F IPFlag=           0 FMFlag=      100000 FMFlg1=           0
         NFxFlg=           0 DoJE=T BraDBF=F KetDBF=F FulRan=T
         wScrn=  0.000000 ICntrl=       500 IOpCl=  0 I1Cent=           0 NGrid=           0
         NMat0=    1 NMatS0=      1 NMatT0=    0 NMatD0=    1 NMtDS0=    0 NMtDT0=    0
 Symmetry not used in FoFCou.
 E= -420.624124314994    
 DIIS: error= 5.67D-02 at cycle   1 NSaved=   1.
 NSaved= 1 IEnMin= 1 EnMin= -420.624124314994     IErMin= 1 ErrMin= 5.67D-02
 ErrMax= 5.67D-02  0.00D+00 EMaxC= 1.00D-01 BMatC= 8.58D-01 BMatP= 8.58D-01
 IDIUse=3 WtCom= 4.33D-01 WtEn= 5.67D-01
 Coeff-Com:  0.100D+01
 Coeff-En:   0.100D+01
 Coeff:      0.100D+01
 Gap=     0.425 Goal=   None    Shift=    0.000
 GapD=    0.425 DampG=2.000 DampE=0.500 DampFc=1.0000 IDamp=-1.
 RMSDP=2.94D-02 MaxDP=2.11D+00              OVMax= 1.05D-01

 Cycle   2  Pass 1  IDiag  1:
 RMSU=  1.49D-02    CP:  6.64D-01
 E= -420.696817838817     Delta-E=       -0.072693523823 Rises=F Damp=F
 DIIS: error= 1.10D-02 at cycle   2 NSaved=   2.
 NSaved= 2 IEnMin= 2 EnMin= -420.696817838817     IErMin= 2 ErrMin= 1.10D-02
 ErrMax= 1.10D-02  0.00D+00 EMaxC= 1.00D-01 BMatC= 5.01D-02 BMatP= 8.58D-01
 IDIUse=3 WtCom= 8.90D-01 WtEn= 1.10D-01
 Coeff-Com:  0.127D+00 0.873D+00
 Coeff-En:   0.521D-01 0.948D+00
 Coeff:      0.119D+00 0.881D+00
 Gap=     0.422 Goal=   None    Shift=    0.000
 RMSDP=7.40D-03 MaxDP=4.68D-01 DE=-7.27D-02 OVMax= 6.99D-02

 Cycle   3  Pass 1  IDiag  1:
 RMSU=  5.94D-03    CP:  6.41D-01  7.29D-01
 E= -420.713697844509     Delta-E=       -0.016880005692 Rises=F Damp=F
 DIIS: error= 9.51D-03 at cycle   3 NSaved=   3.
 NSaved= 3 IEnMin= 3 EnMin= -420.713697844509     IErMin= 3 ErrMin= 9.51D-03
 ErrMax= 9.51D-03  0.00D+00 EMaxC= 1.00D-01 BMatC= 2.82D-02 BMatP= 5.01D-02
 IDIUse=3 WtCom= 9.05D-01 WtEn= 9.51D-02
 Coeff-Com:  0.250D-01 0.435D+00 0.540D+00
 Coeff-En:   0.000D+00 0.357D+00 0.643D+00
 Coeff:      0.226D-01 0.428D+00 0.550D+00
 Gap=     0.359 Goal=   None    Shift=    0.000
 RMSDP=3.44D-03 MaxDP=2.15D-01 DE=-1.69D-02 OVMax= 4.06D-02

 Cycle   4  Pass 1  IDiag  1:
 RMSU=  1.46D-03    CP:  6.27D-01  8.76D-01  6.65D-01
 E= -420.735477868037     Delta-E=       -0.021780023528 Rises=F Damp=F
 DIIS: error= 2.08D-03 at cycle   4 NSaved=   4.
 NSaved= 4 IEnMin= 4 EnMin= -420.735477868037     IErMin= 4 ErrMin= 2.08D-03
 ErrMax= 2.08D-03  0.00D+00 EMaxC= 1.00D-01 BMatC= 1.26D-03 BMatP= 2.82D-02
 IDIUse=3 WtCom= 9.79D-01 WtEn= 2.08D-02
 Coeff-Com:  0.102D-01 0.218D+00 0.305D+00 0.467D+00
 Coeff-En:   0.000D+00 0.000D+00 0.000D+00 0.100D+01
 Coeff:      0.999D-02 0.213D+00 0.298D+00 0.478D+00
 Gap=     0.345 Goal=   None    Shift=    0.000
 RMSDP=9.29D-04 MaxDP=6.82D-02 DE=-2.18D-02 OVMax= 9.51D-03

 Cycle   5  Pass 1  IDiag  1:
 RMSU=  6.62D-04    CP:  6.22D-01  8.61D-01  7.08D-01  7.38D-01
 E= -420.736337597718     Delta-E=       -0.000859729681 Rises=F Damp=F
 DIIS: error= 4.15D-04 at cycle   5 NSaved=   5.
 NSaved= 5 IEnMin= 5 EnMin= -420.736337597718     IErMin= 5 ErrMin= 4.15D-04
 ErrMax= 4.15D-04  0.00D+00 EMaxC= 1.00D-01 BMatC= 4.82D-05 BMatP= 1.26D-03
 IDIUse=3 WtCom= 9.96D-01 WtEn= 4.15D-03
 Coeff-Com:  0.217D-03 0.129D-01 0.274D-01 0.167D+00 0.792D+00
 Coeff-En:   0.000D+00 0.000D+00 0.000D+00 0.000D+00 0.100D+01
 Coeff:      0.217D-03 0.129D-01 0.273D-01 0.167D+00 0.793D+00
 Gap=     0.345 Goal=   None    Shift=    0.000
 RMSDP=2.10D-04 MaxDP=1.15D-02 DE=-8.60D-04 OVMax= 2.34D-03

 Cycle   6  Pass 1  IDiag  1:
 RMSU=  1.22D-04    CP:  6.20D-01  8.65D-01  7.25D-01  7.47D-01  1.05D+00
 E= -420.736375702925     Delta-E=       -0.000038105208 Rises=F Damp=F
 DIIS: error= 1.62D-04 at cycle   6 NSaved=   6.
 NSaved= 6 IEnMin= 6 EnMin= -420.736375702925     IErMin= 6 ErrMin= 1.62D-04
 ErrMax= 1.62D-04  0.00D+00 EMaxC= 1.00D-01 BMatC= 7.09D-06 BMatP= 4.82D-05
 IDIUse=3 WtCom= 9.98D-01 WtEn= 1.62D-03
 Coeff-Com: -0.100D-02-0.176D-01-0.199D-01 0.195D-01 0.351D+00 0.668D+00
 Coeff-En:   0.000D+00 0.000D+00 0.000D+00 0.000D+00 0.000D+00 0.100D+01
 Coeff:     -0.100D-02-0.176D-01-0.198D-01 0.195D-01 0.350D+00 0.669D+00
 Gap=     0.345 Goal=   None    Shift=    0.000
 RMSDP=1.56D-04 MaxDP=1.29D-02 DE=-3.81D-05 OVMax= 8.44D-04

 Cycle   7  Pass 1  IDiag  1:
 RMSU=  3.78D-05    CP:  6.19D-01  8.63D-01  7.35D-01  7.51D-01  1.14D+00
                    CP:  1.07D+00
 E= -420.736382601722     Delta-E=       -0.000006898797 Rises=F Damp=F
 DIIS: error= 7.07D-05 at cycle   7 NSaved=   7.
 NSaved= 7 IEnMin= 7 EnMin= -420.736382601722     IErMin= 7 ErrMin= 7.07D-05
 ErrMax= 7.07D-05  0.00D+00 EMaxC= 1.00D-01 BMatC= 3.04D-07 BMatP= 7.09D-06
 IDIUse=1 WtCom= 1.00D+00 WtEn= 0.00D+00
 Coeff-Com: -0.256D-03-0.588D-02-0.757D-02-0.144D-01 0.788D-02 0.144D+00
 Coeff-Com:  0.876D+00
 Coeff:     -0.256D-03-0.588D-02-0.757D-02-0.144D-01 0.788D-02 0.144D+00
 Coeff:      0.876D+00
 Gap=     0.345 Goal=   None    Shift=    0.000
 RMSDP=4.34D-05 MaxDP=2.39D-03 DE=-6.90D-06 OVMax= 3.48D-04

 Cycle   8  Pass 1  IDiag  1:
 RMSU=  1.28D-05    CP:  6.18D-01  8.63D-01  7.38D-01  7.48D-01  1.19D+00
                    CP:  1.11D+00  1.03D+00
 E= -420.736383180179     Delta-E=       -0.000000578457 Rises=F Damp=F
 DIIS: error= 1.59D-05 at cycle   8 NSaved=   8.
 NSaved= 8 IEnMin= 8 EnMin= -420.736383180179     IErMin= 8 ErrMin= 1.59D-05
 ErrMax= 1.59D-05  0.00D+00 EMaxC= 1.00D-01 BMatC= 4.46D-08 BMatP= 3.04D-07
 IDIUse=1 WtCom= 1.00D+00 WtEn= 0.00D+00
 Coeff-Com:  0.261D-04 0.142D-03-0.627D-04-0.729D-02-0.367D-01-0.345D-01
 Coeff-Com:  0.258D+00 0.820D+00
 Coeff:      0.261D-04 0.142D-03-0.627D-04-0.729D-02-0.367D-01-0.345D-01
 Coeff:      0.258D+00 0.820D+00
 Gap=     0.345 Goal=   None    Shift=    0.000
 RMSDP=1.51D-05 MaxDP=8.49D-04 DE=-5.78D-07 OVMax= 1.33D-04

 Cycle   9  Pass 1  IDiag  1:
 RMSU=  5.29D-06    CP:  6.18D-01  8.63D-01  7.39D-01  7.44D-01  1.21D+00
                    CP:  1.13D+00  1.10D+00  1.28D+00
 E= -420.736383258217     Delta-E=       -0.000000078038 Rises=F Damp=F
 DIIS: error= 1.08D-05 at cycle   9 NSaved=   9.
 NSaved= 9 IEnMin= 9 EnMin= -420.736383258217     IErMin= 9 ErrMin= 1.08D-05
 ErrMax= 1.08D-05  0.00D+00 EMaxC= 1.00D-01 BMatC= 5.98D-09 BMatP= 4.46D-08
 IDIUse=1 WtCom= 1.00D+00 WtEn= 0.00D+00
 Coeff-Com:  0.416D-04 0.796D-03 0.941D-03-0.845D-03-0.121D-01-0.302D-01
 Coeff-Com: -0.184D-01 0.273D+00 0.786D+00
 Coeff:      0.416D-04 0.796D-03 0.941D-03-0.845D-03-0.121D-01-0.302D-01
 Coeff:     -0.184D-01 0.273D+00 0.786D+00
 Gap=     0.345 Goal=   None    Shift=    0.000
 RMSDP=5.30D-06 MaxDP=2.65D-04 DE=-7.80D-08 OVMax= 5.06D-05

 Cycle  10  Pass 1  IDiag  1:
 RMSU=  1.68D-06    CP:  6.18D-01  8.62D-01  7.39D-01  7.42D-01  1.21D+00
                    CP:  1.14D+00  1.12D+00  1.38D+00  1.20D+00
 E= -420.736383268068     Delta-E=       -0.000000009851 Rises=F Damp=F
 DIIS: error= 1.47D-06 at cycle  10 NSaved=  10.
 NSaved=10 IEnMin=10 EnMin= -420.736383268068     IErMin=10 ErrMin= 1.47D-06
 ErrMax= 1.47D-06  0.00D+00 EMaxC= 1.00D-01 BMatC= 7.96D-10 BMatP= 5.98D-09
 IDIUse=1 WtCom= 1.00D+00 WtEn= 0.00D+00
 Coeff-Com:  0.920D-05 0.199D-03 0.255D-03 0.418D-03 0.818D-03-0.579D-02
 Coeff-Com: -0.322D-01-0.127D-01 0.252D+00 0.797D+00
 Coeff:      0.920D-05 0.199D-03 0.255D-03 0.418D-03 0.818D-03-0.579D-02
 Coeff:     -0.322D-01-0.127D-01 0.252D+00 0.797D+00
 Gap=     0.345 Goal=   None    Shift=    0.000
 RMSDP=1.77D-06 MaxDP=1.27D-04 DE=-9.85D-09 OVMax= 1.83D-05

 Cycle  11  Pass 1  IDiag  1:
 RMSU=  4.35D-07    CP:  6.18D-01  8.62D-01  7.38D-01  7.41D-01  1.21D+00
                    CP:  1.14D+00  1.12D+00  1.44D+00  1.31D+00  1.15D+00
 E= -420.736383269359     Delta-E=       -0.000000001291 Rises=F Damp=F
 DIIS: error= 5.54D-07 at cycle  11 NSaved=  11.
 NSaved=11 IEnMin=11 EnMin= -420.736383269359     IErMin=11 ErrMin= 5.54D-07
 ErrMax= 5.54D-07  0.00D+00 EMaxC= 1.00D-01 BMatC= 1.14D-10 BMatP= 7.96D-10
 IDIUse=1 WtCom= 1.00D+00 WtEn= 0.00D+00
 Coeff-Com: -0.210D-05-0.221D-04-0.146D-04 0.293D-03 0.210D-02 0.164D-02
 Coeff-Com: -0.855D-02-0.474D-01-0.255D-01 0.275D+00 0.802D+00
 Coeff:     -0.210D-05-0.221D-04-0.146D-04 0.293D-03 0.210D-02 0.164D-02
 Coeff:     -0.855D-02-0.474D-01-0.255D-01 0.275D+00 0.802D+00
 Gap=     0.345 Goal=   None    Shift=    0.000
 RMSDP=7.56D-07 MaxDP=4.48D-05 DE=-1.29D-09 OVMax= 9.69D-06

 Cycle  12  Pass 1  IDiag  1:
 RMSU=  2.25D-07    CP:  6.18D-01  8.62D-01  7.38D-01  7.41D-01  1.21D+00
                    CP:  1.13D+00  1.12D+00  1.45D+00  1.35D+00  1.33D+00
                    CP:  1.24D+00
 E= -420.736383269572     Delta-E=       -0.000000000213 Rises=F Damp=F
 DIIS: error= 2.03D-07 at cycle  12 NSaved=  12.
 NSaved=12 IEnMin=12 EnMin= -420.736383269572     IErMin=12 ErrMin= 2.03D-07
 ErrMax= 2.03D-07  0.00D+00 EMaxC= 1.00D-01 BMatC= 1.07D-11 BMatP= 1.14D-10
 IDIUse=1 WtCom= 1.00D+00 WtEn= 0.00D+00
 Coeff-Com: -0.128D-05-0.222D-04-0.244D-04 0.365D-04 0.434D-03 0.774D-03
 Coeff-Com:  0.143D-02-0.101D-01-0.289D-01-0.915D-02 0.191D+00 0.854D+00
 Coeff:     -0.128D-05-0.222D-04-0.244D-04 0.365D-04 0.434D-03 0.774D-03
 Coeff:      0.143D-02-0.101D-01-0.289D-01-0.915D-02 0.191D+00 0.854D+00
 Gap=     0.345 Goal=   None    Shift=    0.000
 RMSDP=1.28D-07 MaxDP=7.57D-06 DE=-2.13D-10 OVMax= 4.46D-06

 Cycle  13  Pass 1  IDiag  1:
 RMSU=  6.57D-08    CP:  6.18D-01  8.62D-01  7.38D-01  7.41D-01  1.21D+00
                    CP:  1.13D+00  1.12D+00  1.45D+00  1.37D+00  1.36D+00
                    CP:  1.31D+00  1.04D+00
 E= -420.736383269608     Delta-E=       -0.000000000037 Rises=F Damp=F
 DIIS: error= 8.84D-08 at cycle  13 NSaved=  13.
 NSaved=13 IEnMin=13 EnMin= -420.736383269608     IErMin=13 ErrMin= 8.84D-08
 ErrMax= 8.84D-08  0.00D+00 EMaxC= 1.00D-01 BMatC= 1.96D-12 BMatP= 1.07D-11
 IDIUse=1 WtCom= 1.00D+00 WtEn= 0.00D+00
 Coeff-Com:  0.110D-06-0.337D-05-0.656D-05-0.552D-04-0.339D-03-0.165D-03
 Coeff-Com:  0.225D-02 0.725D-02-0.176D-02-0.603D-01-0.130D+00 0.190D+00
 Coeff-Com:  0.992D+00
 Coeff:      0.110D-06-0.337D-05-0.656D-05-0.552D-04-0.339D-03-0.165D-03
 Coeff:      0.225D-02 0.725D-02-0.176D-02-0.603D-01-0.130D+00 0.190D+00
 Coeff:      0.992D+00
 Gap=     0.345 Goal=   None    Shift=    0.000
 RMSDP=7.29D-08 MaxDP=5.72D-06 DE=-3.66D-11 OVMax= 3.22D-06

 Cycle  14  Pass 1  IDiag  1:
 RMSU=  2.64D-08    CP:  6.18D-01  8.62D-01  7.38D-01  7.41D-01  1.21D+00
                    CP:  1.13D+00  1.13D+00  1.45D+00  1.36D+00  1.37D+00
                    CP:  1.36D+00  1.16D+00  1.40D+00
 E= -420.736383269616     Delta-E=       -0.000000000008 Rises=F Damp=F
 DIIS: error= 4.39D-08 at cycle  14 NSaved=  14.
 NSaved=14 IEnMin=14 EnMin= -420.736383269616     IErMin=14 ErrMin= 4.39D-08
 ErrMax= 4.39D-08  0.00D+00 EMaxC= 1.00D-01 BMatC= 2.08D-13 BMatP= 1.96D-12
 IDIUse=1 WtCom= 1.00D+00 WtEn= 0.00D+00
 Coeff-Com:  0.128D-06 0.249D-05 0.282D-05-0.636D-05-0.801D-04-0.689D-04
 Coeff-Com: -0.547D-04 0.163D-02 0.300D-02-0.324D-02-0.277D-01-0.894D-01
 Coeff-Com:  0.425D-01 0.107D+01
 Coeff:      0.128D-06 0.249D-05 0.282D-05-0.636D-05-0.801D-04-0.689D-04
 Coeff:     -0.547D-04 0.163D-02 0.300D-02-0.324D-02-0.277D-01-0.894D-01
 Coeff:      0.425D-01 0.107D+01
 Gap=     0.345 Goal=   None    Shift=    0.000
 RMSDP=2.69D-08 MaxDP=1.26D-06 DE=-7.50D-12 OVMax= 1.23D-06

 Cycle  15  Pass 1  IDiag  1:
 RMSU=  9.67D-09    CP:  6.18D-01  8.62D-01  7.38D-01  7.41D-01  1.21D+00
                    CP:  1.13D+00  1.13D+00  1.45D+00  1.36D+00  1.37D+00
                    CP:  1.35D+00  1.16D+00  1.62D+00  1.36D+00
 E= -420.736383269614     Delta-E=        0.000000000001 Rises=F Damp=F
 DIIS: error= 1.97D-08 at cycle  15 NSaved=  15.
 NSaved=15 IEnMin=14 EnMin= -420.736383269616     IErMin=15 ErrMin= 1.97D-08
 ErrMax= 1.97D-08  0.00D+00 EMaxC= 1.00D-01 BMatC= 5.24D-14 BMatP= 2.08D-13
 IDIUse=1 WtCom= 1.00D+00 WtEn= 0.00D+00
 Coeff-Com:  0.248D-07 0.134D-05 0.198D-05 0.609D-05 0.209D-04 0.107D-04
 Coeff-Com: -0.358D-03-0.459D-03 0.126D-02 0.796D-02 0.101D-01-0.564D-01
 Coeff-Com: -0.139D+00 0.380D+00 0.797D+00
 Coeff:      0.248D-07 0.134D-05 0.198D-05 0.609D-05 0.209D-04 0.107D-04
 Coeff:     -0.358D-03-0.459D-03 0.126D-02 0.796D-02 0.101D-01-0.564D-01
 Coeff:     -0.139D+00 0.380D+00 0.797D+00
 Gap=     0.345 Goal=   None    Shift=    0.000
 RMSDP=8.46D-09 MaxDP=4.49D-07 DE= 1.48D-12 OVMax= 3.48D-07

 SCF Done:  E(RwB97XD) =  -420.736383270     A.U. after   15 cycles
            NFock= 15  Conv=0.85D-08     -V/T= 2.0014
 KE= 4.201391077172D+02 PE=-1.802836652099D+03 EE= 5.523086403993D+02
 Leave Link  502 at Sun Nov 20 17:27:38 2022, MaxMem= 16106127360 cpu:             410.8 elap:              12.9
 (Enter /opt/ap/G16/B01/g16/l601.exe)
 Copying SCF densities to generalized density rwf, IOpCl= 0 IROHF=0.

 **********************************************************************

            Population analysis using the SCF Density.

 **********************************************************************

 Orbital symmetries:
       Occupied  (A) (A) (A) (A) (A) (A) (A) (A) (A) (A) (A) (A)
                 (A) (A) (A) (A) (A) (A) (A) (A) (A) (A) (A) (A)
                 (A) (A) (A) (A) (A) (A) (A) (A)
       Virtual   (A) (A) (A) (A) (A) (A) (A) (A) (A) (A) (A) (A)
                 (A) (A) (A) (A) (A) (A) (A) (A) (A) (A) (A) (A)
                 (A) (A) (A) (A) (A) (A) (A) (A) (A) (A) (A) (A)
                 (A) (A) (A) (A) (A) (A) (A) (A) (A) (A) (A) (A)
                 (A) (A) (A) (A) (A) (A) (A) (A) (A) (A) (A) (A)
                 (A) (A) (A) (A) (A) (A) (A) (A) (A) (A) (A) (A)
                 (A) (A) (A) (A) (A) (A) (A) (A) (A) (A) (A) (A)
                 (A) (A) (A) (A) (A) (A) (A) (A) (A) (A) (A) (A)
                 (A) (A) (A) (A) (A) (A) (A) (A) (A) (A) (A) (A)
                 (A) (A) (A) (A) (A) (A) (A) (A) (A) (A) (A) (A)
                 (A) (A) (A) (A) (A) (A) (A) (A) (A) (A) (A) (A)
                 (A) (A) (A) (A) (A) (A) (A) (A) (A) (A) (A) (A)
                 (A) (A) (A) (A) (A) (A) (A) (A) (A) (A) (A) (A)
                 (A) (A) (A) (A) (A) (A) (A) (A) (A) (A) (A) (A)
                 (A) (A) (A) (A) (A) (A) (A) (A) (A) (A) (A) (A)
                 (A) (A) (A) (A) (A) (A) (A) (A) (A) (A) (A) (A)
                 (A) (A) (A) (A) (A) (A) (A) (A) (A) (A) (A) (A)
                 (A) (A) (A) (A)
 The electronic state is 1-A.
 Alpha  occ. eigenvalues --  -19.30720 -19.23163 -10.43178 -10.30948 -10.29382
 Alpha  occ. eigenvalues --  -10.29341 -10.29271 -10.29054 -10.28806  -1.25318
 Alpha  occ. eigenvalues --   -1.10777  -0.98110  -0.88776  -0.87073  -0.80113
 Alpha  occ. eigenvalues --   -0.73451  -0.72169  -0.66100  -0.61048  -0.58581
 Alpha  occ. eigenvalues --   -0.56700  -0.56074  -0.54060  -0.53537  -0.48281
 Alpha  occ. eigenvalues --   -0.47216  -0.45396  -0.44378  -0.41506  -0.36177
 Alpha  occ. eigenvalues --   -0.34718  -0.34373
 Alpha virt. eigenvalues --    0.00131   0.03605   0.04211   0.04481   0.05255
 Alpha virt. eigenvalues --    0.06489   0.07787   0.08740   0.10152   0.10759
 Alpha virt. eigenvalues --    0.11815   0.12889   0.13288   0.14204   0.14583
 Alpha virt. eigenvalues --    0.15995   0.16332   0.16934   0.17228   0.17881
 Alpha virt. eigenvalues --    0.18214   0.19389   0.19957   0.20172   0.20424
 Alpha virt. eigenvalues --    0.21160   0.21494   0.21705   0.23329   0.24101
 Alpha virt. eigenvalues --    0.25563   0.26220   0.27040   0.27239   0.27927
 Alpha virt. eigenvalues --    0.29648   0.29956   0.30711   0.30957   0.32276
 Alpha virt. eigenvalues --    0.32473   0.33465   0.34574   0.35456   0.35900
 Alpha virt. eigenvalues --    0.36160   0.37210   0.38205   0.39277   0.39996
 Alpha virt. eigenvalues --    0.41663   0.41933   0.42580   0.44061   0.46076
 Alpha virt. eigenvalues --    0.46899   0.49790   0.53355   0.54607   0.57728
 Alpha virt. eigenvalues --    0.59249   0.60300   0.61924   0.63731   0.63847
 Alpha virt. eigenvalues --    0.64351   0.65002   0.65887   0.66112   0.69138
 Alpha virt. eigenvalues --    0.70293   0.72482   0.73955   0.74335   0.75190
 Alpha virt. eigenvalues --    0.76678   0.80828   0.82404   0.83385   0.86187
 Alpha virt. eigenvalues --    0.88504   0.90243   0.92789   0.93675   0.94674
 Alpha virt. eigenvalues --    0.96268   0.96749   0.97736   0.99761   1.00472
 Alpha virt. eigenvalues --    1.03841   1.06670   1.07968   1.09652   1.10811
 Alpha virt. eigenvalues --    1.13966   1.14822   1.16189   1.16635   1.18836
 Alpha virt. eigenvalues --    1.21240   1.21621   1.24239   1.27743   1.29160
 Alpha virt. eigenvalues --    1.34314   1.41855   1.44345   1.45276   1.54190
 Alpha virt. eigenvalues --    1.57897   1.58981   1.60686   1.60849   1.62160
 Alpha virt. eigenvalues --    1.63139   1.66172   1.66907   1.67704   1.74861
 Alpha virt. eigenvalues --    1.74977   1.77228   1.79078   1.82951   1.87399
 Alpha virt. eigenvalues --    1.88293   1.90313   1.91851   1.93613   2.00156
 Alpha virt. eigenvalues --    2.00317   2.02079   2.03443   2.04360   2.05127
 Alpha virt. eigenvalues --    2.07537   2.10065   2.15638   2.17889   2.19677
 Alpha virt. eigenvalues --    2.23085   2.26866   2.29243   2.42837   2.46049
 Alpha virt. eigenvalues --    2.51887   2.53242   2.54357   2.57624   2.58678
 Alpha virt. eigenvalues --    2.71066   2.72527   2.75492   2.77795   2.80968
 Alpha virt. eigenvalues --    2.81697   2.83029   2.88178   2.89687   2.90460
 Alpha virt. eigenvalues --    2.90691   2.91751   2.96258   2.99635   3.00164
 Alpha virt. eigenvalues --    3.04797   3.05684   3.06123   3.15668   3.18651
 Alpha virt. eigenvalues --    3.18791   3.22810   3.28369   3.31725   3.38321
 Alpha virt. eigenvalues --    3.41680   3.45931   3.48682   3.50751   3.63182
 Alpha virt. eigenvalues --    3.66374   3.68529   3.74111   3.84402   3.87653
 Alpha virt. eigenvalues --    4.01261   4.17354   4.28346   4.30685   4.36626
 Alpha virt. eigenvalues --    4.40241   4.45022   4.94847   5.13783   5.15699
 Alpha virt. eigenvalues --    5.30412   5.46379   5.82806   6.07670  23.83885
 Alpha virt. eigenvalues --   23.94731  24.14103  24.21302  24.28283  24.30353
 Alpha virt. eigenvalues --   24.41771  50.04660  50.16490
          Condensed to atoms (all electrons):
               1          2          3          4          5          6
     1  C   10.034706  -2.634322  -1.821377   1.846806  -0.029902  -1.899368
     2  C   -2.634322  15.501606  -1.914266  -4.700020   0.683515  -0.671608
     3  C   -1.821377  -1.914266  13.281186   0.092160  -0.049876  -0.600844
     4  C    1.846806  -4.700020   0.092160   8.355402  -0.157424  -0.015946
     5  H   -0.029902   0.683515  -0.049876  -0.157424   0.487657  -0.122432
     6  C   -1.899368  -0.671608  -0.600844  -0.015946  -0.122432   8.201938
     7  C    1.014317  -0.291816  -3.792578   0.697646   0.019052   0.162051
     8  H   -0.048952   0.016362   0.556963  -0.011227  -0.000153  -0.053424
     9  C   -1.157067   1.205776   1.114078  -0.660033   0.025951  -0.063558
    10  H    0.036275  -0.130641   0.025694   0.438719  -0.012456   0.015629
    11  O   -0.224781  -0.214480  -0.034551   0.057327  -0.045134   0.471273
    12  O   -0.223755  -0.090477  -0.062838   0.053025  -0.005740   0.615813
    13  H    0.034550   0.018785  -0.128149  -0.007662   0.000494   0.010965
    14  H    0.009983   0.009460   0.004865  -0.048598   0.000844  -0.010257
    15  H   -0.019129   0.009358  -0.005810  -0.015822   0.001106   0.021080
               7          8          9         10         11         12
     1  C    1.014317  -0.048952  -1.157067   0.036275  -0.224781  -0.223755
     2  C   -0.291816   0.016362   1.205776  -0.130641  -0.214480  -0.090477
     3  C   -3.792578   0.556963   1.114078   0.025694  -0.034551  -0.062838
     4  C    0.697646  -0.011227  -0.660033   0.438719   0.057327   0.053025
     5  H    0.019052  -0.000153   0.025951  -0.012456  -0.045134  -0.005740
     6  C    0.162051  -0.053424  -0.063558   0.015629   0.471273   0.615813
     7  C    8.391660  -0.113154  -0.653433  -0.012923   0.058737   0.126973
     8  H   -0.113154   0.432365   0.023729   0.000490  -0.004626  -0.006824
     9  C   -0.653433   0.023729   6.325124  -0.036451  -0.033926  -0.019554
    10  H   -0.012923   0.000490  -0.036451   0.471788   0.003253   0.000596
    11  O    0.058737  -0.004626  -0.033926   0.003253   7.991092  -0.124354
    12  O    0.126973  -0.006824  -0.019554   0.000596  -0.124354   8.048777
    13  H    0.437050  -0.009062  -0.028907  -0.001402   0.001003   0.001538
    14  H   -0.035618   0.000481   0.424450  -0.006810  -0.000497  -0.000326
    15  H    0.009856  -0.000505  -0.002279  -0.000138   0.290984   0.001181
              13         14         15
     1  C    0.034550   0.009983  -0.019129
     2  C    0.018785   0.009460   0.009358
     3  C   -0.128149   0.004865  -0.005810
     4  C   -0.007662  -0.048598  -0.015822
     5  H    0.000494   0.000844   0.001106
     6  C    0.010965  -0.010257   0.021080
     7  C    0.437050  -0.035618   0.009856
     8  H   -0.009062   0.000481  -0.000505
     9  C   -0.028907   0.424450  -0.002279
    10  H   -0.001402  -0.006810  -0.000138
    11  O    0.001003  -0.000497   0.290984
    12  O    0.001538  -0.000326   0.001181
    13  H    0.463470  -0.005899   0.000103
    14  H   -0.005899   0.470199  -0.000062
    15  H    0.000103  -0.000062   0.388779
 Mulliken charges:
               1
     1  C    1.082017
     2  C   -0.797231
     3  C   -0.664654
     4  C    0.075647
     5  H    0.204498
     6  C   -0.061313
     7  C   -0.017821
     8  H    0.217535
     9  C   -0.463900
    10  H    0.208375
    11  O   -0.191320
    12  O   -0.314037
    13  H    0.213122
    14  H    0.187786
    15  H    0.321296
 Sum of Mulliken charges =  -0.00000
 Mulliken charges with hydrogens summed into heavy atoms:
               1
     1  C    1.082017
     2  C   -0.592733
     3  C   -0.447119
     4  C    0.284022
     6  C   -0.061313
     7  C    0.195301
     9  C   -0.276114
    11  O    0.129976
    12  O   -0.314037
 Electronic spatial extent (au):  <R**2>=           1156.3087
 Charge=             -0.0000 electrons
 Dipole moment (field-independent basis, Debye):
    X=             -1.8028    Y=             -2.3642    Z=              1.1410  Tot=              3.1845
 Quadrupole moment (field-independent basis, Debye-Ang):
   XX=            -46.5135   YY=            -49.3659   ZZ=            -53.2018
   XY=             -7.8897   XZ=              3.8098   YZ=             -1.2937
 Traceless Quadrupole moment (field-independent basis, Debye-Ang):
   XX=              3.1803   YY=              0.3278   ZZ=             -3.5081
   XY=             -7.8897   XZ=              3.8098   YZ=             -1.2937
 Octapole moment (field-independent basis, Debye-Ang**2):
  XXX=              5.3448  YYY=             -4.8708  ZZZ=              0.8767  XYY=             -6.1069
  XXY=            -24.3675  XXZ=             12.6316  XZZ=             13.8750  YZZ=             -1.3826
  YYZ=              1.9799  XYZ=             -4.8117
 Hexadecapole moment (field-independent basis, Debye-Ang**3):
 XXXX=           -936.7485 YYYY=           -358.2141 ZZZZ=            -58.7458 XXXY=            -78.3236
 XXXZ=             38.7029 YYYX=            -18.0757 YYYZ=             -2.2140 ZZZX=              3.5942
 ZZZY=             -1.7647 XXYY=           -231.5256 XXZZ=           -186.2468 YYZZ=            -77.8549
 XXYZ=            -14.6395 YYXZ=              6.6728 ZZXY=             -4.7763
 N-N= 4.096525207134D+02 E-N=-1.802836652320D+03  KE= 4.201391077172D+02
 No NMR shielding tensors so no spin-rotation constants.
 Leave Link  601 at Sun Nov 20 17:27:38 2022, MaxMem= 16106127360 cpu:               3.3 elap:               0.1
 (Enter /opt/ap/G16/B01/g16/l9999.exe)
 1\1\GINC-N02\SP\RwB97XD\6-311++G(d,p)\C7H6O2\ROOT\20-Nov-2022\0\\#P wB
 97XD/6-311++G(d,p) scf=maxcycle=512\\_conf028.gjf nmol_natom 1_15\\0,1
 \C\C,1,1.39016191\C,1,1.39194539,2,119.895942\C,2,1.38669027,1,119.880
 75721,3,0.70825972,0\H,2,0.98744251,1,119.71654057,3,-179.90726164,0\C
 ,1,1.48428757,2,119.93615286,4,-179.87772406,0\C,3,1.40101108,1,119.72
 36454,2,-0.26266839,0\H,3,0.9902154,1,119.1886159,2,178.85397616,0\C,4
 ,1.37899003,2,120.45785903,1,-0.48041454,0\H,4,0.9834739,2,120.3044270
 6,1,179.36166981,0\O,6,1.27459751,1,118.00615353,2,-1.25976832,0\O,6,1
 .26362572,1,118.77715367,2,179.20603801,0\H,7,0.98977053,3,119.3786157
 8,1,-178.93545741,0\H,9,0.99498061,4,119.46722635,2,-178.58826714,0\H,
 11,0.89680392,6,118.15823763,1,-130.,0\\Version=ES64L-G16RevB.01\State
 =1-A\HF=-420.7363833\RMSD=8.461e-09\Dipole=0.1894835,-0.4506728,1.1535
 724\Quadrupole=6.6677408,-2.4805951,-4.1871457,3.1609219,-2.3029217,0.
 4639365\PG=C01 [X(C7H6O2)]\\@


 You can't act like a skunk without someone's getting wind of it.
 -- Lorene Workman
 Job cpu time:       0 days  0 hours  7 minutes 24.7 seconds.
 Elapsed time:       0 days  0 hours  0 minutes 14.0 seconds.
 File lengths (MBytes):  RWF=     35 Int=      0 D2E=      0 Chk=      4 Scr=      1
 Normal termination of Gaussian 16 at Sun Nov 20 17:27:38 2022.
