 Entering Gaussian System, Link 0=g16
 Input=_conf030.gjf
 Output=_conf030.log
 Initial command:
 /opt/ap/G16/B01/g16/l1.exe "/tmp2/scr/Gau-2322.inp" -scrdir="/tmp2/scr/"
 Entering Link 1 = /opt/ap/G16/B01/g16/l1.exe PID=      2323.
  
 Copyright (c) 1988-2017, Gaussian, Inc.  All Rights Reserved.
  
 This is part of the Gaussian(R) 16 program.  It is based on
 the Gaussian(R) 09 system (copyright 2009, Gaussian, Inc.),
 the Gaussian(R) 03 system (copyright 2003, Gaussian, Inc.),
 the Gaussian(R) 98 system (copyright 1998, Gaussian, Inc.),
 the Gaussian(R) 94 system (copyright 1995, Gaussian, Inc.),
 the Gaussian 92(TM) system (copyright 1992, Gaussian, Inc.),
 the Gaussian 90(TM) system (copyright 1990, Gaussian, Inc.),
 the Gaussian 88(TM) system (copyright 1988, Gaussian, Inc.),
 the Gaussian 86(TM) system (copyright 1986, Carnegie Mellon
 University), and the Gaussian 82(TM) system (copyright 1983,
 Carnegie Mellon University). Gaussian is a federally registered
 trademark of Gaussian, Inc.
  
 This software contains proprietary and confidential information,
 including trade secrets, belonging to Gaussian, Inc.
  
 This software is provided under written license and may be
 used, copied, transmitted, or stored only in accord with that
 written license.
  
 The following legend is applicable only to US Government
 contracts under FAR:
  
                    RESTRICTED RIGHTS LEGEND
  
 Use, reproduction and disclosure by the US Government is
 subject to restrictions as set forth in subparagraphs (a)
 and (c) of the Commercial Computer Software - Restricted
 Rights clause in FAR 52.227-19.
  
 Gaussian, Inc.
 340 Quinnipiac St., Bldg. 40, Wallingford CT 06492
  
  
 ---------------------------------------------------------------
 Warning -- This program may not be used in any manner that
 competes with the business of Gaussian, Inc. or will provide
 assistance to any competitor of Gaussian, Inc.  The licensee
 of this program is prohibited from giving any competitor of
 Gaussian, Inc. access to this program.  By using this program,
 the user acknowledges that Gaussian, Inc. is engaged in the
 business of creating and licensing software in the field of
 computational chemistry and represents and warrants to the
 licensee that it is not a competitor of Gaussian, Inc. and that
 it will not use this program in any manner prohibited above.
 ---------------------------------------------------------------
  

 Cite this work as:
 Gaussian 16, Revision B.01,
 M. J. Frisch, G. W. Trucks, H. B. Schlegel, G. E. Scuseria, 
 M. A. Robb, J. R. Cheeseman, G. Scalmani, V. Barone, 
 G. A. Petersson, H. Nakatsuji, X. Li, M. Caricato, A. V. Marenich, 
 J. Bloino, B. G. Janesko, R. Gomperts, B. Mennucci, H. P. Hratchian, 
 J. V. Ortiz, A. F. Izmaylov, J. L. Sonnenberg, D. Williams-Young, 
 F. Ding, F. Lipparini, F. Egidi, J. Goings, B. Peng, A. Petrone, 
 T. Henderson, D. Ranasinghe, V. G. Zakrzewski, J. Gao, N. Rega, 
 G. Zheng, W. Liang, M. Hada, M. Ehara, K. Toyota, R. Fukuda, 
 J. Hasegawa, M. Ishida, T. Nakajima, Y. Honda, O. Kitao, H. Nakai, 
 T. Vreven, K. Throssell, J. A. Montgomery, Jr., J. E. Peralta, 
 F. Ogliaro, M. J. Bearpark, J. J. Heyd, E. N. Brothers, K. N. Kudin, 
 V. N. Staroverov, T. A. Keith, R. Kobayashi, J. Normand, 
 K. Raghavachari, A. P. Rendell, J. C. Burant, S. S. Iyengar, 
 J. Tomasi, M. Cossi, J. M. Millam, M. Klene, C. Adamo, R. Cammi, 
 J. W. Ochterski, R. L. Martin, K. Morokuma, O. Farkas, 
 J. B. Foresman, and D. J. Fox, Gaussian, Inc., Wallingford CT, 2016.
 
 ******************************************
 Gaussian 16:  ES64L-G16RevB.01 20-Dec-2017
                20-Nov-2022 
 ******************************************
 %nprocshared=32
 Will use up to   32 processors via shared memory.
 %mem=120GB
 %chk=_conf030.chk
 ----------------------------------------
 #P wB97XD/6-311++G(d,p) scf=maxcycle=512
 ----------------------------------------
 1/38=1,172=1/1;
 2/12=2,17=6,18=5,40=1/2;
 3/5=4,6=6,7=1111,11=2,25=1,30=1,74=-58/1,2,3;
 4//1;
 5/5=2,7=512,38=5/2;
 6/7=2,8=2,9=2,10=2,28=1/1;
 99/5=1,9=1/99;
 Leave Link    1 at Sun Nov 20 17:27:18 2022, MaxMem= 16106127360 cpu:               1.8 elap:               0.1
 (Enter /opt/ap/G16/B01/g16/l101.exe)
 ----------------------------
 _conf030.gjf nmol_natom 1_15
 ----------------------------
 Symbolic Z-matrix:
 Charge =  0 Multiplicity = 1
 C
 C                    1     1.39016 
 C                    1     1.39195  2     119.89594 
 C                    2     1.38669  1     119.88076  3     0.70826  0
 H                    2     0.98744  1     119.71654  3    -179.90726  0
 C                    1     1.48429  2     119.93615  4    -179.87772  0
 C                    3     1.40101  1     119.72365  2    -0.26267  0
 H                    3     0.99022  1     119.18862  2     178.85398  0
 C                    4     1.37899  2     120.45786  1    -0.48041  0
 H                    4     0.98347  2     120.30443  1     179.36167  0
 O                    6     1.2746   1     118.00615  2    -1.25977  0
 O                    6     1.26363  1     118.77715  2     179.20604  0
 H                    7     0.98977  3     119.37862  1    -178.93546  0
 H                    9     0.99498  4     119.46723  2    -178.58827  0
 H                    11    0.8968   6     118.15824  1    -120.     0
 
 ITRead=  0  0  0  0  0  0  0  0  0  0  0  0  0  0  0
 MicOpt= -1 -1 -1 -1 -1 -1 -1 -1 -1 -1 -1 -1 -1 -1 -1
 NAtoms=     15 NQM=       15 NQMF=       0 NMMI=      0 NMMIF=      0
                NMic=       0 NMicF=      0.
                    Isotopes and Nuclear Properties:
 (Nuclear quadrupole moments (NQMom) in fm**2, nuclear magnetic moments (NMagM)
  in nuclear magnetons)

  Atom         1           2           3           4           5           6           7           8           9          10
 IAtWgt=          12          12          12          12           1          12          12           1          12           1
 AtmWgt=  12.0000000  12.0000000  12.0000000  12.0000000   1.0078250  12.0000000  12.0000000   1.0078250  12.0000000   1.0078250
 NucSpn=           0           0           0           0           1           0           0           1           0           1
 AtZEff=  -0.0000000  -0.0000000  -0.0000000  -0.0000000  -0.0000000  -0.0000000  -0.0000000  -0.0000000  -0.0000000  -0.0000000
 NQMom=    0.0000000   0.0000000   0.0000000   0.0000000   0.0000000   0.0000000   0.0000000   0.0000000   0.0000000   0.0000000
 NMagM=    0.0000000   0.0000000   0.0000000   0.0000000   2.7928460   0.0000000   0.0000000   2.7928460   0.0000000   2.7928460
 AtZNuc=   6.0000000   6.0000000   6.0000000   6.0000000   1.0000000   6.0000000   6.0000000   1.0000000   6.0000000   1.0000000

  Atom        11          12          13          14          15
 IAtWgt=          16          16           1           1           1
 AtmWgt=  15.9949146  15.9949146   1.0078250   1.0078250   1.0078250
 NucSpn=           0           0           1           1           1
 AtZEff=  -0.0000000  -0.0000000  -0.0000000  -0.0000000  -0.0000000
 NQMom=    0.0000000   0.0000000   0.0000000   0.0000000   0.0000000
 NMagM=    0.0000000   0.0000000   2.7928460   2.7928460   2.7928460
 AtZNuc=   8.0000000   8.0000000   1.0000000   1.0000000   1.0000000
 Leave Link  101 at Sun Nov 20 17:27:18 2022, MaxMem= 16106127360 cpu:               5.1 elap:               0.2
 (Enter /opt/ap/G16/B01/g16/l202.exe)
                          Input orientation:                          
 ---------------------------------------------------------------------
 Center     Atomic      Atomic             Coordinates (Angstroms)
 Number     Number       Type             X           Y           Z
 ---------------------------------------------------------------------
      1          6           0        0.000000    0.000000    0.000000
      2          6           0        0.000000    0.000000    1.390162
      3          6           0        1.206722    0.000000   -0.693782
      4          6           0        1.202258    0.014862    2.081006
      5          1           0       -0.857581   -0.001388    1.879646
      6          6           0       -1.286190   -0.013155   -0.740711
      7          6           0        2.415349    0.005578    0.014752
      8          1           0        1.194584   -0.017290   -1.683772
      9          6           0        2.400563    0.019708    1.398617
     10          1           0        1.209438    0.024411    3.064408
     11          8           0       -2.365984   -0.048941   -0.064425
     12          8           0       -1.260842    0.002453   -2.003986
     13          1           0        3.270315    0.021574   -0.483669
     14          1           0        3.254554    0.009066    1.909081
     15          1           0       -2.919883   -0.743346   -0.187932
 ---------------------------------------------------------------------
                    Distance matrix (angstroms):
                    1          2          3          4          5
     1  C    0.000000
     2  C    1.390162   0.000000
     3  C    1.391945   2.408112   0.000000
     4  C    2.403379   1.386690   2.774832   0.000000
     5  H    2.066039   0.987443   3.299073   2.069721   0.000000
     6  C    1.484288   2.488991   2.493388   3.762345   2.655206
     7  C    2.415401   2.779513   1.401011   2.396056   3.766955
     8  H    2.064563   3.297939   0.990215   3.764924   4.112127
     9  C    2.778349   2.400659   2.409104   1.378990   3.293530
    10  H    3.294530   2.065535   3.758270   0.983474   2.382624
    11  O    2.367367   2.777786   3.628045   4.164047   2.461088
    12  O    2.367633   3.620769   2.793834   4.770133   3.904515
    13  H    3.305958   3.769173   2.074374   3.294611   4.756607
    14  H    3.773167   3.295676   3.311886   2.059493   4.112253
    15  H    3.018874   3.401273   4.223425   4.766026   3.013050
                    6          7          8          9         10
     6  C    0.000000
     7  C    3.777892   0.000000
     8  H    2.653982   2.091836   0.000000
     9  C    4.262622   1.384016   3.310118   0.000000
    10  H    4.550659   3.279477   4.748386   2.047842   0.000000
    11  O    1.274598   4.782299   3.911641   4.986499   4.751696
    12  O    1.263626   4.194007   2.476296   4.998389   5.638384
    13  H    4.563881   0.989771   2.398003   2.073517   4.103177
    14  H    5.257398   2.071897   4.141589   0.994981   2.348938
    15  H    1.872885   5.391352   4.437740   5.604153   5.312105
                   11         12         13         14         15
    11  O    0.000000
    12  O    2.232908   0.000000
    13  H    5.652309   4.779447   0.000000
    14  H    5.957225   5.975025   2.392834   0.000000
    15  H    0.896804   2.570348   6.244287   6.564088   0.000000
 Stoichiometry    C7H6O2
 Framework group  C1[X(C7H6O2)]
 Deg. of freedom    39
 Full point group                 C1      NOp   1
 Largest Abelian subgroup         C1      NOp   1
 Largest concise Abelian subgroup C1      NOp   1
                         Standard orientation:                         
 ---------------------------------------------------------------------
 Center     Atomic      Atomic             Coordinates (Angstroms)
 Number     Number       Type             X           Y           Z
 ---------------------------------------------------------------------
      1          6           0        0.225807    0.031426   -0.017758
      2          6           0       -0.436956   -1.190549   -0.026349
      3          6           0       -0.503976    1.216283    0.014553
      4          6           0       -1.823199   -1.224683   -0.017556
      5          1           0        0.083402   -2.029480   -0.047901
      6          6           0        1.709558    0.069427   -0.029898
      7          6           0       -1.904088    1.169481    0.032666
      8          1           0       -0.021026    2.080431    0.037674
      9          6           0       -2.551100   -0.053771    0.009644
     10          1           0       -2.298515   -2.085529   -0.033013
     11          8           0        2.336754   -1.040159   -0.023378
     12          8           0        2.289277    1.192202   -0.037106
     13          1           0       -2.418142    2.015262    0.039609
     14          1           0       -3.544821   -0.095720    0.036962
     15          1           0        2.894569   -1.206991    0.658727
 ---------------------------------------------------------------------
 Rotational constants (GHZ):           3.9410175           1.2437294           0.9471735
 Leave Link  202 at Sun Nov 20 17:27:18 2022, MaxMem= 16106127360 cpu:               0.2 elap:               0.0
 (Enter /opt/ap/G16/B01/g16/l301.exe)
 Standard basis: 6-311++G(d,p) (5D, 7F)
 Ernie: Thresh=  0.10000D-02 Tol=  0.10000D-05 Strict=F.
 There are   249 symmetry adapted cartesian basis functions of A   symmetry.
 There are   240 symmetry adapted basis functions of A   symmetry.
   240 basis functions,   378 primitive gaussians,   249 cartesian basis functions
    32 alpha electrons       32 beta electrons
       nuclear repulsion energy       409.7076218870 Hartrees.
 IExCor= 4639 DFT=T Ex+Corr=wB97XD ExCW=0 ScaHFX=  1.000000
 ScaDFX=  1.000000  1.000000  1.000000  1.000000 ScalE2=  1.000000  1.000000
 IRadAn=      5 IRanWt=     -1 IRanGd=            0 ICorTp=0 IEmpDi=121
 HFx  wShort=  0.000000 wLong=  0.200000 cFull=  0.222036 cShort=  0.000000 cLong=  0.777964
 DFx  wShort=  0.000000 wLong=  0.200000 cFull=  0.000000 cShort=  0.000000 cLong=  1.000000
 NAtoms=   15 NActive=   15 NUniq=   15 SFac= 1.00D+00 NAtFMM=   60 NAOKFM=F Big=F
 Integral buffers will be    131072 words long.
 Raffenetti 2 integral format.
 Two-electron integral symmetry is turned on.
 R6Disp:  Grimme-D2 Dispersion energy=       -0.0064519451 Hartrees.
 Nuclear repulsion after empirical dispersion term =      409.7011699419 Hartrees.
 Leave Link  301 at Sun Nov 20 17:27:18 2022, MaxMem= 16106127360 cpu:               1.2 elap:               0.0
 (Enter /opt/ap/G16/B01/g16/l302.exe)
 NPDir=0 NMtPBC=     1 NCelOv=     1 NCel=       1 NClECP=     1 NCelD=      1
         NCelK=      1 NCelE2=     1 NClLst=     1 CellRange=     0.0.
 One-electron integrals computed using PRISM.
 One-electron integral symmetry used in STVInt
 NBasis=   240 RedAO= T EigKep=  1.22D-06  NBF=   240
 NBsUse=   240 1.00D-06 EigRej= -1.00D+00 NBFU=   240
 Precomputing XC quadrature grid using
 IXCGrd= 4 IRadAn=           5 IRanWt=          -1 IRanGd=           0 AccXCQ= 0.00D+00.
 Generated NRdTot=       0 NPtTot=           0 NUsed=           0 NTot=          32
 NSgBfM=   249   249   249   249   249 MxSgAt=    15 MxSgA2=    15.
 Leave Link  302 at Sun Nov 20 17:27:18 2022, MaxMem= 16106127360 cpu:               5.3 elap:               0.2
 (Enter /opt/ap/G16/B01/g16/l303.exe)
 DipDrv:  MaxL=1.
 Leave Link  303 at Sun Nov 20 17:27:18 2022, MaxMem= 16106127360 cpu:               1.3 elap:               0.0
 (Enter /opt/ap/G16/B01/g16/l401.exe)
 ExpMin= 3.60D-02 ExpMax= 8.59D+03 ExpMxC= 1.30D+03 IAcc=3 IRadAn=         5 AccDes= 0.00D+00
 Harris functional with IExCor= 4639 and IRadAn=       5 diagonalized for initial guess.
 HarFok:  IExCor= 4639 AccDes= 0.00D+00 IRadAn=         5 IDoV= 1 UseB2=F ITyADJ=14
 ICtDFT=  3500011 ScaDFX=  1.000000  1.000000  1.000000  1.000000
 FoFCou: FMM=F IPFlag=           0 FMFlag=      100000 FMFlg1=           0
         NFxFlg=           0 DoJE=T BraDBF=F KetDBF=T FulRan=T
         wScrn=  0.000000 ICntrl=       500 IOpCl=  0 I1Cent=   200000004 NGrid=           0
         NMat0=    1 NMatS0=      1 NMatT0=    0 NMatD0=    1 NMtDS0=    0 NMtDT0=    0
 Petite list used in FoFCou.
 Harris En= -403.242524846837    
 JPrj=0 DoOrth=F DoCkMO=F.
 Leave Link  401 at Sun Nov 20 17:27:19 2022, MaxMem= 16106127360 cpu:              11.7 elap:               0.4
 (Enter /opt/ap/G16/B01/g16/l502.exe)
 Integral symmetry usage will be decided dynamically.
 Closed shell SCF:
 Using DIIS extrapolation, IDIIS=  1040.
 NGot= 16106127360 LenX= 16105992971 LenY= 16105930529
 Requested convergence on RMS density matrix=1.00D-08 within 512 cycles.
 Requested convergence on MAX density matrix=1.00D-06.
 Requested convergence on             energy=1.00D-06.
 No special actions if energy rises.
 Fock matrices will be formed incrementally for  20 cycles.

 Cycle   1  Pass 1  IDiag  1:
 FoFJK:  IHMeth= 1 ICntrl=       0 DoSepK=T KAlg= 0 I1Cent=           0 FoldK=F
 IRaf=         1 NMat=       1 IRICut=       1 DoRegI=T DoRafI=F ISym2E= 0 IDoP0=0 IntGTp=1.
 FoFCou: FMM=F IPFlag=           0 FMFlag=      100000 FMFlg1=           0
         NFxFlg=           0 DoJE=T BraDBF=F KetDBF=F FulRan=T
         wScrn=  0.000000 ICntrl=       500 IOpCl=  0 I1Cent=           0 NGrid=           0
         NMat0=    1 NMatS0=      1 NMatT0=    0 NMatD0=    1 NMtDS0=    0 NMtDT0=    0
 Symmetry not used in FoFCou.
 E= -420.621329322653    
 DIIS: error= 5.34D-02 at cycle   1 NSaved=   1.
 NSaved= 1 IEnMin= 1 EnMin= -420.621329322653     IErMin= 1 ErrMin= 5.34D-02
 ErrMax= 5.34D-02  0.00D+00 EMaxC= 1.00D-01 BMatC= 8.57D-01 BMatP= 8.57D-01
 IDIUse=3 WtCom= 4.66D-01 WtEn= 5.34D-01
 Coeff-Com:  0.100D+01
 Coeff-En:   0.100D+01
 Coeff:      0.100D+01
 Gap=     0.425 Goal=   None    Shift=    0.000
 GapD=    0.425 DampG=2.000 DampE=0.500 DampFc=1.0000 IDamp=-1.
 RMSDP=2.95D-02 MaxDP=1.97D+00              OVMax= 1.05D-01

 Cycle   2  Pass 1  IDiag  1:
 RMSU=  1.49D-02    CP:  6.59D-01
 E= -420.694522578390     Delta-E=       -0.073193255737 Rises=F Damp=F
 DIIS: error= 1.06D-02 at cycle   2 NSaved=   2.
 NSaved= 2 IEnMin= 2 EnMin= -420.694522578390     IErMin= 2 ErrMin= 1.06D-02
 ErrMax= 1.06D-02  0.00D+00 EMaxC= 1.00D-01 BMatC= 4.83D-02 BMatP= 8.57D-01
 IDIUse=3 WtCom= 8.94D-01 WtEn= 1.06D-01
 Coeff-Com:  0.125D+00 0.875D+00
 Coeff-En:   0.388D-01 0.961D+00
 Coeff:      0.116D+00 0.884D+00
 Gap=     0.421 Goal=   None    Shift=    0.000
 RMSDP=7.68D-03 MaxDP=4.80D-01 DE=-7.32D-02 OVMax= 7.29D-02

 Cycle   3  Pass 1  IDiag  1:
 RMSU=  6.03D-03    CP:  6.38D-01  6.99D-01
 E= -420.711608572834     Delta-E=       -0.017085994444 Rises=F Damp=F
 DIIS: error= 9.09D-03 at cycle   3 NSaved=   3.
 NSaved= 3 IEnMin= 3 EnMin= -420.711608572834     IErMin= 3 ErrMin= 9.09D-03
 ErrMax= 9.09D-03  0.00D+00 EMaxC= 1.00D-01 BMatC= 2.61D-02 BMatP= 4.83D-02
 IDIUse=3 WtCom= 9.09D-01 WtEn= 9.09D-02
 Coeff-Com:  0.242D-01 0.431D+00 0.545D+00
 Coeff-En:   0.000D+00 0.348D+00 0.652D+00
 Coeff:      0.220D-01 0.424D+00 0.554D+00
 Gap=     0.359 Goal=   None    Shift=    0.000
 RMSDP=3.66D-03 MaxDP=2.56D-01 DE=-1.71D-02 OVMax= 3.57D-02

 Cycle   4  Pass 1  IDiag  1:
 RMSU=  1.33D-03    CP:  6.23D-01  8.62D-01  6.54D-01
 E= -420.732289466390     Delta-E=       -0.020680893555 Rises=F Damp=F
 DIIS: error= 1.88D-03 at cycle   4 NSaved=   4.
 NSaved= 4 IEnMin= 4 EnMin= -420.732289466390     IErMin= 4 ErrMin= 1.88D-03
 ErrMax= 1.88D-03  0.00D+00 EMaxC= 1.00D-01 BMatC= 1.04D-03 BMatP= 2.61D-02
 IDIUse=3 WtCom= 9.81D-01 WtEn= 1.88D-02
 Coeff-Com:  0.996D-02 0.214D+00 0.302D+00 0.474D+00
 Coeff-En:   0.000D+00 0.000D+00 0.000D+00 0.100D+01
 Coeff:      0.977D-02 0.210D+00 0.296D+00 0.484D+00
 Gap=     0.343 Goal=   None    Shift=    0.000
 RMSDP=8.75D-04 MaxDP=6.71D-02 DE=-2.07D-02 OVMax= 8.25D-03

 Cycle   5  Pass 1  IDiag  1:
 RMSU=  6.30D-04    CP:  6.17D-01  8.49D-01  6.95D-01  7.48D-01
 E= -420.732999363518     Delta-E=       -0.000709897128 Rises=F Damp=F
 DIIS: error= 4.22D-04 at cycle   5 NSaved=   5.
 NSaved= 5 IEnMin= 5 EnMin= -420.732999363518     IErMin= 5 ErrMin= 4.22D-04
 ErrMax= 4.22D-04  0.00D+00 EMaxC= 1.00D-01 BMatC= 4.92D-05 BMatP= 1.04D-03
 IDIUse=3 WtCom= 9.96D-01 WtEn= 4.22D-03
 Coeff-Com:  0.167D-03 0.118D-01 0.262D-01 0.181D+00 0.781D+00
 Coeff-En:   0.000D+00 0.000D+00 0.000D+00 0.000D+00 0.100D+01
 Coeff:      0.166D-03 0.118D-01 0.261D-01 0.180D+00 0.782D+00
 Gap=     0.343 Goal=   None    Shift=    0.000
 RMSDP=2.03D-04 MaxDP=1.14D-02 DE=-7.10D-04 OVMax= 2.25D-03

 Cycle   6  Pass 1  IDiag  1:
 RMSU=  1.22D-04    CP:  6.16D-01  8.51D-01  7.12D-01  7.61D-01  1.05D+00
 E= -420.733038091839     Delta-E=       -0.000038728322 Rises=F Damp=F
 DIIS: error= 1.60D-04 at cycle   6 NSaved=   6.
 NSaved= 6 IEnMin= 6 EnMin= -420.733038091839     IErMin= 6 ErrMin= 1.60D-04
 ErrMax= 1.60D-04  0.00D+00 EMaxC= 1.00D-01 BMatC= 7.15D-06 BMatP= 4.92D-05
 IDIUse=3 WtCom= 9.98D-01 WtEn= 1.60D-03
 Coeff-Com: -0.102D-02-0.179D-01-0.205D-01 0.247D-01 0.352D+00 0.663D+00
 Coeff-En:   0.000D+00 0.000D+00 0.000D+00 0.000D+00 0.000D+00 0.100D+01
 Coeff:     -0.101D-02-0.179D-01-0.204D-01 0.246D-01 0.351D+00 0.663D+00
 Gap=     0.344 Goal=   None    Shift=    0.000
 RMSDP=1.53D-04 MaxDP=1.20D-02 DE=-3.87D-05 OVMax= 8.44D-04

 Cycle   7  Pass 1  IDiag  1:
 RMSU=  3.78D-05    CP:  6.14D-01  8.49D-01  7.22D-01  7.67D-01  1.15D+00
                    CP:  1.07D+00
 E= -420.733044977610     Delta-E=       -0.000006885770 Rises=F Damp=F
 DIIS: error= 7.18D-05 at cycle   7 NSaved=   7.
 NSaved= 7 IEnMin= 7 EnMin= -420.733044977610     IErMin= 7 ErrMin= 7.18D-05
 ErrMax= 7.18D-05  0.00D+00 EMaxC= 1.00D-01 BMatC= 3.03D-07 BMatP= 7.15D-06
 IDIUse=1 WtCom= 1.00D+00 WtEn= 0.00D+00
 Coeff-Com: -0.264D-03-0.604D-02-0.789D-02-0.146D-01 0.123D-01 0.148D+00
 Coeff-Com:  0.869D+00
 Coeff:     -0.264D-03-0.604D-02-0.789D-02-0.146D-01 0.123D-01 0.148D+00
 Coeff:      0.869D+00
 Gap=     0.344 Goal=   None    Shift=    0.000
 RMSDP=4.19D-05 MaxDP=2.32D-03 DE=-6.89D-06 OVMax= 3.60D-04

 Cycle   8  Pass 1  IDiag  1:
 RMSU=  1.17D-05    CP:  6.14D-01  8.49D-01  7.24D-01  7.66D-01  1.20D+00
                    CP:  1.11D+00  1.03D+00
 E= -420.733045555076     Delta-E=       -0.000000577467 Rises=F Damp=F
 DIIS: error= 1.63D-05 at cycle   8 NSaved=   8.
 NSaved= 8 IEnMin= 8 EnMin= -420.733045555076     IErMin= 8 ErrMin= 1.63D-05
 ErrMax= 1.63D-05  0.00D+00 EMaxC= 1.00D-01 BMatC= 4.66D-08 BMatP= 3.03D-07
 IDIUse=1 WtCom= 1.00D+00 WtEn= 0.00D+00
 Coeff-Com:  0.225D-04 0.556D-04-0.216D-03-0.825D-02-0.357D-01-0.322D-01
 Coeff-Com:  0.268D+00 0.808D+00
 Coeff:      0.225D-04 0.556D-04-0.216D-03-0.825D-02-0.357D-01-0.322D-01
 Coeff:      0.268D+00 0.808D+00
 Gap=     0.344 Goal=   None    Shift=    0.000
 RMSDP=1.48D-05 MaxDP=8.43D-04 DE=-5.77D-07 OVMax= 1.36D-04

 Cycle   9  Pass 1  IDiag  1:
 RMSU=  5.71D-06    CP:  6.14D-01  8.49D-01  7.25D-01  7.63D-01  1.22D+00
                    CP:  1.13D+00  1.08D+00  1.27D+00
 E= -420.733045634891     Delta-E=       -0.000000079815 Rises=F Damp=F
 DIIS: error= 1.05D-05 at cycle   9 NSaved=   9.
 NSaved= 9 IEnMin= 9 EnMin= -420.733045634891     IErMin= 9 ErrMin= 1.05D-05
 ErrMax= 1.05D-05  0.00D+00 EMaxC= 1.00D-01 BMatC= 6.32D-09 BMatP= 4.66D-08
 IDIUse=1 WtCom= 1.00D+00 WtEn= 0.00D+00
 Coeff-Com:  0.424D-04 0.811D-03 0.946D-03-0.116D-02-0.126D-01-0.310D-01
 Coeff-Com: -0.144D-01 0.276D+00 0.781D+00
 Coeff:      0.424D-04 0.811D-03 0.946D-03-0.116D-02-0.126D-01-0.310D-01
 Coeff:     -0.144D-01 0.276D+00 0.781D+00
 Gap=     0.344 Goal=   None    Shift=    0.000
 RMSDP=5.34D-06 MaxDP=2.62D-04 DE=-7.98D-08 OVMax= 5.03D-05

 Cycle  10  Pass 1  IDiag  1:
 RMSU=  1.77D-06    CP:  6.14D-01  8.49D-01  7.25D-01  7.60D-01  1.23D+00
                    CP:  1.14D+00  1.10D+00  1.37D+00  1.19D+00
 E= -420.733045644932     Delta-E=       -0.000000010041 Rises=F Damp=F
 DIIS: error= 1.40D-06 at cycle  10 NSaved=  10.
 NSaved=10 IEnMin=10 EnMin= -420.733045644932     IErMin=10 ErrMin= 1.40D-06
 ErrMax= 1.40D-06  0.00D+00 EMaxC= 1.00D-01 BMatC= 8.01D-10 BMatP= 6.32D-09
 IDIUse=1 WtCom= 1.00D+00 WtEn= 0.00D+00
 Coeff-Com:  0.965D-05 0.207D-03 0.260D-03 0.420D-03 0.670D-03-0.622D-02
 Coeff-Com: -0.316D-01-0.108D-01 0.248D+00 0.800D+00
 Coeff:      0.965D-05 0.207D-03 0.260D-03 0.420D-03 0.670D-03-0.622D-02
 Coeff:     -0.316D-01-0.108D-01 0.248D+00 0.800D+00
 Gap=     0.344 Goal=   None    Shift=    0.000
 RMSDP=1.84D-06 MaxDP=1.36D-04 DE=-1.00D-08 OVMax= 1.82D-05

 Cycle  11  Pass 1  IDiag  1:
 RMSU=  5.08D-07    CP:  6.14D-01  8.49D-01  7.25D-01  7.60D-01  1.23D+00
                    CP:  1.13D+00  1.10D+00  1.43D+00  1.31D+00  1.15D+00
 E= -420.733045646218     Delta-E=       -0.000000001286 Rises=F Damp=F
 DIIS: error= 5.48D-07 at cycle  11 NSaved=  11.
 NSaved=11 IEnMin=11 EnMin= -420.733045646218     IErMin=11 ErrMin= 5.48D-07
 ErrMax= 5.48D-07  0.00D+00 EMaxC= 1.00D-01 BMatC= 1.07D-10 BMatP= 8.01D-10
 IDIUse=1 WtCom= 1.00D+00 WtEn= 0.00D+00
 Coeff-Com: -0.216D-05-0.234D-04-0.175D-04 0.325D-03 0.208D-02 0.159D-02
 Coeff-Com: -0.827D-02-0.458D-01-0.290D-01 0.260D+00 0.819D+00
 Coeff:     -0.216D-05-0.234D-04-0.175D-04 0.325D-03 0.208D-02 0.159D-02
 Coeff:     -0.827D-02-0.458D-01-0.290D-01 0.260D+00 0.819D+00
 Gap=     0.344 Goal=   None    Shift=    0.000
 RMSDP=7.55D-07 MaxDP=4.72D-05 DE=-1.29D-09 OVMax= 9.88D-06

 Cycle  12  Pass 1  IDiag  1:
 RMSU=  2.00D-07    CP:  6.14D-01  8.49D-01  7.25D-01  7.60D-01  1.23D+00
                    CP:  1.13D+00  1.10D+00  1.44D+00  1.35D+00  1.32D+00
                    CP:  1.28D+00
 E= -420.733045646431     Delta-E=       -0.000000000213 Rises=F Damp=F
 DIIS: error= 1.75D-07 at cycle  12 NSaved=  12.
 NSaved=12 IEnMin=12 EnMin= -420.733045646431     IErMin=12 ErrMin= 1.75D-07
 ErrMax= 1.75D-07  0.00D+00 EMaxC= 1.00D-01 BMatC= 1.07D-11 BMatP= 1.07D-10
 IDIUse=1 WtCom= 1.00D+00 WtEn= 0.00D+00
 Coeff-Com: -0.131D-05-0.227D-04-0.251D-04 0.443D-04 0.440D-03 0.781D-03
 Coeff-Com:  0.141D-02-0.976D-02-0.289D-01-0.118D-01 0.197D+00 0.851D+00
 Coeff:     -0.131D-05-0.227D-04-0.251D-04 0.443D-04 0.440D-03 0.781D-03
 Coeff:      0.141D-02-0.976D-02-0.289D-01-0.118D-01 0.197D+00 0.851D+00
 Gap=     0.344 Goal=   None    Shift=    0.000
 RMSDP=1.25D-07 MaxDP=5.87D-06 DE=-2.13D-10 OVMax= 4.53D-06

 Cycle  13  Pass 1  IDiag  1:
 RMSU=  6.30D-08    CP:  6.14D-01  8.49D-01  7.25D-01  7.60D-01  1.23D+00
                    CP:  1.13D+00  1.10D+00  1.44D+00  1.36D+00  1.34D+00
                    CP:  1.34D+00  1.07D+00
 E= -420.733045646464     Delta-E=       -0.000000000033 Rises=F Damp=F
 DIIS: error= 8.06D-08 at cycle  13 NSaved=  13.
 NSaved=13 IEnMin=13 EnMin= -420.733045646464     IErMin=13 ErrMin= 8.06D-08
 ErrMax= 8.06D-08  0.00D+00 EMaxC= 1.00D-01 BMatC= 1.93D-12 BMatP= 1.07D-11
 IDIUse=1 WtCom= 1.00D+00 WtEn= 0.00D+00
 Coeff-Com:  0.133D-06-0.297D-05-0.597D-05-0.615D-04-0.345D-03-0.169D-03
 Coeff-Com:  0.219D-02 0.729D-02-0.804D-03-0.587D-01-0.136D+00 0.176D+00
 Coeff-Com:  0.101D+01
 Coeff:      0.133D-06-0.297D-05-0.597D-05-0.615D-04-0.345D-03-0.169D-03
 Coeff:      0.219D-02 0.729D-02-0.804D-03-0.587D-01-0.136D+00 0.176D+00
 Coeff:      0.101D+01
 Gap=     0.344 Goal=   None    Shift=    0.000
 RMSDP=6.87D-08 MaxDP=4.82D-06 DE=-3.31D-11 OVMax= 3.38D-06

 Cycle  14  Pass 1  IDiag  1:
 RMSU=  2.71D-08    CP:  6.14D-01  8.49D-01  7.25D-01  7.60D-01  1.23D+00
                    CP:  1.13D+00  1.10D+00  1.44D+00  1.36D+00  1.35D+00
                    CP:  1.41D+00  1.20D+00  1.40D+00
 E= -420.733045646475     Delta-E=       -0.000000000011 Rises=F Damp=F
 DIIS: error= 3.42D-08 at cycle  14 NSaved=  14.
 NSaved=14 IEnMin=14 EnMin= -420.733045646475     IErMin=14 ErrMin= 3.42D-08
 ErrMax= 3.42D-08  0.00D+00 EMaxC= 1.00D-01 BMatC= 2.13D-13 BMatP= 1.93D-12
 IDIUse=1 WtCom= 1.00D+00 WtEn= 0.00D+00
 Coeff-Com:  0.142D-06 0.273D-05 0.311D-05-0.842D-05-0.848D-04-0.751D-04
 Coeff-Com: -0.409D-04 0.169D-02 0.313D-02-0.321D-02-0.298D-01-0.913D-01
 Coeff-Com:  0.499D-01 0.107D+01
 Coeff:      0.142D-06 0.273D-05 0.311D-05-0.842D-05-0.848D-04-0.751D-04
 Coeff:     -0.409D-04 0.169D-02 0.313D-02-0.321D-02-0.298D-01-0.913D-01
 Coeff:      0.499D-01 0.107D+01
 Gap=     0.344 Goal=   None    Shift=    0.000
 RMSDP=2.63D-08 MaxDP=1.05D-06 DE=-1.11D-11 OVMax= 1.29D-06

 Cycle  15  Pass 1  IDiag  1:
 RMSU=  1.06D-08    CP:  6.14D-01  8.49D-01  7.25D-01  7.60D-01  1.23D+00
                    CP:  1.13D+00  1.10D+00  1.44D+00  1.36D+00  1.35D+00
                    CP:  1.40D+00  1.20D+00  1.62D+00  1.39D+00
 E= -420.733045646474     Delta-E=        0.000000000001 Rises=F Damp=F
 DIIS: error= 1.82D-08 at cycle  15 NSaved=  15.
 NSaved=15 IEnMin=14 EnMin= -420.733045646475     IErMin=15 ErrMin= 1.82D-08
 ErrMax= 1.82D-08  0.00D+00 EMaxC= 1.00D-01 BMatC= 5.45D-14 BMatP= 2.13D-13
 IDIUse=1 WtCom= 1.00D+00 WtEn= 0.00D+00
 Coeff-Com:  0.263D-07 0.139D-05 0.203D-05 0.647D-05 0.211D-04 0.105D-04
 Coeff-Com: -0.353D-03-0.469D-03 0.115D-02 0.793D-02 0.107D-01-0.560D-01
 Coeff-Com: -0.144D+00 0.380D+00 0.801D+00
 Coeff:      0.263D-07 0.139D-05 0.203D-05 0.647D-05 0.211D-04 0.105D-04
 Coeff:     -0.353D-03-0.469D-03 0.115D-02 0.793D-02 0.107D-01-0.560D-01
 Coeff:     -0.144D+00 0.380D+00 0.801D+00
 Gap=     0.344 Goal=   None    Shift=    0.000
 RMSDP=9.36D-09 MaxDP=4.95D-07 DE= 1.36D-12 OVMax= 3.73D-07

 SCF Done:  E(RwB97XD) =  -420.733045646     A.U. after   15 cycles
            NFock= 15  Conv=0.94D-08     -V/T= 2.0014
 KE= 4.201445188100D+02 PE=-1.802931727623D+03 EE= 5.523529932249D+02
 Leave Link  502 at Sun Nov 20 17:27:31 2022, MaxMem= 16106127360 cpu:             409.3 elap:              12.8
 (Enter /opt/ap/G16/B01/g16/l601.exe)
 Copying SCF densities to generalized density rwf, IOpCl= 0 IROHF=0.

 **********************************************************************

            Population analysis using the SCF Density.

 **********************************************************************

 Orbital symmetries:
       Occupied  (A) (A) (A) (A) (A) (A) (A) (A) (A) (A) (A) (A)
                 (A) (A) (A) (A) (A) (A) (A) (A) (A) (A) (A) (A)
                 (A) (A) (A) (A) (A) (A) (A) (A)
       Virtual   (A) (A) (A) (A) (A) (A) (A) (A) (A) (A) (A) (A)
                 (A) (A) (A) (A) (A) (A) (A) (A) (A) (A) (A) (A)
                 (A) (A) (A) (A) (A) (A) (A) (A) (A) (A) (A) (A)
                 (A) (A) (A) (A) (A) (A) (A) (A) (A) (A) (A) (A)
                 (A) (A) (A) (A) (A) (A) (A) (A) (A) (A) (A) (A)
                 (A) (A) (A) (A) (A) (A) (A) (A) (A) (A) (A) (A)
                 (A) (A) (A) (A) (A) (A) (A) (A) (A) (A) (A) (A)
                 (A) (A) (A) (A) (A) (A) (A) (A) (A) (A) (A) (A)
                 (A) (A) (A) (A) (A) (A) (A) (A) (A) (A) (A) (A)
                 (A) (A) (A) (A) (A) (A) (A) (A) (A) (A) (A) (A)
                 (A) (A) (A) (A) (A) (A) (A) (A) (A) (A) (A) (A)
                 (A) (A) (A) (A) (A) (A) (A) (A) (A) (A) (A) (A)
                 (A) (A) (A) (A) (A) (A) (A) (A) (A) (A) (A) (A)
                 (A) (A) (A) (A) (A) (A) (A) (A) (A) (A) (A) (A)
                 (A) (A) (A) (A) (A) (A) (A) (A) (A) (A) (A) (A)
                 (A) (A) (A) (A) (A) (A) (A) (A) (A) (A) (A) (A)
                 (A) (A) (A) (A) (A) (A) (A) (A) (A) (A) (A) (A)
                 (A) (A) (A) (A)
 The electronic state is 1-A.
 Alpha  occ. eigenvalues --  -19.30420 -19.23307 -10.43193 -10.30928 -10.29430
 Alpha  occ. eigenvalues --  -10.29364 -10.29315 -10.29090 -10.28851  -1.25170
 Alpha  occ. eigenvalues --   -1.10850  -0.98138  -0.88741  -0.87111  -0.79948
 Alpha  occ. eigenvalues --   -0.73497  -0.72296  -0.66225  -0.61163  -0.58492
 Alpha  occ. eigenvalues --   -0.56739  -0.56087  -0.53948  -0.53579  -0.48174
 Alpha  occ. eigenvalues --   -0.47183  -0.45354  -0.44137  -0.41716  -0.36212
 Alpha  occ. eigenvalues --   -0.34756  -0.34410
 Alpha virt. eigenvalues --   -0.00039   0.03538   0.04161   0.04458   0.05239
 Alpha virt. eigenvalues --    0.06497   0.07772   0.08754   0.10108   0.10627
 Alpha virt. eigenvalues --    0.11765   0.12879   0.13268   0.14122   0.14537
 Alpha virt. eigenvalues --    0.15977   0.16309   0.16932   0.17188   0.17857
 Alpha virt. eigenvalues --    0.18236   0.19286   0.19912   0.20123   0.20413
 Alpha virt. eigenvalues --    0.21148   0.21439   0.21736   0.23238   0.24184
 Alpha virt. eigenvalues --    0.25539   0.26133   0.26895   0.27192   0.27882
 Alpha virt. eigenvalues --    0.29660   0.29953   0.30675   0.30970   0.32299
 Alpha virt. eigenvalues --    0.32552   0.34157   0.34749   0.35544   0.35776
 Alpha virt. eigenvalues --    0.36238   0.37263   0.38314   0.39196   0.40085
 Alpha virt. eigenvalues --    0.41590   0.41891   0.42521   0.44011   0.46253
 Alpha virt. eigenvalues --    0.47018   0.49573   0.53486   0.54656   0.57791
 Alpha virt. eigenvalues --    0.58994   0.60308   0.61906   0.63490   0.63728
 Alpha virt. eigenvalues --    0.64284   0.64980   0.65934   0.66377   0.69226
 Alpha virt. eigenvalues --    0.70524   0.72911   0.73954   0.74273   0.75407
 Alpha virt. eigenvalues --    0.76601   0.80878   0.82409   0.83454   0.86133
 Alpha virt. eigenvalues --    0.88473   0.90300   0.92701   0.93642   0.94678
 Alpha virt. eigenvalues --    0.96241   0.96557   0.97802   0.99748   1.00431
 Alpha virt. eigenvalues --    1.03645   1.06319   1.08049   1.09722   1.10709
 Alpha virt. eigenvalues --    1.13919   1.14984   1.16206   1.16615   1.19212
 Alpha virt. eigenvalues --    1.21158   1.21720   1.24253   1.28073   1.29125
 Alpha virt. eigenvalues --    1.34329   1.42097   1.44547   1.45333   1.53344
 Alpha virt. eigenvalues --    1.57544   1.59132   1.60626   1.60866   1.62156
 Alpha virt. eigenvalues --    1.63199   1.66618   1.66875   1.68026   1.74690
 Alpha virt. eigenvalues --    1.74905   1.76842   1.79596   1.83103   1.86982
 Alpha virt. eigenvalues --    1.88362   1.89663   1.91775   1.93094   2.00069
 Alpha virt. eigenvalues --    2.00274   2.02051   2.03314   2.04314   2.04994
 Alpha virt. eigenvalues --    2.07833   2.09817   2.15837   2.17851   2.20093
 Alpha virt. eigenvalues --    2.22987   2.25694   2.29313   2.42843   2.46101
 Alpha virt. eigenvalues --    2.51764   2.52896   2.54337   2.57996   2.60231
 Alpha virt. eigenvalues --    2.70787   2.72324   2.75698   2.78105   2.81017
 Alpha virt. eigenvalues --    2.81662   2.83063   2.88163   2.89752   2.90436
 Alpha virt. eigenvalues --    2.90618   2.91715   2.96228   2.99580   3.00065
 Alpha virt. eigenvalues --    3.03989   3.05662   3.06211   3.16010   3.18643
 Alpha virt. eigenvalues --    3.18735   3.22478   3.28292   3.31787   3.38909
 Alpha virt. eigenvalues --    3.42695   3.46278   3.48868   3.51374   3.63017
 Alpha virt. eigenvalues --    3.66412   3.68427   3.73963   3.84431   3.87730
 Alpha virt. eigenvalues --    3.98730   4.17729   4.28389   4.30640   4.36652
 Alpha virt. eigenvalues --    4.40295   4.45040   4.94824   5.15230   5.16715
 Alpha virt. eigenvalues --    5.30369   5.45518   5.82582   6.07602  23.83833
 Alpha virt. eigenvalues --   23.94969  24.14098  24.21264  24.28260  24.30315
 Alpha virt. eigenvalues --   24.41731  50.04860  50.16483
          Condensed to atoms (all electrons):
               1          2          3          4          5          6
     1  C   10.004366  -2.478246  -2.038415   1.751250  -0.020956  -1.861634
     2  C   -2.478246  14.844700  -1.722270  -4.318465   0.640979  -0.549432
     3  C   -2.038415  -1.722270  13.563225  -0.100592  -0.055004  -0.454602
     4  C    1.751250  -4.318465  -0.100592   8.190287  -0.123655  -0.107389
     5  H   -0.020956   0.640979  -0.055004  -0.123655   0.487709  -0.114672
     6  C   -1.861634  -0.549432  -0.454602  -0.107389  -0.114672   8.069151
     7  C    1.150613  -0.297049  -4.120110   0.759493   0.028500   0.036484
     8  H   -0.060148   0.011343   0.563698  -0.009036  -0.000624  -0.042284
     9  C   -1.180462   1.047806   1.226977  -0.581506   0.015191   0.012853
    10  H    0.031700  -0.111399   0.023302   0.425230  -0.011301   0.012786
    11  O   -0.241251  -0.200969  -0.004429   0.043003  -0.042891   0.456505
    12  O   -0.218019  -0.076984  -0.075734   0.050081  -0.005088   0.604963
    13  H    0.035771   0.023478  -0.136267  -0.009640   0.000758   0.007254
    14  H    0.010873   0.001047   0.008705  -0.042818   0.000376  -0.008195
    15  H   -0.009348   0.005908  -0.008391  -0.013028   0.000120   0.016483
               7          8          9         10         11         12
     1  C    1.150613  -0.060148  -1.180462   0.031700  -0.241251  -0.218019
     2  C   -0.297049   0.011343   1.047806  -0.111399  -0.200969  -0.076984
     3  C   -4.120110   0.563698   1.226977   0.023302  -0.004429  -0.075734
     4  C    0.759493  -0.009036  -0.581506   0.425230   0.043003   0.050081
     5  H    0.028500  -0.000624   0.015191  -0.011301  -0.042891  -0.005088
     6  C    0.036484  -0.042284   0.012853   0.012786   0.456505   0.604963
     7  C    8.711454  -0.116232  -0.718783  -0.014248   0.047779   0.131815
     8  H   -0.116232   0.432208   0.022061   0.000609  -0.003623  -0.006010
     9  C   -0.718783   0.022061   6.309880  -0.032015  -0.027758  -0.018453
    10  H   -0.014248   0.000609  -0.032015   0.470688   0.003027   0.000528
    11  O    0.047779  -0.003623  -0.027758   0.003027   7.994793  -0.119889
    12  O    0.131815  -0.006010  -0.018453   0.000528  -0.119889   8.036003
    13  H    0.442101  -0.008955  -0.026225  -0.001532   0.000818   0.001511
    14  H   -0.035698   0.000404   0.420568  -0.006269  -0.000398  -0.000293
    15  H    0.009780  -0.000587  -0.002378  -0.000110   0.297734   0.001923
              13         14         15
     1  C    0.035771   0.010873  -0.009348
     2  C    0.023478   0.001047   0.005908
     3  C   -0.136267   0.008705  -0.008391
     4  C   -0.009640  -0.042818  -0.013028
     5  H    0.000758   0.000376   0.000120
     6  C    0.007254  -0.008195   0.016483
     7  C    0.442101  -0.035698   0.009780
     8  H   -0.008955   0.000404  -0.000587
     9  C   -0.026225   0.420568  -0.002378
    10  H   -0.001532  -0.006269  -0.000110
    11  O    0.000818  -0.000398   0.297734
    12  O    0.001511  -0.000293   0.001923
    13  H    0.463168  -0.005685   0.000098
    14  H   -0.005685   0.469483  -0.000053
    15  H    0.000098  -0.000053   0.379314
 Mulliken charges:
               1
     1  C    1.123907
     2  C   -0.820448
     3  C   -0.670092
     4  C    0.086785
     5  H    0.200558
     6  C   -0.078271
     7  C   -0.015897
     8  H    0.217177
     9  C   -0.467756
    10  H    0.209003
    11  O   -0.202449
    12  O   -0.306355
    13  H    0.213348
    14  H    0.187955
    15  H    0.322535
 Sum of Mulliken charges =  -0.00000
 Mulliken charges with hydrogens summed into heavy atoms:
               1
     1  C    1.123907
     2  C   -0.619890
     3  C   -0.452915
     4  C    0.295788
     6  C   -0.078271
     7  C    0.197451
     9  C   -0.279801
    11  O    0.120086
    12  O   -0.306355
 Electronic spatial extent (au):  <R**2>=           1155.5543
 Charge=             -0.0000 electrons
 Dipole moment (field-independent basis, Debye):
    X=             -1.9914    Y=             -2.4052    Z=              1.2934  Tot=              3.3799
 Quadrupole moment (field-independent basis, Debye-Ang):
   XX=            -47.7051   YY=            -49.0819   ZZ=            -52.9414
   XY=             -7.8322   XZ=              4.1759   YZ=             -1.5778
 Traceless Quadrupole moment (field-independent basis, Debye-Ang):
   XX=              2.2044   YY=              0.8276   ZZ=             -3.0320
   XY=             -7.8322   XZ=              4.1759   YZ=             -1.5778
 Octapole moment (field-independent basis, Debye-Ang**2):
  XXX=             -0.4693  YYY=             -5.3044  ZZZ=              1.1420  XYY=             -5.5390
  XXY=            -23.4716  XXZ=             13.3593  XZZ=             14.4835  YZZ=             -1.7065
  YYZ=              2.4864  XYZ=             -5.5639
 Hexadecapole moment (field-independent basis, Debye-Ang**3):
 XXXX=           -958.3555 YYYY=           -357.6651 ZZZZ=            -58.7056 XXXY=            -73.3239
 XXXZ=             39.7599 YYYX=            -19.1183 YYYZ=             -2.9904 ZZZX=              4.3665
 ZZZY=             -2.2425 XXYY=           -230.4887 XXZZ=           -184.3996 YYZZ=            -77.4304
 XXYZ=            -16.2921 YYXZ=              7.9774 ZZXY=             -5.5990
 N-N= 4.097011699419D+02 E-N=-1.802931727810D+03  KE= 4.201445188100D+02
 No NMR shielding tensors so no spin-rotation constants.
 Leave Link  601 at Sun Nov 20 17:27:32 2022, MaxMem= 16106127360 cpu:               3.3 elap:               0.1
 (Enter /opt/ap/G16/B01/g16/l9999.exe)
 1\1\GINC-N05\SP\RwB97XD\6-311++G(d,p)\C7H6O2\ROOT\20-Nov-2022\0\\#P wB
 97XD/6-311++G(d,p) scf=maxcycle=512\\_conf030.gjf nmol_natom 1_15\\0,1
 \C\C,1,1.39016191\C,1,1.39194539,2,119.895942\C,2,1.38669027,1,119.880
 75721,3,0.70825972,0\H,2,0.98744251,1,119.71654057,3,-179.90726164,0\C
 ,1,1.48428757,2,119.93615286,4,-179.87772406,0\C,3,1.40101108,1,119.72
 36454,2,-0.26266839,0\H,3,0.9902154,1,119.1886159,2,178.85397616,0\C,4
 ,1.37899003,2,120.45785903,1,-0.48041454,0\H,4,0.9834739,2,120.3044270
 6,1,179.36166981,0\O,6,1.27459751,1,118.00615353,2,-1.25976832,0\O,6,1
 .26362572,1,118.77715367,2,179.20603801,0\H,7,0.98977053,3,119.3786157
 8,1,-178.93545741,0\H,9,0.99498061,4,119.46722635,2,-178.58826714,0\H,
 11,0.89680392,6,118.15823763,1,-120.,0\\Version=ES64L-G16RevB.01\State
 =1-A\HF=-420.7330456\RMSD=9.362e-09\Dipole=0.2494661,-0.5106492,1.2021
 828\Quadrupole=6.1288882,-2.1017218,-4.0271664,3.5001422,-2.736452,0.3
 965181\PG=C01 [X(C7H6O2)]\\@


 POCKETA-POCKETA
 BARON VON RICHTOFEN
 SLAUGHTERED THE ALLIES WITH
 HARDLY A CARE.
 KILLED EIGHTY-ONE WITH HIS
 BLOOD-COLORED TRIPLANE, THEN
 UN-AEROBATICALLY
 PLUNGED FROM THE AIR.
   -- TONY HOFFMAN
 Job cpu time:       0 days  0 hours  7 minutes 20.9 seconds.
 Elapsed time:       0 days  0 hours  0 minutes 13.9 seconds.
 File lengths (MBytes):  RWF=     35 Int=      0 D2E=      0 Chk=      4 Scr=      1
 Normal termination of Gaussian 16 at Sun Nov 20 17:27:32 2022.
