 Entering Gaussian System, Link 0=g16
 Input=_conf007.gjf
 Output=_conf007.log
 Initial command:
 /opt/ap/G16/B01/g16/l1.exe "/tmp2/scr/Gau-10314.inp" -scrdir="/tmp2/scr/"
 Entering Link 1 = /opt/ap/G16/B01/g16/l1.exe PID=     10315.
  
 Copyright (c) 1988-2017, Gaussian, Inc.  All Rights Reserved.
  
 This is part of the Gaussian(R) 16 program.  It is based on
 the Gaussian(R) 09 system (copyright 2009, Gaussian, Inc.),
 the Gaussian(R) 03 system (copyright 2003, Gaussian, Inc.),
 the Gaussian(R) 98 system (copyright 1998, Gaussian, Inc.),
 the Gaussian(R) 94 system (copyright 1995, Gaussian, Inc.),
 the Gaussian 92(TM) system (copyright 1992, Gaussian, Inc.),
 the Gaussian 90(TM) system (copyright 1990, Gaussian, Inc.),
 the Gaussian 88(TM) system (copyright 1988, Gaussian, Inc.),
 the Gaussian 86(TM) system (copyright 1986, Carnegie Mellon
 University), and the Gaussian 82(TM) system (copyright 1983,
 Carnegie Mellon University). Gaussian is a federally registered
 trademark of Gaussian, Inc.
  
 This software contains proprietary and confidential information,
 including trade secrets, belonging to Gaussian, Inc.
  
 This software is provided under written license and may be
 used, copied, transmitted, or stored only in accord with that
 written license.
  
 The following legend is applicable only to US Government
 contracts under FAR:
  
                    RESTRICTED RIGHTS LEGEND
  
 Use, reproduction and disclosure by the US Government is
 subject to restrictions as set forth in subparagraphs (a)
 and (c) of the Commercial Computer Software - Restricted
 Rights clause in FAR 52.227-19.
  
 Gaussian, Inc.
 340 Quinnipiac St., Bldg. 40, Wallingford CT 06492
  
  
 ---------------------------------------------------------------
 Warning -- This program may not be used in any manner that
 competes with the business of Gaussian, Inc. or will provide
 assistance to any competitor of Gaussian, Inc.  The licensee
 of this program is prohibited from giving any competitor of
 Gaussian, Inc. access to this program.  By using this program,
 the user acknowledges that Gaussian, Inc. is engaged in the
 business of creating and licensing software in the field of
 computational chemistry and represents and warrants to the
 licensee that it is not a competitor of Gaussian, Inc. and that
 it will not use this program in any manner prohibited above.
 ---------------------------------------------------------------
  

 Cite this work as:
 Gaussian 16, Revision B.01,
 M. J. Frisch, G. W. Trucks, H. B. Schlegel, G. E. Scuseria, 
 M. A. Robb, J. R. Cheeseman, G. Scalmani, V. Barone, 
 G. A. Petersson, H. Nakatsuji, X. Li, M. Caricato, A. V. Marenich, 
 J. Bloino, B. G. Janesko, R. Gomperts, B. Mennucci, H. P. Hratchian, 
 J. V. Ortiz, A. F. Izmaylov, J. L. Sonnenberg, D. Williams-Young, 
 F. Ding, F. Lipparini, F. Egidi, J. Goings, B. Peng, A. Petrone, 
 T. Henderson, D. Ranasinghe, V. G. Zakrzewski, J. Gao, N. Rega, 
 G. Zheng, W. Liang, M. Hada, M. Ehara, K. Toyota, R. Fukuda, 
 J. Hasegawa, M. Ishida, T. Nakajima, Y. Honda, O. Kitao, H. Nakai, 
 T. Vreven, K. Throssell, J. A. Montgomery, Jr., J. E. Peralta, 
 F. Ogliaro, M. J. Bearpark, J. J. Heyd, E. N. Brothers, K. N. Kudin, 
 V. N. Staroverov, T. A. Keith, R. Kobayashi, J. Normand, 
 K. Raghavachari, A. P. Rendell, J. C. Burant, S. S. Iyengar, 
 J. Tomasi, M. Cossi, J. M. Millam, M. Klene, C. Adamo, R. Cammi, 
 J. W. Ochterski, R. L. Martin, K. Morokuma, O. Farkas, 
 J. B. Foresman, and D. J. Fox, Gaussian, Inc., Wallingford CT, 2016.
 
 ******************************************
 Gaussian 16:  ES64L-G16RevB.01 20-Dec-2017
                20-Nov-2022 
 ******************************************
 %nprocshared=32
 Will use up to   32 processors via shared memory.
 %mem=120GB
 %chk=_conf007.chk
 ----------------------------------------
 #P wB97XD/6-311++G(d,p) scf=maxcycle=512
 ----------------------------------------
 1/38=1,172=1/1;
 2/12=2,17=6,18=5,40=1/2;
 3/5=4,6=6,7=1111,11=2,25=1,30=1,74=-58/1,2,3;
 4//1;
 5/5=2,7=512,38=5/2;
 6/7=2,8=2,9=2,10=2,28=1/1;
 99/5=1,9=1/99;
 Leave Link    1 at Sun Nov 20 17:25:53 2022, MaxMem= 16106127360 cpu:               1.8 elap:               0.1
 (Enter /opt/ap/G16/B01/g16/l101.exe)
 ----------------------------
 _conf007.gjf nmol_natom 1_15
 ----------------------------
 Symbolic Z-matrix:
 Charge =  0 Multiplicity = 1
 C
 C                    1     1.39016 
 C                    1     1.39195  2     119.89594 
 C                    2     1.38669  1     119.88076  3     0.70826  0
 H                    2     0.98744  1     119.71654  3    -179.90726  0
 C                    1     1.48429  2     119.93615  4    -179.87772  0
 C                    3     1.40101  1     119.72365  2    -0.26267  0
 H                    3     0.99022  1     119.18862  2     178.85398  0
 C                    4     1.37899  2     120.45786  1    -0.48041  0
 H                    4     0.98347  2     120.30443  1     179.36167  0
 O                    6     1.2746   1     118.00615  2    -1.25977  0
 O                    6     1.26363  1     118.77715  2     179.20604  0
 H                    7     0.98977  3     119.37862  1    -178.93546  0
 H                    9     0.99498  4     119.46723  2    -178.58827  0
 H                    11    0.8968   6     118.15824  1    -235.     0
 
 ITRead=  0  0  0  0  0  0  0  0  0  0  0  0  0  0  0
 MicOpt= -1 -1 -1 -1 -1 -1 -1 -1 -1 -1 -1 -1 -1 -1 -1
 NAtoms=     15 NQM=       15 NQMF=       0 NMMI=      0 NMMIF=      0
                NMic=       0 NMicF=      0.
                    Isotopes and Nuclear Properties:
 (Nuclear quadrupole moments (NQMom) in fm**2, nuclear magnetic moments (NMagM)
  in nuclear magnetons)

  Atom         1           2           3           4           5           6           7           8           9          10
 IAtWgt=          12          12          12          12           1          12          12           1          12           1
 AtmWgt=  12.0000000  12.0000000  12.0000000  12.0000000   1.0078250  12.0000000  12.0000000   1.0078250  12.0000000   1.0078250
 NucSpn=           0           0           0           0           1           0           0           1           0           1
 AtZEff=  -0.0000000  -0.0000000  -0.0000000  -0.0000000  -0.0000000  -0.0000000  -0.0000000  -0.0000000  -0.0000000  -0.0000000
 NQMom=    0.0000000   0.0000000   0.0000000   0.0000000   0.0000000   0.0000000   0.0000000   0.0000000   0.0000000   0.0000000
 NMagM=    0.0000000   0.0000000   0.0000000   0.0000000   2.7928460   0.0000000   0.0000000   2.7928460   0.0000000   2.7928460
 AtZNuc=   6.0000000   6.0000000   6.0000000   6.0000000   1.0000000   6.0000000   6.0000000   1.0000000   6.0000000   1.0000000

  Atom        11          12          13          14          15
 IAtWgt=          16          16           1           1           1
 AtmWgt=  15.9949146  15.9949146   1.0078250   1.0078250   1.0078250
 NucSpn=           0           0           1           1           1
 AtZEff=  -0.0000000  -0.0000000  -0.0000000  -0.0000000  -0.0000000
 NQMom=    0.0000000   0.0000000   0.0000000   0.0000000   0.0000000
 NMagM=    0.0000000   0.0000000   2.7928460   2.7928460   2.7928460
 AtZNuc=   8.0000000   8.0000000   1.0000000   1.0000000   1.0000000
 Leave Link  101 at Sun Nov 20 17:25:53 2022, MaxMem= 16106127360 cpu:               5.1 elap:               0.2
 (Enter /opt/ap/G16/B01/g16/l202.exe)
                          Input orientation:                          
 ---------------------------------------------------------------------
 Center     Atomic      Atomic             Coordinates (Angstroms)
 Number     Number       Type             X           Y           Z
 ---------------------------------------------------------------------
      1          6           0        0.000000    0.000000    0.000000
      2          6           0        0.000000    0.000000    1.390162
      3          6           0        1.206722    0.000000   -0.693782
      4          6           0        1.202258    0.014862    2.081006
      5          1           0       -0.857581   -0.001388    1.879646
      6          6           0       -1.286190   -0.013155   -0.740711
      7          6           0        2.415349    0.005578    0.014752
      8          1           0        1.194584   -0.017290   -1.683772
      9          6           0        2.400563    0.019708    1.398617
     10          1           0        1.209438    0.024411    3.064408
     11          8           0       -2.365984   -0.048941   -0.064425
     12          8           0       -1.260842    0.002453   -2.003986
     13          1           0        3.270315    0.021574   -0.483669
     14          1           0        3.254554    0.009066    1.909081
     15          1           0       -2.979010    0.588808   -0.211844
 ---------------------------------------------------------------------
                    Distance matrix (angstroms):
                    1          2          3          4          5
     1  C    0.000000
     2  C    1.390162   0.000000
     3  C    1.391945   2.408112   0.000000
     4  C    2.403379   1.386690   2.774832   0.000000
     5  H    2.066039   0.987443   3.299073   2.069721   0.000000
     6  C    1.484288   2.488991   2.493388   3.762345   2.655206
     7  C    2.415401   2.779513   1.401011   2.396056   3.766955
     8  H    2.064563   3.297939   0.990215   3.764924   4.112127
     9  C    2.778349   2.400659   2.409104   1.378990   3.293530
    10  H    3.294530   2.065535   3.758270   0.983474   2.382624
    11  O    2.367367   2.777786   3.628045   4.164047   2.461088
    12  O    2.367633   3.620769   2.793834   4.770133   3.904515
    13  H    3.305958   3.769173   2.074374   3.294611   4.756607
    14  H    3.773167   3.295676   3.311886   2.059493   4.112253
    15  H    3.044022   3.433310   4.254328   4.803079   3.036960
                    6          7          8          9         10
     6  C    0.000000
     7  C    3.777892   0.000000
     8  H    2.653982   2.091836   0.000000
     9  C    4.262622   1.384016   3.310118   0.000000
    10  H    4.550659   3.279477   4.748386   2.047842   0.000000
    11  O    1.274598   4.782299   3.911641   4.986499   4.751696
    12  O    1.263626   4.194007   2.476296   4.998389   5.638384
    13  H    4.563881   0.989771   2.398003   2.073517   4.103177
    14  H    5.257398   2.071897   4.141589   0.994981   2.348938
    15  H    1.872885   5.430526   4.466857   5.644224   5.347473
                   11         12         13         14         15
    11  O    0.000000
    12  O    2.232908   0.000000
    13  H    5.652309   4.779447   0.000000
    14  H    5.957225   5.975025   2.392834   0.000000
    15  H    0.896804   2.551017   6.280900   6.609972   0.000000
 Stoichiometry    C7H6O2
 Framework group  C1[X(C7H6O2)]
 Deg. of freedom    39
 Full point group                 C1      NOp   1
 Largest Abelian subgroup         C1      NOp   1
 Largest concise Abelian subgroup C1      NOp   1
                         Standard orientation:                         
 ---------------------------------------------------------------------
 Center     Atomic      Atomic             Coordinates (Angstroms)
 Number     Number       Type             X           Y           Z
 ---------------------------------------------------------------------
      1          6           0       -0.225083    0.031393   -0.006378
      2          6           0        0.437145   -1.190884   -0.012940
      3          6           0        0.505427    1.216223    0.000368
      4          6           0        1.823317   -1.225673    0.002118
      5          1           0       -0.083705   -2.029764   -0.019106
      6          6           0       -1.708807    0.070036   -0.019735
      7          6           0        1.905629    1.168965    0.006077
      8          1           0        0.023161    2.080969   -0.012283
      9          6           0        2.551853   -0.054897    0.013632
     10          1           0        2.298089   -2.086944    0.007046
     11          8           0       -2.336041   -1.038750   -0.061819
     12          8           0       -2.288308    1.192738    0.001908
     13          1           0        2.419918    2.014376    0.026885
     14          1           0        3.545892   -0.096849    0.003036
     15          1           0       -2.945447   -1.204675    0.574853
 ---------------------------------------------------------------------
 Rotational constants (GHZ):           3.9445092           1.2431549           0.9466422
 Leave Link  202 at Sun Nov 20 17:25:53 2022, MaxMem= 16106127360 cpu:               0.3 elap:               0.0
 (Enter /opt/ap/G16/B01/g16/l301.exe)
 Standard basis: 6-311++G(d,p) (5D, 7F)
 Ernie: Thresh=  0.10000D-02 Tol=  0.10000D-05 Strict=F.
 There are   249 symmetry adapted cartesian basis functions of A   symmetry.
 There are   240 symmetry adapted basis functions of A   symmetry.
   240 basis functions,   378 primitive gaussians,   249 cartesian basis functions
    32 alpha electrons       32 beta electrons
       nuclear repulsion energy       409.6799601514 Hartrees.
 IExCor= 4639 DFT=T Ex+Corr=wB97XD ExCW=0 ScaHFX=  1.000000
 ScaDFX=  1.000000  1.000000  1.000000  1.000000 ScalE2=  1.000000  1.000000
 IRadAn=      5 IRanWt=     -1 IRanGd=            0 ICorTp=0 IEmpDi=121
 HFx  wShort=  0.000000 wLong=  0.200000 cFull=  0.222036 cShort=  0.000000 cLong=  0.777964
 DFx  wShort=  0.000000 wLong=  0.200000 cFull=  0.000000 cShort=  0.000000 cLong=  1.000000
 NAtoms=   15 NActive=   15 NUniq=   15 SFac= 1.00D+00 NAtFMM=   60 NAOKFM=F Big=F
 Integral buffers will be    131072 words long.
 Raffenetti 2 integral format.
 Two-electron integral symmetry is turned on.
 R6Disp:  Grimme-D2 Dispersion energy=       -0.0064360386 Hartrees.
 Nuclear repulsion after empirical dispersion term =      409.6735241128 Hartrees.
 Leave Link  301 at Sun Nov 20 17:25:53 2022, MaxMem= 16106127360 cpu:               1.2 elap:               0.0
 (Enter /opt/ap/G16/B01/g16/l302.exe)
 NPDir=0 NMtPBC=     1 NCelOv=     1 NCel=       1 NClECP=     1 NCelD=      1
         NCelK=      1 NCelE2=     1 NClLst=     1 CellRange=     0.0.
 One-electron integrals computed using PRISM.
 One-electron integral symmetry used in STVInt
 NBasis=   240 RedAO= T EigKep=  1.21D-06  NBF=   240
 NBsUse=   240 1.00D-06 EigRej= -1.00D+00 NBFU=   240
 Precomputing XC quadrature grid using
 IXCGrd= 4 IRadAn=           5 IRanWt=          -1 IRanGd=           0 AccXCQ= 0.00D+00.
 Generated NRdTot=       0 NPtTot=           0 NUsed=           0 NTot=          32
 NSgBfM=   249   249   249   249   249 MxSgAt=    15 MxSgA2=    15.
 Leave Link  302 at Sun Nov 20 17:25:53 2022, MaxMem= 16106127360 cpu:               5.3 elap:               0.2
 (Enter /opt/ap/G16/B01/g16/l303.exe)
 DipDrv:  MaxL=1.
 Leave Link  303 at Sun Nov 20 17:25:53 2022, MaxMem= 16106127360 cpu:               1.3 elap:               0.0
 (Enter /opt/ap/G16/B01/g16/l401.exe)
 ExpMin= 3.60D-02 ExpMax= 8.59D+03 ExpMxC= 1.30D+03 IAcc=3 IRadAn=         5 AccDes= 0.00D+00
 Harris functional with IExCor= 4639 and IRadAn=       5 diagonalized for initial guess.
 HarFok:  IExCor= 4639 AccDes= 0.00D+00 IRadAn=         5 IDoV= 1 UseB2=F ITyADJ=14
 ICtDFT=  3500011 ScaDFX=  1.000000  1.000000  1.000000  1.000000
 FoFCou: FMM=F IPFlag=           0 FMFlag=      100000 FMFlg1=           0
         NFxFlg=           0 DoJE=T BraDBF=F KetDBF=T FulRan=T
         wScrn=  0.000000 ICntrl=       500 IOpCl=  0 I1Cent=   200000004 NGrid=           0
         NMat0=    1 NMatS0=      1 NMatT0=    0 NMatD0=    1 NMtDS0=    0 NMtDT0=    0
 Petite list used in FoFCou.
 Harris En= -403.243859810023    
 JPrj=0 DoOrth=F DoCkMO=F.
 Leave Link  401 at Sun Nov 20 17:25:54 2022, MaxMem= 16106127360 cpu:              12.4 elap:               0.4
 (Enter /opt/ap/G16/B01/g16/l502.exe)
 Integral symmetry usage will be decided dynamically.
 Closed shell SCF:
 Using DIIS extrapolation, IDIIS=  1040.
 NGot= 16106127360 LenX= 16105992971 LenY= 16105930529
 Requested convergence on RMS density matrix=1.00D-08 within 512 cycles.
 Requested convergence on MAX density matrix=1.00D-06.
 Requested convergence on             energy=1.00D-06.
 No special actions if energy rises.
 Fock matrices will be formed incrementally for  20 cycles.

 Cycle   1  Pass 1  IDiag  1:
 FoFJK:  IHMeth= 1 ICntrl=       0 DoSepK=T KAlg= 0 I1Cent=           0 FoldK=F
 IRaf=         1 NMat=       1 IRICut=       1 DoRegI=T DoRafI=F ISym2E= 0 IDoP0=0 IntGTp=1.
 FoFCou: FMM=F IPFlag=           0 FMFlag=      100000 FMFlg1=           0
         NFxFlg=           0 DoJE=T BraDBF=F KetDBF=F FulRan=T
         wScrn=  0.000000 ICntrl=       500 IOpCl=  0 I1Cent=           0 NGrid=           0
         NMat0=    1 NMatS0=      1 NMatT0=    0 NMatD0=    1 NMtDS0=    0 NMtDT0=    0
 Symmetry not used in FoFCou.
 E= -420.622723767859    
 DIIS: error= 5.66D-02 at cycle   1 NSaved=   1.
 NSaved= 1 IEnMin= 1 EnMin= -420.622723767859     IErMin= 1 ErrMin= 5.66D-02
 ErrMax= 5.66D-02  0.00D+00 EMaxC= 1.00D-01 BMatC= 8.57D-01 BMatP= 8.57D-01
 IDIUse=3 WtCom= 4.34D-01 WtEn= 5.66D-01
 Coeff-Com:  0.100D+01
 Coeff-En:   0.100D+01
 Coeff:      0.100D+01
 Gap=     0.425 Goal=   None    Shift=    0.000
 GapD=    0.425 DampG=2.000 DampE=0.500 DampFc=1.0000 IDamp=-1.
 RMSDP=3.15D-02 MaxDP=2.18D+00              OVMax= 1.05D-01

 Cycle   2  Pass 1  IDiag  1:
 RMSU=  1.50D-02    CP:  6.48D-01
 E= -420.695734649579     Delta-E=       -0.073010881720 Rises=F Damp=F
 DIIS: error= 1.11D-02 at cycle   2 NSaved=   2.
 NSaved= 2 IEnMin= 2 EnMin= -420.695734649579     IErMin= 2 ErrMin= 1.11D-02
 ErrMax= 1.11D-02  0.00D+00 EMaxC= 1.00D-01 BMatC= 4.90D-02 BMatP= 8.57D-01
 IDIUse=3 WtCom= 8.89D-01 WtEn= 1.11D-01
 Coeff-Com:  0.126D+00 0.874D+00
 Coeff-En:   0.435D-01 0.956D+00
 Coeff:      0.117D+00 0.883D+00
 Gap=     0.421 Goal=   None    Shift=    0.000
 RMSDP=7.74D-03 MaxDP=5.92D-01 DE=-7.30D-02 OVMax= 7.06D-02

 Cycle   3  Pass 1  IDiag  1:
 RMSU=  5.93D-03    CP:  6.17D-01  7.12D-01
 E= -420.712703490650     Delta-E=       -0.016968841070 Rises=F Damp=F
 DIIS: error= 9.24D-03 at cycle   3 NSaved=   3.
 NSaved= 3 IEnMin= 3 EnMin= -420.712703490650     IErMin= 3 ErrMin= 9.24D-03
 ErrMax= 9.24D-03  0.00D+00 EMaxC= 1.00D-01 BMatC= 2.69D-02 BMatP= 4.90D-02
 IDIUse=3 WtCom= 9.08D-01 WtEn= 9.24D-02
 Coeff-Com:  0.245D-01 0.433D+00 0.543D+00
 Coeff-En:   0.000D+00 0.352D+00 0.648D+00
 Coeff:      0.222D-01 0.425D+00 0.552D+00
 Gap=     0.359 Goal=   None    Shift=    0.000
 RMSDP=3.41D-03 MaxDP=2.36D-01 DE=-1.70D-02 OVMax= 3.79D-02

 Cycle   4  Pass 1  IDiag  1:
 RMSU=  1.40D-03    CP:  6.07D-01  8.66D-01  6.74D-01
 E= -420.733803200629     Delta-E=       -0.021099709979 Rises=F Damp=F
 DIIS: error= 1.93D-03 at cycle   4 NSaved=   4.
 NSaved= 4 IEnMin= 4 EnMin= -420.733803200629     IErMin= 4 ErrMin= 1.93D-03
 ErrMax= 1.93D-03  0.00D+00 EMaxC= 1.00D-01 BMatC= 1.12D-03 BMatP= 2.69D-02
 IDIUse=3 WtCom= 9.81D-01 WtEn= 1.93D-02
 Coeff-Com:  0.101D-01 0.216D+00 0.303D+00 0.471D+00
 Coeff-En:   0.000D+00 0.000D+00 0.000D+00 0.100D+01
 Coeff:      0.987D-02 0.212D+00 0.297D+00 0.481D+00
 Gap=     0.344 Goal=   None    Shift=    0.000
 RMSDP=8.95D-04 MaxDP=6.83D-02 DE=-2.11D-02 OVMax= 8.78D-03

 Cycle   5  Pass 1  IDiag  1:
 RMSU=  6.30D-04    CP:  6.01D-01  8.52D-01  7.05D-01  7.59D-01
 E= -420.734569990795     Delta-E=       -0.000766790166 Rises=F Damp=F
 DIIS: error= 4.16D-04 at cycle   5 NSaved=   5.
 NSaved= 5 IEnMin= 5 EnMin= -420.734569990795     IErMin= 5 ErrMin= 4.16D-04
 ErrMax= 4.16D-04  0.00D+00 EMaxC= 1.00D-01 BMatC= 4.86D-05 BMatP= 1.12D-03
 IDIUse=3 WtCom= 9.96D-01 WtEn= 4.16D-03
 Coeff-Com:  0.191D-03 0.124D-01 0.268D-01 0.175D+00 0.786D+00
 Coeff-En:   0.000D+00 0.000D+00 0.000D+00 0.000D+00 0.100D+01
 Coeff:      0.190D-03 0.123D-01 0.267D-01 0.174D+00 0.787D+00
 Gap=     0.344 Goal=   None    Shift=    0.000
 RMSDP=2.26D-04 MaxDP=1.36D-02 DE=-7.67D-04 OVMax= 2.27D-03

 Cycle   6  Pass 1  IDiag  1:
 RMSU=  1.25D-04    CP:  5.99D-01  8.55D-01  7.21D-01  7.70D-01  1.04D+00
 E= -420.734608285800     Delta-E=       -0.000038295005 Rises=F Damp=F
 DIIS: error= 1.58D-04 at cycle   6 NSaved=   6.
 NSaved= 6 IEnMin= 6 EnMin= -420.734608285800     IErMin= 6 ErrMin= 1.58D-04
 ErrMax= 1.58D-04  0.00D+00 EMaxC= 1.00D-01 BMatC= 7.09D-06 BMatP= 4.86D-05
 IDIUse=3 WtCom= 9.98D-01 WtEn= 1.58D-03
 Coeff-Com: -0.101D-02-0.178D-01-0.201D-01 0.224D-01 0.351D+00 0.665D+00
 Coeff-En:   0.000D+00 0.000D+00 0.000D+00 0.000D+00 0.000D+00 0.100D+01
 Coeff:     -0.101D-02-0.177D-01-0.201D-01 0.224D-01 0.351D+00 0.666D+00
 Gap=     0.344 Goal=   None    Shift=    0.000
 RMSDP=1.55D-04 MaxDP=1.18D-02 DE=-3.83D-05 OVMax= 8.40D-04

 Cycle   7  Pass 1  IDiag  1:
 RMSU=  3.73D-05    CP:  5.97D-01  8.53D-01  7.31D-01  7.77D-01  1.14D+00
                    CP:  1.05D+00
 E= -420.734615136549     Delta-E=       -0.000006850749 Rises=F Damp=F
 DIIS: error= 7.28D-05 at cycle   7 NSaved=   7.
 NSaved= 7 IEnMin= 7 EnMin= -420.734615136549     IErMin= 7 ErrMin= 7.28D-05
 ErrMax= 7.28D-05  0.00D+00 EMaxC= 1.00D-01 BMatC= 3.03D-07 BMatP= 7.09D-06
 IDIUse=1 WtCom= 1.00D+00 WtEn= 0.00D+00
 Coeff-Com: -0.262D-03-0.600D-02-0.778D-02-0.145D-01 0.107D-01 0.147D+00
 Coeff-Com:  0.871D+00
 Coeff:     -0.262D-03-0.600D-02-0.778D-02-0.145D-01 0.107D-01 0.147D+00
 Coeff:      0.871D+00
 Gap=     0.344 Goal=   None    Shift=    0.000
 RMSDP=4.09D-05 MaxDP=2.20D-03 DE=-6.85D-06 OVMax= 3.58D-04

 Cycle   8  Pass 1  IDiag  1:
 RMSU=  1.38D-05    CP:  5.97D-01  8.53D-01  7.33D-01  7.77D-01  1.19D+00
                    CP:  1.09D+00  1.07D+00
 E= -420.734615710531     Delta-E=       -0.000000573982 Rises=F Damp=F
 DIIS: error= 1.66D-05 at cycle   8 NSaved=   8.
 NSaved= 8 IEnMin= 8 EnMin= -420.734615710531     IErMin= 8 ErrMin= 1.66D-05
 ErrMax= 1.66D-05  0.00D+00 EMaxC= 1.00D-01 BMatC= 4.52D-08 BMatP= 3.03D-07
 IDIUse=1 WtCom= 1.00D+00 WtEn= 0.00D+00
 Coeff-Com:  0.235D-04 0.844D-04-0.161D-03-0.780D-02-0.359D-01-0.330D-01
 Coeff-Com:  0.262D+00 0.815D+00
 Coeff:      0.235D-04 0.844D-04-0.161D-03-0.780D-02-0.359D-01-0.330D-01
 Coeff:      0.262D+00 0.815D+00
 Gap=     0.344 Goal=   None    Shift=    0.000
 RMSDP=1.42D-05 MaxDP=7.78D-04 DE=-5.74D-07 OVMax= 1.35D-04

 Cycle   9  Pass 1  IDiag  1:
 RMSU=  5.71D-06    CP:  5.97D-01  8.53D-01  7.33D-01  7.74D-01  1.21D+00
                    CP:  1.11D+00  1.12D+00  1.24D+00
 E= -420.734615788527     Delta-E=       -0.000000077996 Rises=F Damp=F
 DIIS: error= 1.09D-05 at cycle   9 NSaved=   9.
 NSaved= 9 IEnMin= 9 EnMin= -420.734615788527     IErMin= 9 ErrMin= 1.09D-05
 ErrMax= 1.09D-05  0.00D+00 EMaxC= 1.00D-01 BMatC= 6.15D-09 BMatP= 4.52D-08
 IDIUse=1 WtCom= 1.00D+00 WtEn= 0.00D+00
 Coeff-Com:  0.418D-04 0.800D-03 0.937D-03-0.104D-02-0.124D-01-0.306D-01
 Coeff-Com: -0.156D-01 0.277D+00 0.781D+00
 Coeff:      0.418D-04 0.800D-03 0.937D-03-0.104D-02-0.124D-01-0.306D-01
 Coeff:     -0.156D-01 0.277D+00 0.781D+00
 Gap=     0.344 Goal=   None    Shift=    0.000
 RMSDP=5.12D-06 MaxDP=2.50D-04 DE=-7.80D-08 OVMax= 5.07D-05

 Cycle  10  Pass 1  IDiag  1:
 RMSU=  1.83D-06    CP:  5.97D-01  8.53D-01  7.33D-01  7.72D-01  1.21D+00
                    CP:  1.12D+00  1.14D+00  1.34D+00  1.22D+00
 E= -420.734615798296     Delta-E=       -0.000000009770 Rises=F Damp=F
 DIIS: error= 1.52D-06 at cycle  10 NSaved=  10.
 NSaved=10 IEnMin=10 EnMin= -420.734615798296     IErMin=10 ErrMin= 1.52D-06
 ErrMax= 1.52D-06  0.00D+00 EMaxC= 1.00D-01 BMatC= 7.91D-10 BMatP= 6.15D-09
 IDIUse=1 WtCom= 1.00D+00 WtEn= 0.00D+00
 Coeff-Com:  0.952D-05 0.204D-03 0.258D-03 0.405D-03 0.680D-03-0.611D-02
 Coeff-Com: -0.315D-01-0.104D-01 0.250D+00 0.797D+00
 Coeff:      0.952D-05 0.204D-03 0.258D-03 0.405D-03 0.680D-03-0.611D-02
 Coeff:     -0.315D-01-0.104D-01 0.250D+00 0.797D+00
 Gap=     0.344 Goal=   None    Shift=    0.000
 RMSDP=1.92D-06 MaxDP=1.44D-04 DE=-9.77D-09 OVMax= 1.68D-05

 Cycle  11  Pass 1  IDiag  1:
 RMSU=  4.77D-07    CP:  5.97D-01  8.53D-01  7.33D-01  7.71D-01  1.22D+00
                    CP:  1.12D+00  1.14D+00  1.40D+00  1.34D+00  1.18D+00
 E= -420.734615799529     Delta-E=       -0.000000001232 Rises=F Damp=F
 DIIS: error= 5.32D-07 at cycle  11 NSaved=  11.
 NSaved=11 IEnMin=11 EnMin= -420.734615799529     IErMin=11 ErrMin= 5.32D-07
 ErrMax= 5.32D-07  0.00D+00 EMaxC= 1.00D-01 BMatC= 1.07D-10 BMatP= 7.91D-10
 IDIUse=1 WtCom= 1.00D+00 WtEn= 0.00D+00
 Coeff-Com: -0.201D-05-0.206D-04-0.138D-04 0.306D-03 0.206D-02 0.152D-02
 Coeff-Com: -0.845D-02-0.459D-01-0.250D-01 0.267D+00 0.809D+00
 Coeff:     -0.201D-05-0.206D-04-0.138D-04 0.306D-03 0.206D-02 0.152D-02
 Coeff:     -0.845D-02-0.459D-01-0.250D-01 0.267D+00 0.809D+00
 Gap=     0.344 Goal=   None    Shift=    0.000
 RMSDP=7.84D-07 MaxDP=5.05D-05 DE=-1.23D-09 OVMax= 8.84D-06

 Cycle  12  Pass 1  IDiag  1:
 RMSU=  2.20D-07    CP:  5.97D-01  8.53D-01  7.33D-01  7.71D-01  1.22D+00
                    CP:  1.12D+00  1.14D+00  1.41D+00  1.39D+00  1.35D+00
                    CP:  1.28D+00
 E= -420.734615799724     Delta-E=       -0.000000000195 Rises=F Damp=F
 DIIS: error= 1.82D-07 at cycle  12 NSaved=  12.
 NSaved=12 IEnMin=12 EnMin= -420.734615799724     IErMin=12 ErrMin= 1.82D-07
 ErrMax= 1.82D-07  0.00D+00 EMaxC= 1.00D-01 BMatC= 1.01D-11 BMatP= 1.07D-10
 IDIUse=1 WtCom= 1.00D+00 WtEn= 0.00D+00
 Coeff-Com: -0.126D-05-0.215D-04-0.235D-04 0.440D-04 0.457D-03 0.755D-03
 Coeff-Com:  0.118D-02-0.103D-01-0.276D-01-0.595D-02 0.201D+00 0.840D+00
 Coeff:     -0.126D-05-0.215D-04-0.235D-04 0.440D-04 0.457D-03 0.755D-03
 Coeff:      0.118D-02-0.103D-01-0.276D-01-0.595D-02 0.201D+00 0.840D+00
 Gap=     0.344 Goal=   None    Shift=    0.000
 RMSDP=1.27D-07 MaxDP=7.86D-06 DE=-1.95D-10 OVMax= 4.06D-06

 Cycle  13  Pass 1  IDiag  1:
 RMSU=  6.16D-08    CP:  5.97D-01  8.53D-01  7.33D-01  7.71D-01  1.22D+00
                    CP:  1.12D+00  1.14D+00  1.41D+00  1.40D+00  1.37D+00
                    CP:  1.35D+00  1.03D+00
 E= -420.734615799757     Delta-E=       -0.000000000033 Rises=F Damp=F
 DIIS: error= 7.59D-08 at cycle  13 NSaved=  13.
 NSaved=13 IEnMin=13 EnMin= -420.734615799757     IErMin=13 ErrMin= 7.59D-08
 ErrMax= 7.59D-08  0.00D+00 EMaxC= 1.00D-01 BMatC= 1.73D-12 BMatP= 1.01D-11
 IDIUse=1 WtCom= 1.00D+00 WtEn= 0.00D+00
 Coeff-Com:  0.101D-06-0.329D-05-0.625D-05-0.550D-04-0.316D-03-0.154D-03
 Coeff-Com:  0.211D-02 0.677D-02-0.142D-02-0.565D-01-0.125D+00 0.174D+00
 Coeff-Com:  0.100D+01
 Coeff:      0.101D-06-0.329D-05-0.625D-05-0.550D-04-0.316D-03-0.154D-03
 Coeff:      0.211D-02 0.677D-02-0.142D-02-0.565D-01-0.125D+00 0.174D+00
 Coeff:      0.100D+01
 Gap=     0.344 Goal=   None    Shift=    0.000
 RMSDP=7.11D-08 MaxDP=5.97D-06 DE=-3.34D-11 OVMax= 3.03D-06

 Cycle  14  Pass 1  IDiag  1:
 RMSU=  2.66D-08    CP:  5.97D-01  8.53D-01  7.33D-01  7.71D-01  1.22D+00
                    CP:  1.12D+00  1.14D+00  1.41D+00  1.40D+00  1.39D+00
                    CP:  1.41D+00  1.14D+00  1.40D+00
 E= -420.734615799767     Delta-E=       -0.000000000010 Rises=F Damp=F
 DIIS: error= 4.06D-08 at cycle  14 NSaved=  14.
 NSaved=14 IEnMin=14 EnMin= -420.734615799767     IErMin=14 ErrMin= 4.06D-08
 ErrMax= 4.06D-08  0.00D+00 EMaxC= 1.00D-01 BMatC= 1.94D-13 BMatP= 1.73D-12
 IDIUse=1 WtCom= 1.00D+00 WtEn= 0.00D+00
 Coeff-Com:  0.131D-06 0.249D-05 0.281D-05-0.757D-05-0.813D-04-0.715D-04
 Coeff-Com: -0.293D-04 0.164D-02 0.293D-02-0.341D-02-0.288D-01-0.909D-01
 Coeff-Com:  0.454D-01 0.107D+01
 Coeff:      0.131D-06 0.249D-05 0.281D-05-0.757D-05-0.813D-04-0.715D-04
 Coeff:     -0.293D-04 0.164D-02 0.293D-02-0.341D-02-0.288D-01-0.909D-01
 Coeff:      0.454D-01 0.107D+01
 Gap=     0.344 Goal=   None    Shift=    0.000
 RMSDP=2.62D-08 MaxDP=1.10D-06 DE=-1.02D-11 OVMax= 1.21D-06

 Cycle  15  Pass 1  IDiag  1:
 RMSU=  9.68D-09    CP:  5.97D-01  8.53D-01  7.33D-01  7.71D-01  1.22D+00
                    CP:  1.12D+00  1.14D+00  1.41D+00  1.40D+00  1.39D+00
                    CP:  1.40D+00  1.13D+00  1.61D+00  1.37D+00
 E= -420.734615799765     Delta-E=        0.000000000002 Rises=F Damp=F
 DIIS: error= 2.02D-08 at cycle  15 NSaved=  15.
 NSaved=15 IEnMin=14 EnMin= -420.734615799767     IErMin=15 ErrMin= 2.02D-08
 ErrMax= 2.02D-08  0.00D+00 EMaxC= 1.00D-01 BMatC= 5.00D-14 BMatP= 1.94D-13
 IDIUse=1 WtCom= 1.00D+00 WtEn= 0.00D+00
 Coeff-Com:  0.253D-07 0.134D-05 0.196D-05 0.607D-05 0.201D-04 0.995D-05
 Coeff-Com: -0.343D-03-0.449D-03 0.117D-02 0.777D-02 0.102D-01-0.553D-01
 Coeff-Com: -0.148D+00 0.373D+00 0.812D+00
 Coeff:      0.253D-07 0.134D-05 0.196D-05 0.607D-05 0.201D-04 0.995D-05
 Coeff:     -0.343D-03-0.449D-03 0.117D-02 0.777D-02 0.102D-01-0.553D-01
 Coeff:     -0.148D+00 0.373D+00 0.812D+00
 Gap=     0.344 Goal=   None    Shift=    0.000
 RMSDP=9.71D-09 MaxDP=5.28D-07 DE= 2.39D-12 OVMax= 3.71D-07

 SCF Done:  E(RwB97XD) =  -420.734615800     A.U. after   15 cycles
            NFock= 15  Conv=0.97D-08     -V/T= 2.0014
 KE= 4.201423969572D+02 PE=-1.802879138827D+03 EE= 5.523286019570D+02
 Leave Link  502 at Sun Nov 20 17:26:07 2022, MaxMem= 16106127360 cpu:             410.6 elap:              12.9
 (Enter /opt/ap/G16/B01/g16/l601.exe)
 Copying SCF densities to generalized density rwf, IOpCl= 0 IROHF=0.

 **********************************************************************

            Population analysis using the SCF Density.

 **********************************************************************

 Orbital symmetries:
       Occupied  (A) (A) (A) (A) (A) (A) (A) (A) (A) (A) (A) (A)
                 (A) (A) (A) (A) (A) (A) (A) (A) (A) (A) (A) (A)
                 (A) (A) (A) (A) (A) (A) (A) (A)
       Virtual   (A) (A) (A) (A) (A) (A) (A) (A) (A) (A) (A) (A)
                 (A) (A) (A) (A) (A) (A) (A) (A) (A) (A) (A) (A)
                 (A) (A) (A) (A) (A) (A) (A) (A) (A) (A) (A) (A)
                 (A) (A) (A) (A) (A) (A) (A) (A) (A) (A) (A) (A)
                 (A) (A) (A) (A) (A) (A) (A) (A) (A) (A) (A) (A)
                 (A) (A) (A) (A) (A) (A) (A) (A) (A) (A) (A) (A)
                 (A) (A) (A) (A) (A) (A) (A) (A) (A) (A) (A) (A)
                 (A) (A) (A) (A) (A) (A) (A) (A) (A) (A) (A) (A)
                 (A) (A) (A) (A) (A) (A) (A) (A) (A) (A) (A) (A)
                 (A) (A) (A) (A) (A) (A) (A) (A) (A) (A) (A) (A)
                 (A) (A) (A) (A) (A) (A) (A) (A) (A) (A) (A) (A)
                 (A) (A) (A) (A) (A) (A) (A) (A) (A) (A) (A) (A)
                 (A) (A) (A) (A) (A) (A) (A) (A) (A) (A) (A) (A)
                 (A) (A) (A) (A) (A) (A) (A) (A) (A) (A) (A) (A)
                 (A) (A) (A) (A) (A) (A) (A) (A) (A) (A) (A) (A)
                 (A) (A) (A) (A) (A) (A) (A) (A) (A) (A) (A) (A)
                 (A) (A) (A) (A) (A) (A) (A) (A) (A) (A) (A) (A)
                 (A) (A) (A) (A)
 The electronic state is 1-A.
 Alpha  occ. eigenvalues --  -19.30563 -19.23235 -10.43176 -10.30927 -10.29414
 Alpha  occ. eigenvalues --  -10.29348 -10.29299 -10.29072 -10.28832  -1.25237
 Alpha  occ. eigenvalues --   -1.10812  -0.98124  -0.88754  -0.87093  -0.80021
 Alpha  occ. eigenvalues --   -0.73467  -0.72243  -0.66169  -0.61112  -0.58529
 Alpha  occ. eigenvalues --   -0.56766  -0.56074  -0.53929  -0.53559  -0.48174
 Alpha  occ. eigenvalues --   -0.47318  -0.45296  -0.44224  -0.41665  -0.36190
 Alpha  occ. eigenvalues --   -0.34739  -0.34389
 Alpha virt. eigenvalues --    0.00028   0.03552   0.04178   0.04468   0.05250
 Alpha virt. eigenvalues --    0.06508   0.07805   0.08724   0.10155   0.10692
 Alpha virt. eigenvalues --    0.11804   0.12914   0.13244   0.14130   0.14540
 Alpha virt. eigenvalues --    0.15985   0.16339   0.16925   0.17293   0.17915
 Alpha virt. eigenvalues --    0.18212   0.19317   0.19960   0.20046   0.20457
 Alpha virt. eigenvalues --    0.21127   0.21479   0.21782   0.23246   0.24101
 Alpha virt. eigenvalues --    0.25517   0.26209   0.27013   0.27203   0.27925
 Alpha virt. eigenvalues --    0.29653   0.29934   0.30651   0.31118   0.32303
 Alpha virt. eigenvalues --    0.32379   0.34017   0.34583   0.35526   0.35765
 Alpha virt. eigenvalues --    0.36212   0.37248   0.38119   0.39253   0.40008
 Alpha virt. eigenvalues --    0.41636   0.42016   0.42569   0.44035   0.46111
 Alpha virt. eigenvalues --    0.46922   0.49891   0.53412   0.54698   0.57855
 Alpha virt. eigenvalues --    0.59123   0.60215   0.61869   0.63396   0.63728
 Alpha virt. eigenvalues --    0.64299   0.64990   0.65786   0.66293   0.69180
 Alpha virt. eigenvalues --    0.70434   0.72706   0.73959   0.74314   0.75297
 Alpha virt. eigenvalues --    0.76639   0.80867   0.82413   0.83444   0.86128
 Alpha virt. eigenvalues --    0.88538   0.90279   0.92742   0.93668   0.94667
 Alpha virt. eigenvalues --    0.96270   0.96606   0.97877   0.99771   1.00500
 Alpha virt. eigenvalues --    1.03407   1.06810   1.07912   1.09740   1.10380
 Alpha virt. eigenvalues --    1.14261   1.14620   1.16260   1.16680   1.18946
 Alpha virt. eigenvalues --    1.21246   1.21652   1.24261   1.27936   1.29158
 Alpha virt. eigenvalues --    1.34266   1.41972   1.44472   1.45389   1.53808
 Alpha virt. eigenvalues --    1.57671   1.59111   1.60609   1.60856   1.62225
 Alpha virt. eigenvalues --    1.63230   1.66503   1.66992   1.67834   1.74792
 Alpha virt. eigenvalues --    1.74873   1.76862   1.79318   1.83448   1.87225
 Alpha virt. eigenvalues --    1.87928   1.90231   1.91643   1.93365   2.00100
 Alpha virt. eigenvalues --    2.00296   2.01742   2.03410   2.04437   2.05048
 Alpha virt. eigenvalues --    2.07743   2.09830   2.15829   2.17924   2.19743
 Alpha virt. eigenvalues --    2.23051   2.26235   2.29343   2.42766   2.46062
 Alpha virt. eigenvalues --    2.51864   2.53087   2.54393   2.58064   2.59056
 Alpha virt. eigenvalues --    2.70971   2.72242   2.75600   2.77948   2.81029
 Alpha virt. eigenvalues --    2.81643   2.83036   2.88165   2.89723   2.90421
 Alpha virt. eigenvalues --    2.90608   2.91771   2.96214   2.99658   3.00082
 Alpha virt. eigenvalues --    3.04503   3.05163   3.06484   3.15925   3.18679
 Alpha virt. eigenvalues --    3.18738   3.22618   3.28370   3.31786   3.38693
 Alpha virt. eigenvalues --    3.42452   3.46008   3.48664   3.50988   3.63087
 Alpha virt. eigenvalues --    3.66394   3.68434   3.74019   3.84411   3.87725
 Alpha virt. eigenvalues --    3.99918   4.17681   4.28390   4.30654   4.36664
 Alpha virt. eigenvalues --    4.40259   4.44918   4.94835   5.14811   5.16069
 Alpha virt. eigenvalues --    5.30389   5.45955   5.82617   6.07620  23.83867
 Alpha virt. eigenvalues --   23.94860  24.14102  24.21282  24.28269  24.30331
 Alpha virt. eigenvalues --   24.41742  50.04774  50.16445
          Condensed to atoms (all electrons):
               1          2          3          4          5          6
     1  C   10.120175  -2.544695  -2.038874   1.831349  -0.022021  -1.986789
     2  C   -2.544695  15.187468  -1.704443  -4.609613   0.668999  -0.604274
     3  C   -2.038874  -1.704443  13.531360  -0.185450  -0.063948  -0.405563
     4  C    1.831349  -4.609613  -0.185450   8.509417  -0.138112  -0.083305
     5  H   -0.022021   0.668999  -0.063948  -0.138112   0.489810  -0.119371
     6  C   -1.986789  -0.604274  -0.405563  -0.083305  -0.119371   8.177360
     7  C    1.152397  -0.404684  -4.076481   0.876513   0.025739   0.053791
     8  H   -0.045581   0.014877   0.554976  -0.010895  -0.000311  -0.049578
     9  C   -1.202073   1.241852   1.240947  -0.764397   0.019832  -0.015484
    10  H    0.034245  -0.125717   0.022649   0.438441  -0.012237   0.014952
    11  O   -0.246392  -0.213797  -0.007145   0.060203  -0.043260   0.457999
    12  O   -0.217317  -0.082181  -0.075582   0.054095  -0.005413   0.609122
    13  H    0.032865   0.012578  -0.139167   0.000664   0.000526   0.010692
    14  H    0.011413   0.012218   0.008559  -0.053753   0.000703  -0.010286
    15  H   -0.012286  -0.002200   0.000774  -0.013316  -0.000385   0.020024
               7          8          9         10         11         12
     1  C    1.152397  -0.045581  -1.202073   0.034245  -0.246392  -0.217317
     2  C   -0.404684   0.014877   1.241852  -0.125717  -0.213797  -0.082181
     3  C   -4.076481   0.554976   1.240947   0.022649  -0.007145  -0.075582
     4  C    0.876513  -0.010895  -0.764397   0.438441   0.060203   0.054095
     5  H    0.025739  -0.000311   0.019832  -0.012237  -0.043260  -0.005413
     6  C    0.053791  -0.049578  -0.015484   0.014952   0.457999   0.609122
     7  C    8.712695  -0.112980  -0.820354  -0.008198   0.053358   0.132982
     8  H   -0.112980   0.430892   0.022243   0.000458  -0.004679  -0.007594
     9  C   -0.820354   0.022243   6.463029  -0.041972  -0.032223  -0.022206
    10  H   -0.008198   0.000458  -0.041972   0.472400   0.003495   0.000616
    11  O    0.053358  -0.004679  -0.032223   0.003495   7.995976  -0.121908
    12  O    0.132982  -0.007594  -0.022206   0.000616  -0.121908   8.041047
    13  H    0.452290  -0.008908  -0.036445  -0.001024   0.001053   0.002012
    14  H   -0.041332   0.000408   0.429234  -0.007287  -0.000570  -0.000410
    15  H    0.009732  -0.000406  -0.002832  -0.000024   0.294707   0.003145
              13         14         15
     1  C    0.032865   0.011413  -0.012286
     2  C    0.012578   0.012218  -0.002200
     3  C   -0.139167   0.008559   0.000774
     4  C    0.000664  -0.053753  -0.013316
     5  H    0.000526   0.000703  -0.000385
     6  C    0.010692  -0.010286   0.020024
     7  C    0.452290  -0.041332   0.009732
     8  H   -0.008908   0.000408  -0.000406
     9  C   -0.036445   0.429234  -0.002832
    10  H   -0.001024  -0.007287  -0.000024
    11  O    0.001053  -0.000570   0.294707
    12  O    0.002012  -0.000410   0.003145
    13  H    0.464967  -0.006461   0.000104
    14  H   -0.006461   0.470156  -0.000077
    15  H    0.000104  -0.000077   0.382109
 Mulliken charges:
               1
     1  C    1.133583
     2  C   -0.846389
     3  C   -0.662612
     4  C    0.088159
     5  H    0.199449
     6  C   -0.069291
     7  C   -0.005467
     8  H    0.217078
     9  C   -0.479151
    10  H    0.209200
    11  O   -0.196816
    12  O   -0.310410
    13  H    0.214252
    14  H    0.187486
    15  H    0.320930
 Sum of Mulliken charges =  -0.00000
 Mulliken charges with hydrogens summed into heavy atoms:
               1
     1  C    1.133583
     2  C   -0.646940
     3  C   -0.445534
     4  C    0.297360
     6  C   -0.069291
     7  C    0.208785
     9  C   -0.291665
    11  O    0.124114
    12  O   -0.310410
 Electronic spatial extent (au):  <R**2>=           1155.9651
 Charge=              0.0000 electrons
 Dipole moment (field-independent basis, Debye):
    X=              1.8941    Y=             -2.4307    Z=              1.1293  Tot=              3.2819
 Quadrupole moment (field-independent basis, Debye-Ang):
   XX=            -47.0637   YY=            -49.0852   ZZ=            -53.2144
   XY=              8.0356   XZ=             -3.8011   YZ=             -1.7344
 Traceless Quadrupole moment (field-independent basis, Debye-Ang):
   XX=              2.7241   YY=              0.7026   ZZ=             -3.4267
   XY=              8.0356   XZ=             -3.8011   YZ=             -1.7344
 Octapole moment (field-independent basis, Debye-Ang**2):
  XXX=             -2.5740  YYY=             -5.3498  ZZZ=              0.7670  XYY=              5.3800
  XXY=            -24.4892  XXZ=             12.0199  XZZ=            -13.7622  YZZ=             -1.3843
  YYZ=              2.1442  XYZ=              5.4638
 Hexadecapole moment (field-independent basis, Debye-Ang**3):
 XXXX=           -946.9220 YYYY=           -357.6488 ZZZZ=            -58.7136 XXXY=             77.7281
 XXXZ=            -38.0240 YYYX=             19.4897 YYYZ=             -3.5122 ZZZX=             -3.3728
 ZZZY=             -1.5342 XXYY=           -229.6466 XXZZ=           -186.5510 YYZZ=            -77.8254
 XXYZ=            -16.0761 YYXZ=             -6.6229 ZZXY=              4.7679
 N-N= 4.096735241128D+02 E-N=-1.802879139016D+03  KE= 4.201423969572D+02
 No NMR shielding tensors so no spin-rotation constants.
 Leave Link  601 at Sun Nov 20 17:26:07 2022, MaxMem= 16106127360 cpu:               3.3 elap:               0.1
 (Enter /opt/ap/G16/B01/g16/l9999.exe)
 1\1\GINC-N07\SP\RwB97XD\6-311++G(d,p)\C7H6O2\ROOT\20-Nov-2022\0\\#P wB
 97XD/6-311++G(d,p) scf=maxcycle=512\\_conf007.gjf nmol_natom 1_15\\0,1
 \C\C,1,1.39016191\C,1,1.39194539,2,119.895942\C,2,1.38669027,1,119.880
 75721,3,0.70825972,0\H,2,0.98744251,1,119.71654057,3,-179.90726164,0\C
 ,1,1.48428757,2,119.93615286,4,-179.87772406,0\C,3,1.40101108,1,119.72
 36454,2,-0.26266839,0\H,3,0.9902154,1,119.1886159,2,178.85397616,0\C,4
 ,1.37899003,2,120.45785903,1,-0.48041454,0\H,4,0.9834739,2,120.3044270
 6,1,179.36166981,0\O,6,1.27459751,1,118.00615353,2,-1.25976832,0\O,6,1
 .26362572,1,118.77715367,2,179.20603801,0\H,7,0.98977053,3,119.3786157
 8,1,-178.93545741,0\H,9,0.99498061,4,119.46722635,2,-178.58826714,0\H,
 11,0.89680392,6,118.15823763,1,-235.,0\\Version=ES64L-G16RevB.01\State
 =1-A\HF=-420.7346158\RMSD=9.709e-09\Dipole=0.2009418,0.4493552,1.19368
 87\Quadrupole=6.6708784,-2.5317223,-4.1391562,-3.1379888,-2.6192413,-0
 .2124651\PG=C01 [X(C7H6O2)]\\@


 DEMOCRATS BUY MOST OF THE BOOKS THAT HAVE BEEN
 BANNED; REPUBLICANS FORM CENSORSHIP COMMITTEES AND
 READ THEM AS A GROUP.
 Job cpu time:       0 days  0 hours  7 minutes 24.1 seconds.
 Elapsed time:       0 days  0 hours  0 minutes 14.0 seconds.
 File lengths (MBytes):  RWF=     35 Int=      0 D2E=      0 Chk=      4 Scr=      1
 Normal termination of Gaussian 16 at Sun Nov 20 17:26:07 2022.
