 Entering Gaussian System, Link 0=g16
 Input=_conf034.gjf
 Output=_conf034.log
 Initial command:
 /opt/ap/G16/B01/g16/l1.exe "/tmp2/scr/Gau-2640.inp" -scrdir="/tmp2/scr/"
 Entering Link 1 = /opt/ap/G16/B01/g16/l1.exe PID=      2641.
  
 Copyright (c) 1988-2017, Gaussian, Inc.  All Rights Reserved.
  
 This is part of the Gaussian(R) 16 program.  It is based on
 the Gaussian(R) 09 system (copyright 2009, Gaussian, Inc.),
 the Gaussian(R) 03 system (copyright 2003, Gaussian, Inc.),
 the Gaussian(R) 98 system (copyright 1998, Gaussian, Inc.),
 the Gaussian(R) 94 system (copyright 1995, Gaussian, Inc.),
 the Gaussian 92(TM) system (copyright 1992, Gaussian, Inc.),
 the Gaussian 90(TM) system (copyright 1990, Gaussian, Inc.),
 the Gaussian 88(TM) system (copyright 1988, Gaussian, Inc.),
 the Gaussian 86(TM) system (copyright 1986, Carnegie Mellon
 University), and the Gaussian 82(TM) system (copyright 1983,
 Carnegie Mellon University). Gaussian is a federally registered
 trademark of Gaussian, Inc.
  
 This software contains proprietary and confidential information,
 including trade secrets, belonging to Gaussian, Inc.
  
 This software is provided under written license and may be
 used, copied, transmitted, or stored only in accord with that
 written license.
  
 The following legend is applicable only to US Government
 contracts under FAR:
  
                    RESTRICTED RIGHTS LEGEND
  
 Use, reproduction and disclosure by the US Government is
 subject to restrictions as set forth in subparagraphs (a)
 and (c) of the Commercial Computer Software - Restricted
 Rights clause in FAR 52.227-19.
  
 Gaussian, Inc.
 340 Quinnipiac St., Bldg. 40, Wallingford CT 06492
  
  
 ---------------------------------------------------------------
 Warning -- This program may not be used in any manner that
 competes with the business of Gaussian, Inc. or will provide
 assistance to any competitor of Gaussian, Inc.  The licensee
 of this program is prohibited from giving any competitor of
 Gaussian, Inc. access to this program.  By using this program,
 the user acknowledges that Gaussian, Inc. is engaged in the
 business of creating and licensing software in the field of
 computational chemistry and represents and warrants to the
 licensee that it is not a competitor of Gaussian, Inc. and that
 it will not use this program in any manner prohibited above.
 ---------------------------------------------------------------
  

 Cite this work as:
 Gaussian 16, Revision B.01,
 M. J. Frisch, G. W. Trucks, H. B. Schlegel, G. E. Scuseria, 
 M. A. Robb, J. R. Cheeseman, G. Scalmani, V. Barone, 
 G. A. Petersson, H. Nakatsuji, X. Li, M. Caricato, A. V. Marenich, 
 J. Bloino, B. G. Janesko, R. Gomperts, B. Mennucci, H. P. Hratchian, 
 J. V. Ortiz, A. F. Izmaylov, J. L. Sonnenberg, D. Williams-Young, 
 F. Ding, F. Lipparini, F. Egidi, J. Goings, B. Peng, A. Petrone, 
 T. Henderson, D. Ranasinghe, V. G. Zakrzewski, J. Gao, N. Rega, 
 G. Zheng, W. Liang, M. Hada, M. Ehara, K. Toyota, R. Fukuda, 
 J. Hasegawa, M. Ishida, T. Nakajima, Y. Honda, O. Kitao, H. Nakai, 
 T. Vreven, K. Throssell, J. A. Montgomery, Jr., J. E. Peralta, 
 F. Ogliaro, M. J. Bearpark, J. J. Heyd, E. N. Brothers, K. N. Kudin, 
 V. N. Staroverov, T. A. Keith, R. Kobayashi, J. Normand, 
 K. Raghavachari, A. P. Rendell, J. C. Burant, S. S. Iyengar, 
 J. Tomasi, M. Cossi, J. M. Millam, M. Klene, C. Adamo, R. Cammi, 
 J. W. Ochterski, R. L. Martin, K. Morokuma, O. Farkas, 
 J. B. Foresman, and D. J. Fox, Gaussian, Inc., Wallingford CT, 2016.
 
 ******************************************
 Gaussian 16:  ES64L-G16RevB.01 20-Dec-2017
                20-Nov-2022 
 ******************************************
 %nprocshared=32
 Will use up to   32 processors via shared memory.
 %mem=120GB
 %chk=_conf034.chk
 ----------------------------------------
 #P wB97XD/6-311++G(d,p) scf=maxcycle=512
 ----------------------------------------
 1/38=1,172=1/1;
 2/12=2,17=6,18=5,40=1/2;
 3/5=4,6=6,7=1111,11=2,25=1,30=1,74=-58/1,2,3;
 4//1;
 5/5=2,7=512,38=5/2;
 6/7=2,8=2,9=2,10=2,28=1/1;
 99/5=1,9=1/99;
 Leave Link    1 at Sun Nov 20 17:27:32 2022, MaxMem= 16106127360 cpu:               2.3 elap:               0.1
 (Enter /opt/ap/G16/B01/g16/l101.exe)
 ----------------------------
 _conf034.gjf nmol_natom 1_15
 ----------------------------
 Symbolic Z-matrix:
 Charge =  0 Multiplicity = 1
 C
 C                    1     1.39016 
 C                    1     1.39195  2     119.89594 
 C                    2     1.38669  1     119.88076  3     0.70826  0
 H                    2     0.98744  1     119.71654  3    -179.90726  0
 C                    1     1.48429  2     119.93615  4    -179.87772  0
 C                    3     1.40101  1     119.72365  2    -0.26267  0
 H                    3     0.99022  1     119.18862  2     178.85398  0
 C                    4     1.37899  2     120.45786  1    -0.48041  0
 H                    4     0.98347  2     120.30443  1     179.36167  0
 O                    6     1.2746   1     118.00615  2    -1.25977  0
 O                    6     1.26363  1     118.77715  2     179.20604  0
 H                    7     0.98977  3     119.37862  1    -178.93546  0
 H                    9     0.99498  4     119.46723  2    -178.58827  0
 H                    11    0.8968   6     118.15824  1    -100.     0
 
 ITRead=  0  0  0  0  0  0  0  0  0  0  0  0  0  0  0
 MicOpt= -1 -1 -1 -1 -1 -1 -1 -1 -1 -1 -1 -1 -1 -1 -1
 NAtoms=     15 NQM=       15 NQMF=       0 NMMI=      0 NMMIF=      0
                NMic=       0 NMicF=      0.
                    Isotopes and Nuclear Properties:
 (Nuclear quadrupole moments (NQMom) in fm**2, nuclear magnetic moments (NMagM)
  in nuclear magnetons)

  Atom         1           2           3           4           5           6           7           8           9          10
 IAtWgt=          12          12          12          12           1          12          12           1          12           1
 AtmWgt=  12.0000000  12.0000000  12.0000000  12.0000000   1.0078250  12.0000000  12.0000000   1.0078250  12.0000000   1.0078250
 NucSpn=           0           0           0           0           1           0           0           1           0           1
 AtZEff=  -0.0000000  -0.0000000  -0.0000000  -0.0000000  -0.0000000  -0.0000000  -0.0000000  -0.0000000  -0.0000000  -0.0000000
 NQMom=    0.0000000   0.0000000   0.0000000   0.0000000   0.0000000   0.0000000   0.0000000   0.0000000   0.0000000   0.0000000
 NMagM=    0.0000000   0.0000000   0.0000000   0.0000000   2.7928460   0.0000000   0.0000000   2.7928460   0.0000000   2.7928460
 AtZNuc=   6.0000000   6.0000000   6.0000000   6.0000000   1.0000000   6.0000000   6.0000000   1.0000000   6.0000000   1.0000000

  Atom        11          12          13          14          15
 IAtWgt=          16          16           1           1           1
 AtmWgt=  15.9949146  15.9949146   1.0078250   1.0078250   1.0078250
 NucSpn=           0           0           1           1           1
 AtZEff=  -0.0000000  -0.0000000  -0.0000000  -0.0000000  -0.0000000
 NQMom=    0.0000000   0.0000000   0.0000000   0.0000000   0.0000000
 NMagM=    0.0000000   0.0000000   2.7928460   2.7928460   2.7928460
 AtZNuc=   8.0000000   8.0000000   1.0000000   1.0000000   1.0000000
 Leave Link  101 at Sun Nov 20 17:27:32 2022, MaxMem= 16106127360 cpu:               9.5 elap:               0.3
 (Enter /opt/ap/G16/B01/g16/l202.exe)
                          Input orientation:                          
 ---------------------------------------------------------------------
 Center     Atomic      Atomic             Coordinates (Angstroms)
 Number     Number       Type             X           Y           Z
 ---------------------------------------------------------------------
      1          6           0        0.000000    0.000000    0.000000
      2          6           0        0.000000    0.000000    1.390162
      3          6           0        1.206722    0.000000   -0.693782
      4          6           0        1.202258    0.014862    2.081006
      5          1           0       -0.857581   -0.001388    1.879646
      6          6           0       -1.286190   -0.013155   -0.740711
      7          6           0        2.415349    0.005578    0.014752
      8          1           0        1.194584   -0.017290   -1.683772
      9          6           0        2.400563    0.019708    1.398617
     10          1           0        1.209438    0.024411    3.064408
     11          8           0       -2.365984   -0.048941   -0.064425
     12          8           0       -1.260842    0.002453   -2.003986
     13          1           0        3.270315    0.021574   -0.483669
     14          1           0        3.254554    0.009066    1.909081
     15          1           0       -2.780900   -0.838488    0.028942
 ---------------------------------------------------------------------
                    Distance matrix (angstroms):
                    1          2          3          4          5
     1  C    0.000000
     2  C    1.390162   0.000000
     3  C    1.391945   2.408112   0.000000
     4  C    2.403379   1.386690   2.774832   0.000000
     5  H    2.066039   0.987443   3.299073   2.069721   0.000000
     6  C    1.484288   2.488991   2.493388   3.762345   2.655206
     7  C    2.415401   2.779513   1.401011   2.396056   3.766955
     8  H    2.064563   3.297939   0.990215   3.764924   4.112127
     9  C    2.778349   2.400659   2.409104   1.378990   3.293530
    10  H    3.294530   2.065535   3.758270   0.983474   2.382624
    11  O    2.367367   2.777786   3.628045   4.164047   2.461088
    12  O    2.367633   3.620769   2.793834   4.770133   3.904515
    13  H    3.305958   3.769173   2.074374   3.294611   4.756607
    14  H    3.773167   3.295676   3.311886   2.059493   4.112253
    15  H    2.904704   3.207707   4.138420   4.561219   2.797320
                    6          7          8          9         10
     6  C    0.000000
     7  C    3.777892   0.000000
     8  H    2.653982   2.091836   0.000000
     9  C    4.262622   1.384016   3.310118   0.000000
    10  H    4.550659   3.279477   4.748386   2.047842   0.000000
    11  O    1.274598   4.782299   3.911641   4.986499   4.751696
    12  O    1.263626   4.194007   2.476296   4.998389   5.638384
    13  H    4.563881   0.989771   2.398003   2.073517   4.103177
    14  H    5.257398   2.071897   4.141589   0.994981   2.348938
    15  H    1.872885   5.264376   4.405931   5.427713   5.087381
                   11         12         13         14         15
    11  O    0.000000
    12  O    2.232908   0.000000
    13  H    5.652309   4.779447   0.000000
    14  H    5.957225   5.975025   2.392834   0.000000
    15  H    0.896804   2.674052   6.133488   6.378085   0.000000
 Stoichiometry    C7H6O2
 Framework group  C1[X(C7H6O2)]
 Deg. of freedom    39
 Full point group                 C1      NOp   1
 Largest Abelian subgroup         C1      NOp   1
 Largest concise Abelian subgroup C1      NOp   1
                         Standard orientation:                         
 ---------------------------------------------------------------------
 Center     Atomic      Atomic             Coordinates (Angstroms)
 Number     Number       Type             X           Y           Z
 ---------------------------------------------------------------------
      1          6           0        0.229279    0.033557   -0.019294
      2          6           0       -0.432923   -1.188695   -0.031108
      3          6           0       -0.501034    1.217976    0.016849
      4          6           0       -1.819144   -1.223498   -0.021702
      5          1           0        0.087812   -2.027318   -0.055376
      6          6           0        1.713007    0.072282   -0.032087
      7          6           0       -1.901115    1.170471    0.035546
      8          1           0       -0.018472    2.082276    0.042242
      9          6           0       -2.547573   -0.053008    0.009289
     10          1           0       -2.294071   -2.084515   -0.039425
     11          8           0        2.340719   -1.037027   -0.029126
     12          8           0        2.292203    1.195342   -0.036318
     13          1           0       -2.415557    2.015990    0.045220
     14          1           0       -3.541260   -0.095498    0.036995
     15          1           0        2.675191   -1.331955    0.748951
 ---------------------------------------------------------------------
 Rotational constants (GHZ):           3.9267357           1.2470971           0.9487984
 Leave Link  202 at Sun Nov 20 17:27:32 2022, MaxMem= 16106127360 cpu:               0.2 elap:               0.0
 (Enter /opt/ap/G16/B01/g16/l301.exe)
 Standard basis: 6-311++G(d,p) (5D, 7F)
 Ernie: Thresh=  0.10000D-02 Tol=  0.10000D-05 Strict=F.
 There are   249 symmetry adapted cartesian basis functions of A   symmetry.
 There are   240 symmetry adapted basis functions of A   symmetry.
   240 basis functions,   378 primitive gaussians,   249 cartesian basis functions
    32 alpha electrons       32 beta electrons
       nuclear repulsion energy       409.8420815551 Hartrees.
 IExCor= 4639 DFT=T Ex+Corr=wB97XD ExCW=0 ScaHFX=  1.000000
 ScaDFX=  1.000000  1.000000  1.000000  1.000000 ScalE2=  1.000000  1.000000
 IRadAn=      5 IRanWt=     -1 IRanGd=            0 ICorTp=0 IEmpDi=121
 HFx  wShort=  0.000000 wLong=  0.200000 cFull=  0.222036 cShort=  0.000000 cLong=  0.777964
 DFx  wShort=  0.000000 wLong=  0.200000 cFull=  0.000000 cShort=  0.000000 cLong=  1.000000
 NAtoms=   15 NActive=   15 NUniq=   15 SFac= 1.00D+00 NAtFMM=   60 NAOKFM=F Big=F
 Integral buffers will be    131072 words long.
 Raffenetti 2 integral format.
 Two-electron integral symmetry is turned on.
 R6Disp:  Grimme-D2 Dispersion energy=       -0.0065439387 Hartrees.
 Nuclear repulsion after empirical dispersion term =      409.8355376163 Hartrees.
 Leave Link  301 at Sun Nov 20 17:27:32 2022, MaxMem= 16106127360 cpu:               1.1 elap:               0.0
 (Enter /opt/ap/G16/B01/g16/l302.exe)
 NPDir=0 NMtPBC=     1 NCelOv=     1 NCel=       1 NClECP=     1 NCelD=      1
         NCelK=      1 NCelE2=     1 NClLst=     1 CellRange=     0.0.
 One-electron integrals computed using PRISM.
 One-electron integral symmetry used in STVInt
 NBasis=   240 RedAO= T EigKep=  1.20D-06  NBF=   240
 NBsUse=   240 1.00D-06 EigRej= -1.00D+00 NBFU=   240
 Precomputing XC quadrature grid using
 IXCGrd= 4 IRadAn=           5 IRanWt=          -1 IRanGd=           0 AccXCQ= 0.00D+00.
 Generated NRdTot=       0 NPtTot=           0 NUsed=           0 NTot=          32
 NSgBfM=   249   249   249   249   249 MxSgAt=    15 MxSgA2=    15.
 Leave Link  302 at Sun Nov 20 17:27:32 2022, MaxMem= 16106127360 cpu:               5.3 elap:               0.2
 (Enter /opt/ap/G16/B01/g16/l303.exe)
 DipDrv:  MaxL=1.
 Leave Link  303 at Sun Nov 20 17:27:32 2022, MaxMem= 16106127360 cpu:               1.2 elap:               0.0
 (Enter /opt/ap/G16/B01/g16/l401.exe)
 ExpMin= 3.60D-02 ExpMax= 8.59D+03 ExpMxC= 1.30D+03 IAcc=3 IRadAn=         5 AccDes= 0.00D+00
 Harris functional with IExCor= 4639 and IRadAn=       5 diagonalized for initial guess.
 HarFok:  IExCor= 4639 AccDes= 0.00D+00 IRadAn=         5 IDoV= 1 UseB2=F ITyADJ=14
 ICtDFT=  3500011 ScaDFX=  1.000000  1.000000  1.000000  1.000000
 FoFCou: FMM=F IPFlag=           0 FMFlag=      100000 FMFlg1=           0
         NFxFlg=           0 DoJE=T BraDBF=F KetDBF=T FulRan=T
         wScrn=  0.000000 ICntrl=       500 IOpCl=  0 I1Cent=   200000004 NGrid=           0
         NMat0=    1 NMatS0=      1 NMatT0=    0 NMatD0=    1 NMtDS0=    0 NMtDT0=    0
 Petite list used in FoFCou.
 Harris En= -403.238517044217    
 JPrj=0 DoOrth=F DoCkMO=F.
 Leave Link  401 at Sun Nov 20 17:27:33 2022, MaxMem= 16106127360 cpu:              34.7 elap:               1.1
 (Enter /opt/ap/G16/B01/g16/l502.exe)
 Integral symmetry usage will be decided dynamically.
 Closed shell SCF:
 Using DIIS extrapolation, IDIIS=  1040.
 NGot= 16106127360 LenX= 16105992971 LenY= 16105930529
 Requested convergence on RMS density matrix=1.00D-08 within 512 cycles.
 Requested convergence on MAX density matrix=1.00D-06.
 Requested convergence on             energy=1.00D-06.
 No special actions if energy rises.
 Fock matrices will be formed incrementally for  20 cycles.

 Cycle   1  Pass 1  IDiag  1:
 FoFJK:  IHMeth= 1 ICntrl=       0 DoSepK=T KAlg= 0 I1Cent=           0 FoldK=F
 IRaf=         1 NMat=       1 IRICut=       1 DoRegI=T DoRafI=F ISym2E= 0 IDoP0=0 IntGTp=1.
 FoFCou: FMM=F IPFlag=           0 FMFlag=      100000 FMFlg1=           0
         NFxFlg=           0 DoJE=T BraDBF=F KetDBF=F FulRan=T
         wScrn=  0.000000 ICntrl=       500 IOpCl=  0 I1Cent=           0 NGrid=           0
         NMat0=    1 NMatS0=      1 NMatT0=    0 NMatD0=    1 NMtDS0=    0 NMtDT0=    0
 Symmetry not used in FoFCou.
 E= -420.616602748752    
 DIIS: error= 5.50D-02 at cycle   1 NSaved=   1.
 NSaved= 1 IEnMin= 1 EnMin= -420.616602748752     IErMin= 1 ErrMin= 5.50D-02
 ErrMax= 5.50D-02  0.00D+00 EMaxC= 1.00D-01 BMatC= 8.57D-01 BMatP= 8.57D-01
 IDIUse=3 WtCom= 4.50D-01 WtEn= 5.50D-01
 Coeff-Com:  0.100D+01
 Coeff-En:   0.100D+01
 Coeff:      0.100D+01
 Gap=     0.423 Goal=   None    Shift=    0.000
 GapD=    0.423 DampG=2.000 DampE=0.500 DampFc=1.0000 IDamp=-1.
 RMSDP=2.94D-02 MaxDP=1.81D+00              OVMax= 1.06D-01

 Cycle   2  Pass 1  IDiag  1:
 RMSU=  1.49D-02    CP:  6.58D-01
 E= -420.690547453571     Delta-E=       -0.073944704819 Rises=F Damp=F
 DIIS: error= 9.74D-03 at cycle   2 NSaved=   2.
 NSaved= 2 IEnMin= 2 EnMin= -420.690547453571     IErMin= 2 ErrMin= 9.74D-03
 ErrMax= 9.74D-03  0.00D+00 EMaxC= 1.00D-01 BMatC= 4.61D-02 BMatP= 8.57D-01
 IDIUse=3 WtCom= 9.03D-01 WtEn= 9.74D-02
 Coeff-Com:  0.122D+00 0.878D+00
 Coeff-En:   0.211D-01 0.979D+00
 Coeff:      0.113D+00 0.887D+00
 Gap=     0.421 Goal=   None    Shift=    0.000
 RMSDP=8.08D-03 MaxDP=5.14D-01 DE=-7.39D-02 OVMax= 7.91D-02

 Cycle   3  Pass 1  IDiag  1:
 RMSU=  6.20D-03    CP:  6.33D-01  6.78D-01
 E= -420.707899014224     Delta-E=       -0.017351560653 Rises=F Damp=F
 DIIS: error= 8.17D-03 at cycle   3 NSaved=   3.
 NSaved= 3 IEnMin= 3 EnMin= -420.707899014224     IErMin= 3 ErrMin= 8.17D-03
 ErrMax= 8.17D-03  0.00D+00 EMaxC= 1.00D-01 BMatC= 2.36D-02 BMatP= 4.61D-02
 IDIUse=3 WtCom= 9.18D-01 WtEn= 8.17D-02
 Coeff-Com:  0.231D-01 0.425D+00 0.552D+00
 Coeff-En:   0.000D+00 0.336D+00 0.664D+00
 Coeff:      0.212D-01 0.418D+00 0.561D+00
 Gap=     0.360 Goal=   None    Shift=    0.000
 RMSDP=3.86D-03 MaxDP=2.81D-01 DE=-1.74D-02 OVMax= 3.24D-02

 Cycle   4  Pass 1  IDiag  1:
 RMSU=  1.24D-03    CP:  6.17D-01  8.50D-01  6.26D-01
 E= -420.727275363404     Delta-E=       -0.019376349180 Rises=F Damp=F
 DIIS: error= 1.26D-03 at cycle   4 NSaved=   4.
 NSaved= 4 IEnMin= 4 EnMin= -420.727275363404     IErMin= 4 ErrMin= 1.26D-03
 ErrMax= 1.26D-03  0.00D+00 EMaxC= 1.00D-01 BMatC= 7.22D-04 BMatP= 2.36D-02
 IDIUse=3 WtCom= 9.87D-01 WtEn= 1.26D-02
 Coeff-Com:  0.938D-02 0.203D+00 0.291D+00 0.497D+00
 Coeff-En:   0.000D+00 0.000D+00 0.000D+00 0.100D+01
 Coeff:      0.926D-02 0.200D+00 0.287D+00 0.503D+00
 Gap=     0.342 Goal=   None    Shift=    0.000
 RMSDP=7.69D-04 MaxDP=5.71D-02 DE=-1.94D-02 OVMax= 7.06D-03

 Cycle   5  Pass 1  IDiag  1:
 RMSU=  5.60D-04    CP:  6.13D-01  8.39D-01  6.70D-01  8.22D-01
 E= -420.727774875981     Delta-E=       -0.000499512578 Rises=F Damp=F
 DIIS: error= 4.34D-04 at cycle   5 NSaved=   5.
 NSaved= 5 IEnMin= 5 EnMin= -420.727774875981     IErMin= 5 ErrMin= 4.34D-04
 ErrMax= 4.34D-04  0.00D+00 EMaxC= 1.00D-01 BMatC= 5.13D-05 BMatP= 7.22D-04
 IDIUse=3 WtCom= 9.96D-01 WtEn= 4.34D-03
 Coeff-Com:  0.765D-04 0.975D-02 0.240D-01 0.209D+00 0.757D+00
 Coeff-En:   0.000D+00 0.000D+00 0.000D+00 0.000D+00 0.100D+01
 Coeff:      0.762D-04 0.971D-02 0.239D-01 0.208D+00 0.758D+00
 Gap=     0.342 Goal=   None    Shift=    0.000
 RMSDP=1.99D-04 MaxDP=1.10D-02 DE=-5.00D-04 OVMax= 2.17D-03

 Cycle   6  Pass 1  IDiag  1:
 RMSU=  1.21D-04    CP:  6.11D-01  8.41D-01  6.87D-01  8.46D-01  1.05D+00
 E= -420.727814634316     Delta-E=       -0.000039758334 Rises=F Damp=F
 DIIS: error= 1.55D-04 at cycle   6 NSaved=   6.
 NSaved= 6 IEnMin= 6 EnMin= -420.727814634316     IErMin= 6 ErrMin= 1.55D-04
 ErrMax= 1.55D-04  0.00D+00 EMaxC= 1.00D-01 BMatC= 7.43D-06 BMatP= 5.13D-05
 IDIUse=3 WtCom= 9.98D-01 WtEn= 1.55D-03
 Coeff-Com: -0.103D-02-0.182D-01-0.210D-01 0.358D-01 0.354D+00 0.650D+00
 Coeff-En:   0.000D+00 0.000D+00 0.000D+00 0.000D+00 0.000D+00 0.100D+01
 Coeff:     -0.103D-02-0.182D-01-0.210D-01 0.357D-01 0.354D+00 0.651D+00
 Gap=     0.342 Goal=   None    Shift=    0.000
 RMSDP=1.51D-04 MaxDP=1.16D-02 DE=-3.98D-05 OVMax= 8.05D-04

 Cycle   7  Pass 1  IDiag  1:
 RMSU=  4.06D-05    CP:  6.10D-01  8.39D-01  6.97D-01  8.63D-01  1.15D+00
                    CP:  1.05D+00
 E= -420.727821570127     Delta-E=       -0.000006935812 Rises=F Damp=F
 DIIS: error= 7.21D-05 at cycle   7 NSaved=   7.
 NSaved= 7 IEnMin= 7 EnMin= -420.727821570127     IErMin= 7 ErrMin= 7.21D-05
 ErrMax= 7.21D-05  0.00D+00 EMaxC= 1.00D-01 BMatC= 3.06D-07 BMatP= 7.43D-06
 IDIUse=1 WtCom= 1.00D+00 WtEn= 0.00D+00
 Coeff-Com: -0.281D-03-0.635D-02-0.844D-02-0.148D-01 0.217D-01 0.155D+00
 Coeff-Com:  0.853D+00
 Coeff:     -0.281D-03-0.635D-02-0.844D-02-0.148D-01 0.217D-01 0.155D+00
 Coeff:      0.853D+00
 Gap=     0.342 Goal=   None    Shift=    0.000
 RMSDP=3.79D-05 MaxDP=2.18D-03 DE=-6.94D-06 OVMax= 3.68D-04

 Cycle   8  Pass 1  IDiag  1:
 RMSU=  1.02D-05    CP:  6.09D-01  8.39D-01  6.99D-01  8.66D-01  1.20D+00
                    CP:  1.10D+00  1.07D+00
 E= -420.727822140289     Delta-E=       -0.000000570162 Rises=F Damp=F
 DIIS: error= 1.62D-05 at cycle   8 NSaved=   8.
 NSaved= 8 IEnMin= 8 EnMin= -420.727822140289     IErMin= 8 ErrMin= 1.62D-05
 ErrMax= 1.62D-05  0.00D+00 EMaxC= 1.00D-01 BMatC= 4.93D-08 BMatP= 3.06D-07
 IDIUse=1 WtCom= 1.00D+00 WtEn= 0.00D+00
 Coeff-Com:  0.148D-04-0.115D-03-0.507D-03-0.999D-02-0.331D-01-0.276D-01
 Coeff-Com:  0.279D+00 0.793D+00
 Coeff:      0.148D-04-0.115D-03-0.507D-03-0.999D-02-0.331D-01-0.276D-01
 Coeff:      0.279D+00 0.793D+00
 Gap=     0.342 Goal=   None    Shift=    0.000
 RMSDP=1.34D-05 MaxDP=8.05D-04 DE=-5.70D-07 OVMax= 1.36D-04

 Cycle   9  Pass 1  IDiag  1:
 RMSU=  5.98D-06    CP:  6.09D-01  8.39D-01  7.00D-01  8.65D-01  1.22D+00
                    CP:  1.12D+00  1.12D+00  1.13D+00
 E= -420.727822220756     Delta-E=       -0.000000080467 Rises=F Damp=F
 DIIS: error= 9.29D-06 at cycle   9 NSaved=   9.
 NSaved= 9 IEnMin= 9 EnMin= -420.727822220756     IErMin= 9 ErrMin= 9.29D-06
 ErrMax= 9.29D-06  0.00D+00 EMaxC= 1.00D-01 BMatC= 6.52D-09 BMatP= 4.93D-08
 IDIUse=1 WtCom= 1.00D+00 WtEn= 0.00D+00
 Coeff-Com:  0.421D-04 0.805D-03 0.914D-03-0.172D-02-0.130D-01-0.314D-01
 Coeff-Com: -0.972D-02 0.275D+00 0.779D+00
 Coeff:      0.421D-04 0.805D-03 0.914D-03-0.172D-02-0.130D-01-0.314D-01
 Coeff:     -0.972D-02 0.275D+00 0.779D+00
 Gap=     0.342 Goal=   None    Shift=    0.000
 RMSDP=4.87D-06 MaxDP=2.55D-04 DE=-8.05D-08 OVMax= 5.17D-05

 Cycle  10  Pass 1  IDiag  1:
 RMSU=  1.81D-06    CP:  6.09D-01  8.39D-01  7.00D-01  8.63D-01  1.22D+00
                    CP:  1.13D+00  1.13D+00  1.21D+00  1.21D+00
 E= -420.727822230265     Delta-E=       -0.000000009509 Rises=F Damp=F
 DIIS: error= 1.19D-06 at cycle  10 NSaved=  10.
 NSaved=10 IEnMin=10 EnMin= -420.727822230265     IErMin=10 ErrMin= 1.19D-06
 ErrMax= 1.19D-06  0.00D+00 EMaxC= 1.00D-01 BMatC= 7.38D-10 BMatP= 6.52D-09
 IDIUse=1 WtCom= 1.00D+00 WtEn= 0.00D+00
 Coeff-Com:  0.101D-04 0.213D-03 0.258D-03 0.404D-03 0.304D-03-0.686D-02
 Coeff-Com: -0.292D-01-0.570D-02 0.239D+00 0.802D+00
 Coeff:      0.101D-04 0.213D-03 0.258D-03 0.404D-03 0.304D-03-0.686D-02
 Coeff:     -0.292D-01-0.570D-02 0.239D+00 0.802D+00
 Gap=     0.342 Goal=   None    Shift=    0.000
 RMSDP=1.69D-06 MaxDP=1.20D-04 DE=-9.51D-09 OVMax= 1.30D-05

 Cycle  11  Pass 1  IDiag  1:
 RMSU=  5.74D-07    CP:  6.09D-01  8.39D-01  7.00D-01  8.63D-01  1.22D+00
                    CP:  1.12D+00  1.13D+00  1.24D+00  1.33D+00  1.17D+00
 E= -420.727822231329     Delta-E=       -0.000000001064 Rises=F Damp=F
 DIIS: error= 5.46D-07 at cycle  11 NSaved=  11.
 NSaved=11 IEnMin=11 EnMin= -420.727822231329     IErMin=11 ErrMin= 5.46D-07
 ErrMax= 5.46D-07  0.00D+00 EMaxC= 1.00D-01 BMatC= 9.02D-11 BMatP= 7.38D-10
 IDIUse=1 WtCom= 1.00D+00 WtEn= 0.00D+00
 Coeff-Com: -0.190D-05-0.195D-04-0.160D-04 0.375D-03 0.192D-02 0.121D-02
 Coeff-Com: -0.765D-02-0.408D-01-0.285D-01 0.248D+00 0.826D+00
 Coeff:     -0.190D-05-0.195D-04-0.160D-04 0.375D-03 0.192D-02 0.121D-02
 Coeff:     -0.765D-02-0.408D-01-0.285D-01 0.248D+00 0.826D+00
 Gap=     0.342 Goal=   None    Shift=    0.000
 RMSDP=6.88D-07 MaxDP=4.31D-05 DE=-1.06D-09 OVMax= 6.47D-06

 Cycle  12  Pass 1  IDiag  1:
 RMSU=  1.65D-07    CP:  6.09D-01  8.39D-01  7.00D-01  8.63D-01  1.22D+00
                    CP:  1.12D+00  1.13D+00  1.24D+00  1.37D+00  1.32D+00
                    CP:  1.26D+00
 E= -420.727822231473     Delta-E=       -0.000000000144 Rises=F Damp=F
 DIIS: error= 2.03D-07 at cycle  12 NSaved=  12.
 NSaved=12 IEnMin=12 EnMin= -420.727822231473     IErMin=12 ErrMin= 2.03D-07
 ErrMax= 2.03D-07  0.00D+00 EMaxC= 1.00D-01 BMatC= 8.17D-12 BMatP= 9.02D-11
 IDIUse=1 WtCom= 1.00D+00 WtEn= 0.00D+00
 Coeff-Com: -0.121D-05-0.199D-04-0.221D-04 0.777D-04 0.518D-03 0.674D-03
 Coeff-Com:  0.567D-03-0.106D-01-0.254D-01 0.727D-02 0.234D+00 0.793D+00
 Coeff:     -0.121D-05-0.199D-04-0.221D-04 0.777D-04 0.518D-03 0.674D-03
 Coeff:      0.567D-03-0.106D-01-0.254D-01 0.727D-02 0.234D+00 0.793D+00
 Gap=     0.342 Goal=   None    Shift=    0.000
 RMSDP=1.27D-07 MaxDP=6.77D-06 DE=-1.44D-10 OVMax= 2.75D-06

 Cycle  13  Pass 1  IDiag  1:
 RMSU=  5.00D-08    CP:  6.09D-01  8.39D-01  7.00D-01  8.63D-01  1.22D+00
                    CP:  1.12D+00  1.13D+00  1.24D+00  1.38D+00  1.34D+00
                    CP:  1.34D+00  1.13D+00
 E= -420.727822231494     Delta-E=       -0.000000000021 Rises=F Damp=F
 DIIS: error= 7.37D-08 at cycle  13 NSaved=  13.
 NSaved=13 IEnMin=13 EnMin= -420.727822231494     IErMin=13 ErrMin= 7.37D-08
 ErrMax= 7.37D-08  0.00D+00 EMaxC= 1.00D-01 BMatC= 1.18D-12 BMatP= 8.17D-12
 IDIUse=1 WtCom= 1.00D+00 WtEn= 0.00D+00
 Coeff-Com:  0.730D-07-0.289D-05-0.538D-05-0.547D-04-0.243D-03-0.123D-03
 Coeff-Com:  0.166D-02 0.520D-02-0.451D-03-0.453D-01-0.109D+00 0.137D+00
 Coeff-Com:  0.101D+01
 Coeff:      0.730D-07-0.289D-05-0.538D-05-0.547D-04-0.243D-03-0.123D-03
 Coeff:      0.166D-02 0.520D-02-0.451D-03-0.453D-01-0.109D+00 0.137D+00
 Coeff:      0.101D+01
 Gap=     0.342 Goal=   None    Shift=    0.000
 RMSDP=7.07D-08 MaxDP=4.25D-06 DE=-2.11D-11 OVMax= 2.24D-06

 Cycle  14  Pass 1  IDiag  1:
 RMSU=  2.43D-08    CP:  6.09D-01  8.39D-01  7.00D-01  8.63D-01  1.22D+00
                    CP:  1.12D+00  1.13D+00  1.24D+00  1.38D+00  1.35D+00
                    CP:  1.41D+00  1.28D+00  1.26D+00
 E= -420.727822231498     Delta-E=       -0.000000000004 Rises=F Damp=F
 DIIS: error= 4.28D-08 at cycle  14 NSaved=  14.
 NSaved=14 IEnMin=14 EnMin= -420.727822231498     IErMin=14 ErrMin= 4.28D-08
 ErrMax= 4.28D-08  0.00D+00 EMaxC= 1.00D-01 BMatC= 1.46D-13 BMatP= 1.18D-12
 IDIUse=1 WtCom= 1.00D+00 WtEn= 0.00D+00
 Coeff-Com:  0.128D-06 0.224D-05 0.245D-05-0.123D-04-0.807D-04-0.743D-04
 Coeff-Com:  0.579D-04 0.161D-02 0.266D-02-0.471D-02-0.317D-01-0.856D-01
 Coeff-Com:  0.614D-01 0.106D+01
 Coeff:      0.128D-06 0.224D-05 0.245D-05-0.123D-04-0.807D-04-0.743D-04
 Coeff:      0.579D-04 0.161D-02 0.266D-02-0.471D-02-0.317D-01-0.856D-01
 Coeff:      0.614D-01 0.106D+01
 Gap=     0.342 Goal=   None    Shift=    0.000
 RMSDP=1.86D-08 MaxDP=6.58D-07 DE=-4.09D-12 OVMax= 1.00D-06

 Cycle  15  Pass 1  IDiag  1:
 RMSU=  1.00D-08    CP:  6.09D-01  8.39D-01  7.00D-01  8.63D-01  1.22D+00
                    CP:  1.12D+00  1.13D+00  1.24D+00  1.38D+00  1.35D+00
                    CP:  1.41D+00  1.28D+00  1.40D+00  1.37D+00
 E= -420.727822231503     Delta-E=       -0.000000000004 Rises=F Damp=F
 DIIS: error= 1.77D-08 at cycle  15 NSaved=  15.
 NSaved=15 IEnMin=15 EnMin= -420.727822231503     IErMin=15 ErrMin= 1.77D-08
 ErrMax= 1.77D-08  0.00D+00 EMaxC= 1.00D-01 BMatC= 4.47D-14 BMatP= 1.46D-13
 IDIUse=1 WtCom= 1.00D+00 WtEn= 0.00D+00
 Coeff-Com:  0.272D-07 0.132D-05 0.193D-05 0.624D-05 0.176D-04 0.708D-05
 Coeff-Com: -0.306D-03-0.407D-03 0.949D-03 0.718D-02 0.107D-01-0.545D-01
 Coeff-Com: -0.183D+00 0.376D+00 0.843D+00
 Coeff:      0.272D-07 0.132D-05 0.193D-05 0.624D-05 0.176D-04 0.708D-05
 Coeff:     -0.306D-03-0.407D-03 0.949D-03 0.718D-02 0.107D-01-0.545D-01
 Coeff:     -0.183D+00 0.376D+00 0.843D+00
 Gap=     0.342 Goal=   None    Shift=    0.000
 RMSDP=9.97D-09 MaxDP=5.34D-07 DE=-4.21D-12 OVMax= 4.01D-07

 SCF Done:  E(RwB97XD) =  -420.727822232     A.U. after   15 cycles
            NFock= 15  Conv=0.10D-07     -V/T= 2.0014
 KE= 4.201524764906D+02 PE=-1.803171623179D+03 EE= 5.524557868404D+02
 Leave Link  502 at Sun Nov 20 17:27:46 2022, MaxMem= 16106127360 cpu:             412.8 elap:              13.0
 (Enter /opt/ap/G16/B01/g16/l601.exe)
 Copying SCF densities to generalized density rwf, IOpCl= 0 IROHF=0.

 **********************************************************************

            Population analysis using the SCF Density.

 **********************************************************************

 Orbital symmetries:
       Occupied  (A) (A) (A) (A) (A) (A) (A) (A) (A) (A) (A) (A)
                 (A) (A) (A) (A) (A) (A) (A) (A) (A) (A) (A) (A)
                 (A) (A) (A) (A) (A) (A) (A) (A)
       Virtual   (A) (A) (A) (A) (A) (A) (A) (A) (A) (A) (A) (A)
                 (A) (A) (A) (A) (A) (A) (A) (A) (A) (A) (A) (A)
                 (A) (A) (A) (A) (A) (A) (A) (A) (A) (A) (A) (A)
                 (A) (A) (A) (A) (A) (A) (A) (A) (A) (A) (A) (A)
                 (A) (A) (A) (A) (A) (A) (A) (A) (A) (A) (A) (A)
                 (A) (A) (A) (A) (A) (A) (A) (A) (A) (A) (A) (A)
                 (A) (A) (A) (A) (A) (A) (A) (A) (A) (A) (A) (A)
                 (A) (A) (A) (A) (A) (A) (A) (A) (A) (A) (A) (A)
                 (A) (A) (A) (A) (A) (A) (A) (A) (A) (A) (A) (A)
                 (A) (A) (A) (A) (A) (A) (A) (A) (A) (A) (A) (A)
                 (A) (A) (A) (A) (A) (A) (A) (A) (A) (A) (A) (A)
                 (A) (A) (A) (A) (A) (A) (A) (A) (A) (A) (A) (A)
                 (A) (A) (A) (A) (A) (A) (A) (A) (A) (A) (A) (A)
                 (A) (A) (A) (A) (A) (A) (A) (A) (A) (A) (A) (A)
                 (A) (A) (A) (A) (A) (A) (A) (A) (A) (A) (A) (A)
                 (A) (A) (A) (A) (A) (A) (A) (A) (A) (A) (A) (A)
                 (A) (A) (A) (A) (A) (A) (A) (A) (A) (A) (A) (A)
                 (A) (A) (A) (A)
 The electronic state is 1-A.
 Alpha  occ. eigenvalues --  -19.29978 -19.23544 -10.43229 -10.30936 -10.29586
 Alpha  occ. eigenvalues --  -10.29438 -10.29427 -10.29190 -10.28987  -1.24961
 Alpha  occ. eigenvalues --   -1.10993  -0.98234  -0.88712  -0.87227  -0.79628
 Alpha  occ. eigenvalues --   -0.73638  -0.72630  -0.66531  -0.61386  -0.58262
 Alpha  occ. eigenvalues --   -0.56858  -0.56170  -0.53801  -0.53705  -0.48122
 Alpha  occ. eigenvalues --   -0.47208  -0.45366  -0.43493  -0.42214  -0.36277
 Alpha  occ. eigenvalues --   -0.34874  -0.34511
 Alpha virt. eigenvalues --   -0.00297   0.03371   0.04027   0.04410   0.05203
 Alpha virt. eigenvalues --    0.06514   0.07741   0.08777   0.09969   0.10523
 Alpha virt. eigenvalues --    0.11642   0.12874   0.13253   0.13957   0.14405
 Alpha virt. eigenvalues --    0.15919   0.16265   0.16912   0.17124   0.17787
 Alpha virt. eigenvalues --    0.18222   0.19028   0.19857   0.19966   0.20370
 Alpha virt. eigenvalues --    0.21108   0.21353   0.21839   0.23060   0.24200
 Alpha virt. eigenvalues --    0.25350   0.25888   0.26550   0.27386   0.27766
 Alpha virt. eigenvalues --    0.29628   0.29910   0.30572   0.30935   0.32295
 Alpha virt. eigenvalues --    0.32661   0.34440   0.35329   0.35421   0.36088
 Alpha virt. eigenvalues --    0.37219   0.37478   0.38570   0.39391   0.40574
 Alpha virt. eigenvalues --    0.41385   0.41847   0.42499   0.43876   0.46552
 Alpha virt. eigenvalues --    0.47223   0.49384   0.53981   0.54715   0.57881
 Alpha virt. eigenvalues --    0.58897   0.60345   0.61834   0.63080   0.63730
 Alpha virt. eigenvalues --    0.64189   0.64906   0.66185   0.66974   0.69415
 Alpha virt. eigenvalues --    0.70689   0.73853   0.73903   0.74124   0.76343
 Alpha virt. eigenvalues --    0.76730   0.81030   0.82440   0.83832   0.86126
 Alpha virt. eigenvalues --    0.88337   0.90578   0.92533   0.93560   0.94678
 Alpha virt. eigenvalues --    0.96101   0.96342   0.97952   0.99772   1.00377
 Alpha virt. eigenvalues --    1.03324   1.05905   1.08117   1.09707   1.10681
 Alpha virt. eigenvalues --    1.14027   1.15291   1.16155   1.16620   1.19234
 Alpha virt. eigenvalues --    1.21103   1.22053   1.24697   1.28970   1.29484
 Alpha virt. eigenvalues --    1.34835   1.41826   1.44024   1.47171   1.50387
 Alpha virt. eigenvalues --    1.56626   1.59126   1.60359   1.60963   1.62067
 Alpha virt. eigenvalues --    1.63028   1.66742   1.66893   1.70285   1.74137
 Alpha virt. eigenvalues --    1.74851   1.76192   1.81470   1.83491   1.85466
 Alpha virt. eigenvalues --    1.88314   1.88571   1.91582   1.92533   1.99883
 Alpha virt. eigenvalues --    2.00135   2.01962   2.02832   2.04078   2.04744
 Alpha virt. eigenvalues --    2.08036   2.09246   2.16048   2.17751   2.20614
 Alpha virt. eigenvalues --    2.22807   2.25115   2.29454   2.42770   2.46031
 Alpha virt. eigenvalues --    2.51416   2.52296   2.54277   2.58030   2.65777
 Alpha virt. eigenvalues --    2.70165   2.72454   2.75993   2.78392   2.81402
 Alpha virt. eigenvalues --    2.81598   2.83544   2.88171   2.89733   2.90345
 Alpha virt. eigenvalues --    2.90466   2.91640   2.95996   2.99391   2.99844
 Alpha virt. eigenvalues --    3.02426   3.05428   3.06298   3.17018   3.18507
 Alpha virt. eigenvalues --    3.18677   3.21886   3.27340   3.32036   3.41093
 Alpha virt. eigenvalues --    3.43585   3.46693   3.49246   3.52894   3.63405
 Alpha virt. eigenvalues --    3.66394   3.68422   3.73454   3.84398   3.87968
 Alpha virt. eigenvalues --    3.94769   4.18350   4.28587   4.30536   4.36800
 Alpha virt. eigenvalues --    4.40660   4.45048   4.94801   5.15546   5.20244
 Alpha virt. eigenvalues --    5.30193   5.44272   5.81556   6.08108  23.83791
 Alpha virt. eigenvalues --   23.95581  24.14054  24.21161  24.28202  24.30199
 Alpha virt. eigenvalues --   24.41614  50.05148  50.16583
          Condensed to atoms (all electrons):
               1          2          3          4          5          6
     1  C    9.886328  -2.401270  -2.247340   1.637898  -0.051532  -1.570248
     2  C   -2.401270  14.331355  -1.296714  -4.161159   0.597539  -0.287706
     3  C   -2.247340  -1.296714  13.719745  -0.448805  -0.041235  -0.444231
     4  C    1.637898  -4.161159  -0.448805   8.432716  -0.090315  -0.306069
     5  H   -0.051532   0.597539  -0.041235  -0.090315   0.483353  -0.071083
     6  C   -1.570248  -0.287706  -0.444231  -0.306069  -0.071083   7.705668
     7  C    1.263039  -0.500891  -4.346521   0.907008   0.021160   0.047621
     8  H   -0.074254   0.012050   0.571913  -0.006570  -0.000835  -0.033094
     9  C   -1.300324   0.909312   1.402201  -0.544267   0.006682   0.111852
    10  H    0.029521  -0.095871   0.013107   0.419202  -0.009132   0.004519
    11  O   -0.224976  -0.158402   0.021596   0.058502  -0.020687   0.334113
    12  O   -0.193677  -0.050383  -0.102443   0.051385  -0.003976   0.566314
    13  H    0.037334   0.024493  -0.147903  -0.008405   0.000897   0.003680
    14  H    0.008568  -0.007676   0.021757  -0.039910  -0.000330  -0.004659
    15  H   -0.024110  -0.008354  -0.006022  -0.009419  -0.005863   0.044595
               7          8          9         10         11         12
     1  C    1.263039  -0.074254  -1.300324   0.029521  -0.224976  -0.193677
     2  C   -0.500891   0.012050   0.909312  -0.095871  -0.158402  -0.050383
     3  C   -4.346521   0.571913   1.402201   0.013107   0.021596  -0.102443
     4  C    0.907008  -0.006570  -0.544267   0.419202   0.058502   0.051385
     5  H    0.021160  -0.000835   0.006682  -0.009132  -0.020687  -0.003976
     6  C    0.047621  -0.033094   0.111852   0.004519   0.334113   0.566314
     7  C    9.032464  -0.125719  -0.873769  -0.007879   0.042897   0.136722
     8  H   -0.125719   0.432925   0.021564   0.000675  -0.002000  -0.004243
     9  C   -0.873769   0.021564   6.412256  -0.029745  -0.016265  -0.017823
    10  H   -0.007879   0.000675  -0.029745   0.469277   0.002139   0.000463
    11  O    0.042897  -0.002000  -0.016265   0.002139   7.962568  -0.112274
    12  O    0.136722  -0.004243  -0.017823   0.000463  -0.112274   8.018172
    13  H    0.453496  -0.009007  -0.025935  -0.001525   0.000530   0.001517
    14  H   -0.044319   0.000509   0.420971  -0.005606  -0.000110  -0.000247
    15  H    0.007206  -0.000536  -0.002673   0.000076   0.331948   0.002127
              13         14         15
     1  C    0.037334   0.008568  -0.024110
     2  C    0.024493  -0.007676  -0.008354
     3  C   -0.147903   0.021757  -0.006022
     4  C   -0.008405  -0.039910  -0.009419
     5  H    0.000897  -0.000330  -0.005863
     6  C    0.003680  -0.004659   0.044595
     7  C    0.453496  -0.044319   0.007206
     8  H   -0.009007   0.000509  -0.000536
     9  C   -0.025935   0.420971  -0.002673
    10  H   -0.001525  -0.005606   0.000076
    11  O    0.000530  -0.000110   0.331948
    12  O    0.001517  -0.000247   0.002127
    13  H    0.462543  -0.005722   0.000077
    14  H   -0.005722   0.468607  -0.000055
    15  H    0.000077  -0.000055   0.344688
 Mulliken charges:
               1
     1  C    1.225043
     2  C   -0.906325
     3  C   -0.669105
     4  C    0.108206
     5  H    0.185355
     6  C   -0.101272
     7  C   -0.012515
     8  H    0.216623
     9  C   -0.474038
    10  H    0.210779
    11  O   -0.219580
    12  O   -0.291635
    13  H    0.213929
    14  H    0.188221
    15  H    0.326314
 Sum of Mulliken charges =  -0.00000
 Mulliken charges with hydrogens summed into heavy atoms:
               1
     1  C    1.225043
     2  C   -0.720970
     3  C   -0.452483
     4  C    0.318986
     6  C   -0.101272
     7  C    0.201414
     9  C   -0.285817
    11  O    0.106734
    12  O   -0.291635
 Electronic spatial extent (au):  <R**2>=           1153.8652
 Charge=             -0.0000 electrons
 Dipole moment (field-independent basis, Debye):
    X=             -2.4386    Y=             -2.5339    Z=              1.4836  Tot=              3.8169
 Quadrupole moment (field-independent basis, Debye-Ang):
   XX=            -50.3266   YY=            -48.3405   ZZ=            -52.5836
   XY=             -7.7134   XZ=              4.4134   YZ=             -2.0592
 Traceless Quadrupole moment (field-independent basis, Debye-Ang):
   XX=              0.0903   YY=              2.0764   ZZ=             -2.1667
   XY=             -7.7134   XZ=              4.4134   YZ=             -2.0592
 Octapole moment (field-independent basis, Debye-Ang**2):
  XXX=            -12.6552  YYY=             -6.6082  ZZZ=              1.5459  XYY=             -4.2936
  XXY=            -21.2968  XXZ=             12.9862  XZZ=             15.0993  YZZ=             -2.2512
  YYZ=              3.5336  XYZ=             -6.5514
 Hexadecapole moment (field-independent basis, Debye-Ang**3):
 XXXX=          -1000.6274 YYYY=           -355.7087 ZZZZ=            -58.5986 XXXY=            -61.8200
 XXXZ=             35.9263 YYYX=            -21.9343 YYYZ=             -4.7153 ZZZX=              5.2085
 ZZZY=             -3.0861 XXYY=           -228.7483 XXZZ=           -182.6549 YYZZ=            -76.6034
 XXYZ=            -17.5336 YYXZ=             10.2442 ZZXY=             -6.7448
 N-N= 4.098355376163D+02 E-N=-1.803171623397D+03  KE= 4.201524764906D+02
 No NMR shielding tensors so no spin-rotation constants.
 Leave Link  601 at Sun Nov 20 17:27:47 2022, MaxMem= 16106127360 cpu:               3.3 elap:               0.1
 (Enter /opt/ap/G16/B01/g16/l9999.exe)
 1\1\GINC-N05\SP\RwB97XD\6-311++G(d,p)\C7H6O2\ROOT\20-Nov-2022\0\\#P wB
 97XD/6-311++G(d,p) scf=maxcycle=512\\_conf034.gjf nmol_natom 1_15\\0,1
 \C\C,1,1.39016191\C,1,1.39194539,2,119.895942\C,2,1.38669027,1,119.880
 75721,3,0.70825972,0\H,2,0.98744251,1,119.71654057,3,-179.90726164,0\C
 ,1,1.48428757,2,119.93615286,4,-179.87772406,0\C,3,1.40101108,1,119.72
 36454,2,-0.26266839,0\H,3,0.9902154,1,119.1886159,2,178.85397616,0\C,4
 ,1.37899003,2,120.45785903,1,-0.48041454,0\H,4,0.9834739,2,120.3044270
 6,1,179.36166981,0\O,6,1.27459751,1,118.00615353,2,-1.25976832,0\O,6,1
 .26362572,1,118.77715367,2,179.20603801,0\H,7,0.98977053,3,119.3786157
 8,1,-178.93545741,0\H,9,0.99498061,4,119.46722635,2,-178.58826714,0\H,
 11,0.89680392,6,118.15823763,1,-100.,0\\Version=ES64L-G16RevB.01\State
 =1-A\HF=-420.7278222\RMSD=9.974e-09\Dipole=0.3834553,-0.5855643,1.3285
 639\Quadrupole=5.0191436,-1.4277137,-3.5914299,3.8124155,-3.7243375,0.
 1404662\PG=C01 [X(C7H6O2)]\\@


 NOTHING MAKES A PERSON MORE PRODUCTIVE THAN THE LAST MINUTE.
 Job cpu time:       0 days  0 hours  7 minutes 52.1 seconds.
 Elapsed time:       0 days  0 hours  0 minutes 14.9 seconds.
 File lengths (MBytes):  RWF=     35 Int=      0 D2E=      0 Chk=      4 Scr=      1
 Normal termination of Gaussian 16 at Sun Nov 20 17:27:47 2022.
