 Entering Gaussian System, Link 0=g16
 Input=_conf018.gjf
 Output=_conf018.log
 Initial command:
 /opt/ap/G16/B01/g16/l1.exe "/tmp2/scr/Gau-1363.inp" -scrdir="/tmp2/scr/"
 Entering Link 1 = /opt/ap/G16/B01/g16/l1.exe PID=      1364.
  
 Copyright (c) 1988-2017, Gaussian, Inc.  All Rights Reserved.
  
 This is part of the Gaussian(R) 16 program.  It is based on
 the Gaussian(R) 09 system (copyright 2009, Gaussian, Inc.),
 the Gaussian(R) 03 system (copyright 2003, Gaussian, Inc.),
 the Gaussian(R) 98 system (copyright 1998, Gaussian, Inc.),
 the Gaussian(R) 94 system (copyright 1995, Gaussian, Inc.),
 the Gaussian 92(TM) system (copyright 1992, Gaussian, Inc.),
 the Gaussian 90(TM) system (copyright 1990, Gaussian, Inc.),
 the Gaussian 88(TM) system (copyright 1988, Gaussian, Inc.),
 the Gaussian 86(TM) system (copyright 1986, Carnegie Mellon
 University), and the Gaussian 82(TM) system (copyright 1983,
 Carnegie Mellon University). Gaussian is a federally registered
 trademark of Gaussian, Inc.
  
 This software contains proprietary and confidential information,
 including trade secrets, belonging to Gaussian, Inc.
  
 This software is provided under written license and may be
 used, copied, transmitted, or stored only in accord with that
 written license.
  
 The following legend is applicable only to US Government
 contracts under FAR:
  
                    RESTRICTED RIGHTS LEGEND
  
 Use, reproduction and disclosure by the US Government is
 subject to restrictions as set forth in subparagraphs (a)
 and (c) of the Commercial Computer Software - Restricted
 Rights clause in FAR 52.227-19.
  
 Gaussian, Inc.
 340 Quinnipiac St., Bldg. 40, Wallingford CT 06492
  
  
 ---------------------------------------------------------------
 Warning -- This program may not be used in any manner that
 competes with the business of Gaussian, Inc. or will provide
 assistance to any competitor of Gaussian, Inc.  The licensee
 of this program is prohibited from giving any competitor of
 Gaussian, Inc. access to this program.  By using this program,
 the user acknowledges that Gaussian, Inc. is engaged in the
 business of creating and licensing software in the field of
 computational chemistry and represents and warrants to the
 licensee that it is not a competitor of Gaussian, Inc. and that
 it will not use this program in any manner prohibited above.
 ---------------------------------------------------------------
  

 Cite this work as:
 Gaussian 16, Revision B.01,
 M. J. Frisch, G. W. Trucks, H. B. Schlegel, G. E. Scuseria, 
 M. A. Robb, J. R. Cheeseman, G. Scalmani, V. Barone, 
 G. A. Petersson, H. Nakatsuji, X. Li, M. Caricato, A. V. Marenich, 
 J. Bloino, B. G. Janesko, R. Gomperts, B. Mennucci, H. P. Hratchian, 
 J. V. Ortiz, A. F. Izmaylov, J. L. Sonnenberg, D. Williams-Young, 
 F. Ding, F. Lipparini, F. Egidi, J. Goings, B. Peng, A. Petrone, 
 T. Henderson, D. Ranasinghe, V. G. Zakrzewski, J. Gao, N. Rega, 
 G. Zheng, W. Liang, M. Hada, M. Ehara, K. Toyota, R. Fukuda, 
 J. Hasegawa, M. Ishida, T. Nakajima, Y. Honda, O. Kitao, H. Nakai, 
 T. Vreven, K. Throssell, J. A. Montgomery, Jr., J. E. Peralta, 
 F. Ogliaro, M. J. Bearpark, J. J. Heyd, E. N. Brothers, K. N. Kudin, 
 V. N. Staroverov, T. A. Keith, R. Kobayashi, J. Normand, 
 K. Raghavachari, A. P. Rendell, J. C. Burant, S. S. Iyengar, 
 J. Tomasi, M. Cossi, J. M. Millam, M. Klene, C. Adamo, R. Cammi, 
 J. W. Ochterski, R. L. Martin, K. Morokuma, O. Farkas, 
 J. B. Foresman, and D. J. Fox, Gaussian, Inc., Wallingford CT, 2016.
 
 ******************************************
 Gaussian 16:  ES64L-G16RevB.01 20-Dec-2017
                20-Nov-2022 
 ******************************************
 %nprocshared=32
 Will use up to   32 processors via shared memory.
 %mem=120GB
 %chk=_conf018.chk
 ----------------------------------------
 #P wB97XD/6-311++G(d,p) scf=maxcycle=512
 ----------------------------------------
 1/38=1,172=1/1;
 2/12=2,17=6,18=5,40=1/2;
 3/5=4,6=6,7=1111,11=2,25=1,30=1,74=-58/1,2,3;
 4//1;
 5/5=2,7=512,38=5/2;
 6/7=2,8=2,9=2,10=2,28=1/1;
 99/5=1,9=1/99;
 Leave Link    1 at Sun Nov 20 17:26:36 2022, MaxMem= 16106127360 cpu:               1.8 elap:               0.1
 (Enter /opt/ap/G16/B01/g16/l101.exe)
 ----------------------------
 _conf018.gjf nmol_natom 1_15
 ----------------------------
 Symbolic Z-matrix:
 Charge =  0 Multiplicity = 1
 C
 C                    1     1.39016 
 C                    1     1.39195  2     119.89594 
 C                    2     1.38669  1     119.88076  3     0.70826  0
 H                    2     0.98744  1     119.71654  3    -179.90726  0
 C                    1     1.48429  2     119.93615  4    -179.87772  0
 C                    3     1.40101  1     119.72365  2    -0.26267  0
 H                    3     0.99022  1     119.18862  2     178.85398  0
 C                    4     1.37899  2     120.45786  1    -0.48041  0
 H                    4     0.98347  2     120.30443  1     179.36167  0
 O                    6     1.2746   1     118.00615  2    -1.25977  0
 O                    6     1.26363  1     118.77715  2     179.20604  0
 H                    7     0.98977  3     119.37862  1    -178.93546  0
 H                    9     0.99498  4     119.46723  2    -178.58827  0
 H                    11    0.8968   6     118.15824  1    -180.     0
 
 ITRead=  0  0  0  0  0  0  0  0  0  0  0  0  0  0  0
 MicOpt= -1 -1 -1 -1 -1 -1 -1 -1 -1 -1 -1 -1 -1 -1 -1
 NAtoms=     15 NQM=       15 NQMF=       0 NMMI=      0 NMMIF=      0
                NMic=       0 NMicF=      0.
                    Isotopes and Nuclear Properties:
 (Nuclear quadrupole moments (NQMom) in fm**2, nuclear magnetic moments (NMagM)
  in nuclear magnetons)

  Atom         1           2           3           4           5           6           7           8           9          10
 IAtWgt=          12          12          12          12           1          12          12           1          12           1
 AtmWgt=  12.0000000  12.0000000  12.0000000  12.0000000   1.0078250  12.0000000  12.0000000   1.0078250  12.0000000   1.0078250
 NucSpn=           0           0           0           0           1           0           0           1           0           1
 AtZEff=  -0.0000000  -0.0000000  -0.0000000  -0.0000000  -0.0000000  -0.0000000  -0.0000000  -0.0000000  -0.0000000  -0.0000000
 NQMom=    0.0000000   0.0000000   0.0000000   0.0000000   0.0000000   0.0000000   0.0000000   0.0000000   0.0000000   0.0000000
 NMagM=    0.0000000   0.0000000   0.0000000   0.0000000   2.7928460   0.0000000   0.0000000   2.7928460   0.0000000   2.7928460
 AtZNuc=   6.0000000   6.0000000   6.0000000   6.0000000   1.0000000   6.0000000   6.0000000   1.0000000   6.0000000   1.0000000

  Atom        11          12          13          14          15
 IAtWgt=          16          16           1           1           1
 AtmWgt=  15.9949146  15.9949146   1.0078250   1.0078250   1.0078250
 NucSpn=           0           0           1           1           1
 AtZEff=  -0.0000000  -0.0000000  -0.0000000  -0.0000000  -0.0000000
 NQMom=    0.0000000   0.0000000   0.0000000   0.0000000   0.0000000
 NMagM=    0.0000000   0.0000000   2.7928460   2.7928460   2.7928460
 AtZNuc=   8.0000000   8.0000000   1.0000000   1.0000000   1.0000000
 Leave Link  101 at Sun Nov 20 17:26:36 2022, MaxMem= 16106127360 cpu:               5.1 elap:               0.2
 (Enter /opt/ap/G16/B01/g16/l202.exe)
                          Input orientation:                          
 ---------------------------------------------------------------------
 Center     Atomic      Atomic             Coordinates (Angstroms)
 Number     Number       Type             X           Y           Z
 ---------------------------------------------------------------------
      1          6           0        0.000000    0.000000    0.000000
      2          6           0        0.000000    0.000000    1.390162
      3          6           0        1.206722    0.000000   -0.693782
      4          6           0        1.202258    0.014862    2.081006
      5          1           0       -0.857581   -0.001388    1.879646
      6          6           0       -1.286190   -0.013155   -0.740711
      7          6           0        2.415349    0.005578    0.014752
      8          1           0        1.194584   -0.017290   -1.683772
      9          6           0        2.400563    0.019708    1.398617
     10          1           0        1.209438    0.024411    3.064408
     11          8           0       -2.365984   -0.048941   -0.064425
     12          8           0       -1.260842    0.002453   -2.003986
     13          1           0        3.270315    0.021574   -0.483669
     14          1           0        3.254554    0.009066    1.909081
     15          1           0       -3.144282   -0.056953   -0.509897
 ---------------------------------------------------------------------
                    Distance matrix (angstroms):
                    1          2          3          4          5
     1  C    0.000000
     2  C    1.390162   0.000000
     3  C    1.391945   2.408112   0.000000
     4  C    2.403379   1.386690   2.774832   0.000000
     5  H    2.066039   0.987443   3.299073   2.069721   0.000000
     6  C    1.484288   2.488991   2.493388   3.762345   2.655206
     7  C    2.415401   2.779513   1.401011   2.396056   3.766955
     8  H    2.064563   3.297939   0.990215   3.764924   4.112127
     9  C    2.778349   2.400659   2.409104   1.378990   3.293530
    10  H    3.294530   2.065535   3.758270   0.983474   2.382624
    11  O    2.367367   2.777786   3.628045   4.164047   2.461088
    12  O    2.367633   3.620769   2.793834   4.770133   3.904515
    13  H    3.305958   3.769173   2.074374   3.294611   4.756607
    14  H    3.773167   3.295676   3.311886   2.059493   4.112253
    15  H    3.185866   3.674231   4.355260   5.060666   3.307870
                    6          7          8          9         10
     6  C    0.000000
     7  C    3.777892   0.000000
     8  H    2.653982   2.091836   0.000000
     9  C    4.262622   1.384016   3.310118   0.000000
    10  H    4.550659   3.279477   4.748386   2.047842   0.000000
    11  O    1.274598   4.782299   3.911641   4.986499   4.751696
    12  O    1.263626   4.194007   2.476296   4.998389   5.638384
    13  H    4.563881   0.989771   2.398003   2.073517   4.103177
    14  H    5.257398   2.071897   4.141589   0.994981   2.348938
    15  H    1.872885   5.584681   4.495032   5.864606   5.633574
                   11         12         13         14         15
    11  O    0.000000
    12  O    2.232908   0.000000
    13  H    5.652309   4.779447   0.000000
    14  H    5.957225   5.975025   2.392834   0.000000
    15  H    0.896804   2.404824   6.415131   6.841119   0.000000
 Stoichiometry    C7H6O2
 Framework group  C1[X(C7H6O2)]
 Deg. of freedom    39
 Full point group                 C1      NOp   1
 Largest Abelian subgroup         C1      NOp   1
 Largest concise Abelian subgroup C1      NOp   1
                         Standard orientation:                         
 ---------------------------------------------------------------------
 Center     Atomic      Atomic             Coordinates (Angstroms)
 Number     Number       Type             X           Y           Z
 ---------------------------------------------------------------------
      1          6           0        0.220604    0.028158   -0.005311
      2          6           0       -0.443606   -1.193060   -0.005932
      3          6           0       -0.507935    1.214158    0.006823
      4          6           0       -1.829913   -1.225474   -0.009322
      5          1           0        0.075861   -2.032790   -0.013166
      6          6           0        1.704452    0.064287   -0.004429
      7          6           0       -1.908212    1.169200    0.012772
      8          1           0       -0.024117    2.077950    0.024436
      9          6           0       -2.556543   -0.053480   -0.002121
     10          1           0       -2.306164   -2.085885   -0.019239
     11          8           0        2.330153   -1.045883    0.020472
     12          8           0        2.285639    1.186229   -0.019223
     13          1           0       -2.421233    2.015604    0.005377
     14          1           0       -3.550522   -0.093953    0.016661
     15          1           0        3.226746   -1.026433    0.021057
 ---------------------------------------------------------------------
 Rotational constants (GHZ):           3.9689753           1.2388362           0.9442085
 Leave Link  202 at Sun Nov 20 17:26:36 2022, MaxMem= 16106127360 cpu:               0.3 elap:               0.0
 (Enter /opt/ap/G16/B01/g16/l301.exe)
 Standard basis: 6-311++G(d,p) (5D, 7F)
 Ernie: Thresh=  0.10000D-02 Tol=  0.10000D-05 Strict=F.
 There are   249 symmetry adapted cartesian basis functions of A   symmetry.
 There are   240 symmetry adapted basis functions of A   symmetry.
   240 basis functions,   378 primitive gaussians,   249 cartesian basis functions
    32 alpha electrons       32 beta electrons
       nuclear repulsion energy       409.5610388422 Hartrees.
 IExCor= 4639 DFT=T Ex+Corr=wB97XD ExCW=0 ScaHFX=  1.000000
 ScaDFX=  1.000000  1.000000  1.000000  1.000000 ScalE2=  1.000000  1.000000
 IRadAn=      5 IRanWt=     -1 IRanGd=            0 ICorTp=0 IEmpDi=121
 HFx  wShort=  0.000000 wLong=  0.200000 cFull=  0.222036 cShort=  0.000000 cLong=  0.777964
 DFx  wShort=  0.000000 wLong=  0.200000 cFull=  0.000000 cShort=  0.000000 cLong=  1.000000
 NAtoms=   15 NActive=   15 NUniq=   15 SFac= 1.00D+00 NAtFMM=   60 NAOKFM=F Big=F
 Integral buffers will be    131072 words long.
 Raffenetti 2 integral format.
 Two-electron integral symmetry is turned on.
 R6Disp:  Grimme-D2 Dispersion energy=       -0.0063255142 Hartrees.
 Nuclear repulsion after empirical dispersion term =      409.5547133280 Hartrees.
 Leave Link  301 at Sun Nov 20 17:26:36 2022, MaxMem= 16106127360 cpu:               1.2 elap:               0.0
 (Enter /opt/ap/G16/B01/g16/l302.exe)
 NPDir=0 NMtPBC=     1 NCelOv=     1 NCel=       1 NClECP=     1 NCelD=      1
         NCelK=      1 NCelE2=     1 NClLst=     1 CellRange=     0.0.
 One-electron integrals computed using PRISM.
 One-electron integral symmetry used in STVInt
 NBasis=   240 RedAO= T EigKep=  1.21D-06  NBF=   240
 NBsUse=   240 1.00D-06 EigRej= -1.00D+00 NBFU=   240
 Precomputing XC quadrature grid using
 IXCGrd= 4 IRadAn=           5 IRanWt=          -1 IRanGd=           0 AccXCQ= 0.00D+00.
 Generated NRdTot=       0 NPtTot=           0 NUsed=           0 NTot=          32
 NSgBfM=   249   249   249   249   249 MxSgAt=    15 MxSgA2=    15.
 Leave Link  302 at Sun Nov 20 17:26:36 2022, MaxMem= 16106127360 cpu:               5.3 elap:               0.2
 (Enter /opt/ap/G16/B01/g16/l303.exe)
 DipDrv:  MaxL=1.
 Leave Link  303 at Sun Nov 20 17:26:36 2022, MaxMem= 16106127360 cpu:               1.2 elap:               0.0
 (Enter /opt/ap/G16/B01/g16/l401.exe)
 ExpMin= 3.60D-02 ExpMax= 8.59D+03 ExpMxC= 1.30D+03 IAcc=3 IRadAn=         5 AccDes= 0.00D+00
 Harris functional with IExCor= 4639 and IRadAn=       5 diagonalized for initial guess.
 HarFok:  IExCor= 4639 AccDes= 0.00D+00 IRadAn=         5 IDoV= 1 UseB2=F ITyADJ=14
 ICtDFT=  3500011 ScaDFX=  1.000000  1.000000  1.000000  1.000000
 FoFCou: FMM=F IPFlag=           0 FMFlag=      100000 FMFlg1=           0
         NFxFlg=           0 DoJE=T BraDBF=F KetDBF=T FulRan=T
         wScrn=  0.000000 ICntrl=       500 IOpCl=  0 I1Cent=   200000004 NGrid=           0
         NMat0=    1 NMatS0=      1 NMatT0=    0 NMatD0=    1 NMtDS0=    0 NMtDT0=    0
 Petite list used in FoFCou.
 Harris En= -403.254925353112    
 JPrj=0 DoOrth=F DoCkMO=F.
 Leave Link  401 at Sun Nov 20 17:26:36 2022, MaxMem= 16106127360 cpu:              11.6 elap:               0.4
 (Enter /opt/ap/G16/B01/g16/l502.exe)
 Integral symmetry usage will be decided dynamically.
 Closed shell SCF:
 Using DIIS extrapolation, IDIIS=  1040.
 NGot= 16106127360 LenX= 16105992971 LenY= 16105930529
 Requested convergence on RMS density matrix=1.00D-08 within 512 cycles.
 Requested convergence on MAX density matrix=1.00D-06.
 Requested convergence on             energy=1.00D-06.
 No special actions if energy rises.
 Fock matrices will be formed incrementally for  20 cycles.

 Cycle   1  Pass 1  IDiag  1:
 FoFJK:  IHMeth= 1 ICntrl=       0 DoSepK=T KAlg= 0 I1Cent=           0 FoldK=F
 IRaf=         1 NMat=       1 IRICut=       1 DoRegI=T DoRafI=F ISym2E= 0 IDoP0=0 IntGTp=1.
 FoFCou: FMM=F IPFlag=           0 FMFlag=      100000 FMFlg1=           0
         NFxFlg=           0 DoJE=T BraDBF=F KetDBF=F FulRan=T
         wScrn=  0.000000 ICntrl=       500 IOpCl=  0 I1Cent=           0 NGrid=           0
         NMat0=    1 NMatS0=      1 NMatT0=    0 NMatD0=    1 NMtDS0=    0 NMtDT0=    0
 Symmetry not used in FoFCou.
 E= -420.632700642217    
 DIIS: error= 8.24D-02 at cycle   1 NSaved=   1.
 NSaved= 1 IEnMin= 1 EnMin= -420.632700642217     IErMin= 1 ErrMin= 8.24D-02
 ErrMax= 8.24D-02  0.00D+00 EMaxC= 1.00D-01 BMatC= 8.61D-01 BMatP= 8.61D-01
 IDIUse=3 WtCom= 1.76D-01 WtEn= 8.24D-01
 Coeff-Com:  0.100D+01
 Coeff-En:   0.100D+01
 Coeff:      0.100D+01
 Gap=     0.427 Goal=   None    Shift=    0.000
 GapD=    0.427 DampG=2.000 DampE=0.500 DampFc=1.0000 IDamp=-1.
 RMSDP=3.38D-02 MaxDP=3.04D+00              OVMax= 1.11D-01

 Cycle   2  Pass 1  IDiag  1:
 RMSU=  1.44D-02    CP:  6.68D-01
 E= -420.703490917570     Delta-E=       -0.070790275352 Rises=F Damp=F
 DIIS: error= 1.70D-02 at cycle   2 NSaved=   2.
 NSaved= 2 IEnMin= 2 EnMin= -420.703490917570     IErMin= 2 ErrMin= 1.70D-02
 ErrMax= 1.70D-02  0.00D+00 EMaxC= 1.00D-01 BMatC= 5.75D-02 BMatP= 8.61D-01
 IDIUse=3 WtCom= 8.30D-01 WtEn= 1.70D-01
 Coeff-Com:  0.136D+00 0.864D+00
 Coeff-En:   0.995D-01 0.900D+00
 Coeff:      0.130D+00 0.870D+00
 Gap=     0.424 Goal=   None    Shift=    0.000
 RMSDP=7.14D-03 MaxDP=2.97D-01 DE=-7.08D-02 OVMax= 7.82D-02

 Cycle   3  Pass 1  IDiag  1:
 RMSU=  6.73D-03    CP:  6.66D-01  8.34D-01
 E= -420.719666156747     Delta-E=       -0.016175239177 Rises=F Damp=F
 DIIS: error= 1.78D-02 at cycle   3 NSaved=   3.
 NSaved= 3 IEnMin= 3 EnMin= -420.719666156747     IErMin= 2 ErrMin= 1.70D-02
 ErrMax= 1.78D-02  0.00D+00 EMaxC= 1.00D-01 BMatC= 3.62D-02 BMatP= 5.75D-02
 IDIUse=3 WtCom= 8.22D-01 WtEn= 1.78D-01
 Coeff-Com:  0.276D-01 0.448D+00 0.525D+00
 Coeff-En:   0.000D+00 0.384D+00 0.616D+00
 Coeff:      0.227D-01 0.436D+00 0.541D+00
 Gap=     0.360 Goal=   None    Shift=    0.000
 RMSDP=4.38D-03 MaxDP=4.35D-01 DE=-1.62D-02 OVMax= 5.44D-02

 Cycle   4  Pass 1  IDiag  1:
 RMSU=  2.16D-03    CP:  6.38D-01  9.04D-01  6.08D-01
 E= -420.745890250345     Delta-E=       -0.026224093598 Rises=F Damp=F
 DIIS: error= 3.43D-03 at cycle   4 NSaved=   4.
 NSaved= 4 IEnMin= 4 EnMin= -420.745890250345     IErMin= 4 ErrMin= 3.43D-03
 ErrMax= 3.43D-03  0.00D+00 EMaxC= 1.00D-01 BMatC= 2.01D-03 BMatP= 3.62D-02
 IDIUse=3 WtCom= 9.66D-01 WtEn= 3.43D-02
 Coeff-Com:  0.105D-01 0.222D+00 0.306D+00 0.462D+00
 Coeff-En:   0.000D+00 0.000D+00 0.000D+00 0.100D+01
 Coeff:      0.101D-01 0.214D+00 0.296D+00 0.480D+00
 Gap=     0.350 Goal=   None    Shift=    0.000
 RMSDP=9.56D-04 MaxDP=5.52D-02 DE=-2.62D-02 OVMax= 1.28D-02

 Cycle   5  Pass 1  IDiag  1:
 RMSU=  7.23D-04    CP:  6.36D-01  8.90D-01  6.74D-01  8.33D-01
 E= -420.747241618482     Delta-E=       -0.001351368137 Rises=F Damp=F
 DIIS: error= 6.66D-04 at cycle   5 NSaved=   5.
 NSaved= 5 IEnMin= 5 EnMin= -420.747241618482     IErMin= 5 ErrMin= 6.66D-04
 ErrMax= 6.66D-04  0.00D+00 EMaxC= 1.00D-01 BMatC= 5.70D-05 BMatP= 2.01D-03
 IDIUse=3 WtCom= 9.93D-01 WtEn= 6.66D-03
 Coeff-Com:  0.308D-03 0.153D-01 0.305D-01 0.158D+00 0.796D+00
 Coeff-En:   0.000D+00 0.000D+00 0.000D+00 0.000D+00 0.100D+01
 Coeff:      0.306D-03 0.152D-01 0.303D-01 0.157D+00 0.797D+00
 Gap=     0.350 Goal=   None    Shift=    0.000
 RMSDP=2.39D-04 MaxDP=1.48D-02 DE=-1.35D-03 OVMax= 2.64D-03

 Cycle   6  Pass 1  IDiag  1:
 RMSU=  1.22D-04    CP:  6.35D-01  8.94D-01  6.86D-01  8.64D-01  9.88D-01
 E= -420.747285146089     Delta-E=       -0.000043527607 Rises=F Damp=F
 DIIS: error= 2.17D-04 at cycle   6 NSaved=   6.
 NSaved= 6 IEnMin= 6 EnMin= -420.747285146089     IErMin= 6 ErrMin= 2.17D-04
 ErrMax= 2.17D-04  0.00D+00 EMaxC= 1.00D-01 BMatC= 7.46D-06 BMatP= 5.70D-05
 IDIUse=3 WtCom= 9.98D-01 WtEn= 2.17D-03
 Coeff-Com: -0.963D-03-0.165D-01-0.180D-01 0.168D-01 0.346D+00 0.673D+00
 Coeff-En:   0.000D+00 0.000D+00 0.000D+00 0.000D+00 0.000D+00 0.100D+01
 Coeff:     -0.961D-03-0.165D-01-0.179D-01 0.167D-01 0.345D+00 0.674D+00
 Gap=     0.350 Goal=   None    Shift=    0.000
 RMSDP=1.91D-04 MaxDP=1.89D-02 DE=-4.35D-05 OVMax= 8.57D-04

 Cycle   7  Pass 1  IDiag  1:
 RMSU=  6.10D-05    CP:  6.33D-01  8.92D-01  6.95D-01  8.76D-01  1.06D+00
                    CP:  1.13D+00
 E= -420.747292349122     Delta-E=       -0.000007203033 Rises=F Damp=F
 DIIS: error= 6.76D-05 at cycle   7 NSaved=   7.
 NSaved= 7 IEnMin= 7 EnMin= -420.747292349122     IErMin= 7 ErrMin= 6.76D-05
 ErrMax= 6.76D-05  0.00D+00 EMaxC= 1.00D-01 BMatC= 3.10D-07 BMatP= 7.46D-06
 IDIUse=1 WtCom= 1.00D+00 WtEn= 0.00D+00
 Coeff-Com: -0.234D-03-0.544D-02-0.683D-02-0.134D-01-0.253D-03 0.134D+00
 Coeff-Com:  0.892D+00
 Coeff:     -0.234D-03-0.544D-02-0.683D-02-0.134D-01-0.253D-03 0.134D+00
 Coeff:      0.892D+00
 Gap=     0.350 Goal=   None    Shift=    0.000
 RMSDP=4.58D-05 MaxDP=3.44D-03 DE=-7.20D-06 OVMax= 3.11D-04

 Cycle   8  Pass 1  IDiag  1:
 RMSU=  1.42D-05    CP:  6.33D-01  8.92D-01  6.98D-01  8.78D-01  1.09D+00
                    CP:  1.16D+00  1.05D+00
 E= -420.747292916805     Delta-E=       -0.000000567684 Rises=F Damp=F
 DIIS: error= 1.54D-05 at cycle   8 NSaved=   8.
 NSaved= 8 IEnMin= 8 EnMin= -420.747292916805     IErMin= 8 ErrMin= 1.54D-05
 ErrMax= 1.54D-05  0.00D+00 EMaxC= 1.00D-01 BMatC= 4.09D-08 BMatP= 3.10D-07
 IDIUse=1 WtCom= 1.00D+00 WtEn= 0.00D+00
 Coeff-Com:  0.308D-04 0.262D-03 0.144D-03-0.600D-02-0.373D-01-0.372D-01
 Coeff-Com:  0.241D+00 0.839D+00
 Coeff:      0.308D-04 0.262D-03 0.144D-03-0.600D-02-0.373D-01-0.372D-01
 Coeff:      0.241D+00 0.839D+00
 Gap=     0.350 Goal=   None    Shift=    0.000
 RMSDP=1.36D-05 MaxDP=7.10D-04 DE=-5.68D-07 OVMax= 1.16D-04

 Cycle   9  Pass 1  IDiag  1:
 RMSU=  4.68D-06    CP:  6.33D-01  8.92D-01  6.99D-01  8.75D-01  1.10D+00
                    CP:  1.19D+00  1.13D+00  1.18D+00
 E= -420.747292987932     Delta-E=       -0.000000071127 Rises=F Damp=F
 DIIS: error= 1.03D-05 at cycle   9 NSaved=   9.
 NSaved= 9 IEnMin= 9 EnMin= -420.747292987932     IErMin= 9 ErrMin= 1.03D-05
 ErrMax= 1.03D-05  0.00D+00 EMaxC= 1.00D-01 BMatC= 4.55D-09 BMatP= 4.09D-08
 IDIUse=1 WtCom= 1.00D+00 WtEn= 0.00D+00
 Coeff-Com:  0.362D-04 0.692D-03 0.846D-03-0.360D-03-0.996D-02-0.262D-01
 Coeff-Com: -0.279D-01 0.245D+00 0.818D+00
 Coeff:      0.362D-04 0.692D-03 0.846D-03-0.360D-03-0.996D-02-0.262D-01
 Coeff:     -0.279D-01 0.245D+00 0.818D+00
 Gap=     0.350 Goal=   None    Shift=    0.000
 RMSDP=5.34D-06 MaxDP=3.41D-04 DE=-7.11D-08 OVMax= 4.95D-05

 Cycle  10  Pass 1  IDiag  1:
 RMSU=  1.58D-06    CP:  6.33D-01  8.92D-01  6.99D-01  8.73D-01  1.11D+00
                    CP:  1.19D+00  1.15D+00  1.28D+00  1.27D+00
 E= -420.747292995998     Delta-E=       -0.000000008066 Rises=F Damp=F
 DIIS: error= 1.59D-06 at cycle  10 NSaved=  10.
 NSaved=10 IEnMin=10 EnMin= -420.747292995998     IErMin=10 ErrMin= 1.59D-06
 ErrMax= 1.59D-06  0.00D+00 EMaxC= 1.00D-01 BMatC= 5.51D-10 BMatP= 4.55D-09
 IDIUse=1 WtCom= 1.00D+00 WtEn= 0.00D+00
 Coeff-Com:  0.609D-05 0.137D-03 0.193D-03 0.427D-03 0.137D-02-0.361D-02
 Coeff-Com: -0.299D-01-0.280D-01 0.221D+00 0.839D+00
 Coeff:      0.609D-05 0.137D-03 0.193D-03 0.427D-03 0.137D-02-0.361D-02
 Coeff:     -0.299D-01-0.280D-01 0.221D+00 0.839D+00
 Gap=     0.350 Goal=   None    Shift=    0.000
 RMSDP=1.79D-06 MaxDP=9.53D-05 DE=-8.07D-09 OVMax= 1.33D-05

 Cycle  11  Pass 1  IDiag  1:
 RMSU=  4.04D-07    CP:  6.33D-01  8.92D-01  6.99D-01  8.73D-01  1.11D+00
                    CP:  1.19D+00  1.16D+00  1.32D+00  1.39D+00  1.25D+00
 E= -420.747292996882     Delta-E=       -0.000000000884 Rises=F Damp=F
 DIIS: error= 1.02D-06 at cycle  11 NSaved=  11.
 NSaved=11 IEnMin=11 EnMin= -420.747292996882     IErMin=11 ErrMin= 1.02D-06
 ErrMax= 1.02D-06  0.00D+00 EMaxC= 1.00D-01 BMatC= 9.88D-11 BMatP= 5.51D-10
 IDIUse=1 WtCom= 1.00D+00 WtEn= 0.00D+00
 Coeff-Com: -0.146D-05-0.109D-04 0.185D-05 0.250D-03 0.185D-02 0.131D-02
 Coeff-Com: -0.826D-02-0.453D-01-0.132D-01 0.338D+00 0.725D+00
 Coeff:     -0.146D-05-0.109D-04 0.185D-05 0.250D-03 0.185D-02 0.131D-02
 Coeff:     -0.826D-02-0.453D-01-0.132D-01 0.338D+00 0.725D+00
 Gap=     0.350 Goal=   None    Shift=    0.000
 RMSDP=6.67D-07 MaxDP=3.87D-05 DE=-8.84D-10 OVMax= 6.99D-06

 Cycle  12  Pass 1  IDiag  1:
 RMSU=  2.27D-07    CP:  6.33D-01  8.92D-01  6.99D-01  8.73D-01  1.11D+00
                    CP:  1.19D+00  1.16D+00  1.33D+00  1.44D+00  1.38D+00
                    CP:  1.10D+00
 E= -420.747292997014     Delta-E=       -0.000000000131 Rises=F Damp=F
 DIIS: error= 2.51D-07 at cycle  12 NSaved=  12.
 NSaved=12 IEnMin=12 EnMin= -420.747292997014     IErMin=12 ErrMin= 2.51D-07
 ErrMax= 2.51D-07  0.00D+00 EMaxC= 1.00D-01 BMatC= 7.51D-12 BMatP= 9.88D-11
 IDIUse=1 WtCom= 1.00D+00 WtEn= 0.00D+00
 Coeff-Com: -0.940D-06-0.148D-04-0.152D-04 0.412D-04 0.447D-03 0.570D-03
 Coeff-Com:  0.584D-03-0.115D-01-0.216D-01 0.265D-01 0.203D+00 0.802D+00
 Coeff:     -0.940D-06-0.148D-04-0.152D-04 0.412D-04 0.447D-03 0.570D-03
 Coeff:      0.584D-03-0.115D-01-0.216D-01 0.265D-01 0.203D+00 0.802D+00
 Gap=     0.350 Goal=   None    Shift=    0.000
 RMSDP=1.58D-07 MaxDP=1.24D-05 DE=-1.31D-10 OVMax= 2.16D-06

 Cycle  13  Pass 1  IDiag  1:
 RMSU=  6.44D-08    CP:  6.33D-01  8.92D-01  6.99D-01  8.73D-01  1.11D+00
                    CP:  1.19D+00  1.16D+00  1.32D+00  1.45D+00  1.40D+00
                    CP:  1.16D+00  1.01D+00
 E= -420.747292997032     Delta-E=       -0.000000000018 Rises=F Damp=F
 DIIS: error= 1.33D-07 at cycle  13 NSaved=  13.
 NSaved=13 IEnMin=13 EnMin= -420.747292997032     IErMin=13 ErrMin= 1.33D-07
 ErrMax= 1.33D-07  0.00D+00 EMaxC= 1.00D-01 BMatC= 1.30D-12 BMatP= 7.51D-12
 IDIUse=1 WtCom= 1.00D+00 WtEn= 0.00D+00
 Coeff-Com: -0.534D-08-0.393D-05-0.687D-05-0.339D-04-0.199D-03-0.941D-04
 Coeff-Com:  0.182D-02 0.430D-02-0.330D-02-0.533D-01-0.830D-01 0.240D+00
 Coeff-Com:  0.894D+00
 Coeff:     -0.534D-08-0.393D-05-0.687D-05-0.339D-04-0.199D-03-0.941D-04
 Coeff:      0.182D-02 0.430D-02-0.330D-02-0.533D-01-0.830D-01 0.240D+00
 Coeff:      0.894D+00
 Gap=     0.350 Goal=   None    Shift=    0.000
 RMSDP=9.12D-08 MaxDP=8.63D-06 DE=-1.83D-11 OVMax= 1.36D-06

 Cycle  14  Pass 1  IDiag  1:
 RMSU=  2.23D-08    CP:  6.33D-01  8.92D-01  6.99D-01  8.73D-01  1.11D+00
                    CP:  1.19D+00  1.16D+00  1.32D+00  1.45D+00  1.41D+00
                    CP:  1.20D+00  1.13D+00  1.23D+00
 E= -420.747292997036     Delta-E=       -0.000000000004 Rises=F Damp=F
 DIIS: error= 6.42D-08 at cycle  14 NSaved=  14.
 NSaved=14 IEnMin=14 EnMin= -420.747292997036     IErMin=14 ErrMin= 6.42D-08
 ErrMax= 6.42D-08  0.00D+00 EMaxC= 1.00D-01 BMatC= 1.03D-13 BMatP= 1.30D-12
 IDIUse=1 WtCom= 1.00D+00 WtEn= 0.00D+00
 Coeff-Com:  0.486D-07 0.764D-06 0.794D-06-0.465D-05-0.562D-04-0.383D-04
 Coeff-Com:  0.526D-04 0.115D-02 0.184D-02-0.624D-02-0.234D-01-0.578D-01
 Coeff-Com:  0.478D-01 0.104D+01
 Coeff:      0.486D-07 0.764D-06 0.794D-06-0.465D-05-0.562D-04-0.383D-04
 Coeff:      0.526D-04 0.115D-02 0.184D-02-0.624D-02-0.234D-01-0.578D-01
 Coeff:      0.478D-01 0.104D+01
 Gap=     0.350 Goal=   None    Shift=    0.000
 RMSDP=3.02D-08 MaxDP=2.57D-06 DE=-4.43D-12 OVMax= 5.29D-07

 Cycle  15  Pass 1  IDiag  1:
 RMSU=  7.15D-09    CP:  6.33D-01  8.92D-01  6.99D-01  8.73D-01  1.11D+00
                    CP:  1.19D+00  1.16D+00  1.32D+00  1.45D+00  1.41D+00
                    CP:  1.20D+00  1.12D+00  1.40D+00  1.28D+00
 E= -420.747292997038     Delta-E=       -0.000000000002 Rises=F Damp=F
 DIIS: error= 3.47D-08 at cycle  15 NSaved=  15.
 NSaved=15 IEnMin=15 EnMin= -420.747292997038     IErMin=15 ErrMin= 3.47D-08
 ErrMax= 3.47D-08  0.00D+00 EMaxC= 1.00D-01 BMatC= 2.76D-14 BMatP= 1.03D-13
 IDIUse=1 WtCom= 1.00D+00 WtEn= 0.00D+00
 Coeff-Com:  0.137D-07 0.861D-06 0.141D-05 0.409D-05 0.117D-04 0.695D-05
 Coeff-Com: -0.269D-03-0.282D-03 0.130D-02 0.648D-02 0.538D-02-0.530D-01
 Coeff-Com: -0.124D+00 0.362D+00 0.803D+00
 Coeff:      0.137D-07 0.861D-06 0.141D-05 0.409D-05 0.117D-04 0.695D-05
 Coeff:     -0.269D-03-0.282D-03 0.130D-02 0.648D-02 0.538D-02-0.530D-01
 Coeff:     -0.124D+00 0.362D+00 0.803D+00
 Gap=     0.350 Goal=   None    Shift=    0.000
 RMSDP=8.66D-09 MaxDP=6.10D-07 DE=-1.59D-12 OVMax= 2.03D-07

 SCF Done:  E(RwB97XD) =  -420.747292997     A.U. after   15 cycles
            NFock= 15  Conv=0.87D-08     -V/T= 2.0015
 KE= 4.201208275780D+02 PE=-1.802623321292D+03 EE= 5.522004873895D+02
 Leave Link  502 at Sun Nov 20 17:26:49 2022, MaxMem= 16106127360 cpu:             408.4 elap:              12.8
 (Enter /opt/ap/G16/B01/g16/l601.exe)
 Copying SCF densities to generalized density rwf, IOpCl= 0 IROHF=0.

 **********************************************************************

            Population analysis using the SCF Density.

 **********************************************************************

 Orbital symmetries:
       Occupied  (A) (A) (A) (A) (A) (A) (A) (A) (A) (A) (A) (A)
                 (A) (A) (A) (A) (A) (A) (A) (A) (A) (A) (A) (A)
                 (A) (A) (A) (A) (A) (A) (A) (A)
       Virtual   (A) (A) (A) (A) (A) (A) (A) (A) (A) (A) (A) (A)
                 (A) (A) (A) (A) (A) (A) (A) (A) (A) (A) (A) (A)
                 (A) (A) (A) (A) (A) (A) (A) (A) (A) (A) (A) (A)
                 (A) (A) (A) (A) (A) (A) (A) (A) (A) (A) (A) (A)
                 (A) (A) (A) (A) (A) (A) (A) (A) (A) (A) (A) (A)
                 (A) (A) (A) (A) (A) (A) (A) (A) (A) (A) (A) (A)
                 (A) (A) (A) (A) (A) (A) (A) (A) (A) (A) (A) (A)
                 (A) (A) (A) (A) (A) (A) (A) (A) (A) (A) (A) (A)
                 (A) (A) (A) (A) (A) (A) (A) (A) (A) (A) (A) (A)
                 (A) (A) (A) (A) (A) (A) (A) (A) (A) (A) (A) (A)
                 (A) (A) (A) (A) (A) (A) (A) (A) (A) (A) (A) (A)
                 (A) (A) (A) (A) (A) (A) (A) (A) (A) (A) (A) (A)
                 (A) (A) (A) (A) (A) (A) (A) (A) (A) (A) (A) (A)
                 (A) (A) (A) (A) (A) (A) (A) (A) (A) (A) (A) (A)
                 (A) (A) (A) (A) (A) (A) (A) (A) (A) (A) (A) (A)
                 (A) (A) (A) (A) (A) (A) (A) (A) (A) (A) (A) (A)
                 (A) (A) (A) (A) (A) (A) (A) (A) (A) (A) (A) (A)
                 (A) (A) (A) (A)
 The electronic state is 1-A.
 Alpha  occ. eigenvalues --  -19.31657 -19.22765 -10.43162 -10.31039 -10.29306
 Alpha  occ. eigenvalues --  -10.29298 -10.29170 -10.28979 -10.28722  -1.25794
 Alpha  occ. eigenvalues --   -1.10605  -0.98065  -0.88918  -0.87000  -0.80560
 Alpha  occ. eigenvalues --   -0.73368  -0.71890  -0.65813  -0.60670  -0.58582
 Alpha  occ. eigenvalues --   -0.56735  -0.56136  -0.54567  -0.53459  -0.48896
 Alpha  occ. eigenvalues --   -0.47381  -0.45561  -0.44712  -0.41032  -0.36124
 Alpha  occ. eigenvalues --   -0.34651  -0.34293
 Alpha virt. eigenvalues --    0.00703   0.03748   0.04322   0.04533   0.05294
 Alpha virt. eigenvalues --    0.06465   0.07816   0.08687   0.10204   0.11486
 Alpha virt. eigenvalues --    0.11903   0.12922   0.13496   0.14387   0.14599
 Alpha virt. eigenvalues --    0.16002   0.16301   0.16937   0.17528   0.17991
 Alpha virt. eigenvalues --    0.18095   0.19591   0.20042   0.20322   0.20412
 Alpha virt. eigenvalues --    0.21172   0.21624   0.21756   0.23212   0.23658
 Alpha virt. eigenvalues --    0.25394   0.26379   0.26789   0.27951   0.28993
 Alpha virt. eigenvalues --    0.29515   0.30326   0.30617   0.30860   0.31745
 Alpha virt. eigenvalues --    0.31983   0.33800   0.34325   0.35277   0.36017
 Alpha virt. eigenvalues --    0.36716   0.37032   0.38188   0.39852   0.40895
 Alpha virt. eigenvalues --    0.41860   0.42269   0.44086   0.44784   0.46488
 Alpha virt. eigenvalues --    0.48916   0.50691   0.54661   0.55310   0.57666
 Alpha virt. eigenvalues --    0.60498   0.61239   0.62294   0.64037   0.64163
 Alpha virt. eigenvalues --    0.64779   0.65114   0.66516   0.68137   0.68408
 Alpha virt. eigenvalues --    0.68917   0.72202   0.73115   0.74144   0.75843
 Alpha virt. eigenvalues --    0.76682   0.81416   0.82861   0.84597   0.86430
 Alpha virt. eigenvalues --    0.88541   0.91863   0.93130   0.93757   0.94720
 Alpha virt. eigenvalues --    0.96862   0.97338   0.98352   1.00502   1.00845
 Alpha virt. eigenvalues --    1.04145   1.07454   1.07693   1.09999   1.11292
 Alpha virt. eigenvalues --    1.14396   1.14807   1.16224   1.17690   1.17858
 Alpha virt. eigenvalues --    1.20713   1.21495   1.24033   1.29089   1.31480
 Alpha virt. eigenvalues --    1.33231   1.38006   1.43831   1.45123   1.56604
 Alpha virt. eigenvalues --    1.56797   1.59328   1.60518   1.61043   1.61838
 Alpha virt. eigenvalues --    1.62689   1.66455   1.67056   1.67366   1.74613
 Alpha virt. eigenvalues --    1.75159   1.78743   1.80723   1.82318   1.87847
 Alpha virt. eigenvalues --    1.88494   1.91428   1.91771   1.96527   2.00369
 Alpha virt. eigenvalues --    2.00608   2.02071   2.03778   2.04925   2.05866
 Alpha virt. eigenvalues --    2.06868   2.13062   2.15286   2.17558   2.20054
 Alpha virt. eigenvalues --    2.23213   2.29188   2.31910   2.42643   2.45915
 Alpha virt. eigenvalues --    2.52136   2.54708   2.54888   2.58308   2.64535
 Alpha virt. eigenvalues --    2.71963   2.72868   2.74295   2.76405   2.81460
 Alpha virt. eigenvalues --    2.81809   2.83352   2.88392   2.89143   2.90448
 Alpha virt. eigenvalues --    2.90674   2.91863   2.95434   2.99524   3.00896
 Alpha virt. eigenvalues --    3.01884   3.06474   3.07070   3.15269   3.18506
 Alpha virt. eigenvalues --    3.18887   3.23598   3.28004   3.32335   3.32900
 Alpha virt. eigenvalues --    3.43061   3.43668   3.48411   3.49682   3.64106
 Alpha virt. eigenvalues --    3.66341   3.69827   3.74703   3.84350   3.87818
 Alpha virt. eigenvalues --    4.08502   4.17415   4.28544   4.30839   4.36890
 Alpha virt. eigenvalues --    4.40990   4.46475   4.95173   5.05084   5.15194
 Alpha virt. eigenvalues --    5.30918   5.50314   5.82932   6.09475  23.84290
 Alpha virt. eigenvalues --   23.94431  24.14197  24.21390  24.28370  24.30455
 Alpha virt. eigenvalues --   24.41853  50.04070  50.16696
          Condensed to atoms (all electrons):
               1          2          3          4          5          6
     1  C   11.092078  -3.671519  -1.401542   2.818567  -0.126041  -2.753900
     2  C   -3.671519  19.698167  -2.101638  -7.849594   0.897311  -0.725207
     3  C   -1.401542  -2.101638  12.100656   0.395029  -0.051262  -0.874333
     4  C    2.818567  -7.849594   0.395029  10.762371  -0.310049  -0.309769
     5  H   -0.126041   0.897311  -0.051262  -0.310049   0.474396  -0.074886
     6  C   -2.753900  -0.725207  -0.874333  -0.309769  -0.074886   9.237081
     7  C    0.767314  -1.109953  -2.652127   1.183670  -0.021098   0.587516
     8  H   -0.004873   0.058168   0.524445  -0.030706   0.001362  -0.097551
     9  C   -1.264475   2.243809   0.826771  -1.338874   0.055366  -0.207359
    10  H    0.065694  -0.242676   0.030485   0.522941  -0.016042   0.013476
    11  O   -0.223787  -0.264965  -0.052772   0.109070  -0.040012   0.468942
    12  O   -0.144159  -0.136727  -0.031089   0.088621  -0.008003   0.534720
    13  H    0.023880  -0.018975  -0.102525   0.015018  -0.000463   0.027051
    14  H    0.004387   0.054128   0.006159  -0.082437   0.001791  -0.015453
    15  H   -0.095453   0.005295   0.005800  -0.034430   0.005177   0.101021
               7          8          9         10         11         12
     1  C    0.767314  -0.004873  -1.264475   0.065694  -0.223787  -0.144159
     2  C   -1.109953   0.058168   2.243809  -0.242676  -0.264965  -0.136727
     3  C   -2.652127   0.524445   0.826771   0.030485  -0.052772  -0.031089
     4  C    1.183670  -0.030706  -1.338874   0.522941   0.109070   0.088621
     5  H   -0.021098   0.001362   0.055366  -0.016042  -0.040012  -0.008003
     6  C    0.587516  -0.097551  -0.207359   0.013476   0.468942   0.534720
     7  C    7.629126  -0.115622  -0.828376   0.008314   0.075144   0.108425
     8  H   -0.115622   0.434362   0.037856  -0.000141  -0.006440  -0.009902
     9  C   -0.828376   0.037856   6.653702  -0.061104  -0.039387  -0.029938
    10  H    0.008314  -0.000141  -0.061104   0.477100   0.003379   0.001067
    11  O    0.075144  -0.006440  -0.039387   0.003379   8.004005  -0.119082
    12  O    0.108425  -0.009902  -0.029938   0.001067  -0.119082   8.098624
    13  H    0.437798  -0.009999  -0.044408  -0.000506   0.001221   0.002090
    14  H   -0.059806   0.001236   0.448838  -0.009077  -0.000602  -0.000489
    15  H    0.013434  -0.000858  -0.003354  -0.000267   0.261085  -0.016903
              13         14         15
     1  C    0.023880   0.004387  -0.095453
     2  C   -0.018975   0.054128   0.005295
     3  C   -0.102525   0.006159   0.005800
     4  C    0.015018  -0.082437  -0.034430
     5  H   -0.000463   0.001791   0.005177
     6  C    0.027051  -0.015453   0.101021
     7  C    0.437798  -0.059806   0.013434
     8  H   -0.009999   0.001236  -0.000858
     9  C   -0.044408   0.448838  -0.003354
    10  H   -0.000506  -0.009077  -0.000267
    11  O    0.001221  -0.000602   0.261085
    12  O    0.002090  -0.000489  -0.016903
    13  H    0.464544  -0.007882   0.000197
    14  H   -0.007882   0.471979  -0.000144
    15  H    0.000197  -0.000144   0.417699
 Mulliken charges:
               1
     1  C    0.913830
     2  C   -0.835623
     3  C   -0.622057
     4  C    0.060573
     5  H    0.212454
     6  C    0.088651
     7  C   -0.023761
     8  H    0.218663
     9  C   -0.449067
    10  H    0.207359
    11  O   -0.175800
    12  O   -0.337255
    13  H    0.212958
    14  H    0.187373
    15  H    0.341701
 Sum of Mulliken charges =  -0.00000
 Mulliken charges with hydrogens summed into heavy atoms:
               1
     1  C    0.913830
     2  C   -0.623169
     3  C   -0.403394
     4  C    0.267932
     6  C    0.088651
     7  C    0.189198
     9  C   -0.261694
    11  O    0.165901
    12  O   -0.337255
 Electronic spatial extent (au):  <R**2>=           1158.2293
 Charge=             -0.0000 electrons
 Dipole moment (field-independent basis, Debye):
    X=             -1.3388    Y=             -2.3023    Z=              0.0440  Tot=              2.6636
 Quadrupole moment (field-independent basis, Debye-Ang):
   XX=            -43.3831   YY=            -49.9498   ZZ=            -54.1546
   XY=             -8.0694   XZ=              0.1111   YZ=              0.1439
 Traceless Quadrupole moment (field-independent basis, Debye-Ang):
   XX=              5.7794   YY=             -0.7873   ZZ=             -4.9921
   XY=             -8.0694   XZ=              0.1111   YZ=              0.1439
 Octapole moment (field-independent basis, Debye-Ang**2):
  XXX=             21.4209  YYY=             -4.1623  ZZZ=              0.0558  XYY=             -7.4464
  XXY=            -26.5218  XXZ=              0.5860  XZZ=             11.2678  YZZ=             -0.3877
  YYZ=              0.0664  XYZ=              0.1049
 Hexadecapole moment (field-independent basis, Debye-Ang**3):
 XXXX=           -872.6712 YYYY=           -358.9123 ZZZZ=            -58.5558 XXXY=            -90.8874
 XXXZ=              1.0794 YYYX=            -16.1682 YYYZ=              0.4085 ZZZX=              0.1291
 ZZZY=             -0.1570 XXYY=           -234.4703 XXZZ=           -194.8702 YYZZ=            -78.9949
 XXYZ=              0.1558 YYXZ=              0.4340 ZZXY=             -1.9314
 N-N= 4.095547133280D+02 E-N=-1.802623321639D+03  KE= 4.201208275780D+02
 No NMR shielding tensors so no spin-rotation constants.
 Leave Link  601 at Sun Nov 20 17:26:49 2022, MaxMem= 16106127360 cpu:               3.8 elap:               0.1
 (Enter /opt/ap/G16/B01/g16/l9999.exe)
 1\1\GINC-N05\SP\RwB97XD\6-311++G(d,p)\C7H6O2\ROOT\20-Nov-2022\0\\#P wB
 97XD/6-311++G(d,p) scf=maxcycle=512\\_conf018.gjf nmol_natom 1_15\\0,1
 \C\C,1,1.39016191\C,1,1.39194539,2,119.895942\C,2,1.38669027,1,119.880
 75721,3,0.70825972,0\H,2,0.98744251,1,119.71654057,3,-179.90726164,0\C
 ,1,1.48428757,2,119.93615286,4,-179.87772406,0\C,3,1.40101108,1,119.72
 36454,2,-0.26266839,0\H,3,0.9902154,1,119.1886159,2,178.85397616,0\C,4
 ,1.37899003,2,120.45785903,1,-0.48041454,0\H,4,0.9834739,2,120.3044270
 6,1,179.36166981,0\O,6,1.27459751,1,118.00615353,2,-1.25976832,0\O,6,1
 .26362572,1,118.77715367,2,179.20603801,0\H,7,0.98977053,3,119.3786157
 8,1,-178.93545741,0\H,9,0.99498061,4,119.46722635,2,-178.58826714,0\H,
 11,0.89680392,6,118.15823763,1,-180.,0\\Version=ES64L-G16RevB.01\State
 =1-A\HF=-420.747293\RMSD=8.659e-09\Dipole=0.0301232,-0.0174974,1.04737
 64\Quadrupole=8.216982,-3.7100536,-4.5069284,0.1389018,-1.2123055,0.12
 19557\PG=C01 [X(C7H6O2)]\\@


 AND HERE I AM, FOR ALL MY LORE,
 THE WRETCHED FOOL I WAS BEFORE.
 CALLED MASTER OF ARTS, AND DOCTOR TO BOOT,
 FOR TEN YEARS ALMOST I CONFUTE
 AND UP AND DOWN, WHEREVER IT GOES
 I DRAG MY STUDENTS BY THE NOSE --
 AND SEE THAT FOR ALL OUR SCIENCE AND ART
 WE CAN KNOW NOTHING.  IT BURNS MY HEART.

                                       -- FAUST
 Job cpu time:       0 days  0 hours  7 minutes 20.2 seconds.
 Elapsed time:       0 days  0 hours  0 minutes 13.9 seconds.
 File lengths (MBytes):  RWF=     35 Int=      0 D2E=      0 Chk=      4 Scr=      1
 Normal termination of Gaussian 16 at Sun Nov 20 17:26:50 2022.
