 Entering Gaussian System, Link 0=g16
 Input=_conf014.gjf
 Output=_conf014.log
 Initial command:
 /opt/ap/G16/B01/g16/l1.exe "/tmp2/scr/Gau-1035.inp" -scrdir="/tmp2/scr/"
 Entering Link 1 = /opt/ap/G16/B01/g16/l1.exe PID=      1036.
  
 Copyright (c) 1988-2017, Gaussian, Inc.  All Rights Reserved.
  
 This is part of the Gaussian(R) 16 program.  It is based on
 the Gaussian(R) 09 system (copyright 2009, Gaussian, Inc.),
 the Gaussian(R) 03 system (copyright 2003, Gaussian, Inc.),
 the Gaussian(R) 98 system (copyright 1998, Gaussian, Inc.),
 the Gaussian(R) 94 system (copyright 1995, Gaussian, Inc.),
 the Gaussian 92(TM) system (copyright 1992, Gaussian, Inc.),
 the Gaussian 90(TM) system (copyright 1990, Gaussian, Inc.),
 the Gaussian 88(TM) system (copyright 1988, Gaussian, Inc.),
 the Gaussian 86(TM) system (copyright 1986, Carnegie Mellon
 University), and the Gaussian 82(TM) system (copyright 1983,
 Carnegie Mellon University). Gaussian is a federally registered
 trademark of Gaussian, Inc.
  
 This software contains proprietary and confidential information,
 including trade secrets, belonging to Gaussian, Inc.
  
 This software is provided under written license and may be
 used, copied, transmitted, or stored only in accord with that
 written license.
  
 The following legend is applicable only to US Government
 contracts under FAR:
  
                    RESTRICTED RIGHTS LEGEND
  
 Use, reproduction and disclosure by the US Government is
 subject to restrictions as set forth in subparagraphs (a)
 and (c) of the Commercial Computer Software - Restricted
 Rights clause in FAR 52.227-19.
  
 Gaussian, Inc.
 340 Quinnipiac St., Bldg. 40, Wallingford CT 06492
  
  
 ---------------------------------------------------------------
 Warning -- This program may not be used in any manner that
 competes with the business of Gaussian, Inc. or will provide
 assistance to any competitor of Gaussian, Inc.  The licensee
 of this program is prohibited from giving any competitor of
 Gaussian, Inc. access to this program.  By using this program,
 the user acknowledges that Gaussian, Inc. is engaged in the
 business of creating and licensing software in the field of
 computational chemistry and represents and warrants to the
 licensee that it is not a competitor of Gaussian, Inc. and that
 it will not use this program in any manner prohibited above.
 ---------------------------------------------------------------
  

 Cite this work as:
 Gaussian 16, Revision B.01,
 M. J. Frisch, G. W. Trucks, H. B. Schlegel, G. E. Scuseria, 
 M. A. Robb, J. R. Cheeseman, G. Scalmani, V. Barone, 
 G. A. Petersson, H. Nakatsuji, X. Li, M. Caricato, A. V. Marenich, 
 J. Bloino, B. G. Janesko, R. Gomperts, B. Mennucci, H. P. Hratchian, 
 J. V. Ortiz, A. F. Izmaylov, J. L. Sonnenberg, D. Williams-Young, 
 F. Ding, F. Lipparini, F. Egidi, J. Goings, B. Peng, A. Petrone, 
 T. Henderson, D. Ranasinghe, V. G. Zakrzewski, J. Gao, N. Rega, 
 G. Zheng, W. Liang, M. Hada, M. Ehara, K. Toyota, R. Fukuda, 
 J. Hasegawa, M. Ishida, T. Nakajima, Y. Honda, O. Kitao, H. Nakai, 
 T. Vreven, K. Throssell, J. A. Montgomery, Jr., J. E. Peralta, 
 F. Ogliaro, M. J. Bearpark, J. J. Heyd, E. N. Brothers, K. N. Kudin, 
 V. N. Staroverov, T. A. Keith, R. Kobayashi, J. Normand, 
 K. Raghavachari, A. P. Rendell, J. C. Burant, S. S. Iyengar, 
 J. Tomasi, M. Cossi, J. M. Millam, M. Klene, C. Adamo, R. Cammi, 
 J. W. Ochterski, R. L. Martin, K. Morokuma, O. Farkas, 
 J. B. Foresman, and D. J. Fox, Gaussian, Inc., Wallingford CT, 2016.
 
 ******************************************
 Gaussian 16:  ES64L-G16RevB.01 20-Dec-2017
                20-Nov-2022 
 ******************************************
 %nprocshared=32
 Will use up to   32 processors via shared memory.
 %mem=120GB
 %chk=_conf014.chk
 ----------------------------------------
 #P wB97XD/6-311++G(d,p) scf=maxcycle=512
 ----------------------------------------
 1/38=1,172=1/1;
 2/12=2,17=6,18=5,40=1/2;
 3/5=4,6=6,7=1111,11=2,25=1,30=1,74=-58/1,2,3;
 4//1;
 5/5=2,7=512,38=5/2;
 6/7=2,8=2,9=2,10=2,28=1/1;
 99/5=1,9=1/99;
 Leave Link    1 at Sun Nov 20 17:26:21 2022, MaxMem= 16106127360 cpu:               1.9 elap:               0.1
 (Enter /opt/ap/G16/B01/g16/l101.exe)
 ----------------------------
 _conf014.gjf nmol_natom 1_15
 ----------------------------
 Symbolic Z-matrix:
 Charge =  0 Multiplicity = 1
 C
 C                    1     1.39016 
 C                    1     1.39195  2     119.89594 
 C                    2     1.38669  1     119.88076  3     0.70826  0
 H                    2     0.98744  1     119.71654  3    -179.90726  0
 C                    1     1.48429  2     119.93615  4    -179.87772  0
 C                    3     1.40101  1     119.72365  2    -0.26267  0
 H                    3     0.99022  1     119.18862  2     178.85398  0
 C                    4     1.37899  2     120.45786  1    -0.48041  0
 H                    4     0.98347  2     120.30443  1     179.36167  0
 O                    6     1.2746   1     118.00615  2    -1.25977  0
 O                    6     1.26363  1     118.77715  2     179.20604  0
 H                    7     0.98977  3     119.37862  1    -178.93546  0
 H                    9     0.99498  4     119.46723  2    -178.58827  0
 H                    11    0.8968   6     118.15824  1    -200.     0
 
 ITRead=  0  0  0  0  0  0  0  0  0  0  0  0  0  0  0
 MicOpt= -1 -1 -1 -1 -1 -1 -1 -1 -1 -1 -1 -1 -1 -1 -1
 NAtoms=     15 NQM=       15 NQMF=       0 NMMI=      0 NMMIF=      0
                NMic=       0 NMicF=      0.
                    Isotopes and Nuclear Properties:
 (Nuclear quadrupole moments (NQMom) in fm**2, nuclear magnetic moments (NMagM)
  in nuclear magnetons)

  Atom         1           2           3           4           5           6           7           8           9          10
 IAtWgt=          12          12          12          12           1          12          12           1          12           1
 AtmWgt=  12.0000000  12.0000000  12.0000000  12.0000000   1.0078250  12.0000000  12.0000000   1.0078250  12.0000000   1.0078250
 NucSpn=           0           0           0           0           1           0           0           1           0           1
 AtZEff=  -0.0000000  -0.0000000  -0.0000000  -0.0000000  -0.0000000  -0.0000000  -0.0000000  -0.0000000  -0.0000000  -0.0000000
 NQMom=    0.0000000   0.0000000   0.0000000   0.0000000   0.0000000   0.0000000   0.0000000   0.0000000   0.0000000   0.0000000
 NMagM=    0.0000000   0.0000000   0.0000000   0.0000000   2.7928460   0.0000000   0.0000000   2.7928460   0.0000000   2.7928460
 AtZNuc=   6.0000000   6.0000000   6.0000000   6.0000000   1.0000000   6.0000000   6.0000000   1.0000000   6.0000000   1.0000000

  Atom        11          12          13          14          15
 IAtWgt=          16          16           1           1           1
 AtmWgt=  15.9949146  15.9949146   1.0078250   1.0078250   1.0078250
 NucSpn=           0           0           1           1           1
 AtZEff=  -0.0000000  -0.0000000  -0.0000000  -0.0000000  -0.0000000
 NQMom=    0.0000000   0.0000000   0.0000000   0.0000000   0.0000000
 NMagM=    0.0000000   0.0000000   2.7928460   2.7928460   2.7928460
 AtZNuc=   8.0000000   8.0000000   1.0000000   1.0000000   1.0000000
 Leave Link  101 at Sun Nov 20 17:26:21 2022, MaxMem= 16106127360 cpu:               5.2 elap:               0.2
 (Enter /opt/ap/G16/B01/g16/l202.exe)
                          Input orientation:                          
 ---------------------------------------------------------------------
 Center     Atomic      Atomic             Coordinates (Angstroms)
 Number     Number       Type             X           Y           Z
 ---------------------------------------------------------------------
      1          6           0        0.000000    0.000000    0.000000
      2          6           0        0.000000    0.000000    1.390162
      3          6           0        1.206722    0.000000   -0.693782
      4          6           0        1.202258    0.014862    2.081006
      5          1           0       -0.857581   -0.001388    1.879646
      6          6           0       -1.286190   -0.013155   -0.740711
      7          6           0        2.415349    0.005578    0.014752
      8          1           0        1.194584   -0.017290   -1.683772
      9          6           0        2.400563    0.019708    1.398617
     10          1           0        1.209438    0.024411    3.064408
     11          8           0       -2.365984   -0.048941   -0.064425
     12          8           0       -1.260842    0.002453   -2.003986
     13          1           0        3.270315    0.021574   -0.483669
     14          1           0        3.254554    0.009066    1.909081
     15          1           0       -3.124698    0.213127   -0.464338
 ---------------------------------------------------------------------
                    Distance matrix (angstroms):
                    1          2          3          4          5
     1  C    0.000000
     2  C    1.390162   0.000000
     3  C    1.391945   2.408112   0.000000
     4  C    2.403379   1.386690   2.774832   0.000000
     5  H    2.066039   0.987443   3.299073   2.069721   0.000000
     6  C    1.484288   2.488991   2.493388   3.762345   2.655206
     7  C    2.415401   2.779513   1.401011   2.396056   3.766955
     8  H    2.064563   3.297939   0.990215   3.764924   4.112127
     9  C    2.778349   2.400659   2.409104   1.378990   3.293530
    10  H    3.294530   2.065535   3.758270   0.983474   2.382624
    11  O    2.367367   2.777786   3.628045   4.164047   2.461088
    12  O    2.367633   3.620769   2.793834   4.770133   3.904515
    13  H    3.305958   3.769173   2.074374   3.294611   4.756607
    14  H    3.773167   3.295676   3.311886   2.059493   4.112253
    15  H    3.166192   3.639826   4.342726   5.024005   3.268042
                    6          7          8          9         10
     6  C    0.000000
     7  C    3.777892   0.000000
     8  H    2.653982   2.091836   0.000000
     9  C    4.262622   1.384016   3.310118   0.000000
    10  H    4.550659   3.279477   4.748386   2.047842   0.000000
    11  O    1.274598   4.782299   3.911641   4.986499   4.751696
    12  O    1.263626   4.194007   2.476296   4.998389   5.638384
    13  H    4.563881   0.989771   2.398003   2.073517   4.103177
    14  H    5.257398   2.071897   4.141589   0.994981   2.348938
    15  H    1.872885   5.564596   4.494031   5.834083   5.592173
                   11         12         13         14         15
    11  O    0.000000
    12  O    2.232908   0.000000
    13  H    5.652309   4.779447   0.000000
    14  H    5.957225   5.975025   2.392834   0.000000
    15  H    0.896804   2.426698   6.397910   6.809523   0.000000
 Stoichiometry    C7H6O2
 Framework group  C1[X(C7H6O2)]
 Deg. of freedom    39
 Full point group                 C1      NOp   1
 Largest Abelian subgroup         C1      NOp   1
 Largest concise Abelian subgroup C1      NOp   1
                         Standard orientation:                         
 ---------------------------------------------------------------------
 Center     Atomic      Atomic             Coordinates (Angstroms)
 Number     Number       Type             X           Y           Z
 ---------------------------------------------------------------------
      1          6           0       -0.221241    0.028693    0.000343
      2          6           0        0.442532   -1.192763   -0.001225
      3          6           0        0.507757    1.214463   -0.004309
      4          6           0        1.828804   -1.225698    0.007444
      5          1           0       -0.077254   -2.032323    0.000698
      6          6           0       -1.705061    0.065369   -0.006183
      7          6           0        1.908030    1.169015   -0.004974
      8          1           0        0.024315    2.078495   -0.020428
      9          6           0        2.555868   -0.053951    0.007662
     10          1           0        2.304709   -2.086317    0.015851
     11          8           0       -2.331051   -1.044465   -0.037868
     12          8           0       -2.285907    1.187458    0.010735
     13          1           0        2.421317    2.015195    0.007734
     14          1           0        3.549899   -0.094716   -0.007403
     15          1           0       -3.187453   -1.055050    0.228065
 ---------------------------------------------------------------------
 Rotational constants (GHZ):           3.9651653           1.2394537           0.9445596
 Leave Link  202 at Sun Nov 20 17:26:21 2022, MaxMem= 16106127360 cpu:               0.3 elap:               0.0
 (Enter /opt/ap/G16/B01/g16/l301.exe)
 Standard basis: 6-311++G(d,p) (5D, 7F)
 Ernie: Thresh=  0.10000D-02 Tol=  0.10000D-05 Strict=F.
 There are   249 symmetry adapted cartesian basis functions of A   symmetry.
 There are   240 symmetry adapted basis functions of A   symmetry.
   240 basis functions,   378 primitive gaussians,   249 cartesian basis functions
    32 alpha electrons       32 beta electrons
       nuclear repulsion energy       409.5743512541 Hartrees.
 IExCor= 4639 DFT=T Ex+Corr=wB97XD ExCW=0 ScaHFX=  1.000000
 ScaDFX=  1.000000  1.000000  1.000000  1.000000 ScalE2=  1.000000  1.000000
 IRadAn=      5 IRanWt=     -1 IRanGd=            0 ICorTp=0 IEmpDi=121
 HFx  wShort=  0.000000 wLong=  0.200000 cFull=  0.222036 cShort=  0.000000 cLong=  0.777964
 DFx  wShort=  0.000000 wLong=  0.200000 cFull=  0.000000 cShort=  0.000000 cLong=  1.000000
 NAtoms=   15 NActive=   15 NUniq=   15 SFac= 1.00D+00 NAtFMM=   60 NAOKFM=F Big=F
 Integral buffers will be    131072 words long.
 Raffenetti 2 integral format.
 Two-electron integral symmetry is turned on.
 R6Disp:  Grimme-D2 Dispersion energy=       -0.0063405989 Hartrees.
 Nuclear repulsion after empirical dispersion term =      409.5680106553 Hartrees.
 Leave Link  301 at Sun Nov 20 17:26:21 2022, MaxMem= 16106127360 cpu:               1.2 elap:               0.0
 (Enter /opt/ap/G16/B01/g16/l302.exe)
 NPDir=0 NMtPBC=     1 NCelOv=     1 NCel=       1 NClECP=     1 NCelD=      1
         NCelK=      1 NCelE2=     1 NClLst=     1 CellRange=     0.0.
 One-electron integrals computed using PRISM.
 One-electron integral symmetry used in STVInt
 NBasis=   240 RedAO= T EigKep=  1.22D-06  NBF=   240
 NBsUse=   240 1.00D-06 EigRej= -1.00D+00 NBFU=   240
 Precomputing XC quadrature grid using
 IXCGrd= 4 IRadAn=           5 IRanWt=          -1 IRanGd=           0 AccXCQ= 0.00D+00.
 Generated NRdTot=       0 NPtTot=           0 NUsed=           0 NTot=          32
 NSgBfM=   249   249   249   249   249 MxSgAt=    15 MxSgA2=    15.
 Leave Link  302 at Sun Nov 20 17:26:22 2022, MaxMem= 16106127360 cpu:               5.6 elap:               0.2
 (Enter /opt/ap/G16/B01/g16/l303.exe)
 DipDrv:  MaxL=1.
 Leave Link  303 at Sun Nov 20 17:26:22 2022, MaxMem= 16106127360 cpu:               1.3 elap:               0.1
 (Enter /opt/ap/G16/B01/g16/l401.exe)
 ExpMin= 3.60D-02 ExpMax= 8.59D+03 ExpMxC= 1.30D+03 IAcc=3 IRadAn=         5 AccDes= 0.00D+00
 Harris functional with IExCor= 4639 and IRadAn=       5 diagonalized for initial guess.
 HarFok:  IExCor= 4639 AccDes= 0.00D+00 IRadAn=         5 IDoV= 1 UseB2=F ITyADJ=14
 ICtDFT=  3500011 ScaDFX=  1.000000  1.000000  1.000000  1.000000
 FoFCou: FMM=F IPFlag=           0 FMFlag=      100000 FMFlg1=           0
         NFxFlg=           0 DoJE=T BraDBF=F KetDBF=T FulRan=T
         wScrn=  0.000000 ICntrl=       500 IOpCl=  0 I1Cent=   200000004 NGrid=           0
         NMat0=    1 NMatS0=      1 NMatT0=    0 NMatD0=    1 NMtDS0=    0 NMtDT0=    0
 Petite list used in FoFCou.
 Harris En= -403.253052190370    
 JPrj=0 DoOrth=F DoCkMO=F.
 Leave Link  401 at Sun Nov 20 17:26:22 2022, MaxMem= 16106127360 cpu:              11.7 elap:               0.4
 (Enter /opt/ap/G16/B01/g16/l502.exe)
 Integral symmetry usage will be decided dynamically.
 Closed shell SCF:
 Using DIIS extrapolation, IDIIS=  1040.
 NGot= 16106127360 LenX= 16105992971 LenY= 16105930529
 Requested convergence on RMS density matrix=1.00D-08 within 512 cycles.
 Requested convergence on MAX density matrix=1.00D-06.
 Requested convergence on             energy=1.00D-06.
 No special actions if energy rises.
 Fock matrices will be formed incrementally for  20 cycles.

 Cycle   1  Pass 1  IDiag  1:
 FoFJK:  IHMeth= 1 ICntrl=       0 DoSepK=T KAlg= 0 I1Cent=           0 FoldK=F
 IRaf=         1 NMat=       1 IRICut=       1 DoRegI=T DoRafI=F ISym2E= 0 IDoP0=0 IntGTp=1.
 FoFCou: FMM=F IPFlag=           0 FMFlag=      100000 FMFlg1=           0
         NFxFlg=           0 DoJE=T BraDBF=F KetDBF=F FulRan=T
         wScrn=  0.000000 ICntrl=       500 IOpCl=  0 I1Cent=           0 NGrid=           0
         NMat0=    1 NMatS0=      1 NMatT0=    0 NMatD0=    1 NMtDS0=    0 NMtDT0=    0
 Symmetry not used in FoFCou.
 E= -420.631158776026    
 DIIS: error= 8.09D-02 at cycle   1 NSaved=   1.
 NSaved= 1 IEnMin= 1 EnMin= -420.631158776026     IErMin= 1 ErrMin= 8.09D-02
 ErrMax= 8.09D-02  0.00D+00 EMaxC= 1.00D-01 BMatC= 8.60D-01 BMatP= 8.60D-01
 IDIUse=3 WtCom= 1.91D-01 WtEn= 8.09D-01
 Coeff-Com:  0.100D+01
 Coeff-En:   0.100D+01
 Coeff:      0.100D+01
 Gap=     0.426 Goal=   None    Shift=    0.000
 GapD=    0.426 DampG=2.000 DampE=0.500 DampFc=1.0000 IDamp=-1.
 RMSDP=3.13D-02 MaxDP=2.67D+00              OVMax= 1.05D-01

 Cycle   2  Pass 1  IDiag  1:
 RMSU=  1.47D-02    CP:  6.75D-01
 E= -420.702332564354     Delta-E=       -0.071173788328 Rises=F Damp=F
 DIIS: error= 1.36D-02 at cycle   2 NSaved=   2.
 NSaved= 2 IEnMin= 2 EnMin= -420.702332564354     IErMin= 2 ErrMin= 1.36D-02
 ErrMax= 1.36D-02  0.00D+00 EMaxC= 1.00D-01 BMatC= 5.59D-02 BMatP= 8.60D-01
 IDIUse=3 WtCom= 8.64D-01 WtEn= 1.36D-01
 Coeff-Com:  0.134D+00 0.866D+00
 Coeff-En:   0.899D-01 0.910D+00
 Coeff:      0.128D+00 0.872D+00
 Gap=     0.423 Goal=   None    Shift=    0.000
 RMSDP=7.69D-03 MaxDP=3.76D-01 DE=-7.12D-02 OVMax= 7.47D-02

 Cycle   3  Pass 1  IDiag  1:
 RMSU=  6.80D-03    CP:  6.63D-01  7.66D-01
 E= -420.718682496156     Delta-E=       -0.016349931802 Rises=F Damp=F
 DIIS: error= 1.43D-02 at cycle   3 NSaved=   3.
 NSaved= 3 IEnMin= 3 EnMin= -420.718682496156     IErMin= 2 ErrMin= 1.36D-02
 ErrMax= 1.43D-02  0.00D+00 EMaxC= 1.00D-01 BMatC= 3.44D-02 BMatP= 5.59D-02
 IDIUse=3 WtCom= 8.57D-01 WtEn= 1.43D-01
 Coeff-Com:  0.271D-01 0.445D+00 0.528D+00
 Coeff-En:   0.000D+00 0.379D+00 0.621D+00
 Coeff:      0.232D-01 0.436D+00 0.541D+00
 Gap=     0.360 Goal=   None    Shift=    0.000
 RMSDP=3.85D-03 MaxDP=2.91D-01 DE=-1.63D-02 OVMax= 5.18D-02

 Cycle   4  Pass 1  IDiag  1:
 RMSU=  1.85D-03    CP:  6.41D-01  8.76D-01  6.70D-01
 E= -420.743905107790     Delta-E=       -0.025222611634 Rises=F Damp=F
 DIIS: error= 2.68D-03 at cycle   4 NSaved=   4.
 NSaved= 4 IEnMin= 4 EnMin= -420.743905107790     IErMin= 4 ErrMin= 2.68D-03
 ErrMax= 2.68D-03  0.00D+00 EMaxC= 1.00D-01 BMatC= 1.84D-03 BMatP= 3.44D-02
 IDIUse=3 WtCom= 9.73D-01 WtEn= 2.68D-02
 Coeff-Com:  0.104D-01 0.222D+00 0.305D+00 0.463D+00
 Coeff-En:   0.000D+00 0.000D+00 0.000D+00 0.100D+01
 Coeff:      0.102D-01 0.216D+00 0.297D+00 0.477D+00
 Gap=     0.349 Goal=   None    Shift=    0.000
 RMSDP=9.89D-04 MaxDP=4.26D-02 DE=-2.52D-02 OVMax= 1.20D-02

 Cycle   5  Pass 1  IDiag  1:
 RMSU=  7.18D-04    CP:  6.37D-01  8.59D-01  7.28D-01  7.96D-01
 E= -420.745146949569     Delta-E=       -0.001241841779 Rises=F Damp=F
 DIIS: error= 5.20D-04 at cycle   5 NSaved=   5.
 NSaved= 5 IEnMin= 5 EnMin= -420.745146949569     IErMin= 5 ErrMin= 5.20D-04
 ErrMax= 5.20D-04  0.00D+00 EMaxC= 1.00D-01 BMatC= 5.07D-05 BMatP= 1.84D-03
 IDIUse=3 WtCom= 9.95D-01 WtEn= 5.20D-03
 Coeff-Com:  0.298D-03 0.149D-01 0.300D-01 0.153D+00 0.802D+00
 Coeff-En:   0.000D+00 0.000D+00 0.000D+00 0.000D+00 0.100D+01
 Coeff:      0.297D-03 0.148D-01 0.298D-01 0.152D+00 0.803D+00
 Gap=     0.349 Goal=   None    Shift=    0.000
 RMSDP=2.34D-04 MaxDP=1.27D-02 DE=-1.24D-03 OVMax= 2.49D-03

 Cycle   6  Pass 1  IDiag  1:
 RMSU=  1.24D-04    CP:  6.35D-01  8.62D-01  7.44D-01  8.18D-01  1.01D+00
 E= -420.745186471990     Delta-E=       -0.000039522421 Rises=F Damp=F
 DIIS: error= 2.04D-04 at cycle   6 NSaved=   6.
 NSaved= 6 IEnMin= 6 EnMin= -420.745186471990     IErMin= 6 ErrMin= 2.04D-04
 ErrMax= 2.04D-04  0.00D+00 EMaxC= 1.00D-01 BMatC= 7.30D-06 BMatP= 5.07D-05
 IDIUse=3 WtCom= 9.98D-01 WtEn= 2.04D-03
 Coeff-Com: -0.970D-03-0.167D-01-0.182D-01 0.145D-01 0.348D+00 0.673D+00
 Coeff-En:   0.000D+00 0.000D+00 0.000D+00 0.000D+00 0.000D+00 0.100D+01
 Coeff:     -0.968D-03-0.167D-01-0.182D-01 0.145D-01 0.347D+00 0.674D+00
 Gap=     0.349 Goal=   None    Shift=    0.000
 RMSDP=1.79D-04 MaxDP=1.62D-02 DE=-3.95D-05 OVMax= 8.06D-04

 Cycle   7  Pass 1  IDiag  1:
 RMSU=  4.82D-05    CP:  6.34D-01  8.59D-01  7.54D-01  8.27D-01  1.09D+00
                    CP:  1.11D+00
 E= -420.745193557396     Delta-E=       -0.000007085405 Rises=F Damp=F
 DIIS: error= 6.84D-05 at cycle   7 NSaved=   7.
 NSaved= 7 IEnMin= 7 EnMin= -420.745193557396     IErMin= 7 ErrMin= 6.84D-05
 ErrMax= 6.84D-05  0.00D+00 EMaxC= 1.00D-01 BMatC= 3.09D-07 BMatP= 7.30D-06
 IDIUse=1 WtCom= 1.00D+00 WtEn= 0.00D+00
 Coeff-Com: -0.239D-03-0.554D-02-0.695D-02-0.136D-01 0.110D-02 0.136D+00
 Coeff-Com:  0.889D+00
 Coeff:     -0.239D-03-0.554D-02-0.695D-02-0.136D-01 0.110D-02 0.136D+00
 Coeff:      0.889D+00
 Gap=     0.349 Goal=   None    Shift=    0.000
 RMSDP=4.83D-05 MaxDP=3.05D-03 DE=-7.09D-06 OVMax= 3.19D-04

 Cycle   8  Pass 1  IDiag  1:
 RMSU=  1.53D-05    CP:  6.33D-01  8.59D-01  7.57D-01  8.27D-01  1.13D+00
                    CP:  1.14D+00  1.08D+00
 E= -420.745194127260     Delta-E=       -0.000000569865 Rises=F Damp=F
 DIIS: error= 1.53D-05 at cycle   8 NSaved=   8.
 NSaved= 8 IEnMin= 8 EnMin= -420.745194127260     IErMin= 8 ErrMin= 1.53D-05
 ErrMax= 1.53D-05  0.00D+00 EMaxC= 1.00D-01 BMatC= 4.10D-08 BMatP= 3.09D-07
 IDIUse=1 WtCom= 1.00D+00 WtEn= 0.00D+00
 Coeff-Com:  0.306D-04 0.259D-03 0.133D-03-0.590D-02-0.375D-01-0.373D-01
 Coeff-Com:  0.240D+00 0.840D+00
 Coeff:      0.306D-04 0.259D-03 0.133D-03-0.590D-02-0.375D-01-0.373D-01
 Coeff:      0.240D+00 0.840D+00
 Gap=     0.349 Goal=   None    Shift=    0.000
 RMSDP=1.50D-05 MaxDP=7.74D-04 DE=-5.70D-07 OVMax= 1.20D-04

 Cycle   9  Pass 1  IDiag  1:
 RMSU=  4.79D-06    CP:  6.33D-01  8.59D-01  7.58D-01  8.24D-01  1.15D+00
                    CP:  1.17D+00  1.17D+00  1.20D+00
 E= -420.745194199395     Delta-E=       -0.000000072135 Rises=F Damp=F
 DIIS: error= 1.06D-05 at cycle   9 NSaved=   9.
 NSaved= 9 IEnMin= 9 EnMin= -420.745194199395     IErMin= 9 ErrMin= 1.06D-05
 ErrMax= 1.06D-05  0.00D+00 EMaxC= 1.00D-01 BMatC= 4.79D-09 BMatP= 4.10D-08
 IDIUse=1 WtCom= 1.00D+00 WtEn= 0.00D+00
 Coeff-Com:  0.374D-04 0.714D-03 0.866D-03-0.363D-03-0.104D-01-0.270D-01
 Coeff-Com: -0.264D-01 0.253D+00 0.810D+00
 Coeff:      0.374D-04 0.714D-03 0.866D-03-0.363D-03-0.104D-01-0.270D-01
 Coeff:     -0.264D-01 0.253D+00 0.810D+00
 Gap=     0.349 Goal=   None    Shift=    0.000
 RMSDP=5.09D-06 MaxDP=3.16D-04 DE=-7.21D-08 OVMax= 4.99D-05

 Cycle  10  Pass 1  IDiag  1:
 RMSU=  1.58D-06    CP:  6.33D-01  8.59D-01  7.58D-01  8.22D-01  1.15D+00
                    CP:  1.17D+00  1.19D+00  1.30D+00  1.30D+00
 E= -420.745194207741     Delta-E=       -0.000000008346 Rises=F Damp=F
 DIIS: error= 1.47D-06 at cycle  10 NSaved=  10.
 NSaved=10 IEnMin=10 EnMin= -420.745194207741     IErMin=10 ErrMin= 1.47D-06
 ErrMax= 1.47D-06  0.00D+00 EMaxC= 1.00D-01 BMatC= 6.07D-10 BMatP= 4.79D-09
 IDIUse=1 WtCom= 1.00D+00 WtEn= 0.00D+00
 Coeff-Com:  0.687D-05 0.152D-03 0.209D-03 0.412D-03 0.122D-02-0.416D-02
 Coeff-Com: -0.305D-01-0.231D-01 0.233D+00 0.823D+00
 Coeff:      0.687D-05 0.152D-03 0.209D-03 0.412D-03 0.122D-02-0.416D-02
 Coeff:     -0.305D-01-0.231D-01 0.233D+00 0.823D+00
 Gap=     0.349 Goal=   None    Shift=    0.000
 RMSDP=1.68D-06 MaxDP=1.02D-04 DE=-8.35D-09 OVMax= 1.30D-05

 Cycle  11  Pass 1  IDiag  1:
 RMSU=  3.71D-07    CP:  6.33D-01  8.59D-01  7.58D-01  8.22D-01  1.15D+00
                    CP:  1.17D+00  1.19D+00  1.35D+00  1.43D+00  1.17D+00
 E= -420.745194208699     Delta-E=       -0.000000000958 Rises=F Damp=F
 DIIS: error= 9.83D-07 at cycle  11 NSaved=  11.
 NSaved=11 IEnMin=11 EnMin= -420.745194208699     IErMin=11 ErrMin= 9.83D-07
 ErrMax= 9.83D-07  0.00D+00 EMaxC= 1.00D-01 BMatC= 1.06D-10 BMatP= 6.07D-10
 IDIUse=1 WtCom= 1.00D+00 WtEn= 0.00D+00
 Coeff-Com: -0.154D-05-0.122D-04 0.456D-07 0.244D-03 0.192D-02 0.136D-02
 Coeff-Com: -0.852D-02-0.461D-01-0.137D-01 0.329D+00 0.736D+00
 Coeff:     -0.154D-05-0.122D-04 0.456D-07 0.244D-03 0.192D-02 0.136D-02
 Coeff:     -0.852D-02-0.461D-01-0.137D-01 0.329D+00 0.736D+00
 Gap=     0.349 Goal=   None    Shift=    0.000
 RMSDP=6.66D-07 MaxDP=3.95D-05 DE=-9.58D-10 OVMax= 6.79D-06

 Cycle  12  Pass 1  IDiag  1:
 RMSU=  2.37D-07    CP:  6.33D-01  8.59D-01  7.58D-01  8.22D-01  1.15D+00
                    CP:  1.17D+00  1.20D+00  1.35D+00  1.48D+00  1.28D+00
                    CP:  1.04D+00
 E= -420.745194208852     Delta-E=       -0.000000000153 Rises=F Damp=F
 DIIS: error= 1.95D-07 at cycle  12 NSaved=  12.
 NSaved=12 IEnMin=12 EnMin= -420.745194208852     IErMin=12 ErrMin= 1.95D-07
 ErrMax= 1.95D-07  0.00D+00 EMaxC= 1.00D-01 BMatC= 8.11D-12 BMatP= 1.06D-10
 IDIUse=1 WtCom= 1.00D+00 WtEn= 0.00D+00
 Coeff-Com: -0.101D-05-0.161D-04-0.166D-04 0.380D-04 0.461D-03 0.614D-03
 Coeff-Com:  0.667D-03-0.115D-01-0.231D-01 0.216D-01 0.202D+00 0.809D+00
 Coeff:     -0.101D-05-0.161D-04-0.166D-04 0.380D-04 0.461D-03 0.614D-03
 Coeff:      0.667D-03-0.115D-01-0.231D-01 0.216D-01 0.202D+00 0.809D+00
 Gap=     0.349 Goal=   None    Shift=    0.000
 RMSDP=1.44D-07 MaxDP=9.84D-06 DE=-1.53D-10 OVMax= 1.93D-06

 Cycle  13  Pass 1  IDiag  1:
 RMSU=  6.42D-08    CP:  6.33D-01  8.59D-01  7.58D-01  8.22D-01  1.15D+00
                    CP:  1.17D+00  1.20D+00  1.35D+00  1.49D+00  1.30D+00
                    CP:  1.11D+00  1.00D+00
 E= -420.745194208869     Delta-E=       -0.000000000017 Rises=F Damp=F
 DIIS: error= 1.20D-07 at cycle  13 NSaved=  13.
 NSaved=13 IEnMin=13 EnMin= -420.745194208869     IErMin=13 ErrMin= 1.20D-07
 ErrMax= 1.20D-07  0.00D+00 EMaxC= 1.00D-01 BMatC= 1.35D-12 BMatP= 8.11D-12
 IDIUse=1 WtCom= 1.00D+00 WtEn= 0.00D+00
 Coeff-Com:  0.690D-08-0.397D-05-0.699D-05-0.356D-04-0.222D-03-0.104D-03
 Coeff-Com:  0.189D-02 0.482D-02-0.334D-02-0.543D-01-0.900D-01 0.221D+00
 Coeff-Com:  0.921D+00
 Coeff:      0.690D-08-0.397D-05-0.699D-05-0.356D-04-0.222D-03-0.104D-03
 Coeff:      0.189D-02 0.482D-02-0.334D-02-0.543D-01-0.900D-01 0.221D+00
 Coeff:      0.921D+00
 Gap=     0.349 Goal=   None    Shift=    0.000
 RMSDP=8.04D-08 MaxDP=7.49D-06 DE=-1.67D-11 OVMax= 1.30D-06

 Cycle  14  Pass 1  IDiag  1:
 RMSU=  2.37D-08    CP:  6.33D-01  8.59D-01  7.58D-01  8.22D-01  1.15D+00
                    CP:  1.17D+00  1.20D+00  1.35D+00  1.49D+00  1.31D+00
                    CP:  1.14D+00  1.10D+00  1.29D+00
 E= -420.745194208865     Delta-E=        0.000000000004 Rises=F Damp=F
 DIIS: error= 5.20D-08 at cycle  14 NSaved=  14.
 NSaved=14 IEnMin=13 EnMin= -420.745194208869     IErMin=14 ErrMin= 5.20D-08
 ErrMax= 5.20D-08  0.00D+00 EMaxC= 1.00D-01 BMatC= 1.21D-13 BMatP= 1.35D-12
 IDIUse=1 WtCom= 1.00D+00 WtEn= 0.00D+00
 Coeff-Com:  0.642D-07 0.111D-05 0.119D-05-0.439D-05-0.612D-04-0.444D-04
 Coeff-Com:  0.233D-04 0.126D-02 0.208D-02-0.549D-02-0.238D-01-0.685D-01
 Coeff-Com:  0.397D-01 0.105D+01
 Coeff:      0.642D-07 0.111D-05 0.119D-05-0.439D-05-0.612D-04-0.444D-04
 Coeff:      0.233D-04 0.126D-02 0.208D-02-0.549D-02-0.238D-01-0.685D-01
 Coeff:      0.397D-01 0.105D+01
 Gap=     0.349 Goal=   None    Shift=    0.000
 RMSDP=2.97D-08 MaxDP=2.51D-06 DE= 3.87D-12 OVMax= 5.70D-07

 Cycle  15  Pass 1  IDiag  1:
 RMSU=  7.22D-09    CP:  6.33D-01  8.59D-01  7.58D-01  8.22D-01  1.15D+00
                    CP:  1.17D+00  1.20D+00  1.35D+00  1.49D+00  1.31D+00
                    CP:  1.14D+00  1.10D+00  1.47D+00  1.28D+00
 E= -420.745194208873     Delta-E=       -0.000000000008 Rises=F Damp=F
 DIIS: error= 3.01D-08 at cycle  15 NSaved=  15.
 NSaved=15 IEnMin=15 EnMin= -420.745194208873     IErMin=15 ErrMin= 3.01D-08
 ErrMax= 3.01D-08  0.00D+00 EMaxC= 1.00D-01 BMatC= 3.26D-14 BMatP= 1.21D-13
 IDIUse=1 WtCom= 1.00D+00 WtEn= 0.00D+00
 Coeff-Com:  0.171D-07 0.994D-06 0.157D-05 0.448D-05 0.141D-04 0.780D-05
 Coeff-Com: -0.297D-03-0.322D-03 0.134D-02 0.701D-02 0.664D-02-0.545D-01
 Coeff-Com: -0.135D+00 0.367D+00 0.808D+00
 Coeff:      0.171D-07 0.994D-06 0.157D-05 0.448D-05 0.141D-04 0.780D-05
 Coeff:     -0.297D-03-0.322D-03 0.134D-02 0.701D-02 0.664D-02-0.545D-01
 Coeff:     -0.135D+00 0.367D+00 0.808D+00
 Gap=     0.349 Goal=   None    Shift=    0.000
 RMSDP=7.94D-09 MaxDP=4.66D-07 DE=-7.73D-12 OVMax= 2.01D-07

 SCF Done:  E(RwB97XD) =  -420.745194209     A.U. after   15 cycles
            NFock= 15  Conv=0.79D-08     -V/T= 2.0015
 KE= 4.201245044292D+02 PE=-1.802655108197D+03 EE= 5.522173989041D+02
 Leave Link  502 at Sun Nov 20 17:26:35 2022, MaxMem= 16106127360 cpu:             417.8 elap:              13.1
 (Enter /opt/ap/G16/B01/g16/l601.exe)
 Copying SCF densities to generalized density rwf, IOpCl= 0 IROHF=0.

 **********************************************************************

            Population analysis using the SCF Density.

 **********************************************************************

 Orbital symmetries:
       Occupied  (A) (A) (A) (A) (A) (A) (A) (A) (A) (A) (A) (A)
                 (A) (A) (A) (A) (A) (A) (A) (A) (A) (A) (A) (A)
                 (A) (A) (A) (A) (A) (A) (A) (A)
       Virtual   (A) (A) (A) (A) (A) (A) (A) (A) (A) (A) (A) (A)
                 (A) (A) (A) (A) (A) (A) (A) (A) (A) (A) (A) (A)
                 (A) (A) (A) (A) (A) (A) (A) (A) (A) (A) (A) (A)
                 (A) (A) (A) (A) (A) (A) (A) (A) (A) (A) (A) (A)
                 (A) (A) (A) (A) (A) (A) (A) (A) (A) (A) (A) (A)
                 (A) (A) (A) (A) (A) (A) (A) (A) (A) (A) (A) (A)
                 (A) (A) (A) (A) (A) (A) (A) (A) (A) (A) (A) (A)
                 (A) (A) (A) (A) (A) (A) (A) (A) (A) (A) (A) (A)
                 (A) (A) (A) (A) (A) (A) (A) (A) (A) (A) (A) (A)
                 (A) (A) (A) (A) (A) (A) (A) (A) (A) (A) (A) (A)
                 (A) (A) (A) (A) (A) (A) (A) (A) (A) (A) (A) (A)
                 (A) (A) (A) (A) (A) (A) (A) (A) (A) (A) (A) (A)
                 (A) (A) (A) (A) (A) (A) (A) (A) (A) (A) (A) (A)
                 (A) (A) (A) (A) (A) (A) (A) (A) (A) (A) (A) (A)
                 (A) (A) (A) (A) (A) (A) (A) (A) (A) (A) (A) (A)
                 (A) (A) (A) (A) (A) (A) (A) (A) (A) (A) (A) (A)
                 (A) (A) (A) (A) (A) (A) (A) (A) (A) (A) (A) (A)
                 (A) (A) (A) (A)
 The electronic state is 1-A.
 Alpha  occ. eigenvalues --  -19.31478 -19.22830 -10.43156 -10.31018 -10.29320
 Alpha  occ. eigenvalues --  -10.29306 -10.29193 -10.28994 -10.28738  -1.25698
 Alpha  occ. eigenvalues --   -1.10627  -0.98073  -0.88889  -0.87014  -0.80477
 Alpha  occ. eigenvalues --   -0.73380  -0.71939  -0.65862  -0.60747  -0.58624
 Alpha  occ. eigenvalues --   -0.56731  -0.56102  -0.54416  -0.53473  -0.48738
 Alpha  occ. eigenvalues --   -0.47403  -0.45494  -0.44680  -0.41121  -0.36123
 Alpha  occ. eigenvalues --   -0.34665  -0.34308
 Alpha virt. eigenvalues --    0.00578   0.03721   0.04298   0.04526   0.05287
 Alpha virt. eigenvalues --    0.06474   0.07821   0.08692   0.10199   0.11302
 Alpha virt. eigenvalues --    0.11896   0.12938   0.13409   0.14357   0.14604
 Alpha virt. eigenvalues --    0.16006   0.16333   0.16929   0.17498   0.17978
 Alpha virt. eigenvalues --    0.18056   0.19552   0.20074   0.20201   0.20468
 Alpha virt. eigenvalues --    0.21171   0.21610   0.21706   0.23391   0.23657
 Alpha virt. eigenvalues --    0.25466   0.26359   0.26833   0.27930   0.28759
 Alpha virt. eigenvalues --    0.29572   0.29962   0.30528   0.31059   0.31856
 Alpha virt. eigenvalues --    0.32030   0.33666   0.34362   0.35301   0.36028
 Alpha virt. eigenvalues --    0.36585   0.37074   0.38048   0.39843   0.40533
 Alpha virt. eigenvalues --    0.41761   0.42206   0.42856   0.44191   0.45987
 Alpha virt. eigenvalues --    0.46562   0.50390   0.53691   0.54705   0.57675
 Alpha virt. eigenvalues --    0.59882   0.60539   0.61917   0.63766   0.64210
 Alpha virt. eigenvalues --    0.64695   0.64957   0.65913   0.67163   0.68964
 Alpha virt. eigenvalues --    0.69578   0.72134   0.73549   0.74133   0.75322
 Alpha virt. eigenvalues --    0.76733   0.81256   0.82597   0.83905   0.86351
 Alpha virt. eigenvalues --    0.88530   0.90702   0.93045   0.93744   0.94638
 Alpha virt. eigenvalues --    0.96388   0.97112   0.97735   0.99879   1.00569
 Alpha virt. eigenvalues --    1.04095   1.07454   1.07838   1.09838   1.11385
 Alpha virt. eigenvalues --    1.14422   1.14987   1.16299   1.16716   1.18023
 Alpha virt. eigenvalues --    1.21057   1.21410   1.24142   1.28834   1.29431
 Alpha virt. eigenvalues --    1.35142   1.38612   1.43822   1.45513   1.55647
 Alpha virt. eigenvalues --    1.58457   1.59115   1.60521   1.61029   1.62010
 Alpha virt. eigenvalues --    1.62519   1.66300   1.67062   1.67519   1.74724
 Alpha virt. eigenvalues --    1.75147   1.77567   1.79982   1.82839   1.87640
 Alpha virt. eigenvalues --    1.88314   1.91404   1.91695   1.95907   2.00351
 Alpha virt. eigenvalues --    2.00492   2.01959   2.03619   2.04613   2.05612
 Alpha virt. eigenvalues --    2.06878   2.11774   2.15269   2.17872   2.19614
 Alpha virt. eigenvalues --    2.23193   2.29110   2.30616   2.42658   2.45947
 Alpha virt. eigenvalues --    2.51990   2.54439   2.54582   2.58006   2.61362
 Alpha virt. eigenvalues --    2.71551   2.73340   2.74493   2.76861   2.81254
 Alpha virt. eigenvalues --    2.81762   2.83187   2.88277   2.89296   2.90540
 Alpha virt. eigenvalues --    2.90661   2.91823   2.95853   2.99651   3.00617
 Alpha virt. eigenvalues --    3.03291   3.06176   3.06698   3.15338   3.18550
 Alpha virt. eigenvalues --    3.18864   3.23456   3.27899   3.31948   3.35412
 Alpha virt. eigenvalues --    3.40734   3.44875   3.48386   3.49924   3.63984
 Alpha virt. eigenvalues --    3.66248   3.69401   3.74347   3.84319   3.87729
 Alpha virt. eigenvalues --    4.07343   4.17063   4.28442   4.30791   4.36786
 Alpha virt. eigenvalues --    4.40722   4.45724   4.95002   5.07017   5.15369
 Alpha virt. eigenvalues --    5.30568   5.49013   5.82842   6.08806  23.84170
 Alpha virt. eigenvalues --   23.94445  24.14132  24.21363  24.28344  24.30424
 Alpha virt. eigenvalues --   24.41831  50.04171  50.16590
          Condensed to atoms (all electrons):
               1          2          3          4          5          6
     1  C   10.784892  -3.267089  -1.518628   2.437427  -0.076579  -2.561528
     2  C   -3.267089  18.216299  -2.085023  -6.628851   0.827790  -0.867965
     3  C   -1.518628  -2.085023  12.460406   0.323175  -0.057261  -0.805225
     4  C    2.437427  -6.628851   0.323175   9.731287  -0.245058  -0.090175
     5  H   -0.076579   0.827790  -0.057261  -0.245058   0.482986  -0.124852
     6  C   -2.561528  -0.867965  -0.805225  -0.090175  -0.124852   9.075488
     7  C    0.830840  -0.765671  -3.007094   0.952730  -0.007576   0.515348
     8  H   -0.014548   0.045913   0.537467  -0.024863   0.000911  -0.087592
     9  C   -1.206425   1.901783   0.953017  -1.101704   0.050301  -0.235892
    10  H    0.055345  -0.203329   0.028131   0.492240  -0.015076   0.019307
    11  O   -0.204623  -0.258997  -0.053656   0.096677  -0.042719   0.461013
    12  O   -0.206669  -0.125858  -0.032752   0.072922  -0.007449   0.603867
    13  H    0.027851  -0.009014  -0.118997   0.010362  -0.000108   0.023216
    14  H    0.005530   0.036330   0.009310  -0.071482   0.001792  -0.017176
    15  H   -0.078344   0.001725   0.005673  -0.025998   0.002189   0.084761
               7          8          9         10         11         12
     1  C    0.830840  -0.014548  -1.206425   0.055345  -0.204623  -0.206669
     2  C   -0.765671   0.045913   1.901783  -0.203329  -0.258997  -0.125858
     3  C   -3.007094   0.537467   0.953017   0.028131  -0.053656  -0.032752
     4  C    0.952730  -0.024863  -1.101704   0.492240   0.096677   0.072922
     5  H   -0.007576   0.000911   0.050301  -0.015076  -0.042719  -0.007449
     6  C    0.515348  -0.087592  -0.235892   0.019307   0.461013   0.603867
     7  C    7.796337  -0.118370  -0.782320   0.001403   0.075781   0.113197
     8  H   -0.118370   0.433859   0.034739  -0.000020  -0.006687  -0.009304
     9  C   -0.782320   0.034739   6.579338  -0.056290  -0.041485  -0.026829
    10  H    0.001403  -0.000020  -0.056290   0.475716   0.003537   0.000883
    11  O    0.075781  -0.006687  -0.041485   0.003537   8.001169  -0.129364
    12  O    0.113197  -0.009304  -0.026829   0.000883  -0.129364   8.084033
    13  H    0.447087  -0.010209  -0.045120  -0.000647   0.001312   0.002051
    14  H   -0.050801   0.001066   0.443592  -0.008581  -0.000669  -0.000480
    15  H    0.012402  -0.000603  -0.003913  -0.000093   0.271022  -0.006147
              13         14         15
     1  C    0.027851   0.005530  -0.078344
     2  C   -0.009014   0.036330   0.001725
     3  C   -0.118997   0.009310   0.005673
     4  C    0.010362  -0.071482  -0.025998
     5  H   -0.000108   0.001792   0.002189
     6  C    0.023216  -0.017176   0.084761
     7  C    0.447087  -0.050801   0.012402
     8  H   -0.010209   0.001066  -0.000603
     9  C   -0.045120   0.443592  -0.003913
    10  H   -0.000647  -0.008581  -0.000093
    11  O    0.001312  -0.000669   0.271022
    12  O    0.002051  -0.000480  -0.006147
    13  H    0.466055  -0.007445   0.000183
    14  H   -0.007445   0.471826  -0.000144
    15  H    0.000183  -0.000144   0.408645
 Mulliken charges:
               1
     1  C    0.992548
     2  C   -0.818045
     3  C   -0.638543
     4  C    0.071312
     5  H    0.210708
     6  C    0.007406
     7  C   -0.013291
     8  H    0.218240
     9  C   -0.462791
    10  H    0.207475
    11  O   -0.172311
    12  O   -0.332102
    13  H    0.213422
    14  H    0.187331
    15  H    0.328641
 Sum of Mulliken charges =  -0.00000
 Mulliken charges with hydrogens summed into heavy atoms:
               1
     1  C    0.992548
     2  C   -0.607336
     3  C   -0.420303
     4  C    0.278787
     6  C    0.007406
     7  C    0.200131
     9  C   -0.275460
    11  O    0.156330
    12  O   -0.332102
 Electronic spatial extent (au):  <R**2>=           1157.9171
 Charge=             -0.0000 electrons
 Dipole moment (field-independent basis, Debye):
    X=              1.4246    Y=             -2.3226    Z=              0.4360  Tot=              2.7593
 Quadrupole moment (field-independent basis, Debye-Ang):
   XX=            -43.9343   YY=            -49.8193   ZZ=            -54.0014
   XY=              8.0891   XZ=             -1.6343   YZ=             -0.7101
 Traceless Quadrupole moment (field-independent basis, Debye-Ang):
   XX=              5.3174   YY=             -0.5677   ZZ=             -4.7498
   XY=              8.0891   XZ=             -1.6343   YZ=             -0.7101
 Octapole moment (field-independent basis, Debye-Ang**2):
  XXX=            -18.4785  YYY=             -4.3036  ZZZ=              0.1060  XYY=              7.0971
  XXY=            -26.3564  XXZ=              5.5391  XZZ=            -11.6769  YZZ=             -0.5282
  YYZ=              0.6014  XYZ=              2.2074
 Hexadecapole moment (field-independent basis, Debye-Ang**3):
 XXXX=           -884.6234 YYYY=           -358.7703 ZZZZ=            -58.5807 XXXY=             89.4188
 XXXZ=            -19.3022 YYYX=             16.6507 YYYZ=             -1.2819 ZZZX=             -0.8797
 ZZZY=             -0.2938 XXYY=           -233.4832 XXZZ=           -193.4223 YYZZ=            -78.8321
 XXYZ=             -6.9683 YYXZ=             -1.9800 ZZXY=              2.3450
 N-N= 4.095680106553D+02 E-N=-1.802655108531D+03  KE= 4.201245044292D+02
 No NMR shielding tensors so no spin-rotation constants.
 Leave Link  601 at Sun Nov 20 17:26:35 2022, MaxMem= 16106127360 cpu:               3.5 elap:               0.1
 (Enter /opt/ap/G16/B01/g16/l9999.exe)
 1\1\GINC-N05\SP\RwB97XD\6-311++G(d,p)\C7H6O2\ROOT\20-Nov-2022\0\\#P wB
 97XD/6-311++G(d,p) scf=maxcycle=512\\_conf014.gjf nmol_natom 1_15\\0,1
 \C\C,1,1.39016191\C,1,1.39194539,2,119.895942\C,2,1.38669027,1,119.880
 75721,3,0.70825972,0\H,2,0.98744251,1,119.71654057,3,-179.90726164,0\C
 ,1,1.48428757,2,119.93615286,4,-179.87772406,0\C,3,1.40101108,1,119.72
 36454,2,-0.26266839,0\H,3,0.9902154,1,119.1886159,2,178.85397616,0\C,4
 ,1.37899003,2,120.45785903,1,-0.48041454,0\H,4,0.9834739,2,120.3044270
 6,1,179.36166981,0\O,6,1.27459751,1,118.00615353,2,-1.25976832,0\O,6,1
 .26362572,1,118.77715367,2,179.20603801,0\H,7,0.98977053,3,119.3786157
 8,1,-178.93545741,0\H,9,0.99498061,4,119.46722635,2,-178.58826714,0\H,
 11,0.89680392,6,118.15823763,1,-200.,0\\Version=ES64L-G16RevB.01\State
 =1-A\HF=-420.7451942\RMSD=7.944e-09\Dipole=0.0553623,0.1729951,1.07030
 3\Quadrupole=8.0137199,-3.5432611,-4.4704588,-1.2692991,-1.4341584,-0.
 1238449\PG=C01 [X(C7H6O2)]\\@


 DON'T WORRY CHARLIE BROWN...WE LEARN MORE FROM LOSING 
 THAN WE DO FROM WINNING.
 THEN THAT MAKES ME THE SMARTEST PERSON IN THE WORLD...
 CHARLES SCHULZ 'PEANUTS'
 Job cpu time:       0 days  0 hours  7 minutes 30.4 seconds.
 Elapsed time:       0 days  0 hours  0 minutes 14.2 seconds.
 File lengths (MBytes):  RWF=     35 Int=      0 D2E=      0 Chk=      4 Scr=      1
 Normal termination of Gaussian 16 at Sun Nov 20 17:26:35 2022.
