 Entering Gaussian System, Link 0=g16
 Input=_conf016.gjf
 Output=_conf016.log
 Initial command:
 /opt/ap/G16/B01/g16/l1.exe "/tmp2/scr/Gau-6580.inp" -scrdir="/tmp2/scr/"
 Entering Link 1 = /opt/ap/G16/B01/g16/l1.exe PID=      6581.
  
 Copyright (c) 1988-2017, Gaussian, Inc.  All Rights Reserved.
  
 This is part of the Gaussian(R) 16 program.  It is based on
 the Gaussian(R) 09 system (copyright 2009, Gaussian, Inc.),
 the Gaussian(R) 03 system (copyright 2003, Gaussian, Inc.),
 the Gaussian(R) 98 system (copyright 1998, Gaussian, Inc.),
 the Gaussian(R) 94 system (copyright 1995, Gaussian, Inc.),
 the Gaussian 92(TM) system (copyright 1992, Gaussian, Inc.),
 the Gaussian 90(TM) system (copyright 1990, Gaussian, Inc.),
 the Gaussian 88(TM) system (copyright 1988, Gaussian, Inc.),
 the Gaussian 86(TM) system (copyright 1986, Carnegie Mellon
 University), and the Gaussian 82(TM) system (copyright 1983,
 Carnegie Mellon University). Gaussian is a federally registered
 trademark of Gaussian, Inc.
  
 This software contains proprietary and confidential information,
 including trade secrets, belonging to Gaussian, Inc.
  
 This software is provided under written license and may be
 used, copied, transmitted, or stored only in accord with that
 written license.
  
 The following legend is applicable only to US Government
 contracts under FAR:
  
                    RESTRICTED RIGHTS LEGEND
  
 Use, reproduction and disclosure by the US Government is
 subject to restrictions as set forth in subparagraphs (a)
 and (c) of the Commercial Computer Software - Restricted
 Rights clause in FAR 52.227-19.
  
 Gaussian, Inc.
 340 Quinnipiac St., Bldg. 40, Wallingford CT 06492
  
  
 ---------------------------------------------------------------
 Warning -- This program may not be used in any manner that
 competes with the business of Gaussian, Inc. or will provide
 assistance to any competitor of Gaussian, Inc.  The licensee
 of this program is prohibited from giving any competitor of
 Gaussian, Inc. access to this program.  By using this program,
 the user acknowledges that Gaussian, Inc. is engaged in the
 business of creating and licensing software in the field of
 computational chemistry and represents and warrants to the
 licensee that it is not a competitor of Gaussian, Inc. and that
 it will not use this program in any manner prohibited above.
 ---------------------------------------------------------------
  

 Cite this work as:
 Gaussian 16, Revision B.01,
 M. J. Frisch, G. W. Trucks, H. B. Schlegel, G. E. Scuseria, 
 M. A. Robb, J. R. Cheeseman, G. Scalmani, V. Barone, 
 G. A. Petersson, H. Nakatsuji, X. Li, M. Caricato, A. V. Marenich, 
 J. Bloino, B. G. Janesko, R. Gomperts, B. Mennucci, H. P. Hratchian, 
 J. V. Ortiz, A. F. Izmaylov, J. L. Sonnenberg, D. Williams-Young, 
 F. Ding, F. Lipparini, F. Egidi, J. Goings, B. Peng, A. Petrone, 
 T. Henderson, D. Ranasinghe, V. G. Zakrzewski, J. Gao, N. Rega, 
 G. Zheng, W. Liang, M. Hada, M. Ehara, K. Toyota, R. Fukuda, 
 J. Hasegawa, M. Ishida, T. Nakajima, Y. Honda, O. Kitao, H. Nakai, 
 T. Vreven, K. Throssell, J. A. Montgomery, Jr., J. E. Peralta, 
 F. Ogliaro, M. J. Bearpark, J. J. Heyd, E. N. Brothers, K. N. Kudin, 
 V. N. Staroverov, T. A. Keith, R. Kobayashi, J. Normand, 
 K. Raghavachari, A. P. Rendell, J. C. Burant, S. S. Iyengar, 
 J. Tomasi, M. Cossi, J. M. Millam, M. Klene, C. Adamo, R. Cammi, 
 J. W. Ochterski, R. L. Martin, K. Morokuma, O. Farkas, 
 J. B. Foresman, and D. J. Fox, Gaussian, Inc., Wallingford CT, 2016.
 
 ******************************************
 Gaussian 16:  ES64L-G16RevB.01 20-Dec-2017
                20-Nov-2022 
 ******************************************
 %nprocshared=32
 Will use up to   32 processors via shared memory.
 %mem=120GB
 %chk=_conf016.chk
 ----------------------------------------
 #P wB97XD/6-311++G(d,p) scf=maxcycle=512
 ----------------------------------------
 1/38=1,172=1/1;
 2/12=2,17=6,18=5,40=1/2;
 3/5=4,6=6,7=1111,11=2,25=1,30=1,74=-58/1,2,3;
 4//1;
 5/5=2,7=512,38=5/2;
 6/7=2,8=2,9=2,10=2,28=1/1;
 99/5=1,9=1/99;
 Leave Link    1 at Sun Nov 20 17:26:37 2022, MaxMem= 16106127360 cpu:               1.6 elap:               0.1
 (Enter /opt/ap/G16/B01/g16/l101.exe)
 ----------------------------
 _conf016.gjf nmol_natom 1_15
 ----------------------------
 Symbolic Z-matrix:
 Charge =  0 Multiplicity = 1
 C
 C                    1     1.39016 
 C                    1     1.39195  2     119.89594 
 C                    2     1.38669  1     119.88076  3     0.70826  0
 H                    2     0.98744  1     119.71654  3    -179.90726  0
 C                    1     1.48429  2     119.93615  4    -179.87772  0
 C                    3     1.40101  1     119.72365  2    -0.26267  0
 H                    3     0.99022  1     119.18862  2     178.85398  0
 C                    4     1.37899  2     120.45786  1    -0.48041  0
 H                    4     0.98347  2     120.30443  1     179.36167  0
 O                    6     1.2746   1     118.00615  2    -1.25977  0
 O                    6     1.26363  1     118.77715  2     179.20604  0
 H                    7     0.98977  3     119.37862  1    -178.93546  0
 H                    9     0.99498  4     119.46723  2    -178.58827  0
 H                    11    0.8968   6     118.15824  1    -190.     0
 
 ITRead=  0  0  0  0  0  0  0  0  0  0  0  0  0  0  0
 MicOpt= -1 -1 -1 -1 -1 -1 -1 -1 -1 -1 -1 -1 -1 -1 -1
 NAtoms=     15 NQM=       15 NQMF=       0 NMMI=      0 NMMIF=      0
                NMic=       0 NMicF=      0.
                    Isotopes and Nuclear Properties:
 (Nuclear quadrupole moments (NQMom) in fm**2, nuclear magnetic moments (NMagM)
  in nuclear magnetons)

  Atom         1           2           3           4           5           6           7           8           9          10
 IAtWgt=          12          12          12          12           1          12          12           1          12           1
 AtmWgt=  12.0000000  12.0000000  12.0000000  12.0000000   1.0078250  12.0000000  12.0000000   1.0078250  12.0000000   1.0078250
 NucSpn=           0           0           0           0           1           0           0           1           0           1
 AtZEff=  -0.0000000  -0.0000000  -0.0000000  -0.0000000  -0.0000000  -0.0000000  -0.0000000  -0.0000000  -0.0000000  -0.0000000
 NQMom=    0.0000000   0.0000000   0.0000000   0.0000000   0.0000000   0.0000000   0.0000000   0.0000000   0.0000000   0.0000000
 NMagM=    0.0000000   0.0000000   0.0000000   0.0000000   2.7928460   0.0000000   0.0000000   2.7928460   0.0000000   2.7928460
 AtZNuc=   6.0000000   6.0000000   6.0000000   6.0000000   1.0000000   6.0000000   6.0000000   1.0000000   6.0000000   1.0000000

  Atom        11          12          13          14          15
 IAtWgt=          16          16           1           1           1
 AtmWgt=  15.9949146  15.9949146   1.0078250   1.0078250   1.0078250
 NucSpn=           0           0           1           1           1
 AtZEff=  -0.0000000  -0.0000000  -0.0000000  -0.0000000  -0.0000000
 NQMom=    0.0000000   0.0000000   0.0000000   0.0000000   0.0000000
 NMagM=    0.0000000   0.0000000   2.7928460   2.7928460   2.7928460
 AtZNuc=   8.0000000   8.0000000   1.0000000   1.0000000   1.0000000
 Leave Link  101 at Sun Nov 20 17:26:37 2022, MaxMem= 16106127360 cpu:               5.2 elap:               0.2
 (Enter /opt/ap/G16/B01/g16/l202.exe)
                          Input orientation:                          
 ---------------------------------------------------------------------
 Center     Atomic      Atomic             Coordinates (Angstroms)
 Number     Number       Type             X           Y           Z
 ---------------------------------------------------------------------
      1          6           0        0.000000    0.000000    0.000000
      2          6           0        0.000000    0.000000    1.390162
      3          6           0        1.206722    0.000000   -0.693782
      4          6           0        1.202258    0.014862    2.081006
      5          1           0       -0.857581   -0.001388    1.879646
      6          6           0       -1.286190   -0.013155   -0.740711
      7          6           0        2.415349    0.005578    0.014752
      8          1           0        1.194584   -0.017290   -1.683772
      9          6           0        2.400563    0.019708    1.398617
     10          1           0        1.209438    0.024411    3.064408
     11          8           0       -2.365984   -0.048941   -0.064425
     12          8           0       -1.260842    0.002453   -2.003986
     13          1           0        3.270315    0.021574   -0.483669
     14          1           0        3.254554    0.009066    1.909081
     15          1           0       -3.140814    0.080230   -0.497102
 ---------------------------------------------------------------------
                    Distance matrix (angstroms):
                    1          2          3          4          5
     1  C    0.000000
     2  C    1.390162   0.000000
     3  C    1.391945   2.408112   0.000000
     4  C    2.403379   1.386690   2.774832   0.000000
     5  H    2.066039   0.987443   3.299073   2.069721   0.000000
     6  C    1.484288   2.488991   2.493388   3.762345   2.655206
     7  C    2.415401   2.779513   1.401011   2.396056   3.766955
     8  H    2.064563   3.297939   0.990215   3.764924   4.112127
     9  C    2.778349   2.400659   2.409104   1.378990   3.293530
    10  H    3.294530   2.065535   3.758270   0.983474   2.382624
    11  O    2.367367   2.777786   3.628045   4.164047   2.461088
    12  O    2.367633   3.620769   2.793834   4.770133   3.904515
    13  H    3.305958   3.769173   2.074374   3.294611   4.756607
    14  H    3.773167   3.295676   3.311886   2.059493   4.112253
    15  H    3.180922   3.665094   4.352723   5.051058   3.296779
                    6          7          8          9         10
     6  C    0.000000
     7  C    3.777892   0.000000
     8  H    2.653982   2.091836   0.000000
     9  C    4.262622   1.384016   3.310118   0.000000
    10  H    4.550659   3.279477   4.748386   2.047842   0.000000
    11  O    1.274598   4.782299   3.911641   4.986499   4.751696
    12  O    1.263626   4.194007   2.476296   4.998389   5.638384
    13  H    4.563881   0.989771   2.398003   2.073517   4.103177
    14  H    5.257398   2.071897   4.141589   0.994981   2.348938
    15  H    1.872885   5.580190   4.495929   5.856985   5.622470
                   11         12         13         14         15
    11  O    0.000000
    12  O    2.232908   0.000000
    13  H    5.652309   4.779447   0.000000
    14  H    5.957225   5.975025   2.392834   0.000000
    15  H    0.896804   2.410611   6.411412   6.833411   0.000000
 Stoichiometry    C7H6O2
 Framework group  C1[X(C7H6O2)]
 Deg. of freedom    39
 Full point group                 C1      NOp   1
 Largest Abelian subgroup         C1      NOp   1
 Largest concise Abelian subgroup C1      NOp   1
                         Standard orientation:                         
 ---------------------------------------------------------------------
 Center     Atomic      Atomic             Coordinates (Angstroms)
 Number     Number       Type             X           Y           Z
 ---------------------------------------------------------------------
      1          6           0       -0.220768    0.028319    0.002783
      2          6           0        0.443289   -1.192983    0.002345
      3          6           0        0.507940    1.214248   -0.005580
      4          6           0        1.829583   -1.225579    0.008440
      5          1           0       -0.076294   -2.032659    0.006901
      6          6           0       -1.704606    0.064638   -0.000993
      7          6           0        1.908221    1.169123   -0.008820
      8          1           0        0.024265    2.078134   -0.022472
      9          6           0        2.556370   -0.053666    0.004980
     10          1           0        2.305707   -2.086069    0.017629
     11          8           0       -2.330393   -1.045401   -0.029312
     12          8           0       -2.285683    1.186623    0.014832
     13          1           0        2.421330    2.015446    0.001253
     14          1           0        3.550380   -0.094229   -0.011896
     15          1           0       -3.216945   -1.034993    0.105501
 ---------------------------------------------------------------------
 Rotational constants (GHZ):           3.9679977           1.2389988           0.9442914
 Leave Link  202 at Sun Nov 20 17:26:37 2022, MaxMem= 16106127360 cpu:               0.5 elap:               0.0
 (Enter /opt/ap/G16/B01/g16/l301.exe)
 Standard basis: 6-311++G(d,p) (5D, 7F)
 Ernie: Thresh=  0.10000D-02 Tol=  0.10000D-05 Strict=F.
 There are   249 symmetry adapted cartesian basis functions of A   symmetry.
 There are   240 symmetry adapted basis functions of A   symmetry.
   240 basis functions,   378 primitive gaussians,   249 cartesian basis functions
    32 alpha electrons       32 beta electrons
       nuclear repulsion energy       409.5641315918 Hartrees.
 IExCor= 4639 DFT=T Ex+Corr=wB97XD ExCW=0 ScaHFX=  1.000000
 ScaDFX=  1.000000  1.000000  1.000000  1.000000 ScalE2=  1.000000  1.000000
 IRadAn=      5 IRanWt=     -1 IRanGd=            0 ICorTp=0 IEmpDi=121
 HFx  wShort=  0.000000 wLong=  0.200000 cFull=  0.222036 cShort=  0.000000 cLong=  0.777964
 DFx  wShort=  0.000000 wLong=  0.200000 cFull=  0.000000 cShort=  0.000000 cLong=  1.000000
 NAtoms=   15 NActive=   15 NUniq=   15 SFac= 1.00D+00 NAtFMM=   60 NAOKFM=F Big=F
 Integral buffers will be    131072 words long.
 Raffenetti 2 integral format.
 Two-electron integral symmetry is turned on.
 R6Disp:  Grimme-D2 Dispersion energy=       -0.0063294303 Hartrees.
 Nuclear repulsion after empirical dispersion term =      409.5578021615 Hartrees.
 Leave Link  301 at Sun Nov 20 17:26:37 2022, MaxMem= 16106127360 cpu:               1.2 elap:               0.0
 (Enter /opt/ap/G16/B01/g16/l302.exe)
 NPDir=0 NMtPBC=     1 NCelOv=     1 NCel=       1 NClECP=     1 NCelD=      1
         NCelK=      1 NCelE2=     1 NClLst=     1 CellRange=     0.0.
 One-electron integrals computed using PRISM.
 One-electron integral symmetry used in STVInt
 NBasis=   240 RedAO= T EigKep=  1.22D-06  NBF=   240
 NBsUse=   240 1.00D-06 EigRej= -1.00D+00 NBFU=   240
 Precomputing XC quadrature grid using
 IXCGrd= 4 IRadAn=           5 IRanWt=          -1 IRanGd=           0 AccXCQ= 0.00D+00.
 Generated NRdTot=       0 NPtTot=           0 NUsed=           0 NTot=          32
 NSgBfM=   249   249   249   249   249 MxSgAt=    15 MxSgA2=    15.
 Leave Link  302 at Sun Nov 20 17:26:37 2022, MaxMem= 16106127360 cpu:               5.3 elap:               0.2
 (Enter /opt/ap/G16/B01/g16/l303.exe)
 DipDrv:  MaxL=1.
 Leave Link  303 at Sun Nov 20 17:26:37 2022, MaxMem= 16106127360 cpu:               1.2 elap:               0.0
 (Enter /opt/ap/G16/B01/g16/l401.exe)
 ExpMin= 3.60D-02 ExpMax= 8.59D+03 ExpMxC= 1.30D+03 IAcc=3 IRadAn=         5 AccDes= 0.00D+00
 Harris functional with IExCor= 4639 and IRadAn=       5 diagonalized for initial guess.
 HarFok:  IExCor= 4639 AccDes= 0.00D+00 IRadAn=         5 IDoV= 1 UseB2=F ITyADJ=14
 ICtDFT=  3500011 ScaDFX=  1.000000  1.000000  1.000000  1.000000
 FoFCou: FMM=F IPFlag=           0 FMFlag=      100000 FMFlg1=           0
         NFxFlg=           0 DoJE=T BraDBF=F KetDBF=T FulRan=T
         wScrn=  0.000000 ICntrl=       500 IOpCl=  0 I1Cent=   200000004 NGrid=           0
         NMat0=    1 NMatS0=      1 NMatT0=    0 NMatD0=    1 NMtDS0=    0 NMtDT0=    0
 Petite list used in FoFCou.
 Harris En= -403.254443529017    
 JPrj=0 DoOrth=F DoCkMO=F.
 Leave Link  401 at Sun Nov 20 17:26:38 2022, MaxMem= 16106127360 cpu:              11.7 elap:               0.4
 (Enter /opt/ap/G16/B01/g16/l502.exe)
 Integral symmetry usage will be decided dynamically.
 Closed shell SCF:
 Using DIIS extrapolation, IDIIS=  1040.
 NGot= 16106127360 LenX= 16105992971 LenY= 16105930529
 Requested convergence on RMS density matrix=1.00D-08 within 512 cycles.
 Requested convergence on MAX density matrix=1.00D-06.
 Requested convergence on             energy=1.00D-06.
 No special actions if energy rises.
 Fock matrices will be formed incrementally for  20 cycles.

 Cycle   1  Pass 1  IDiag  1:
 FoFJK:  IHMeth= 1 ICntrl=       0 DoSepK=T KAlg= 0 I1Cent=           0 FoldK=F
 IRaf=         1 NMat=       1 IRICut=       1 DoRegI=T DoRafI=F ISym2E= 0 IDoP0=0 IntGTp=1.
 FoFCou: FMM=F IPFlag=           0 FMFlag=      100000 FMFlg1=           0
         NFxFlg=           0 DoJE=T BraDBF=F KetDBF=F FulRan=T
         wScrn=  0.000000 ICntrl=       500 IOpCl=  0 I1Cent=           0 NGrid=           0
         NMat0=    1 NMatS0=      1 NMatT0=    0 NMatD0=    1 NMtDS0=    0 NMtDT0=    0
 Symmetry not used in FoFCou.
 E= -420.632322559988    
 DIIS: error= 8.21D-02 at cycle   1 NSaved=   1.
 NSaved= 1 IEnMin= 1 EnMin= -420.632322559988     IErMin= 1 ErrMin= 8.21D-02
 ErrMax= 8.21D-02  0.00D+00 EMaxC= 1.00D-01 BMatC= 8.61D-01 BMatP= 8.61D-01
 IDIUse=3 WtCom= 1.79D-01 WtEn= 8.21D-01
 Coeff-Com:  0.100D+01
 Coeff-En:   0.100D+01
 Coeff:      0.100D+01
 Gap=     0.427 Goal=   None    Shift=    0.000
 GapD=    0.427 DampG=2.000 DampE=0.500 DampFc=1.0000 IDamp=-1.
 RMSDP=3.23D-02 MaxDP=2.87D+00              OVMax= 1.10D-01

 Cycle   2  Pass 1  IDiag  1:
 RMSU=  1.45D-02    CP:  6.76D-01
 E= -420.703205863768     Delta-E=       -0.070883303780 Rises=F Damp=F
 DIIS: error= 1.54D-02 at cycle   2 NSaved=   2.
 NSaved= 2 IEnMin= 2 EnMin= -420.703205863768     IErMin= 2 ErrMin= 1.54D-02
 ErrMax= 1.54D-02  0.00D+00 EMaxC= 1.00D-01 BMatC= 5.71D-02 BMatP= 8.61D-01
 IDIUse=3 WtCom= 8.46D-01 WtEn= 1.54D-01
 Coeff-Com:  0.135D+00 0.865D+00
 Coeff-En:   0.970D-01 0.903D+00
 Coeff:      0.129D+00 0.871D+00
 Gap=     0.423 Goal=   None    Shift=    0.000
 RMSDP=7.67D-03 MaxDP=3.12D-01 DE=-7.09D-02 OVMax= 7.75D-02

 Cycle   3  Pass 1  IDiag  1:
 RMSU=  7.01D-03    CP:  6.70D-01  7.90D-01
 E= -420.719453928763     Delta-E=       -0.016248064995 Rises=F Damp=F
 DIIS: error= 1.64D-02 at cycle   3 NSaved=   3.
 NSaved= 3 IEnMin= 3 EnMin= -420.719453928763     IErMin= 2 ErrMin= 1.54D-02
 ErrMax= 1.64D-02  0.00D+00 EMaxC= 1.00D-01 BMatC= 3.57D-02 BMatP= 5.71D-02
 IDIUse=3 WtCom= 8.36D-01 WtEn= 1.64D-01
 Coeff-Com:  0.275D-01 0.447D+00 0.526D+00
 Coeff-En:   0.000D+00 0.383D+00 0.617D+00
 Coeff:      0.230D-01 0.436D+00 0.541D+00
 Gap=     0.360 Goal=   None    Shift=    0.000
 RMSDP=4.22D-03 MaxDP=3.87D-01 DE=-1.62D-02 OVMax= 5.37D-02

 Cycle   4  Pass 1  IDiag  1:
 RMSU=  1.98D-03    CP:  6.43D-01  8.86D-01  6.44D-01
 E= -420.745388060164     Delta-E=       -0.025934131401 Rises=F Damp=F
 DIIS: error= 3.07D-03 at cycle   4 NSaved=   4.
 NSaved= 4 IEnMin= 4 EnMin= -420.745388060164     IErMin= 4 ErrMin= 3.07D-03
 ErrMax= 3.07D-03  0.00D+00 EMaxC= 1.00D-01 BMatC= 1.95D-03 BMatP= 3.57D-02
 IDIUse=3 WtCom= 9.69D-01 WtEn= 3.07D-02
 Coeff-Com:  0.105D-01 0.222D+00 0.306D+00 0.462D+00
 Coeff-En:   0.000D+00 0.000D+00 0.000D+00 0.100D+01
 Coeff:      0.101D-01 0.215D+00 0.296D+00 0.479D+00
 Gap=     0.350 Goal=   None    Shift=    0.000
 RMSDP=9.75D-04 MaxDP=4.90D-02 DE=-2.59D-02 OVMax= 1.25D-02

 Cycle   5  Pass 1  IDiag  1:
 RMSU=  7.17D-04    CP:  6.41D-01  8.68D-01  7.08D-01  8.22D-01
 E= -420.746706285750     Delta-E=       -0.001318225586 Rises=F Damp=F
 DIIS: error= 5.98D-04 at cycle   5 NSaved=   5.
 NSaved= 5 IEnMin= 5 EnMin= -420.746706285750     IErMin= 5 ErrMin= 5.98D-04
 ErrMax= 5.98D-04  0.00D+00 EMaxC= 1.00D-01 BMatC= 5.39D-05 BMatP= 1.95D-03
 IDIUse=3 WtCom= 9.94D-01 WtEn= 5.98D-03
 Coeff-Com:  0.306D-03 0.152D-01 0.304D-01 0.155D+00 0.799D+00
 Coeff-En:   0.000D+00 0.000D+00 0.000D+00 0.000D+00 0.100D+01
 Coeff:      0.304D-03 0.151D-01 0.302D-01 0.154D+00 0.800D+00
 Gap=     0.349 Goal=   None    Shift=    0.000
 RMSDP=2.36D-04 MaxDP=1.38D-02 DE=-1.32D-03 OVMax= 2.57D-03

 Cycle   6  Pass 1  IDiag  1:
 RMSU=  1.22D-04    CP:  6.39D-01  8.72D-01  7.21D-01  8.52D-01  9.98D-01
 E= -420.746747805734     Delta-E=       -0.000041519983 Rises=F Damp=F
 DIIS: error= 2.14D-04 at cycle   6 NSaved=   6.
 NSaved= 6 IEnMin= 6 EnMin= -420.746747805734     IErMin= 6 ErrMin= 2.14D-04
 ErrMax= 2.14D-04  0.00D+00 EMaxC= 1.00D-01 BMatC= 7.40D-06 BMatP= 5.39D-05
 IDIUse=3 WtCom= 9.98D-01 WtEn= 2.14D-03
 Coeff-Com: -0.965D-03-0.166D-01-0.180D-01 0.155D-01 0.347D+00 0.673D+00
 Coeff-En:   0.000D+00 0.000D+00 0.000D+00 0.000D+00 0.000D+00 0.100D+01
 Coeff:     -0.963D-03-0.166D-01-0.180D-01 0.154D-01 0.346D+00 0.674D+00
 Gap=     0.350 Goal=   None    Shift=    0.000
 RMSDP=1.88D-04 MaxDP=1.79D-02 DE=-4.15D-05 OVMax= 8.17D-04

 Cycle   7  Pass 1  IDiag  1:
 RMSU=  5.49D-05    CP:  6.37D-01  8.70D-01  7.31D-01  8.63D-01  1.07D+00
                    CP:  1.13D+00
 E= -420.746754965727     Delta-E=       -0.000007159994 Rises=F Damp=F
 DIIS: error= 6.79D-05 at cycle   7 NSaved=   7.
 NSaved= 7 IEnMin= 7 EnMin= -420.746754965727     IErMin= 7 ErrMin= 6.79D-05
 ErrMax= 6.79D-05  0.00D+00 EMaxC= 1.00D-01 BMatC= 3.10D-07 BMatP= 7.40D-06
 IDIUse=1 WtCom= 1.00D+00 WtEn= 0.00D+00
 Coeff-Com: -0.236D-03-0.547D-02-0.686D-02-0.134D-01 0.142D-03 0.135D+00
 Coeff-Com:  0.891D+00
 Coeff:     -0.236D-03-0.547D-02-0.686D-02-0.134D-01 0.142D-03 0.135D+00
 Coeff:      0.891D+00
 Gap=     0.350 Goal=   None    Shift=    0.000
 RMSDP=4.79D-05 MaxDP=3.40D-03 DE=-7.16D-06 OVMax= 3.13D-04

 Cycle   8  Pass 1  IDiag  1:
 RMSU=  1.47D-05    CP:  6.37D-01  8.69D-01  7.34D-01  8.65D-01  1.11D+00
                    CP:  1.16D+00  1.07D+00
 E= -420.746755533784     Delta-E=       -0.000000568057 Rises=F Damp=F
 DIIS: error= 1.54D-05 at cycle   8 NSaved=   8.
 NSaved= 8 IEnMin= 8 EnMin= -420.746755533784     IErMin= 8 ErrMin= 1.54D-05
 ErrMax= 1.54D-05  0.00D+00 EMaxC= 1.00D-01 BMatC= 4.08D-08 BMatP= 3.10D-07
 IDIUse=1 WtCom= 1.00D+00 WtEn= 0.00D+00
 Coeff-Com:  0.307D-04 0.262D-03 0.141D-03-0.590D-02-0.374D-01-0.373D-01
 Coeff-Com:  0.240D+00 0.840D+00
 Coeff:      0.307D-04 0.262D-03 0.141D-03-0.590D-02-0.374D-01-0.373D-01
 Coeff:      0.240D+00 0.840D+00
 Gap=     0.350 Goal=   None    Shift=    0.000
 RMSDP=1.42D-05 MaxDP=7.27D-04 DE=-5.68D-07 OVMax= 1.17D-04

 Cycle   9  Pass 1  IDiag  1:
 RMSU=  4.82D-06    CP:  6.37D-01  8.69D-01  7.35D-01  8.62D-01  1.12D+00
                    CP:  1.18D+00  1.15D+00  1.18D+00
 E= -420.746755605118     Delta-E=       -0.000000071334 Rises=F Damp=F
 DIIS: error= 1.03D-05 at cycle   9 NSaved=   9.
 NSaved= 9 IEnMin= 9 EnMin= -420.746755605118     IErMin= 9 ErrMin= 1.03D-05
 ErrMax= 1.03D-05  0.00D+00 EMaxC= 1.00D-01 BMatC= 4.61D-09 BMatP= 4.08D-08
 IDIUse=1 WtCom= 1.00D+00 WtEn= 0.00D+00
 Coeff-Com:  0.365D-04 0.697D-03 0.850D-03-0.341D-03-0.101D-01-0.264D-01
 Coeff-Com: -0.275D-01 0.247D+00 0.815D+00
 Coeff:      0.365D-04 0.697D-03 0.850D-03-0.341D-03-0.101D-01-0.264D-01
 Coeff:     -0.275D-01 0.247D+00 0.815D+00
 Gap=     0.350 Goal=   None    Shift=    0.000
 RMSDP=5.18D-06 MaxDP=3.15D-04 DE=-7.13D-08 OVMax= 4.96D-05

 Cycle  10  Pass 1  IDiag  1:
 RMSU=  1.63D-06    CP:  6.37D-01  8.69D-01  7.35D-01  8.60D-01  1.12D+00
                    CP:  1.19D+00  1.17D+00  1.28D+00  1.31D+00
 E= -420.746755613246     Delta-E=       -0.000000008127 Rises=F Damp=F
 DIIS: error= 1.52D-06 at cycle  10 NSaved=  10.
 NSaved=10 IEnMin=10 EnMin= -420.746755613246     IErMin=10 ErrMin= 1.52D-06
 ErrMax= 1.52D-06  0.00D+00 EMaxC= 1.00D-01 BMatC= 5.65D-10 BMatP= 4.61D-09
 IDIUse=1 WtCom= 1.00D+00 WtEn= 0.00D+00
 Coeff-Com:  0.630D-05 0.141D-03 0.197D-03 0.419D-03 0.132D-02-0.376D-02
 Coeff-Com: -0.300D-01-0.266D-01 0.224D+00 0.834D+00
 Coeff:      0.630D-05 0.141D-03 0.197D-03 0.419D-03 0.132D-02-0.376D-02
 Coeff:     -0.300D-01-0.266D-01 0.224D+00 0.834D+00
 Gap=     0.350 Goal=   None    Shift=    0.000
 RMSDP=1.72D-06 MaxDP=9.28D-05 DE=-8.13D-09 OVMax= 1.32D-05

 Cycle  11  Pass 1  IDiag  1:
 RMSU=  3.74D-07    CP:  6.37D-01  8.69D-01  7.35D-01  8.60D-01  1.12D+00
                    CP:  1.18D+00  1.17D+00  1.33D+00  1.44D+00  1.20D+00
 E= -420.746755614147     Delta-E=       -0.000000000902 Rises=F Damp=F
 DIIS: error= 1.02D-06 at cycle  11 NSaved=  11.
 NSaved=11 IEnMin=11 EnMin= -420.746755614147     IErMin=11 ErrMin= 1.02D-06
 ErrMax= 1.02D-06  0.00D+00 EMaxC= 1.00D-01 BMatC= 1.01D-10 BMatP= 5.65D-10
 IDIUse=1 WtCom= 1.00D+00 WtEn= 0.00D+00
 Coeff-Com: -0.147D-05-0.111D-04 0.166D-05 0.244D-03 0.187D-02 0.132D-02
 Coeff-Com: -0.834D-02-0.455D-01-0.131D-01 0.336D+00 0.727D+00
 Coeff:     -0.147D-05-0.111D-04 0.166D-05 0.244D-03 0.187D-02 0.132D-02
 Coeff:     -0.834D-02-0.455D-01-0.131D-01 0.336D+00 0.727D+00
 Gap=     0.350 Goal=   None    Shift=    0.000
 RMSDP=6.57D-07 MaxDP=3.75D-05 DE=-9.02D-10 OVMax= 6.94D-06

 Cycle  12  Pass 1  IDiag  1:
 RMSU=  2.20D-07    CP:  6.37D-01  8.69D-01  7.35D-01  8.60D-01  1.12D+00
                    CP:  1.18D+00  1.18D+00  1.33D+00  1.49D+00  1.32D+00
                    CP:  1.02D+00
 E= -420.746755614284     Delta-E=       -0.000000000136 Rises=F Damp=F
 DIIS: error= 2.33D-07 at cycle  12 NSaved=  12.
 NSaved=12 IEnMin=12 EnMin= -420.746755614284     IErMin=12 ErrMin= 2.33D-07
 ErrMax= 2.33D-07  0.00D+00 EMaxC= 1.00D-01 BMatC= 7.63D-12 BMatP= 1.01D-10
 IDIUse=1 WtCom= 1.00D+00 WtEn= 0.00D+00
 Coeff-Com: -0.955D-06-0.151D-04-0.154D-04 0.397D-04 0.454D-03 0.581D-03
 Coeff-Com:  0.586D-03-0.116D-01-0.219D-01 0.258D-01 0.203D+00 0.803D+00
 Coeff:     -0.955D-06-0.151D-04-0.154D-04 0.397D-04 0.454D-03 0.581D-03
 Coeff:      0.586D-03-0.116D-01-0.219D-01 0.258D-01 0.203D+00 0.803D+00
 Gap=     0.350 Goal=   None    Shift=    0.000
 RMSDP=1.51D-07 MaxDP=1.10D-05 DE=-1.36D-10 OVMax= 2.07D-06

 Cycle  13  Pass 1  IDiag  1:
 RMSU=  6.45D-08    CP:  6.37D-01  8.69D-01  7.35D-01  8.60D-01  1.12D+00
                    CP:  1.18D+00  1.18D+00  1.33D+00  1.51D+00  1.34D+00
                    CP:  1.09D+00  1.01D+00
 E= -420.746755614297     Delta-E=       -0.000000000013 Rises=F Damp=F
 DIIS: error= 1.30D-07 at cycle  13 NSaved=  13.
 NSaved=13 IEnMin=13 EnMin= -420.746755614297     IErMin=13 ErrMin= 1.30D-07
 ErrMax= 1.30D-07  0.00D+00 EMaxC= 1.00D-01 BMatC= 1.30D-12 BMatP= 7.63D-12
 IDIUse=1 WtCom= 1.00D+00 WtEn= 0.00D+00
 Coeff-Com: -0.399D-08-0.395D-05-0.689D-05-0.336D-04-0.203D-03-0.954D-04
 Coeff-Com:  0.183D-02 0.438D-02-0.333D-02-0.532D-01-0.841D-01 0.234D+00
 Coeff-Com:  0.901D+00
 Coeff:     -0.399D-08-0.395D-05-0.689D-05-0.336D-04-0.203D-03-0.954D-04
 Coeff:      0.183D-02 0.438D-02-0.333D-02-0.532D-01-0.841D-01 0.234D+00
 Coeff:      0.901D+00
 Gap=     0.350 Goal=   None    Shift=    0.000
 RMSDP=8.44D-08 MaxDP=7.98D-06 DE=-1.34D-11 OVMax= 1.32D-06

 Cycle  14  Pass 1  IDiag  1:
 RMSU=  2.26D-08    CP:  6.37D-01  8.69D-01  7.35D-01  8.60D-01  1.12D+00
                    CP:  1.18D+00  1.18D+00  1.33D+00  1.50D+00  1.35D+00
                    CP:  1.12D+00  1.11D+00  1.25D+00
 E= -420.746755614299     Delta-E=       -0.000000000002 Rises=F Damp=F
 DIIS: error= 5.89D-08 at cycle  14 NSaved=  14.
 NSaved=14 IEnMin=14 EnMin= -420.746755614299     IErMin=14 ErrMin= 5.89D-08
 ErrMax= 5.89D-08  0.00D+00 EMaxC= 1.00D-01 BMatC= 1.06D-13 BMatP= 1.30D-12
 IDIUse=1 WtCom= 1.00D+00 WtEn= 0.00D+00
 Coeff-Com:  0.521D-07 0.837D-06 0.868D-06-0.450D-05-0.576D-04-0.399D-04
 Coeff-Com:  0.492D-04 0.118D-02 0.188D-02-0.612D-02-0.235D-01-0.599D-01
 Coeff-Com:  0.470D-01 0.104D+01
 Coeff:      0.521D-07 0.837D-06 0.868D-06-0.450D-05-0.576D-04-0.399D-04
 Coeff:      0.492D-04 0.118D-02 0.188D-02-0.612D-02-0.235D-01-0.599D-01
 Coeff:      0.470D-01 0.104D+01
 Gap=     0.350 Goal=   None    Shift=    0.000
 RMSDP=2.98D-08 MaxDP=2.56D-06 DE=-1.93D-12 OVMax= 5.06D-07

 Cycle  15  Pass 1  IDiag  1:
 RMSU=  7.04D-09    CP:  6.37D-01  8.69D-01  7.35D-01  8.60D-01  1.12D+00
                    CP:  1.18D+00  1.18D+00  1.33D+00  1.50D+00  1.35D+00
                    CP:  1.12D+00  1.11D+00  1.43D+00  1.26D+00
 E= -420.746755614296     Delta-E=        0.000000000003 Rises=F Damp=F
 DIIS: error= 3.35D-08 at cycle  15 NSaved=  15.
 NSaved=15 IEnMin=14 EnMin= -420.746755614299     IErMin=15 ErrMin= 3.35D-08
 ErrMax= 3.35D-08  0.00D+00 EMaxC= 1.00D-01 BMatC= 2.84D-14 BMatP= 1.06D-13
 IDIUse=1 WtCom= 1.00D+00 WtEn= 0.00D+00
 Coeff-Com:  0.146D-07 0.890D-06 0.145D-05 0.413D-05 0.121D-04 0.699D-05
 Coeff-Com: -0.274D-03-0.287D-03 0.131D-02 0.656D-02 0.561D-02-0.530D-01
 Coeff-Com: -0.127D+00 0.362D+00 0.805D+00
 Coeff:      0.146D-07 0.890D-06 0.145D-05 0.413D-05 0.121D-04 0.699D-05
 Coeff:     -0.274D-03-0.287D-03 0.131D-02 0.656D-02 0.561D-02-0.530D-01
 Coeff:     -0.127D+00 0.362D+00 0.805D+00
 Gap=     0.350 Goal=   None    Shift=    0.000
 RMSDP=8.31D-09 MaxDP=5.80D-07 DE= 3.41D-12 OVMax= 1.95D-07

 SCF Done:  E(RwB97XD) =  -420.746755614     A.U. after   15 cycles
            NFock= 15  Conv=0.83D-08     -V/T= 2.0015
 KE= 4.201217907713D+02 PE=-1.802630821028D+03 EE= 5.522044724810D+02
 Leave Link  502 at Sun Nov 20 17:26:55 2022, MaxMem= 16106127360 cpu:             547.1 elap:              17.5
 (Enter /opt/ap/G16/B01/g16/l601.exe)
 Copying SCF densities to generalized density rwf, IOpCl= 0 IROHF=0.

 **********************************************************************

            Population analysis using the SCF Density.

 **********************************************************************

 Orbital symmetries:
       Occupied  (A) (A) (A) (A) (A) (A) (A) (A) (A) (A) (A) (A)
                 (A) (A) (A) (A) (A) (A) (A) (A) (A) (A) (A) (A)
                 (A) (A) (A) (A) (A) (A) (A) (A)
       Virtual   (A) (A) (A) (A) (A) (A) (A) (A) (A) (A) (A) (A)
                 (A) (A) (A) (A) (A) (A) (A) (A) (A) (A) (A) (A)
                 (A) (A) (A) (A) (A) (A) (A) (A) (A) (A) (A) (A)
                 (A) (A) (A) (A) (A) (A) (A) (A) (A) (A) (A) (A)
                 (A) (A) (A) (A) (A) (A) (A) (A) (A) (A) (A) (A)
                 (A) (A) (A) (A) (A) (A) (A) (A) (A) (A) (A) (A)
                 (A) (A) (A) (A) (A) (A) (A) (A) (A) (A) (A) (A)
                 (A) (A) (A) (A) (A) (A) (A) (A) (A) (A) (A) (A)
                 (A) (A) (A) (A) (A) (A) (A) (A) (A) (A) (A) (A)
                 (A) (A) (A) (A) (A) (A) (A) (A) (A) (A) (A) (A)
                 (A) (A) (A) (A) (A) (A) (A) (A) (A) (A) (A) (A)
                 (A) (A) (A) (A) (A) (A) (A) (A) (A) (A) (A) (A)
                 (A) (A) (A) (A) (A) (A) (A) (A) (A) (A) (A) (A)
                 (A) (A) (A) (A) (A) (A) (A) (A) (A) (A) (A) (A)
                 (A) (A) (A) (A) (A) (A) (A) (A) (A) (A) (A) (A)
                 (A) (A) (A) (A) (A) (A) (A) (A) (A) (A) (A) (A)
                 (A) (A) (A) (A) (A) (A) (A) (A) (A) (A) (A) (A)
                 (A) (A) (A) (A)
 The electronic state is 1-A.
 Alpha  occ. eigenvalues --  -19.31609 -19.22781 -10.43159 -10.31033 -10.29310
 Alpha  occ. eigenvalues --  -10.29301 -10.29177 -10.28984 -10.28727  -1.25767
 Alpha  occ. eigenvalues --   -1.10609  -0.98068  -0.88911  -0.87005  -0.80538
 Alpha  occ. eigenvalues --   -0.73371  -0.71903  -0.65826  -0.60691  -0.58595
 Alpha  occ. eigenvalues --   -0.56739  -0.56124  -0.54521  -0.53463  -0.48853
 Alpha  occ. eigenvalues --   -0.47396  -0.45537  -0.44706  -0.41056  -0.36123
 Alpha  occ. eigenvalues --   -0.34656  -0.34298
 Alpha virt. eigenvalues --    0.00668   0.03740   0.04314   0.04531   0.05292
 Alpha virt. eigenvalues --    0.06468   0.07819   0.08687   0.10204   0.11433
 Alpha virt. eigenvalues --    0.11902   0.12931   0.13467   0.14381   0.14599
 Alpha virt. eigenvalues --    0.16003   0.16311   0.16933   0.17533   0.17999
 Alpha virt. eigenvalues --    0.18058   0.19578   0.20047   0.20275   0.20449
 Alpha virt. eigenvalues --    0.21173   0.21622   0.21730   0.23274   0.23646
 Alpha virt. eigenvalues --    0.25418   0.26376   0.26799   0.27946   0.28966
 Alpha virt. eigenvalues --    0.29532   0.30213   0.30506   0.31004   0.31749
 Alpha virt. eigenvalues --    0.31990   0.33796   0.34335   0.35281   0.36021
 Alpha virt. eigenvalues --    0.36702   0.37038   0.38145   0.39846   0.40872
 Alpha virt. eigenvalues --    0.41867   0.42277   0.43947   0.44479   0.46502
 Alpha virt. eigenvalues --    0.47340   0.50486   0.54357   0.54790   0.57669
 Alpha virt. eigenvalues --    0.60282   0.60786   0.61984   0.63852   0.64214
 Alpha virt. eigenvalues --    0.64745   0.65004   0.66081   0.67906   0.68732
 Alpha virt. eigenvalues --    0.69225   0.72169   0.73261   0.74134   0.75576
 Alpha virt. eigenvalues --    0.76710   0.81381   0.82756   0.84313   0.86402
 Alpha virt. eigenvalues --    0.88537   0.91329   0.93107   0.93753   0.94663
 Alpha virt. eigenvalues --    0.96644   0.97245   0.97943   1.00128   1.00587
 Alpha virt. eigenvalues --    1.04184   1.07527   1.07742   1.09948   1.11368
 Alpha virt. eigenvalues --    1.14508   1.14756   1.16276   1.17351   1.17889
 Alpha virt. eigenvalues --    1.20839   1.21457   1.24077   1.29029   1.30622
 Alpha virt. eigenvalues --    1.34628   1.37655   1.43828   1.45242   1.56058
 Alpha virt. eigenvalues --    1.57866   1.59199   1.60546   1.61031   1.61853
 Alpha virt. eigenvalues --    1.62617   1.66418   1.67081   1.67403   1.74644
 Alpha virt. eigenvalues --    1.75154   1.78159   1.80484   1.82560   1.87734
 Alpha virt. eigenvalues --    1.88429   1.91456   1.91718   1.96359   2.00361
 Alpha virt. eigenvalues --    2.00566   2.02011   2.03709   2.04783   2.05793
 Alpha virt. eigenvalues --    2.06834   2.12622   2.15257   2.17694   2.19869
 Alpha virt. eigenvalues --    2.23206   2.29135   2.31479   2.42640   2.45938
 Alpha virt. eigenvalues --    2.52071   2.54661   2.54722   2.58193   2.63573
 Alpha virt. eigenvalues --    2.71719   2.73324   2.74223   2.76554   2.81394
 Alpha virt. eigenvalues --    2.81792   2.83295   2.88341   2.89190   2.90499
 Alpha virt. eigenvalues --    2.90661   2.91844   2.95582   2.99588   3.00797
 Alpha virt. eigenvalues --    3.02309   3.06359   3.06960   3.15288   3.18511
 Alpha virt. eigenvalues --    3.18880   3.23551   3.27933   3.32147   3.33681
 Alpha virt. eigenvalues --    3.42093   3.44293   3.48388   3.49756   3.64083
 Alpha virt. eigenvalues --    3.66286   3.69703   3.74538   3.84333   3.87787
 Alpha virt. eigenvalues --    4.08233   4.17286   4.28507   4.30824   4.36857
 Alpha virt. eigenvalues --    4.40913   4.46226   4.95099   5.05611   5.15261
 Alpha virt. eigenvalues --    5.30743   5.49809   5.82879   6.09239  23.84253
 Alpha virt. eigenvalues --   23.94433  24.14168  24.21379  24.28362  24.30444
 Alpha virt. eigenvalues --   24.41845  50.04095  50.16651
          Condensed to atoms (all electrons):
               1          2          3          4          5          6
     1  C   11.056860  -3.531994  -1.434596   2.696310  -0.102932  -2.780378
     2  C   -3.531994  19.199261  -2.093412  -7.424391   0.868575  -0.775669
     3  C   -1.434596  -2.093412  12.197769   0.375777  -0.055041  -0.852985
     4  C    2.696310  -7.424391   0.375777  10.388417  -0.279754  -0.249766
     5  H   -0.102932   0.868575  -0.055041  -0.279754   0.478206  -0.101100
     6  C   -2.780378  -0.775669  -0.852985  -0.249766  -0.101100   9.303293
     7  C    0.785622  -0.992248  -2.763592   1.097100  -0.015223   0.568788
     8  H   -0.008478   0.054619   0.529210  -0.029113   0.001147  -0.093738
     9  C   -1.239939   2.118316   0.872323  -1.243934   0.053415  -0.226131
    10  H    0.062065  -0.228586   0.029586   0.511502  -0.015562   0.015912
    11  O   -0.212071  -0.263894  -0.052275   0.104148  -0.041131   0.460907
    12  O   -0.172054  -0.133184  -0.030063   0.082472  -0.007805   0.565394
    13  H    0.025626  -0.016262  -0.109223   0.013960  -0.000273   0.025241
    14  H    0.004743   0.046001   0.008325  -0.077347   0.001789  -0.016705
    15  H   -0.095706   0.003351   0.006256  -0.031824   0.003740   0.102956
               7          8          9         10         11         12
     1  C    0.785622  -0.008478  -1.239939   0.062065  -0.212071  -0.172054
     2  C   -0.992248   0.054619   2.118316  -0.228586  -0.263894  -0.133184
     3  C   -2.763592   0.529210   0.872323   0.029586  -0.052275  -0.030063
     4  C    1.097100  -0.029113  -1.243934   0.511502   0.104148   0.082472
     5  H   -0.015223   0.001147   0.053415  -0.015562  -0.041131  -0.007805
     6  C    0.568788  -0.093738  -0.226131   0.015912   0.460907   0.565394
     7  C    7.676127  -0.117356  -0.812113   0.005797   0.075618   0.109635
     8  H   -0.117356   0.434274   0.037178  -0.000113  -0.006672  -0.009648
     9  C   -0.812113   0.037178   6.628311  -0.059384  -0.040483  -0.028752
    10  H    0.005797  -0.000113  -0.059384   0.476615   0.003435   0.000992
    11  O    0.075618  -0.006672  -0.040483   0.003435   8.006342  -0.123884
    12  O    0.109635  -0.009648  -0.028752   0.000992  -0.123884   8.093477
    13  H    0.442863  -0.010217  -0.045731  -0.000541   0.001272   0.002082
    14  H   -0.055866   0.001188   0.446520  -0.008852  -0.000639  -0.000486
    15  H    0.013157  -0.000735  -0.003723  -0.000191   0.262971  -0.012543
              13         14         15
     1  C    0.025626   0.004743  -0.095706
     2  C   -0.016262   0.046001   0.003351
     3  C   -0.109223   0.008325   0.006256
     4  C    0.013960  -0.077347  -0.031824
     5  H   -0.000273   0.001789   0.003740
     6  C    0.025241  -0.016705   0.102956
     7  C    0.442863  -0.055866   0.013157
     8  H   -0.010217   0.001188  -0.000735
     9  C   -0.045731   0.446520  -0.003723
    10  H   -0.000541  -0.008852  -0.000191
    11  O    0.001272  -0.000639   0.262971
    12  O    0.002082  -0.000486  -0.012543
    13  H    0.465542  -0.007711   0.000192
    14  H   -0.007711   0.471808  -0.000149
    15  H    0.000192  -0.000149   0.415876
 Mulliken charges:
               1
     1  C    0.946923
     2  C   -0.830485
     3  C   -0.628061
     4  C    0.066442
     5  H    0.211948
     6  C    0.053981
     7  C   -0.018309
     8  H    0.218455
     9  C   -0.455873
    10  H    0.207327
    11  O   -0.173645
    12  O   -0.335634
    13  H    0.213179
    14  H    0.187381
    15  H    0.336371
 Sum of Mulliken charges =  -0.00000
 Mulliken charges with hydrogens summed into heavy atoms:
               1
     1  C    0.946923
     2  C   -0.618537
     3  C   -0.409606
     4  C    0.273768
     6  C    0.053981
     7  C    0.194870
     9  C   -0.268492
    11  O    0.162726
    12  O   -0.335634
 Electronic spatial extent (au):  <R**2>=           1158.1543
 Charge=             -0.0000 electrons
 Dipole moment (field-independent basis, Debye):
    X=              1.3629    Y=             -2.3093    Z=              0.1984  Tot=              2.6888
 Quadrupole moment (field-independent basis, Debye-Ang):
   XX=            -43.5264   YY=            -49.9098   ZZ=            -54.1205
   XY=              8.0827   XZ=             -0.7808   YZ=             -0.4244
 Traceless Quadrupole moment (field-independent basis, Debye-Ang):
   XX=              5.6592   YY=             -0.7242   ZZ=             -4.9349
   XY=              8.0827   XZ=             -0.7808   YZ=             -0.4244
 Octapole moment (field-independent basis, Debye-Ang**2):
  XXX=            -20.6466  YYY=             -4.2031  ZZZ=              0.0099  XYY=              7.3371
  XXY=            -26.5122  XXZ=              2.5830  XZZ=            -11.3491  YZZ=             -0.4169
  YYZ=              0.2544  XYZ=              1.1622
 Hexadecapole moment (field-independent basis, Debye-Ang**3):
 XXXX=           -875.7741 YYYY=           -358.8645 ZZZZ=            -58.5503 XXXY=             90.6289
 XXXZ=             -9.5380 YYYX=             16.3213 YYYZ=             -0.8226 ZZZX=             -0.3367
 ZZZY=             -0.0563 XXYY=           -234.1393 XXZZ=           -194.5703 YYZZ=            -78.9566
 XXYZ=             -3.6179 YYXZ=             -0.7497 ZZXY=              2.0141
 N-N= 4.095578021615D+02 E-N=-1.802630821372D+03  KE= 4.201217907713D+02
 No NMR shielding tensors so no spin-rotation constants.
 Leave Link  601 at Sun Nov 20 17:26:55 2022, MaxMem= 16106127360 cpu:               4.1 elap:               0.1
 (Enter /opt/ap/G16/B01/g16/l9999.exe)
 1\1\GINC-N02\SP\RwB97XD\6-311++G(d,p)\C7H6O2\ROOT\20-Nov-2022\0\\#P wB
 97XD/6-311++G(d,p) scf=maxcycle=512\\_conf016.gjf nmol_natom 1_15\\0,1
 \C\C,1,1.39016191\C,1,1.39194539,2,119.895942\C,2,1.38669027,1,119.880
 75721,3,0.70825972,0\H,2,0.98744251,1,119.71654057,3,-179.90726164,0\C
 ,1,1.48428757,2,119.93615286,4,-179.87772406,0\C,3,1.40101108,1,119.72
 36454,2,-0.26266839,0\H,3,0.9902154,1,119.1886159,2,178.85397616,0\C,4
 ,1.37899003,2,120.45785903,1,-0.48041454,0\H,4,0.9834739,2,120.3044270
 6,1,179.36166981,0\O,6,1.27459751,1,118.00615353,2,-1.25976832,0\O,6,1
 .26362572,1,118.77715367,2,179.20603801,0\H,7,0.98977053,3,119.3786157
 8,1,-178.93545741,0\H,9,0.99498061,4,119.46722635,2,-178.58826714,0\H,
 11,0.89680392,6,118.15823763,1,-190.,0\\Version=ES64L-G16RevB.01\State
 =1-A\HF=-420.7467556\RMSD=8.315e-09\Dipole=0.0365284,0.0786621,1.05430
 44\Quadrupole=8.1770761,-3.6778145,-4.4992615,-0.5768386,-1.2749894,-0
 .0094401\PG=C01 [X(C7H6O2)]\\@


     "IF I COULD JUST GET IT ON PAPER"
 LIFE AND INK, THEY RUN OUT AT THE SAME TIME,
 OR SO SAID MY OLD FRIEND THE SQUID.
     -- JIMMY BUFFETT, 1981
 Job cpu time:       0 days  0 hours  9 minutes 39.9 seconds.
 Elapsed time:       0 days  0 hours  0 minutes 18.6 seconds.
 File lengths (MBytes):  RWF=     35 Int=      0 D2E=      0 Chk=      4 Scr=      1
 Normal termination of Gaussian 16 at Sun Nov 20 17:26:55 2022.
