 Entering Gaussian System, Link 0=g16
 Input=_conf000.gjf
 Output=_conf000.log
 Initial command:
 /opt/ap/G16/B01/g16/l1.exe "/tmp2/scr/Gau-5148.inp" -scrdir="/tmp2/scr/"
 Entering Link 1 = /opt/ap/G16/B01/g16/l1.exe PID=      5149.
  
 Copyright (c) 1988-2017, Gaussian, Inc.  All Rights Reserved.
  
 This is part of the Gaussian(R) 16 program.  It is based on
 the Gaussian(R) 09 system (copyright 2009, Gaussian, Inc.),
 the Gaussian(R) 03 system (copyright 2003, Gaussian, Inc.),
 the Gaussian(R) 98 system (copyright 1998, Gaussian, Inc.),
 the Gaussian(R) 94 system (copyright 1995, Gaussian, Inc.),
 the Gaussian 92(TM) system (copyright 1992, Gaussian, Inc.),
 the Gaussian 90(TM) system (copyright 1990, Gaussian, Inc.),
 the Gaussian 88(TM) system (copyright 1988, Gaussian, Inc.),
 the Gaussian 86(TM) system (copyright 1986, Carnegie Mellon
 University), and the Gaussian 82(TM) system (copyright 1983,
 Carnegie Mellon University). Gaussian is a federally registered
 trademark of Gaussian, Inc.
  
 This software contains proprietary and confidential information,
 including trade secrets, belonging to Gaussian, Inc.
  
 This software is provided under written license and may be
 used, copied, transmitted, or stored only in accord with that
 written license.
  
 The following legend is applicable only to US Government
 contracts under FAR:
  
                    RESTRICTED RIGHTS LEGEND
  
 Use, reproduction and disclosure by the US Government is
 subject to restrictions as set forth in subparagraphs (a)
 and (c) of the Commercial Computer Software - Restricted
 Rights clause in FAR 52.227-19.
  
 Gaussian, Inc.
 340 Quinnipiac St., Bldg. 40, Wallingford CT 06492
  
  
 ---------------------------------------------------------------
 Warning -- This program may not be used in any manner that
 competes with the business of Gaussian, Inc. or will provide
 assistance to any competitor of Gaussian, Inc.  The licensee
 of this program is prohibited from giving any competitor of
 Gaussian, Inc. access to this program.  By using this program,
 the user acknowledges that Gaussian, Inc. is engaged in the
 business of creating and licensing software in the field of
 computational chemistry and represents and warrants to the
 licensee that it is not a competitor of Gaussian, Inc. and that
 it will not use this program in any manner prohibited above.
 ---------------------------------------------------------------
  

 Cite this work as:
 Gaussian 16, Revision B.01,
 M. J. Frisch, G. W. Trucks, H. B. Schlegel, G. E. Scuseria, 
 M. A. Robb, J. R. Cheeseman, G. Scalmani, V. Barone, 
 G. A. Petersson, H. Nakatsuji, X. Li, M. Caricato, A. V. Marenich, 
 J. Bloino, B. G. Janesko, R. Gomperts, B. Mennucci, H. P. Hratchian, 
 J. V. Ortiz, A. F. Izmaylov, J. L. Sonnenberg, D. Williams-Young, 
 F. Ding, F. Lipparini, F. Egidi, J. Goings, B. Peng, A. Petrone, 
 T. Henderson, D. Ranasinghe, V. G. Zakrzewski, J. Gao, N. Rega, 
 G. Zheng, W. Liang, M. Hada, M. Ehara, K. Toyota, R. Fukuda, 
 J. Hasegawa, M. Ishida, T. Nakajima, Y. Honda, O. Kitao, H. Nakai, 
 T. Vreven, K. Throssell, J. A. Montgomery, Jr., J. E. Peralta, 
 F. Ogliaro, M. J. Bearpark, J. J. Heyd, E. N. Brothers, K. N. Kudin, 
 V. N. Staroverov, T. A. Keith, R. Kobayashi, J. Normand, 
 K. Raghavachari, A. P. Rendell, J. C. Burant, S. S. Iyengar, 
 J. Tomasi, M. Cossi, J. M. Millam, M. Klene, C. Adamo, R. Cammi, 
 J. W. Ochterski, R. L. Martin, K. Morokuma, O. Farkas, 
 J. B. Foresman, and D. J. Fox, Gaussian, Inc., Wallingford CT, 2016.
 
 ******************************************
 Gaussian 16:  ES64L-G16RevB.01 20-Dec-2017
                20-Nov-2022 
 ******************************************
 %nprocshared=32
 Will use up to   32 processors via shared memory.
 %mem=120GB
 %chk=_conf000.chk
 ----------------------------------------
 #P wB97XD/6-311++G(d,p) scf=maxcycle=512
 ----------------------------------------
 1/38=1,172=1/1;
 2/12=2,17=6,18=5,40=1/2;
 3/5=4,6=6,7=1111,11=2,25=1,30=1,74=-58/1,2,3;
 4//1;
 5/5=2,7=512,38=5/2;
 6/7=2,8=2,9=2,10=2,28=1/1;
 99/5=1,9=1/99;
 Leave Link    1 at Sun Nov 20 17:25:38 2022, MaxMem= 16106127360 cpu:               2.8 elap:               0.1
 (Enter /opt/ap/G16/B01/g16/l101.exe)
 ----------------------------
 _conf000.gjf nmol_natom 1_15
 ----------------------------
 Symbolic Z-matrix:
 Charge =  0 Multiplicity = 1
 C
 C                    1     1.39016 
 C                    1     1.39195  2     119.89594 
 C                    2     1.38669  1     119.88076  3     0.70826  0
 H                    2     0.98744  1     119.71654  3    -179.90726  0
 C                    1     1.48429  2     119.93615  4    -179.87772  0
 C                    3     1.40101  1     119.72365  2    -0.26267  0
 H                    3     0.99022  1     119.18862  2     178.85398  0
 C                    4     1.37899  2     120.45786  1    -0.48041  0
 H                    4     0.98347  2     120.30443  1     179.36167  0
 O                    6     1.2746   1     118.00615  2    -1.25977  0
 O                    6     1.26363  1     118.77715  2     179.20604  0
 H                    7     0.98977  3     119.37862  1    -178.93546  0
 H                    9     0.99498  4     119.46723  2    -178.58827  0
 H                    11    0.8968   6     118.15824  1    -270.     0
 
 ITRead=  0  0  0  0  0  0  0  0  0  0  0  0  0  0  0
 MicOpt= -1 -1 -1 -1 -1 -1 -1 -1 -1 -1 -1 -1 -1 -1 -1
 NAtoms=     15 NQM=       15 NQMF=       0 NMMI=      0 NMMIF=      0
                NMic=       0 NMicF=      0.
                    Isotopes and Nuclear Properties:
 (Nuclear quadrupole moments (NQMom) in fm**2, nuclear magnetic moments (NMagM)
  in nuclear magnetons)

  Atom         1           2           3           4           5           6           7           8           9          10
 IAtWgt=          12          12          12          12           1          12          12           1          12           1
 AtmWgt=  12.0000000  12.0000000  12.0000000  12.0000000   1.0078250  12.0000000  12.0000000   1.0078250  12.0000000   1.0078250
 NucSpn=           0           0           0           0           1           0           0           1           0           1
 AtZEff=  -0.0000000  -0.0000000  -0.0000000  -0.0000000  -0.0000000  -0.0000000  -0.0000000  -0.0000000  -0.0000000  -0.0000000
 NQMom=    0.0000000   0.0000000   0.0000000   0.0000000   0.0000000   0.0000000   0.0000000   0.0000000   0.0000000   0.0000000
 NMagM=    0.0000000   0.0000000   0.0000000   0.0000000   2.7928460   0.0000000   0.0000000   2.7928460   0.0000000   2.7928460
 AtZNuc=   6.0000000   6.0000000   6.0000000   6.0000000   1.0000000   6.0000000   6.0000000   1.0000000   6.0000000   1.0000000

  Atom        11          12          13          14          15
 IAtWgt=          16          16           1           1           1
 AtmWgt=  15.9949146  15.9949146   1.0078250   1.0078250   1.0078250
 NucSpn=           0           0           1           1           1
 AtZEff=  -0.0000000  -0.0000000  -0.0000000  -0.0000000  -0.0000000
 NQMom=    0.0000000   0.0000000   0.0000000   0.0000000   0.0000000
 NMagM=    0.0000000   0.0000000   2.7928460   2.7928460   2.7928460
 AtZNuc=   8.0000000   8.0000000   1.0000000   1.0000000   1.0000000
 Leave Link  101 at Sun Nov 20 17:25:38 2022, MaxMem= 16106127360 cpu:               7.2 elap:               0.2
 (Enter /opt/ap/G16/B01/g16/l202.exe)
                          Input orientation:                          
 ---------------------------------------------------------------------
 Center     Atomic      Atomic             Coordinates (Angstroms)
 Number     Number       Type             X           Y           Z
 ---------------------------------------------------------------------
      1          6           0        0.000000    0.000000    0.000000
      2          6           0        0.000000    0.000000    1.390162
      3          6           0        1.206722    0.000000   -0.693782
      4          6           0        1.202258    0.014862    2.081006
      5          1           0       -0.857581   -0.001388    1.879646
      6          6           0       -1.286190   -0.013155   -0.740711
      7          6           0        2.415349    0.005578    0.014752
      8          1           0        1.194584   -0.017290   -1.683772
      9          6           0        2.400563    0.019708    1.398617
     10          1           0        1.209438    0.024411    3.064408
     11          8           0       -2.365984   -0.048941   -0.064425
     12          8           0       -1.260842    0.002453   -2.003986
     13          1           0        3.270315    0.021574   -0.483669
     14          1           0        3.254554    0.009066    1.909081
     15          1           0       -2.741270    0.729521    0.175189
 ---------------------------------------------------------------------
                    Distance matrix (angstroms):
                    1          2          3          4          5
     1  C    0.000000
     2  C    1.390162   0.000000
     3  C    1.391945   2.408112   0.000000
     4  C    2.403379   1.386690   2.774832   0.000000
     5  H    2.066039   0.987443   3.299073   2.069721   0.000000
     6  C    1.484288   2.488991   2.493388   3.762345   2.655206
     7  C    2.415401   2.779513   1.401011   2.396056   3.766955
     8  H    2.064563   3.297939   0.990215   3.764924   4.112127
     9  C    2.778349   2.400659   2.409104   1.378990   3.293530
    10  H    3.294530   2.065535   3.758270   0.983474   2.382624
    11  O    2.367367   2.777786   3.628045   4.164047   2.461088
    12  O    2.367633   3.620769   2.793834   4.770133   3.904515
    13  H    3.305958   3.769173   2.074374   3.294611   4.756607
    14  H    3.773167   3.295676   3.311886   2.059493   4.112253
    15  H    2.842086   3.085923   4.107792   4.437825   2.643424
                    6          7          8          9         10
     6  C    0.000000
     7  C    3.777892   0.000000
     8  H    2.653982   2.091836   0.000000
     9  C    4.262622   1.384016   3.310118   0.000000
    10  H    4.550659   3.279477   4.748386   2.047842   0.000000
    11  O    1.274598   4.782299   3.911641   4.986499   4.751696
    12  O    1.263626   4.194007   2.476296   4.998389   5.638384
    13  H    4.563881   0.989771   2.398003   2.073517   4.103177
    14  H    5.257398   2.071897   4.141589   0.994981   2.348938
    15  H    1.872885   5.209660   4.416380   5.332828   4.944984
                   11         12         13         14         15
    11  O    0.000000
    12  O    2.232908   0.000000
    13  H    5.652309   4.779447   0.000000
    14  H    5.957225   5.975025   2.392834   0.000000
    15  H    0.896804   2.732965   6.088878   6.282940   0.000000
 Stoichiometry    C7H6O2
 Framework group  C1[X(C7H6O2)]
 Deg. of freedom    39
 Full point group                 C1      NOp   1
 Largest Abelian subgroup         C1      NOp   1
 Largest concise Abelian subgroup C1      NOp   1
                         Standard orientation:                         
 ---------------------------------------------------------------------
 Center     Atomic      Atomic             Coordinates (Angstroms)
 Number     Number       Type             X           Y           Z
 ---------------------------------------------------------------------
      1          6           0       -0.231198    0.035168   -0.008540
      2          6           0        0.430105   -1.187572   -0.020231
      3          6           0        0.500210    1.219397    0.004004
      4          6           0        1.816240   -1.223487   -0.004495
      5          1           0       -0.091379   -2.026018   -0.030504
      6          6           0       -1.714884    0.075003   -0.022616
      7          6           0        1.900372    1.171045    0.010343
      8          1           0        0.018609    2.084559   -0.005027
      9          6           0        2.545660   -0.053332    0.012752
     10          1           0        2.290354   -2.085134   -0.003177
     11          8           0       -2.342935   -1.033102   -0.070091
     12          8           0       -2.293543    1.198038    0.003756
     13          1           0        2.415291    2.015960    0.035284
     14          1           0        3.539673   -0.095994    0.002565
     15          1           0       -2.559748   -1.430188    0.704229
 ---------------------------------------------------------------------
 Rotational constants (GHZ):           3.9201761           1.2491892           0.9493816
 Leave Link  202 at Sun Nov 20 17:25:38 2022, MaxMem= 16106127360 cpu:               0.2 elap:               0.0
 (Enter /opt/ap/G16/B01/g16/l301.exe)
 Standard basis: 6-311++G(d,p) (5D, 7F)
 Ernie: Thresh=  0.10000D-02 Tol=  0.10000D-05 Strict=F.
 There are   249 symmetry adapted cartesian basis functions of A   symmetry.
 There are   240 symmetry adapted basis functions of A   symmetry.
   240 basis functions,   378 primitive gaussians,   249 cartesian basis functions
    32 alpha electrons       32 beta electrons
       nuclear repulsion energy       409.9285311669 Hartrees.
 IExCor= 4639 DFT=T Ex+Corr=wB97XD ExCW=0 ScaHFX=  1.000000
 ScaDFX=  1.000000  1.000000  1.000000  1.000000 ScalE2=  1.000000  1.000000
 IRadAn=      5 IRanWt=     -1 IRanGd=            0 ICorTp=0 IEmpDi=121
 HFx  wShort=  0.000000 wLong=  0.200000 cFull=  0.222036 cShort=  0.000000 cLong=  0.777964
 DFx  wShort=  0.000000 wLong=  0.200000 cFull=  0.000000 cShort=  0.000000 cLong=  1.000000
 NAtoms=   15 NActive=   15 NUniq=   15 SFac= 1.00D+00 NAtFMM=   60 NAOKFM=F Big=F
 Integral buffers will be    131072 words long.
 Raffenetti 2 integral format.
 Two-electron integral symmetry is turned on.
 R6Disp:  Grimme-D2 Dispersion energy=       -0.0065999707 Hartrees.
 Nuclear repulsion after empirical dispersion term =      409.9219311963 Hartrees.
 Leave Link  301 at Sun Nov 20 17:25:38 2022, MaxMem= 16106127360 cpu:               1.4 elap:               0.1
 (Enter /opt/ap/G16/B01/g16/l302.exe)
 NPDir=0 NMtPBC=     1 NCelOv=     1 NCel=       1 NClECP=     1 NCelD=      1
         NCelK=      1 NCelE2=     1 NClLst=     1 CellRange=     0.0.
 One-electron integrals computed using PRISM.
 One-electron integral symmetry used in STVInt
 NBasis=   240 RedAO= T EigKep=  1.19D-06  NBF=   240
 NBsUse=   240 1.00D-06 EigRej= -1.00D+00 NBFU=   240
 Precomputing XC quadrature grid using
 IXCGrd= 4 IRadAn=           5 IRanWt=          -1 IRanGd=           0 AccXCQ= 0.00D+00.
 Generated NRdTot=       0 NPtTot=           0 NUsed=           0 NTot=          32
 NSgBfM=   249   249   249   249   249 MxSgAt=    15 MxSgA2=    15.
 Leave Link  302 at Sun Nov 20 17:25:38 2022, MaxMem= 16106127360 cpu:               5.9 elap:               0.2
 (Enter /opt/ap/G16/B01/g16/l303.exe)
 DipDrv:  MaxL=1.
 Leave Link  303 at Sun Nov 20 17:25:38 2022, MaxMem= 16106127360 cpu:               1.4 elap:               0.1
 (Enter /opt/ap/G16/B01/g16/l401.exe)
 ExpMin= 3.60D-02 ExpMax= 8.59D+03 ExpMxC= 1.30D+03 IAcc=3 IRadAn=         5 AccDes= 0.00D+00
 Harris functional with IExCor= 4639 and IRadAn=       5 diagonalized for initial guess.
 HarFok:  IExCor= 4639 AccDes= 0.00D+00 IRadAn=         5 IDoV= 1 UseB2=F ITyADJ=14
 ICtDFT=  3500011 ScaDFX=  1.000000  1.000000  1.000000  1.000000
 FoFCou: FMM=F IPFlag=           0 FMFlag=      100000 FMFlg1=           0
         NFxFlg=           0 DoJE=T BraDBF=F KetDBF=T FulRan=T
         wScrn=  0.000000 ICntrl=       500 IOpCl=  0 I1Cent=   200000004 NGrid=           0
         NMat0=    1 NMatS0=      1 NMatT0=    0 NMatD0=    1 NMtDS0=    0 NMtDT0=    0
 Petite list used in FoFCou.
 Harris En= -403.237899386862    
 JPrj=0 DoOrth=F DoCkMO=F.
 Leave Link  401 at Sun Nov 20 17:25:39 2022, MaxMem= 16106127360 cpu:              13.3 elap:               0.4
 (Enter /opt/ap/G16/B01/g16/l502.exe)
 Integral symmetry usage will be decided dynamically.
 Closed shell SCF:
 Using DIIS extrapolation, IDIIS=  1040.
 NGot= 16106127360 LenX= 16105992971 LenY= 16105930529
 Requested convergence on RMS density matrix=1.00D-08 within 512 cycles.
 Requested convergence on MAX density matrix=1.00D-06.
 Requested convergence on             energy=1.00D-06.
 No special actions if energy rises.
 Fock matrices will be formed incrementally for  20 cycles.

 Cycle   1  Pass 1  IDiag  1:
 FoFJK:  IHMeth= 1 ICntrl=       0 DoSepK=T KAlg= 0 I1Cent=           0 FoldK=F
 IRaf=         1 NMat=       1 IRICut=       1 DoRegI=T DoRafI=F ISym2E= 0 IDoP0=0 IntGTp=1.
 FoFCou: FMM=F IPFlag=           0 FMFlag=      100000 FMFlg1=           0
         NFxFlg=           0 DoJE=T BraDBF=F KetDBF=F FulRan=T
         wScrn=  0.000000 ICntrl=       500 IOpCl=  0 I1Cent=           0 NGrid=           0
         NMat0=    1 NMatS0=      1 NMatT0=    0 NMatD0=    1 NMtDS0=    0 NMtDT0=    0
 Symmetry not used in FoFCou.
 E= -420.615120075134    
 DIIS: error= 5.78D-02 at cycle   1 NSaved=   1.
 NSaved= 1 IEnMin= 1 EnMin= -420.615120075134     IErMin= 1 ErrMin= 5.78D-02
 ErrMax= 5.78D-02  0.00D+00 EMaxC= 1.00D-01 BMatC= 8.57D-01 BMatP= 8.57D-01
 IDIUse=3 WtCom= 4.22D-01 WtEn= 5.78D-01
 Coeff-Com:  0.100D+01
 Coeff-En:   0.100D+01
 Coeff:      0.100D+01
 Gap=     0.422 Goal=   None    Shift=    0.000
 GapD=    0.422 DampG=2.000 DampE=0.500 DampFc=1.0000 IDamp=-1.
 RMSDP=3.09D-02 MaxDP=2.04D+00              OVMax= 1.05D-01

 Cycle   2  Pass 1  IDiag  1:
 RMSU=  1.47D-02    CP:  6.53D-01
 E= -420.689380033513     Delta-E=       -0.074259958379 Rises=F Damp=F
 DIIS: error= 9.53D-03 at cycle   2 NSaved=   2.
 NSaved= 2 IEnMin= 2 EnMin= -420.689380033513     IErMin= 2 ErrMin= 9.53D-03
 ErrMax= 9.53D-03  0.00D+00 EMaxC= 1.00D-01 BMatC= 4.57D-02 BMatP= 8.57D-01
 IDIUse=3 WtCom= 9.05D-01 WtEn= 9.53D-02
 Coeff-Com:  0.122D+00 0.878D+00
 Coeff-En:   0.173D-01 0.983D+00
 Coeff:      0.112D+00 0.888D+00
 Gap=     0.422 Goal=   None    Shift=    0.000
 RMSDP=8.34D-03 MaxDP=5.55D-01 DE=-7.43D-02 OVMax= 7.99D-02

 Cycle   3  Pass 1  IDiag  1:
 RMSU=  6.04D-03    CP:  6.06D-01  6.97D-01
 E= -420.706723503747     Delta-E=       -0.017343470234 Rises=F Damp=F
 DIIS: error= 7.97D-03 at cycle   3 NSaved=   3.
 NSaved= 3 IEnMin= 3 EnMin= -420.706723503747     IErMin= 3 ErrMin= 7.97D-03
 ErrMax= 7.97D-03  0.00D+00 EMaxC= 1.00D-01 BMatC= 2.33D-02 BMatP= 4.57D-02
 IDIUse=3 WtCom= 9.20D-01 WtEn= 7.97D-02
 Coeff-Com:  0.230D-01 0.425D+00 0.552D+00
 Coeff-En:   0.000D+00 0.335D+00 0.665D+00
 Coeff:      0.212D-01 0.418D+00 0.561D+00
 Gap=     0.360 Goal=   None    Shift=    0.000
 RMSDP=3.48D-03 MaxDP=2.45D-01 DE=-1.73D-02 OVMax= 3.32D-02

 Cycle   4  Pass 1  IDiag  1:
 RMSU=  1.24D-03    CP:  6.00D-01  8.61D-01  6.47D-01
 E= -420.725950249223     Delta-E=       -0.019226745476 Rises=F Damp=F
 DIIS: error= 1.32D-03 at cycle   4 NSaved=   4.
 NSaved= 4 IEnMin= 4 EnMin= -420.725950249223     IErMin= 4 ErrMin= 1.32D-03
 ErrMax= 1.32D-03  0.00D+00 EMaxC= 1.00D-01 BMatC= 6.86D-04 BMatP= 2.33D-02
 IDIUse=3 WtCom= 9.87D-01 WtEn= 1.32D-02
 Coeff-Com:  0.927D-02 0.201D+00 0.288D+00 0.502D+00
 Coeff-En:   0.000D+00 0.000D+00 0.000D+00 0.100D+01
 Coeff:      0.915D-02 0.198D+00 0.284D+00 0.509D+00
 Gap=     0.341 Goal=   None    Shift=    0.000
 RMSDP=7.24D-04 MaxDP=4.52D-02 DE=-1.92D-02 OVMax= 8.02D-03

 Cycle   5  Pass 1  IDiag  1:
 RMSU=  5.79D-04    CP:  5.96D-01  8.47D-01  6.68D-01  8.93D-01
 E= -420.726424872653     Delta-E=       -0.000474623430 Rises=F Damp=F
 DIIS: error= 4.44D-04 at cycle   5 NSaved=   5.
 NSaved= 5 IEnMin= 5 EnMin= -420.726424872653     IErMin= 5 ErrMin= 4.44D-04
 ErrMax= 4.44D-04  0.00D+00 EMaxC= 1.00D-01 BMatC= 5.28D-05 BMatP= 6.86D-04
 IDIUse=3 WtCom= 9.96D-01 WtEn= 4.44D-03
 Coeff-Com:  0.795D-04 0.981D-02 0.241D-01 0.216D+00 0.750D+00
 Coeff-En:   0.000D+00 0.000D+00 0.000D+00 0.000D+00 0.100D+01
 Coeff:      0.791D-04 0.977D-02 0.240D-01 0.215D+00 0.751D+00
 Gap=     0.342 Goal=   None    Shift=    0.000
 RMSDP=2.30D-04 MaxDP=1.25D-02 DE=-4.75D-04 OVMax= 2.61D-03

 Cycle   6  Pass 1  IDiag  1:
 RMSU=  1.26D-04    CP:  5.94D-01  8.50D-01  6.85D-01  9.17D-01  1.05D+00
 E= -420.726465553696     Delta-E=       -0.000040681043 Rises=F Damp=F
 DIIS: error= 1.73D-04 at cycle   6 NSaved=   6.
 NSaved= 6 IEnMin= 6 EnMin= -420.726465553696     IErMin= 6 ErrMin= 1.73D-04
 ErrMax= 1.73D-04  0.00D+00 EMaxC= 1.00D-01 BMatC= 7.49D-06 BMatP= 5.28D-05
 IDIUse=3 WtCom= 9.98D-01 WtEn= 1.73D-03
 Coeff-Com: -0.102D-02-0.181D-01-0.209D-01 0.384D-01 0.353D+00 0.649D+00
 Coeff-En:   0.000D+00 0.000D+00 0.000D+00 0.000D+00 0.000D+00 0.100D+01
 Coeff:     -0.102D-02-0.181D-01-0.209D-01 0.383D-01 0.352D+00 0.649D+00
 Gap=     0.342 Goal=   None    Shift=    0.000
 RMSDP=1.56D-04 MaxDP=1.22D-02 DE=-4.07D-05 OVMax= 7.71D-04

 Cycle   7  Pass 1  IDiag  1:
 RMSU=  4.32D-05    CP:  5.92D-01  8.48D-01  6.94D-01  9.37D-01  1.16D+00
                    CP:  1.06D+00
 E= -420.726472482673     Delta-E=       -0.000006928977 Rises=F Damp=F
 DIIS: error= 7.41D-05 at cycle   7 NSaved=   7.
 NSaved= 7 IEnMin= 7 EnMin= -420.726472482673     IErMin= 7 ErrMin= 7.41D-05
 ErrMax= 7.41D-05  0.00D+00 EMaxC= 1.00D-01 BMatC= 3.09D-07 BMatP= 7.49D-06
 IDIUse=1 WtCom= 1.00D+00 WtEn= 0.00D+00
 Coeff-Com: -0.288D-03-0.647D-02-0.862D-02-0.147D-01 0.249D-01 0.159D+00
 Coeff-Com:  0.846D+00
 Coeff:     -0.288D-03-0.647D-02-0.862D-02-0.147D-01 0.249D-01 0.159D+00
 Coeff:      0.846D+00
 Gap=     0.342 Goal=   None    Shift=    0.000
 RMSDP=3.58D-05 MaxDP=1.65D-03 DE=-6.93D-06 OVMax= 3.77D-04

 Cycle   8  Pass 1  IDiag  1:
 RMSU=  1.14D-05    CP:  5.92D-01  8.48D-01  6.95D-01  9.43D-01  1.20D+00
                    CP:  1.11D+00  1.12D+00
 E= -420.726473047168     Delta-E=       -0.000000564495 Rises=F Damp=F
 DIIS: error= 1.63D-05 at cycle   8 NSaved=   8.
 NSaved= 8 IEnMin= 8 EnMin= -420.726473047168     IErMin= 8 ErrMin= 1.63D-05
 ErrMax= 1.63D-05  0.00D+00 EMaxC= 1.00D-01 BMatC= 4.85D-08 BMatP= 3.09D-07
 IDIUse=1 WtCom= 1.00D+00 WtEn= 0.00D+00
 Coeff-Com:  0.108D-04-0.189D-03-0.609D-03-0.102D-01-0.315D-01-0.261D-01
 Coeff-Com:  0.274D+00 0.794D+00
 Coeff:      0.108D-04-0.189D-03-0.609D-03-0.102D-01-0.315D-01-0.261D-01
 Coeff:      0.274D+00 0.794D+00
 Gap=     0.342 Goal=   None    Shift=    0.000
 RMSDP=1.22D-05 MaxDP=6.11D-04 DE=-5.64D-07 OVMax= 1.31D-04

 Cycle   9  Pass 1  IDiag  1:
 RMSU=  5.82D-06    CP:  5.92D-01  8.48D-01  6.95D-01  9.43D-01  1.22D+00
                    CP:  1.13D+00  1.17D+00  1.12D+00
 E= -420.726473125826     Delta-E=       -0.000000078658 Rises=F Damp=F
 DIIS: error= 9.34D-06 at cycle   9 NSaved=   9.
 NSaved= 9 IEnMin= 9 EnMin= -420.726473125826     IErMin= 9 ErrMin= 9.34D-06
 ErrMax= 9.34D-06  0.00D+00 EMaxC= 1.00D-01 BMatC= 6.57D-09 BMatP= 4.85D-08
 IDIUse=1 WtCom= 1.00D+00 WtEn= 0.00D+00
 Coeff-Com:  0.414D-04 0.791D-03 0.895D-03-0.179D-02-0.128D-01-0.315D-01
 Coeff-Com: -0.108D-01 0.279D+00 0.776D+00
 Coeff:      0.414D-04 0.791D-03 0.895D-03-0.179D-02-0.128D-01-0.315D-01
 Coeff:     -0.108D-01 0.279D+00 0.776D+00
 Gap=     0.342 Goal=   None    Shift=    0.000
 RMSDP=4.03D-06 MaxDP=2.17D-04 DE=-7.87D-08 OVMax= 5.47D-05

 Cycle  10  Pass 1  IDiag  1:
 RMSU=  1.77D-06    CP:  5.92D-01  8.48D-01  6.95D-01  9.42D-01  1.22D+00
                    CP:  1.14D+00  1.18D+00  1.18D+00  1.17D+00
 E= -420.726473135120     Delta-E=       -0.000000009294 Rises=F Damp=F
 DIIS: error= 1.24D-06 at cycle  10 NSaved=  10.
 NSaved=10 IEnMin=10 EnMin= -420.726473135120     IErMin=10 ErrMin= 1.24D-06
 ErrMax= 1.24D-06  0.00D+00 EMaxC= 1.00D-01 BMatC= 7.20D-10 BMatP= 6.57D-09
 IDIUse=1 WtCom= 1.00D+00 WtEn= 0.00D+00
 Coeff-Com:  0.102D-04 0.215D-03 0.258D-03 0.380D-03 0.152D-03-0.711D-02
 Coeff-Com: -0.286D-01-0.214D-02 0.238D+00 0.799D+00
 Coeff:      0.102D-04 0.215D-03 0.258D-03 0.380D-03 0.152D-03-0.711D-02
 Coeff:     -0.286D-01-0.214D-02 0.238D+00 0.799D+00
 Gap=     0.342 Goal=   None    Shift=    0.000
 RMSDP=1.54D-06 MaxDP=8.67D-05 DE=-9.29D-09 OVMax= 1.20D-05

 Cycle  11  Pass 1  IDiag  1:
 RMSU=  4.51D-07    CP:  5.92D-01  8.48D-01  6.95D-01  9.42D-01  1.22D+00
                    CP:  1.13D+00  1.18D+00  1.19D+00  1.26D+00  1.27D+00
 E= -420.726473136083     Delta-E=       -0.000000000963 Rises=F Damp=F
 DIIS: error= 5.35D-07 at cycle  11 NSaved=  11.
 NSaved=11 IEnMin=11 EnMin= -420.726473136083     IErMin=11 ErrMin= 5.35D-07
 ErrMax= 5.35D-07  0.00D+00 EMaxC= 1.00D-01 BMatC= 8.51D-11 BMatP= 7.20D-10
 IDIUse=1 WtCom= 1.00D+00 WtEn= 0.00D+00
 Coeff-Com: -0.175D-05-0.171D-04-0.141D-04 0.378D-03 0.186D-02 0.108D-02
 Coeff-Com: -0.758D-02-0.398D-01-0.253D-01 0.247D+00 0.822D+00
 Coeff:     -0.175D-05-0.171D-04-0.141D-04 0.378D-03 0.186D-02 0.108D-02
 Coeff:     -0.758D-02-0.398D-01-0.253D-01 0.247D+00 0.822D+00
 Gap=     0.342 Goal=   None    Shift=    0.000
 RMSDP=6.58D-07 MaxDP=3.63D-05 DE=-9.63D-10 OVMax= 6.32D-06

 Cycle  12  Pass 1  IDiag  1:
 RMSU=  1.65D-07    CP:  5.92D-01  8.48D-01  6.95D-01  9.42D-01  1.22D+00
                    CP:  1.13D+00  1.18D+00  1.19D+00  1.29D+00  1.42D+00
                    CP:  1.28D+00
 E= -420.726473136202     Delta-E=       -0.000000000119 Rises=F Damp=F
 DIIS: error= 2.63D-07 at cycle  12 NSaved=  12.
 NSaved=12 IEnMin=12 EnMin= -420.726473136202     IErMin=12 ErrMin= 2.63D-07
 ErrMax= 2.63D-07  0.00D+00 EMaxC= 1.00D-01 BMatC= 6.93D-12 BMatP= 8.51D-11
 IDIUse=1 WtCom= 1.00D+00 WtEn= 0.00D+00
 Coeff-Com: -0.116D-05-0.181D-04-0.202D-04 0.918D-04 0.567D-03 0.620D-03
 Coeff-Com:  0.457D-04-0.115D-01-0.227D-01 0.182D-01 0.252D+00 0.763D+00
 Coeff:     -0.116D-05-0.181D-04-0.202D-04 0.918D-04 0.567D-03 0.620D-03
 Coeff:      0.457D-04-0.115D-01-0.227D-01 0.182D-01 0.252D+00 0.763D+00
 Gap=     0.342 Goal=   None    Shift=    0.000
 RMSDP=1.18D-07 MaxDP=5.90D-06 DE=-1.19D-10 OVMax= 1.75D-06

 Cycle  13  Pass 1  IDiag  1:
 RMSU=  4.76D-08    CP:  5.92D-01  8.48D-01  6.95D-01  9.42D-01  1.22D+00
                    CP:  1.13D+00  1.18D+00  1.19D+00  1.30D+00  1.45D+00
                    CP:  1.35D+00  1.14D+00
 E= -420.726473136211     Delta-E=       -0.000000000009 Rises=F Damp=F
 DIIS: error= 9.91D-08 at cycle  13 NSaved=  13.
 NSaved=13 IEnMin=13 EnMin= -420.726473136211     IErMin=13 ErrMin= 9.91D-08
 ErrMax= 9.91D-08  0.00D+00 EMaxC= 1.00D-01 BMatC= 7.51D-13 BMatP= 6.93D-12
 IDIUse=1 WtCom= 1.00D+00 WtEn= 0.00D+00
 Coeff-Com: -0.101D-07-0.342D-05-0.571D-05-0.389D-04-0.152D-03-0.836D-04
 Coeff-Com:  0.128D-02 0.354D-02-0.105D-02-0.356D-01-0.759D-01 0.138D+00
 Coeff-Com:  0.971D+00
 Coeff:     -0.101D-07-0.342D-05-0.571D-05-0.389D-04-0.152D-03-0.836D-04
 Coeff:      0.128D-02 0.354D-02-0.105D-02-0.356D-01-0.759D-01 0.138D+00
 Coeff:      0.971D+00
 Gap=     0.342 Goal=   None    Shift=    0.000
 RMSDP=7.13D-08 MaxDP=4.74D-06 DE=-9.21D-12 OVMax= 1.18D-06

 Cycle  14  Pass 1  IDiag  1:
 RMSU=  1.75D-08    CP:  5.92D-01  8.48D-01  6.95D-01  9.42D-01  1.22D+00
                    CP:  1.13D+00  1.18D+00  1.19D+00  1.29D+00  1.46D+00
                    CP:  1.42D+00  1.28D+00  1.17D+00
 E= -420.726473136213     Delta-E=       -0.000000000001 Rises=F Damp=F
 DIIS: error= 6.24D-08 at cycle  14 NSaved=  14.
 NSaved=14 IEnMin=14 EnMin= -420.726473136213     IErMin=14 ErrMin= 6.24D-08
 ErrMax= 6.24D-08  0.00D+00 EMaxC= 1.00D-01 BMatC= 8.01D-14 BMatP= 7.51D-13
 IDIUse=1 WtCom= 1.00D+00 WtEn= 0.00D+00
 Coeff-Com:  0.822D-07 0.110D-05 0.950D-06-0.126D-04-0.676D-04-0.658D-04
 Coeff-Com:  0.168D-03 0.147D-02 0.178D-02-0.718D-02-0.294D-01-0.530D-01
 Coeff-Com:  0.126D+00 0.961D+00
 Coeff:      0.822D-07 0.110D-05 0.950D-06-0.126D-04-0.676D-04-0.658D-04
 Coeff:      0.168D-03 0.147D-02 0.178D-02-0.718D-02-0.294D-01-0.530D-01
 Coeff:      0.126D+00 0.961D+00
 Gap=     0.342 Goal=   None    Shift=    0.000
 RMSDP=1.56D-08 MaxDP=9.80D-07 DE=-1.48D-12 OVMax= 4.94D-07

 Cycle  15  Pass 1  IDiag  1:
 RMSU=  7.02D-09    CP:  5.92D-01  8.48D-01  6.95D-01  9.42D-01  1.22D+00
                    CP:  1.13D+00  1.18D+00  1.19D+00  1.29D+00  1.46D+00
                    CP:  1.42D+00  1.30D+00  1.29D+00  1.23D+00
 E= -420.726473136216     Delta-E=       -0.000000000003 Rises=F Damp=F
 DIIS: error= 2.56D-08 at cycle  15 NSaved=  15.
 NSaved=15 IEnMin=15 EnMin= -420.726473136216     IErMin=15 ErrMin= 2.56D-08
 ErrMax= 2.56D-08  0.00D+00 EMaxC= 1.00D-01 BMatC= 2.52D-14 BMatP= 8.01D-14
 IDIUse=1 WtCom= 1.00D+00 WtEn= 0.00D+00
 Coeff-Com:  0.240D-07 0.101D-05 0.144D-05 0.381D-05 0.873D-05-0.670D-06
 Coeff-Com: -0.209D-03-0.199D-03 0.803D-03 0.473D-02 0.641D-02-0.455D-01
 Coeff-Com: -0.162D+00 0.322D+00 0.874D+00
 Coeff:      0.240D-07 0.101D-05 0.144D-05 0.381D-05 0.873D-05-0.670D-06
 Coeff:     -0.209D-03-0.199D-03 0.803D-03 0.473D-02 0.641D-02-0.455D-01
 Coeff:     -0.162D+00 0.322D+00 0.874D+00
 Gap=     0.342 Goal=   None    Shift=    0.000
 RMSDP=6.07D-09 MaxDP=2.88D-07 DE=-3.30D-12 OVMax= 2.23D-07

 SCF Done:  E(RwB97XD) =  -420.726473136     A.U. after   15 cycles
            NFock= 15  Conv=0.61D-08     -V/T= 2.0014
 KE= 4.201543358126D+02 PE=-1.803311994593D+03 EE= 5.525092544476D+02
 Leave Link  502 at Sun Nov 20 17:25:52 2022, MaxMem= 16106127360 cpu:             414.0 elap:              13.0
 (Enter /opt/ap/G16/B01/g16/l601.exe)
 Copying SCF densities to generalized density rwf, IOpCl= 0 IROHF=0.

 **********************************************************************

            Population analysis using the SCF Density.

 **********************************************************************

 Orbital symmetries:
       Occupied  (A) (A) (A) (A) (A) (A) (A) (A) (A) (A) (A) (A)
                 (A) (A) (A) (A) (A) (A) (A) (A) (A) (A) (A) (A)
                 (A) (A) (A) (A) (A) (A) (A) (A)
       Virtual   (A) (A) (A) (A) (A) (A) (A) (A) (A) (A) (A) (A)
                 (A) (A) (A) (A) (A) (A) (A) (A) (A) (A) (A) (A)
                 (A) (A) (A) (A) (A) (A) (A) (A) (A) (A) (A) (A)
                 (A) (A) (A) (A) (A) (A) (A) (A) (A) (A) (A) (A)
                 (A) (A) (A) (A) (A) (A) (A) (A) (A) (A) (A) (A)
                 (A) (A) (A) (A) (A) (A) (A) (A) (A) (A) (A) (A)
                 (A) (A) (A) (A) (A) (A) (A) (A) (A) (A) (A) (A)
                 (A) (A) (A) (A) (A) (A) (A) (A) (A) (A) (A) (A)
                 (A) (A) (A) (A) (A) (A) (A) (A) (A) (A) (A) (A)
                 (A) (A) (A) (A) (A) (A) (A) (A) (A) (A) (A) (A)
                 (A) (A) (A) (A) (A) (A) (A) (A) (A) (A) (A) (A)
                 (A) (A) (A) (A) (A) (A) (A) (A) (A) (A) (A) (A)
                 (A) (A) (A) (A) (A) (A) (A) (A) (A) (A) (A) (A)
                 (A) (A) (A) (A) (A) (A) (A) (A) (A) (A) (A) (A)
                 (A) (A) (A) (A) (A) (A) (A) (A) (A) (A) (A) (A)
                 (A) (A) (A) (A) (A) (A) (A) (A) (A) (A) (A) (A)
                 (A) (A) (A) (A) (A) (A) (A) (A) (A) (A) (A) (A)
                 (A) (A) (A) (A)
 The electronic state is 1-A.
 Alpha  occ. eigenvalues --  -19.29932 -19.23596 -10.43236 -10.30974 -10.29718
 Alpha  occ. eigenvalues --  -10.29497 -10.29483 -10.29256 -10.29087  -1.24945
 Alpha  occ. eigenvalues --   -1.11050  -0.98306  -0.88726  -0.87311  -0.79500
 Alpha  occ. eigenvalues --   -0.73730  -0.72862  -0.66719  -0.61502  -0.58142
 Alpha  occ. eigenvalues --   -0.56960  -0.56250  -0.53801  -0.53703  -0.48224
 Alpha  occ. eigenvalues --   -0.47259  -0.45393  -0.43266  -0.42439  -0.36290
 Alpha  occ. eigenvalues --   -0.34959  -0.34572
 Alpha virt. eigenvalues --   -0.00357   0.03249   0.03934   0.04388   0.05194
 Alpha virt. eigenvalues --    0.06545   0.07772   0.08738   0.09956   0.10499
 Alpha virt. eigenvalues --    0.11616   0.12886   0.13225   0.13853   0.14311
 Alpha virt. eigenvalues --    0.15881   0.16277   0.16892   0.17158   0.17800
 Alpha virt. eigenvalues --    0.18171   0.18836   0.19705   0.19927   0.20366
 Alpha virt. eigenvalues --    0.21042   0.21359   0.22011   0.22959   0.24128
 Alpha virt. eigenvalues --    0.25123   0.25849   0.26419   0.27412   0.27716
 Alpha virt. eigenvalues --    0.29576   0.29905   0.30489   0.31050   0.32387
 Alpha virt. eigenvalues --    0.32593   0.34384   0.35105   0.35438   0.36203
 Alpha virt. eigenvalues --    0.37246   0.37697   0.38405   0.39687   0.40428
 Alpha virt. eigenvalues --    0.41426   0.41994   0.42729   0.43748   0.46706
 Alpha virt. eigenvalues --    0.47399   0.49577   0.54044   0.54741   0.57874
 Alpha virt. eigenvalues --    0.59094   0.60245   0.61723   0.62790   0.63775
 Alpha virt. eigenvalues --    0.64152   0.64832   0.66039   0.67149   0.69329
 Alpha virt. eigenvalues --    0.70298   0.73705   0.73836   0.74136   0.76047
 Alpha virt. eigenvalues --    0.76812   0.80982   0.82435   0.83941   0.86119
 Alpha virt. eigenvalues --    0.88378   0.90694   0.92485   0.93458   0.94621
 Alpha virt. eigenvalues --    0.95780   0.96311   0.98114   0.99689   1.00293
 Alpha virt. eigenvalues --    1.03560   1.06031   1.07695   1.09707   1.10128
 Alpha virt. eigenvalues --    1.14311   1.15020   1.16392   1.16542   1.18961
 Alpha virt. eigenvalues --    1.21003   1.22250   1.25371   1.28663   1.30168
 Alpha virt. eigenvalues --    1.34977   1.41609   1.43972   1.46769   1.48537
 Alpha virt. eigenvalues --    1.56045   1.59148   1.60209   1.60952   1.62000
 Alpha virt. eigenvalues --    1.63076   1.66663   1.66855   1.71175   1.73972
 Alpha virt. eigenvalues --    1.74866   1.75768   1.82570   1.83690   1.85129
 Alpha virt. eigenvalues --    1.87902   1.88658   1.91395   1.92394   1.99699
 Alpha virt. eigenvalues --    2.00037   2.01435   2.02810   2.04077   2.04563
 Alpha virt. eigenvalues --    2.07650   2.08645   2.16024   2.17689   2.20250
 Alpha virt. eigenvalues --    2.22840   2.25347   2.29504   2.42636   2.45967
 Alpha virt. eigenvalues --    2.51286   2.52235   2.54195   2.58078   2.66386
 Alpha virt. eigenvalues --    2.69980   2.73429   2.76060   2.77563   2.81326
 Alpha virt. eigenvalues --    2.81592   2.83746   2.88112   2.90012   2.90145
 Alpha virt. eigenvalues --    2.90353   2.91550   2.95903   2.99362   2.99639
 Alpha virt. eigenvalues --    3.02414   3.05016   3.06313   3.17519   3.18276
 Alpha virt. eigenvalues --    3.18840   3.21730   3.26565   3.31921   3.41177
 Alpha virt. eigenvalues --    3.45137   3.46700   3.49150   3.53550   3.63792
 Alpha virt. eigenvalues --    3.66249   3.68153   3.73170   3.84349   3.87835
 Alpha virt. eigenvalues --    3.94184   4.18683   4.28673   4.30474   4.36909
 Alpha virt. eigenvalues --    4.40730   4.44835   4.94738   5.15519   5.21024
 Alpha virt. eigenvalues --    5.29926   5.44178   5.80636   6.08492  23.83786
 Alpha virt. eigenvalues --   23.95838  24.13997  24.21093  24.28161  24.30109
 Alpha virt. eigenvalues --   24.41526  50.05197  50.16628
          Condensed to atoms (all electrons):
               1          2          3          4          5          6
     1  C    9.818266  -2.269730  -2.124919   1.545802  -0.111985  -1.472484
     2  C   -2.269730  15.159536  -1.377279  -4.923154   0.605374  -0.234349
     3  C   -2.124919  -1.377279  13.523025  -0.504434  -0.044308  -0.437159
     4  C    1.545802  -4.923154  -0.504434   9.531652  -0.043853  -0.541768
     5  H   -0.111985   0.605374  -0.044308  -0.043853   0.495392  -0.064503
     6  C   -1.472484  -0.234349  -0.437159  -0.541768  -0.064503   7.742882
     7  C    0.952714  -0.700935  -3.866789   0.942218   0.002852   0.206722
     8  H   -0.050896   0.012254   0.542399  -0.001823   0.000021  -0.042477
     9  C   -1.301883   1.052082   1.153197  -0.676324   0.021085   0.113328
    10  H    0.031147  -0.123314   0.014436   0.445037  -0.009516   0.001226
    11  O   -0.156810  -0.194947  -0.002927   0.119012   0.004516   0.252454
    12  O   -0.175517  -0.042235  -0.109550   0.062369  -0.003116   0.531102
    13  H    0.029366   0.008391  -0.121212   0.003738   0.000580   0.005906
    14  H    0.013406   0.008610   0.008093  -0.050883  -0.000069  -0.005768
    15  H   -0.041265  -0.010228   0.000428   0.006067  -0.009870   0.042698
               7          8          9         10         11         12
     1  C    0.952714  -0.050896  -1.301883   0.031147  -0.156810  -0.175517
     2  C   -0.700935   0.012254   1.052082  -0.123314  -0.194947  -0.042235
     3  C   -3.866789   0.542399   1.153197   0.014436  -0.002927  -0.109550
     4  C    0.942218  -0.001823  -0.676324   0.445037   0.119012   0.062369
     5  H    0.002852   0.000021   0.021085  -0.009516   0.004516  -0.003116
     6  C    0.206722  -0.042477   0.113328   0.001226   0.252454   0.531102
     7  C    8.736173  -0.102707  -0.779679   0.001215   0.073734   0.136536
     8  H   -0.102707   0.429541   0.012455   0.000622  -0.003491  -0.004323
     9  C   -0.779679   0.012455   6.601037  -0.040849  -0.031100  -0.021333
    10  H    0.001215   0.000622  -0.040849   0.471774   0.002662   0.000580
    11  O    0.073734  -0.003491  -0.031100   0.002662   7.914631  -0.111106
    12  O    0.136536  -0.004323  -0.021333   0.000580  -0.111106   8.016021
    13  H    0.443784  -0.007581  -0.037749  -0.000829   0.001156   0.001962
    14  H   -0.042424   0.000180   0.425991  -0.006896  -0.000487  -0.000330
    15  H    0.002236  -0.000062  -0.002395   0.000385   0.344035   0.004486
              13         14         15
     1  C    0.029366   0.013406  -0.041265
     2  C    0.008391   0.008610  -0.010228
     3  C   -0.121212   0.008093   0.000428
     4  C    0.003738  -0.050883   0.006067
     5  H    0.000580  -0.000069  -0.009870
     6  C    0.005906  -0.005768   0.042698
     7  C    0.443784  -0.042424   0.002236
     8  H   -0.007581   0.000180  -0.000062
     9  C   -0.037749   0.425991  -0.002395
    10  H   -0.000829  -0.006896   0.000385
    11  O    0.001156  -0.000487   0.344035
    12  O    0.001962  -0.000330   0.004486
    13  H    0.463496  -0.006298   0.000066
    14  H   -0.006298   0.468934  -0.000082
    15  H    0.000066  -0.000082   0.342207
 Mulliken charges:
               1
     1  C    1.314787
     2  C   -0.970076
     3  C   -0.653000
     4  C    0.086343
     5  H    0.157400
     6  C   -0.097811
     7  C   -0.005649
     8  H    0.215888
     9  C   -0.487865
    10  H    0.212321
    11  O   -0.211332
    12  O   -0.285547
    13  H    0.215225
    14  H    0.188023
    15  H    0.321293
 Sum of Mulliken charges =  -0.00000
 Mulliken charges with hydrogens summed into heavy atoms:
               1
     1  C    1.314787
     2  C   -0.812676
     3  C   -0.437112
     4  C    0.298664
     6  C   -0.097811
     7  C    0.209575
     9  C   -0.299842
    11  O    0.109961
    12  O   -0.285547
 Electronic spatial extent (au):  <R**2>=           1153.0138
 Charge=             -0.0000 electrons
 Dipole moment (field-independent basis, Debye):
    X=              2.6816    Y=             -2.6814    Z=              1.4011  Tot=              4.0427
 Quadrupole moment (field-independent basis, Debye-Ang):
   XX=            -51.6142   YY=            -47.6891   ZZ=            -52.7443
   XY=              7.8552   XZ=             -4.0705   YZ=             -2.4685
 Traceless Quadrupole moment (field-independent basis, Debye-Ang):
   XX=             -0.9317   YY=              2.9935   ZZ=             -2.0618
   XY=              7.8552   XZ=             -4.0705   YZ=             -2.4685
 Octapole moment (field-independent basis, Debye-Ang**2):
  XXX=             18.4093  YYY=             -7.9527  ZZZ=              1.2623  XYY=              3.1196
  XXY=            -20.6343  XXZ=             11.1055  XZZ=            -14.4876  YZZ=             -2.1146
  YYZ=              3.8511  XYZ=              6.8886
 Hexadecapole moment (field-independent basis, Debye-Ang**3):
 XXXX=          -1018.8517 YYYY=           -353.5639 ZZZZ=            -58.6498 XXXY=             57.4091
 XXXZ=            -31.1004 YYYX=             25.0062 YYYZ=             -6.3773 ZZZX=             -4.2974
 ZZZY=             -2.6474 XXYY=           -226.7168 XXZZ=           -184.2292 YYZZ=            -76.6708
 XXYZ=            -17.5347 YYXZ=            -10.1939 ZZXY=              6.2336
 N-N= 4.099219311963D+02 E-N=-1.803311994825D+03  KE= 4.201543358126D+02
 No NMR shielding tensors so no spin-rotation constants.
 Leave Link  601 at Sun Nov 20 17:25:52 2022, MaxMem= 16106127360 cpu:               3.4 elap:               0.1
 (Enter /opt/ap/G16/B01/g16/l9999.exe)
 1\1\GINC-N02\SP\RwB97XD\6-311++G(d,p)\C7H6O2\ROOT\20-Nov-2022\0\\#P wB
 97XD/6-311++G(d,p) scf=maxcycle=512\\_conf000.gjf nmol_natom 1_15\\0,1
 \C\C,1,1.39016191\C,1,1.39194539,2,119.895942\C,2,1.38669027,1,119.880
 75721,3,0.70825972,0\H,2,0.98744251,1,119.71654057,3,-179.90726164,0\C
 ,1,1.48428757,2,119.93615286,4,-179.87772406,0\C,3,1.40101108,1,119.72
 36454,2,-0.26266839,0\H,3,0.9902154,1,119.1886159,2,178.85397616,0\C,4
 ,1.37899003,2,120.45785903,1,-0.48041454,0\H,4,0.9834739,2,120.3044270
 6,1,179.36166981,0\O,6,1.27459751,1,118.00615353,2,-1.25976832,0\O,6,1
 .26362572,1,118.77715367,2,179.20603801,0\H,7,0.98977053,3,119.3786157
 8,1,-178.93545741,0\H,9,0.99498061,4,119.46722635,2,-178.58826714,0\H,
 11,0.89680392,6,118.15823763,1,-270.,0\\Version=ES64L-G16RevB.01\State
 =1-A\HF=-420.7264731\RMSD=6.068e-09\Dipole=0.4292484,0.56085,1.4251298
 \Quadrupole=4.8153583,-1.4901573,-3.325201,-3.607322,-4.3870976,0.1839
 159\PG=C01 [X(C7H6O2)]\\@


 IF I HAVE SEEN FARTHER, IT IS BY STANDING ON THE
 SHOULDERS OF GIANTS. -- SIR ISAAC NEWTON
 Job cpu time:       0 days  0 hours  7 minutes 32.3 seconds.
 Elapsed time:       0 days  0 hours  0 minutes 14.3 seconds.
 File lengths (MBytes):  RWF=     35 Int=      0 D2E=      0 Chk=      4 Scr=      1
 Normal termination of Gaussian 16 at Sun Nov 20 17:25:52 2022.
