 Entering Gaussian System, Link 0=g16
 Input=_conf021.gjf
 Output=_conf021.log
 Initial command:
 /opt/ap/G16/B01/g16/l1.exe "/tmp2/scr/Gau-17542.inp" -scrdir="/tmp2/scr/"
 Entering Link 1 = /opt/ap/G16/B01/g16/l1.exe PID=     17543.
  
 Copyright (c) 1988-2017, Gaussian, Inc.  All Rights Reserved.
  
 This is part of the Gaussian(R) 16 program.  It is based on
 the Gaussian(R) 09 system (copyright 2009, Gaussian, Inc.),
 the Gaussian(R) 03 system (copyright 2003, Gaussian, Inc.),
 the Gaussian(R) 98 system (copyright 1998, Gaussian, Inc.),
 the Gaussian(R) 94 system (copyright 1995, Gaussian, Inc.),
 the Gaussian 92(TM) system (copyright 1992, Gaussian, Inc.),
 the Gaussian 90(TM) system (copyright 1990, Gaussian, Inc.),
 the Gaussian 88(TM) system (copyright 1988, Gaussian, Inc.),
 the Gaussian 86(TM) system (copyright 1986, Carnegie Mellon
 University), and the Gaussian 82(TM) system (copyright 1983,
 Carnegie Mellon University). Gaussian is a federally registered
 trademark of Gaussian, Inc.
  
 This software contains proprietary and confidential information,
 including trade secrets, belonging to Gaussian, Inc.
  
 This software is provided under written license and may be
 used, copied, transmitted, or stored only in accord with that
 written license.
  
 The following legend is applicable only to US Government
 contracts under FAR:
  
                    RESTRICTED RIGHTS LEGEND
  
 Use, reproduction and disclosure by the US Government is
 subject to restrictions as set forth in subparagraphs (a)
 and (c) of the Commercial Computer Software - Restricted
 Rights clause in FAR 52.227-19.
  
 Gaussian, Inc.
 340 Quinnipiac St., Bldg. 40, Wallingford CT 06492
  
  
 ---------------------------------------------------------------
 Warning -- This program may not be used in any manner that
 competes with the business of Gaussian, Inc. or will provide
 assistance to any competitor of Gaussian, Inc.  The licensee
 of this program is prohibited from giving any competitor of
 Gaussian, Inc. access to this program.  By using this program,
 the user acknowledges that Gaussian, Inc. is engaged in the
 business of creating and licensing software in the field of
 computational chemistry and represents and warrants to the
 licensee that it is not a competitor of Gaussian, Inc. and that
 it will not use this program in any manner prohibited above.
 ---------------------------------------------------------------
  

 Cite this work as:
 Gaussian 16, Revision B.01,
 M. J. Frisch, G. W. Trucks, H. B. Schlegel, G. E. Scuseria, 
 M. A. Robb, J. R. Cheeseman, G. Scalmani, V. Barone, 
 G. A. Petersson, H. Nakatsuji, X. Li, M. Caricato, A. V. Marenich, 
 J. Bloino, B. G. Janesko, R. Gomperts, B. Mennucci, H. P. Hratchian, 
 J. V. Ortiz, A. F. Izmaylov, J. L. Sonnenberg, D. Williams-Young, 
 F. Ding, F. Lipparini, F. Egidi, J. Goings, B. Peng, A. Petrone, 
 T. Henderson, D. Ranasinghe, V. G. Zakrzewski, J. Gao, N. Rega, 
 G. Zheng, W. Liang, M. Hada, M. Ehara, K. Toyota, R. Fukuda, 
 J. Hasegawa, M. Ishida, T. Nakajima, Y. Honda, O. Kitao, H. Nakai, 
 T. Vreven, K. Throssell, J. A. Montgomery, Jr., J. E. Peralta, 
 F. Ogliaro, M. J. Bearpark, J. J. Heyd, E. N. Brothers, K. N. Kudin, 
 V. N. Staroverov, T. A. Keith, R. Kobayashi, J. Normand, 
 K. Raghavachari, A. P. Rendell, J. C. Burant, S. S. Iyengar, 
 J. Tomasi, M. Cossi, J. M. Millam, M. Klene, C. Adamo, R. Cammi, 
 J. W. Ochterski, R. L. Martin, K. Morokuma, O. Farkas, 
 J. B. Foresman, and D. J. Fox, Gaussian, Inc., Wallingford CT, 2016.
 
 ******************************************
 Gaussian 16:  ES64L-G16RevB.01 20-Dec-2017
                20-Nov-2022 
 ******************************************
 %nprocshared=32
 Will use up to   32 processors via shared memory.
 %mem=120GB
 %chk=_conf021.chk
 ----------------------------------------
 #P wB97XD/6-311++G(d,p) scf=maxcycle=512
 ----------------------------------------
 1/38=1,172=1/1;
 2/12=2,17=6,18=5,40=1/2;
 3/5=4,6=6,7=1111,11=2,25=1,30=1,74=-58/1,2,3;
 4//1;
 5/5=2,7=512,38=5/2;
 6/7=2,8=2,9=2,10=2,28=1/1;
 99/5=1,9=1/99;
 Leave Link    1 at Sun Nov 20 17:26:50 2022, MaxMem= 16106127360 cpu:               2.5 elap:               0.1
 (Enter /opt/ap/G16/B01/g16/l101.exe)
 ----------------------------
 _conf021.gjf nmol_natom 1_15
 ----------------------------
 Symbolic Z-matrix:
 Charge =  0 Multiplicity = 1
 C
 C                    1     1.39016 
 C                    1     1.39195  2     119.89594 
 C                    2     1.38669  1     119.88076  3     0.70826  0
 H                    2     0.98744  1     119.71654  3    -179.90726  0
 C                    1     1.48429  2     119.93615  4    -179.87772  0
 C                    3     1.40101  1     119.72365  2    -0.26267  0
 H                    3     0.99022  1     119.18862  2     178.85398  0
 C                    4     1.37899  2     120.45786  1    -0.48041  0
 H                    4     0.98347  2     120.30443  1     179.36167  0
 O                    6     1.2746   1     118.00615  2    -1.25977  0
 O                    6     1.26363  1     118.77715  2     179.20604  0
 H                    7     0.98977  3     119.37862  1    -178.93546  0
 H                    9     0.99498  4     119.46723  2    -178.58827  0
 H                    11    0.8968   6     118.15824  1    -165.     0
 
 ITRead=  0  0  0  0  0  0  0  0  0  0  0  0  0  0  0
 MicOpt= -1 -1 -1 -1 -1 -1 -1 -1 -1 -1 -1 -1 -1 -1 -1
 NAtoms=     15 NQM=       15 NQMF=       0 NMMI=      0 NMMIF=      0
                NMic=       0 NMicF=      0.
                    Isotopes and Nuclear Properties:
 (Nuclear quadrupole moments (NQMom) in fm**2, nuclear magnetic moments (NMagM)
  in nuclear magnetons)

  Atom         1           2           3           4           5           6           7           8           9          10
 IAtWgt=          12          12          12          12           1          12          12           1          12           1
 AtmWgt=  12.0000000  12.0000000  12.0000000  12.0000000   1.0078250  12.0000000  12.0000000   1.0078250  12.0000000   1.0078250
 NucSpn=           0           0           0           0           1           0           0           1           0           1
 AtZEff=  -0.0000000  -0.0000000  -0.0000000  -0.0000000  -0.0000000  -0.0000000  -0.0000000  -0.0000000  -0.0000000  -0.0000000
 NQMom=    0.0000000   0.0000000   0.0000000   0.0000000   0.0000000   0.0000000   0.0000000   0.0000000   0.0000000   0.0000000
 NMagM=    0.0000000   0.0000000   0.0000000   0.0000000   2.7928460   0.0000000   0.0000000   2.7928460   0.0000000   2.7928460
 AtZNuc=   6.0000000   6.0000000   6.0000000   6.0000000   1.0000000   6.0000000   6.0000000   1.0000000   6.0000000   1.0000000

  Atom        11          12          13          14          15
 IAtWgt=          16          16           1           1           1
 AtmWgt=  15.9949146  15.9949146   1.0078250   1.0078250   1.0078250
 NucSpn=           0           0           1           1           1
 AtZEff=  -0.0000000  -0.0000000  -0.0000000  -0.0000000  -0.0000000
 NQMom=    0.0000000   0.0000000   0.0000000   0.0000000   0.0000000
 NMagM=    0.0000000   0.0000000   2.7928460   2.7928460   2.7928460
 AtZNuc=   8.0000000   8.0000000   1.0000000   1.0000000   1.0000000
 Leave Link  101 at Sun Nov 20 17:26:50 2022, MaxMem= 16106127360 cpu:               5.2 elap:               0.2
 (Enter /opt/ap/G16/B01/g16/l202.exe)
                          Input orientation:                          
 ---------------------------------------------------------------------
 Center     Atomic      Atomic             Coordinates (Angstroms)
 Number     Number       Type             X           Y           Z
 ---------------------------------------------------------------------
      1          6           0        0.000000    0.000000    0.000000
      2          6           0        0.000000    0.000000    1.390162
      3          6           0        1.206722    0.000000   -0.693782
      4          6           0        1.202258    0.014862    2.081006
      5          1           0       -0.857581   -0.001388    1.879646
      6          6           0       -1.286190   -0.013155   -0.740711
      7          6           0        2.415349    0.005578    0.014752
      8          1           0        1.194584   -0.017290   -1.683772
      9          6           0        2.400563    0.019708    1.398617
     10          1           0        1.209438    0.024411    3.064408
     11          8           0       -2.365984   -0.048941   -0.064425
     12          8           0       -1.260842    0.002453   -2.003986
     13          1           0        3.270315    0.021574   -0.483669
     14          1           0        3.254554    0.009066    1.909081
     15          1           0       -3.125641   -0.261641   -0.490965
 ---------------------------------------------------------------------
                    Distance matrix (angstroms):
                    1          2          3          4          5
     1  C    0.000000
     2  C    1.390162   0.000000
     3  C    1.391945   2.408112   0.000000
     4  C    2.403379   1.386690   2.774832   0.000000
     5  H    2.066039   0.987443   3.299073   2.069721   0.000000
     6  C    1.484288   2.488991   2.493388   3.762345   2.655206
     7  C    2.415401   2.779513   1.401011   2.396056   3.766955
     8  H    2.064563   3.297939   0.990215   3.764924   4.112127
     9  C    2.778349   2.400659   2.409104   1.378990   3.293530
    10  H    3.294530   2.065535   3.758270   0.983474   2.382624
    11  O    2.367367   2.777786   3.628045   4.164047   2.461088
    12  O    2.367633   3.620769   2.793834   4.770133   3.904515
    13  H    3.305958   3.769173   2.074374   3.294611   4.756607
    14  H    3.773167   3.295676   3.311886   2.059493   4.112253
    15  H    3.174765   3.657421   4.344992   5.042043   3.291144
                    6          7          8          9         10
     6  C    0.000000
     7  C    3.777892   0.000000
     8  H    2.653982   2.091836   0.000000
     9  C    4.262622   1.384016   3.310118   0.000000
    10  H    4.550659   3.279477   4.748386   2.047842   0.000000
    11  O    1.274598   4.782299   3.911641   4.986499   4.751696
    12  O    1.263626   4.194007   2.476296   4.998389   5.638384
    13  H    4.563881   0.989771   2.398003   2.073517   4.103177
    14  H    5.257398   2.071897   4.141589   0.994981   2.348938
    15  H    1.872885   5.570433   4.488523   5.847102   5.613859
                   11         12         13         14         15
    11  O    0.000000
    12  O    2.232908   0.000000
    13  H    5.652309   4.779447   0.000000
    14  H    5.957225   5.975025   2.392834   0.000000
    15  H    0.896804   2.415875   6.402227   6.822051   0.000000
 Stoichiometry    C7H6O2
 Framework group  C1[X(C7H6O2)]
 Deg. of freedom    39
 Full point group                 C1      NOp   1
 Largest Abelian subgroup         C1      NOp   1
 Largest concise Abelian subgroup C1      NOp   1
                         Standard orientation:                         
 ---------------------------------------------------------------------
 Center     Atomic      Atomic             Coordinates (Angstroms)
 Number     Number       Type             X           Y           Z
 ---------------------------------------------------------------------
      1          6           0        0.220948    0.028328   -0.009085
      2          6           0       -0.443225   -1.192908   -0.011307
      3          6           0       -0.507587    1.214260    0.008682
      4          6           0       -1.829536   -1.225365   -0.010675
      5          1           0        0.076242   -2.032593   -0.022539
      6          6           0        1.704790    0.064511   -0.012504
      7          6           0       -1.907839    1.169231    0.018657
      8          1           0       -0.023744    2.078015    0.027384
      9          6           0       -2.556175   -0.053424    0.002112
     10          1           0       -2.305788   -2.085762   -0.021695
     11          8           0        2.330595   -1.045703    0.007292
     12          8           0        2.285897    1.186513   -0.025741
     13          1           0       -2.420905    2.015634    0.015261
     14          1           0       -3.550094   -0.093991    0.023728
     15          1           0        3.204092   -1.035584    0.210167
 ---------------------------------------------------------------------
 Rotational constants (GHZ):           3.9668486           1.2391451           0.9444407
 Leave Link  202 at Sun Nov 20 17:26:50 2022, MaxMem= 16106127360 cpu:               0.3 elap:               0.0
 (Enter /opt/ap/G16/B01/g16/l301.exe)
 Standard basis: 6-311++G(d,p) (5D, 7F)
 Ernie: Thresh=  0.10000D-02 Tol=  0.10000D-05 Strict=F.
 There are   249 symmetry adapted cartesian basis functions of A   symmetry.
 There are   240 symmetry adapted basis functions of A   symmetry.
   240 basis functions,   378 primitive gaussians,   249 cartesian basis functions
    32 alpha electrons       32 beta electrons
       nuclear repulsion energy       409.5692535574 Hartrees.
 IExCor= 4639 DFT=T Ex+Corr=wB97XD ExCW=0 ScaHFX=  1.000000
 ScaDFX=  1.000000  1.000000  1.000000  1.000000 ScalE2=  1.000000  1.000000
 IRadAn=      5 IRanWt=     -1 IRanGd=            0 ICorTp=0 IEmpDi=121
 HFx  wShort=  0.000000 wLong=  0.200000 cFull=  0.222036 cShort=  0.000000 cLong=  0.777964
 DFx  wShort=  0.000000 wLong=  0.200000 cFull=  0.000000 cShort=  0.000000 cLong=  1.000000
 NAtoms=   15 NActive=   15 NUniq=   15 SFac= 1.00D+00 NAtFMM=   60 NAOKFM=F Big=F
 Integral buffers will be    131072 words long.
 Raffenetti 2 integral format.
 Two-electron integral symmetry is turned on.
 R6Disp:  Grimme-D2 Dispersion energy=       -0.0063332104 Hartrees.
 Nuclear repulsion after empirical dispersion term =      409.5629203471 Hartrees.
 Leave Link  301 at Sun Nov 20 17:26:50 2022, MaxMem= 16106127360 cpu:               1.2 elap:               0.0
 (Enter /opt/ap/G16/B01/g16/l302.exe)
 NPDir=0 NMtPBC=     1 NCelOv=     1 NCel=       1 NClECP=     1 NCelD=      1
         NCelK=      1 NCelE2=     1 NClLst=     1 CellRange=     0.0.
 One-electron integrals computed using PRISM.
 One-electron integral symmetry used in STVInt
 NBasis=   240 RedAO= T EigKep=  1.22D-06  NBF=   240
 NBsUse=   240 1.00D-06 EigRej= -1.00D+00 NBFU=   240
 Precomputing XC quadrature grid using
 IXCGrd= 4 IRadAn=           5 IRanWt=          -1 IRanGd=           0 AccXCQ= 0.00D+00.
 Generated NRdTot=       0 NPtTot=           0 NUsed=           0 NTot=          32
 NSgBfM=   249   249   249   249   249 MxSgAt=    15 MxSgA2=    15.
 Leave Link  302 at Sun Nov 20 17:26:51 2022, MaxMem= 16106127360 cpu:               5.4 elap:               0.2
 (Enter /opt/ap/G16/B01/g16/l303.exe)
 DipDrv:  MaxL=1.
 Leave Link  303 at Sun Nov 20 17:26:51 2022, MaxMem= 16106127360 cpu:               1.2 elap:               0.0
 (Enter /opt/ap/G16/B01/g16/l401.exe)
 ExpMin= 3.60D-02 ExpMax= 8.59D+03 ExpMxC= 1.30D+03 IAcc=3 IRadAn=         5 AccDes= 0.00D+00
 Harris functional with IExCor= 4639 and IRadAn=       5 diagonalized for initial guess.
 HarFok:  IExCor= 4639 AccDes= 0.00D+00 IRadAn=         5 IDoV= 1 UseB2=F ITyADJ=14
 ICtDFT=  3500011 ScaDFX=  1.000000  1.000000  1.000000  1.000000
 FoFCou: FMM=F IPFlag=           0 FMFlag=      100000 FMFlg1=           0
         NFxFlg=           0 DoJE=T BraDBF=F KetDBF=T FulRan=T
         wScrn=  0.000000 ICntrl=       500 IOpCl=  0 I1Cent=   200000004 NGrid=           0
         NMat0=    1 NMatS0=      1 NMatT0=    0 NMatD0=    1 NMtDS0=    0 NMtDT0=    0
 Petite list used in FoFCou.
 Harris En= -403.253884455302    
 JPrj=0 DoOrth=F DoCkMO=F.
 Leave Link  401 at Sun Nov 20 17:26:52 2022, MaxMem= 16106127360 cpu:              26.8 elap:               0.9
 (Enter /opt/ap/G16/B01/g16/l502.exe)
 Integral symmetry usage will be decided dynamically.
 Closed shell SCF:
 Using DIIS extrapolation, IDIIS=  1040.
 NGot= 16106127360 LenX= 16105992971 LenY= 16105930529
 Requested convergence on RMS density matrix=1.00D-08 within 512 cycles.
 Requested convergence on MAX density matrix=1.00D-06.
 Requested convergence on             energy=1.00D-06.
 No special actions if energy rises.
 Fock matrices will be formed incrementally for  20 cycles.

 Cycle   1  Pass 1  IDiag  1:
 FoFJK:  IHMeth= 1 ICntrl=       0 DoSepK=T KAlg= 0 I1Cent=           0 FoldK=F
 IRaf=         1 NMat=       1 IRICut=       1 DoRegI=T DoRafI=F ISym2E= 0 IDoP0=0 IntGTp=1.
 FoFCou: FMM=F IPFlag=           0 FMFlag=      100000 FMFlg1=           0
         NFxFlg=           0 DoJE=T BraDBF=F KetDBF=F FulRan=T
         wScrn=  0.000000 ICntrl=       500 IOpCl=  0 I1Cent=           0 NGrid=           0
         NMat0=    1 NMatS0=      1 NMatT0=    0 NMatD0=    1 NMtDS0=    0 NMtDT0=    0
 Symmetry not used in FoFCou.
 E= -420.631814933202    
 DIIS: error= 8.17D-02 at cycle   1 NSaved=   1.
 NSaved= 1 IEnMin= 1 EnMin= -420.631814933202     IErMin= 1 ErrMin= 8.17D-02
 ErrMax= 8.17D-02  0.00D+00 EMaxC= 1.00D-01 BMatC= 8.60D-01 BMatP= 8.60D-01
 IDIUse=3 WtCom= 1.83D-01 WtEn= 8.17D-01
 Coeff-Com:  0.100D+01
 Coeff-En:   0.100D+01
 Coeff:      0.100D+01
 Gap=     0.426 Goal=   None    Shift=    0.000
 GapD=    0.426 DampG=2.000 DampE=0.500 DampFc=1.0000 IDamp=-1.
 RMSDP=3.20D-02 MaxDP=2.86D+00              OVMax= 1.07D-01

 Cycle   2  Pass 1  IDiag  1:
 RMSU=  1.42D-02    CP:  6.79D-01
 E= -420.702796457707     Delta-E=       -0.070981524504 Rises=F Damp=F
 DIIS: error= 1.49D-02 at cycle   2 NSaved=   2.
 NSaved= 2 IEnMin= 2 EnMin= -420.702796457707     IErMin= 2 ErrMin= 1.49D-02
 ErrMax= 1.49D-02  0.00D+00 EMaxC= 1.00D-01 BMatC= 5.67D-02 BMatP= 8.60D-01
 IDIUse=3 WtCom= 8.51D-01 WtEn= 1.49D-01
 Coeff-Com:  0.135D+00 0.865D+00
 Coeff-En:   0.948D-01 0.905D+00
 Coeff:      0.129D+00 0.871D+00
 Gap=     0.423 Goal=   None    Shift=    0.000
 RMSDP=7.40D-03 MaxDP=3.47D-01 DE=-7.10D-02 OVMax= 7.55D-02

 Cycle   3  Pass 1  IDiag  1:
 RMSU=  6.79D-03    CP:  6.62D-01  8.22D-01
 E= -420.719072366988     Delta-E=       -0.016275909281 Rises=F Damp=F
 DIIS: error= 1.58D-02 at cycle   3 NSaved=   3.
 NSaved= 3 IEnMin= 3 EnMin= -420.719072366988     IErMin= 2 ErrMin= 1.49D-02
 ErrMax= 1.58D-02  0.00D+00 EMaxC= 1.00D-01 BMatC= 3.52D-02 BMatP= 5.67D-02
 IDIUse=3 WtCom= 8.42D-01 WtEn= 1.58D-01
 Coeff-Com:  0.274D-01 0.446D+00 0.526D+00
 Coeff-En:   0.000D+00 0.382D+00 0.618D+00
 Coeff:      0.230D-01 0.436D+00 0.541D+00
 Gap=     0.360 Goal=   None    Shift=    0.000
 RMSDP=4.04D-03 MaxDP=3.36D-01 DE=-1.63D-02 OVMax= 5.30D-02

 Cycle   4  Pass 1  IDiag  1:
 RMSU=  1.93D-03    CP:  6.40D-01  9.12D-01  6.02D-01
 E= -420.744785447048     Delta-E=       -0.025713080060 Rises=F Damp=F
 DIIS: error= 2.92D-03 at cycle   4 NSaved=   4.
 NSaved= 4 IEnMin= 4 EnMin= -420.744785447048     IErMin= 4 ErrMin= 2.92D-03
 ErrMax= 2.92D-03  0.00D+00 EMaxC= 1.00D-01 BMatC= 1.92D-03 BMatP= 3.52D-02
 IDIUse=3 WtCom= 9.71D-01 WtEn= 2.92D-02
 Coeff-Com:  0.105D-01 0.222D+00 0.306D+00 0.462D+00
 Coeff-En:   0.000D+00 0.000D+00 0.000D+00 0.100D+01
 Coeff:      0.102D-01 0.215D+00 0.297D+00 0.478D+00
 Gap=     0.350 Goal=   None    Shift=    0.000
 RMSDP=9.97D-04 MaxDP=4.84D-02 DE=-2.57D-02 OVMax= 1.23D-02

 Cycle   5  Pass 1  IDiag  1:
 RMSU=  7.25D-04    CP:  6.37D-01  8.96D-01  6.69D-01  8.12D-01
 E= -420.746081268495     Delta-E=       -0.001295821447 Rises=F Damp=F
 DIIS: error= 5.71D-04 at cycle   5 NSaved=   5.
 NSaved= 5 IEnMin= 5 EnMin= -420.746081268495     IErMin= 5 ErrMin= 5.71D-04
 ErrMax= 5.71D-04  0.00D+00 EMaxC= 1.00D-01 BMatC= 5.27D-05 BMatP= 1.92D-03
 IDIUse=3 WtCom= 9.94D-01 WtEn= 5.71D-03
 Coeff-Com:  0.302D-03 0.151D-01 0.302D-01 0.154D+00 0.800D+00
 Coeff-En:   0.000D+00 0.000D+00 0.000D+00 0.000D+00 0.100D+01
 Coeff:      0.301D-03 0.150D-01 0.301D-01 0.153D+00 0.801D+00
 Gap=     0.349 Goal=   None    Shift=    0.000
 RMSDP=2.49D-04 MaxDP=1.53D-02 DE=-1.30D-03 OVMax= 2.55D-03

 Cycle   6  Pass 1  IDiag  1:
 RMSU=  1.24D-04    CP:  6.35D-01  9.00D-01  6.83D-01  8.35D-01  9.94D-01
 E= -420.746122036586     Delta-E=       -0.000040768091 Rises=F Damp=F
 DIIS: error= 2.10D-04 at cycle   6 NSaved=   6.
 NSaved= 6 IEnMin= 6 EnMin= -420.746122036586     IErMin= 6 ErrMin= 2.10D-04
 ErrMax= 2.10D-04  0.00D+00 EMaxC= 1.00D-01 BMatC= 7.38D-06 BMatP= 5.27D-05
 IDIUse=3 WtCom= 9.98D-01 WtEn= 2.10D-03
 Coeff-Com: -0.968D-03-0.167D-01-0.181D-01 0.150D-01 0.347D+00 0.673D+00
 Coeff-En:   0.000D+00 0.000D+00 0.000D+00 0.000D+00 0.000D+00 0.100D+01
 Coeff:     -0.966D-03-0.166D-01-0.181D-01 0.150D-01 0.347D+00 0.674D+00
 Gap=     0.349 Goal=   None    Shift=    0.000
 RMSDP=1.90D-04 MaxDP=1.84D-02 DE=-4.08D-05 OVMax= 8.03D-04

 Cycle   7  Pass 1  IDiag  1:
 RMSU=  5.48D-05    CP:  6.33D-01  8.98D-01  6.92D-01  8.46D-01  1.07D+00
                    CP:  1.12D+00
 E= -420.746129187400     Delta-E=       -0.000007150814 Rises=F Damp=F
 DIIS: error= 6.76D-05 at cycle   7 NSaved=   7.
 NSaved= 7 IEnMin= 7 EnMin= -420.746129187400     IErMin= 7 ErrMin= 6.76D-05
 ErrMax= 6.76D-05  0.00D+00 EMaxC= 1.00D-01 BMatC= 3.10D-07 BMatP= 7.38D-06
 IDIUse=1 WtCom= 1.00D+00 WtEn= 0.00D+00
 Coeff-Com: -0.236D-03-0.548D-02-0.688D-02-0.135D-01 0.320D-03 0.135D+00
 Coeff-Com:  0.891D+00
 Coeff:     -0.236D-03-0.548D-02-0.688D-02-0.135D-01 0.320D-03 0.135D+00
 Coeff:      0.891D+00
 Gap=     0.349 Goal=   None    Shift=    0.000
 RMSDP=4.76D-05 MaxDP=3.34D-03 DE=-7.15D-06 OVMax= 3.15D-04

 Cycle   8  Pass 1  IDiag  1:
 RMSU=  1.40D-05    CP:  6.33D-01  8.98D-01  6.95D-01  8.47D-01  1.11D+00
                    CP:  1.15D+00  1.06D+00
 E= -420.746129757782     Delta-E=       -0.000000570382 Rises=F Damp=F
 DIIS: error= 1.49D-05 at cycle   8 NSaved=   8.
 NSaved= 8 IEnMin= 8 EnMin= -420.746129757782     IErMin= 8 ErrMin= 1.49D-05
 ErrMax= 1.49D-05  0.00D+00 EMaxC= 1.00D-01 BMatC= 4.11D-08 BMatP= 3.10D-07
 IDIUse=1 WtCom= 1.00D+00 WtEn= 0.00D+00
 Coeff-Com:  0.309D-04 0.264D-03 0.141D-03-0.589D-02-0.375D-01-0.374D-01
 Coeff-Com:  0.241D+00 0.839D+00
 Coeff:      0.309D-04 0.264D-03 0.141D-03-0.589D-02-0.375D-01-0.374D-01
 Coeff:      0.241D+00 0.839D+00
 Gap=     0.349 Goal=   None    Shift=    0.000
 RMSDP=1.50D-05 MaxDP=7.81D-04 DE=-5.70D-07 OVMax= 1.18D-04

 Cycle   9  Pass 1  IDiag  1:
 RMSU=  5.06D-06    CP:  6.33D-01  8.98D-01  6.96D-01  8.44D-01  1.12D+00
                    CP:  1.18D+00  1.13D+00  1.19D+00
 E= -420.746129829764     Delta-E=       -0.000000071983 Rises=F Damp=F
 DIIS: error= 1.04D-05 at cycle   9 NSaved=   9.
 NSaved= 9 IEnMin= 9 EnMin= -420.746129829764     IErMin= 9 ErrMin= 1.04D-05
 ErrMax= 1.04D-05  0.00D+00 EMaxC= 1.00D-01 BMatC= 4.69D-09 BMatP= 4.11D-08
 IDIUse=1 WtCom= 1.00D+00 WtEn= 0.00D+00
 Coeff-Com:  0.369D-04 0.705D-03 0.858D-03-0.341D-03-0.102D-01-0.266D-01
 Coeff-Com: -0.273D-01 0.249D+00 0.814D+00
 Coeff:      0.369D-04 0.705D-03 0.858D-03-0.341D-03-0.102D-01-0.266D-01
 Coeff:     -0.273D-01 0.249D+00 0.814D+00
 Gap=     0.349 Goal=   None    Shift=    0.000
 RMSDP=5.20D-06 MaxDP=3.18D-04 DE=-7.20D-08 OVMax= 4.98D-05

 Cycle  10  Pass 1  IDiag  1:
 RMSU=  1.59D-06    CP:  6.33D-01  8.98D-01  6.96D-01  8.42D-01  1.12D+00
                    CP:  1.18D+00  1.15D+00  1.28D+00  1.32D+00
 E= -420.746129838047     Delta-E=       -0.000000008282 Rises=F Damp=F
 DIIS: error= 1.47D-06 at cycle  10 NSaved=  10.
 NSaved=10 IEnMin=10 EnMin= -420.746129838047     IErMin=10 ErrMin= 1.47D-06
 ErrMax= 1.47D-06  0.00D+00 EMaxC= 1.00D-01 BMatC= 5.85D-10 BMatP= 4.69D-09
 IDIUse=1 WtCom= 1.00D+00 WtEn= 0.00D+00
 Coeff-Com:  0.650D-05 0.145D-03 0.202D-03 0.420D-03 0.130D-02-0.389D-02
 Coeff-Com: -0.303D-01-0.255D-01 0.228D+00 0.830D+00
 Coeff:      0.650D-05 0.145D-03 0.202D-03 0.420D-03 0.130D-02-0.389D-02
 Coeff:     -0.303D-01-0.255D-01 0.228D+00 0.830D+00
 Gap=     0.349 Goal=   None    Shift=    0.000
 RMSDP=1.68D-06 MaxDP=9.50D-05 DE=-8.28D-09 OVMax= 1.33D-05

 Cycle  11  Pass 1  IDiag  1:
 RMSU=  3.81D-07    CP:  6.33D-01  8.98D-01  6.96D-01  8.41D-01  1.12D+00
                    CP:  1.18D+00  1.16D+00  1.33D+00  1.45D+00  1.20D+00
 E= -420.746129838981     Delta-E=       -0.000000000934 Rises=F Damp=F
 DIIS: error= 9.94D-07 at cycle  11 NSaved=  11.
 NSaved=11 IEnMin=11 EnMin= -420.746129838981     IErMin=11 ErrMin= 9.94D-07
 ErrMax= 9.94D-07  0.00D+00 EMaxC= 1.00D-01 BMatC= 1.04D-10 BMatP= 5.85D-10
 IDIUse=1 WtCom= 1.00D+00 WtEn= 0.00D+00
 Coeff-Com: -0.153D-05-0.121D-04 0.455D-06 0.245D-03 0.190D-02 0.136D-02
 Coeff-Com: -0.840D-02-0.460D-01-0.140D-01 0.333D+00 0.732D+00
 Coeff:     -0.153D-05-0.121D-04 0.455D-06 0.245D-03 0.190D-02 0.136D-02
 Coeff:     -0.840D-02-0.460D-01-0.140D-01 0.333D+00 0.732D+00
 Gap=     0.349 Goal=   None    Shift=    0.000
 RMSDP=6.57D-07 MaxDP=3.95D-05 DE=-9.34D-10 OVMax= 6.91D-06

 Cycle  12  Pass 1  IDiag  1:
 RMSU=  2.36D-07    CP:  6.33D-01  8.98D-01  6.96D-01  8.41D-01  1.12D+00
                    CP:  1.18D+00  1.16D+00  1.33D+00  1.50D+00  1.32D+00
                    CP:  1.06D+00
 E= -420.746129839127     Delta-E=       -0.000000000147 Rises=F Damp=F
 DIIS: error= 2.22D-07 at cycle  12 NSaved=  12.
 NSaved=12 IEnMin=12 EnMin= -420.746129839127     IErMin=12 ErrMin= 2.22D-07
 ErrMax= 2.22D-07  0.00D+00 EMaxC= 1.00D-01 BMatC= 8.00D-12 BMatP= 1.04D-10
 IDIUse=1 WtCom= 1.00D+00 WtEn= 0.00D+00
 Coeff-Com: -0.988D-06-0.158D-04-0.163D-04 0.380D-04 0.450D-03 0.600D-03
 Coeff-Com:  0.696D-03-0.114D-01-0.228D-01 0.222D-01 0.201D+00 0.810D+00
 Coeff:     -0.988D-06-0.158D-04-0.163D-04 0.380D-04 0.450D-03 0.600D-03
 Coeff:      0.696D-03-0.114D-01-0.228D-01 0.222D-01 0.201D+00 0.810D+00
 Gap=     0.349 Goal=   None    Shift=    0.000
 RMSDP=1.50D-07 MaxDP=1.17D-05 DE=-1.47D-10 OVMax= 2.08D-06

 Cycle  13  Pass 1  IDiag  1:
 RMSU=  6.59D-08    CP:  6.33D-01  8.98D-01  6.96D-01  8.41D-01  1.12D+00
                    CP:  1.18D+00  1.16D+00  1.33D+00  1.51D+00  1.34D+00
                    CP:  1.14D+00  1.02D+00
 E= -420.746129839144     Delta-E=       -0.000000000017 Rises=F Damp=F
 DIIS: error= 1.24D-07 at cycle  13 NSaved=  13.
 NSaved=13 IEnMin=13 EnMin= -420.746129839144     IErMin=13 ErrMin= 1.24D-07
 ErrMax= 1.24D-07  0.00D+00 EMaxC= 1.00D-01 BMatC= 1.39D-12 BMatP= 8.00D-12
 IDIUse=1 WtCom= 1.00D+00 WtEn= 0.00D+00
 Coeff-Com:  0.602D-08-0.396D-05-0.704D-05-0.356D-04-0.220D-03-0.104D-03
 Coeff-Com:  0.190D-02 0.477D-02-0.332D-02-0.553D-01-0.895D-01 0.231D+00
 Coeff-Com:  0.911D+00
 Coeff:      0.602D-08-0.396D-05-0.704D-05-0.356D-04-0.220D-03-0.104D-03
 Coeff:      0.190D-02 0.477D-02-0.332D-02-0.553D-01-0.895D-01 0.231D+00
 Coeff:      0.911D+00
 Gap=     0.349 Goal=   None    Shift=    0.000
 RMSDP=8.83D-08 MaxDP=8.24D-06 DE=-1.66D-11 OVMax= 1.30D-06

 Cycle  14  Pass 1  IDiag  1:
 RMSU=  2.39D-08    CP:  6.33D-01  8.98D-01  6.96D-01  8.41D-01  1.12D+00
                    CP:  1.18D+00  1.16D+00  1.33D+00  1.51D+00  1.34D+00
                    CP:  1.18D+00  1.14D+00  1.27D+00
 E= -420.746129839148     Delta-E=       -0.000000000004 Rises=F Damp=F
 DIIS: error= 5.56D-08 at cycle  14 NSaved=  14.
 NSaved=14 IEnMin=14 EnMin= -420.746129839148     IErMin=14 ErrMin= 5.56D-08
 ErrMax= 5.56D-08  0.00D+00 EMaxC= 1.00D-01 BMatC= 1.19D-13 BMatP= 1.39D-12
 IDIUse=1 WtCom= 1.00D+00 WtEn= 0.00D+00
 Coeff-Com:  0.593D-07 0.103D-05 0.110D-05-0.428D-05-0.592D-04-0.418D-04
 Coeff-Com:  0.191D-04 0.122D-02 0.206D-02-0.554D-02-0.235D-01-0.671D-01
 Coeff-Com:  0.378D-01 0.106D+01
 Coeff:      0.593D-07 0.103D-05 0.110D-05-0.428D-05-0.592D-04-0.418D-04
 Coeff:      0.191D-04 0.122D-02 0.206D-02-0.554D-02-0.235D-01-0.671D-01
 Coeff:      0.378D-01 0.106D+01
 Gap=     0.349 Goal=   None    Shift=    0.000
 RMSDP=3.04D-08 MaxDP=2.52D-06 DE=-3.87D-12 OVMax= 5.02D-07

 Cycle  15  Pass 1  IDiag  1:
 RMSU=  7.65D-09    CP:  6.33D-01  8.98D-01  6.96D-01  8.41D-01  1.12D+00
                    CP:  1.18D+00  1.16D+00  1.33D+00  1.51D+00  1.34D+00
                    CP:  1.19D+00  1.15D+00  1.45D+00  1.29D+00
 E= -420.746129839147     Delta-E=        0.000000000001 Rises=F Damp=F
 DIIS: error= 3.12D-08 at cycle  15 NSaved=  15.
 NSaved=15 IEnMin=14 EnMin= -420.746129839148     IErMin=15 ErrMin= 3.12D-08
 ErrMax= 3.12D-08  0.00D+00 EMaxC= 1.00D-01 BMatC= 3.21D-14 BMatP= 1.19D-13
 IDIUse=1 WtCom= 1.00D+00 WtEn= 0.00D+00
 Coeff-Com:  0.160D-07 0.966D-06 0.155D-05 0.448D-05 0.140D-04 0.798D-05
 Coeff-Com: -0.296D-03-0.320D-03 0.136D-02 0.706D-02 0.642D-02-0.554D-01
 Coeff-Com: -0.132D+00 0.372D+00 0.802D+00
 Coeff:      0.160D-07 0.966D-06 0.155D-05 0.448D-05 0.140D-04 0.798D-05
 Coeff:     -0.296D-03-0.320D-03 0.136D-02 0.706D-02 0.642D-02-0.554D-01
 Coeff:     -0.132D+00 0.372D+00 0.802D+00
 Gap=     0.349 Goal=   None    Shift=    0.000
 RMSDP=8.16D-09 MaxDP=4.99D-07 DE= 1.14D-12 OVMax= 1.86D-07

 SCF Done:  E(RwB97XD) =  -420.746129839     A.U. after   15 cycles
            NFock= 15  Conv=0.82D-08     -V/T= 2.0015
 KE= 4.201227412986D+02 PE=-1.802642298831D+03 EE= 5.522105073465D+02
 Leave Link  502 at Sun Nov 20 17:27:04 2022, MaxMem= 16106127360 cpu:             407.2 elap:              12.8
 (Enter /opt/ap/G16/B01/g16/l601.exe)
 Copying SCF densities to generalized density rwf, IOpCl= 0 IROHF=0.

 **********************************************************************

            Population analysis using the SCF Density.

 **********************************************************************

 Orbital symmetries:
       Occupied  (A) (A) (A) (A) (A) (A) (A) (A) (A) (A) (A) (A)
                 (A) (A) (A) (A) (A) (A) (A) (A) (A) (A) (A) (A)
                 (A) (A) (A) (A) (A) (A) (A) (A)
       Virtual   (A) (A) (A) (A) (A) (A) (A) (A) (A) (A) (A) (A)
                 (A) (A) (A) (A) (A) (A) (A) (A) (A) (A) (A) (A)
                 (A) (A) (A) (A) (A) (A) (A) (A) (A) (A) (A) (A)
                 (A) (A) (A) (A) (A) (A) (A) (A) (A) (A) (A) (A)
                 (A) (A) (A) (A) (A) (A) (A) (A) (A) (A) (A) (A)
                 (A) (A) (A) (A) (A) (A) (A) (A) (A) (A) (A) (A)
                 (A) (A) (A) (A) (A) (A) (A) (A) (A) (A) (A) (A)
                 (A) (A) (A) (A) (A) (A) (A) (A) (A) (A) (A) (A)
                 (A) (A) (A) (A) (A) (A) (A) (A) (A) (A) (A) (A)
                 (A) (A) (A) (A) (A) (A) (A) (A) (A) (A) (A) (A)
                 (A) (A) (A) (A) (A) (A) (A) (A) (A) (A) (A) (A)
                 (A) (A) (A) (A) (A) (A) (A) (A) (A) (A) (A) (A)
                 (A) (A) (A) (A) (A) (A) (A) (A) (A) (A) (A) (A)
                 (A) (A) (A) (A) (A) (A) (A) (A) (A) (A) (A) (A)
                 (A) (A) (A) (A) (A) (A) (A) (A) (A) (A) (A) (A)
                 (A) (A) (A) (A) (A) (A) (A) (A) (A) (A) (A) (A)
                 (A) (A) (A) (A) (A) (A) (A) (A) (A) (A) (A) (A)
                 (A) (A) (A) (A)
 The electronic state is 1-A.
 Alpha  occ. eigenvalues --  -19.31558 -19.22802 -10.43162 -10.31030 -10.29311
 Alpha  occ. eigenvalues --  -10.29303 -10.29180 -10.28987 -10.28730  -1.25742
 Alpha  occ. eigenvalues --   -1.10618  -0.98069  -0.88903  -0.87008  -0.80517
 Alpha  occ. eigenvalues --   -0.73376  -0.71914  -0.65838  -0.60712  -0.58613
 Alpha  occ. eigenvalues --   -0.56699  -0.56128  -0.54513  -0.53466  -0.48819
 Alpha  occ. eigenvalues --   -0.47351  -0.45561  -0.44695  -0.41068  -0.36125
 Alpha  occ. eigenvalues --   -0.34657  -0.34302
 Alpha virt. eigenvalues --    0.00640   0.03738   0.04311   0.04532   0.05290
 Alpha virt. eigenvalues --    0.06466   0.07815   0.08695   0.10193   0.11376
 Alpha virt. eigenvalues --    0.11903   0.12918   0.13448   0.14379   0.14612
 Alpha virt. eigenvalues --    0.16005   0.16321   0.16938   0.17460   0.17950
 Alpha virt. eigenvalues --    0.18100   0.19578   0.20112   0.20247   0.20410
 Alpha virt. eigenvalues --    0.21169   0.21623   0.21727   0.23331   0.23691
 Alpha virt. eigenvalues --    0.25437   0.26351   0.26823   0.27951   0.28769
 Alpha virt. eigenvalues --    0.29555   0.30112   0.30653   0.30822   0.31960
 Alpha virt. eigenvalues --    0.32018   0.33556   0.34347   0.35295   0.36017
 Alpha virt. eigenvalues --    0.36643   0.37049   0.38171   0.39869   0.40616
 Alpha virt. eigenvalues --    0.41740   0.42208   0.43971   0.44263   0.46517
 Alpha virt. eigenvalues --    0.46993   0.50553   0.53852   0.54632   0.57614
 Alpha virt. eigenvalues --    0.60213   0.60673   0.62022   0.63802   0.64221
 Alpha virt. eigenvalues --    0.64831   0.65123   0.65764   0.67680   0.68842
 Alpha virt. eigenvalues --    0.69330   0.72189   0.73384   0.74156   0.75448
 Alpha virt. eigenvalues --    0.76719   0.81308   0.82684   0.84185   0.86388
 Alpha virt. eigenvalues --    0.88531   0.91060   0.93071   0.93749   0.94704
 Alpha virt. eigenvalues --    0.96742   0.97213   0.97714   1.00028   1.00592
 Alpha virt. eigenvalues --    1.04143   1.07450   1.07811   1.09841   1.11420
 Alpha virt. eigenvalues --    1.14273   1.14951   1.16188   1.17185   1.17757
 Alpha virt. eigenvalues --    1.21116   1.21514   1.24118   1.28996   1.30176
 Alpha virt. eigenvalues --    1.34977   1.38100   1.43813   1.45268   1.55687
 Alpha virt. eigenvalues --    1.58179   1.59232   1.60482   1.61078   1.61904
 Alpha virt. eigenvalues --    1.62591   1.66293   1.66999   1.67503   1.74678
 Alpha virt. eigenvalues --    1.75158   1.77878   1.80416   1.82573   1.87668
 Alpha virt. eigenvalues --    1.88423   1.91271   1.91854   1.96176   2.00372
 Alpha virt. eigenvalues --    2.00546   2.02129   2.03693   2.04675   2.05677
 Alpha virt. eigenvalues --    2.06819   2.12399   2.15286   2.17702   2.19732
 Alpha virt. eigenvalues --    2.23204   2.29121   2.31063   2.42691   2.45942
 Alpha virt. eigenvalues --    2.52032   2.54514   2.54661   2.58224   2.62490
 Alpha virt. eigenvalues --    2.72005   2.72893   2.74637   2.76657   2.81341
 Alpha virt. eigenvalues --    2.81787   2.83233   2.88317   2.89229   2.90465
 Alpha virt. eigenvalues --    2.90698   2.91852   2.95733   2.99557   3.00653
 Alpha virt. eigenvalues --    3.02886   3.06357   3.06761   3.15321   3.18527
 Alpha virt. eigenvalues --    3.18888   3.23519   3.27892   3.31847   3.34423
 Alpha virt. eigenvalues --    3.41251   3.44859   3.48430   3.49811   3.64050
 Alpha virt. eigenvalues --    3.66259   3.69601   3.74490   3.84343   3.87762
 Alpha virt. eigenvalues --    4.07792   4.17187   4.28511   4.30810   4.36842
 Alpha virt. eigenvalues --    4.40840   4.46054   4.95056   5.06164   5.15306
 Alpha virt. eigenvalues --    5.30715   5.49529   5.82886   6.09052  23.84218
 Alpha virt. eigenvalues --   23.94427  24.14144  24.21374  24.28356  24.30437
 Alpha virt. eigenvalues --   24.41847  50.04120  50.16650
          Condensed to atoms (all electrons):
               1          2          3          4          5          6
     1  C   11.134769  -3.481794  -1.539373   2.690648  -0.100949  -2.810469
     2  C   -3.481794  19.009991  -2.116734  -7.300147   0.866035  -0.796627
     3  C   -1.539373  -2.116734  12.322885   0.348816  -0.055740  -0.753380
     4  C    2.690648  -7.300147   0.348816  10.338720  -0.278761  -0.264947
     5  H   -0.100949   0.866035  -0.055740  -0.278761   0.478303  -0.102531
     6  C   -2.810469  -0.796627  -0.753380  -0.264947  -0.102531   9.299767
     7  C    0.804305  -0.939217  -2.804743   1.075370  -0.013867   0.516595
     8  H   -0.013774   0.050764   0.531001  -0.028006   0.001170  -0.089598
     9  C   -1.254455   2.091808   0.860287  -1.238626   0.053260  -0.189457
    10  H    0.060873  -0.227537   0.030259   0.511469  -0.015637   0.014792
    11  O   -0.195281  -0.252526  -0.063838   0.099699  -0.041190   0.450361
    12  O   -0.183550  -0.133889  -0.028118   0.080001  -0.007805   0.577443
    13  H    0.028854  -0.013133  -0.105281   0.011911  -0.000326   0.022270
    14  H    0.005210   0.047607   0.002572  -0.077517   0.001897  -0.015560
    15  H   -0.096568   0.004465   0.006833  -0.032452   0.003752   0.104073
               7          8          9         10         11         12
     1  C    0.804305  -0.013774  -1.254455   0.060873  -0.195281  -0.183550
     2  C   -0.939217   0.050764   2.091808  -0.227537  -0.252526  -0.133889
     3  C   -2.804743   0.531001   0.860287   0.030259  -0.063838  -0.028118
     4  C    1.075370  -0.028006  -1.238626   0.511469   0.099699   0.080001
     5  H   -0.013867   0.001170   0.053260  -0.015637  -0.041190  -0.007805
     6  C    0.516595  -0.089598  -0.189457   0.014792   0.450361   0.577443
     7  C    7.685595  -0.114495  -0.772064   0.004409   0.074868   0.110259
     8  H   -0.114495   0.433986   0.035470  -0.000036  -0.006313  -0.009347
     9  C   -0.772064   0.035470   6.589469  -0.056963  -0.039547  -0.027640
    10  H    0.004409  -0.000036  -0.056963   0.476265   0.003342   0.000982
    11  O    0.074868  -0.006313  -0.039547   0.003342   8.007147  -0.126147
    12  O    0.110259  -0.009347  -0.027640   0.000982  -0.126147   8.090915
    13  H    0.436260  -0.009714  -0.043045  -0.000663   0.001198   0.001920
    14  H   -0.052421   0.001056   0.444786  -0.008787  -0.000589  -0.000467
    15  H    0.012256  -0.000677  -0.003059  -0.000237   0.261225  -0.010456
              13         14         15
     1  C    0.028854   0.005210  -0.096568
     2  C   -0.013133   0.047607   0.004465
     3  C   -0.105281   0.002572   0.006833
     4  C    0.011911  -0.077517  -0.032452
     5  H   -0.000326   0.001897   0.003752
     6  C    0.022270  -0.015560   0.104073
     7  C    0.436260  -0.052421   0.012256
     8  H   -0.009714   0.001056  -0.000677
     9  C   -0.043045   0.444786  -0.003059
    10  H   -0.000663  -0.008787  -0.000237
    11  O    0.001198  -0.000589   0.261225
    12  O    0.001920  -0.000467  -0.010456
    13  H    0.464035  -0.007329   0.000162
    14  H   -0.007329   0.472376  -0.000131
    15  H    0.000162  -0.000131   0.417651
 Mulliken charges:
               1
     1  C    0.951554
     2  C   -0.809066
     3  C   -0.635447
     4  C    0.063822
     5  H    0.212388
     6  C    0.037269
     7  C   -0.023110
     8  H    0.218513
     9  C   -0.450223
    10  H    0.207469
    11  O   -0.172407
    12  O   -0.334101
    13  H    0.212878
    14  H    0.187297
    15  H    0.333165
 Sum of Mulliken charges =  -0.00000
 Mulliken charges with hydrogens summed into heavy atoms:
               1
     1  C    0.951554
     2  C   -0.596678
     3  C   -0.416934
     4  C    0.271291
     6  C    0.037269
     7  C    0.189768
     9  C   -0.262927
    11  O    0.160758
    12  O   -0.334101
 Electronic spatial extent (au):  <R**2>=           1158.0468
 Charge=              0.0000 electrons
 Dipole moment (field-independent basis, Debye):
    X=             -1.3866    Y=             -2.3010    Z=              0.4065  Tot=              2.7170
 Quadrupole moment (field-independent basis, Debye-Ang):
   XX=            -43.7057   YY=            -49.9102   ZZ=            -54.0316
   XY=             -8.0294   XZ=              1.4357   YZ=             -0.2762
 Traceless Quadrupole moment (field-independent basis, Debye-Ang):
   XX=              5.5102   YY=             -0.6944   ZZ=             -4.8157
   XY=             -8.0294   XZ=              1.4357   YZ=             -0.2762
 Octapole moment (field-independent basis, Debye-Ang**2):
  XXX=             19.7228  YYY=             -4.1857  ZZZ=              0.1755  XYY=             -7.3626
  XXY=            -26.2542  XXZ=              5.2646  XZZ=             11.6185  YZZ=             -0.5041
  YYZ=              0.5502  XYZ=             -1.4698
 Hexadecapole moment (field-independent basis, Debye-Ang**3):
 XXXX=           -879.7015 YYYY=           -358.8797 ZZZZ=            -58.5943 XXXY=            -89.4355
 XXXZ=             16.6822 YYYX=            -16.2258 YYYZ=             -0.2132 ZZZX=              0.8852
 ZZZY=             -0.4952 XXYY=           -234.2868 XXZZ=           -193.6642 YYZZ=            -78.8626
 XXYZ=             -4.9755 YYXZ=              2.2048 ZZXY=             -2.2723
 N-N= 4.095629203471D+02 E-N=-1.802642299176D+03  KE= 4.201227412986D+02
 No NMR shielding tensors so no spin-rotation constants.
 Leave Link  601 at Sun Nov 20 17:27:05 2022, MaxMem= 16106127360 cpu:               3.3 elap:               0.1
 (Enter /opt/ap/G16/B01/g16/l9999.exe)
 1\1\GINC-N04\SP\RwB97XD\6-311++G(d,p)\C7H6O2\ROOT\20-Nov-2022\0\\#P wB
 97XD/6-311++G(d,p) scf=maxcycle=512\\_conf021.gjf nmol_natom 1_15\\0,1
 \C\C,1,1.39016191\C,1,1.39194539,2,119.895942\C,2,1.38669027,1,119.880
 75721,3,0.70825972,0\H,2,0.98744251,1,119.71654057,3,-179.90726164,0\C
 ,1,1.48428757,2,119.93615286,4,-179.87772406,0\C,3,1.40101108,1,119.72
 36454,2,-0.26266839,0\H,3,0.9902154,1,119.1886159,2,178.85397616,0\C,4
 ,1.37899003,2,120.45785903,1,-0.48041454,0\H,4,0.9834739,2,120.3044270
 6,1,179.36166981,0\O,6,1.27459751,1,118.00615353,2,-1.25976832,0\O,6,1
 .26362572,1,118.77715367,2,179.20603801,0\H,7,0.98977053,3,119.3786157
 8,1,-178.93545741,0\H,9,0.99498061,4,119.46722635,2,-178.58826714,0\H,
 11,0.89680392,6,118.15823763,1,-165.,0\\Version=ES64L-G16RevB.01\State
 =1-A\HF=-420.7461298\RMSD=8.158e-09\Dipole=0.0489456,-0.1609404,1.0556
 426\Quadrupole=8.0239206,-3.5505731,-4.4733475,1.1981413,-1.3110611,0.
 3129508\PG=C01 [X(C7H6O2)]\\@


 MODELS ARE TO BE USED, NOT BELIEVED.

    -- PARAPHRASED BY H. THIEL IN "PRINCIPLES OF ECONOMETRICS"
 Job cpu time:       0 days  0 hours  7 minutes 35.1 seconds.
 Elapsed time:       0 days  0 hours  0 minutes 14.4 seconds.
 File lengths (MBytes):  RWF=     35 Int=      0 D2E=      0 Chk=      4 Scr=      1
 Normal termination of Gaussian 16 at Sun Nov 20 17:27:05 2022.
