 Entering Gaussian System, Link 0=g16
 Input=_conf036.gjf
 Output=_conf036.log
 Initial command:
 /opt/ap/G16/B01/g16/l1.exe "/tmp2/scr/Gau-8269.inp" -scrdir="/tmp2/scr/"
 Entering Link 1 = /opt/ap/G16/B01/g16/l1.exe PID=      8270.
  
 Copyright (c) 1988-2017, Gaussian, Inc.  All Rights Reserved.
  
 This is part of the Gaussian(R) 16 program.  It is based on
 the Gaussian(R) 09 system (copyright 2009, Gaussian, Inc.),
 the Gaussian(R) 03 system (copyright 2003, Gaussian, Inc.),
 the Gaussian(R) 98 system (copyright 1998, Gaussian, Inc.),
 the Gaussian(R) 94 system (copyright 1995, Gaussian, Inc.),
 the Gaussian 92(TM) system (copyright 1992, Gaussian, Inc.),
 the Gaussian 90(TM) system (copyright 1990, Gaussian, Inc.),
 the Gaussian 88(TM) system (copyright 1988, Gaussian, Inc.),
 the Gaussian 86(TM) system (copyright 1986, Carnegie Mellon
 University), and the Gaussian 82(TM) system (copyright 1983,
 Carnegie Mellon University). Gaussian is a federally registered
 trademark of Gaussian, Inc.
  
 This software contains proprietary and confidential information,
 including trade secrets, belonging to Gaussian, Inc.
  
 This software is provided under written license and may be
 used, copied, transmitted, or stored only in accord with that
 written license.
  
 The following legend is applicable only to US Government
 contracts under FAR:
  
                    RESTRICTED RIGHTS LEGEND
  
 Use, reproduction and disclosure by the US Government is
 subject to restrictions as set forth in subparagraphs (a)
 and (c) of the Commercial Computer Software - Restricted
 Rights clause in FAR 52.227-19.
  
 Gaussian, Inc.
 340 Quinnipiac St., Bldg. 40, Wallingford CT 06492
  
  
 ---------------------------------------------------------------
 Warning -- This program may not be used in any manner that
 competes with the business of Gaussian, Inc. or will provide
 assistance to any competitor of Gaussian, Inc.  The licensee
 of this program is prohibited from giving any competitor of
 Gaussian, Inc. access to this program.  By using this program,
 the user acknowledges that Gaussian, Inc. is engaged in the
 business of creating and licensing software in the field of
 computational chemistry and represents and warrants to the
 licensee that it is not a competitor of Gaussian, Inc. and that
 it will not use this program in any manner prohibited above.
 ---------------------------------------------------------------
  

 Cite this work as:
 Gaussian 16, Revision B.01,
 M. J. Frisch, G. W. Trucks, H. B. Schlegel, G. E. Scuseria, 
 M. A. Robb, J. R. Cheeseman, G. Scalmani, V. Barone, 
 G. A. Petersson, H. Nakatsuji, X. Li, M. Caricato, A. V. Marenich, 
 J. Bloino, B. G. Janesko, R. Gomperts, B. Mennucci, H. P. Hratchian, 
 J. V. Ortiz, A. F. Izmaylov, J. L. Sonnenberg, D. Williams-Young, 
 F. Ding, F. Lipparini, F. Egidi, J. Goings, B. Peng, A. Petrone, 
 T. Henderson, D. Ranasinghe, V. G. Zakrzewski, J. Gao, N. Rega, 
 G. Zheng, W. Liang, M. Hada, M. Ehara, K. Toyota, R. Fukuda, 
 J. Hasegawa, M. Ishida, T. Nakajima, Y. Honda, O. Kitao, H. Nakai, 
 T. Vreven, K. Throssell, J. A. Montgomery, Jr., J. E. Peralta, 
 F. Ogliaro, M. J. Bearpark, J. J. Heyd, E. N. Brothers, K. N. Kudin, 
 V. N. Staroverov, T. A. Keith, R. Kobayashi, J. Normand, 
 K. Raghavachari, A. P. Rendell, J. C. Burant, S. S. Iyengar, 
 J. Tomasi, M. Cossi, J. M. Millam, M. Klene, C. Adamo, R. Cammi, 
 J. W. Ochterski, R. L. Martin, K. Morokuma, O. Farkas, 
 J. B. Foresman, and D. J. Fox, Gaussian, Inc., Wallingford CT, 2016.
 
 ******************************************
 Gaussian 16:  ES64L-G16RevB.01 20-Dec-2017
                20-Nov-2022 
 ******************************************
 %nprocshared=32
 Will use up to   32 processors via shared memory.
 %mem=120GB
 %chk=_conf036.chk
 ----------------------------------------
 #P wB97XD/6-311++G(d,p) scf=maxcycle=512
 ----------------------------------------
 1/38=1,172=1/1;
 2/12=2,17=6,18=5,40=1/2;
 3/5=4,6=6,7=1111,11=2,25=1,30=1,74=-58/1,2,3;
 4//1;
 5/5=2,7=512,38=5/2;
 6/7=2,8=2,9=2,10=2,28=1/1;
 99/5=1,9=1/99;
 Leave Link    1 at Sun Nov 20 17:27:54 2022, MaxMem= 16106127360 cpu:               1.8 elap:               0.1
 (Enter /opt/ap/G16/B01/g16/l101.exe)
 ----------------------------
 _conf036.gjf nmol_natom 1_15
 ----------------------------
 Symbolic Z-matrix:
 Charge =  0 Multiplicity = 1
 C
 C                    1     1.39016 
 C                    1     1.39195  2     119.89594 
 C                    2     1.38669  1     119.88076  3     0.70826  0
 H                    2     0.98744  1     119.71654  3    -179.90726  0
 C                    1     1.48429  2     119.93615  4    -179.87772  0
 C                    3     1.40101  1     119.72365  2    -0.26267  0
 H                    3     0.99022  1     119.18862  2     178.85398  0
 C                    4     1.37899  2     120.45786  1    -0.48041  0
 H                    4     0.98347  2     120.30443  1     179.36167  0
 O                    6     1.2746   1     118.00615  2    -1.25977  0
 O                    6     1.26363  1     118.77715  2     179.20604  0
 H                    7     0.98977  3     119.37862  1    -178.93546  0
 H                    9     0.99498  4     119.46723  2    -178.58827  0
 H                    11    0.8968   6     118.15824  1    -90.      0
 
 ITRead=  0  0  0  0  0  0  0  0  0  0  0  0  0  0  0
 MicOpt= -1 -1 -1 -1 -1 -1 -1 -1 -1 -1 -1 -1 -1 -1 -1
 NAtoms=     15 NQM=       15 NQMF=       0 NMMI=      0 NMMIF=      0
                NMic=       0 NMicF=      0.
                    Isotopes and Nuclear Properties:
 (Nuclear quadrupole moments (NQMom) in fm**2, nuclear magnetic moments (NMagM)
  in nuclear magnetons)

  Atom         1           2           3           4           5           6           7           8           9          10
 IAtWgt=          12          12          12          12           1          12          12           1          12           1
 AtmWgt=  12.0000000  12.0000000  12.0000000  12.0000000   1.0078250  12.0000000  12.0000000   1.0078250  12.0000000   1.0078250
 NucSpn=           0           0           0           0           1           0           0           1           0           1
 AtZEff=  -0.0000000  -0.0000000  -0.0000000  -0.0000000  -0.0000000  -0.0000000  -0.0000000  -0.0000000  -0.0000000  -0.0000000
 NQMom=    0.0000000   0.0000000   0.0000000   0.0000000   0.0000000   0.0000000   0.0000000   0.0000000   0.0000000   0.0000000
 NMagM=    0.0000000   0.0000000   0.0000000   0.0000000   2.7928460   0.0000000   0.0000000   2.7928460   0.0000000   2.7928460
 AtZNuc=   6.0000000   6.0000000   6.0000000   6.0000000   1.0000000   6.0000000   6.0000000   1.0000000   6.0000000   1.0000000

  Atom        11          12          13          14          15
 IAtWgt=          16          16           1           1           1
 AtmWgt=  15.9949146  15.9949146   1.0078250   1.0078250   1.0078250
 NucSpn=           0           0           1           1           1
 AtZEff=  -0.0000000  -0.0000000  -0.0000000  -0.0000000  -0.0000000
 NQMom=    0.0000000   0.0000000   0.0000000   0.0000000   0.0000000
 NMagM=    0.0000000   0.0000000   2.7928460   2.7928460   2.7928460
 AtZNuc=   8.0000000   8.0000000   1.0000000   1.0000000   1.0000000
 Leave Link  101 at Sun Nov 20 17:27:54 2022, MaxMem= 16106127360 cpu:               5.1 elap:               0.2
 (Enter /opt/ap/G16/B01/g16/l202.exe)
                          Input orientation:                          
 ---------------------------------------------------------------------
 Center     Atomic      Atomic             Coordinates (Angstroms)
 Number     Number       Type             X           Y           Z
 ---------------------------------------------------------------------
      1          6           0        0.000000    0.000000    0.000000
      2          6           0        0.000000    0.000000    1.390162
      3          6           0        1.206722    0.000000   -0.693782
      4          6           0        1.202258    0.014862    2.081006
      5          1           0       -0.857581   -0.001388    1.879646
      6          6           0       -1.286190   -0.013155   -0.740711
      7          6           0        2.415349    0.005578    0.014752
      8          1           0        1.194584   -0.017290   -1.683772
      9          6           0        2.400563    0.019708    1.398617
     10          1           0        1.209438    0.024411    3.064408
     11          8           0       -2.365984   -0.048941   -0.064425
     12          8           0       -1.260842    0.002453   -2.003986
     13          1           0        3.270315    0.021574   -0.483669
     14          1           0        3.254554    0.009066    1.909081
     15          1           0       -2.707753   -0.851167    0.145061
 ---------------------------------------------------------------------
                    Distance matrix (angstroms):
                    1          2          3          4          5
     1  C    0.000000
     2  C    1.390162   0.000000
     3  C    1.391945   2.408112   0.000000
     4  C    2.403379   1.386690   2.774832   0.000000
     5  H    2.066039   0.987443   3.299073   2.069721   0.000000
     6  C    1.484288   2.488991   2.493388   3.762345   2.655206
     7  C    2.415401   2.779513   1.401011   2.396056   3.766955
     8  H    2.064563   3.297939   0.990215   3.764924   4.112127
     9  C    2.778349   2.400659   2.409104   1.378990   3.293530
    10  H    3.294530   2.065535   3.758270   0.983474   2.382624
    11  O    2.367367   2.777786   3.628045   4.164047   2.461088
    12  O    2.367633   3.620769   2.793834   4.770133   3.904515
    13  H    3.305958   3.769173   2.074374   3.294611   4.756607
    14  H    3.773167   3.295676   3.311886   2.059493   4.112253
    15  H    2.842086   3.099466   4.092830   4.448154   2.674705
                    6          7          8          9         10
     6  C    0.000000
     7  C    3.777892   0.000000
     8  H    2.653982   2.091836   0.000000
     9  C    4.262622   1.384016   3.310118   0.000000
    10  H    4.550659   3.279477   4.748386   2.047842   0.000000
    11  O    1.274598   4.782299   3.911641   4.986499   4.751696
    12  O    1.263626   4.194007   2.476296   4.998389   5.638384
    13  H    4.563881   0.989771   2.398003   2.073517   4.103177
    14  H    5.257398   2.071897   4.141589   0.994981   2.348938
    15  H    1.872885   5.195880   4.389558   5.331484   4.963226
                   11         12         13         14         15
    11  O    0.000000
    12  O    2.232908   0.000000
    13  H    5.652309   4.779447   0.000000
    14  H    5.957225   5.975025   2.392834   0.000000
    15  H    0.896804   2.727750   6.074066   6.277011   0.000000
 Stoichiometry    C7H6O2
 Framework group  C1[X(C7H6O2)]
 Deg. of freedom    39
 Full point group                 C1      NOp   1
 Largest Abelian subgroup         C1      NOp   1
 Largest concise Abelian subgroup C1      NOp   1
                         Standard orientation:                         
 ---------------------------------------------------------------------
 Center     Atomic      Atomic             Coordinates (Angstroms)
 Number     Number       Type             X           Y           Z
 ---------------------------------------------------------------------
      1          6           0        0.231146    0.034652   -0.019414
      2          6           0       -0.430937   -1.187650   -0.032561
      3          6           0       -0.499289    1.218967    0.017674
      4          6           0       -1.817157   -1.222593   -0.023540
      5          1           0        0.089885   -2.026200   -0.057497
      6          6           0        1.714873    0.073530   -0.031794
      7          6           0       -1.899370    1.171312    0.035970
      8          1           0       -0.016815    2.083289    0.044013
      9          6           0       -2.545705   -0.052204    0.008383
     10          1           0       -2.291997   -2.083639   -0.042204
     11          8           0        2.342690   -1.035722   -0.029732
     12          8           0        2.293964    1.196649   -0.034807
     13          1           0       -2.413894    2.016772    0.046321
     14          1           0       -3.539395   -0.094813    0.035797
     15          1           0        2.557610   -1.398903    0.761575
 ---------------------------------------------------------------------
 Rotational constants (GHZ):           3.9204069           1.2489384           0.9495677
 Leave Link  202 at Sun Nov 20 17:27:54 2022, MaxMem= 16106127360 cpu:               0.3 elap:               0.0
 (Enter /opt/ap/G16/B01/g16/l301.exe)
 Standard basis: 6-311++G(d,p) (5D, 7F)
 Ernie: Thresh=  0.10000D-02 Tol=  0.10000D-05 Strict=F.
 There are   249 symmetry adapted cartesian basis functions of A   symmetry.
 There are   240 symmetry adapted basis functions of A   symmetry.
   240 basis functions,   378 primitive gaussians,   249 cartesian basis functions
    32 alpha electrons       32 beta electrons
       nuclear repulsion energy       409.9282169653 Hartrees.
 IExCor= 4639 DFT=T Ex+Corr=wB97XD ExCW=0 ScaHFX=  1.000000
 ScaDFX=  1.000000  1.000000  1.000000  1.000000 ScalE2=  1.000000  1.000000
 IRadAn=      5 IRanWt=     -1 IRanGd=            0 ICorTp=0 IEmpDi=121
 HFx  wShort=  0.000000 wLong=  0.200000 cFull=  0.222036 cShort=  0.000000 cLong=  0.777964
 DFx  wShort=  0.000000 wLong=  0.200000 cFull=  0.000000 cShort=  0.000000 cLong=  1.000000
 NAtoms=   15 NActive=   15 NUniq=   15 SFac= 1.00D+00 NAtFMM=   60 NAOKFM=F Big=F
 Integral buffers will be    131072 words long.
 Raffenetti 2 integral format.
 Two-electron integral symmetry is turned on.
 R6Disp:  Grimme-D2 Dispersion energy=       -0.0065930610 Hartrees.
 Nuclear repulsion after empirical dispersion term =      409.9216239044 Hartrees.
 Leave Link  301 at Sun Nov 20 17:27:54 2022, MaxMem= 16106127360 cpu:               1.3 elap:               0.0
 (Enter /opt/ap/G16/B01/g16/l302.exe)
 NPDir=0 NMtPBC=     1 NCelOv=     1 NCel=       1 NClECP=     1 NCelD=      1
         NCelK=      1 NCelE2=     1 NClLst=     1 CellRange=     0.0.
 One-electron integrals computed using PRISM.
 One-electron integral symmetry used in STVInt
 NBasis=   240 RedAO= T EigKep=  1.19D-06  NBF=   240
 NBsUse=   240 1.00D-06 EigRej= -1.00D+00 NBFU=   240
 Precomputing XC quadrature grid using
 IXCGrd= 4 IRadAn=           5 IRanWt=          -1 IRanGd=           0 AccXCQ= 0.00D+00.
 Generated NRdTot=       0 NPtTot=           0 NUsed=           0 NTot=          32
 NSgBfM=   249   249   249   249   249 MxSgAt=    15 MxSgA2=    15.
 Leave Link  302 at Sun Nov 20 17:27:54 2022, MaxMem= 16106127360 cpu:               5.4 elap:               0.2
 (Enter /opt/ap/G16/B01/g16/l303.exe)
 DipDrv:  MaxL=1.
 Leave Link  303 at Sun Nov 20 17:27:54 2022, MaxMem= 16106127360 cpu:               1.2 elap:               0.0
 (Enter /opt/ap/G16/B01/g16/l401.exe)
 ExpMin= 3.60D-02 ExpMax= 8.59D+03 ExpMxC= 1.30D+03 IAcc=3 IRadAn=         5 AccDes= 0.00D+00
 Harris functional with IExCor= 4639 and IRadAn=       5 diagonalized for initial guess.
 HarFok:  IExCor= 4639 AccDes= 0.00D+00 IRadAn=         5 IDoV= 1 UseB2=F ITyADJ=14
 ICtDFT=  3500011 ScaDFX=  1.000000  1.000000  1.000000  1.000000
 FoFCou: FMM=F IPFlag=           0 FMFlag=      100000 FMFlg1=           0
         NFxFlg=           0 DoJE=T BraDBF=F KetDBF=T FulRan=T
         wScrn=  0.000000 ICntrl=       500 IOpCl=  0 I1Cent=   200000004 NGrid=           0
         NMat0=    1 NMatS0=      1 NMatT0=    0 NMatD0=    1 NMtDS0=    0 NMtDT0=    0
 Petite list used in FoFCou.
 Harris En= -403.237839888157    
 JPrj=0 DoOrth=F DoCkMO=F.
 Leave Link  401 at Sun Nov 20 17:27:54 2022, MaxMem= 16106127360 cpu:              12.5 elap:               0.4
 (Enter /opt/ap/G16/B01/g16/l502.exe)
 Integral symmetry usage will be decided dynamically.
 Closed shell SCF:
 Using DIIS extrapolation, IDIIS=  1040.
 NGot= 16106127360 LenX= 16105992971 LenY= 16105930529
 Requested convergence on RMS density matrix=1.00D-08 within 512 cycles.
 Requested convergence on MAX density matrix=1.00D-06.
 Requested convergence on             energy=1.00D-06.
 No special actions if energy rises.
 Fock matrices will be formed incrementally for  20 cycles.

 Cycle   1  Pass 1  IDiag  1:
 FoFJK:  IHMeth= 1 ICntrl=       0 DoSepK=T KAlg= 0 I1Cent=           0 FoldK=F
 IRaf=         1 NMat=       1 IRICut=       1 DoRegI=T DoRafI=F ISym2E= 0 IDoP0=0 IntGTp=1.
 FoFCou: FMM=F IPFlag=           0 FMFlag=      100000 FMFlg1=           0
         NFxFlg=           0 DoJE=T BraDBF=F KetDBF=F FulRan=T
         wScrn=  0.000000 ICntrl=       500 IOpCl=  0 I1Cent=           0 NGrid=           0
         NMat0=    1 NMatS0=      1 NMatT0=    0 NMatD0=    1 NMtDS0=    0 NMtDT0=    0
 Symmetry not used in FoFCou.
 E= -420.615206138733    
 DIIS: error= 6.11D-02 at cycle   1 NSaved=   1.
 NSaved= 1 IEnMin= 1 EnMin= -420.615206138733     IErMin= 1 ErrMin= 6.11D-02
 ErrMax= 6.11D-02  0.00D+00 EMaxC= 1.00D-01 BMatC= 8.57D-01 BMatP= 8.57D-01
 IDIUse=3 WtCom= 3.89D-01 WtEn= 6.11D-01
 Coeff-Com:  0.100D+01
 Coeff-En:   0.100D+01
 Coeff:      0.100D+01
 Gap=     0.422 Goal=   None    Shift=    0.000
 GapD=    0.422 DampG=2.000 DampE=0.500 DampFc=1.0000 IDamp=-1.
 RMSDP=2.97D-02 MaxDP=1.79D+00              OVMax= 1.05D-01

 Cycle   2  Pass 1  IDiag  1:
 RMSU=  1.51D-02    CP:  6.56D-01
 E= -420.689414329507     Delta-E=       -0.074208190774 Rises=F Damp=F
 DIIS: error= 9.48D-03 at cycle   2 NSaved=   2.
 NSaved= 2 IEnMin= 2 EnMin= -420.689414329507     IErMin= 2 ErrMin= 9.48D-03
 ErrMax= 9.48D-03  0.00D+00 EMaxC= 1.00D-01 BMatC= 4.58D-02 BMatP= 8.57D-01
 IDIUse=3 WtCom= 9.05D-01 WtEn= 9.48D-02
 Coeff-Com:  0.122D+00 0.878D+00
 Coeff-En:   0.175D-01 0.983D+00
 Coeff:      0.112D+00 0.888D+00
 Gap=     0.421 Goal=   None    Shift=    0.000
 RMSDP=8.28D-03 MaxDP=5.67D-01 DE=-7.42D-02 OVMax= 8.00D-02

 Cycle   3  Pass 1  IDiag  1:
 RMSU=  6.20D-03    CP:  6.19D-01  6.87D-01
 E= -420.706743559938     Delta-E=       -0.017329230431 Rises=F Damp=F
 DIIS: error= 7.74D-03 at cycle   3 NSaved=   3.
 NSaved= 3 IEnMin= 3 EnMin= -420.706743559938     IErMin= 3 ErrMin= 7.74D-03
 ErrMax= 7.74D-03  0.00D+00 EMaxC= 1.00D-01 BMatC= 2.33D-02 BMatP= 4.58D-02
 IDIUse=3 WtCom= 9.23D-01 WtEn= 7.74D-02
 Coeff-Com:  0.231D-01 0.425D+00 0.552D+00
 Coeff-En:   0.000D+00 0.335D+00 0.665D+00
 Coeff:      0.213D-01 0.418D+00 0.561D+00
 Gap=     0.360 Goal=   None    Shift=    0.000
 RMSDP=3.73D-03 MaxDP=2.61D-01 DE=-1.73D-02 OVMax= 3.30D-02

 Cycle   4  Pass 1  IDiag  1:
 RMSU=  1.25D-03    CP:  6.08D-01  8.53D-01  6.23D-01
 E= -420.725982509867     Delta-E=       -0.019238949928 Rises=F Damp=F
 DIIS: error= 1.28D-03 at cycle   4 NSaved=   4.
 NSaved= 4 IEnMin= 4 EnMin= -420.725982509867     IErMin= 4 ErrMin= 1.28D-03
 ErrMax= 1.28D-03  0.00D+00 EMaxC= 1.00D-01 BMatC= 6.88D-04 BMatP= 2.33D-02
 IDIUse=3 WtCom= 9.87D-01 WtEn= 1.28D-02
 Coeff-Com:  0.928D-02 0.201D+00 0.288D+00 0.502D+00
 Coeff-En:   0.000D+00 0.000D+00 0.000D+00 0.100D+01
 Coeff:      0.916D-02 0.198D+00 0.284D+00 0.508D+00
 Gap=     0.342 Goal=   None    Shift=    0.000
 RMSDP=7.43D-04 MaxDP=5.16D-02 DE=-1.92D-02 OVMax= 7.92D-03

 Cycle   5  Pass 1  IDiag  1:
 RMSU=  5.98D-04    CP:  6.04D-01  8.41D-01  6.57D-01  8.77D-01
 E= -420.726458175005     Delta-E=       -0.000475665138 Rises=F Damp=F
 DIIS: error= 4.57D-04 at cycle   5 NSaved=   5.
 NSaved= 5 IEnMin= 5 EnMin= -420.726458175005     IErMin= 5 ErrMin= 4.57D-04
 ErrMax= 4.57D-04  0.00D+00 EMaxC= 1.00D-01 BMatC= 5.24D-05 BMatP= 6.88D-04
 IDIUse=3 WtCom= 9.95D-01 WtEn= 4.57D-03
 Coeff-Com:  0.759D-04 0.973D-02 0.239D-01 0.215D+00 0.751D+00
 Coeff-En:   0.000D+00 0.000D+00 0.000D+00 0.000D+00 0.100D+01
 Coeff:      0.755D-04 0.968D-02 0.238D-01 0.214D+00 0.752D+00
 Gap=     0.342 Goal=   None    Shift=    0.000
 RMSDP=2.13D-04 MaxDP=1.16D-02 DE=-4.76D-04 OVMax= 2.57D-03

 Cycle   6  Pass 1  IDiag  1:
 RMSU=  1.22D-04    CP:  6.03D-01  8.44D-01  6.74D-01  9.01D-01  1.05D+00
 E= -420.726498622607     Delta-E=       -0.000040447602 Rises=F Damp=F
 DIIS: error= 1.71D-04 at cycle   6 NSaved=   6.
 NSaved= 6 IEnMin= 6 EnMin= -420.726498622607     IErMin= 6 ErrMin= 1.71D-04
 ErrMax= 1.71D-04  0.00D+00 EMaxC= 1.00D-01 BMatC= 7.49D-06 BMatP= 5.24D-05
 IDIUse=3 WtCom= 9.98D-01 WtEn= 1.71D-03
 Coeff-Com: -0.102D-02-0.182D-01-0.210D-01 0.380D-01 0.353D+00 0.649D+00
 Coeff-En:   0.000D+00 0.000D+00 0.000D+00 0.000D+00 0.000D+00 0.100D+01
 Coeff:     -0.102D-02-0.181D-01-0.209D-01 0.379D-01 0.353D+00 0.649D+00
 Gap=     0.342 Goal=   None    Shift=    0.000
 RMSDP=1.54D-04 MaxDP=1.19D-02 DE=-4.04D-05 OVMax= 7.78D-04

 Cycle   7  Pass 1  IDiag  1:
 RMSU=  4.19D-05    CP:  6.01D-01  8.42D-01  6.84D-01  9.21D-01  1.14D+00
                    CP:  1.07D+00
 E= -420.726505557200     Delta-E=       -0.000006934593 Rises=F Damp=F
 DIIS: error= 7.13D-05 at cycle   7 NSaved=   7.
 NSaved= 7 IEnMin= 7 EnMin= -420.726505557200     IErMin= 7 ErrMin= 7.13D-05
 ErrMax= 7.13D-05  0.00D+00 EMaxC= 1.00D-01 BMatC= 3.08D-07 BMatP= 7.49D-06
 IDIUse=1 WtCom= 1.00D+00 WtEn= 0.00D+00
 Coeff-Com: -0.287D-03-0.645D-02-0.858D-02-0.147D-01 0.244D-01 0.158D+00
 Coeff-Com:  0.848D+00
 Coeff:     -0.287D-03-0.645D-02-0.858D-02-0.147D-01 0.244D-01 0.158D+00
 Coeff:      0.848D+00
 Gap=     0.342 Goal=   None    Shift=    0.000
 RMSDP=3.68D-05 MaxDP=1.95D-03 DE=-6.93D-06 OVMax= 3.75D-04

 Cycle   8  Pass 1  IDiag  1:
 RMSU=  1.05D-05    CP:  6.01D-01  8.42D-01  6.86D-01  9.26D-01  1.19D+00
                    CP:  1.11D+00  1.10D+00
 E= -420.726506121901     Delta-E=       -0.000000564700 Rises=F Damp=F
 DIIS: error= 1.57D-05 at cycle   8 NSaved=   8.
 NSaved= 8 IEnMin= 8 EnMin= -420.726506121901     IErMin= 8 ErrMin= 1.57D-05
 ErrMax= 1.57D-05  0.00D+00 EMaxC= 1.00D-01 BMatC= 4.89D-08 BMatP= 3.08D-07
 IDIUse=1 WtCom= 1.00D+00 WtEn= 0.00D+00
 Coeff-Com:  0.115D-04-0.177D-03-0.589D-03-0.102D-01-0.318D-01-0.263D-01
 Coeff-Com:  0.276D+00 0.793D+00
 Coeff:      0.115D-04-0.177D-03-0.589D-03-0.102D-01-0.318D-01-0.263D-01
 Coeff:      0.276D+00 0.793D+00
 Gap=     0.342 Goal=   None    Shift=    0.000
 RMSDP=1.27D-05 MaxDP=6.79D-04 DE=-5.65D-07 OVMax= 1.32D-04

 Cycle   9  Pass 1  IDiag  1:
 RMSU=  5.79D-06    CP:  6.01D-01  8.42D-01  6.86D-01  9.26D-01  1.20D+00
                    CP:  1.13D+00  1.16D+00  1.14D+00
 E= -420.726506200941     Delta-E=       -0.000000079040 Rises=F Damp=F
 DIIS: error= 8.98D-06 at cycle   9 NSaved=   9.
 NSaved= 9 IEnMin= 9 EnMin= -420.726506200941     IErMin= 9 ErrMin= 8.98D-06
 ErrMax= 8.98D-06  0.00D+00 EMaxC= 1.00D-01 BMatC= 6.54D-09 BMatP= 4.89D-08
 IDIUse=1 WtCom= 1.00D+00 WtEn= 0.00D+00
 Coeff-Com:  0.415D-04 0.793D-03 0.899D-03-0.178D-02-0.128D-01-0.314D-01
 Coeff-Com: -0.105D-01 0.277D+00 0.777D+00
 Coeff:      0.415D-04 0.793D-03 0.899D-03-0.178D-02-0.128D-01-0.314D-01
 Coeff:     -0.105D-01 0.277D+00 0.777D+00
 Gap=     0.342 Goal=   None    Shift=    0.000
 RMSDP=4.51D-06 MaxDP=2.86D-04 DE=-7.90D-08 OVMax= 5.40D-05

 Cycle  10  Pass 1  IDiag  1:
 RMSU=  1.73D-06    CP:  6.01D-01  8.42D-01  6.86D-01  9.24D-01  1.21D+00
                    CP:  1.13D+00  1.17D+00  1.19D+00  1.19D+00
 E= -420.726506210239     Delta-E=       -0.000000009298 Rises=F Damp=F
 DIIS: error= 1.24D-06 at cycle  10 NSaved=  10.
 NSaved=10 IEnMin=10 EnMin= -420.726506210239     IErMin=10 ErrMin= 1.24D-06
 ErrMax= 1.24D-06  0.00D+00 EMaxC= 1.00D-01 BMatC= 7.22D-10 BMatP= 6.54D-09
 IDIUse=1 WtCom= 1.00D+00 WtEn= 0.00D+00
 Coeff-Com:  0.102D-04 0.215D-03 0.258D-03 0.385D-03 0.173D-03-0.708D-02
 Coeff-Com: -0.287D-01-0.266D-02 0.239D+00 0.799D+00
 Coeff:      0.102D-04 0.215D-03 0.258D-03 0.385D-03 0.173D-03-0.708D-02
 Coeff:     -0.287D-01-0.266D-02 0.239D+00 0.799D+00
 Gap=     0.342 Goal=   None    Shift=    0.000
 RMSDP=1.51D-06 MaxDP=8.81D-05 DE=-9.30D-09 OVMax= 1.17D-05

 Cycle  11  Pass 1  IDiag  1:
 RMSU=  4.53D-07    CP:  6.01D-01  8.42D-01  6.86D-01  9.24D-01  1.21D+00
                    CP:  1.13D+00  1.17D+00  1.21D+00  1.28D+00  1.20D+00
 E= -420.726506211225     Delta-E=       -0.000000000986 Rises=F Damp=F
 DIIS: error= 5.42D-07 at cycle  11 NSaved=  11.
 NSaved=11 IEnMin=11 EnMin= -420.726506211225     IErMin=11 ErrMin= 5.42D-07
 ErrMax= 5.42D-07  0.00D+00 EMaxC= 1.00D-01 BMatC= 8.57D-11 BMatP= 7.22D-10
 IDIUse=1 WtCom= 1.00D+00 WtEn= 0.00D+00
 Coeff-Com: -0.179D-05-0.179D-04-0.151D-04 0.377D-03 0.187D-02 0.110D-02
 Coeff-Com: -0.753D-02-0.398D-01-0.265D-01 0.246D+00 0.824D+00
 Coeff:     -0.179D-05-0.179D-04-0.151D-04 0.377D-03 0.187D-02 0.110D-02
 Coeff:     -0.753D-02-0.398D-01-0.265D-01 0.246D+00 0.824D+00
 Gap=     0.342 Goal=   None    Shift=    0.000
 RMSDP=6.81D-07 MaxDP=3.80D-05 DE=-9.86D-10 OVMax= 6.12D-06

 Cycle  12  Pass 1  IDiag  1:
 RMSU=  1.53D-07    CP:  6.01D-01  8.42D-01  6.86D-01  9.24D-01  1.21D+00
                    CP:  1.13D+00  1.17D+00  1.21D+00  1.32D+00  1.34D+00
                    CP:  1.24D+00
 E= -420.726506211344     Delta-E=       -0.000000000119 Rises=F Damp=F
 DIIS: error= 2.56D-07 at cycle  12 NSaved=  12.
 NSaved=12 IEnMin=12 EnMin= -420.726506211344     IErMin=12 ErrMin= 2.56D-07
 ErrMax= 2.56D-07  0.00D+00 EMaxC= 1.00D-01 BMatC= 7.12D-12 BMatP= 8.57D-11
 IDIUse=1 WtCom= 1.00D+00 WtEn= 0.00D+00
 Coeff-Com: -0.117D-05-0.185D-04-0.207D-04 0.900D-04 0.561D-03 0.632D-03
 Coeff-Com:  0.139D-03-0.114D-01-0.235D-01 0.170D-01 0.250D+00 0.766D+00
 Coeff:     -0.117D-05-0.185D-04-0.207D-04 0.900D-04 0.561D-03 0.632D-03
 Coeff:      0.139D-03-0.114D-01-0.235D-01 0.170D-01 0.250D+00 0.766D+00
 Gap=     0.342 Goal=   None    Shift=    0.000
 RMSDP=1.22D-07 MaxDP=6.88D-06 DE=-1.19D-10 OVMax= 1.67D-06

 Cycle  13  Pass 1  IDiag  1:
 RMSU=  4.71D-08    CP:  6.01D-01  8.42D-01  6.86D-01  9.24D-01  1.21D+00
                    CP:  1.13D+00  1.17D+00  1.20D+00  1.33D+00  1.35D+00
                    CP:  1.31D+00  1.16D+00
 E= -420.726506211359     Delta-E=       -0.000000000015 Rises=F Damp=F
 DIIS: error= 8.56D-08 at cycle  13 NSaved=  13.
 NSaved=13 IEnMin=13 EnMin= -420.726506211359     IErMin=13 ErrMin= 8.56D-08
 ErrMax= 8.56D-08  0.00D+00 EMaxC= 1.00D-01 BMatC= 8.21D-13 BMatP= 7.12D-12
 IDIUse=1 WtCom= 1.00D+00 WtEn= 0.00D+00
 Coeff-Com:  0.815D-08-0.327D-05-0.558D-05-0.421D-04-0.170D-03-0.919D-04
 Coeff-Com:  0.135D-02 0.386D-02-0.921D-03-0.371D-01-0.834D-01 0.135D+00
 Coeff-Com:  0.982D+00
 Coeff:      0.815D-08-0.327D-05-0.558D-05-0.421D-04-0.170D-03-0.919D-04
 Coeff:      0.135D-02 0.386D-02-0.921D-03-0.371D-01-0.834D-01 0.135D+00
 Coeff:      0.982D+00
 Gap=     0.342 Goal=   None    Shift=    0.000
 RMSDP=6.85D-08 MaxDP=4.46D-06 DE=-1.55D-11 OVMax= 1.12D-06

 Cycle  14  Pass 1  IDiag  1:
 RMSU=  1.91D-08    CP:  6.01D-01  8.42D-01  6.86D-01  9.24D-01  1.21D+00
                    CP:  1.13D+00  1.17D+00  1.20D+00  1.33D+00  1.37D+00
                    CP:  1.37D+00  1.31D+00  1.16D+00
 E= -420.726506211362     Delta-E=       -0.000000000003 Rises=F Damp=F
 DIIS: error= 5.93D-08 at cycle  14 NSaved=  14.
 NSaved=14 IEnMin=14 EnMin= -420.726506211362     IErMin=14 ErrMin= 5.93D-08
 ErrMax= 5.93D-08  0.00D+00 EMaxC= 1.00D-01 BMatC= 9.24D-14 BMatP= 8.21D-13
 IDIUse=1 WtCom= 1.00D+00 WtEn= 0.00D+00
 Coeff-Com:  0.929D-07 0.136D-05 0.129D-05-0.126D-04-0.707D-04-0.676D-04
 Coeff-Com:  0.146D-03 0.150D-02 0.196D-02-0.655D-02-0.301D-01-0.608D-01
 Coeff-Com:  0.107D+00 0.987D+00
 Coeff:      0.929D-07 0.136D-05 0.129D-05-0.126D-04-0.707D-04-0.676D-04
 Coeff:      0.146D-03 0.150D-02 0.196D-02-0.655D-02-0.301D-01-0.608D-01
 Coeff:      0.107D+00 0.987D+00
 Gap=     0.342 Goal=   None    Shift=    0.000
 RMSDP=1.50D-08 MaxDP=6.89D-07 DE=-3.07D-12 OVMax= 4.70D-07

 Cycle  15  Pass 1  IDiag  1:
 RMSU=  7.73D-09    CP:  6.01D-01  8.42D-01  6.86D-01  9.24D-01  1.21D+00
                    CP:  1.13D+00  1.17D+00  1.20D+00  1.33D+00  1.37D+00
                    CP:  1.37D+00  1.33D+00  1.26D+00  1.22D+00
 E= -420.726506211360     Delta-E=        0.000000000002 Rises=F Damp=F
 DIIS: error= 2.16D-08 at cycle  15 NSaved=  15.
 NSaved=15 IEnMin=14 EnMin= -420.726506211362     IErMin=15 ErrMin= 2.16D-08
 ErrMax= 2.16D-08  0.00D+00 EMaxC= 1.00D-01 BMatC= 3.01D-14 BMatP= 9.24D-14
 IDIUse=1 WtCom= 1.00D+00 WtEn= 0.00D+00
 Coeff-Com:  0.247D-07 0.110D-05 0.159D-05 0.465D-05 0.117D-04 0.191D-05
 Coeff-Com: -0.238D-03-0.272D-03 0.825D-03 0.553D-02 0.807D-02-0.484D-01
 Coeff-Com: -0.177D+00 0.340D+00 0.872D+00
 Coeff:      0.247D-07 0.110D-05 0.159D-05 0.465D-05 0.117D-04 0.191D-05
 Coeff:     -0.238D-03-0.272D-03 0.825D-03 0.553D-02 0.807D-02-0.484D-01
 Coeff:     -0.177D+00 0.340D+00 0.872D+00
 Gap=     0.342 Goal=   None    Shift=    0.000
 RMSDP=7.36D-09 MaxDP=3.84D-07 DE= 2.39D-12 OVMax= 2.37D-07

 SCF Done:  E(RwB97XD) =  -420.726506211     A.U. after   15 cycles
            NFock= 15  Conv=0.74D-08     -V/T= 2.0014
 KE= 4.201540772862D+02 PE=-1.803313497973D+03 EE= 5.525112905706D+02
 Leave Link  502 at Sun Nov 20 17:28:07 2022, MaxMem= 16106127360 cpu:             413.1 elap:              13.0
 (Enter /opt/ap/G16/B01/g16/l601.exe)
 Copying SCF densities to generalized density rwf, IOpCl= 0 IROHF=0.

 **********************************************************************

            Population analysis using the SCF Density.

 **********************************************************************

 Orbital symmetries:
       Occupied  (A) (A) (A) (A) (A) (A) (A) (A) (A) (A) (A) (A)
                 (A) (A) (A) (A) (A) (A) (A) (A) (A) (A) (A) (A)
                 (A) (A) (A) (A) (A) (A) (A) (A)
       Virtual   (A) (A) (A) (A) (A) (A) (A) (A) (A) (A) (A) (A)
                 (A) (A) (A) (A) (A) (A) (A) (A) (A) (A) (A) (A)
                 (A) (A) (A) (A) (A) (A) (A) (A) (A) (A) (A) (A)
                 (A) (A) (A) (A) (A) (A) (A) (A) (A) (A) (A) (A)
                 (A) (A) (A) (A) (A) (A) (A) (A) (A) (A) (A) (A)
                 (A) (A) (A) (A) (A) (A) (A) (A) (A) (A) (A) (A)
                 (A) (A) (A) (A) (A) (A) (A) (A) (A) (A) (A) (A)
                 (A) (A) (A) (A) (A) (A) (A) (A) (A) (A) (A) (A)
                 (A) (A) (A) (A) (A) (A) (A) (A) (A) (A) (A) (A)
                 (A) (A) (A) (A) (A) (A) (A) (A) (A) (A) (A) (A)
                 (A) (A) (A) (A) (A) (A) (A) (A) (A) (A) (A) (A)
                 (A) (A) (A) (A) (A) (A) (A) (A) (A) (A) (A) (A)
                 (A) (A) (A) (A) (A) (A) (A) (A) (A) (A) (A) (A)
                 (A) (A) (A) (A) (A) (A) (A) (A) (A) (A) (A) (A)
                 (A) (A) (A) (A) (A) (A) (A) (A) (A) (A) (A) (A)
                 (A) (A) (A) (A) (A) (A) (A) (A) (A) (A) (A) (A)
                 (A) (A) (A) (A) (A) (A) (A) (A) (A) (A) (A) (A)
                 (A) (A) (A) (A)
 The electronic state is 1-A.
 Alpha  occ. eigenvalues --  -19.29915 -19.23597 -10.43241 -10.30977 -10.29699
 Alpha  occ. eigenvalues --  -10.29496 -10.29487 -10.29256 -10.29079  -1.24936
 Alpha  occ. eigenvalues --   -1.11046  -0.98304  -0.88727  -0.87307  -0.79502
 Alpha  occ. eigenvalues --   -0.73736  -0.72838  -0.66705  -0.61495  -0.58147
 Alpha  occ. eigenvalues --   -0.56933  -0.56241  -0.53796  -0.53750  -0.48169
 Alpha  occ. eigenvalues --   -0.47281  -0.45418  -0.43254  -0.42419  -0.36291
 Alpha  occ. eigenvalues --   -0.34957  -0.34574
 Alpha virt. eigenvalues --   -0.00357   0.03278   0.03943   0.04387   0.05187
 Alpha virt. eigenvalues --    0.06525   0.07729   0.08783   0.09918   0.10514
 Alpha virt. eigenvalues --    0.11576   0.12876   0.13261   0.13887   0.14324
 Alpha virt. eigenvalues --    0.15888   0.16253   0.16891   0.17090   0.17736
 Alpha virt. eigenvalues --    0.18184   0.18902   0.19785   0.19924   0.20339
 Alpha virt. eigenvalues --    0.21082   0.21324   0.21910   0.22994   0.24145
 Alpha virt. eigenvalues --    0.25201   0.25785   0.26454   0.27468   0.27704
 Alpha virt. eigenvalues --    0.29575   0.29895   0.30526   0.30883   0.32302
 Alpha virt. eigenvalues --    0.32694   0.34384   0.35138   0.35464   0.36141
 Alpha virt. eigenvalues --    0.37338   0.37725   0.38428   0.39609   0.40509
 Alpha virt. eigenvalues --    0.41544   0.41858   0.42617   0.43792   0.46721
 Alpha virt. eigenvalues --    0.47354   0.49350   0.54148   0.54697   0.57859
 Alpha virt. eigenvalues --    0.59049   0.60284   0.61768   0.62996   0.63738
 Alpha virt. eigenvalues --    0.64124   0.64860   0.66165   0.67239   0.69431
 Alpha virt. eigenvalues --    0.70382   0.73640   0.73839   0.74237   0.76056
 Alpha virt. eigenvalues --    0.76849   0.81026   0.82427   0.83888   0.86099
 Alpha virt. eigenvalues --    0.88235   0.90808   0.92478   0.93499   0.94693
 Alpha virt. eigenvalues --    0.95875   0.96436   0.98034   0.99728   1.00358
 Alpha virt. eigenvalues --    1.03462   1.05861   1.07772   1.09672   1.10606
 Alpha virt. eigenvalues --    1.14191   1.15203   1.15962   1.16759   1.18994
 Alpha virt. eigenvalues --    1.21007   1.22189   1.25230   1.28824   1.30028
 Alpha virt. eigenvalues --    1.35112   1.41504   1.43855   1.47174   1.48652
 Alpha virt. eigenvalues --    1.56093   1.59004   1.60278   1.61050   1.61974
 Alpha virt. eigenvalues --    1.63007   1.66679   1.66856   1.71137   1.74016
 Alpha virt. eigenvalues --    1.74859   1.75967   1.82362   1.83539   1.85129
 Alpha virt. eigenvalues --    1.88154   1.88411   1.91473   1.92335   1.99756
 Alpha virt. eigenvalues --    2.00041   2.01886   2.02531   2.03967   2.04610
 Alpha virt. eigenvalues --    2.07780   2.08740   2.15902   2.17687   2.20333
 Alpha virt. eigenvalues --    2.22784   2.25451   2.29484   2.42673   2.45934
 Alpha virt. eigenvalues --    2.51293   2.52230   2.54212   2.58044   2.66791
 Alpha virt. eigenvalues --    2.69991   2.73104   2.76055   2.77778   2.81378
 Alpha virt. eigenvalues --    2.81588   2.83787   2.88131   2.89770   2.90269
 Alpha virt. eigenvalues --    2.90421   2.91581   2.95943   2.99328   2.99637
 Alpha virt. eigenvalues --    3.02237   3.05328   3.06273   3.17399   3.18339
 Alpha virt. eigenvalues --    3.18743   3.21744   3.26609   3.32004   3.41294
 Alpha virt. eigenvalues --    3.44702   3.46687   3.49298   3.53548   3.63739
 Alpha virt. eigenvalues --    3.66265   3.68223   3.73131   3.84342   3.87851
 Alpha virt. eigenvalues --    3.94182   4.18543   4.28622   4.30480   4.36825
 Alpha virt. eigenvalues --    4.40708   4.44944   4.94754   5.15552   5.21060
 Alpha virt. eigenvalues --    5.29891   5.44152   5.80801   6.08453  23.83764
 Alpha virt. eigenvalues --   23.95813  24.13995  24.21094  24.28158  24.30115
 Alpha virt. eigenvalues --   24.41533  50.05201  50.16653
          Condensed to atoms (all electrons):
               1          2          3          4          5          6
     1  C    9.750219  -2.380880  -2.051637   1.546333  -0.097192  -1.372435
     2  C   -2.380880  14.603802  -1.176108  -4.426481   0.586054  -0.211918
     3  C   -2.051637  -1.176108  13.345163  -0.535942  -0.020921  -0.544301
     4  C    1.546333  -4.426481  -0.535942   8.958425  -0.064064  -0.480370
     5  H   -0.097192   0.586054  -0.020921  -0.064064   0.485957  -0.056698
     6  C   -1.372435  -0.211918  -0.544301  -0.480370  -0.056698   7.650488
     7  C    1.046311  -0.659647  -3.980811   0.888370   0.002399   0.198851
     8  H   -0.064301   0.016589   0.558511  -0.002377  -0.000160  -0.040056
     9  C   -1.342172   0.876791   1.307913  -0.506743   0.017082   0.111658
    10  H    0.030931  -0.097810   0.007503   0.424281  -0.008603   0.000981
    11  O   -0.186682  -0.150080  -0.006950   0.093196  -0.000386   0.265482
    12  O   -0.170467  -0.035268  -0.118457   0.056670  -0.003093   0.533918
    13  H    0.034944   0.021664  -0.142045  -0.007340   0.000637   0.004585
    14  H    0.007742  -0.009018   0.023817  -0.039731  -0.000253  -0.004550
    15  H   -0.038661  -0.001429  -0.007762   0.000918  -0.009459   0.044735
               7          8          9         10         11         12
     1  C    1.046311  -0.064301  -1.342172   0.030931  -0.186682  -0.170467
     2  C   -0.659647   0.016589   0.876791  -0.097810  -0.150080  -0.035268
     3  C   -3.980811   0.558511   1.307913   0.007503  -0.006950  -0.118457
     4  C    0.888370  -0.002377  -0.506743   0.424281   0.093196   0.056670
     5  H    0.002399  -0.000160   0.017082  -0.008603  -0.000386  -0.003093
     6  C    0.198851  -0.040056   0.111658   0.000981   0.265482   0.533918
     7  C    8.854703  -0.122213  -0.819350  -0.002614   0.062254   0.136317
     8  H   -0.122213   0.433022   0.018058   0.000643  -0.002301  -0.003410
     9  C   -0.819350   0.018058   6.489035  -0.031814  -0.019993  -0.018273
    10  H   -0.002614   0.000643  -0.031814   0.469084   0.001775   0.000459
    11  O    0.062254  -0.002301  -0.019993   0.001775   7.924075  -0.111105
    12  O    0.136317  -0.003410  -0.018273   0.000459  -0.111105   8.014883
    13  H    0.451473  -0.008760  -0.026511  -0.001411   0.000686   0.001550
    14  H   -0.045933   0.000548   0.422364  -0.005562  -0.000099  -0.000236
    15  H    0.002928  -0.000189  -0.001860   0.000206   0.344307   0.003477
              13         14         15
     1  C    0.034944   0.007742  -0.038661
     2  C    0.021664  -0.009018  -0.001429
     3  C   -0.142045   0.023817  -0.007762
     4  C   -0.007340  -0.039731   0.000918
     5  H    0.000637  -0.000253  -0.009459
     6  C    0.004585  -0.004550   0.044735
     7  C    0.451473  -0.045933   0.002928
     8  H   -0.008760   0.000548  -0.000189
     9  C   -0.026511   0.422364  -0.001860
    10  H   -0.001411  -0.005562   0.000206
    11  O    0.000686  -0.000099   0.344307
    12  O    0.001550  -0.000236   0.003477
    13  H    0.461985  -0.005753   0.000042
    14  H   -0.005753   0.468386  -0.000047
    15  H    0.000042  -0.000047   0.340253
 Mulliken charges:
               1
     1  C    1.287948
     2  C   -0.956261
     3  C   -0.657973
     4  C    0.094855
     5  H    0.168699
     6  C   -0.100370
     7  C   -0.013039
     8  H    0.216397
     9  C   -0.476183
    10  H    0.211951
    11  O   -0.214178
    12  O   -0.286966
    13  H    0.214254
    14  H    0.188325
    15  H    0.322540
 Sum of Mulliken charges =  -0.00000
 Mulliken charges with hydrogens summed into heavy atoms:
               1
     1  C    1.287948
     2  C   -0.787562
     3  C   -0.441575
     4  C    0.306805
     6  C   -0.100370
     7  C    0.201216
     9  C   -0.287858
    11  O    0.108362
    12  O   -0.286966
 Electronic spatial extent (au):  <R**2>=           1152.9839
 Charge=             -0.0000 electrons
 Dipole moment (field-independent basis, Debye):
    X=             -2.6860    Y=             -2.6214    Z=              1.5045  Tot=              4.0435
 Quadrupole moment (field-independent basis, Debye-Ang):
   XX=            -51.6514   YY=            -47.9026   ZZ=            -52.5285
   XY=             -7.6601   XZ=              4.2731   YZ=             -2.2089
 Traceless Quadrupole moment (field-independent basis, Debye-Ang):
   XX=             -0.9572   YY=              2.7915   ZZ=             -1.8343
   XY=             -7.6601   XZ=              4.2731   YZ=             -2.2089
 Octapole moment (field-independent basis, Debye-Ang**2):
  XXX=            -18.5133  YYY=             -7.4636  ZZZ=              1.6062  XYY=             -3.7002
  XXY=            -20.1005  XXZ=             11.9930  XZZ=             15.0288  YZZ=             -2.3965
  YYZ=              3.9797  XYZ=             -6.6904
 Hexadecapole moment (field-independent basis, Debye-Ang**3):
 XXXX=          -1019.3308 YYYY=           -354.2784 ZZZZ=            -58.5910 XXXY=            -55.8335
 XXXZ=             31.7422 YYYX=            -23.6041 YYYZ=             -5.5103 ZZZX=              5.1110
 ZZZY=             -3.3062 XXYY=           -228.2409 XXZZ=           -182.8282 YYZZ=            -76.3160
 XXYZ=            -17.0206 YYXZ=             10.9774 ZZXY=             -6.8944
 N-N= 4.099216239044D+02 E-N=-1.803313498216D+03  KE= 4.201540772862D+02
 No NMR shielding tensors so no spin-rotation constants.
 Leave Link  601 at Sun Nov 20 17:28:08 2022, MaxMem= 16106127360 cpu:               4.0 elap:               0.1
 (Enter /opt/ap/G16/B01/g16/l9999.exe)
 1\1\GINC-N02\SP\RwB97XD\6-311++G(d,p)\C7H6O2\ROOT\20-Nov-2022\0\\#P wB
 97XD/6-311++G(d,p) scf=maxcycle=512\\_conf036.gjf nmol_natom 1_15\\0,1
 \C\C,1,1.39016191\C,1,1.39194539,2,119.895942\C,2,1.38669027,1,119.880
 75721,3,0.70825972,0\H,2,0.98744251,1,119.71654057,3,-179.90726164,0\C
 ,1,1.48428757,2,119.93615286,4,-179.87772406,0\C,3,1.40101108,1,119.72
 36454,2,-0.26266839,0\H,3,0.9902154,1,119.1886159,2,178.85397616,0\C,4
 ,1.37899003,2,120.45785903,1,-0.48041454,0\H,4,0.9834739,2,120.3044270
 6,1,179.36166981,0\O,6,1.27459751,1,118.00615353,2,-1.25976832,0\O,6,1
 .26362572,1,118.77715367,2,179.20603801,0\H,7,0.98977053,3,119.3786157
 8,1,-178.93545741,0\H,9,0.99498061,4,119.46722635,2,-178.58826714,0\H,
 11,0.89680392,6,118.15823763,1,-90.,0\\Version=ES64L-G16RevB.01\State=
 1-A\HF=-420.7265062\RMSD=7.357e-09\Dipole=0.4531452,-0.593936,1.404494
 4\Quadrupole=4.503945,-1.1784921,-3.3254529,3.7644881,-4.2453353,-0.01
 97224\PG=C01 [X(C7H6O2)]\\@


 THE PROGRESS OF RIVERS TO THE SEA IS NOT AS RAPID
 AS THAT OF MAN TO ERROR.
                                              -- VOLTAIRE
 Job cpu time:       0 days  0 hours  7 minutes 27.1 seconds.
 Elapsed time:       0 days  0 hours  0 minutes 14.1 seconds.
 File lengths (MBytes):  RWF=     35 Int=      0 D2E=      0 Chk=      4 Scr=      1
 Normal termination of Gaussian 16 at Sun Nov 20 17:28:08 2022.
