 Entering Gaussian System, Link 0=g16
 Input=_conf019.gjf
 Output=_conf019.log
 Initial command:
 /opt/ap/G16/B01/g16/l1.exe "/tmp2/scr/Gau-11270.inp" -scrdir="/tmp2/scr/"
 Entering Link 1 = /opt/ap/G16/B01/g16/l1.exe PID=     11271.
  
 Copyright (c) 1988-2017, Gaussian, Inc.  All Rights Reserved.
  
 This is part of the Gaussian(R) 16 program.  It is based on
 the Gaussian(R) 09 system (copyright 2009, Gaussian, Inc.),
 the Gaussian(R) 03 system (copyright 2003, Gaussian, Inc.),
 the Gaussian(R) 98 system (copyright 1998, Gaussian, Inc.),
 the Gaussian(R) 94 system (copyright 1995, Gaussian, Inc.),
 the Gaussian 92(TM) system (copyright 1992, Gaussian, Inc.),
 the Gaussian 90(TM) system (copyright 1990, Gaussian, Inc.),
 the Gaussian 88(TM) system (copyright 1988, Gaussian, Inc.),
 the Gaussian 86(TM) system (copyright 1986, Carnegie Mellon
 University), and the Gaussian 82(TM) system (copyright 1983,
 Carnegie Mellon University). Gaussian is a federally registered
 trademark of Gaussian, Inc.
  
 This software contains proprietary and confidential information,
 including trade secrets, belonging to Gaussian, Inc.
  
 This software is provided under written license and may be
 used, copied, transmitted, or stored only in accord with that
 written license.
  
 The following legend is applicable only to US Government
 contracts under FAR:
  
                    RESTRICTED RIGHTS LEGEND
  
 Use, reproduction and disclosure by the US Government is
 subject to restrictions as set forth in subparagraphs (a)
 and (c) of the Commercial Computer Software - Restricted
 Rights clause in FAR 52.227-19.
  
 Gaussian, Inc.
 340 Quinnipiac St., Bldg. 40, Wallingford CT 06492
  
  
 ---------------------------------------------------------------
 Warning -- This program may not be used in any manner that
 competes with the business of Gaussian, Inc. or will provide
 assistance to any competitor of Gaussian, Inc.  The licensee
 of this program is prohibited from giving any competitor of
 Gaussian, Inc. access to this program.  By using this program,
 the user acknowledges that Gaussian, Inc. is engaged in the
 business of creating and licensing software in the field of
 computational chemistry and represents and warrants to the
 licensee that it is not a competitor of Gaussian, Inc. and that
 it will not use this program in any manner prohibited above.
 ---------------------------------------------------------------
  

 Cite this work as:
 Gaussian 16, Revision B.01,
 M. J. Frisch, G. W. Trucks, H. B. Schlegel, G. E. Scuseria, 
 M. A. Robb, J. R. Cheeseman, G. Scalmani, V. Barone, 
 G. A. Petersson, H. Nakatsuji, X. Li, M. Caricato, A. V. Marenich, 
 J. Bloino, B. G. Janesko, R. Gomperts, B. Mennucci, H. P. Hratchian, 
 J. V. Ortiz, A. F. Izmaylov, J. L. Sonnenberg, D. Williams-Young, 
 F. Ding, F. Lipparini, F. Egidi, J. Goings, B. Peng, A. Petrone, 
 T. Henderson, D. Ranasinghe, V. G. Zakrzewski, J. Gao, N. Rega, 
 G. Zheng, W. Liang, M. Hada, M. Ehara, K. Toyota, R. Fukuda, 
 J. Hasegawa, M. Ishida, T. Nakajima, Y. Honda, O. Kitao, H. Nakai, 
 T. Vreven, K. Throssell, J. A. Montgomery, Jr., J. E. Peralta, 
 F. Ogliaro, M. J. Bearpark, J. J. Heyd, E. N. Brothers, K. N. Kudin, 
 V. N. Staroverov, T. A. Keith, R. Kobayashi, J. Normand, 
 K. Raghavachari, A. P. Rendell, J. C. Burant, S. S. Iyengar, 
 J. Tomasi, M. Cossi, J. M. Millam, M. Klene, C. Adamo, R. Cammi, 
 J. W. Ochterski, R. L. Martin, K. Morokuma, O. Farkas, 
 J. B. Foresman, and D. J. Fox, Gaussian, Inc., Wallingford CT, 2016.
 
 ******************************************
 Gaussian 16:  ES64L-G16RevB.01 20-Dec-2017
                20-Nov-2022 
 ******************************************
 %nprocshared=32
 Will use up to   32 processors via shared memory.
 %mem=120GB
 %chk=_conf019.chk
 ----------------------------------------
 #P wB97XD/6-311++G(d,p) scf=maxcycle=512
 ----------------------------------------
 1/38=1,172=1/1;
 2/12=2,17=6,18=5,40=1/2;
 3/5=4,6=6,7=1111,11=2,25=1,30=1,74=-58/1,2,3;
 4//1;
 5/5=2,7=512,38=5/2;
 6/7=2,8=2,9=2,10=2,28=1/1;
 99/5=1,9=1/99;
 Leave Link    1 at Sun Nov 20 17:26:35 2022, MaxMem= 16106127360 cpu:               1.5 elap:               0.1
 (Enter /opt/ap/G16/B01/g16/l101.exe)
 ----------------------------
 _conf019.gjf nmol_natom 1_15
 ----------------------------
 Symbolic Z-matrix:
 Charge =  0 Multiplicity = 1
 C
 C                    1     1.39016 
 C                    1     1.39195  2     119.89594 
 C                    2     1.38669  1     119.88076  3     0.70826  0
 H                    2     0.98744  1     119.71654  3    -179.90726  0
 C                    1     1.48429  2     119.93615  4    -179.87772  0
 C                    3     1.40101  1     119.72365  2    -0.26267  0
 H                    3     0.99022  1     119.18862  2     178.85398  0
 C                    4     1.37899  2     120.45786  1    -0.48041  0
 H                    4     0.98347  2     120.30443  1     179.36167  0
 O                    6     1.2746   1     118.00615  2    -1.25977  0
 O                    6     1.26363  1     118.77715  2     179.20604  0
 H                    7     0.98977  3     119.37862  1    -178.93546  0
 H                    9     0.99498  4     119.46723  2    -178.58827  0
 H                    11    0.8968   6     118.15824  1    -175.     0
 
 ITRead=  0  0  0  0  0  0  0  0  0  0  0  0  0  0  0
 MicOpt= -1 -1 -1 -1 -1 -1 -1 -1 -1 -1 -1 -1 -1 -1 -1
 NAtoms=     15 NQM=       15 NQMF=       0 NMMI=      0 NMMIF=      0
                NMic=       0 NMicF=      0.
                    Isotopes and Nuclear Properties:
 (Nuclear quadrupole moments (NQMom) in fm**2, nuclear magnetic moments (NMagM)
  in nuclear magnetons)

  Atom         1           2           3           4           5           6           7           8           9          10
 IAtWgt=          12          12          12          12           1          12          12           1          12           1
 AtmWgt=  12.0000000  12.0000000  12.0000000  12.0000000   1.0078250  12.0000000  12.0000000   1.0078250  12.0000000   1.0078250
 NucSpn=           0           0           0           0           1           0           0           1           0           1
 AtZEff=  -0.0000000  -0.0000000  -0.0000000  -0.0000000  -0.0000000  -0.0000000  -0.0000000  -0.0000000  -0.0000000  -0.0000000
 NQMom=    0.0000000   0.0000000   0.0000000   0.0000000   0.0000000   0.0000000   0.0000000   0.0000000   0.0000000   0.0000000
 NMagM=    0.0000000   0.0000000   0.0000000   0.0000000   2.7928460   0.0000000   0.0000000   2.7928460   0.0000000   2.7928460
 AtZNuc=   6.0000000   6.0000000   6.0000000   6.0000000   1.0000000   6.0000000   6.0000000   1.0000000   6.0000000   1.0000000

  Atom        11          12          13          14          15
 IAtWgt=          16          16           1           1           1
 AtmWgt=  15.9949146  15.9949146   1.0078250   1.0078250   1.0078250
 NucSpn=           0           0           1           1           1
 AtZEff=  -0.0000000  -0.0000000  -0.0000000  -0.0000000  -0.0000000
 NQMom=    0.0000000   0.0000000   0.0000000   0.0000000   0.0000000
 NMagM=    0.0000000   0.0000000   2.7928460   2.7928460   2.7928460
 AtZNuc=   8.0000000   8.0000000   1.0000000   1.0000000   1.0000000
 Leave Link  101 at Sun Nov 20 17:26:35 2022, MaxMem= 16106127360 cpu:               5.1 elap:               0.2
 (Enter /opt/ap/G16/B01/g16/l202.exe)
                          Input orientation:                          
 ---------------------------------------------------------------------
 Center     Atomic      Atomic             Coordinates (Angstroms)
 Number     Number       Type             X           Y           Z
 ---------------------------------------------------------------------
      1          6           0        0.000000    0.000000    0.000000
      2          6           0        0.000000    0.000000    1.390162
      3          6           0        1.206722    0.000000   -0.693782
      4          6           0        1.202258    0.014862    2.081006
      5          1           0       -0.857581   -0.001388    1.879646
      6          6           0       -1.286190   -0.013155   -0.740711
      7          6           0        2.415349    0.005578    0.014752
      8          1           0        1.194584   -0.017290   -1.683772
      9          6           0        2.400563    0.019708    1.398617
     10          1           0        1.209438    0.024411    3.064408
     11          8           0       -2.365984   -0.048941   -0.064425
     12          8           0       -1.260842    0.002453   -2.003986
     13          1           0        3.270315    0.021574   -0.483669
     14          1           0        3.254554    0.009066    1.909081
     15          1           0       -3.141224   -0.125851   -0.508660
 ---------------------------------------------------------------------
                    Distance matrix (angstroms):
                    1          2          3          4          5
     1  C    0.000000
     2  C    1.390162   0.000000
     3  C    1.391945   2.408112   0.000000
     4  C    2.403379   1.386690   2.774832   0.000000
     5  H    2.066039   0.987443   3.299073   2.069721   0.000000
     6  C    1.484288   2.488991   2.493388   3.762345   2.655206
     7  C    2.415401   2.779513   1.401011   2.396056   3.766955
     8  H    2.064563   3.297939   0.990215   3.764924   4.112127
     9  C    2.778349   2.400659   2.409104   1.378990   3.293530
    10  H    3.294530   2.065535   3.758270   0.983474   2.382624
    11  O    2.367367   2.777786   3.628045   4.164047   2.461088
    12  O    2.367633   3.620769   2.793834   4.770133   3.904515
    13  H    3.305958   3.769173   2.074374   3.294611   4.756607
    14  H    3.773167   3.295676   3.311886   2.059493   4.112253
    15  H    3.184629   3.672690   4.353704   5.058854   3.306739
                    6          7          8          9         10
     6  C    0.000000
     7  C    3.777892   0.000000
     8  H    2.653982   2.091836   0.000000
     9  C    4.262622   1.384016   3.310118   0.000000
    10  H    4.550659   3.279477   4.748386   2.047842   0.000000
    11  O    1.274598   4.782299   3.911641   4.986499   4.751696
    12  O    1.263626   4.194007   2.476296   4.998389   5.638384
    13  H    4.563881   0.989771   2.398003   2.073517   4.103177
    14  H    5.257398   2.071897   4.141589   0.994981   2.348938
    15  H    1.872885   5.582718   4.493540   5.862618   5.631843
                   11         12         13         14         15
    11  O    0.000000
    12  O    2.232908   0.000000
    13  H    5.652309   4.779447   0.000000
    14  H    5.957225   5.975025   2.392834   0.000000
    15  H    0.896804   2.405888   6.413282   6.838833   0.000000
 Stoichiometry    C7H6O2
 Framework group  C1[X(C7H6O2)]
 Deg. of freedom    39
 Full point group                 C1      NOp   1
 Largest Abelian subgroup         C1      NOp   1
 Largest concise Abelian subgroup C1      NOp   1
                         Standard orientation:                         
 ---------------------------------------------------------------------
 Center     Atomic      Atomic             Coordinates (Angstroms)
 Number     Number       Type             X           Y           Z
 ---------------------------------------------------------------------
      1          6           0        0.220641    0.028160   -0.006582
      2          6           0       -0.443593   -1.193045   -0.007726
      3          6           0       -0.507864    1.214161    0.007441
      4          6           0       -1.829903   -1.225431   -0.009754
      5          1           0        0.075850   -2.032776   -0.016301
      6          6           0        1.704489    0.064262   -0.007157
      7          6           0       -1.908135    1.169222    0.014753
      8          1           0       -0.024012    2.077926    0.025409
      9          6           0       -2.556503   -0.053431   -0.000680
     10          1           0       -2.306180   -2.085824   -0.020032
     11          8           0        2.330194   -1.045943    0.016033
     12          8           0        2.285682    1.186207   -0.021441
     13          1           0       -2.421147    2.015642    0.008699
     14          1           0       -3.550464   -0.093906    0.019062
     15          1           0        3.224158   -1.026552    0.084662
 ---------------------------------------------------------------------
 Rotational constants (GHZ):           3.9687410           1.2388657           0.9442387
 Leave Link  202 at Sun Nov 20 17:26:35 2022, MaxMem= 16106127360 cpu:               0.5 elap:               0.0
 (Enter /opt/ap/G16/B01/g16/l301.exe)
 Standard basis: 6-311++G(d,p) (5D, 7F)
 Ernie: Thresh=  0.10000D-02 Tol=  0.10000D-05 Strict=F.
 There are   249 symmetry adapted cartesian basis functions of A   symmetry.
 There are   240 symmetry adapted basis functions of A   symmetry.
   240 basis functions,   378 primitive gaussians,   249 cartesian basis functions
    32 alpha electrons       32 beta electrons
       nuclear repulsion energy       409.5620511714 Hartrees.
 IExCor= 4639 DFT=T Ex+Corr=wB97XD ExCW=0 ScaHFX=  1.000000
 ScaDFX=  1.000000  1.000000  1.000000  1.000000 ScalE2=  1.000000  1.000000
 IRadAn=      5 IRanWt=     -1 IRanGd=            0 ICorTp=0 IEmpDi=121
 HFx  wShort=  0.000000 wLong=  0.200000 cFull=  0.222036 cShort=  0.000000 cLong=  0.777964
 DFx  wShort=  0.000000 wLong=  0.200000 cFull=  0.000000 cShort=  0.000000 cLong=  1.000000
 NAtoms=   15 NActive=   15 NUniq=   15 SFac= 1.00D+00 NAtFMM=   60 NAOKFM=F Big=F
 Integral buffers will be    131072 words long.
 Raffenetti 2 integral format.
 Two-electron integral symmetry is turned on.
 R6Disp:  Grimme-D2 Dispersion energy=       -0.0063262717 Hartrees.
 Nuclear repulsion after empirical dispersion term =      409.5557248997 Hartrees.
 Leave Link  301 at Sun Nov 20 17:26:36 2022, MaxMem= 16106127360 cpu:               1.8 elap:               0.1
 (Enter /opt/ap/G16/B01/g16/l302.exe)
 NPDir=0 NMtPBC=     1 NCelOv=     1 NCel=       1 NClECP=     1 NCelD=      1
         NCelK=      1 NCelE2=     1 NClLst=     1 CellRange=     0.0.
 One-electron integrals computed using PRISM.
 One-electron integral symmetry used in STVInt
 NBasis=   240 RedAO= T EigKep=  1.21D-06  NBF=   240
 NBsUse=   240 1.00D-06 EigRej= -1.00D+00 NBFU=   240
 Precomputing XC quadrature grid using
 IXCGrd= 4 IRadAn=           5 IRanWt=          -1 IRanGd=           0 AccXCQ= 0.00D+00.
 Generated NRdTot=       0 NPtTot=           0 NUsed=           0 NTot=          32
 NSgBfM=   249   249   249   249   249 MxSgAt=    15 MxSgA2=    15.
 Leave Link  302 at Sun Nov 20 17:26:36 2022, MaxMem= 16106127360 cpu:               5.4 elap:               0.2
 (Enter /opt/ap/G16/B01/g16/l303.exe)
 DipDrv:  MaxL=1.
 Leave Link  303 at Sun Nov 20 17:26:36 2022, MaxMem= 16106127360 cpu:               1.2 elap:               0.0
 (Enter /opt/ap/G16/B01/g16/l401.exe)
 ExpMin= 3.60D-02 ExpMax= 8.59D+03 ExpMxC= 1.30D+03 IAcc=3 IRadAn=         5 AccDes= 0.00D+00
 Harris functional with IExCor= 4639 and IRadAn=       5 diagonalized for initial guess.
 HarFok:  IExCor= 4639 AccDes= 0.00D+00 IRadAn=         5 IDoV= 1 UseB2=F ITyADJ=14
 ICtDFT=  3500011 ScaDFX=  1.000000  1.000000  1.000000  1.000000
 FoFCou: FMM=F IPFlag=           0 FMFlag=      100000 FMFlg1=           0
         NFxFlg=           0 DoJE=T BraDBF=F KetDBF=T FulRan=T
         wScrn=  0.000000 ICntrl=       500 IOpCl=  0 I1Cent=   200000004 NGrid=           0
         NMat0=    1 NMatS0=      1 NMatT0=    0 NMatD0=    1 NMtDS0=    0 NMtDT0=    0
 Petite list used in FoFCou.
 Harris En= -403.254812240720    
 JPrj=0 DoOrth=F DoCkMO=F.
 Leave Link  401 at Sun Nov 20 17:26:36 2022, MaxMem= 16106127360 cpu:              11.8 elap:               0.4
 (Enter /opt/ap/G16/B01/g16/l502.exe)
 Integral symmetry usage will be decided dynamically.
 Closed shell SCF:
 Using DIIS extrapolation, IDIIS=  1040.
 NGot= 16106127360 LenX= 16105992971 LenY= 16105930529
 Requested convergence on RMS density matrix=1.00D-08 within 512 cycles.
 Requested convergence on MAX density matrix=1.00D-06.
 Requested convergence on             energy=1.00D-06.
 No special actions if energy rises.
 Fock matrices will be formed incrementally for  20 cycles.

 Cycle   1  Pass 1  IDiag  1:
 FoFJK:  IHMeth= 1 ICntrl=       0 DoSepK=T KAlg= 0 I1Cent=           0 FoldK=F
 IRaf=         1 NMat=       1 IRICut=       1 DoRegI=T DoRafI=F ISym2E= 0 IDoP0=0 IntGTp=1.
 FoFCou: FMM=F IPFlag=           0 FMFlag=      100000 FMFlg1=           0
         NFxFlg=           0 DoJE=T BraDBF=F KetDBF=F FulRan=T
         wScrn=  0.000000 ICntrl=       500 IOpCl=  0 I1Cent=           0 NGrid=           0
         NMat0=    1 NMatS0=      1 NMatT0=    0 NMatD0=    1 NMtDS0=    0 NMtDT0=    0
 Symmetry not used in FoFCou.
 E= -420.632599680085    
 DIIS: error= 8.24D-02 at cycle   1 NSaved=   1.
 NSaved= 1 IEnMin= 1 EnMin= -420.632599680085     IErMin= 1 ErrMin= 8.24D-02
 ErrMax= 8.24D-02  0.00D+00 EMaxC= 1.00D-01 BMatC= 8.61D-01 BMatP= 8.61D-01
 IDIUse=3 WtCom= 1.76D-01 WtEn= 8.24D-01
 Coeff-Com:  0.100D+01
 Coeff-En:   0.100D+01
 Coeff:      0.100D+01
 Gap=     0.427 Goal=   None    Shift=    0.000
 GapD=    0.427 DampG=2.000 DampE=0.500 DampFc=1.0000 IDamp=-1.
 RMSDP=3.37D-02 MaxDP=3.05D+00              OVMax= 1.11D-01

 Cycle   2  Pass 1  IDiag  1:
 RMSU=  1.43D-02    CP:  6.69D-01
 E= -420.703408224658     Delta-E=       -0.070808544573 Rises=F Damp=F
 DIIS: error= 1.64D-02 at cycle   2 NSaved=   2.
 NSaved= 2 IEnMin= 2 EnMin= -420.703408224658     IErMin= 2 ErrMin= 1.64D-02
 ErrMax= 1.64D-02  0.00D+00 EMaxC= 1.00D-01 BMatC= 5.74D-02 BMatP= 8.61D-01
 IDIUse=3 WtCom= 8.36D-01 WtEn= 1.64D-01
 Coeff-Com:  0.136D+00 0.864D+00
 Coeff-En:   0.991D-01 0.901D+00
 Coeff:      0.130D+00 0.870D+00
 Gap=     0.424 Goal=   None    Shift=    0.000
 RMSDP=7.12D-03 MaxDP=3.11D-01 DE=-7.08D-02 OVMax= 7.79D-02

 Cycle   3  Pass 1  IDiag  1:
 RMSU=  6.73D-03    CP:  6.64D-01  8.41D-01
 E= -420.719615076842     Delta-E=       -0.016206852184 Rises=F Damp=F
 DIIS: error= 1.76D-02 at cycle   3 NSaved=   3.
 NSaved= 3 IEnMin= 3 EnMin= -420.719615076842     IErMin= 2 ErrMin= 1.64D-02
 ErrMax= 1.76D-02  0.00D+00 EMaxC= 1.00D-01 BMatC= 3.60D-02 BMatP= 5.74D-02
 IDIUse=3 WtCom= 8.24D-01 WtEn= 1.76D-01
 Coeff-Com:  0.276D-01 0.447D+00 0.525D+00
 Coeff-En:   0.000D+00 0.384D+00 0.616D+00
 Coeff:      0.227D-01 0.436D+00 0.541D+00
 Gap=     0.360 Goal=   None    Shift=    0.000
 RMSDP=4.34D-03 MaxDP=4.22D-01 DE=-1.62D-02 OVMax= 5.42D-02

 Cycle   4  Pass 1  IDiag  1:
 RMSU=  2.12D-03    CP:  6.37D-01  9.12D-01  5.93D-01
 E= -420.745768856487     Delta-E=       -0.026153779645 Rises=F Damp=F
 DIIS: error= 3.39D-03 at cycle   4 NSaved=   4.
 NSaved= 4 IEnMin= 4 EnMin= -420.745768856487     IErMin= 4 ErrMin= 3.39D-03
 ErrMax= 3.39D-03  0.00D+00 EMaxC= 1.00D-01 BMatC= 2.00D-03 BMatP= 3.60D-02
 IDIUse=3 WtCom= 9.66D-01 WtEn= 3.39D-02
 Coeff-Com:  0.105D-01 0.222D+00 0.306D+00 0.462D+00
 Coeff-En:   0.000D+00 0.000D+00 0.000D+00 0.100D+01
 Coeff:      0.101D-01 0.214D+00 0.296D+00 0.480D+00
 Gap=     0.350 Goal=   None    Shift=    0.000
 RMSDP=9.65D-04 MaxDP=5.53D-02 DE=-2.62D-02 OVMax= 1.27D-02

 Cycle   5  Pass 1  IDiag  1:
 RMSU=  7.25D-04    CP:  6.35D-01  8.98D-01  6.60D-01  8.29D-01
 E= -420.747115333640     Delta-E=       -0.001346477153 Rises=F Damp=F
 DIIS: error= 6.57D-04 at cycle   5 NSaved=   5.
 NSaved= 5 IEnMin= 5 EnMin= -420.747115333640     IErMin= 5 ErrMin= 6.57D-04
 ErrMax= 6.57D-04  0.00D+00 EMaxC= 1.00D-01 BMatC= 5.65D-05 BMatP= 2.00D-03
 IDIUse=3 WtCom= 9.93D-01 WtEn= 6.57D-03
 Coeff-Com:  0.308D-03 0.153D-01 0.305D-01 0.157D+00 0.797D+00
 Coeff-En:   0.000D+00 0.000D+00 0.000D+00 0.000D+00 0.100D+01
 Coeff:      0.306D-03 0.152D-01 0.303D-01 0.156D+00 0.798D+00
 Gap=     0.350 Goal=   None    Shift=    0.000
 RMSDP=2.42D-04 MaxDP=1.53D-02 DE=-1.35D-03 OVMax= 2.63D-03

 Cycle   6  Pass 1  IDiag  1:
 RMSU=  1.23D-04    CP:  6.34D-01  9.02D-01  6.72D-01  8.58D-01  9.86D-01
 E= -420.747158591635     Delta-E=       -0.000043257995 Rises=F Damp=F
 DIIS: error= 2.16D-04 at cycle   6 NSaved=   6.
 NSaved= 6 IEnMin= 6 EnMin= -420.747158591635     IErMin= 6 ErrMin= 2.16D-04
 ErrMax= 2.16D-04  0.00D+00 EMaxC= 1.00D-01 BMatC= 7.46D-06 BMatP= 5.65D-05
 IDIUse=3 WtCom= 9.98D-01 WtEn= 2.16D-03
 Coeff-Com: -0.964D-03-0.166D-01-0.180D-01 0.166D-01 0.346D+00 0.673D+00
 Coeff-En:   0.000D+00 0.000D+00 0.000D+00 0.000D+00 0.000D+00 0.100D+01
 Coeff:     -0.962D-03-0.165D-01-0.179D-01 0.165D-01 0.345D+00 0.674D+00
 Gap=     0.350 Goal=   None    Shift=    0.000
 RMSDP=1.92D-04 MaxDP=1.90D-02 DE=-4.33D-05 OVMax= 8.52D-04

 Cycle   7  Pass 1  IDiag  1:
 RMSU=  6.07D-05    CP:  6.32D-01  9.01D-01  6.80D-01  8.70D-01  1.05D+00
                    CP:  1.14D+00
 E= -420.747165790155     Delta-E=       -0.000007198520 Rises=F Damp=F
 DIIS: error= 6.76D-05 at cycle   7 NSaved=   7.
 NSaved= 7 IEnMin= 7 EnMin= -420.747165790155     IErMin= 7 ErrMin= 6.76D-05
 ErrMax= 6.76D-05  0.00D+00 EMaxC= 1.00D-01 BMatC= 3.10D-07 BMatP= 7.46D-06
 IDIUse=1 WtCom= 1.00D+00 WtEn= 0.00D+00
 Coeff-Com: -0.234D-03-0.544D-02-0.684D-02-0.134D-01-0.212D-03 0.134D+00
 Coeff-Com:  0.892D+00
 Coeff:     -0.234D-03-0.544D-02-0.684D-02-0.134D-01-0.212D-03 0.134D+00
 Coeff:      0.892D+00
 Gap=     0.350 Goal=   None    Shift=    0.000
 RMSDP=4.59D-05 MaxDP=3.46D-03 DE=-7.20D-06 OVMax= 3.11D-04

 Cycle   8  Pass 1  IDiag  1:
 RMSU=  1.41D-05    CP:  6.31D-01  9.01D-01  6.83D-01  8.72D-01  1.09D+00
                    CP:  1.17D+00  1.05D+00
 E= -420.747166358265     Delta-E=       -0.000000568110 Rises=F Damp=F
 DIIS: error= 1.52D-05 at cycle   8 NSaved=   8.
 NSaved= 8 IEnMin= 8 EnMin= -420.747166358265     IErMin= 8 ErrMin= 1.52D-05
 ErrMax= 1.52D-05  0.00D+00 EMaxC= 1.00D-01 BMatC= 4.09D-08 BMatP= 3.10D-07
 IDIUse=1 WtCom= 1.00D+00 WtEn= 0.00D+00
 Coeff-Com:  0.308D-04 0.262D-03 0.144D-03-0.599D-02-0.374D-01-0.372D-01
 Coeff-Com:  0.241D+00 0.839D+00
 Coeff:      0.308D-04 0.262D-03 0.144D-03-0.599D-02-0.374D-01-0.372D-01
 Coeff:      0.241D+00 0.839D+00
 Gap=     0.350 Goal=   None    Shift=    0.000
 RMSDP=1.38D-05 MaxDP=7.41D-04 DE=-5.68D-07 OVMax= 1.17D-04

 Cycle   9  Pass 1  IDiag  1:
 RMSU=  4.81D-06    CP:  6.31D-01  9.00D-01  6.84D-01  8.69D-01  1.10D+00
                    CP:  1.19D+00  1.13D+00  1.18D+00
 E= -420.747166429519     Delta-E=       -0.000000071254 Rises=F Damp=F
 DIIS: error= 1.03D-05 at cycle   9 NSaved=   9.
 NSaved= 9 IEnMin= 9 EnMin= -420.747166429519     IErMin= 9 ErrMin= 1.03D-05
 ErrMax= 1.03D-05  0.00D+00 EMaxC= 1.00D-01 BMatC= 4.57D-09 BMatP= 4.09D-08
 IDIUse=1 WtCom= 1.00D+00 WtEn= 0.00D+00
 Coeff-Com:  0.363D-04 0.693D-03 0.848D-03-0.357D-03-0.998D-02-0.262D-01
 Coeff-Com: -0.279D-01 0.245D+00 0.817D+00
 Coeff:      0.363D-04 0.693D-03 0.848D-03-0.357D-03-0.998D-02-0.262D-01
 Coeff:     -0.279D-01 0.245D+00 0.817D+00
 Gap=     0.350 Goal=   None    Shift=    0.000
 RMSDP=5.33D-06 MaxDP=3.36D-04 DE=-7.13D-08 OVMax= 4.96D-05

 Cycle  10  Pass 1  IDiag  1:
 RMSU=  1.58D-06    CP:  6.31D-01  9.00D-01  6.84D-01  8.67D-01  1.10D+00
                    CP:  1.19D+00  1.15D+00  1.28D+00  1.28D+00
 E= -420.747166437618     Delta-E=       -0.000000008099 Rises=F Damp=F
 DIIS: error= 1.57D-06 at cycle  10 NSaved=  10.
 NSaved=10 IEnMin=10 EnMin= -420.747166437618     IErMin=10 ErrMin= 1.57D-06
 ErrMax= 1.57D-06  0.00D+00 EMaxC= 1.00D-01 BMatC= 5.55D-10 BMatP= 4.57D-09
 IDIUse=1 WtCom= 1.00D+00 WtEn= 0.00D+00
 Coeff-Com:  0.613D-05 0.137D-03 0.194D-03 0.426D-03 0.136D-02-0.364D-02
 Coeff-Com: -0.299D-01-0.277D-01 0.222D+00 0.838D+00
 Coeff:      0.613D-05 0.137D-03 0.194D-03 0.426D-03 0.136D-02-0.364D-02
 Coeff:     -0.299D-01-0.277D-01 0.222D+00 0.838D+00
 Gap=     0.350 Goal=   None    Shift=    0.000
 RMSDP=1.77D-06 MaxDP=9.32D-05 DE=-8.10D-09 OVMax= 1.33D-05

 Cycle  11  Pass 1  IDiag  1:
 RMSU=  4.06D-07    CP:  6.31D-01  9.00D-01  6.84D-01  8.67D-01  1.11D+00
                    CP:  1.19D+00  1.15D+00  1.32D+00  1.41D+00  1.25D+00
 E= -420.747166438509     Delta-E=       -0.000000000891 Rises=F Damp=F
 DIIS: error= 1.01D-06 at cycle  11 NSaved=  11.
 NSaved=11 IEnMin=11 EnMin= -420.747166438509     IErMin=11 ErrMin= 1.01D-06
 ErrMax= 1.01D-06  0.00D+00 EMaxC= 1.00D-01 BMatC= 9.96D-11 BMatP= 5.55D-10
 IDIUse=1 WtCom= 1.00D+00 WtEn= 0.00D+00
 Coeff-Com: -0.147D-05-0.111D-04 0.161D-05 0.249D-03 0.186D-02 0.132D-02
 Coeff-Com: -0.827D-02-0.454D-01-0.133D-01 0.338D+00 0.726D+00
 Coeff:     -0.147D-05-0.111D-04 0.161D-05 0.249D-03 0.186D-02 0.132D-02
 Coeff:     -0.827D-02-0.454D-01-0.133D-01 0.338D+00 0.726D+00
 Gap=     0.350 Goal=   None    Shift=    0.000
 RMSDP=6.63D-07 MaxDP=3.88D-05 DE=-8.91D-10 OVMax= 6.99D-06

 Cycle  12  Pass 1  IDiag  1:
 RMSU=  2.29D-07    CP:  6.31D-01  9.00D-01  6.84D-01  8.66D-01  1.11D+00
                    CP:  1.19D+00  1.16D+00  1.32D+00  1.45D+00  1.37D+00
                    CP:  1.10D+00
 E= -420.747166438638     Delta-E=       -0.000000000129 Rises=F Damp=F
 DIIS: error= 2.48D-07 at cycle  12 NSaved=  12.
 NSaved=12 IEnMin=12 EnMin= -420.747166438638     IErMin=12 ErrMin= 2.48D-07
 ErrMax= 2.48D-07  0.00D+00 EMaxC= 1.00D-01 BMatC= 7.58D-12 BMatP= 9.96D-11
 IDIUse=1 WtCom= 1.00D+00 WtEn= 0.00D+00
 Coeff-Com: -0.946D-06-0.149D-04-0.153D-04 0.407D-04 0.447D-03 0.574D-03
 Coeff-Com:  0.605D-03-0.115D-01-0.218D-01 0.258D-01 0.203D+00 0.803D+00
 Coeff:     -0.946D-06-0.149D-04-0.153D-04 0.407D-04 0.447D-03 0.574D-03
 Coeff:      0.605D-03-0.115D-01-0.218D-01 0.258D-01 0.203D+00 0.803D+00
 Gap=     0.350 Goal=   None    Shift=    0.000
 RMSDP=1.58D-07 MaxDP=1.26D-05 DE=-1.29D-10 OVMax= 2.16D-06

 Cycle  13  Pass 1  IDiag  1:
 RMSU=  6.48D-08    CP:  6.31D-01  9.00D-01  6.84D-01  8.66D-01  1.11D+00
                    CP:  1.19D+00  1.16D+00  1.32D+00  1.46D+00  1.39D+00
                    CP:  1.17D+00  1.02D+00
 E= -420.747166438655     Delta-E=       -0.000000000017 Rises=F Damp=F
 DIIS: error= 1.32D-07 at cycle  13 NSaved=  13.
 NSaved=13 IEnMin=13 EnMin= -420.747166438655     IErMin=13 ErrMin= 1.32D-07
 ErrMax= 1.32D-07  0.00D+00 EMaxC= 1.00D-01 BMatC= 1.32D-12 BMatP= 7.58D-12
 IDIUse=1 WtCom= 1.00D+00 WtEn= 0.00D+00
 Coeff-Com: -0.348D-08-0.394D-05-0.690D-05-0.342D-04-0.202D-03-0.957D-04
 Coeff-Com:  0.183D-02 0.438D-02-0.330D-02-0.538D-01-0.841D-01 0.239D+00
 Coeff-Com:  0.896D+00
 Coeff:     -0.348D-08-0.394D-05-0.690D-05-0.342D-04-0.202D-03-0.957D-04
 Coeff:      0.183D-02 0.438D-02-0.330D-02-0.538D-01-0.841D-01 0.239D+00
 Coeff:      0.896D+00
 Gap=     0.350 Goal=   None    Shift=    0.000
 RMSDP=9.18D-08 MaxDP=8.68D-06 DE=-1.69D-11 OVMax= 1.36D-06

 Cycle  14  Pass 1  IDiag  1:
 RMSU=  2.28D-08    CP:  6.31D-01  9.00D-01  6.84D-01  8.66D-01  1.11D+00
                    CP:  1.19D+00  1.16D+00  1.32D+00  1.46D+00  1.40D+00
                    CP:  1.21D+00  1.13D+00  1.24D+00
 E= -420.747166438657     Delta-E=       -0.000000000002 Rises=F Damp=F
 DIIS: error= 6.30D-08 at cycle  14 NSaved=  14.
 NSaved=14 IEnMin=14 EnMin= -420.747166438657     IErMin=14 ErrMin= 6.30D-08
 ErrMax= 6.30D-08  0.00D+00 EMaxC= 1.00D-01 BMatC= 1.05D-13 BMatP= 1.32D-12
 IDIUse=1 WtCom= 1.00D+00 WtEn= 0.00D+00
 Coeff-Com:  0.501D-07 0.805D-06 0.844D-06-0.459D-05-0.566D-04-0.387D-04
 Coeff-Com:  0.459D-04 0.116D-02 0.188D-02-0.611D-02-0.234D-01-0.595D-01
 Coeff-Com:  0.455D-01 0.104D+01
 Coeff:      0.501D-07 0.805D-06 0.844D-06-0.459D-05-0.566D-04-0.387D-04
 Coeff:      0.459D-04 0.116D-02 0.188D-02-0.611D-02-0.234D-01-0.595D-01
 Coeff:      0.455D-01 0.104D+01
 Gap=     0.350 Goal=   None    Shift=    0.000
 RMSDP=3.04D-08 MaxDP=2.56D-06 DE=-1.93D-12 OVMax= 5.28D-07

 Cycle  15  Pass 1  IDiag  1:
 RMSU=  7.37D-09    CP:  6.31D-01  9.00D-01  6.84D-01  8.66D-01  1.11D+00
                    CP:  1.19D+00  1.16D+00  1.32D+00  1.46D+00  1.40D+00
                    CP:  1.21D+00  1.13D+00  1.41D+00  1.28D+00
 E= -420.747166438662     Delta-E=       -0.000000000005 Rises=F Damp=F
 DIIS: error= 3.42D-08 at cycle  15 NSaved=  15.
 NSaved=15 IEnMin=15 EnMin= -420.747166438662     IErMin=15 ErrMin= 3.42D-08
 ErrMax= 3.42D-08  0.00D+00 EMaxC= 1.00D-01 BMatC= 2.83D-14 BMatP= 1.05D-13
 IDIUse=1 WtCom= 1.00D+00 WtEn= 0.00D+00
 Coeff-Com:  0.141D-07 0.878D-06 0.144D-05 0.417D-05 0.121D-04 0.716D-05
 Coeff-Com: -0.274D-03-0.289D-03 0.132D-02 0.660D-02 0.557D-02-0.535D-01
 Coeff-Com: -0.126D+00 0.364D+00 0.802D+00
 Coeff:      0.141D-07 0.878D-06 0.144D-05 0.417D-05 0.121D-04 0.716D-05
 Coeff:     -0.274D-03-0.289D-03 0.132D-02 0.660D-02 0.557D-02-0.535D-01
 Coeff:     -0.126D+00 0.364D+00 0.802D+00
 Gap=     0.350 Goal=   None    Shift=    0.000
 RMSDP=8.56D-09 MaxDP=5.98D-07 DE=-5.00D-12 OVMax= 2.01D-07

 SCF Done:  E(RwB97XD) =  -420.747166439     A.U. after   15 cycles
            NFock= 15  Conv=0.86D-08     -V/T= 2.0015
 KE= 4.201210193428D+02 PE=-1.802625591600D+03 EE= 5.522016809189D+02
 Leave Link  502 at Sun Nov 20 17:26:49 2022, MaxMem= 16106127360 cpu:             407.1 elap:              12.8
 (Enter /opt/ap/G16/B01/g16/l601.exe)
 Copying SCF densities to generalized density rwf, IOpCl= 0 IROHF=0.

 **********************************************************************

            Population analysis using the SCF Density.

 **********************************************************************

 Orbital symmetries:
       Occupied  (A) (A) (A) (A) (A) (A) (A) (A) (A) (A) (A) (A)
                 (A) (A) (A) (A) (A) (A) (A) (A) (A) (A) (A) (A)
                 (A) (A) (A) (A) (A) (A) (A) (A)
       Virtual   (A) (A) (A) (A) (A) (A) (A) (A) (A) (A) (A) (A)
                 (A) (A) (A) (A) (A) (A) (A) (A) (A) (A) (A) (A)
                 (A) (A) (A) (A) (A) (A) (A) (A) (A) (A) (A) (A)
                 (A) (A) (A) (A) (A) (A) (A) (A) (A) (A) (A) (A)
                 (A) (A) (A) (A) (A) (A) (A) (A) (A) (A) (A) (A)
                 (A) (A) (A) (A) (A) (A) (A) (A) (A) (A) (A) (A)
                 (A) (A) (A) (A) (A) (A) (A) (A) (A) (A) (A) (A)
                 (A) (A) (A) (A) (A) (A) (A) (A) (A) (A) (A) (A)
                 (A) (A) (A) (A) (A) (A) (A) (A) (A) (A) (A) (A)
                 (A) (A) (A) (A) (A) (A) (A) (A) (A) (A) (A) (A)
                 (A) (A) (A) (A) (A) (A) (A) (A) (A) (A) (A) (A)
                 (A) (A) (A) (A) (A) (A) (A) (A) (A) (A) (A) (A)
                 (A) (A) (A) (A) (A) (A) (A) (A) (A) (A) (A) (A)
                 (A) (A) (A) (A) (A) (A) (A) (A) (A) (A) (A) (A)
                 (A) (A) (A) (A) (A) (A) (A) (A) (A) (A) (A) (A)
                 (A) (A) (A) (A) (A) (A) (A) (A) (A) (A) (A) (A)
                 (A) (A) (A) (A) (A) (A) (A) (A) (A) (A) (A) (A)
                 (A) (A) (A) (A)
 The electronic state is 1-A.
 Alpha  occ. eigenvalues --  -19.31646 -19.22770 -10.43162 -10.31038 -10.29306
 Alpha  occ. eigenvalues --  -10.29299 -10.29171 -10.28979 -10.28723  -1.25789
 Alpha  occ. eigenvalues --   -1.10606  -0.98065  -0.88916  -0.87001  -0.80555
 Alpha  occ. eigenvalues --   -0.73369  -0.71892  -0.65815  -0.60674  -0.58587
 Alpha  occ. eigenvalues --   -0.56726  -0.56137  -0.54565  -0.53460  -0.48889
 Alpha  occ. eigenvalues --   -0.47373  -0.45566  -0.44710  -0.41034  -0.36125
 Alpha  occ. eigenvalues --   -0.34652  -0.34294
 Alpha virt. eigenvalues --    0.00697   0.03747   0.04321   0.04533   0.05294
 Alpha virt. eigenvalues --    0.06464   0.07815   0.08688   0.10202   0.11473
 Alpha virt. eigenvalues --    0.11904   0.12920   0.13491   0.14387   0.14602
 Alpha virt. eigenvalues --    0.16002   0.16304   0.16938   0.17513   0.17982
 Alpha virt. eigenvalues --    0.18099   0.19591   0.20058   0.20318   0.20401
 Alpha virt. eigenvalues --    0.21171   0.21624   0.21756   0.23229   0.23666
 Alpha virt. eigenvalues --    0.25399   0.26373   0.26794   0.27952   0.28959
 Alpha virt. eigenvalues --    0.29521   0.30289   0.30691   0.30778   0.31798
 Alpha virt. eigenvalues --    0.31989   0.33752   0.34326   0.35280   0.36016
 Alpha virt. eigenvalues --    0.36705   0.37034   0.38192   0.39856   0.40858
 Alpha virt. eigenvalues --    0.41834   0.42255   0.44092   0.44738   0.46493
 Alpha virt. eigenvalues --    0.48728   0.50724   0.54655   0.55031   0.57645
 Alpha virt. eigenvalues --    0.60487   0.61138   0.62264   0.63973   0.64185
 Alpha virt. eigenvalues --    0.64805   0.65147   0.66245   0.68273   0.68425
 Alpha virt. eigenvalues --    0.68929   0.72208   0.73149   0.74148   0.75781
 Alpha virt. eigenvalues --    0.76687   0.81400   0.82832   0.84560   0.86426
 Alpha virt. eigenvalues --    0.88539   0.91748   0.93120   0.93757   0.94732
 Alpha virt. eigenvalues --    0.96884   0.97337   0.98246   1.00448   1.00772
 Alpha virt. eigenvalues --    1.04117   1.07459   1.07721   1.09974   1.11310
 Alpha virt. eigenvalues --    1.14352   1.14845   1.16203   1.17675   1.17728
 Alpha virt. eigenvalues --    1.20832   1.21509   1.24049   1.29076   1.31280
 Alpha virt. eigenvalues --    1.33592   1.37978   1.43821   1.45130   1.56185
 Alpha virt. eigenvalues --    1.57277   1.59321   1.60499   1.61060   1.61839
 Alpha virt. eigenvalues --    1.62680   1.66427   1.67032   1.67398   1.74620
 Alpha virt. eigenvalues --    1.75160   1.78602   1.80710   1.82360   1.87812
 Alpha virt. eigenvalues --    1.88492   1.91383   1.91803   1.96489   2.00372
 Alpha virt. eigenvalues --    2.00605   2.02098   2.03770   2.04888   2.05834
 Alpha virt. eigenvalues --    2.06858   2.13002   2.15294   2.17564   2.20000
 Alpha virt. eigenvalues --    2.23213   2.29181   2.31790   2.42654   2.45917
 Alpha virt. eigenvalues --    2.52124   2.54688   2.54853   2.58311   2.64259
 Alpha virt. eigenvalues --    2.72108   2.72745   2.74379   2.76432   2.81448
 Alpha virt. eigenvalues --    2.81807   2.83334   2.88384   2.89151   2.90441
 Alpha virt. eigenvalues --    2.90681   2.91865   2.95479   2.99518   3.00836
 Alpha virt. eigenvalues --    3.02044   3.06465   3.07029   3.15278   3.18510
 Alpha virt. eigenvalues --    3.18889   3.23591   3.27985   3.32147   3.33167
 Alpha virt. eigenvalues --    3.42583   3.44083   3.48418   3.49693   3.64101
 Alpha virt. eigenvalues --    3.66326   3.69804   3.74678   3.84352   3.87813
 Alpha virt. eigenvalues --    4.08410   4.17388   4.28545   4.30835   4.36886
 Alpha virt. eigenvalues --    4.40974   4.46429   4.95157   5.05202   5.15209
 Alpha virt. eigenvalues --    5.30899   5.50230   5.82927   6.09418  23.84282
 Alpha virt. eigenvalues --   23.94429  24.14187  24.21389  24.28369  24.30453
 Alpha virt. eigenvalues --   24.41853  50.04075  50.16693
          Condensed to atoms (all electrons):
               1          2          3          4          5          6
     1  C   11.166634  -3.650271  -1.452637   2.827236  -0.124499  -2.816067
     2  C   -3.650271  19.655018  -2.104974  -7.822120   0.897045  -0.740512
     3  C   -1.452637  -2.104974  12.142213   0.377896  -0.052361  -0.824048
     4  C    2.827236  -7.822120   0.377896  10.761666  -0.308694  -0.326087
     5  H   -0.124499   0.897045  -0.052361  -0.308694   0.474615  -0.077388
     6  C   -2.816067  -0.740512  -0.824048  -0.326087  -0.077388   9.295819
     7  C    0.777250  -1.099689  -2.667433   1.183438  -0.020593   0.570488
     8  H   -0.006035   0.057250   0.525009  -0.030474   0.001373  -0.096654
     9  C   -1.270092   2.238984   0.827177  -1.339658   0.055592  -0.198808
    10  H    0.065399  -0.242523   0.030567   0.523067  -0.016086   0.013319
    11  O   -0.215523  -0.261733  -0.056242   0.108032  -0.040024   0.461881
    12  O   -0.148723  -0.137186  -0.030173   0.087926  -0.008013   0.539615
    13  H    0.024837  -0.018302  -0.102037   0.014697  -0.000481   0.026277
    14  H    0.004599   0.054263   0.004662  -0.082380   0.001847  -0.015501
    15  H   -0.098866   0.004629   0.006847  -0.034935   0.005064   0.105392
               7          8          9         10         11         12
     1  C    0.777250  -0.006035  -1.270092   0.065399  -0.215523  -0.148723
     2  C   -1.099689   0.057250   2.238984  -0.242523  -0.261733  -0.137186
     3  C   -2.667433   0.525009   0.827177   0.030567  -0.056242  -0.030173
     4  C    1.183438  -0.030474  -1.339658   0.523067   0.108032   0.087926
     5  H   -0.020593   0.001373   0.055592  -0.016086  -0.040024  -0.008013
     6  C    0.570488  -0.096654  -0.198808   0.013319   0.461881   0.539615
     7  C    7.635324  -0.115043  -0.821862   0.008071   0.075026   0.108580
     8  H   -0.115043   0.434284   0.037466  -0.000124  -0.006369  -0.009849
     9  C   -0.821862   0.037466   6.647364  -0.060673  -0.039243  -0.029711
    10  H    0.008071  -0.000124  -0.060673   0.477027   0.003363   0.001065
    11  O    0.075026  -0.006369  -0.039243   0.003363   8.005957  -0.120041
    12  O    0.108580  -0.009849  -0.029711   0.001065  -0.120041   8.097939
    13  H    0.436613  -0.009875  -0.043947  -0.000530   0.001207   0.002059
    14  H   -0.058682   0.001204   0.448533  -0.009075  -0.000595  -0.000486
    15  H    0.013152  -0.000839  -0.003219  -0.000274   0.259424  -0.016123
              13         14         15
     1  C    0.024837   0.004599  -0.098866
     2  C   -0.018302   0.054263   0.004629
     3  C   -0.102037   0.004662   0.006847
     4  C    0.014697  -0.082380  -0.034935
     5  H   -0.000481   0.001847   0.005064
     6  C    0.026277  -0.015501   0.105392
     7  C    0.436613  -0.058682   0.013152
     8  H   -0.009875   0.001204  -0.000839
     9  C   -0.043947   0.448533  -0.003219
    10  H   -0.000530  -0.009075  -0.000274
    11  O    0.001207  -0.000595   0.259424
    12  O    0.002059  -0.000486  -0.016123
    13  H    0.464179  -0.007787   0.000189
    14  H   -0.007787   0.472206  -0.000142
    15  H    0.000189  -0.000142   0.419155
 Mulliken charges:
               1
     1  C    0.916756
     2  C   -0.829879
     3  C   -0.624466
     4  C    0.060390
     5  H    0.212601
     6  C    0.082274
     7  C   -0.024641
     8  H    0.218677
     9  C   -0.447905
    10  H    0.207408
    11  O   -0.175121
    12  O   -0.336878
    13  H    0.212902
    14  H    0.187334
    15  H    0.340547
 Sum of Mulliken charges =  -0.00000
 Mulliken charges with hydrogens summed into heavy atoms:
               1
     1  C    0.916756
     2  C   -0.617278
     3  C   -0.405789
     4  C    0.267799
     6  C    0.082274
     7  C    0.188261
     9  C   -0.260571
    11  O    0.165425
    12  O   -0.336878
 Electronic spatial extent (au):  <R**2>=           1158.2081
 Charge=             -0.0000 electrons
 Dipole moment (field-independent basis, Debye):
    X=             -1.3440    Y=             -2.3005    Z=              0.1655  Tot=              2.6695
 Quadrupole moment (field-independent basis, Debye-Ang):
   XX=            -43.4206   YY=            -49.9496   ZZ=            -54.1362
   XY=             -8.0583   XZ=              0.5590   YZ=              0.0045
 Traceless Quadrupole moment (field-independent basis, Debye-Ang):
   XX=              5.7482   YY=             -0.7808   ZZ=             -4.9674
   XY=             -8.0583   XZ=              0.5590   YZ=              0.0045
 Octapole moment (field-independent basis, Debye-Ang**2):
  XXX=             21.2274  YYY=             -4.1584  ZZZ=              0.0876  XYY=             -7.4513
  XXY=            -26.4689  XXZ=              2.1836  XZZ=             11.3225  YZZ=             -0.4054
  YYZ=              0.2237  XYZ=             -0.4234
 Hexadecapole moment (field-independent basis, Debye-Ang**3):
 XXXX=           -873.4949 YYYY=           -358.9140 ZZZZ=            -58.5635 XXXY=            -90.6421
 XXXZ=              6.4342 YYYX=            -16.1476 YYYZ=              0.2074 ZZZX=              0.3594
 ZZZY=             -0.2635 XXYY=           -234.4983 XXZZ=           -194.6851 YYZZ=            -78.9752
 XXYZ=             -1.5791 YYXZ=              1.0185 ZZXY=             -1.9831
 N-N= 4.095557248997D+02 E-N=-1.802625591947D+03  KE= 4.201210193428D+02
 No NMR shielding tensors so no spin-rotation constants.
 Leave Link  601 at Sun Nov 20 17:26:49 2022, MaxMem= 16106127360 cpu:               3.3 elap:               0.1
 (Enter /opt/ap/G16/B01/g16/l9999.exe)
 1\1\GINC-N07\SP\RwB97XD\6-311++G(d,p)\C7H6O2\ROOT\20-Nov-2022\0\\#P wB
 97XD/6-311++G(d,p) scf=maxcycle=512\\_conf019.gjf nmol_natom 1_15\\0,1
 \C\C,1,1.39016191\C,1,1.39194539,2,119.895942\C,2,1.38669027,1,119.880
 75721,3,0.70825972,0\H,2,0.98744251,1,119.71654057,3,-179.90726164,0\C
 ,1,1.48428757,2,119.93615286,4,-179.87772406,0\C,3,1.40101108,1,119.72
 36454,2,-0.26266839,0\H,3,0.9902154,1,119.1886159,2,178.85397616,0\C,4
 ,1.37899003,2,120.45785903,1,-0.48041454,0\H,4,0.9834739,2,120.3044270
 6,1,179.36166981,0\O,6,1.27459751,1,118.00615353,2,-1.25976832,0\O,6,1
 .26362572,1,118.77715367,2,179.20603801,0\H,7,0.98977053,3,119.3786157
 8,1,-178.93545741,0\H,9,0.99498061,4,119.46722635,2,-178.58826714,0\H,
 11,0.89680392,6,118.15823763,1,-175.,0\\Version=ES64L-G16RevB.01\State
 =1-A\HF=-420.7471664\RMSD=8.559e-09\Dipole=0.0327673,-0.0655997,1.0476
 896\Quadrupole=8.1852634,-3.683878,-4.5013854,0.4969407,-1.219949,0.18
 86241\PG=C01 [X(C7H6O2)]\\@


 THE THINKER DIES, BUT HIS THOUGHTS ARE BEYOND THE 
 REACH OF DESTRUCTION.  MEN ARE MORTAL; BUT IDEAS 
 ARE IMMORTAL.
                              -- WALTER LIPPMANN
 Job cpu time:       0 days  0 hours  7 minutes 20.5 seconds.
 Elapsed time:       0 days  0 hours  0 minutes 13.9 seconds.
 File lengths (MBytes):  RWF=     35 Int=      0 D2E=      0 Chk=      4 Scr=      1
 Normal termination of Gaussian 16 at Sun Nov 20 17:26:49 2022.
